FOO
138240
    1MOL0     O    1   7.519   5.293   4.764 -0.8774 -0.3302  0.4459
    1MOL0     C    2   7.489   5.175   4.731 -0.2233 -0.0705  1.4176
    1MOL0     O    3   7.377   5.141   4.665  0.0743 -0.0301  0.4663
    1MOL0     C    4   7.260   5.189   4.698 -0.2633  0.2452 -0.5459
    1MOL0     C    5   7.151   5.143   4.623 -0.1733 -0.3351  0.5568
    1MOL0     C    6   7.017   5.185   4.653 -0.2386  0.2896 -0.1208
    1MOL0     C    7   6.998   5.294   4.738 -0.5413  0.1765  0.8725
    1MOL0     O    8   6.878   5.341   4.785 -0.2158  0.0324  0.0731
    1MOL0     C    9   6.782   5.374   4.684 -0.1403 -0.3273 -0.4084
    1MOL0     C   10   6.676   5.453   4.746 -0.3736  0.1021  0.6907
    1MOL0     C   11   6.600   5.377   4.851 -0.0435  1.4559 -0.5740
    1MOL0     C   12   6.556   5.460   4.972 -0.6141  0.4428 -0.1607
    1MOL0     C   13   6.462   5.585   4.943  0.1210 -0.5060  0.6302
    1MOL0     C   14   6.332   5.551   4.872  0.3825 -0.9136 -0.0217
    1MOL0     C   15   6.247   5.678   4.875 -0.0203  0.8545  0.0622
    1MOL0     C   16   6.135   5.669   4.770  0.0335  0.5317 -0.3686
    1MOL0     N   17   6.043   5.562   4.806 -0.3683  0.1855 -0.0409
    1MOL0     C   18   5.910   5.587   4.832  0.3169  0.1544  0.5510
    1MOL0     C   19   5.846   5.470   4.826  0.1301  0.3789 -0.7764
    1MOL0     C   20   5.698   5.441   4.833  0.0654  0.3793  1.2697
    1MOL0     C   21   5.646   5.471   4.975  0.4917 -0.5441  1.1130
    1MOL0     C   22   5.492   5.449   4.983 -0.8978  0.6262  0.5057
    1MOL0     C   23   5.429   5.312   4.977  0.1924 -0.7230 -0.3174
    1MOL0     O   24   5.462   5.248   4.856  0.5491  0.0500 -0.1310
    1MOL0     C   25   5.375   5.247   4.748 -0.2990  0.3368 -0.1013
    1MOL0     C   26   5.282   5.352   4.720 -0.2951 -0.6752  0.3286
    1MOL0     C   27   5.194   5.348   4.598  0.5529 -0.8923 -0.0299
    1MOL0     C   28   5.100   5.466   4.581  0.5180  0.2035  0.2250
    1MOL0     C   29   5.211   5.242   4.505  0.0300 -0.1648 -0.6791
    1MOL0     C   30   5.129   5.218   4.385  0.4547  0.3102  0.1637
    1MOL0     O   31   5.160   5.107   4.311 -0.1463  0.5196  0.0188
    1MOL0     C   32   5.085   5.073   4.199 -0.0854 -0.0368  0.0028
    1MOL0     C   33   5.142   5.087   4.070 -1.2704 -0.8862 -0.7015
    1MOL0     C   34   5.067   5.044   3.960  0.2579  0.0666 -0.7510
    1MOL0     C   35   4.940   4.974   3.964  0.1999 -0.7141  0.8782
    1MOL0     O   36   4.864   4.941   3.851 -0.4003 -0.1344 -0.2779
    1MOL0     C   37   4.891   4.808   3.832  0.2335  0.1566 -0.1086
    1MOL0     C   38   4.849   4.768   3.687 -0.0985 -0.0223  0.0949
    1MOL0     C   39   4.927   4.849   3.574  0.4700 -0.5968  0.3224
    1MOL0     C   40   5.077   4.815   3.566  0.3281 -0.3480  0.6470
    1MOL0     C   41   5.158   4.891   3.462  0.2251 -0.4245 -0.6131
    1MOL0     C   42   5.099   4.876   3.317 -0.2557 -0.2925  0.1359
    1MOL0     C   43   5.192   4.928   3.213 -0.3050 -0.0047  0.4282
    1MOL0     C   44   5.317   4.833   3.206 -0.6910  0.2696 -0.3183
    1MOL0    Cl   45   5.420   4.861   3.058  0.1041 -0.4466  0.1505
    1MOL0     C   46   4.893   4.957   4.095  0.2765  0.3468  0.3973
    1MOL0     C   47   4.965   5.003   4.210  0.7978  0.3643  0.8071
    1MOL0     O   48   5.042   5.299   4.353 -0.5286 -0.8469  0.6586
    1MOL0     C   49   5.309   5.147   4.543  0.6550 -0.0741 -0.3991
    1MOL0     C   50   5.387   5.150   4.654 -1.0937 -0.7751 -0.2483
    1MOL0     N   51   5.943   5.375   4.804  0.2554  0.5171  0.5666
    1MOL0     N   52   6.060   5.430   4.793  0.5667 -0.4133  0.4063
    1MOL0     C   53   7.110   5.348   4.806  0.9201  0.1721 -0.4136
    1MOL0     C   54   7.236   5.287   4.792 -0.1714  0.5368  0.1064
    1MOL0     C   55   7.607   5.083   4.740  0.4436  0.0701  0.9826
    1MOL0     C   56   7.736   5.133   4.778 -0.4459  0.5445  0.2754
    1MOL0     C   57   7.845   5.047   4.781 -0.4592  0.1191  0.3852
    1MOL0     C   58   7.836   4.910   4.750 -0.6024 -0.3658  0.6696
    1MOL0     O   59   7.958   4.847   4.739  0.6817 -0.0278 -0.1212
    1MOL0     C   60   7.962   4.705   4.763 -0.0214 -0.1407  0.4544
    1MOL0     C   61   8.108   4.662   4.771 -0.0480  0.8453  0.3414
    1MOL0     C   62   8.166   4.670   4.912 -0.0463 -0.3016 -0.0434
    1MOL0     C   63   8.312   4.639   4.912 -0.2541  0.1584 -0.3053
    1MOL0     C   64   8.377   4.594   5.036  0.2404  0.3067  1.2466
    1MOL0     C   65   8.434   4.589   5.142  0.4819 -0.0498 -0.5100
    1MOL0     C   66   7.709   4.863   4.707 -0.0454 -0.7234 -0.6661
    1MOL0     C   67   7.593   4.943   4.704 -0.2227 -0.2742 -0.2600
    1MOL0     H   68   7.175   5.069   4.547  0.5890 -1.2312  1.6300
    1MOL0     H   69   6.939   5.128   4.603  1.0218 -0.6027 -1.1233
    1MOL0     H   70   6.830   5.433   4.605 -0.3422  0.5433  0.1112
    1MOL0     H   71   6.739   5.285   4.637  0.5223  0.1403 -1.9871
    1MOL0     H   72   6.719   5.548   4.779 -0.3198 -0.1786  1.4460
    1MOL0     H   73   6.606   5.488   4.669  0.0430  0.2814  0.3891
    1MOL0     H   74   6.515   5.336   4.795  0.7076 -1.5422  0.2856
    1MOL0     H   75   6.660   5.288   4.873 -0.0740  1.2034 -1.4337
    1MOL0     H   76   6.516   5.395   5.050  0.5375  0.7646  0.7401
    1MOL0     H   77   6.645   5.494   5.027 -1.3855  1.3141  0.5861
    1MOL0     H   78   6.442   5.633   5.039  1.8793  1.4811  0.0745
    1MOL0     H   79   6.523   5.659   4.891  0.4138 -0.0863  1.5535
    1MOL0     H   80   6.357   5.533   4.767  0.7424  2.8761 -0.7213
    1MOL0     H   81   6.276   5.465   4.911  0.7646 -0.3629  1.8435
    1MOL0     H   82   6.218   5.702   4.978  0.4743  0.3062  0.3377
    1MOL0     H   83   6.311   5.760   4.839  2.8719 -1.0536  0.5131
    1MOL0     H   84   6.170   5.650   4.668 -0.5867 -2.9992 -0.0165
    1MOL0     H   85   6.079   5.762   4.781 -1.6484 -0.5407  0.4352
    1MOL0     H   86   5.867   5.686   4.843  1.0095  0.6677 -1.0286
    1MOL0     H   87   5.646   5.504   4.760  1.4060 -1.0771 -1.0725
    1MOL0     H   88   5.688   5.338   4.798  1.5791  0.8315 -0.7401
    1MOL0     H   89   5.664   5.579   4.987 -1.2439  0.0429 -1.0322
    1MOL0     H   90   5.707   5.422   5.052  0.3553  0.8079  2.1417
    1MOL0     H   91   5.442   5.506   4.905  0.6619  0.7986 -0.4058
    1MOL0     H   92   5.472   5.491   5.082  2.0525 -0.3155  1.5898
    1MOL0     H   93   5.320   5.324   4.981  0.5076  3.3662  0.2336
    1MOL0     H   94   5.471   5.246   5.053 -0.6886 -0.9762 -0.0397
    1MOL0     H   95   5.289   5.441   4.781  2.2382 -0.6350  0.0632
    1MOL0     H   96   5.145   5.550   4.635 -0.9518 -0.4541  2.6226
    1MOL0     H   97   5.095   5.507   4.480  1.2833  1.0853  0.5222
    1MOL0     H   98   4.999   5.442   4.615  0.2532 -0.4625 -1.0090
    1MOL0     H   99   5.243   5.123   4.052 -0.9548 -1.5574 -0.3341
    1MOL0     H  100   5.109   5.061   3.862  1.1407  0.3235 -0.3439
    1MOL0     H  101   4.994   4.780   3.857  1.4422  3.3040 -1.1469
    1MOL0     H  102   4.826   4.747   3.895 -0.0481 -0.4332 -0.9442
    1MOL0     H  103   4.876   4.663   3.675  2.6450  0.6573 -0.5631
    1MOL0     H  104   4.742   4.777   3.670 -0.0146  1.6376  0.2504
    1MOL0     H  105   4.899   4.954   3.587  0.3909 -0.8235  2.3286
    1MOL0     H  106   4.884   4.810   3.481 -0.4790  1.5718 -0.2078
    1MOL0     H  107   5.127   4.825   3.663 -0.2169 -1.0179  1.0089
    1MOL0     H  108   5.086   4.708   3.546  1.9741 -0.5804  2.4000
    1MOL0     H  109   5.258   4.846   3.464 -0.3041 -1.6434 -0.7724
    1MOL0     H  110   5.177   4.995   3.490  0.5161 -0.7900  0.6012
    1MOL0     H  111   5.067   4.776   3.287 -3.3000  0.8371 -0.6968
    1MOL0     H  112   5.019   4.948   3.301  0.0883 -0.2502 -1.7102
    1MOL0     H  113   5.240   5.022   3.241  0.7755 -0.3806 -0.0871
    1MOL0     H  114   5.149   4.927   3.113 -0.8203  3.4604  0.4987
    1MOL0     H  115   5.283   4.730   3.211 -0.4556 -0.0136 -2.8627
    1MOL0     H  116   5.374   4.842   3.298  0.1750 -0.0006 -0.8146
    1MOL0     H  117   4.798   4.905   4.105  0.8319 -1.0809 -1.2363
    1MOL0     H  118   4.933   4.986   4.313 -0.0128 -1.6540  0.2567
    1MOL0     H  119   5.324   5.069   4.469 -0.9977  1.2659 -2.2557
    1MOL0     H  120   5.468   5.080   4.674  1.3030  1.7014 -0.6282
    1MOL0     H  121   7.097   5.431   4.874  1.1969 -0.2203  0.1236
    1MOL0     H  122   7.311   5.340   4.850  0.1335  0.6103 -0.3548
    1MOL0     H  123   7.747   5.229   4.828  2.2897  0.8237 -0.7079
    1MOL0     H  124   7.937   5.094   4.812 -0.9815  0.7062  1.0729
    1MOL0     H  125   7.907   4.660   4.847 -0.0027 -0.9054  0.0686
    1MOL0     H  126   7.917   4.664   4.672 -0.2791  1.0069  0.0574
    1MOL0     H  127   8.164   4.724   4.702 -1.3105  0.3178 -1.2347
    1MOL0     H  128   8.111   4.561   4.728  1.0185 -0.3720  3.0093
    1MOL0     H  129   8.120   4.604   4.986  0.2284  1.0405  1.3703
    1MOL0     H  130   8.153   4.769   4.957 -0.2101  0.0779 -0.9097
    1MOL0     H  131   8.370   4.725   4.878  1.1041 -0.5740  0.0793
    1MOL0     H  132   8.332   4.561   4.836 -0.3966  0.2506 -0.4372
    1MOL0     H  133   8.462   4.597   5.245 -1.0475 -1.2068  0.0312
    1MOL0     H  134   7.687   4.760   4.683  0.5083 -1.0127  0.0262
    1MOL0     H  135   7.496   4.902   4.677  0.8078 -2.1992 -1.2594
    2MOL0     O  136   6.417   5.251   5.965 -0.2860  0.4895  0.0985
    2MOL0     C  137   6.512   5.252   5.885 -0.1000 -0.0690 -0.7468
    2MOL0     O  138   6.517   5.321   5.769  0.4360  0.2102  0.2735
    2MOL0     C  139   6.412   5.402   5.724 -0.7933 -0.9019 -0.0270
    2MOL0     C  140   6.313   5.355   5.637 -0.3074 -0.2745  0.5917
    2MOL0     C  141   6.189   5.431   5.622  0.0210  0.1096  0.7361
    2MOL0     C  142   6.185   5.570   5.664 -0.1918  0.5553 -0.7295
    2MOL0     O  143   6.094   5.660   5.639  0.1207  0.0013  0.0301
    2MOL0     C  144   5.978   5.605   5.564 -0.5548  0.1254 -0.1114
    2MOL0     C  145   5.884   5.723   5.548  0.1604  0.2505  0.9842
    2MOL0     C  146   5.798   5.754   5.669  0.3967 -0.2743 -0.3738
    2MOL0     C  147   5.735   5.890   5.652 -0.2922  0.3673  0.4235
    2MOL0     C  148   5.645   5.924   5.765  0.5115 -0.1037  0.1462
    2MOL0     C  149   5.608   6.069   5.741  0.2870 -0.3853 -0.0832
    2MOL0     C  150   5.499   6.106   5.849  0.1084  0.5270  0.6939
    2MOL0     C  151   5.458   6.258   5.851 -0.6405 -0.0540  0.1329
    2MOL0     N  152   5.342   6.263   5.926 -0.3358 -0.2130 -0.3278
    2MOL0     C  153   5.221   6.255   5.873  0.4230  0.2107 -0.5168
    2MOL0     C  154   5.133   6.257   5.977  0.6093  0.6776  0.4182
    2MOL0     C  155   4.981   6.275   5.966 -0.0818  0.3065 -0.1883
    2MOL0     C  156   4.912   6.162   6.052 -0.1957  0.4485 -0.5351
    2MOL0     C  157   4.954   6.021   6.004 -0.1965 -0.1243  0.4676
    2MOL0     C  158   4.842   5.927   6.030  0.7370  0.9253  0.3238
    2MOL0     O  159   4.736   5.965   5.942  0.3776 -0.4991  0.6749
    2MOL0     C  160   4.639   5.872   5.923 -0.7683  0.2313 -0.5490
    2MOL0     C  161   4.567   5.886   5.804  0.2806  0.2348  0.0398
    2MOL0     C  162   4.463   5.793   5.780 -0.8814 -0.0429 -0.3594
    2MOL0     C  163   4.402   5.814   5.643  0.5941  1.1427 -0.8318
    2MOL0     C  164   4.432   5.688   5.869  0.1611 -0.7031 -0.1605
    2MOL0     C  165   4.328   5.584   5.848  1.0610  0.4264 -0.0017
    2MOL0     O  166   4.336   5.478   5.925  0.0472  1.1309  0.0788
    2MOL0     C  167   4.245   5.368   5.925  0.4447 -0.2716  0.0910
    2MOL0     C  168   4.210   5.305   5.800  0.5457  0.6359 -0.0463
    2MOL0     C  169   4.112   5.202   5.808 -1.2141  0.4918  0.7966
    2MOL0     C  170   4.064   5.159   5.931 -0.4447 -0.3430 -0.2382
    2MOL0     O  171   3.973   5.062   5.930 -0.2419 -0.1688  0.2275
    2MOL0     C  172   3.846   5.095   5.986 -0.7685  0.3341 -0.0998
    2MOL0     C  173   3.725   5.100   5.899  0.4683 -0.0632  0.2556
    2MOL0     C  174   3.687   4.953   5.866  0.7002 -0.4248 -0.2944
    2MOL0     C  175   3.560   4.955   5.781 -0.8531  0.0639 -0.0691
    2MOL0     C  176   3.526   4.818   5.722  0.3758 -0.7845 -0.3312
    2MOL0     C  177   3.414   4.826   5.616 -0.6461  0.2147 -0.0342
    2MOL0     C  178   3.385   4.686   5.554 -0.2740 -0.7848 -0.3556
    2MOL0     C  179   3.263   4.678   5.464 -0.5193  0.3339  0.2892
    2MOL0    Cl  180   3.114   4.738   5.548  0.2651  0.2581  0.2914
    2MOL0     C  181   4.098   5.219   6.042 -0.5040 -0.8966 -0.7599
    2MOL0     C  182   4.194   5.315   6.043  0.4696  0.2613 -0.0625
    2MOL0     O  183   4.239   5.612   5.761 -0.2333  0.2657 -0.6034
    2MOL0     C  184   4.506   5.680   5.991 -0.1333 -0.5182 -0.3954
    2MOL0     C  185   4.617   5.766   6.017 -0.0655  0.1715 -0.1066
    2MOL0     N  186   5.208   6.265   6.095  0.4224 -0.2714  0.4049
    2MOL0     N  187   5.333   6.274   6.058 -0.4929 -0.0354 -0.1934
    2MOL0     C  188   6.290   5.616   5.746 -0.6575 -0.0548  0.1186
    2MOL0     C  189   6.402   5.535   5.765 -0.5447  0.2753 -0.7130
    2MOL0     C  190   6.639   5.177   5.931 -0.0894 -0.1617 -0.3488
    2MOL0     C  191   6.761   5.186   5.862  0.2388 -0.3512 -0.2438
    2MOL0     C  192   6.877   5.152   5.928 -0.0017 -0.5231 -0.0319
    2MOL0     C  193   6.876   5.077   6.053  0.1097 -0.1326 -0.9933
    2MOL0     O  194   6.995   5.035   6.104  0.4872  0.3177  1.0513
    2MOL0     C  195   6.983   4.951   6.220 -0.4695 -0.0143  0.1299
    2MOL0     C  196   7.110   4.878   6.250 -0.0787  0.5249 -0.5538
    2MOL0     C  197   7.158   4.810   6.117 -0.1772 -0.3187 -0.7519
    2MOL0     C  198   7.295   4.750   6.137 -0.2498 -0.6524 -0.0739
    2MOL0     C  199   7.343   4.697   6.009 -0.9060  0.2691  0.2373
    2MOL0     C  200   7.396   4.653   5.906 -0.3900  0.2274  0.7090
    2MOL0     C  201   6.758   5.070   6.120  0.9644  0.0045 -0.1200
    2MOL0     C  202   6.643   5.124   6.059  1.1168  0.4150  0.9929
    2MOL0     H  203   6.319   5.255   5.597  1.9099  0.6030 -1.4901
    2MOL0     H  204   6.109   5.394   5.558 -1.1209  1.8862  1.0556
    2MOL0     H  205   5.998   5.556   5.468 -0.9756  1.8747 -1.1228
    2MOL0     H  206   5.920   5.533   5.623 -1.0844 -0.6777 -1.5409
    2MOL0     H  207   5.952   5.805   5.527  2.2938 -1.5780  0.4068
    2MOL0     H  208   5.825   5.704   5.457  1.3538 -1.8397  0.5909
    2MOL0     H  209   5.717   5.683   5.686 -0.4680  0.9400  0.7348
    2MOL0     H  210   5.870   5.743   5.751  1.0342 -1.1980 -1.0336
    2MOL0     H  211   5.822   5.956   5.651 -0.7721  1.0084 -0.2422
    2MOL0     H  212   5.689   5.890   5.552  1.6301  0.1762 -0.5060
    2MOL0     H  213   5.548   5.875   5.752 -0.5514  1.7486  0.7760
    2MOL0     H  214   5.696   5.913   5.860  1.9996 -0.3489 -0.6539
    2MOL0     H  215   5.698   6.126   5.770 -0.6241  1.5488 -0.9160
    2MOL0     H  216   5.572   6.086   5.639 -1.0285 -0.1306  0.4069
    2MOL0     H  217   5.412   6.050   5.812  0.9944 -0.4878  0.1111
    2MOL0     H  218   5.514   6.069   5.951 -1.4262 -4.2195 -0.5250
    2MOL0     H  219   5.448   6.288   5.747 -0.9235 -0.4479  0.0440
    2MOL0     H  220   5.533   6.330   5.887  0.3322 -0.9073 -0.1468
    2MOL0     H  221   5.197   6.240   5.768 -0.4819 -3.3090  0.0772
    2MOL0     H  222   4.948   6.374   5.999 -0.3106  0.4426 -0.8103
    2MOL0     H  223   4.951   6.263   5.862 -0.5927 -0.0112 -0.0061
    2MOL0     H  224   4.804   6.171   6.068 -0.0695 -0.3395  0.9550
    2MOL0     H  225   4.945   6.169   6.156 -1.1912  0.5516 -0.2152
    2MOL0     H  226   5.044   5.992   6.060  0.5949  1.6730  0.1838
    2MOL0     H  227   4.984   6.018   5.898  0.8213 -0.9010  0.7589
    2MOL0     H  228   4.813   5.930   6.135 -2.0225  0.4961 -0.3339
    2MOL0     H  229   4.882   5.827   6.013  0.3429  0.6585  0.9263
    2MOL0     H  230   4.581   5.969   5.735  0.8616  0.4852  0.4542
    2MOL0     H  231   4.294   5.823   5.651  0.6480  1.9656 -0.9507
    2MOL0     H  232   4.442   5.895   5.582  2.3825  1.7919  1.0867
    2MOL0     H  233   4.422   5.724   5.583 -1.2102  1.7223 -2.3651
    2MOL0     H  234   4.226   5.331   5.695 -0.6958  2.2382  0.1322
    2MOL0     H  235   4.076   5.172   5.711 -0.3449 -0.8823  0.8742
    2MOL0     H  236   3.830   5.025   6.068  1.3193 -1.4036 -1.0758
    2MOL0     H  237   3.851   5.189   6.043 -3.2159 -0.6882  2.0085
    2MOL0     H  238   3.638   5.153   5.940  0.6050  0.5815 -0.2591
    2MOL0     H  239   3.755   5.161   5.812  3.1531 -2.8186 -0.9285
    2MOL0     H  240   3.654   4.903   5.958  1.7372  1.5733  1.2293
    2MOL0     H  241   3.771   4.898   5.823  0.5000  0.2253 -1.5523
    2MOL0     H  242   3.476   4.987   5.843 -0.7956  0.4558 -0.1872
    2MOL0     H  243   3.576   5.025   5.698 -0.7476  0.3735  0.2100
    2MOL0     H  244   3.482   4.747   5.793 -3.1245  0.7320 -0.7752
    2MOL0     H  245   3.613   4.764   5.684  2.1363  1.0693  0.8624
    2MOL0     H  246   3.327   4.872   5.664  1.6322  2.1521  2.5456
    2MOL0     H  247   3.445   4.881   5.527  1.2398 -4.5103 -2.6897
    2MOL0     H  248   3.373   4.609   5.631  2.4248  1.7653  2.9314
    2MOL0     H  249   3.463   4.641   5.492 -1.5054 -1.5780 -1.3824
    2MOL0     H  250   3.263   4.571   5.444 -2.1052  0.6950 -2.0209
    2MOL0     H  251   3.281   4.728   5.369 -1.1187  2.1421  1.0703
    2MOL0     H  252   4.045   5.200   6.135  1.5477 -1.0753  0.4390
    2MOL0     H  253   4.217   5.366   6.136  1.8424 -0.2884 -0.0756
    2MOL0     H  254   4.485   5.612   6.073 -0.3890  0.9552  0.8082
    2MOL0     H  255   4.675   5.741   6.106  1.3193 -0.8204 -1.2225
    2MOL0     H  256   6.293   5.721   5.774 -2.7530  1.0767 -3.3041
    2MOL0     H  257   6.481   5.573   5.830 -0.8592  0.4486 -0.4318
    2MOL0     H  258   6.767   5.222   5.759  0.7916  1.9465  0.5354
    2MOL0     H  259   6.970   5.172   5.876  0.8697 -0.2922  1.5288
    2MOL0     H  260   6.954   5.018   6.302 -0.0207  3.3419 -2.2526
    2MOL0     H  261   6.907   4.873   6.208  0.9707 -1.1195 -2.9800
    2MOL0     H  262   7.100   4.799   6.325  0.2907 -0.0990 -1.1503
    2MOL0     H  263   7.185   4.951   6.282  2.1837 -1.5134 -0.9310
    2MOL0     H  264   7.159   4.881   6.033 -2.4631  1.5794  0.6867
    2MOL0     H  265   7.091   4.727   6.096  1.5319 -2.3027  1.2118
    2MOL0     H  266   7.310   4.679   6.219 -0.8574 -0.9746 -0.2349
    2MOL0     H  267   7.364   4.831   6.159  0.4390 -1.6390  1.5774
    2MOL0     H  268   7.452   4.628   5.818  0.8232  0.0006  1.5198
    2MOL0     H  269   6.749   5.033   6.221  1.6310 -1.1035 -0.4421
    2MOL0     H  270   6.554   5.122   6.121  1.5303  0.1684  1.5870
    3MOL0     O  271   4.362  10.231   1.663 -0.0437  0.2845  0.1919
    3MOL0     C  272   4.396  10.112   1.640  0.5106 -0.0019 -0.0447
    3MOL0     O  273   4.313  10.014   1.580 -0.1811 -0.7167  0.7322
    3MOL0     C  274   4.180  10.046   1.555 -0.5039 -0.1049 -0.1532
    3MOL0     C  275   4.129  10.114   1.448  0.8004 -0.7069  0.0060
    3MOL0     C  276   3.991  10.160   1.434 -0.3112  0.6652  0.9095
    3MOL0     C  277   3.899  10.106   1.529 -0.3685  0.2899  0.6203
    3MOL0     O  278   3.767  10.119   1.544  0.9254  0.4166 -0.5826
    3MOL0     C  279   3.712  10.252   1.546  0.6039  0.6554  0.1219
    3MOL0     C  280   3.556  10.253   1.522  0.3727  0.6391 -0.5330
    3MOL0     C  281   3.477  10.195   1.644 -0.3075 -0.1226  0.3973
    3MOL0     C  282   3.337  10.157   1.601 -0.6753 -0.5526  0.3207
    3MOL0     C  283   3.238  10.146   1.727  0.3030  0.2609 -0.3663
    3MOL0     C  284   3.094  10.132   1.677  1.0129  0.2361 -0.2960
    3MOL0     C  285   3.032  10.263   1.647 -0.2430 -0.2494  0.3958
    3MOL0     C  286   2.983  10.326   1.770  0.4286  0.0666 -0.1248
    3MOL0     N  287   2.833  10.370   1.778  0.4955  0.2773  0.0167
    3MOL0     C  288   2.767  10.457   1.699 -0.0694 -0.7876 -0.0469
    3MOL0     C  289   2.639  10.463   1.735  0.7035 -0.1531 -0.3968
    3MOL0     C  290   2.536  10.565   1.676 -0.5204 -0.6612  0.3163
    3MOL0     C  291   2.413  10.505   1.614  0.4208 -0.0512  0.0558
    3MOL0     C  292   2.442  10.379   1.536 -0.7101  0.3971 -0.7519
    3MOL0     C  293   2.318  10.310   1.487  0.8021 -0.1176  0.0787
    3MOL0     O  294   2.228  10.269   1.595 -0.1743 -0.1806  0.1587
    3MOL0     C  295   2.090  10.281   1.590  0.9186  0.1871 -0.7161
    3MOL0     C  296   2.004  10.325   1.489  0.6762 -0.0283 -0.0706
    3MOL0     C  297   1.871  10.329   1.505 -0.4683  0.7773 -0.4497
    3MOL0     C  298   1.787  10.377   1.383  0.1807  0.7428 -0.9558
    3MOL0     C  299   1.807  10.282   1.619 -0.4956  0.0604  0.2479
    3MOL0     C  300   1.661  10.284   1.646  0.6313 -0.1940  0.1961
    3MOL0     O  301   1.568  10.326   1.554  0.2564 -0.0059  1.0315
    3MOL0     C  302   1.435  10.302   1.555  0.8080 -1.4913  1.1581
    3MOL0     C  303   1.359  10.245   1.658 -0.0479  0.2527 -0.3127
    3MOL0     C  304   1.219  10.241   1.644  0.4414  0.4750 -0.1460
    3MOL0     C  305   1.147  10.293   1.537  0.6297 -0.2941 -0.5181
    3MOL0     O  306   1.010  10.287   1.536  0.5112 -0.0788  0.4380
    3MOL0     C  307   0.946  10.360   1.431  0.2049 -0.1436  0.1389
    3MOL0     C  308   0.796  10.344   1.446 -0.2003  0.7387  0.2680
    3MOL0     C  309   0.748  10.199   1.413  0.6226 -0.0716 -0.0869
    3MOL0     C  310   0.717  10.196   1.262  0.2478 -1.2192  0.2674
    3MOL0     C  311   0.652  10.058   1.224 -0.8916  0.2994  0.2962
    3MOL0     C  312   0.502  10.050   1.244 -0.5600 -0.6258 -0.2104
    3MOL0     C  313   0.453   9.925   1.174  0.1254 -0.6917 -0.1621
    3MOL0     C  314   0.303   9.906   1.199  0.0426 -0.3346  0.9017
    3MOL0    Cl  315   0.223   9.767   1.120  0.3774 -0.1966  0.1216
    3MOL0     C  316   1.226  10.362   1.441 -0.0661  0.9855  0.5628
    3MOL0     C  317   1.367  10.363   1.452  0.2424 -0.6496  0.1353
    3MOL0     O  318   1.633  10.233   1.754 -0.5344  0.1098 -0.1808
    3MOL0     C  319   1.886  10.243   1.725 -0.0258  0.2620  1.0546
    3MOL0     C  320   2.029  10.238   1.709  0.0275 -0.1519 -0.0617
    3MOL0     N  321   2.627  10.367   1.838  0.9811 -0.2137  0.2133
    3MOL0     N  322   2.740  10.306   1.854  0.2705  0.1177 -0.1257
    3MOL0     C  323   3.946  10.010   1.611  0.2648  0.6337 -0.9381
    3MOL0     C  324   4.083   9.987   1.639  0.1933 -0.5728 -0.3178
    3MOL0     C  325   4.533  10.060   1.673 -1.0563 -0.7068  0.6444
    3MOL0     C  326   4.570   9.922   1.671  0.2276  0.2091 -0.4152
    3MOL0     C  327   4.702   9.883   1.698  0.2914 -0.7677  0.1374
    3MOL0     C  328   4.801   9.983   1.744  0.8838  0.2291 -0.3738
    3MOL0     O  329   4.934   9.945   1.774  0.9232 -0.2777  0.4992
    3MOL0     C  330   4.975   9.806   1.754 -0.3806  0.0968 -0.2164
    3MOL0     C  331   5.111   9.795   1.822  0.5354  0.1251 -0.4925
    3MOL0     C  332   5.227   9.856   1.737 -0.3683  0.2058  0.1135
    3MOL0     C  333   5.366   9.792   1.772  1.0261  0.2563  0.1641
    3MOL0     C  334   5.494   9.851   1.719 -0.5684  0.5093  0.0617
    3MOL0     C  335   5.603   9.890   1.689 -0.4035 -0.1905 -0.3315
    3MOL0     C  336   4.755  10.111   1.749  0.1442  0.0742 -0.4210
    3MOL0     C  337   4.634  10.151   1.707  0.5703  0.1299 -0.5164
    3MOL0     H  338   4.201  10.157   1.381  2.4617 -1.4007  1.2722
    3MOL0     H  339   3.959  10.212   1.345 -0.0767 -1.0585 -0.2322
    3MOL0     H  340   3.750  10.299   1.637  1.5788  2.1343 -0.9974
    3MOL0     H  341   3.742  10.299   1.451 -0.7140 -0.9828 -1.1719
    3MOL0     H  342   3.527  10.356   1.502 -2.9534  0.1673  1.1151
    3MOL0     H  343   3.538  10.191   1.434  4.0417 -1.8516  0.2245
    3MOL0     H  344   3.525  10.107   1.687 -1.3217 -0.8240  0.1313
    3MOL0     H  345   3.472  10.269   1.725 -0.2417 -0.4525  0.7076
    3MOL0     H  346   3.305  10.235   1.531 -1.8259 -0.8982  0.4424
    3MOL0     H  347   3.348  10.061   1.551  1.3061 -0.3730  0.3623
    3MOL0     H  348   3.260  10.049   1.772  2.1267  1.1113  0.6878
    3MOL0     H  349   3.258  10.225   1.800  1.4029  0.5340 -0.9438
    3MOL0     H  350   3.096  10.059   1.595  1.9900 -0.3564  0.2347
    3MOL0     H  351   3.029  10.085   1.752 -0.6119  5.2869  1.9089
    3MOL0     H  352   3.105  10.320   1.589  1.6644 -1.7374  1.2069
    3MOL0     H  353   2.949  10.246   1.578  0.4486 -0.7965 -0.3186
    3MOL0     H  354   3.033  10.423   1.770 -2.3223  1.5781  0.0185
    3MOL0     H  355   3.012  10.265   1.857 -0.3914  0.2065  0.2563
    3MOL0     H  356   2.813  10.515   1.619  1.4385  0.3383  1.5586
    3MOL0     H  357   2.501  10.627   1.759  0.5883 -1.4698  1.4148
    3MOL0     H  358   2.572  10.626   1.592 -1.8462  2.5106  1.9070
    3MOL0     H  359   2.378  10.576   1.539 -0.7541 -0.7213 -0.0552
    3MOL0     H  360   2.339  10.479   1.691 -0.6949 -0.1205 -1.0136
    3MOL0     H  361   2.486  10.300   1.599  0.6296  1.5667 -0.1687
    3MOL0     H  362   2.519  10.388   1.458  0.7810 -1.7022  0.3923
    3MOL0     H  363   2.341  10.218   1.433 -0.9828 -0.6821  0.1910
    3MOL0     H  364   2.260  10.362   1.410 -3.0724 -2.3089  1.2330
    3MOL0     H  365   2.055  10.355   1.398  1.5725 -0.1382  0.3922
    3MOL0     H  366   1.714  10.457   1.400 -0.5400  0.0790 -0.8837
    3MOL0     H  367   1.859  10.408   1.307  1.3003 -0.4640 -0.4229
    3MOL0     H  368   1.730  10.294   1.339 -1.9226  0.8151  1.3816
    3MOL0     H  369   1.404  10.200   1.746  4.7821  3.4661 -0.7865
    3MOL0     H  370   1.171  10.207   1.735  1.8487  1.0125  0.8191
    3MOL0     H  371   0.969  10.467   1.432 -3.0842  0.9549 -4.8327
    3MOL0     H  372   0.980  10.325   1.333  0.4644 -0.3701  0.3085
    3MOL0     H  373   0.769  10.370   1.549 -2.9852 -1.2555  0.1502
    3MOL0     H  374   0.755  10.419   1.377 -0.0464  2.7946  2.2962
    3MOL0     H  375   0.647  10.197   1.455  0.5154  0.4835 -0.2981
    3MOL0     H  376   0.811  10.123   1.459  0.9075  0.8118  1.0410
    3MOL0     H  377   0.655  10.279   1.226  0.0798 -1.6725 -0.4989
    3MOL0     H  378   0.810  10.212   1.207 -0.2181 -0.8641 -0.4226
    3MOL0     H  379   0.684   9.977   1.290  0.2510 -0.1602 -0.7845
    3MOL0     H  380   0.678  10.033   1.121  0.8194  0.4177  0.6805
    3MOL0     H  381   0.483  10.043   1.352  0.4246  2.8235  0.3284
    3MOL0     H  382   0.463  10.146   1.208  0.7387  0.3291  0.7832
    3MOL0     H  383   0.518   9.839   1.191  1.6267  0.3506 -0.4242
    3MOL0     H  384   0.467   9.939   1.066 -2.3701  0.6383 -0.3963
    3MOL0     H  385   0.245   9.993   1.167  0.9755 -0.3347 -0.9476
    3MOL0     H  386   0.297   9.885   1.306  0.9632 -1.0251  0.8304
    3MOL0     H  387   1.186  10.417   1.357 -2.2589  0.6134  1.2915
    3MOL0     H  388   1.428  10.431   1.393  0.0502 -0.1224  0.5399
    3MOL0     H  389   1.864  10.209   1.826 -0.1909 -0.4634  0.7844
    3MOL0     H  390   2.097  10.201   1.786  1.9943 -2.3202 -2.6317
    3MOL0     H  391   3.871   9.965   1.676 -0.1543  0.6033 -1.4366
    3MOL0     H  392   4.112   9.932   1.727 -0.8013  0.6305  0.8096
    3MOL0     H  393   4.500   9.844   1.641  2.6812 -2.7262  0.8859
    3MOL0     H  394   4.733   9.780   1.684  0.1288 -0.6836 -0.9318
    3MOL0     H  395   4.912   9.726   1.794 -0.8262 -0.4524 -1.9391
    3MOL0     H  396   4.986   9.785   1.647  0.3121  0.2073 -0.1722
    3MOL0     H  397   5.130   9.688   1.834 -1.4890 -0.3751 -1.3888
    3MOL0     H  398   5.106   9.848   1.918  0.2429  3.5549 -2.2732
    3MOL0     H  399   5.237   9.965   1.737  0.8028  0.3251 -4.7623
    3MOL0     H  400   5.205   9.830   1.633 -1.2049  1.0400  0.0716
    3MOL0     H  401   5.363   9.686   1.747 -2.1738  0.3391 -0.1808
    3MOL0     H  402   5.371   9.812   1.879 -0.4339  2.8828 -0.1814
    3MOL0     H  403   5.697   9.929   1.658 -1.3005  1.3904 -1.1870
    3MOL0     H  404   4.824  10.187   1.782  1.3388 -1.7816  1.6234
    3MOL0     H  405   4.602  10.254   1.706 -0.5990 -0.1278  1.8598
    4MOL0     O  406   1.930   2.082   2.513 -0.8266 -0.0659 -0.4556
    4MOL0     C  407   1.925   2.072   2.636  0.6247 -0.0876  0.0804
    4MOL0     O  408   1.843   2.134   2.721  0.3750  0.0779 -0.2427
    4MOL0     C  409   1.774   2.241   2.673  0.7247  0.4764 -0.3505
    4MOL0     C  410   1.756   2.345   2.774 -0.7066 -0.0464  0.1596
    4MOL0     C  411   1.674   2.455   2.741  0.1190 -0.2337  0.1057
    4MOL0     C  412   1.597   2.455   2.627  0.6783 -0.4362  1.0110
    4MOL0     O  413   1.511   2.557   2.600 -0.5306 -0.6161  0.0586
    4MOL0     C  414   1.492   2.609   2.466 -0.7981  0.5415 -0.2316
    4MOL0     C  415   1.380   2.710   2.471 -0.1115 -0.7004 -0.0948
    4MOL0     C  416   1.247   2.642   2.490  0.1325  0.2825  0.6210
    4MOL0     C  417   1.133   2.722   2.428  0.8824 -1.0152  0.7488
    4MOL0     C  418   1.010   2.646   2.409  1.0460 -0.5491 -0.2389
    4MOL0     C  419   0.899   2.726   2.340  0.4044 -0.0113 -0.0563
    4MOL0     C  420   0.921   2.767   2.193 -0.2626  0.1365 -0.4908
    4MOL0     C  421   0.792   2.806   2.121 -0.2301 -0.6852 -0.1844
    4MOL0     N  422   0.714   2.922   2.188 -0.3370 -0.0045  0.8949
    4MOL0     C  423   0.734   3.061   2.153  0.5664 -0.0096  0.0338
    4MOL0     C  424   0.621   3.123   2.198 -0.1288  0.4172 -0.3589
    4MOL0     C  425   0.605   3.278   2.207  0.5334  0.1676  0.4284
    4MOL0     C  426   0.508   3.330   2.095 -0.5220  0.0547 -0.0183
    4MOL0     C  427   0.378   3.258   2.112 -0.4893 -0.1916  0.0110
    4MOL0     C  428   0.276   3.342   2.041 -0.4328  0.4173  0.2335
    4MOL0     O  429   0.151   3.267   2.033  0.2259  0.6218  0.3998
    4MOL0     C  430   0.059   3.299   1.930 -0.6492  0.4644 -0.0511
    4MOL0     C  431   0.069   3.415   1.848 -0.2310  0.9437  0.1529
    4MOL0     C  432  -0.033   3.444   1.751  0.0731 -0.7342  0.0623
    4MOL0     C  433  -0.016   3.581   1.686  0.4634 -0.8720  0.5076
    4MOL0     C  434  -0.140   3.360   1.729  0.3559  0.2978 -0.8815
    4MOL0     C  435  -0.250   3.380   1.624 -0.3876 -0.1539 -0.3045
    4MOL0     O  436  -0.357   3.300   1.646 -0.1946  0.3018 -0.2592
    4MOL0     C  437  -0.469   3.306   1.564  0.1760 -0.3919  0.1437
    4MOL0     C  438  -0.572   3.401   1.573  0.3359  0.0528  0.3556
    4MOL0     C  439  -0.689   3.383   1.495  0.4493  0.1706  0.7901
    4MOL0     C  440  -0.700   3.279   1.396 -0.9206  0.2179  0.5441
    4MOL0     O  441  -0.804   3.270   1.301  0.4071  0.4686 -0.6830
    4MOL0     C  442  -0.910   3.362   1.311  1.4307  0.0287 -0.3529
    4MOL0     C  443  -1.000   3.329   1.190 -0.1089  0.0978 -0.0908
    4MOL0     C  444  -1.109   3.442   1.164 -0.8408 -1.2051 -0.5103
    4MOL0     C  445  -1.227   3.383   1.089  0.5239 -0.4071 -0.1384
    4MOL0     C  446  -1.346   3.482   1.082  0.3353 -0.2295  0.2004
    4MOL0     C  447  -1.481   3.413   1.049 -0.2956  0.1298 -0.5231
    4MOL0     C  448  -1.497   3.370   0.899 -0.1144 -0.1334  0.6545
    4MOL0     C  449  -1.607   3.267   0.902  0.4894  0.2824  0.6297
    4MOL0    Cl  450  -1.771   3.351   0.902  0.1795 -0.0179  0.1513
    4MOL0     C  451  -0.589   3.191   1.388  0.0222 -0.1203 -0.4282
    4MOL0     C  452  -0.481   3.199   1.468  0.0596 -0.0654 -0.1087
    4MOL0     O  453  -0.240   3.465   1.536  0.1845  0.1963 -0.2349
    4MOL0     C  454  -0.151   3.251   1.820  0.2489 -0.2057  0.0836
    4MOL0     C  455  -0.062   3.226   1.922 -0.4784  0.1332  0.7663
    4MOL0     N  456   0.538   3.026   2.263 -0.4768 -0.8213 -0.1008
    4MOL0     N  457   0.599   2.912   2.252  0.2677 -0.1768  0.0496
    4MOL0     C  458   1.601   2.343   2.542 -0.3492 -0.2511  0.1737
    4MOL0     C  459   1.693   2.235   2.560  0.7836  0.4346  0.4891
    4MOL0     C  460   2.015   1.973   2.704 -0.2334  0.0801 -0.1386
    4MOL0     C  461   1.987   1.924   2.828 -0.1771  0.3818 -0.0897
    4MOL0     C  462   2.076   1.841   2.890 -0.2206  0.2715  0.4188
    4MOL0     C  463   2.192   1.793   2.822  0.3209  0.9792 -0.2463
    4MOL0     O  464   2.278   1.717   2.901 -0.0356 -0.2125 -0.0279
    4MOL0     C  465   2.391   1.653   2.836  0.2067 -0.5520 -0.2844
    4MOL0     C  466   2.462   1.565   2.940  0.1459 -1.2836  0.1387
    4MOL0     C  467   2.599   1.529   2.880 -0.8496  0.5685  0.0477
    4MOL0     C  468   2.679   1.444   2.981  0.6121 -0.2509  0.5605
    4MOL0     C  469   2.615   1.322   3.013  0.6766  0.4824  0.1032
    4MOL0     C  470   2.542   1.225   3.025  0.4359 -0.1750  0.5442
    4MOL0     C  471   2.215   1.835   2.692  0.6422 -0.2858 -0.0410
    4MOL0     C  472   2.127   1.925   2.631  0.3072  0.2679 -0.0819
    4MOL0     H  473   1.818   2.332   2.862 -0.8115 -0.5272  0.1639
    4MOL0     H  474   1.672   2.543   2.805  0.0559  0.2995 -0.6099
    4MOL0     H  475   1.590   2.651   2.441 -0.3064 -0.6866 -0.4124
    4MOL0     H  476   1.457   2.534   2.395  2.4887  1.4170 -3.0232
    4MOL0     H  477   1.403   2.792   2.540 -2.0752  2.0234 -2.4124
    4MOL0     H  478   1.390   2.762   2.375  0.9489  1.0672  0.9037
    4MOL0     H  479   1.251   2.543   2.443 -2.5870 -0.7327  2.2679
    4MOL0     H  480   1.217   2.624   2.594 -1.2532 -3.5354 -0.2582
    4MOL0     H  481   1.100   2.806   2.490 -1.2431 -0.9928 -0.2977
    4MOL0     H  482   1.166   2.758   2.330 -0.3943 -3.1030 -0.5295
    4MOL0     H  483   1.032   2.562   2.342  1.6741 -1.1495  0.7052
    4MOL0     H  484   0.966   2.615   2.504  0.1518  0.6857 -0.2314
    4MOL0     H  485   0.816   2.656   2.329  0.7441 -0.1018 -2.7969
    4MOL0     H  486   0.862   2.814   2.394  2.2827 -0.0864  1.4442
    4MOL0     H  487   0.988   2.852   2.177  0.4821 -0.2982  0.2126
    4MOL0     H  488   0.954   2.679   2.137  0.1727  1.2155 -2.0087
    4MOL0     H  489   0.732   2.715   2.121  0.3657 -1.0816  0.2541
    4MOL0     H  490   0.824   2.837   2.021 -0.0030 -0.6775 -0.1106
    4MOL0     H  491   0.812   3.106   2.092 -0.6609  0.5794 -1.1649
    4MOL0     H  492   0.566   3.310   2.304 -2.1322  4.1992 -1.7105
    4MOL0     H  493   0.706   3.317   2.198  2.6614 -4.6659  0.4528
    4MOL0     H  494   0.541   3.313   1.992 -2.9373 -1.1372 -0.6547
    4MOL0     H  495   0.486   3.436   2.110 -2.6718 -0.4574  0.8747
    4MOL0     H  496   0.345   3.250   2.216  0.0897  1.1857  0.3192
    4MOL0     H  497   0.383   3.162   2.061 -0.6558 -0.8358  1.1933
    4MOL0     H  498   0.318   3.372   1.944  2.3974  2.8466  2.0325
    4MOL0     H  499   0.250   3.435   2.093 -2.1053  1.3688 -2.1193
    4MOL0     H  500   0.152   3.485   1.852 -2.2545  3.6496 -1.2196
    4MOL0     H  501  -0.005   3.587   1.577  4.6049  2.9455  0.8623
    4MOL0     H  502  -0.101   3.644   1.714 -0.0758 -0.4851 -1.7914
    4MOL0     H  503   0.075   3.634   1.714 -1.0684  2.6468 -0.5788
    4MOL0     H  504  -0.565   3.485   1.642 -1.5191 -1.3388  2.3476
    4MOL0     H  505  -0.764   3.461   1.490  1.1144  0.8901 -4.4442
    4MOL0     H  506  -0.956   3.335   1.406  1.2139  0.2812 -0.3837
    4MOL0     H  507  -0.865   3.462   1.309  1.1548  0.1484 -1.3571
    4MOL0     H  508  -0.940   3.290   1.108 -0.6557 -1.0541  0.0254
    4MOL0     H  509  -1.056   3.240   1.222 -1.5834  1.4030  1.1735
    4MOL0     H  510  -1.063   3.522   1.105 -3.6372  0.6508 -0.4071
    4MOL0     H  511  -1.134   3.486   1.261  0.9157 -0.8985 -0.1689
    4MOL0     H  512  -1.182   3.366   0.991  0.7524  4.1527 -1.0353
    4MOL0     H  513  -1.261   3.289   1.132  2.1853 -0.6048  0.8222
    4MOL0     H  514  -1.329   3.564   1.011  2.5503 -0.0820  0.8188
    4MOL0     H  515  -1.365   3.533   1.177  1.7667  0.3922  0.1842
    4MOL0     H  516  -1.494   3.322   1.108 -1.0365 -1.1353 -2.5373
    4MOL0     H  517  -1.562   3.481   1.075 -1.2836 -0.4589 -1.9588
    4MOL0     H  518  -1.404   3.326   0.861 -0.1046  0.2570  0.2204
    4MOL0     H  519  -1.518   3.456   0.835  2.8392 -0.0505 -0.3606
    4MOL0     H  520  -1.598   3.203   0.990  0.9170  3.1134  2.8012
    4MOL0     H  521  -1.602   3.220   0.804  1.7187 -0.6633  1.1245
    4MOL0     H  522  -0.590   3.121   1.305 -0.9370 -0.4343 -0.1606
    4MOL0     H  523  -0.390   3.142   1.460 -0.1004 -0.1804 -1.2824
    4MOL0     H  524  -0.237   3.185   1.810 -0.7518  1.3019 -1.8779
    4MOL0     H  525  -0.070   3.130   1.973  0.2003  0.9090  2.4183
    4MOL0     H  526   1.532   2.346   2.458  0.0978 -0.4466 -0.2121
    4MOL0     H  527   1.682   2.145   2.501 -0.9424 -1.7456  3.8482
    4MOL0     H  528   1.904   1.957   2.891  0.0772  1.1252 -0.1316
    4MOL0     H  529   2.057   1.796   2.987  0.7705 -0.7869  0.1502
    4MOL0     H  530   2.356   1.594   2.752  1.9923  1.7359 -2.8110
    4MOL0     H  531   2.456   1.728   2.789 -0.8740  0.7052  0.1710
    4MOL0     H  532   2.405   1.475   2.965 -1.3592 -0.1567  0.8657
    4MOL0     H  533   2.480   1.624   3.030 -1.6873  1.6142 -1.2642
    4MOL0     H  534   2.658   1.620   2.867  0.0291 -0.2819 -2.6908
    4MOL0     H  535   2.594   1.482   2.781  0.9505 -2.3598  1.2286
    4MOL0     H  536   2.681   1.481   3.083 -0.4302  0.2322  0.4173
    4MOL0     H  537   2.772   1.411   2.934 -0.4902 -0.7310 -1.4425
    4MOL0     H  538   2.462   1.154   3.035 -1.4700  1.8374  0.3183
    4MOL0     H  539   2.297   1.800   2.630  0.6368  2.0316 -1.4676
    4MOL0     H  540   2.137   1.959   2.529 -2.4339  4.2130  0.7529
    5MOL0     O  541   8.094   6.923   4.810  0.2533 -0.2963 -0.3366
    5MOL0     C  542   8.039   7.029   4.787 -0.0698 -0.5187  0.2649
    5MOL0     O  543   7.917   7.068   4.833 -0.0913 -0.5587  0.5329
    5MOL0     C  544   7.858   6.988   4.928 -0.9107 -0.1279  0.4501
    5MOL0     C  545   7.806   7.052   5.038 -0.3624  0.4497  0.4250
    5MOL0     C  546   7.727   6.995   5.139  0.0819  0.4337  0.3126
    5MOL0     C  547   7.703   6.853   5.130 -0.6086 -0.4969 -0.0839
    5MOL0     O  548   7.615   6.799   5.222 -0.5026  0.5323  0.3199
    5MOL0     C  549   7.542   6.685   5.193  0.0490  0.3083 -0.1185
    5MOL0     C  550   7.624   6.557   5.214 -0.2635 -0.4093  0.4317
    5MOL0     C  551   7.540   6.442   5.173  0.1955  0.1287 -0.5679
    5MOL0     C  552   7.623   6.311   5.210  0.5937 -0.9196  0.3612
    5MOL0     C  553   7.755   6.294   5.149  0.3067 -0.1106 -0.0827
    5MOL0     C  554   7.800   6.156   5.160 -0.7333  0.5510  0.0175
    5MOL0     C  555   7.954   6.129   5.135 -0.0333 -1.2071  0.7256
    5MOL0     C  556   7.998   5.976   5.132  0.6374 -0.8678  0.1779
    5MOL0     N  557   8.141   5.950   5.161  0.3022 -0.0689  0.8412
    5MOL0     C  558   8.240   5.916   5.072 -0.1698  0.6400  0.2631
    5MOL0     C  559   8.354   5.911   5.146 -0.3699 -1.2590 -0.0061
    5MOL0     C  560   8.489   5.877   5.090 -0.2835  0.1930  0.4632
    5MOL0     C  561   8.535   5.744   5.143 -0.4644 -0.5898  0.0661
    5MOL0     C  562   8.678   5.701   5.093 -0.0325  0.3416 -0.1670
    5MOL0     C  563   8.769   5.637   5.204 -0.1253 -0.7498  0.1907
    5MOL0     O  564   8.709   5.528   5.262 -0.3469 -0.2942 -0.1574
    5MOL0     C  565   8.787   5.446   5.338 -0.5380 -0.2184 -0.8359
    5MOL0     C  566   8.730   5.332   5.394 -0.1122 -0.6773 -0.3670
    5MOL0     C  567   8.798   5.234   5.463 -0.0375 -0.1120 -0.4011
    5MOL0     C  568   8.714   5.128   5.524  0.0952  0.0480  0.3779
    5MOL0     C  569   8.940   5.252   5.486 -0.9745 -0.7189  0.6203
    5MOL0     C  570   9.025   5.149   5.553  0.6173 -0.0931 -0.5539
    5MOL0     O  571   9.134   5.198   5.617  0.1041  0.0037 -0.0992
    5MOL0     C  572   9.223   5.098   5.650  0.1838  0.3571 -0.4365
    5MOL0     C  573   9.323   5.062   5.560 -0.6298 -0.0267  0.1556
    5MOL0     C  574   9.400   4.946   5.587 -0.2497  0.3965  0.2554
    5MOL0     C  575   9.379   4.874   5.707 -0.6566 -0.1479  0.2102
    5MOL0     O  576   9.469   4.779   5.748 -0.5357  0.4299 -0.5393
    5MOL0     C  577   9.506   4.670   5.668  0.2291  0.3415  0.2755
    5MOL0     C  578   9.386   4.599   5.623  0.8428  0.3761  0.4798
    5MOL0     C  579   9.313   4.521   5.733  0.3851  0.7694  0.0704
    5MOL0     C  580   9.170   4.474   5.691  0.0705 -0.4269  0.3109
    5MOL0     C  581   9.069   4.452   5.803  0.1583 -0.3795  0.3419
    5MOL0     C  582   9.041   4.571   5.888 -0.3078  0.1087  0.0609
    5MOL0     C  583   8.969   4.689   5.816  0.6261  0.3067  0.0861
    5MOL0     C  584   8.890   4.771   5.920 -0.6512 -0.7569  0.3194
    5MOL0    Cl  585   8.887   4.938   5.871 -0.1385  0.6342 -0.3827
    5MOL0     C  586   9.293   4.928   5.799  0.8298 -0.5983 -0.6368
    5MOL0     C  587   9.209   5.041   5.772 -0.3818  0.4348 -0.5703
    5MOL0     O  588   9.004   5.030   5.534  0.5836  0.0929 -0.0757
    5MOL0     C  589   8.997   5.370   5.441 -1.1588  0.4147 -0.0336
    5MOL0     C  590   8.926   5.456   5.372 -0.3447 -0.0735 -0.0701
    5MOL0     N  591   8.320   5.942   5.273 -0.0343 -0.3745 -0.2567
    5MOL0     N  592   8.196   5.972   5.283 -0.2412  0.0251 -0.2934
    5MOL0     C  593   7.748   6.783   5.013  0.3086 -0.6386 -0.2498
    5MOL0     C  594   7.824   6.848   4.912 -0.8305  0.2516 -0.6010
    5MOL0     C  595   8.133   7.142   4.731  0.7703 -0.4144 -0.7080
    5MOL0     C  596   8.271   7.106   4.717 -0.3502 -0.5950 -0.5765
    5MOL0     C  597   8.364   7.195   4.664 -1.0392 -0.2322 -0.2966
    5MOL0     C  598   8.321   7.313   4.602 -1.1671 -0.3405  0.9767
    5MOL0     O  599   8.400   7.396   4.532  0.1970 -0.8347 -0.5460
    5MOL0     C  600   8.529   7.351   4.492  0.1917 -0.3121  0.6952
    5MOL0     C  601   8.606   7.471   4.433  0.4913 -0.0048  0.2709
    5MOL0     C  602   8.614   7.583   4.532  0.0873  0.0752 -0.1735
    5MOL0     C  603   8.739   7.669   4.503 -0.2147 -0.1297  0.3753
    5MOL0     C  604   8.870   7.602   4.534  0.4368 -0.4447 -0.9202
    5MOL0     C  605   8.970   7.535   4.557  0.2059 -0.1394 -0.2676
    5MOL0     C  606   8.188   7.353   4.610 -0.1675  0.1706 -0.1959
    5MOL0     C  607   8.097   7.271   4.685  0.4010 -0.5113 -0.3938
    5MOL0     H  608   7.838   7.154   5.059  2.8150 -0.8356  2.4220
    5MOL0     H  609   7.687   7.038   5.230  0.7328  0.8421  0.4140
    5MOL0     H  610   7.464   6.673   5.268 -0.3772 -1.1255 -0.7505
    5MOL0     H  611   7.499   6.685   5.092 -0.2076  0.2322 -0.0113
    5MOL0     H  612   7.715   6.567   5.153 -0.4194 -0.1467  0.2401
    5MOL0     H  613   7.658   6.552   5.318  0.1034  1.3882  0.4361
    5MOL0     H  614   7.452   6.437   5.238  0.7451 -2.9378  0.1383
    5MOL0     H  615   7.506   6.445   5.070  0.0813  0.9104 -0.5097
    5MOL0     H  616   7.628   6.284   5.316  0.8451 -0.7285  0.3986
    5MOL0     H  617   7.558   6.233   5.169 -0.5724  0.6623 -0.9207
    5MOL0     H  618   7.736   6.316   5.043  1.2275  0.9577 -0.0342
    5MOL0     H  619   7.834   6.355   5.192  0.0867  0.7434 -0.8459
    5MOL0     H  620   7.786   6.128   5.265 -1.9937  1.3135  0.0730
    5MOL0     H  621   7.740   6.084   5.105 -0.8800  1.4836 -1.0802
    5MOL0     H  622   7.977   6.173   5.038 -2.4187  0.5982  0.8621
    5MOL0     H  623   8.023   6.188   5.197  1.4344 -0.3793 -1.5858
    5MOL0     H  624   7.973   5.941   5.032 -1.6662  0.5438  0.2027
    5MOL0     H  625   7.928   5.927   5.201  0.6563 -1.2669 -0.0850
    5MOL0     H  626   8.242   5.891   4.966  0.3549  1.2031  0.1349
    5MOL0     H  627   8.491   5.882   4.981  1.6948 -1.0271  0.4015
    5MOL0     H  628   8.562   5.950   5.126  0.9189 -0.8247  0.1663
    5MOL0     H  629   8.479   5.662   5.098 -0.5918 -0.3511 -0.2102
    5MOL0     H  630   8.524   5.734   5.251 -2.1688 -0.5588 -0.0821
    5MOL0     H  631   8.731   5.787   5.051  1.2700 -1.0600 -1.5083
    5MOL0     H  632   8.658   5.628   5.014 -1.4591 -0.8612  1.2265
    5MOL0     H  633   8.794   5.708   5.283 -0.1481 -1.0229  0.4429
    5MOL0     H  634   8.863   5.601   5.161  1.3099 -1.1100  3.3809
    5MOL0     H  635   8.623   5.315   5.387 -0.2755  0.7714 -1.9123
    5MOL0     H  636   8.632   5.183   5.570 -0.1834  0.7281 -0.8890
    5MOL0     H  637   8.689   5.058   5.444  2.2226 -0.7040  0.2891
    5MOL0     H  638   8.765   5.076   5.606  0.1020 -0.4283  0.0756
    5MOL0     H  639   9.332   5.120   5.469  2.6475  0.2281  0.5332
    5MOL0     H  640   9.471   4.925   5.508 -1.4666  0.2652 -0.8396
    5MOL0     H  641   9.559   4.704   5.579  0.8835  0.5654  0.7471
    5MOL0     H  642   9.576   4.606   5.723 -0.6009 -0.4973  0.3803
    5MOL0     H  643   9.322   4.670   5.570  0.4951 -1.0459 -1.0967
    5MOL0     H  644   9.419   4.531   5.544 -1.9992  0.5838 -1.0150
    5MOL0     H  645   9.311   4.590   5.818 -4.4537 -0.2540  1.0919
    5MOL0     H  646   9.369   4.431   5.761  0.5146  1.3282  1.7366
    5MOL0     H  647   9.131   4.546   5.618  0.3244 -0.7850 -0.1833
    5MOL0     H  648   9.182   4.382   5.633  2.6894 -0.5738  0.9380
    5MOL0     H  649   9.103   4.373   5.870  0.5188 -0.3130  0.2370
    5MOL0     H  650   8.976   4.420   5.755 -0.9740  1.2579  1.3050
    5MOL0     H  651   8.992   4.537   5.980  1.3526 -1.9741  0.2497
    5MOL0     H  652   9.138   4.596   5.931 -0.3152 -1.4748  1.1043
    5MOL0     H  653   8.893   4.654   5.746 -0.6738  2.9770  0.0329
    5MOL0     H  654   9.045   4.756   5.774  0.6316  0.5788  0.5149
    5MOL0     H  655   8.940   4.757   6.016 -2.6522 -0.8508  1.3798
    5MOL0     H  656   8.790   4.729   5.929 -0.2821 -1.8896 -0.6262
    5MOL0     H  657   9.270   4.877   5.892 -1.5925  1.3040 -0.0948
    5MOL0     H  658   9.132   5.078   5.839 -1.0033 -0.0563 -0.9947
    5MOL0     H  659   9.102   5.395   5.454 -1.1416 -0.4236  1.7178
    5MOL0     H  660   8.980   5.541   5.332 -1.6956  1.4511  1.1890
    5MOL0     H  661   7.727   6.679   4.989  0.8763 -0.8813  0.2661
    5MOL0     H  662   7.856   6.792   4.825  1.8570  2.1936 -0.9870
    5MOL0     H  663   8.314   7.012   4.749 -0.9935 -0.9393 -0.7012
    5MOL0     H  664   8.467   7.161   4.671 -1.5994 -1.6789  3.3129
    5MOL0     H  665   8.587   7.314   4.577  1.6278 -1.0703 -0.5735
    5MOL0     H  666   8.531   7.281   4.409 -1.4960  0.0992  0.2650
    5MOL0     H  667   8.548   7.495   4.343  2.7853  2.4251 -0.6967
    5MOL0     H  668   8.706   7.443   4.397 -0.6110 -2.7926 -0.9184
    5MOL0     H  669   8.610   7.550   4.636 -0.7560  1.8972  0.4185
    5MOL0     H  670   8.527   7.647   4.515  0.0891  0.0467 -0.2880
    5MOL0     H  671   8.738   7.761   4.563  0.0464  0.0918  0.0402
    5MOL0     H  672   8.739   7.695   4.397  1.1025 -1.7034 -0.0547
    5MOL0     H  673   9.057   7.477   4.583 -1.7862 -2.9728  0.6435
    5MOL0     H  674   8.160   7.430   4.538  0.6285 -0.8451 -1.6499
    5MOL0     H  675   7.996   7.308   4.700 -0.4175 -3.2323  1.5197
    6MOL0     O  676   1.186   0.974   3.629  0.3416 -0.3192  0.2383
    6MOL0     C  677   1.233   1.023   3.728 -0.3385 -0.1223  0.4577
    6MOL0     O  678   1.173   1.120   3.808  0.0617  0.0147 -0.0918
    6MOL0     C  679   1.075   1.208   3.764  0.3290  0.5801  0.2301
    6MOL0     C  680   0.994   1.264   3.863 -0.1596  0.0176  0.1956
    6MOL0     C  681   0.896   1.354   3.842  0.8951 -0.1546  0.2048
    6MOL0     C  682   0.881   1.414   3.714  0.3653  0.8697  0.7220
    6MOL0     O  683   0.794   1.513   3.681 -0.5639  0.1487 -0.9218
    6MOL0     C  684   0.736   1.577   3.798  0.1072  0.3823 -0.1236
    6MOL0     C  685   0.656   1.704   3.768  0.6722 -0.9317 -0.2510
    6MOL0     C  686   0.583   1.745   3.895 -0.7432 -0.5087  0.1965
    6MOL0     C  687   0.514   1.887   3.877 -1.3911 -1.0674  0.3195
    6MOL0     C  688   0.447   1.943   3.999  1.4363 -0.9932  0.2465
    6MOL0     C  689   0.377   2.084   3.977 -0.2480  0.3516  0.2368
    6MOL0     C  690   0.331   2.132   4.115 -0.1578 -0.8073 -0.0739
    6MOL0     C  691   0.290   2.287   4.106  0.3862  0.7122  0.6217
    6MOL0     N  692   0.307   2.338   4.244  0.1520 -0.6638  0.8944
    6MOL0     C  693   0.205   2.346   4.338  0.3624 -0.5934  0.4081
    6MOL0     C  694   0.275   2.390   4.450  0.0118 -0.3885  0.5537
    6MOL0     C  695   0.224   2.420   4.592 -0.1427 -0.5904 -0.2169
    6MOL0     C  696   0.297   2.548   4.638 -0.0739 -0.3572  0.7359
    6MOL0     C  697   0.230   2.610   4.763 -0.6390 -0.7592  0.4291
    6MOL0     C  698   0.259   2.538   4.892 -0.0947  0.0213  0.1066
    6MOL0     O  699   0.169   2.562   4.993  0.0352  0.1179  0.1989
    6MOL0     C  700   0.036   2.523   4.982 -0.3291  0.4335 -0.4166
    6MOL0     C  701  -0.064   2.584   5.058 -0.2980 -0.7063  0.2685
    6MOL0     C  702  -0.203   2.554   5.052 -0.2043 -0.0545  0.5112
    6MOL0     C  703  -0.298   2.625   5.139  0.3164 -0.9586 -0.5561
    6MOL0     C  704  -0.242   2.451   4.971 -0.4158  0.3328 -0.4773
    6MOL0     C  705  -0.385   2.392   4.940 -0.6989  0.0364 -0.9933
    6MOL0     O  706  -0.397   2.302   4.837 -0.2266  0.1804  0.1169
    6MOL0     C  707  -0.502   2.214   4.835 -0.3567 -0.2375  0.1416
    6MOL0     C  708  -0.490   2.077   4.826 -0.5710  0.6800  0.0583
    6MOL0     C  709  -0.598   1.993   4.834 -0.4674 -0.3156 -0.2748
    6MOL0     C  710  -0.737   2.039   4.837  1.0040 -0.1359 -0.6839
    6MOL0     O  711  -0.848   1.963   4.831  0.1721 -0.3210 -0.5690
    6MOL0     C  712  -0.827   1.825   4.864  0.4496 -1.1155  0.1117
    6MOL0     C  713  -0.960   1.744   4.849  0.6039  0.1074  0.3498
    6MOL0     C  714  -1.023   1.758   4.715  0.6482  0.3991 -0.8474
    6MOL0     C  715  -1.162   1.684   4.719  0.0533  0.7518 -0.0949
    6MOL0     C  716  -1.228   1.714   4.591  0.1271 -0.3343 -0.2121
    6MOL0     C  717  -1.368   1.656   4.602 -0.4077  0.5937  0.6037
    6MOL0     C  718  -1.464   1.737   4.509  0.3130  0.1169 -0.3013
    6MOL0     C  719  -1.599   1.675   4.527  0.0661 -0.3437 -0.2915
    6MOL0    Cl  720  -1.723   1.731   4.411 -0.0247 -0.2246 -0.0400
    6MOL0     C  721  -0.758   2.180   4.844 -0.5492  0.3366 -0.3889
    6MOL0     C  722  -0.638   2.264   4.846 -0.2829  0.3482  0.4928
    6MOL0     O  723  -0.473   2.423   5.022 -0.2153  0.1306 -0.1054
    6MOL0     C  724  -0.141   2.389   4.894  0.5156 -0.3790 -0.0874
    6MOL0     C  725  -0.003   2.424   4.896 -0.5708  0.1565  1.2007
    6MOL0     N  726   0.411   2.413   4.416 -0.1684  0.7379  0.1177
    6MOL0     N  727   0.431   2.378   4.289 -0.9155 -0.0409 -0.3234
    6MOL0     C  728   0.950   1.352   3.610  0.3529 -0.1570  0.1496
    6MOL0     C  729   1.044   1.247   3.632 -0.4897  0.2530 -0.1559
    6MOL0     C  730   1.351   0.962   3.788 -0.2733 -1.0842 -0.6433
    6MOL0     C  731   1.416   1.041   3.895 -0.1165 -0.8769 -0.2124
    6MOL0     C  732   1.527   0.971   3.961  0.7422 -0.4781  0.4249
    6MOL0     C  733   1.567   0.843   3.922  0.5302  0.5697  0.2181
    6MOL0     O  734   1.680   0.786   3.973 -0.3958  0.8863  0.1864
    6MOL0     C  735   1.793   0.873   3.992  0.7797  0.3826 -0.0689
    6MOL0     C  736   1.920   0.800   4.028 -0.1815  0.7173  0.5094
    6MOL0     C  737   1.945   0.690   3.918 -0.2841  0.1179  0.8243
    6MOL0     C  738   2.093   0.650   3.933  0.3978  0.0362 -0.4645
    6MOL0     C  739   2.101   0.563   4.055 -0.5872 -0.0218 -0.0022
    6MOL0     C  740   2.138   0.483   4.139 -0.3096 -0.3837  0.4550
    6MOL0     C  741   1.509   0.780   3.815  0.1327  0.2729  0.2773
    6MOL0     C  742   1.407   0.837   3.746  0.5645  0.2667  0.4485
    6MOL0     H  743   1.005   1.256   3.970 -0.6114  1.0060  0.3200
    6MOL0     H  744   0.825   1.386   3.918  1.8700  2.2969  0.1607
    6MOL0     H  745   0.650   1.517   3.830 -1.2090  2.3935  0.3464
    6MOL0     H  746   0.806   1.598   3.879 -0.6118 -2.2305  1.2871
    6MOL0     H  747   0.720   1.782   3.724  0.2519 -0.9225 -0.8647
    6MOL0     H  748   0.582   1.679   3.691 -1.1785  0.4590  1.0141
    6MOL0     H  749   0.495   1.683   3.914  0.1178 -1.1523  2.5259
    6MOL0     H  750   0.650   1.748   3.981 -1.3233  3.2485  0.6891
    6MOL0     H  751   0.588   1.956   3.834 -0.6672 -2.1818 -0.2840
    6MOL0     H  752   0.447   1.873   3.792 -1.7620 -0.6558  0.5469
    6MOL0     H  753   0.381   1.865   4.038  0.1397 -0.2447 -0.3866
    6MOL0     H  754   0.520   1.960   4.078  2.1817  0.3637 -0.6883
    6MOL0     H  755   0.451   2.154   3.937  0.6968 -2.2544 -3.0538
    6MOL0     H  756   0.293   2.085   3.908  0.1930  3.5225 -0.3854
    6MOL0     H  757   0.246   2.080   4.161 -1.9423  2.0065  0.0892
    6MOL0     H  758   0.419   2.109   4.175  0.5571 -1.1258 -1.2246
    6MOL0     H  759   0.190   2.297   4.062  0.7513 -1.3804 -0.8178
    6MOL0     H  760   0.353   2.351   4.043 -0.9428  0.9914 -0.4811
    6MOL0     H  761   0.102   2.314   4.348  0.0327  0.4083  0.3722
    6MOL0     H  762   0.116   2.430   4.577 -0.2055 -3.6557 -2.8458
    6MOL0     H  763   0.222   2.335   4.661 -2.4622  1.2313  2.1597
    6MOL0     H  764   0.301   2.627   4.562  1.3207  0.5031  1.6600
    6MOL0     H  765   0.404   2.535   4.651 -0.2645 -1.8119  1.0049
    6MOL0     H  766   0.122   2.603   4.752 -0.9403  3.0277 -0.3199
    6MOL0     H  767   0.252   2.717   4.771  1.0219 -1.0626  0.2936
    6MOL0     H  768   0.355   2.576   4.926  0.0622  1.1074 -1.4440
    6MOL0     H  769   0.276   2.433   4.867  0.5557  0.4321 -1.2927
    6MOL0     H  770  -0.024   2.661   5.123 -0.4149 -1.0812  0.7932
    6MOL0     H  771  -0.249   2.675   5.223 -2.5526  0.4454  0.4094
    6MOL0     H  772  -0.355   2.697   5.080 -0.6974 -0.4271  1.0048
    6MOL0     H  773  -0.377   2.563   5.181 -1.8016  1.3270 -0.9358
    6MOL0     H  774  -0.393   2.029   4.817 -0.8175  0.1486  0.1809
    6MOL0     H  775  -0.579   1.887   4.821  3.1085  0.3116 -1.1310
    6MOL0     H  776  -0.762   1.764   4.800 -1.0324 -0.7548 -1.8268
    6MOL0     H  777  -0.797   1.818   4.969 -0.8987  0.0161  0.6002
    6MOL0     H  778  -0.937   1.641   4.879  1.4841  0.6796  1.7396
    6MOL0     H  779  -1.029   1.787   4.922 -1.5187 -1.0028 -0.8941
    6MOL0     H  780  -0.963   1.716   4.634  1.3826  1.0716 -0.6554
    6MOL0     H  781  -1.031   1.866   4.700  1.4900  0.3608 -1.6340
    6MOL0     H  782  -1.129   1.579   4.722  0.6574  0.9210 -0.7255
    6MOL0     H  783  -1.225   1.711   4.804  1.3196  0.5262  0.9507
    6MOL0     H  784  -1.174   1.667   4.509  0.5596 -1.3514  0.6408
    6MOL0     H  785  -1.225   1.822   4.570 -1.1301 -0.9127 -4.2511
    6MOL0     H  786  -1.372   1.554   4.563  3.0435  0.2207  0.8968
    6MOL0     H  787  -1.416   1.649   4.700 -1.5749  1.3079  0.1060
    6MOL0     H  788  -1.426   1.740   4.407  2.9170 -3.9221  0.3337
    6MOL0     H  789  -1.467   1.840   4.544 -0.1116  0.3179 -0.9202
    6MOL0     H  790  -1.643   1.685   4.627  2.0342  0.4342  0.5343
    6MOL0     H  791  -1.591   1.566   4.525  1.2885 -0.2854  0.5759
    6MOL0     H  792  -0.855   2.227   4.838  0.9541  3.8073  0.0812
    6MOL0     H  793  -0.662   2.368   4.864 -1.4691 -0.1518  2.0513
    6MOL0     H  794  -0.168   2.319   4.817 -0.6466  0.6246 -0.6414
    6MOL0     H  795   0.066   2.378   4.825  0.8138  0.7109  2.1323
    6MOL0     H  796   0.939   1.386   3.507  1.8465 -1.0395 -0.3415
    6MOL0     H  797   1.105   1.203   3.553  0.0779  0.7166  0.0265
    6MOL0     H  798   1.380   1.133   3.941 -0.0958 -2.5115  3.3634
    6MOL0     H  799   1.557   1.027   4.048 -1.0814  0.5108  0.4649
    6MOL0     H  800   1.808   0.942   3.909 -0.6720 -1.2454 -1.7815
    6MOL0     H  801   1.771   0.940   4.076 -0.9583  1.6366 -1.4239
    6MOL0     H  802   1.909   0.745   4.123  0.7316  0.0050  0.2227
    6MOL0     H  803   2.002   0.872   4.032  0.4509  0.0346  0.2507
    6MOL0     H  804   1.907   0.727   3.823 -2.0368 -0.2041  1.3568
    6MOL0     H  805   1.887   0.600   3.940  1.1494 -0.7754  1.1069
    6MOL0     H  806   2.166   0.730   3.946 -0.7018  0.9620  0.2705
    6MOL0     H  807   2.121   0.598   3.841 -0.0569  2.9058 -2.3691
    6MOL0     H  808   2.175   0.412   4.210 -0.2629 -0.9698 -0.1492
    6MOL0     H  809   1.533   0.678   3.785 -1.6000  0.1254 -0.7415
    6MOL0     H  810   1.352   0.786   3.668 -1.0542  0.8122  1.1903
    7MOL0     O  811   5.695   9.465   4.298  0.2407  1.4450 -0.5846
    7MOL0     C  812   5.785   9.530   4.252  0.4175  0.0677  0.4838
    7MOL0     O  813   5.803   9.665   4.264 -0.2605 -0.4775 -0.2128
    7MOL0     C  814   5.711   9.730   4.350  0.6572  0.3327  0.1881
    7MOL0     C  815   5.585   9.773   4.300  0.5648  0.2165 -0.6907
    7MOL0     C  816   5.489   9.828   4.380  0.1288 -0.7764  0.1222
    7MOL0     C  817   5.523   9.857   4.514 -0.5951  0.3584 -0.4840
    7MOL0     O  818   5.416   9.917   4.581 -0.0441  0.1240  0.0280
    7MOL0     C  819   5.421   9.966   4.714  0.1221 -0.3192 -0.6591
    7MOL0     C  820   5.309  10.066   4.757 -0.0885  0.3782  0.2202
    7MOL0     C  821   5.166   9.993   4.789  0.0024  0.3191  0.0009
    7MOL0     C  822   5.113   9.952   4.654  0.7698  0.5432  0.3127
    7MOL0     C  823   4.973   9.888   4.675 -0.3444  0.3419 -0.0155
    7MOL0     C  824   4.925   9.814   4.550  0.8480 -0.5664 -0.0811
    7MOL0     C  825   4.781   9.771   4.549  0.5006 -0.4425  0.2588
    7MOL0     C  826   4.739   9.686   4.424  0.2175  0.5626  0.5285
    7MOL0     N  827   4.596   9.673   4.421  0.1139  0.5722  0.2885
    7MOL0     C  828   4.545   9.568   4.344  0.8402 -0.4698 -0.7863
    7MOL0     C  829   4.411   9.580   4.361 -0.5783  0.7120 -0.6139
    7MOL0     C  830   4.304   9.482   4.315  0.3059  0.2271  0.5593
    7MOL0     C  831   4.164   9.541   4.306  0.0208  0.7908 -0.4730
    7MOL0     C  832   4.068   9.438   4.237  0.1937 -0.7429  0.2276
    7MOL0     C  833   3.923   9.477   4.235  0.2604  0.0904 -0.5469
    7MOL0     O  834   3.836   9.360   4.226 -0.4486 -0.0384  0.2609
    7MOL0     C  835   3.707   9.379   4.257 -0.1888  0.0035 -0.0432
    7MOL0     C  836   3.636   9.271   4.305  0.5556  0.3482  0.2198
    7MOL0     C  837   3.503   9.262   4.336 -0.8976  0.3559 -0.1331
    7MOL0     C  838   3.438   9.123   4.359  0.1157 -0.3228  0.0140
    7MOL0     C  839   3.422   9.386   4.321  0.2482  1.2768 -0.8245
    7MOL0     C  840   3.267   9.394   4.334 -0.5188 -0.8206  0.0846
    7MOL0     O  841   3.218   9.516   4.301  0.0652  0.1404  0.2082
    7MOL0     C  842   3.087   9.537   4.272 -0.1559 -0.7056  0.3267
    7MOL0     C  843   2.975   9.508   4.351  0.4743 -0.1816  0.3589
    7MOL0     C  844   2.846   9.560   4.311  0.0162 -0.1232 -0.1814
    7MOL0     C  845   2.829   9.626   4.185 -0.8834 -0.9069 -0.4221
    7MOL0     O  846   2.705   9.668   4.151  0.7030  0.0958 -0.2530
    7MOL0     C  847   2.693   9.807   4.114  0.2860  0.8110 -0.6179
    7MOL0     C  848   2.538   9.844   4.104  0.1707 -0.2947 -0.6109
    7MOL0     C  849   2.458   9.815   4.231 -0.1534  0.3009  0.2267
    7MOL0     C  850   2.324   9.881   4.202 -0.2991  0.0093 -0.1265
    7MOL0     C  851   2.236   9.779   4.120 -0.8990 -0.0581  0.4685
    7MOL0     C  852   2.089   9.836   4.125  0.3396  0.0849 -0.9420
    7MOL0     C  853   2.003   9.738   4.053 -0.0027 -0.7401  0.0236
    7MOL0     C  854   1.851   9.791   4.051 -0.5477  0.0860  0.3248
    7MOL0    Cl  855   1.839   9.913   3.909 -0.1152 -0.1553 -0.0887
    7MOL0     C  856   2.944   9.649   4.108 -0.0803 -0.4605 -0.6298
    7MOL0     C  857   3.070   9.614   4.149  0.1703  0.2528 -0.3494
    7MOL0     O  858   3.197   9.295   4.360 -0.2652  0.3264 -0.9490
    7MOL0     C  859   3.497   9.503   4.284 -0.7279  0.5422 -0.6409
    7MOL0     C  860   3.637   9.501   4.256  0.2133 -0.0020  0.2389
    7MOL0     N  861   4.393   9.689   4.450 -0.6668  0.0062 -0.6362
    7MOL0     N  862   4.505   9.735   4.493 -0.8642  0.9304  0.0410
    7MOL0     C  863   5.645   9.805   4.567 -0.9988 -0.0670 -0.1208
    7MOL0     C  864   5.745   9.760   4.481  0.3144  1.0359  0.9603
    7MOL0     C  865   5.885   9.460   4.163 -1.0888 -0.4063  0.3553
    7MOL0     C  866   6.006   9.524   4.117  0.7347  0.1538 -1.0045
    7MOL0     C  867   6.086   9.465   4.018 -0.1807 -0.0626 -0.1294
    7MOL0     C  868   6.061   9.336   3.968  0.0726  0.7404 -0.7554
    7MOL0     O  869   6.132   9.270   3.870  0.2899 -0.2114  0.5493
    7MOL0     C  870   6.227   9.349   3.805 -0.5272  0.2297 -0.5588
    7MOL0     C  871   6.321   9.269   3.706  0.0039 -0.2418 -0.4461
    7MOL0     C  872   6.417   9.180   3.786 -0.8319  0.0765  0.2432
    7MOL0     C  873   6.475   9.075   3.693  0.0900 -0.2482 -0.3206
    7MOL0     C  874   6.579   9.136   3.610  0.5729  0.4559 -0.0501
    7MOL0     C  875   6.672   9.166   3.537 -0.2949 -0.8502 -0.0648
    7MOL0     C  876   5.944   9.271   4.009 -0.8768 -0.7012  0.2788
    7MOL0     C  877   5.869   9.328   4.113  0.4654  0.0959  0.0301
    7MOL0     H  878   5.555   9.743   4.200 -1.1276  1.2756 -0.5507
    7MOL0     H  879   5.392   9.850   4.336 -0.6735 -1.6490  1.3795
    7MOL0     H  880   5.432   9.884   4.785  2.2080  0.6818  0.2863
    7MOL0     H  881   5.516  10.021   4.719 -0.1525  0.0303  2.4636
    7MOL0     H  882   5.346  10.127   4.840  3.7342  0.7436 -1.5612
    7MOL0     H  883   5.299  10.136   4.674  0.4321  0.5004  0.2589
    7MOL0     H  884   5.187   9.904   4.850 -1.6685 -0.6111 -0.7055
    7MOL0     H  885   5.100  10.061   4.844 -1.5077 -1.0866  0.0435
    7MOL0     H  886   5.118  10.032   4.580  3.2269  0.0905 -0.1000
    7MOL0     H  887   5.176   9.881   4.600  1.5516  2.5863 -1.6283
    7MOL0     H  888   4.979   9.818   4.759 -2.0555 -1.2577 -1.1498
    7MOL0     H  889   4.913   9.972   4.710 -1.1297  0.1157 -0.7995
    7MOL0     H  890   4.945   9.886   4.471 -2.6553 -0.0619 -0.6505
    7MOL0     H  891   4.979   9.720   4.534  1.4248 -0.3875  0.7321
    7MOL0     H  892   4.751   9.712   4.636  0.8101  0.7693  1.2157
    7MOL0     H  893   4.720   9.861   4.560 -0.3252 -1.2752  3.4818
    7MOL0     H  894   4.776   9.583   4.426 -2.5696 -0.5230  0.2855
    7MOL0     H  895   4.780   9.744   4.341  0.2385  0.4597  0.4666
    7MOL0     H  896   4.601   9.501   4.279  2.1291 -0.7313  0.5565
    7MOL0     H  897   4.336   9.452   4.215 -0.3381  0.1582  0.3709
    7MOL0     H  898   4.299   9.398   4.385 -2.5983 -0.2306 -0.0552
    7MOL0     H  899   4.164   9.640   4.258 -0.4571  0.2823 -1.5794
    7MOL0     H  900   4.115   9.559   4.402 -1.7432 -2.6710 -0.5847
    7MOL0     H  901   4.076   9.345   4.294 -2.0942 -1.2412 -0.1813
    7MOL0     H  902   4.105   9.418   4.136  0.0418 -1.0097  0.2231
    7MOL0     H  903   3.901   9.543   4.150 -3.1764 -1.3784 -0.9433
    7MOL0     H  904   3.897   9.528   4.328  0.6636 -2.3009  0.9713
    7MOL0     H  905   3.683   9.173   4.309 -1.1071 -0.4609  3.9530
    7MOL0     H  906   3.364   9.111   4.280  2.0281 -0.1648 -1.9145
    7MOL0     H  907   3.508   9.043   4.332  0.6434  0.3668 -0.7043
    7MOL0     H  908   3.391   9.124   4.458 -0.9955 -3.8450 -0.3472
    7MOL0     H  909   2.987   9.443   4.438  0.6355  0.4635  0.8253
    7MOL0     H  910   2.763   9.547   4.379 -0.6362  0.2939 -0.8775
    7MOL0     H  911   2.740   9.876   4.184 -0.7098  1.0521 -0.1667
    7MOL0     H  912   2.738   9.815   4.015 -0.3740  2.0266 -0.8327
    7MOL0     H  913   2.525   9.951   4.087 -3.2849 -0.6942 -1.1673
    7MOL0     H  914   2.500   9.780   4.024  0.0304 -0.4454 -0.4226
    7MOL0     H  915   2.502   9.857   4.322  2.3624 -1.3901 -0.1041
    7MOL0     H  916   2.447   9.707   4.243 -0.0148  0.1796 -0.6491
    7MOL0     H  917   2.276   9.901   4.298  1.7571  1.5979  0.6447
    7MOL0     H  918   2.337   9.979   4.156  1.9496  0.8292  2.1112
    7MOL0     H  919   2.241   9.683   4.172 -0.3269 -1.1410 -1.5007
    7MOL0     H  920   2.271   9.777   4.017 -0.1288  0.1761  0.7215
    7MOL0     H  921   2.052   9.845   4.227 -1.2999 -1.0377 -1.4012
    7MOL0     H  922   2.078   9.931   4.071 -0.5481  0.0758 -0.7888
    7MOL0     H  923   2.021   9.642   4.101  1.1218  0.6432  2.5263
    7MOL0     H  924   2.034   9.722   3.949 -1.0181 -0.5531 -0.3275
    7MOL0     H  925   1.822   9.850   4.138  0.7562 -1.0316  1.5655
    7MOL0     H  926   1.775   9.713   4.040 -2.2356  1.8395 -1.2688
    7MOL0     H  927   2.932   9.704   4.015 -3.2931  1.9419  0.9786
    7MOL0     H  928   3.153   9.649   4.089  0.7756 -0.1672  0.2182
    7MOL0     H  929   3.449   9.598   4.266  1.3727  1.6847 -0.5155
    7MOL0     H  930   3.686   9.594   4.232 -0.0868 -0.3897 -2.1236
    7MOL0     H  931   5.672   9.832   4.668  2.5990  4.6392 -1.9865
    7MOL0     H  932   5.843   9.726   4.510  0.8555  2.2138  0.5614
    7MOL0     H  933   6.041   9.619   4.157 -0.3260 -0.5516  1.7998
    7MOL0     H  934   6.175   9.521   3.992 -0.8751  1.2072  0.1288
    7MOL0     H  935   6.182   9.425   3.740  1.7803  0.3049 -2.1787
    7MOL0     H  936   6.291   9.392   3.882 -2.1479  1.2777  0.2463
    7MOL0     H  937   6.380   9.342   3.650 -0.9166  0.1295 -0.9569
    7MOL0     H  938   6.261   9.205   3.640 -1.8440 -0.0735  0.9706
    7MOL0     H  939   6.370   9.137   3.874  2.7854 -2.5951  1.0761
    7MOL0     H  940   6.496   9.244   3.827 -0.1731  0.6219 -1.7533
    7MOL0     H  941   6.398   9.025   3.633  0.3240  0.8531 -1.5956
    7MOL0     H  942   6.523   9.012   3.768 -1.3337 -2.0256 -0.8273
    7MOL0     H  943   6.747   9.207   3.472 -1.4336 -0.0841 -0.9315
    7MOL0     H  944   5.926   9.174   3.964  0.5134 -0.9410  0.1750
    7MOL0     H  945   5.781   9.273   4.145  2.0699 -2.2606  0.6106
    8MOL0     O  946   4.275   0.717   9.445 -1.4007 -0.2520  1.0642
    8MOL0     C  947   4.311   0.829   9.411  0.2209 -0.4766  0.1099
    8MOL0     O  948   4.225   0.939   9.366  0.5990  0.3827  0.1271
    8MOL0     C  949   4.092   0.912   9.345 -0.2821  0.3228 -0.1329
    8MOL0     C  950   3.974   0.955   9.423 -0.4278  0.2776  1.0054
    8MOL0     C  951   3.846   0.923   9.381 -0.2057 -1.1369  0.3196
    8MOL0     C  952   3.830   0.874   9.255  0.0727 -0.9611  1.0369
    8MOL0     O  953   3.710   0.860   9.183  0.2195  0.4954  0.0092
    8MOL0     C  954   3.586   0.865   9.258  0.2068 -0.7069 -0.4000
    8MOL0     C  955   3.555   0.745   9.343  0.4162 -0.5007  0.5244
    8MOL0     C  956   3.483   0.623   9.269 -0.3007  0.1153 -0.1062
    8MOL0     C  957   3.578   0.531   9.193  0.2825 -0.4284  0.0014
    8MOL0     C  958   3.517   0.406   9.146 -0.2724  0.0297  0.6067
    8MOL0     C  959   3.610   0.326   9.048  0.2795  0.5493  0.7665
    8MOL0     C  960   3.537   0.237   8.953  0.5129  0.7546 -0.0276
    8MOL0     C  961   3.476   0.110   9.013 -0.2846  0.4805 -0.5092
    8MOL0     N  962   3.371   0.062   8.911 -0.3459 -0.5192 -0.3587
    8MOL0     C  963   3.235   0.060   8.922 -0.3862 -0.2354  0.2447
    8MOL0     C  964   3.184   0.006   8.808  0.4785  0.0396 -0.2342
    8MOL0     C  965   3.038  -0.008   8.768 -0.1379 -0.0140  0.7301
    8MOL0     C  966   3.016   0.068   8.643  1.0090 -0.3645  1.5475
    8MOL0     C  967   2.886   0.016   8.579 -0.6284  0.1837 -0.3339
    8MOL0     C  968   2.839   0.091   8.453  0.0870  0.8318  0.0359
    8MOL0     O  969   2.727   0.018   8.390  0.3420  0.1559  0.1038
    8MOL0     C  970   2.604   0.085   8.396  0.7060 -0.0872 -0.9953
    8MOL0     C  971   2.531   0.089   8.276  0.2548  0.6489  0.3158
    8MOL0     C  972   2.395   0.129   8.267 -0.2526 -0.0156 -0.3029
    8MOL0     C  973   2.341   0.121   8.127 -0.3175  0.4003 -0.7126
    8MOL0     C  974   2.329   0.166   8.387  0.2776  0.6804 -0.4938
    8MOL0     C  975   2.187   0.180   8.394 -0.4348 -0.0944 -1.4197
    8MOL0     O  976   2.145   0.281   8.467  0.1245  0.0806  0.4817
    8MOL0     C  977   2.016   0.331   8.484  0.4176 -0.2025 -0.4295
    8MOL0     C  978   1.999   0.439   8.571  0.8616  0.3795 -0.3955
    8MOL0     C  979   1.866   0.493   8.583  0.3190 -0.2555 -0.4891
    8MOL0     C  980   1.759   0.446   8.503 -0.3026  0.3966  0.0161
    8MOL0     O  981   1.636   0.506   8.492 -0.0995  0.1135 -0.1529
    8MOL0     C  982   1.585   0.562   8.613  0.2051 -0.3924  0.0520
    8MOL0     C  983   1.436   0.546   8.596 -0.2773  0.0747 -0.1156
    8MOL0     C  984   1.360   0.603   8.726  0.2954  0.1290  0.7070
    8MOL0     C  985   1.205   0.608   8.702 -0.5101  0.0479  0.1047
    8MOL0     C  986   1.124   0.656   8.826 -0.3673 -0.4108 -0.0957
    8MOL0     C  987   0.972   0.667   8.813 -0.5304  0.6536  0.0086
    8MOL0     C  988   0.934   0.786   8.720 -0.3628  0.5497 -0.4246
    8MOL0     C  989   0.783   0.789   8.687 -0.0431 -0.1701 -0.5400
    8MOL0    Cl  990   0.772   0.871   8.527 -0.2347 -0.2268 -0.1754
    8MOL0     C  991   1.786   0.344   8.412  0.5012  0.3323  0.3431
    8MOL0     C  992   1.910   0.280   8.404  0.4059 -0.5238  0.9367
    8MOL0     O  993   2.112   0.103   8.327 -0.3171 -0.0721  0.0953
    8MOL0     C  994   2.408   0.170   8.505 -0.2817 -0.2317  0.0990
    8MOL0     C  995   2.543   0.122   8.515 -0.1716  0.6402 -0.2175
    8MOL0     N  996   3.294  -0.034   8.736  1.0470  0.5729 -0.2406
    8MOL0     N  997   3.401  -0.015   8.811 -0.0405 -0.0462 -0.6132
    8MOL0     C  998   3.939   0.851   9.163 -0.0595  0.3370 -0.0222
    8MOL0     C  999   4.073   0.857   9.217  0.2090 -0.4178 -0.3290
    8MOL0     C 1000   4.463   0.849   9.374  0.6675  0.7667  0.5329
    8MOL0     C 1001   4.510   0.971   9.314  0.5912  0.5252 -0.4619
    8MOL0     C 1002   4.649   0.988   9.313  0.5330  0.0209  0.2635
    8MOL0     C 1003   4.736   0.890   9.364 -0.1857  0.7455  0.0556
    8MOL0     O 1004   4.869   0.923   9.382 -0.4840 -0.6826  0.2171
    8MOL0     C 1005   4.964   0.819   9.374  0.2686 -1.0354 -0.0063
    8MOL0     C 1006   5.084   0.876   9.298  0.5683 -0.7290  0.3824
    8MOL0     C 1007   5.055   0.907   9.146 -0.7297 -0.4997 -0.2733
    8MOL0     C 1008   5.180   0.939   9.071 -0.3545 -0.4739 -0.8597
    8MOL0     C 1009   5.216   1.077   9.079  0.2082  1.0297 -0.3309
    8MOL0     C 1010   5.244   1.194   9.086  0.1745  0.5484 -0.7495
    8MOL0     C 1011   4.683   0.773   9.427 -0.0353 -0.1090  0.4109
    8MOL0     C 1012   4.545   0.745   9.424  0.0238 -0.2344  0.1955
    8MOL0     H 1013   3.980   1.013   9.514 -0.5925 -1.6954  2.3365
    8MOL0     H 1014   3.770   0.949   9.453 -0.0756 -1.6149  0.6374
    8MOL0     H 1015   3.589   0.954   9.322 -1.7208 -1.1681  0.4045
    8MOL0     H 1016   3.504   0.878   9.187  0.2065  0.4833 -0.1910
    8MOL0     H 1017   3.642   0.710   9.400  1.0062 -2.4949 -1.4536
    8MOL0     H 1018   3.485   0.780   9.420  0.4184 -0.6829  0.6125
    8MOL0     H 1019   3.425   0.576   9.349  0.2413  2.0708  1.5110
    8MOL0     H 1020   3.401   0.654   9.204 -1.3952 -2.3019  0.0194
    8MOL0     H 1021   3.607   0.592   9.107  2.2547  0.6323  1.3038
    8MOL0     H 1022   3.659   0.510   9.264 -0.7417  0.5264  1.5295
    8MOL0     H 1023   3.501   0.346   9.236 -1.8428  2.0731  1.7834
    8MOL0     H 1024   3.418   0.422   9.103 -1.7588 -5.3879  1.2582
    8MOL0     H 1025   3.665   0.396   8.986 -2.6990  0.7001 -1.9783
    8MOL0     H 1026   3.691   0.267   9.091 -0.0693 -0.7602 -0.2951
    8MOL0     H 1027   3.454   0.296   8.912  0.7482  0.1980 -1.3733
    8MOL0     H 1028   3.603   0.213   8.869  0.2074 -0.6604  0.1033
    8MOL0     H 1029   3.425   0.135   9.106 -0.0999  0.7393 -0.4759
    8MOL0     H 1030   3.544   0.028   9.038 -0.9420  0.3165  0.7668
    8MOL0     H 1031   3.175   0.095   9.005 -0.4584 -0.6224  0.3566
    8MOL0     H 1032   3.012  -0.114   8.762 -0.6753  0.1406  0.2732
    8MOL0     H 1033   2.970   0.045   8.835 -0.9584  0.9051 -0.7770
    8MOL0     H 1034   3.102   0.042   8.580  0.0341 -2.0100  0.8177
    8MOL0     H 1035   3.019   0.175   8.667  2.6990 -0.1644  0.6248
    8MOL0     H 1036   2.812   0.015   8.660 -0.6421 -1.8720 -0.3178
    8MOL0     H 1037   2.900  -0.090   8.557 -3.7096 -0.1362 -1.3021
    8MOL0     H 1038   2.924   0.098   8.385  1.6278  1.3145  1.9260
    8MOL0     H 1039   2.807   0.194   8.470 -2.3923  0.3427 -1.1619
    8MOL0     H 1040   2.569   0.046   8.184 -2.3110 -1.3270  0.0800
    8MOL0     H 1041   2.251   0.183   8.139  0.0425  1.1258 -1.6445
    8MOL0     H 1042   2.395   0.163   8.042  1.3907 -0.5789 -0.1508
    8MOL0     H 1043   2.311   0.019   8.099 -0.1057  0.2696 -0.4640
    8MOL0     H 1044   2.084   0.460   8.636 -1.7679  1.5493  2.9810
    8MOL0     H 1045   1.840   0.576   8.648  3.3899  0.2652  0.2326
    8MOL0     H 1046   1.617   0.517   8.707  1.9033  1.5641  0.4762
    8MOL0     H 1047   1.616   0.667   8.616 -2.4041  0.5054 -0.9125
    8MOL0     H 1048   1.408   0.597   8.503 -0.0743  1.3080  0.4850
    8MOL0     H 1049   1.405   0.442   8.581  0.2606 -0.0654 -0.2710
    8MOL0     H 1050   1.393   0.706   8.737 -1.8145  1.2025 -1.8719
    8MOL0     H 1051   1.391   0.543   8.812  1.8542  1.0939  0.8434
    8MOL0     H 1052   1.184   0.683   8.626  0.5969  2.8074  2.3252
    8MOL0     H 1053   1.164   0.512   8.669 -2.5501  1.4784 -1.8558
    8MOL0     H 1054   1.155   0.759   8.850  1.0504 -1.2712  2.1073
    8MOL0     H 1055   1.155   0.587   8.904 -0.2060  0.6904  0.8404
    8MOL0     H 1056   0.944   0.574   8.763 -0.0875  1.0314 -0.9743
    8MOL0     H 1057   0.911   0.671   8.904  1.6549  1.7169  1.5170
    8MOL0     H 1058   0.986   0.774   8.625 -0.3948  1.4526 -0.5627
    8MOL0     H 1059   0.966   0.881   8.764  0.7359 -0.7904  1.8636
    8MOL0     H 1060   0.727   0.836   8.768  1.5364  0.6822  0.1081
    8MOL0     H 1061   0.746   0.691   8.658  0.4691 -0.8525  1.0093
    8MOL0     H 1062   1.696   0.320   8.355 -1.0160  1.8384  1.9764
    8MOL0     H 1063   1.920   0.224   8.312  0.4872  2.9353 -1.3885
    8MOL0     H 1064   2.363   0.211   8.595  1.9455 -0.8056  1.5674
    8MOL0     H 1065   2.604   0.125   8.605 -2.5020 -2.9752  1.6928
    8MOL0     H 1066   3.932   0.804   9.066  2.1022  1.1069 -0.6096
    8MOL0     H 1067   4.153   0.835   9.147 -0.5211 -1.9920 -0.7216
    8MOL0     H 1068   4.442   1.050   9.282  0.0183  2.1933  4.1600
    8MOL0     H 1069   4.704   1.080   9.299  0.0088  1.1686  4.2978
    8MOL0     H 1070   4.987   0.789   9.476  0.7049  1.3922  0.6834
    8MOL0     H 1071   4.931   0.733   9.315 -1.7371  1.5870 -3.0654
    8MOL0     H 1072   5.173   0.814   9.312  2.8542  2.6737  2.1273
    8MOL0     H 1073   5.124   0.966   9.345  4.2720  0.3776 -4.1096
    8MOL0     H 1074   4.986   0.989   9.126  1.0255  0.9174 -0.7796
    8MOL0     H 1075   5.000   0.823   9.102  0.4363 -0.4043 -2.0117
    8MOL0     H 1076   5.167   0.914   8.965 -1.4013 -0.0859 -0.8407
    8MOL0     H 1077   5.260   0.888   9.125 -0.1803  1.0252  0.3992
    8MOL0     H 1078   5.286   1.293   9.092  3.0961 -0.7009  2.1691
    8MOL0     H 1079   4.754   0.702   9.468  2.3314  0.6470 -2.0590
    8MOL0     H 1080   4.503   0.650   9.456  0.1939 -0.2959  0.2376
    9MOL0     O 1081  11.097   4.859   7.140 -0.3614 -1.1634 -0.1313
    9MOL0     C 1082  11.150   4.970   7.134  0.0677  0.6818  0.1778
    9MOL0     O 1083  11.113   5.079   7.055  0.5071  0.3787  0.1036
    9MOL0     C 1084  10.992   5.081   6.993  0.4871 -0.6262 -0.1836
    9MOL0     C 1085  10.871   5.102   7.059 -0.2382  0.5906 -0.3255
    9MOL0     C 1086  10.757   5.111   6.981 -0.2043  0.3388 -0.5379
    9MOL0     C 1087  10.757   5.076   6.847  0.2376  0.4067  1.0023
    9MOL0     O 1088  10.636   5.074   6.788  0.1100  0.0769  0.5046
    9MOL0     C 1089  10.632   5.086   6.643  0.5045  0.1472  0.4413
    9MOL0     C 1090  10.646   5.229   6.596  0.1532 -0.4943 -0.0177
    9MOL0     C 1091  10.682   5.225   6.450  0.0414  0.0960  0.5741
    9MOL0     C 1092  10.557   5.192   6.356  0.2563  0.1531 -0.0844
    9MOL0     C 1093  10.591   5.182   6.209 -0.3051  0.3594  0.4192
    9MOL0     C 1094  10.470   5.173   6.111 -0.5407  0.1907  0.1227
    9MOL0     C 1095  10.386   5.299   6.101 -0.7837  0.3318 -0.3256
    9MOL0     C 1096  10.325   5.333   5.968  0.4219 -0.5685 -1.0226
    9MOL0     N 1097  10.261   5.466   5.972  0.0182  0.1097  0.2988
    9MOL0     C 1098  10.169   5.509   6.070 -0.5320 -0.4590  0.0594
    9MOL0     C 1099  10.144   5.639   6.026 -0.1481  0.4012  0.3467
    9MOL0     C 1100  10.049   5.736   6.083  0.3300 -0.6996 -0.8422
    9MOL0     C 1101   9.914   5.723   6.006 -0.2874 -0.2984 -0.5115
    9MOL0     C 1102   9.816   5.826   6.055 -0.2294  0.1136 -0.2904
    9MOL0     C 1103   9.666   5.791   6.025  0.0096 -0.5117  0.7022
    9MOL0     O 1104   9.603   5.735   6.142 -0.1057 -0.4274  0.5781
    9MOL0     C 1105   9.471   5.704   6.121 -0.0314  0.4036  0.4947
    9MOL0     C 1106   9.408   5.636   6.224 -0.0246  0.2225 -0.7133
    9MOL0     C 1107   9.278   5.595   6.219 -0.4458  0.8748  0.9103
    9MOL0     C 1108   9.221   5.530   6.343 -0.1659 -0.4512  0.2158
    9MOL0     C 1109   9.201   5.627   6.105 -0.9150 -0.6346  0.7751
    9MOL0     C 1110   9.059   5.589   6.085 -0.3285  0.1234  1.4068
    9MOL0     O 1111   9.031   5.541   5.959 -1.1007 -0.1083  0.4373
    9MOL0     C 1112   8.912   5.479   5.943 -0.0228  0.0087 -0.2949
    9MOL0     C 1113   8.786   5.538   5.970  0.0343  0.5551  0.7400
    9MOL0     C 1114   8.668   5.487   5.930 -0.4749 -0.4997 -0.2109
    9MOL0     C 1115   8.663   5.366   5.866 -0.7242  0.4075 -0.0456
    9MOL0     O 1116   8.544   5.324   5.814 -0.0722  0.1308  0.0592
    9MOL0     C 1117   8.480   5.242   5.916 -0.2584  0.1136 -0.5361
    9MOL0     C 1118   8.343   5.193   5.869 -0.5539 -0.1676 -0.2556
    9MOL0     C 1119   8.234   5.303   5.875  0.3066  0.2049 -0.3774
    9MOL0     C 1120   8.113   5.248   5.795 -0.6893 -0.1250 -0.1400
    9MOL0     C 1121   7.992   5.335   5.764  0.6493 -0.5668  0.7708
    9MOL0     C 1122   7.951   5.417   5.886  0.5675 -0.3759  0.3311
    9MOL0     C 1123   7.819   5.497   5.858  0.4088  0.4873  0.3828
    9MOL0     C 1124   7.773   5.592   5.967 -0.1458 -1.1605  0.7643
    9MOL0    Cl 1125   7.600   5.605   5.961  0.0371  0.6085  0.1679
    9MOL0     C 1126   8.790   5.301   5.838 -0.1426  0.3375 -0.2592
    9MOL0     C 1127   8.916   5.354   5.872  0.1581 -0.1711 -0.5902
    9MOL0     O 1128   8.984   5.593   6.178 -0.5964 -0.4907 -0.3484
    9MOL0     C 1129   9.262   5.705   5.998  0.5537  0.1135 -0.5209
    9MOL0     C 1130   9.395   5.736   6.002 -0.0195 -0.0171 -0.6084
    9MOL0     N 1131  10.208   5.666   5.912 -0.5411  0.1411  0.0659
    9MOL0     N 1132  10.283   5.565   5.880  0.6259  0.1083  0.3843
    9MOL0     C 1133  10.881   5.064   6.783 -0.2771  0.1355  0.2944
    9MOL0     C 1134  10.997   5.064   6.859  0.3635  0.0828  0.7433
    9MOL0     C 1135  11.294   4.977   7.184  0.6750  0.4627  0.9068
    9MOL0     C 1136  11.355   4.863   7.244 -0.0972 -0.4579 -0.0765
    9MOL0     C 1137  11.487   4.857   7.286 -0.0167 -0.3825 -0.6501
    9MOL0     C 1138  11.562   4.973   7.291  0.0382 -0.4879  0.5001
    9MOL0     O 1139  11.683   4.944   7.347  0.4298 -0.4255 -0.3083
    9MOL0     C 1140  11.786   5.007   7.268  0.6274  0.8364  0.4924
    9MOL0     C 1141  11.923   4.994   7.340 -0.0651 -0.3316 -0.4654
    9MOL0     C 1142  12.021   5.072   7.257 -0.0508 -0.6301  0.3525
    9MOL0     C 1143  12.158   5.106   7.315 -0.8462 -0.0612 -0.3249
    9MOL0     C 1144  12.251   4.992   7.348 -0.1073 -0.3072 -0.1006
    9MOL0     C 1145  12.319   4.896   7.383 -0.3175  0.8945  0.0764
    9MOL0     C 1146  11.502   5.089   7.234  0.2251 -0.5498 -0.5635
    9MOL0     C 1147  11.375   5.090   7.177 -0.0724 -0.5636  0.2925
    9MOL0     H 1148  10.870   5.098   7.168  0.0683 -1.2817 -0.3448
    9MOL0     H 1149  10.663   5.146   7.020  1.7623  0.5296  4.8262
    9MOL0     H 1150  10.694   5.015   6.588 -0.1252  0.9438 -1.3475
    9MOL0     H 1151  10.528   5.056   6.626  0.7990  0.3702 -2.1339
    9MOL0     H 1152  10.551   5.283   6.608 -1.0672 -1.8916 -2.6169
    9MOL0     H 1153  10.722   5.285   6.651 -1.3246  1.4004  0.1910
    9MOL0     H 1154  10.727   5.322   6.429  0.1048  0.0501  0.4983
    9MOL0     H 1155  10.754   5.145   6.432 -0.1696 -0.0814  0.5107
    9MOL0     H 1156  10.502   5.104   6.389  0.4385  0.6065  1.4999
    9MOL0     H 1157  10.481   5.268   6.374  0.4326 -0.1303  2.0839
    9MOL0     H 1158  10.652   5.270   6.185 -2.7412  1.8378 -0.8234
    9MOL0     H 1159  10.650   5.090   6.206 -2.2400 -0.9437  0.4774
    9MOL0     H 1160  10.506   5.145   6.011  0.6871 -1.2762  0.9320
    9MOL0     H 1161  10.405   5.091   6.142  2.9930 -3.7675 -1.8806
    9MOL0     H 1162  10.302   5.300   6.172 -0.5007  1.3323  0.0189
    9MOL0     H 1163  10.443   5.390   6.123 -0.1134  0.2051 -1.4679
    9MOL0     H 1164  10.247   5.259   5.949  1.6647 -2.2950  0.1779
    9MOL0     H 1165  10.406   5.334   5.895  0.8687 -2.0850 -0.5839
    9MOL0     H 1166  10.128   5.454   6.154  3.0284 -1.2147  1.5130
    9MOL0     H 1167  10.037   5.709   6.188  0.5328  3.0849  0.2890
    9MOL0     H 1168  10.089   5.837   6.071 -0.0814 -0.2983  0.9007
    9MOL0     H 1169   9.873   5.622   6.007 -0.2259 -0.3198  0.6815
    9MOL0     H 1170   9.948   5.745   5.904  2.1367  0.0562  0.2997
    9MOL0     H 1171   9.834   5.922   6.007 -1.8995  0.2036 -0.8065
    9MOL0     H 1172   9.827   5.851   6.161 -0.6342 -0.6670 -0.0544
    9MOL0     H 1173   9.660   5.714   5.948  0.2612 -1.2894  1.4486
    9MOL0     H 1174   9.628   5.891   6.000  0.2445 -0.1622  1.7144
    9MOL0     H 1175   9.461   5.624   6.317 -1.1144  1.1392  0.0555
    9MOL0     H 1176   9.155   5.596   6.401  1.7467  0.6472  1.2129
    9MOL0     H 1177   9.169   5.435   6.324  2.1555 -1.7952  0.2328
    9MOL0     H 1178   9.305   5.508   6.409  2.4944  4.3071 -1.1274
    9MOL0     H 1179   8.775   5.634   6.019 -0.6841 -0.2447  2.2359
    9MOL0     H 1180   8.578   5.537   5.964 -0.7964 -0.8497 -0.5321
    9MOL0     H 1181   8.534   5.151   5.945 -1.5346 -0.2893  0.7223
    9MOL0     H 1182   8.468   5.301   6.008  0.3849 -2.3571  1.2547
    9MOL0     H 1183   8.354   5.154   5.768  1.0620  1.4314 -0.7466
    9MOL0     H 1184   8.315   5.113   5.937 -1.2741 -1.0654 -1.5744
    9MOL0     H 1185   8.267   5.398   5.831  0.2063  1.4222  2.0070
    9MOL0     H 1186   8.198   5.321   5.976  2.1601 -0.2436  0.3861
    9MOL0     H 1187   8.153   5.215   5.698 -0.0905 -0.0097  0.0634
    9MOL0     H 1188   8.072   5.162   5.848 -0.0764  1.4444  3.1176
    9MOL0     H 1189   7.912   5.265   5.737 -1.4825  1.6174  1.1249
    9MOL0     H 1190   8.007   5.401   5.678  0.0590  1.6626  2.2988
    9MOL0     H 1191   7.930   5.347   5.967 -0.7183 -0.6792 -0.2417
    9MOL0     H 1192   8.040   5.479   5.903  0.9195  0.4044 -3.5013
    9MOL0     H 1193   7.737   5.425   5.853 -0.7639  1.7977  0.1929
    9MOL0     H 1194   7.825   5.545   5.760  3.1509  0.4254  0.4262
    9MOL0     H 1195   7.821   5.689   5.955 -0.9238 -0.9630 -1.0126
    9MOL0     H 1196   7.806   5.560   6.067  0.2079 -0.7636  0.7759
    9MOL0     H 1197   8.790   5.206   5.785  0.3606  0.4540 -0.4719
    9MOL0     H 1198   9.008   5.304   5.847 -0.0650 -0.7349 -0.3049
    9MOL0     H 1199   9.198   5.724   5.913 -2.4309  0.3134  1.5873
    9MOL0     H 1200   9.429   5.796   5.917  2.3973  0.7665  0.8388
    9MOL0     H 1201  10.882   5.034   6.679 -1.7226 -1.9354  0.8110
    9MOL0     H 1202  11.089   5.057   6.802 -2.0935 -1.7348 -3.4959
    9MOL0     H 1203  11.299   4.770   7.246  1.3012 -1.3117  1.1051
    9MOL0     H 1204  11.525   4.773   7.343  0.6316  1.0753  1.1816
    9MOL0     H 1205  11.779   4.973   7.164 -3.8549 -1.0292  1.1555
    9MOL0     H 1206  11.771   5.115   7.266 -0.0103  0.7489  0.3540
    9MOL0     H 1207  11.955   4.889   7.338  1.1023  0.0114 -1.4673
    9MOL0     H 1208  11.916   5.031   7.443 -0.2545  0.3992 -0.7390
    9MOL0     H 1209  11.968   5.165   7.234 -3.0288 -2.3056 -0.0363
    9MOL0     H 1210  12.039   5.014   7.166 -0.1562  0.5062 -0.4137
    9MOL0     H 1211  12.122   5.155   7.406 -1.8297  1.1634 -1.3208
    9MOL0     H 1212  12.211   5.172   7.246  0.8268 -0.0510  0.9161
    9MOL0     H 1213  12.377   4.819   7.429 -1.8772 -0.0858  0.4881
    9MOL0     H 1214  11.561   5.179   7.220 -0.1922 -0.4302 -1.6800
    9MOL0     H 1215  11.351   5.184   7.128 -0.2744 -0.0372  1.3822
   10MOL0     O 1216   4.771  10.341   1.323  0.9412 -0.0215 -0.3909
   10MOL0     C 1217   4.735  10.410   1.421  0.0345  0.1870  0.3527
   10MOL0     O 1218   4.613  10.458   1.439 -0.0188  0.1700  0.2059
   10MOL0     C 1219   4.526  10.459   1.335  0.4686  0.1392  0.9952
   10MOL0     C 1220   4.561  10.523   1.216  1.0186 -1.2938 -0.4018
   10MOL0     C 1221   4.467  10.547   1.116  0.6941  0.4718  0.0545
   10MOL0     C 1222   4.335  10.496   1.135 -0.6506 -0.8215 -0.4182
   10MOL0     O 1223   4.241  10.529   1.041  1.0101 -1.1081  0.6156
   10MOL0     C 1224   4.104  10.543   1.090  0.5161  0.3875  0.4806
   10MOL0     C 1225   4.022  10.412   1.086  0.2202  0.0189  0.8654
   10MOL0     C 1226   3.875  10.438   1.121  0.0764 -0.9461 -0.7449
   10MOL0     C 1227   3.783  10.326   1.082 -0.4667  0.1131  0.0164
   10MOL0     C 1228   3.637  10.368   1.071  0.4642  0.2461  0.0686
   10MOL0     C 1229   3.536  10.248   1.059  0.1661  0.4636 -0.2633
   10MOL0     C 1230   3.393  10.292   1.054 -0.0924  0.1571 -0.4215
   10MOL0     C 1231   3.350  10.289   1.201 -0.5180 -0.2310  0.0012
   10MOL0     N 1232   3.211  10.328   1.222  0.2534  0.5437  0.7138
   10MOL0     C 1233   3.162  10.449   1.275 -0.6017  0.1696  0.6260
   10MOL0     C 1234   3.028  10.455   1.246  0.4972 -0.2709 -0.2577
   10MOL0     C 1235   2.937  10.575   1.270  0.4080 -0.5492 -0.1423
   10MOL0     C 1236   2.786  10.572   1.240 -0.5690 -0.1312 -0.0533
   10MOL0     C 1237   2.712  10.692   1.304  0.3559 -0.1632 -0.5295
   10MOL0     C 1238   2.558  10.706   1.274  0.2302 -0.5078 -0.0685
   10MOL0     O 1239   2.526  10.742   1.140 -0.2713  0.1157  0.2124
   10MOL0     C 1240   2.408  10.805   1.112 -0.5701  0.2533  1.0210
   10MOL0     C 1241   2.298  10.804   1.194  1.3144  0.5580 -0.3610
   10MOL0     C 1242   2.181  10.863   1.149  0.4417  0.3099 -1.0581
   10MOL0     C 1243   2.067  10.860   1.239  0.0265  0.3561 -0.0086
   10MOL0     C 1244   2.182  10.931   1.022  0.1816 -0.4161  0.1541
   10MOL0     C 1245   2.066  11.009   0.982  0.0068  0.4913 -0.6822
   10MOL0     O 1246   2.055  11.030   0.850 -0.1258 -0.9057  0.1743
   10MOL0     C 1247   1.928  11.048   0.799 -0.0048  0.1639  0.0159
   10MOL0     C 1248   1.814  10.985   0.840 -0.5180 -0.9066 -0.8183
   10MOL0     C 1249   1.689  11.023   0.782  0.1124 -1.2210 -0.5325
   10MOL0     C 1250   1.674  11.116   0.673 -0.8925  0.0349 -0.0851
   10MOL0     O 1251   1.553  11.158   0.627  0.3451  0.1726  0.3635
   10MOL0     C 1252   1.468  11.213   0.731 -0.5211  0.3262 -0.2198
   10MOL0     C 1253   1.323  11.229   0.669  0.4408 -0.1061 -0.0438
   10MOL0     C 1254   1.244  11.325   0.755 -0.0360  0.0645  0.1982
   10MOL0     C 1255   1.104  11.364   0.694  0.2338 -1.1412 -0.2653
   10MOL0     C 1256   1.038  11.446   0.808  0.1820 -0.3623  0.5292
   10MOL0     C 1257   0.902  11.519   0.778 -0.4482  0.5993 -0.3318
   10MOL0     C 1258   0.778  11.431   0.830  0.0663  0.0949  0.9564
   10MOL0     C 1259   0.650  11.517   0.867  0.3225 -0.6174 -0.4483
   10MOL0    Cl 1260   0.580  11.577   0.721 -0.2092 -0.5247  0.4895
   10MOL0     C 1261   1.797  11.165   0.625 -0.2907 -0.5470 -0.8627
   10MOL0     C 1262   1.916  11.131   0.689 -0.5112  0.2982  0.7413
   10MOL0     O 1263   1.999  11.076   1.061  0.1200  0.0436 -0.4841
   10MOL0     C 1264   2.302  10.942   0.939  0.3309  0.7681 -0.2079
   10MOL0     C 1265   2.413  10.878   0.990 -0.4921  0.5577 -0.5136
   10MOL0     N 1266   2.998  10.339   1.172 -0.3157  0.0939  1.0812
   10MOL0     N 1267   3.104  10.262   1.172  0.0953  0.0221 -0.1930
   10MOL0     C 1268   4.305  10.435   1.257  1.2468  0.8769  0.1730
   10MOL0     C 1269   4.394  10.411   1.353 -0.2769  0.1727  0.1826
   10MOL0     C 1270   4.838  10.417   1.525 -0.7776 -0.7634  0.9042
   10MOL0     C 1271   4.812  10.471   1.654 -0.1824  0.1611 -0.4955
   10MOL0     C 1272   4.916  10.490   1.753  0.1650  1.3472 -0.2017
   10MOL0     C 1273   5.044  10.455   1.724 -0.1272 -0.2037  0.3483
   10MOL0     O 1274   5.126  10.449   1.827 -0.4384 -0.0892  0.0015
   10MOL0     C 1275   5.260  10.384   1.823  0.5248 -0.1457 -0.0478
   10MOL0     C 1276   5.248  10.233   1.838 -0.1299 -0.4597  0.3605
   10MOL0     C 1277   5.172  10.193   1.972 -0.2124  0.7563 -0.3620
   10MOL0     C 1278   5.250  10.232   2.096 -0.5489  0.0253  0.3880
   10MOL0     C 1279   5.364  10.152   2.120  0.2156  0.0417  0.9321
   10MOL0     C 1280   5.464  10.090   2.118  0.2128  0.2488  0.1349
   10MOL0     C 1281   5.066  10.398   1.598  0.3247 -0.1472 -1.1510
   10MOL0     C 1282   4.966  10.376   1.504 -0.3373  1.0847 -0.1314
   10MOL0     H 1283   4.659  10.567   1.206 -0.1986  1.7828  0.3223
   10MOL0     H 1284   4.497  10.600   1.026 -1.9503 -0.1329 -1.2900
   10MOL0     H 1285   4.116  10.575   1.194  0.4515  1.0205  0.2958
   10MOL0     H 1286   4.039  10.616   1.041  0.0361  0.3706  1.0788
   10MOL0     H 1287   4.028  10.382   0.981  0.3655 -1.2009  1.2073
   10MOL0     H 1288   4.061  10.333   1.151  2.2186  0.9560  0.8830
   10MOL0     H 1289   3.857  10.461   1.226  2.0924  1.1127 -0.7579
   10MOL0     H 1290   3.829  10.520   1.066 -0.8180  1.2226  2.9009
   10MOL0     H 1291   3.814  10.290   0.984  2.3222  3.4525 -0.4993
   10MOL0     H 1292   3.792  10.250   1.161  2.2163 -0.5426 -0.7940
   10MOL0     H 1293   3.606  10.422   1.161  2.5018  2.0891 -0.2604
   10MOL0     H 1294   3.637  10.440   0.990  1.1487 -1.5647 -1.6227
   10MOL0     H 1295   3.555  10.197   0.965  0.8245  1.4907 -0.7108
   10MOL0     H 1296   3.554  10.174   1.137  1.4676  1.1209  0.0988
   10MOL0     H 1297   3.389  10.395   1.019  0.7803  0.1859 -0.4606
   10MOL0     H 1298   3.326  10.231   0.993 -2.5371  1.8577  0.4013
   10MOL0     H 1299   3.409  10.362   1.257 -0.4166 -0.4606  0.1973
   10MOL0     H 1300   3.363  10.187   1.239  2.0248 -0.5340 -1.4449
   10MOL0     H 1301   3.227  10.527   1.312  0.0303  0.7110 -1.5149
   10MOL0     H 1302   2.936  10.575   1.380  0.4777 -2.2806 -0.1096
   10MOL0     H 1303   2.984  10.663   1.226  2.4754 -0.5907  1.7607
   10MOL0     H 1304   2.728  10.493   1.289 -2.6861  0.8702 -0.8404
   10MOL0     H 1305   2.772  10.577   1.132 -0.7893  0.8379  0.0109
   10MOL0     H 1306   2.766  10.785   1.283  0.2763  0.7320  2.6874
   10MOL0     H 1307   2.725  10.685   1.412  1.3283  0.9398 -0.5470
   10MOL0     H 1308   2.536  10.787   1.344  3.4386  0.5905 -0.1593
   10MOL0     H 1309   2.515  10.608   1.295  2.2960 -1.5389 -0.3379
   10MOL0     H 1310   2.281  10.756   1.290 -3.0565  1.8276 -0.2622
   10MOL0     H 1311   2.075  10.787   1.321  0.5270 -2.1475 -2.1417
   10MOL0     H 1312   2.041  10.956   1.283 -0.0677  0.6913 -0.7740
   10MOL0     H 1313   1.978  10.822   1.187 -0.4738 -0.8717  1.6415
   10MOL0     H 1314   1.828  10.932   0.934 -1.0749  3.2418  1.8807
   10MOL0     H 1315   1.595  10.978   0.812  0.4016 -1.0601  0.6555
   10MOL0     H 1316   1.462  11.151   0.821 -1.0521  0.8785  0.1345
   10MOL0     H 1317   1.500  11.314   0.759 -0.4465 -0.6769  3.8367
   10MOL0     H 1318   1.336  11.257   0.564  0.4438  0.6103  0.1396
   10MOL0     H 1319   1.289  11.125   0.659 -0.3481  0.2498 -1.2801
   10MOL0     H 1320   1.309  11.412   0.760 -0.2249  0.5322 -3.1997
   10MOL0     H 1321   1.240  11.290   0.859  1.3374  3.4742  1.5625
   10MOL0     H 1322   1.128  11.441   0.620 -1.0883 -2.0770 -1.7179
   10MOL0     H 1323   1.046  11.283   0.649 -0.4462 -0.9148  0.1745
   10MOL0     H 1324   1.104  11.522   0.850 -0.1906  1.0755 -1.3383
   10MOL0     H 1325   1.012  11.387   0.896  0.2025  1.2671  1.6708
   10MOL0     H 1326   0.900  11.608   0.841  1.6649  0.0451  0.6203
   10MOL0     H 1327   0.904  11.562   0.677  0.0121  1.6773  0.1236
   10MOL0     H 1328   0.814  11.392   0.926  4.8725 -0.9701 -0.9901
   10MOL0     H 1329   0.758  11.349   0.760  0.8136  0.3767  0.4091
   10MOL0     H 1330   0.677  11.597   0.936  0.6730 -1.7164  0.7256
   10MOL0     H 1331   0.579  11.452   0.920  0.0180 -0.1335 -0.2480
   10MOL0     H 1332   1.815  11.239   0.547 -1.2545 -0.1154 -0.6866
   10MOL0     H 1333   2.003  11.186   0.655 -1.1412  0.2600 -1.0661
   10MOL0     H 1334   2.298  10.996   0.844 -0.1530 -0.1388 -0.7233
   10MOL0     H 1335   2.495  10.849   0.925 -1.0300 -0.8455 -0.6000
   10MOL0     H 1336   4.206  10.397   1.278  1.2605  1.1437  0.7293
   10MOL0     H 1337   4.369  10.361   1.446  3.5180 -1.3074  0.5983
   10MOL0     H 1338   4.716  10.518   1.673  0.1356  0.5175  0.2767
   10MOL0     H 1339   4.889  10.541   1.845  0.2928 -1.2001  1.3446
   10MOL0     H 1340   5.319  10.407   1.734 -0.3635  0.2069 -0.5584
   10MOL0     H 1341   5.301  10.425   1.916 -2.0821 -2.0633  2.1077
   10MOL0     H 1342   5.349  10.189   1.841  0.9032  1.6633 -0.7575
   10MOL0     H 1343   5.200  10.197   1.746  0.6131  3.0298 -1.5560
   10MOL0     H 1344   5.142  10.088   1.981 -1.2342  0.8175 -2.3516
   10MOL0     H 1345   5.073  10.240   1.965 -0.4351  0.7333  1.9695
   10MOL0     H 1346   5.181  10.214   2.179  0.0559 -0.7499  0.7363
   10MOL0     H 1347   5.270  10.340   2.097 -1.3428  0.1886 -0.4055
   10MOL0     H 1348   5.549  10.024   2.111 -0.7205 -1.0651  0.6508
   10MOL0     H 1349   5.165  10.368   1.566  0.3722  0.2086 -1.3515
   10MOL0     H 1350   4.997  10.339   1.407  1.5308  1.9641  0.0901
   11MOL0     O 1351  11.050   3.205   3.976 -0.1192 -0.1271  0.4196
   11MOL0     C 1352  11.085   3.254   3.870 -1.0853 -0.3777  0.1553
   11MOL0     O 1353  11.018   3.247   3.750 -0.0250 -0.1420 -0.3556
   11MOL0     C 1354  10.923   3.156   3.721  0.5882  0.2176  0.1737
   11MOL0     C 1355  10.928   3.096   3.596 -0.3059 -0.4004 -0.8905
   11MOL0     C 1356  10.849   2.980   3.570 -0.0749  0.1770 -0.1728
   11MOL0     C 1357  10.764   2.937   3.672  1.1189  0.3223 -0.1042
   11MOL0     O 1358  10.696   2.816   3.657 -0.1995 -0.0767 -1.0642
   11MOL0     C 1359  10.606   2.764   3.756  0.3008  0.3057 -0.0734
   11MOL0     C 1360  10.522   2.652   3.684  0.6415  0.1581 -0.1236
   11MOL0     C 1361  10.415   2.600   3.789 -0.6301  0.5314  0.3594
   11MOL0     C 1362  10.294   2.693   3.793  1.1492 -0.5264  0.3060
   11MOL0     C 1363  10.191   2.668   3.676 -0.2118 -0.7305  0.7897
   11MOL0     C 1364  10.066   2.760   3.683  0.2754  0.2238  0.1227
   11MOL0     C 1365   9.953   2.716   3.584  0.3344  0.4779  0.3996
   11MOL0     C 1366   9.837   2.804   3.601  0.2899 -0.2100 -0.2081
   11MOL0     N 1367   9.737   2.787   3.500  0.0498  0.6369  0.2103
   11MOL0     C 1368   9.739   2.812   3.362 -0.2713  0.4450 -0.0346
   11MOL0     C 1369   9.616   2.773   3.313 -0.2526  0.0116 -0.4089
   11MOL0     C 1370   9.577   2.786   3.176  0.5816  0.3667  1.4211
   11MOL0     C 1371   9.619   2.659   3.091  0.3836  0.1407 -0.6427
   11MOL0     C 1372   9.551   2.525   3.124 -0.3716 -0.4108 -0.2230
   11MOL0     C 1373   9.402   2.528   3.118  0.0608  0.0370  0.3236
   11MOL0     O 1374   9.361   2.557   2.979 -0.3055 -0.6612 -0.0475
   11MOL0     C 1375   9.224   2.581   2.949  0.4630  0.2387 -1.2093
   11MOL0     C 1376   9.119   2.557   3.046  0.4509 -0.9466  0.5997
   11MOL0     C 1377   8.981   2.574   3.010 -0.3239  0.8779 -0.1654
   11MOL0     C 1378   8.884   2.574   3.125  0.6894 -0.0482 -0.4019
   11MOL0     C 1379   8.937   2.590   2.875 -0.5088  0.1480  0.2686
   11MOL0     C 1380   8.796   2.605   2.824  0.1896  0.0185  0.5582
   11MOL0     O 1381   8.689   2.611   2.924 -0.4344 -0.4940 -0.0213
   11MOL0     C 1382   8.559   2.623   2.881  0.9243 -0.1612  0.1207
   11MOL0     C 1383   8.513   2.701   2.779 -0.7923  0.5218  0.3275
   11MOL0     C 1384   8.374   2.714   2.747 -0.3447  0.5861  0.0145
   11MOL0     C 1385   8.274   2.642   2.818 -0.2730 -0.6300 -0.1446
   11MOL0     O 1386   8.139   2.636   2.792  0.1953  0.1381  0.3546
   11MOL0     C 1387   8.090   2.631   2.658  0.3274  0.5810  0.3852
   11MOL0     C 1388   7.930   2.631   2.661 -0.5492 -0.1266 -0.2553
   11MOL0     C 1389   7.890   2.633   2.516  0.1014  0.7635 -0.7237
   11MOL0     C 1390   7.758   2.567   2.481 -0.3983  0.0366 -0.0013
   11MOL0     C 1391   7.707   2.588   2.341 -0.7194  0.4470 -0.4779
   11MOL0     C 1392   7.577   2.506   2.319  0.1300  0.0892  0.8497
   11MOL0     C 1393   7.448   2.578   2.347  0.0651 -0.0722  0.5797
   11MOL0     C 1394   7.333   2.499   2.291 -0.0386 -0.7213 -0.1850
   11MOL0    Cl 1395   7.179   2.566   2.348 -0.0682 -0.1140 -0.3610
   11MOL0     C 1396   8.317   2.560   2.924  1.2786 -0.8008  0.0947
   11MOL0     C 1397   8.457   2.561   2.954 -0.0061 -0.1632  0.4676
   11MOL0     O 1398   8.780   2.602   2.702 -0.2988  0.5363 -0.4504
   11MOL0     C 1399   9.045   2.618   2.793  0.1479  0.0922  0.1956
   11MOL0     C 1400   9.182   2.613   2.822  0.4730  0.6472  0.0043
   11MOL0     N 1401   9.547   2.716   3.420 -1.3061  0.1931 -0.6908
   11MOL0     N 1402   9.621   2.726   3.531  0.1046  0.1989  0.1098
   11MOL0     C 1403  10.746   3.013   3.785  0.1977 -0.2186 -0.5913
   11MOL0     C 1404  10.831   3.120   3.816  0.2181  0.2743  0.6626
   11MOL0     C 1405  11.223   3.319   3.870 -0.2485 -0.3657  0.1100
   11MOL0     C 1406  11.300   3.309   3.752  0.4448 -0.1901 -0.2578
   11MOL0     C 1407  11.417   3.377   3.738 -0.3971 -0.7384  0.6142
   11MOL0     C 1408  11.454   3.464   3.837 -0.7449 -0.8524  0.5512
   11MOL0     O 1409  11.568   3.549   3.812 -0.0338  0.1315 -0.8614
   11MOL0     C 1410  11.571   3.678   3.884 -0.7912 -0.2610 -0.0078
   11MOL0     C 1411  11.681   3.678   3.983  0.4661  0.0290 -0.4043
   11MOL0     C 1412  11.823   3.647   3.949 -0.2276 -0.2160  0.6725
   11MOL0     C 1413  11.869   3.713   3.818 -0.3035 -0.0100 -0.8825
   11MOL0     C 1414  12.011   3.686   3.795 -0.5897 -0.2748  0.0929
   11MOL0     C 1415  12.129   3.681   3.781  0.1836 -0.6713 -0.2769
   11MOL0     C 1416  11.387   3.463   3.960  0.6488 -0.7797  0.5637
   11MOL0     C 1417  11.276   3.382   3.979  0.6334 -0.9051 -0.0129
   11MOL0     H 1418  11.003   3.126   3.524  1.3466  1.1837  1.3409
   11MOL0     H 1419  10.852   2.922   3.478 -0.7655  0.5159 -0.4117
   11MOL0     H 1420  10.670   2.729   3.837 -0.6417 -1.5320 -0.0616
   11MOL0     H 1421  10.531   2.838   3.786 -0.4489 -0.1080 -0.8748
   11MOL0     H 1422  10.484   2.695   3.591  0.1088  2.9355  1.2963
   11MOL0     H 1423  10.592   2.569   3.668 -0.6831 -1.5678  2.3269
   11MOL0     H 1424  10.387   2.500   3.754 -2.0886  0.3592  1.9355
   11MOL0     H 1425  10.462   2.593   3.888 -0.0594 -1.9339 -0.0181
   11MOL0     H 1426  10.238   2.666   3.883  0.6133  1.7591  0.7283
   11MOL0     H 1427  10.326   2.798   3.798  0.4333 -0.2091 -1.1102
   11MOL0     H 1428  10.242   2.680   3.580  0.8806 -1.7222  1.2159
   11MOL0     H 1429  10.169   2.561   3.668 -0.6805 -0.5627 -0.2235
   11MOL0     H 1430  10.033   2.774   3.786  1.2906 -2.0031  0.8091
   11MOL0     H 1431  10.103   2.860   3.657  2.2340 -0.4660  0.1336
   11MOL0     H 1432   9.993   2.720   3.482  0.0418 -1.3806  0.1825
   11MOL0     H 1433   9.924   2.614   3.610  0.5705  0.4242  0.4567
   11MOL0     H 1434   9.872   2.907   3.588 -2.7870  0.7437 -1.9325
   11MOL0     H 1435   9.809   2.798   3.707  3.0562  0.3023  0.6501
   11MOL0     H 1436   9.818   2.857   3.304  0.2997 -0.1230  0.3012
   11MOL0     H 1437   9.468   2.789   3.165  0.5804 -2.2872 -0.1871
   11MOL0     H 1438   9.626   2.876   3.138 -0.4566  1.1929  1.9675
   11MOL0     H 1439   9.727   2.641   3.097  0.6526  1.9072  0.9364
   11MOL0     H 1440   9.590   2.672   2.986 -0.0250  0.1322 -0.5318
   11MOL0     H 1441   9.580   2.496   3.225 -0.1646 -0.6798 -0.3582
   11MOL0     H 1442   9.583   2.459   3.043 -0.7733 -0.7365 -0.1173
   11MOL0     H 1443   9.360   2.601   3.187  2.0318  0.6751  0.9218
   11MOL0     H 1444   9.362   2.428   3.139  0.5024 -0.7514 -2.2678
   11MOL0     H 1445   9.147   2.533   3.148  0.7800 -0.1313  0.7077
   11MOL0     H 1446   8.820   2.662   3.116  1.1031  0.0973 -2.2652
   11MOL0     H 1447   8.814   2.490   3.130  0.1529  0.4341  0.7091
   11MOL0     H 1448   8.934   2.567   3.223 -0.9203 -0.5035  0.4288
   11MOL0     H 1449   8.594   2.751   2.727  0.7542 -0.2107  1.9043
   11MOL0     H 1450   8.358   2.776   2.660  0.3297 -0.1311 -0.6393
   11MOL0     H 1451   8.133   2.718   2.609 -0.6941  0.9796  0.1571
   11MOL0     H 1452   8.127   2.539   2.611  1.6203  0.3522  1.7841
   11MOL0     H 1453   7.887   2.541   2.706 -2.2207 -0.6739 -2.7218
   11MOL0     H 1454   7.898   2.727   2.702  1.6445  0.5121  0.0522
   11MOL0     H 1455   7.968   2.578   2.462 -2.5966 -1.5742 -2.5407
   11MOL0     H 1456   7.892   2.737   2.483 -0.5032  0.5280 -1.5413
   11MOL0     H 1457   7.776   2.460   2.495  2.0880  0.3341 -0.4461
   11MOL0     H 1458   7.687   2.601   2.557  0.6065  0.2663  0.8453
   11MOL0     H 1459   7.786   2.564   2.269  3.6164  0.9247  3.6601
   11MOL0     H 1460   7.693   2.693   2.315  0.3990  0.4137 -1.2723
   11MOL0     H 1461   7.571   2.483   2.212 -1.3600  2.0561  0.4674
   11MOL0     H 1462   7.573   2.410   2.372 -0.9243 -2.2093 -2.9500
   11MOL0     H 1463   7.444   2.677   2.299 -2.6940 -0.0796  0.6118
   11MOL0     H 1464   7.430   2.594   2.454 -1.2393  0.1292  0.3504
   11MOL0     H 1465   7.354   2.396   2.321  1.2402  0.0268  1.6921
   11MOL0     H 1466   7.329   2.503   2.182 -0.3290  1.8004 -0.1398
   11MOL0     H 1467   8.247   2.496   2.977 -0.6220  0.1931 -1.1306
   11MOL0     H 1468   8.490   2.503   3.039  0.4664  0.1586  0.5051
   11MOL0     H 1469   9.021   2.659   2.695 -1.3343  1.9359  1.2637
   11MOL0     H 1470   9.257   2.632   2.746  0.6259  0.5518  0.1327
   11MOL0     H 1471  10.672   2.975   3.855  1.2250 -0.9682  0.1199
   11MOL0     H 1472  10.819   3.179   3.906  0.6296 -0.2889  1.0967
   11MOL0     H 1473  11.261   3.254   3.667 -0.3488  1.9886 -1.3597
   11MOL0     H 1474  11.461   3.374   3.638 -2.0949  0.5528 -0.2195
   11MOL0     H 1475  11.600   3.752   3.809 -0.7783 -2.4656 -2.3187
   11MOL0     H 1476  11.482   3.701   3.943 -1.5515 -0.7053 -0.9601
   11MOL0     H 1477  11.651   3.608   4.062 -1.9557 -0.0114 -1.2975
   11MOL0     H 1478  11.693   3.777   4.028  0.7746  1.0647 -2.6216
   11MOL0     H 1479  11.831   3.538   3.942 -0.5475 -0.4315  2.8803
   11MOL0     H 1480  11.893   3.680   4.025  0.3139  1.7455 -0.6172
   11MOL0     H 1481  11.858   3.822   3.827 -1.6579 -0.2831  1.2360
   11MOL0     H 1482  11.813   3.671   3.734 -0.4240 -0.8982 -0.3657
   11MOL0     H 1483  12.235   3.690   3.767 -0.3030  1.7282 -3.6151
   11MOL0     H 1484  11.437   3.515   4.041  0.4287  3.2995 -1.6713
   11MOL0     H 1485  11.228   3.382   4.076 -1.2001 -4.0016 -0.7755
   12MOL0     O 1486   3.368  10.019  10.777  0.0447  0.0550  0.8051
   12MOL0     C 1487   3.386  10.079  10.667 -0.1648  0.9033  0.2512
   12MOL0     O 1488   3.291  10.136  10.594  0.0186 -0.5919  0.0504
   12MOL0     C 1489   3.156  10.134  10.629 -0.0299  0.4260  0.3035
   12MOL0     C 1490   3.064  10.175  10.524  0.6453 -0.5344  0.1367
   12MOL0     C 1491   2.928  10.177  10.547 -0.2564 -0.3611 -0.6225
   12MOL0     C 1492   2.878  10.148  10.671  0.6125  0.9319  0.4627
   12MOL0     O 1493   2.742  10.142  10.694 -0.2542 -0.8966 -0.4484
   12MOL0     C 1494   2.683  10.272  10.700  0.3181  0.0306  0.0842
   12MOL0     C 1495   2.542  10.248  10.734  0.2046 -0.7546 -0.6937
   12MOL0     C 1496   2.446  10.379  10.731  0.7093 -0.3119 -0.2565
   12MOL0     C 1497   2.323  10.359  10.824 -0.5111  0.2794 -0.3171
   12MOL0     C 1498   2.233  10.476  10.809  0.0143 -0.0547 -0.9153
   12MOL0     C 1499   2.146  10.510  10.941 -0.3761 -0.8042  0.8604
   12MOL0     C 1500   2.063  10.636  10.913  0.2620 -0.1560  0.1849
   12MOL0     C 1501   1.947  10.662  11.011  0.4207  0.6440 -0.4113
   12MOL0     N 1502   1.835  10.572  10.991  0.0172 -0.2578  0.6735
   12MOL0     C 1503   1.803  10.471  11.082  0.0708  0.3230 -0.0289
   12MOL0     C 1504   1.683  10.428  11.029 -0.6492 -0.7541  0.7286
   12MOL0     C 1505   1.595  10.324  11.098  0.1787 -0.3879  0.7777
   12MOL0     C 1506   1.456  10.301  11.034  0.9156  0.6087  0.3441
   12MOL0     C 1507   1.344  10.402  11.062 -0.0924 -0.3831 -0.6337
   12MOL0     C 1508   1.217  10.366  11.002  0.3853 -0.2548 -0.5623
   12MOL0     O 1509   1.155  10.263  11.077 -0.5701  0.1713 -0.2940
   12MOL0     C 1510   1.019  10.234  11.074 -0.9649 -0.4431  0.4657
   12MOL0     C 1511   0.926  10.302  10.993  0.7124  0.2229 -0.9495
   12MOL0     C 1512   0.797  10.250  10.979 -0.2589  0.3809  0.2448
   12MOL0     C 1513   0.722  10.314  10.865  0.1817  0.6906  0.3738
   12MOL0     C 1514   0.742  10.146  11.067 -0.5638 -0.3423  0.7866
   12MOL0     C 1515   0.596  10.105  11.079  0.0251 -0.7244  0.1359
   12MOL0     O 1516   0.566   9.992  11.153 -0.7204  0.4448 -0.3065
   12MOL0     C 1517   0.447   9.926  11.162  0.7942  0.4893  0.4972
   12MOL0     C 1518   0.355   9.912  11.049  0.0106 -0.4968 -0.2449
   12MOL0     C 1519   0.234   9.843  11.067  0.5786 -0.6920 -0.2653
   12MOL0     C 1520   0.198   9.795  11.193  1.0455  1.0273 -0.3945
   12MOL0     O 1521   0.073   9.738  11.220  0.3274 -0.5664 -0.3643
   12MOL0     C 1522  -0.027   9.771  11.127 -0.3095 -0.1447 -0.6605
   12MOL0     C 1523  -0.155   9.724  11.190  0.8289 -0.2053 -1.0529
   12MOL0     C 1524  -0.276   9.770  11.113 -0.5485  0.8081 -0.1473
   12MOL0     C 1525  -0.407   9.740  11.191  0.9748 -0.3776 -0.2600
   12MOL0     C 1526  -0.527   9.775  11.105  0.6590 -0.1783 -0.1062
   12MOL0     C 1527  -0.654   9.780  11.198  0.7808  0.8167  0.5105
   12MOL0     C 1528  -0.776   9.837  11.120 -0.5653 -0.2335  0.4659
   12MOL0     C 1529  -0.902   9.840  11.197 -0.2396 -0.9601  0.6701
   12MOL0    Cl 1530  -1.023   9.924  11.104 -0.0661 -0.1245  0.1425
   12MOL0     C 1531   0.285   9.810  11.299  0.2876  0.0405  0.1251
   12MOL0     C 1532   0.414   9.863  11.285  0.1989 -0.2407  0.5110
   12MOL0     O 1533   0.514  10.184  11.032  0.3549 -0.1476  0.6284
   12MOL0     C 1534   0.837  10.095  11.158  0.4693  0.3371 -0.0828
   12MOL0     C 1535   0.970  10.140  11.160 -1.1924 -0.2278  0.9361
   12MOL0     N 1536   1.652  10.511  10.919  0.8368 -0.2137 -0.3384
   12MOL0     N 1537   1.743  10.598  10.901  0.5547  0.4883 -0.3674
   12MOL0     C 1538   2.965  10.117  10.776  0.2227 -0.3833 -1.3151
   12MOL0     C 1539   3.102  10.106  10.747  0.0019 -0.9284  0.4083
   12MOL0     C 1540   3.530  10.092  10.615 -0.3052 -0.3285 -1.0759
   12MOL0     C 1541   3.635  10.061  10.701  0.2060 -0.3405 -0.4758
   12MOL0     C 1542   3.764  10.061  10.649  0.2751  0.2935  0.6004
   12MOL0     C 1543   3.789  10.095  10.520 -0.2379 -0.6856 -0.5936
   12MOL0     O 1544   3.925  10.102  10.491  0.1953  0.1677 -0.2581
   12MOL0     C 1545   3.955  10.200  10.386 -0.1562  0.0969  0.2114
   12MOL0     C 1546   4.106  10.236  10.380  0.1302 -0.4284 -0.4211
   12MOL0     C 1547   4.152  10.333  10.491 -0.5382  0.6391 -0.5895
   12MOL0     C 1548   4.265  10.270  10.575  0.5143 -0.0131  0.2222
   12MOL0     C 1549   4.313  10.379  10.657  0.0891 -0.2915  0.2476
   12MOL0     C 1550   4.342  10.473  10.731  0.2554 -0.1233 -0.2350
   12MOL0     C 1551   3.684  10.130  10.430  0.5060  0.3807  0.3714
   12MOL0     C 1552   3.552  10.134  10.480 -0.9786  0.3418 -0.2694
   12MOL0     H 1553   3.104  10.209  10.429  2.7976 -1.1007  0.7800
   12MOL0     H 1554   2.864  10.208  10.465 -1.4328 -0.8366  0.0864
   12MOL0     H 1555   2.734  10.334  10.774  1.1200  0.9688 -1.2115
   12MOL0     H 1556   2.698  10.321  10.603 -0.1950  0.7225  0.3484
   12MOL0     H 1557   2.489  10.176  10.670  0.4605 -0.7379 -0.9277
   12MOL0     H 1558   2.549  10.210  10.837  0.9993 -0.9713 -0.8152
   12MOL0     H 1559   2.496  10.467  10.773 -0.8992 -0.0554  1.2519
   12MOL0     H 1560   2.420  10.415  10.631  3.5690  1.4401 -0.4790
   12MOL0     H 1561   2.273  10.264  10.806 -1.1860  0.0425  2.4065
   12MOL0     H 1562   2.360  10.351  10.927  0.3197 -0.0350 -0.6329
   12MOL0     H 1563   2.292  10.565  10.786  1.5276 -1.0415 -0.9583
   12MOL0     H 1564   2.166  10.459  10.724 -1.0223  2.3341 -0.6557
   12MOL0     H 1565   2.088  10.421  10.967  1.7191 -2.3317  0.6400
   12MOL0     H 1566   2.206  10.538  11.028 -1.9568  0.0155  1.7357
   12MOL0     H 1567   2.119  10.729  10.924  0.4352 -0.2315 -0.0526
   12MOL0     H 1568   2.012  10.633  10.817 -2.0518 -1.0893  1.3474
   12MOL0     H 1569   1.915  10.766  11.005  0.4141  0.7225  0.7056
   12MOL0     H 1570   1.980  10.653  11.115 -0.0885  2.5484 -0.0429
   12MOL0     H 1571   1.849  10.421  11.167 -0.7782 -3.0689 -1.4067
   12MOL0     H 1572   1.647  10.228  11.105  1.1175 -0.0078 -0.6157
   12MOL0     H 1573   1.580  10.364  11.199  0.1205 -0.6131  0.8580
   12MOL0     H 1574   1.432  10.199  11.067  0.6434  0.3444 -0.6156
   12MOL0     H 1575   1.470  10.293  10.926  3.1538 -1.0115  0.6897
   12MOL0     H 1576   1.367  10.493  11.006  1.2519  0.0413  0.5442
   12MOL0     H 1577   1.334  10.417  11.170 -2.1564 -0.8274 -0.7314
   12MOL0     H 1578   1.242  10.331  10.901  2.1161 -2.3372  0.4946
   12MOL0     H 1579   1.152  10.452  10.986  2.0968  0.7270 -2.9439
   12MOL0     H 1580   0.952  10.387  10.930 -1.7884  0.3095 -1.9536
   12MOL0     H 1581   0.781  10.383  10.805 -0.0165 -1.7781 -2.9277
   12MOL0     H 1582   0.687  10.232  10.801 -2.4080  1.7439  0.3045
   12MOL0     H 1583   0.632  10.368  10.895 -1.6899 -1.2269 -1.4325
   12MOL0     H 1584   0.382   9.936  10.946 -2.8717  0.0672 -0.9661
   12MOL0     H 1585   0.164   9.834  10.985 -2.3911 -0.1746  2.0312
   12MOL0     H 1586  -0.028   9.879  11.107 -2.4082  0.9619  4.0266
   12MOL0     H 1587  -0.010   9.716  11.034 -1.0455  0.6112 -1.2577
   12MOL0     H 1588  -0.149   9.616  11.207 -0.1106 -0.5554 -2.7422
   12MOL0     H 1589  -0.156   9.769  11.290  2.2956  0.0007 -1.1177
   12MOL0     H 1590  -0.271   9.713  11.020  1.1998 -0.3272  0.5863
   12MOL0     H 1591  -0.277   9.877  11.090 -2.0128  1.1012  1.0796
   12MOL0     H 1592  -0.420   9.634  11.211 -1.7896 -0.3574 -1.4454
   12MOL0     H 1593  -0.410   9.798  11.284  0.7170 -1.4153  0.3968
   12MOL0     H 1594  -0.542   9.696  11.031  0.9614 -0.8651  0.5515
   12MOL0     H 1595  -0.507   9.874  11.063 -1.2718  0.8254  1.1780
   12MOL0     H 1596  -0.696   9.683  11.227  1.7002 -0.3632 -1.8500
   12MOL0     H 1597  -0.639   9.841  11.287 -0.3789  0.0435  1.2629
   12MOL0     H 1598  -0.796   9.785  11.026 -1.3991  0.1703  0.4101
   12MOL0     H 1599  -0.756   9.940  11.089 -0.1640 -0.4658 -0.0738
   12MOL0     H 1600  -0.886   9.890  11.292 -2.6424  1.1549  0.0959
   12MOL0     H 1601  -0.937   9.739  11.219 -1.7191 -0.3808  1.1060
   12MOL0     H 1602   0.250   9.761  11.389  1.4886 -2.6590 -0.7696
   12MOL0     H 1603   0.485   9.859  11.367  0.6923  1.2141  0.1877
   12MOL0     H 1604   0.799  10.020  11.226 -1.8628  3.9498  2.9178
   12MOL0     H 1605   1.043  10.098  11.228 -0.9042 -0.3284  0.5660
   12MOL0     H 1606   2.935  10.097  10.878  3.5761  1.1868  0.1280
   12MOL0     H 1607   3.160  10.081  10.836  0.3504 -2.2907 -0.1694
   12MOL0     H 1608   3.611  10.047  10.806 -0.5577 -0.9141 -0.7148
   12MOL0     H 1609   3.853  10.036  10.706  2.5683 -0.2316 -2.8976
   12MOL0     H 1610   3.921  10.162  10.289  2.6142 -1.6852 -0.1598
   12MOL0     H 1611   3.897  10.292  10.400 -1.8601 -1.1996  2.3146
   12MOL0     H 1612   4.124  10.270  10.278 -1.5804  0.9626 -0.2977
   12MOL0     H 1613   4.159  10.142  10.397  2.2241  0.9510  1.3241
   12MOL0     H 1614   4.070  10.349  10.562 -0.7477  0.0945 -0.6949
   12MOL0     H 1615   4.188  10.430  10.457  0.9866 -0.2740 -1.7386
   12MOL0     H 1616   4.344  10.231  10.510 -0.8516 -1.5036 -0.6072
   12MOL0     H 1617   4.225  10.196  10.645 -1.9073 -0.1012 -1.1475
   12MOL0     H 1618   4.361  10.559  10.792  0.4833 -2.3172  2.9855
   12MOL0     H 1619   3.696  10.186  10.338  0.2274 -0.5512 -0.2525
   12MOL0     H 1620   3.470  10.155  10.413 -0.7773 -0.2917 -0.7340
   13MOL0     O 1621   7.898   2.040   3.411 -0.5008 -0.3219  0.3272
   13MOL0     C 1622   7.963   2.045   3.307 -1.2768 -0.4118 -0.8348
   13MOL0     O 1623   7.912   2.069   3.186 -0.5087  0.3282 -0.0421
   13MOL0     C 1624   7.793   2.126   3.159  1.1419  0.1982 -0.1853
   13MOL0     C 1625   7.684   2.050   3.110 -1.1741  0.3305 -1.0871
   13MOL0     C 1626   7.560   2.108   3.092  0.0110 -0.0257  0.1127
   13MOL0     C 1627   7.542   2.246   3.097  0.8804  0.1399  0.6539
   13MOL0     O 1628   7.423   2.312   3.083  0.6221  0.3268  0.3845
   13MOL0     C 1629   7.301   2.228   3.086  0.0450  0.1736  0.0937
   13MOL0     C 1630   7.182   2.327   3.061 -0.1118  0.7378 -0.1924
   13MOL0     C 1631   7.048   2.240   3.035  0.2544 -0.1153  0.0337
   13MOL0     C 1632   6.943   2.331   2.975  0.4946 -0.4699 -0.4221
   13MOL0     C 1633   6.800   2.261   2.949 -0.7503 -0.5766 -0.0986
   13MOL0     C 1634   6.724   2.276   3.080 -0.4942 -0.5105 -0.8490
   13MOL0     C 1635   6.584   2.222   3.061  0.1100  0.3049  0.8732
   13MOL0     C 1636   6.502   2.317   2.977  0.9705  0.2542 -0.2104
   13MOL0     N 1637   6.363   2.312   3.006  0.4890  0.5405  0.2689
   13MOL0     C 1638   6.303   2.355   3.122  0.3974  0.2843  0.0902
   13MOL0     C 1639   6.178   2.301   3.124  0.0977 -0.8436 -0.2894
   13MOL0     C 1640   6.079   2.310   3.237  0.4933  0.4578 -0.4488
   13MOL0     C 1641   6.139   2.258   3.369 -0.3181 -0.0826 -0.4570
   13MOL0     C 1642   6.080   2.335   3.498 -0.4932 -0.0314  0.5844
   13MOL0     C 1643   5.928   2.326   3.520  0.2237 -0.4451 -0.6540
   13MOL0     O 1644   5.891   2.452   3.575  0.8083 -0.0078  0.3131
   13MOL0     C 1645   5.754   2.470   3.582 -0.0974  0.3844 -0.4374
   13MOL0     C 1646   5.690   2.519   3.471  0.4907  0.0576  0.2664
   13MOL0     C 1647   5.549   2.546   3.468 -0.2049 -0.3130 -0.3423
   13MOL0     C 1648   5.480   2.603   3.343 -0.2733 -0.7538 -0.2869
   13MOL0     C 1649   5.477   2.533   3.590  0.3470  0.6399  0.0422
   13MOL0     C 1650   5.336   2.553   3.607 -0.5158 -0.4031  0.9440
   13MOL0     O 1651   5.300   2.590   3.738 -0.0993  0.6662 -0.4680
   13MOL0     C 1652   5.169   2.610   3.771 -0.7769 -0.4390  0.5922
   13MOL0     C 1653   5.123   2.743   3.775  0.2097 -0.0769 -0.2124
   13MOL0     C 1654   4.996   2.776   3.814 -0.4312 -0.6559 -0.1418
   13MOL0     C 1655   4.898   2.679   3.844  0.1044  0.3022  0.2355
   13MOL0     O 1656   4.772   2.707   3.890  0.6351 -0.4289  0.3769
   13MOL0     C 1657   4.692   2.801   3.823  0.4152 -0.0758  0.6712
   13MOL0     C 1658   4.553   2.808   3.890  0.4126  0.3411 -0.3166
   13MOL0     C 1659   4.487   2.674   3.900 -0.4650  0.3095  0.0073
   13MOL0     C 1660   4.332   2.689   3.911  1.2054 -0.4413 -0.4516
   13MOL0     C 1661   4.269   2.544   3.926  0.5762 -0.5879  0.0737
   13MOL0     C 1662   4.117   2.553   3.928 -0.3115  0.3649 -0.6120
   13MOL0     C 1663   4.061   2.426   3.861  0.6437  0.1643 -0.0028
   13MOL0     C 1664   3.913   2.451   3.814  0.0425  1.0430 -0.4573
   13MOL0    Cl 1665   3.812   2.486   3.960  0.1294  0.6679 -0.0826
   13MOL0     C 1666   4.939   2.543   3.836  0.0416  0.5457  0.0486
   13MOL0     C 1667   5.074   2.512   3.795 -0.3380  0.2790 -0.1001
   13MOL0     O 1668   5.253   2.546   3.514  0.6968 -0.2071 -0.5960
   13MOL0     C 1669   5.544   2.474   3.701 -0.3987 -1.0316  0.3725
   13MOL0     C 1670   5.681   2.459   3.698 -0.9760 -0.1794 -0.0569
   13MOL0     N 1671   6.154   2.236   3.002 -0.3111  0.7162 -0.0971
   13MOL0     N 1672   6.267   2.244   2.933  0.0513  0.1247  1.0082
   13MOL0     C 1673   7.651   2.319   3.144 -1.3305  0.1784 -0.0959
   13MOL0     C 1674   7.778   2.261   3.180  0.1828 -0.1323 -0.4371
   13MOL0     C 1675   8.106   2.013   3.329  0.5407  1.0674 -0.3323
   13MOL0     C 1676   8.186   1.997   3.212 -0.1526 -0.5109 -0.1311
   13MOL0     C 1677   8.326   1.975   3.236 -0.1407 -0.1092  0.5751
   13MOL0     C 1678   8.386   1.964   3.364 -0.0096  0.8686  1.4763
   13MOL0     O 1679   8.526   1.947   3.392  0.2543 -0.8808  0.0954
   13MOL0     C 1680   8.622   1.966   3.281  0.1152 -0.1280 -0.2908
   13MOL0     C 1681   8.755   1.930   3.329 -0.7268  0.3795 -0.1747
   13MOL0     C 1682   8.884   1.967   3.252  0.7802  0.1794  0.1865
   13MOL0     C 1683   9.010   1.974   3.328 -0.4608  0.1027 -0.3648
   13MOL0     C 1684   9.126   2.038   3.245  0.8875  0.9702 -0.3513
   13MOL0     C 1685   9.204   2.105   3.183 -0.2462 -0.3922  0.6233
   13MOL0     C 1686   8.299   1.965   3.471  0.2832  0.6319  0.0219
   13MOL0     C 1687   8.160   1.992   3.455  0.2458  0.6937  0.2678
   13MOL0     H 1688   7.691   1.941   3.116  1.1592  0.4492 -0.7289
   13MOL0     H 1689   7.474   2.046   3.071 -1.7062  1.9597  0.8983
   13MOL0     H 1690   7.288   2.145   3.016 -0.8822  1.5637 -1.4529
   13MOL0     H 1691   7.286   2.184   3.185  1.3757 -0.9660 -0.1693
   13MOL0     H 1692   7.169   2.398   3.144  0.4251  1.6150 -0.8390
   13MOL0     H 1693   7.214   2.385   2.974  0.6656  1.5210  0.5979
   13MOL0     H 1694   7.065   2.158   2.965  0.4853  2.0119 -2.5755
   13MOL0     H 1695   7.014   2.197   3.130 -0.8929 -1.9593 -1.1400
   13MOL0     H 1696   6.940   2.424   3.032  1.4208  1.1408 -2.8923
   13MOL0     H 1697   6.985   2.339   2.875  2.2831  2.6493  0.4350
   13MOL0     H 1698   6.741   2.315   2.876  0.2145  1.0445  0.2615
   13MOL0     H 1699   6.800   2.157   2.914 -0.5099  0.0095 -1.9481
   13MOL0     H 1700   6.779   2.217   3.153 -0.7215  2.5888  2.0773
   13MOL0     H 1701   6.714   2.378   3.118  0.8596 -0.4729 -0.5462
   13MOL0     H 1702   6.585   2.123   3.014  1.5414  1.1626 -1.0417
   13MOL0     H 1703   6.544   2.209   3.162 -1.7325 -0.3279  0.1229
   13MOL0     H 1704   6.510   2.279   2.874 -0.8502  0.3168 -0.3941
   13MOL0     H 1705   6.535   2.421   2.986 -0.1907  0.7558 -1.3995
   13MOL0     H 1706   6.342   2.416   3.204 -0.3938  0.0629  0.6472
   13MOL0     H 1707   6.052   2.416   3.238 -2.2868 -0.1439 -2.1266
   13MOL0     H 1708   5.991   2.248   3.219 -0.2567  1.5058 -0.5027
   13MOL0     H 1709   6.247   2.276   3.367 -0.5001  1.0801 -2.6887
   13MOL0     H 1710   6.118   2.151   3.368 -0.4933 -0.0409 -1.0132
   13MOL0     H 1711   6.105   2.441   3.493  2.9498 -0.6835  1.3970
   13MOL0     H 1712   6.124   2.297   3.591  0.2879  1.8228  1.0264
   13MOL0     H 1713   5.888   2.238   3.571 -0.0160 -0.4581 -0.8602
   13MOL0     H 1714   5.880   2.327   3.421  0.1235 -3.0012 -0.6974
   13MOL0     H 1715   5.757   2.549   3.391  0.8903 -0.2373  0.4918
   13MOL0     H 1716   5.546   2.677   3.297 -2.5293  2.2414  0.9684
   13MOL0     H 1717   5.454   2.525   3.271  1.4011 -1.4778 -0.1613
   13MOL0     H 1718   5.390   2.661   3.366 -0.9465 -1.9300  0.1454
   13MOL0     H 1719   5.198   2.819   3.754 -0.2694  0.2908 -0.6321
   13MOL0     H 1720   4.960   2.877   3.834  0.5096  0.0559 -1.7900
   13MOL0     H 1721   4.733   2.902   3.808 -0.3416  0.3013  1.0444
   13MOL0     H 1722   4.670   2.774   3.720  0.3458  3.1186 -0.2796
   13MOL0     H 1723   4.557   2.841   3.994 -2.3502  0.4839 -0.1799
   13MOL0     H 1724   4.502   2.881   3.827  1.4501  1.9434  0.6389
   13MOL0     H 1725   4.525   2.622   3.988 -1.8462  0.1178  0.5180
   13MOL0     H 1726   4.513   2.616   3.811 -2.4216  1.2693 -1.2772
   13MOL0     H 1727   4.301   2.750   3.997 -0.0454  0.0769 -1.2407
   13MOL0     H 1728   4.291   2.733   3.820  1.8512  0.5650 -0.2664
   13MOL0     H 1729   4.299   2.510   4.026 -2.1416  3.5836  2.6099
   13MOL0     H 1730   4.301   2.479   3.845 -2.3555 -1.9316 -0.1244
   13MOL0     H 1731   4.089   2.561   4.033 -0.3736 -0.6888 -0.5421
   13MOL0     H 1732   4.086   2.640   3.869  1.6280  0.2828 -1.8293
   13MOL0     H 1733   4.058   2.343   3.932  1.2639 -0.1459 -0.3297
   13MOL0     H 1734   4.115   2.395   3.771  0.7857 -1.2043  0.5326
   13MOL0     H 1735   3.870   2.368   3.758  0.6397 -0.0059  0.5774
   13MOL0     H 1736   3.911   2.544   3.758  2.5374  1.9456  0.7788
   13MOL0     H 1737   4.866   2.464   3.848  0.6082 -1.1342 -5.0867
   13MOL0     H 1738   5.106   2.409   3.788 -1.1613 -0.0005  0.1073
   13MOL0     H 1739   5.493   2.449   3.793 -3.3369  0.2624 -0.7694
   13MOL0     H 1740   5.734   2.428   3.788  0.7800  0.8731 -0.6834
   13MOL0     H 1741   7.641   2.422   3.177 -1.5654 -0.6679  2.7354
   13MOL0     H 1742   7.861   2.321   3.215  1.8334 -1.7258 -1.4147
   13MOL0     H 1743   8.145   2.011   3.113 -2.8168  0.4310  1.0169
   13MOL0     H 1744   8.390   1.969   3.148 -1.8948 -1.5986 -0.6792
   13MOL0     H 1745   8.606   1.899   3.196 -0.3332  0.6366 -0.8221
   13MOL0     H 1746   8.617   2.069   3.246  1.8529 -0.8873 -3.1013
   13MOL0     H 1747   8.749   1.825   3.360 -0.7693  0.3740 -0.2025
   13MOL0     H 1748   8.763   1.971   3.430  0.5827  0.1622 -0.1667
   13MOL0     H 1749   8.867   2.068   3.213  0.0692  0.4333  1.1194
   13MOL0     H 1750   8.884   1.910   3.159 -2.3720  2.4853 -1.4315
   13MOL0     H 1751   9.048   1.875   3.354  3.4031  0.8802 -2.3322
   13MOL0     H 1752   8.990   2.039   3.414 -4.1024  1.1267 -1.7950
   13MOL0     H 1753   9.277   2.173   3.144  0.0237 -1.1210 -0.1738
   13MOL0     H 1754   8.338   1.948   3.571 -1.7061 -1.9869  0.4672
   13MOL0     H 1755   8.105   2.011   3.547 -0.7623 -1.6195  0.2024
   14MOL0     O 1756   5.159   5.394   5.938  0.1080 -0.0808  0.6632
   14MOL0     C 1757   5.248   5.328   5.886 -0.6993  0.7484  0.8416
   14MOL0     O 1758   5.226   5.220   5.809 -0.1022 -0.2624 -0.2028
   14MOL0     C 1759   5.102   5.167   5.801  0.0835 -0.1047  0.4519
   14MOL0     C 1760   5.018   5.141   5.910 -0.5411  0.2752 -0.1388
   14MOL0     C 1761   4.886   5.079   5.893  0.2533  0.2279 -0.0851
   14MOL0     C 1762   4.847   5.029   5.773 -0.8165  0.3719 -0.0202
   14MOL0     O 1763   4.726   4.976   5.744  0.0311 -0.2948  0.8415
   14MOL0     C 1764   4.642   4.929   5.845  0.2652 -0.2327  1.1284
   14MOL0     C 1765   4.542   4.847   5.776  0.0255 -0.3674  0.6810
   14MOL0     C 1766   4.435   4.950   5.711 -0.4315  1.0537 -0.2399
   14MOL0     C 1767   4.313   4.875   5.667 -0.3533 -0.3490  0.0968
   14MOL0     C 1768   4.241   4.948   5.550  0.2234 -0.0036  0.5511
   14MOL0     C 1769   4.094   4.920   5.553  0.8327  0.4528  0.0664
   14MOL0     C 1770   4.066   4.778   5.524 -0.7691  0.1917  0.3065
   14MOL0     C 1771   3.910   4.749   5.556 -0.6521 -0.8589  0.0308
   14MOL0     N 1772   3.873   4.609   5.539  0.1251  0.3380 -0.7066
   14MOL0     C 1773   3.914   4.524   5.437 -0.2415 -0.5738  0.2640
   14MOL0     C 1774   3.838   4.411   5.471  0.9649 -0.5092  0.8495
   14MOL0     C 1775   3.836   4.279   5.399 -1.1193  0.8367  0.5828
   14MOL0     C 1776   3.697   4.246   5.357 -0.1080  0.1041 -0.0644
   14MOL0     C 1777   3.678   4.117   5.263  0.7940 -1.1780  0.0305
   14MOL0     C 1778   3.531   4.090   5.230  1.0144 -0.2165 -0.1156
   14MOL0     O 1779   3.474   4.203   5.157  0.3307 -0.1491 -0.1363
   14MOL0     C 1780   3.345   4.240   5.203 -0.1356  0.1334 -0.0820
   14MOL0     C 1781   3.313   4.255   5.338  0.1520  0.1682  0.5803
   14MOL0     C 1782   3.184   4.286   5.375  0.2627  0.6252 -0.0927
   14MOL0     C 1783   3.158   4.329   5.520 -0.4051  0.7555  0.0642
   14MOL0     C 1784   3.079   4.289   5.283 -0.3209  0.7163  0.0600
   14MOL0     C 1785   2.941   4.323   5.327 -0.9588 -0.1090 -0.1978
   14MOL0     O 1786   2.892   4.444   5.276  0.1799 -0.3448 -1.0273
   14MOL0     C 1787   2.777   4.508   5.325 -0.1197  0.1774 -0.3375
   14MOL0     C 1788   2.783   4.634   5.388 -1.5496  0.6391  0.3439
   14MOL0     C 1789   2.677   4.692   5.458 -0.4065 -0.1156  0.1096
   14MOL0     C 1790   2.553   4.623   5.465  0.2347  0.5560 -0.7890
   14MOL0     O 1791   2.427   4.659   5.518 -0.0231  0.0039  0.0251
   14MOL0     C 1792   2.422   4.764   5.609 -0.5702 -0.1820 -0.3635
   14MOL0     C 1793   2.300   4.850   5.579 -0.3734 -0.2155 -0.5597
   14MOL0     C 1794   2.192   4.776   5.664  0.4902  0.8635  0.4423
   14MOL0     C 1795   2.053   4.838   5.631 -0.1767 -0.0062 -0.3190
   14MOL0     C 1796   1.950   4.799   5.737 -0.8776 -0.1453  0.3807
   14MOL0     C 1797   1.832   4.897   5.733 -0.0319  0.0800 -1.0654
   14MOL0     C 1798   1.716   4.836   5.817 -0.1155  0.4577  0.5787
   14MOL0     C 1799   1.585   4.923   5.812  0.1436  0.4339  0.2306
   14MOL0    Cl 1800   1.616   5.065   5.915  0.0874 -0.1619 -0.3525
   14MOL0     C 1801   2.542   4.506   5.393  0.0376 -0.6418 -0.4304
   14MOL0     C 1802   2.651   4.441   5.334 -0.7237 -0.6594  0.7922
   14MOL0     O 1803   2.887   4.248   5.408  0.4615  0.1108  0.8973
   14MOL0     C 1804   3.111   4.272   5.155  0.6908 -0.3399  0.1179
   14MOL0     C 1805   3.245   4.256   5.108  0.6963  0.9744 -0.1029
   14MOL0     N 1806   3.764   4.432   5.578  0.5163  0.4300 -0.4647
   14MOL0     N 1807   3.784   4.555   5.616 -1.1212 -0.1520 -0.6541
   14MOL0     C 1808   4.940   5.046   5.667 -0.1747  0.4986  0.0014
   14MOL0     C 1809   5.067   5.106   5.681 -0.2762 -0.0830 -0.8755
   14MOL0     C 1810   5.395   5.361   5.898 -0.2104 -0.6400  0.0804
   14MOL0     C 1811   5.499   5.267   5.883 -0.1836 -0.7231  0.1195
   14MOL0     C 1812   5.636   5.303   5.905 -0.1867 -1.0249 -0.1887
   14MOL0     C 1813   5.674   5.435   5.919  0.0463  0.9876 -0.9591
   14MOL0     O 1814   5.801   5.478   5.957  0.5551  0.6781 -0.7185
   14MOL0     C 1815   5.917   5.393   5.927  0.9562  0.4577  0.8526
   14MOL0     C 1816   6.043   5.462   5.965 -0.6611  0.7071 -0.0473
   14MOL0     C 1817   6.063   5.441   6.113 -0.1573 -0.8329  0.6114
   14MOL0     C 1818   6.207   5.468   6.167  0.2413  0.6838 -0.4934
   14MOL0     C 1819   6.261   5.603   6.149  0.2623  0.0058  0.8433
   14MOL0     C 1820   6.295   5.717   6.130  0.2789  0.7175  0.2914
   14MOL0     C 1821   5.571   5.527   5.927 -0.7095 -0.1297  0.2918
   14MOL0     C 1822   5.434   5.496   5.918 -0.8094 -1.2040  0.2950
   14MOL0     H 1823   5.038   5.176   6.011 -0.2803  2.0926 -0.7916
   14MOL0     H 1824   4.819   5.054   5.975  0.7030  1.7346  0.7764
   14MOL0     H 1825   4.705   4.873   5.915  1.8514 -0.7345 -0.6058
   14MOL0     H 1826   4.594   5.016   5.890  0.7516  0.2453  0.7257
   14MOL0     H 1827   4.575   4.782   5.694 -2.9475 -1.4418  0.2327
   14MOL0     H 1828   4.495   4.789   5.855  0.8022 -1.6192  0.2558
   14MOL0     H 1829   4.397   5.017   5.789  0.6952  0.5189  0.7948
   14MOL0     H 1830   4.474   5.004   5.624 -1.0139 -0.1979 -1.3093
   14MOL0     H 1831   4.347   4.778   5.629  1.6908  0.4089 -0.1017
   14MOL0     H 1832   4.259   4.847   5.758  0.3577  0.7644  0.8800
   14MOL0     H 1833   4.253   5.056   5.541 -2.3622  0.5724  2.8638
   14MOL0     H 1834   4.288   4.904   5.461  1.4100 -1.5785  1.8918
   14MOL0     H 1835   4.058   4.949   5.652  0.7061 -2.0634  0.8341
   14MOL0     H 1836   4.049   4.983   5.476 -0.4877  2.4968  2.3544
   14MOL0     H 1837   4.082   4.752   5.419  0.4142  3.5415 -0.4707
   14MOL0     H 1838   4.134   4.712   5.580 -0.3676  2.0832  2.1814
   14MOL0     H 1839   3.849   4.808   5.486  2.8177  3.0656 -0.1312
   14MOL0     H 1840   3.892   4.782   5.659  0.4737  1.2982 -0.3869
   14MOL0     H 1841   3.990   4.536   5.361 -1.5656 -0.9170 -1.1498
   14MOL0     H 1842   3.904   4.292   5.315  0.3564  1.7686  1.8571
   14MOL0     H 1843   3.875   4.205   5.470  1.2883  2.5529  1.1403
   14MOL0     H 1844   3.671   4.328   5.289  1.4659  0.2023 -0.5896
   14MOL0     H 1845   3.633   4.248   5.445  0.6249 -1.6440  0.5608
   14MOL0     H 1846   3.721   4.028   5.309 -0.0690 -1.0564  1.1180
   14MOL0     H 1847   3.732   4.134   5.169 -1.1996 -1.8822 -1.3080
   14MOL0     H 1848   3.476   4.065   5.322  1.1407 -0.9747 -0.2419
   14MOL0     H 1849   3.520   4.001   5.169  1.2094 -0.3542  0.0455
   14MOL0     H 1850   3.385   4.245   5.419 -1.5077  0.8016  2.2159
   14MOL0     H 1851   3.249   4.362   5.570 -0.1568  1.2934 -0.7229
   14MOL0     H 1852   3.085   4.411   5.524 -1.0044  0.4799 -2.7830
   14MOL0     H 1853   3.136   4.238   5.576  0.3748  1.1808  1.0894
   14MOL0     H 1854   2.875   4.688   5.409 -0.9938 -0.8798  2.1054
   14MOL0     H 1855   2.697   4.784   5.512  1.7713 -0.3692 -0.1670
   14MOL0     H 1856   2.437   4.720   5.709  1.0831 -1.5453 -1.1527
   14MOL0     H 1857   2.506   4.831   5.591  0.0415 -0.6226  0.7574
   14MOL0     H 1858   2.318   4.952   5.616 -0.3865  0.6585 -2.7977
   14MOL0     H 1859   2.269   4.859   5.475  1.0554  0.2030 -0.9722
   14MOL0     H 1860   2.220   4.795   5.767 -1.1387  1.7170  0.7626
   14MOL0     H 1861   2.189   4.667   5.657 -0.2756  0.9782 -2.3738
   14MOL0     H 1862   2.069   4.946   5.638 -0.6518  0.0342  0.2151
   14MOL0     H 1863   2.013   4.820   5.530 -0.4660  1.4857 -0.4978
   14MOL0     H 1864   2.007   4.812   5.830 -0.0521  1.4429 -0.3186
   14MOL0     H 1865   1.923   4.693   5.733  2.0613 -1.1264  2.6053
   14MOL0     H 1866   1.865   4.994   5.772  2.0809 -0.7425 -0.7247
   14MOL0     H 1867   1.789   4.913   5.633 -2.1586  1.0857 -0.0654
   14MOL0     H 1868   1.751   4.828   5.921  0.0261  5.0560  1.0807
   14MOL0     H 1869   1.697   4.731   5.792 -1.6589  0.4265  1.7478
   14MOL0     H 1870   1.505   4.863   5.855 -0.0358  1.7677  1.8693
   14MOL0     H 1871   1.572   4.962   5.711  4.1158  2.6575  0.3460
   14MOL0     H 1872   2.447   4.454   5.380  0.2845 -0.8871 -1.2865
   14MOL0     H 1873   2.640   4.340   5.296 -0.1355 -0.4457  0.0284
   14MOL0     H 1874   3.036   4.282   5.077  3.0312  0.7962 -2.1374
   14MOL0     H 1875   3.266   4.242   5.003  2.8335 -4.7729  0.7589
   14MOL0     H 1876   4.906   5.012   5.570 -1.5242  2.3113 -0.2035
   14MOL0     H 1877   5.135   5.102   5.597  0.4148  2.2223 -0.4859
   14MOL0     H 1878   5.479   5.161   5.870  1.3116 -0.8634 -1.4397
   14MOL0     H 1879   5.712   5.225   5.909  0.8123 -0.0455  0.9364
   14MOL0     H 1880   5.902   5.296   5.974  0.7472 -0.4503 -1.0148
   14MOL0     H 1881   5.924   5.378   5.819 -0.4080 -1.4048  0.9756
   14MOL0     H 1882   6.036   5.570   5.948 -0.4130  1.3551  3.2623
   14MOL0     H 1883   6.133   5.419   5.920 -0.0245 -0.3178  2.0652
   14MOL0     H 1884   6.031   5.342   6.146 -0.1813 -0.9094  0.3658
   14MOL0     H 1885   5.987   5.506   6.157  0.3525 -0.8923  1.6041
   14MOL0     H 1886   6.265   5.385   6.126  0.2373  0.6969 -0.5261
   14MOL0     H 1887   6.218   5.447   6.274 -2.4944 -1.1508 -0.4557
   14MOL0     H 1888   6.312   5.821   6.110  1.6849  0.5074  0.2759
   14MOL0     H 1889   5.591   5.633   5.936 -0.1931  0.2665 -3.8409
   14MOL0     H 1890   5.372   5.581   5.943 -0.9721 -1.3238  0.3027
   15MOL0     O 1891   6.016   3.401   3.239 -1.3631  0.5772  0.0740
   15MOL0     C 1892   6.068   3.512   3.209 -0.7624 -0.1512 -0.4035
   15MOL0     O 1893   5.998   3.629   3.204 -0.4730 -0.1250 -0.5936
   15MOL0     C 1894   5.876   3.632   3.263  0.2752  0.5690  0.2251
   15MOL0     C 1895   5.855   3.623   3.403 -0.2720  0.3617  0.3707
   15MOL0     C 1896   5.731   3.646   3.460  0.8146  0.8081 -0.4402
   15MOL0     C 1897   5.620   3.665   3.374 -0.1290 -0.3168  0.1676
   15MOL0     O 1898   5.500   3.696   3.424 -0.4532 -0.7338 -0.7768
   15MOL0     C 1899   5.445   3.625   3.536 -0.4235 -0.4212  0.1933
   15MOL0     C 1900   5.302   3.674   3.552 -0.7247 -0.4862  0.0182
   15MOL0     C 1901   5.239   3.637   3.689  0.2843 -0.2351  0.6567
   15MOL0     C 1902   5.084   3.664   3.683 -0.2131 -0.0650 -0.6881
   15MOL0     C 1903   5.021   3.614   3.817 -0.6034  0.9120 -0.0487
   15MOL0     C 1904   4.865   3.628   3.811  0.4702  0.6347 -0.0824
   15MOL0     C 1905   4.796   3.556   3.697  0.9059  0.2939 -0.2796
   15MOL0     C 1906   4.650   3.604   3.715 -0.5891  0.6108  0.1567
   15MOL0     N 1907   4.550   3.517   3.661  0.0148  0.9636 -0.1935
   15MOL0     C 1908   4.489   3.529   3.540 -0.4938 -0.4404 -0.1258
   15MOL0     C 1909   4.392   3.431   3.538  0.5541  0.2029 -0.5735
   15MOL0     C 1910   4.296   3.418   3.425  0.5513 -0.2156  0.3666
   15MOL0     C 1911   4.172   3.515   3.426  0.1139  0.5051  0.0305
   15MOL0     C 1912   4.087   3.499   3.552 -0.2594  0.4415  0.1708
   15MOL0     C 1913   3.943   3.542   3.529 -0.5100 -0.1256 -0.3073
   15MOL0     O 1914   3.879   3.430   3.466 -0.3763 -0.3809  0.2602
   15MOL0     C 1915   3.742   3.433   3.461 -0.1900  0.2588  0.1332
   15MOL0     C 1916   3.683   3.341   3.381  0.0118  0.0928  0.0548
   15MOL0     C 1917   3.548   3.326   3.386  1.3403 -0.7752 -0.0996
   15MOL0     C 1918   3.495   3.214   3.303  0.1407  0.0627  0.3632
   15MOL0     C 1919   3.457   3.421   3.444 -0.4219 -0.0037 -0.1221
   15MOL0     C 1920   3.306   3.402   3.449  0.2465 -0.1250  0.0753
   15MOL0     O 1921   3.246   3.286   3.403 -0.1237 -0.9099  0.4939
   15MOL0     C 1922   3.114   3.281   3.399  0.5775  0.1351  0.1940
   15MOL0     C 1923   3.065   3.161   3.452 -0.1491 -0.3184  0.0446
   15MOL0     C 1924   2.928   3.147   3.459 -0.6047 -0.1235 -0.3578
   15MOL0     C 1925   2.840   3.239   3.410 -0.7693  0.2581  0.4291
   15MOL0     O 1926   2.703   3.218   3.420  0.4395  0.3175 -0.2001
   15MOL0     C 1927   2.641   3.256   3.550 -0.2059  1.2259  0.1361
   15MOL0     C 1928   2.491   3.288   3.532  0.4004  0.0120 -0.7454
   15MOL0     C 1929   2.462   3.404   3.422  0.4364  0.2372 -0.2574
   15MOL0     C 1930   2.311   3.435   3.401  0.1217  0.5230 -0.2943
   15MOL0     C 1931   2.293   3.567   3.326  0.4469 -0.6141  0.4328
   15MOL0     C 1932   2.352   3.589   3.183 -0.1302  1.1070 -0.8153
   15MOL0     C 1933   2.317   3.463   3.101 -0.3161 -0.0009  0.1769
   15MOL0     C 1934   2.331   3.484   2.946 -0.2371 -0.0927 -1.0036
   15MOL0    Cl 1935   2.214   3.613   2.883 -0.2495  0.3990  0.0348
   15MOL0     C 1936   2.888   3.349   3.351 -0.6108  0.2223  0.0419
   15MOL0     C 1937   3.022   3.377   3.343 -0.0588  0.3104  0.1873
   15MOL0     O 1938   3.246   3.499   3.502  0.1729  0.0085 -0.2864
   15MOL0     C 1939   3.524   3.535   3.496 -0.7062  0.2404 -0.6758
   15MOL0     C 1940   3.661   3.534   3.518 -0.0701  0.7026 -0.3813
   15MOL0     N 1941   4.403   3.352   3.655 -0.9886 -0.5608  0.1101
   15MOL0     N 1942   4.498   3.404   3.723 -1.0246 -0.4865 -0.2476
   15MOL0     C 1943   5.641   3.675   3.233 -0.4316 -0.4038 -0.0383
   15MOL0     C 1944   5.769   3.665   3.173 -0.0900  0.3923 -0.4408
   15MOL0     C 1945   6.212   3.524   3.175  0.2733  0.7092  0.1354
   15MOL0     C 1946   6.259   3.652   3.134  0.5188  0.3263 -0.9010
   15MOL0     C 1947   6.392   3.669   3.099 -0.2064 -0.6668  0.4595
   15MOL0     C 1948   6.482   3.563   3.100  0.8243 -0.8739 -0.2610
   15MOL0     O 1949   6.609   3.585   3.060 -0.7094  0.1760 -0.5220
   15MOL0     C 1950   6.712   3.602   3.155 -0.0158 -0.0775  0.2427
   15MOL0     C 1951   6.826   3.516   3.110 -0.6831 -0.5912 -0.1412
   15MOL0     C 1952   6.888   3.566   2.982 -0.3390  0.7606  0.2466
   15MOL0     C 1953   7.013   3.492   2.928 -0.5513  0.1501 -0.3153
   15MOL0     C 1954   7.127   3.495   3.013 -0.0119 -0.3399  0.5193
   15MOL0     C 1955   7.223   3.483   3.081  0.0322  0.2672 -0.2646
   15MOL0     C 1956   6.442   3.439   3.130  0.4242  0.3551  0.3160
   15MOL0     C 1957   6.311   3.413   3.172  0.7790 -0.0112 -0.3634
   15MOL0     H 1958   5.945   3.605   3.460  0.0315  2.2526  0.5639
   15MOL0     H 1959   5.712   3.647   3.566  1.4912  1.0074 -0.3113
   15MOL0     H 1960   5.437   3.517   3.521 -0.6534 -0.4159  0.2772
   15MOL0     H 1961   5.499   3.642   3.630  0.8521 -1.1534 -0.3817
   15MOL0     H 1962   5.302   3.783   3.545 -1.7547 -0.5814 -2.5593
   15MOL0     H 1963   5.241   3.634   3.471  3.7495 -3.0815 -2.4892
   15MOL0     H 1964   5.251   3.529   3.701 -1.5773 -0.5203  0.2861
   15MOL0     H 1965   5.295   3.693   3.764  3.6743  0.9494 -2.4546
   15MOL0     H 1966   5.059   3.769   3.669 -1.1259 -0.0991  0.5503
   15MOL0     H 1967   5.037   3.610   3.600  1.7583 -2.2975 -0.4593
   15MOL0     H 1968   5.048   3.509   3.833 -2.2281  0.3876 -0.4675
   15MOL0     H 1969   5.054   3.673   3.902  0.5941  1.4769 -0.8848
   15MOL0     H 1970   4.823   3.585   3.902 -5.0810  0.2012 -2.4662
   15MOL0     H 1971   4.830   3.731   3.811  0.4140  0.6160 -0.2583
   15MOL0     H 1972   4.819   3.586   3.594  0.9181 -0.7583 -0.5892
   15MOL0     H 1973   4.805   3.448   3.708  0.7194  0.3059 -0.0182
   15MOL0     H 1974   4.648   3.700   3.662  0.3650 -0.1902 -1.3873
   15MOL0     H 1975   4.624   3.623   3.820 -2.7338  0.6446 -0.3271
   15MOL0     H 1976   4.489   3.609   3.467 -0.3672  1.7289  2.1311
   15MOL0     H 1977   4.346   3.432   3.329 -1.5215  2.8547 -0.4152
   15MOL0     H 1978   4.248   3.320   3.426 -3.1230  1.3853 -0.1424
   15MOL0     H 1979   4.106   3.496   3.341 -0.2868 -2.0006  0.8202
   15MOL0     H 1980   4.218   3.614   3.418  0.9436  0.1138 -0.1372
   15MOL0     H 1981   4.132   3.567   3.624  0.7326  0.2819 -0.2789
   15MOL0     H 1982   4.090   3.400   3.599 -2.1330  0.9084  1.3936
   15MOL0     H 1983   3.942   3.636   3.474  2.4203  0.1044 -0.1175
   15MOL0     H 1984   3.905   3.550   3.631  0.2147  1.2894 -0.1157
   15MOL0     H 1985   3.758   3.281   3.330 -0.2852 -1.4264  1.3365
   15MOL0     H 1986   3.415   3.251   3.238  0.6411  3.3767  1.4341
   15MOL0     H 1987   3.565   3.165   3.235  1.3512  1.0223  0.8952
   15MOL0     H 1988   3.459   3.128   3.361 -0.2504  0.2110  0.3467
   15MOL0     H 1989   3.138   3.088   3.484 -1.2990 -0.4870  2.4695
   15MOL0     H 1990   2.885   3.063   3.512 -0.0528 -0.0571  0.2053
   15MOL0     H 1991   2.658   3.171   3.617 -2.5681  0.4153 -0.1987
   15MOL0     H 1992   2.699   3.345   3.576  0.5100  1.1150 -1.0050
   15MOL0     H 1993   2.432   3.200   3.504 -1.9583  0.9650  0.8983
   15MOL0     H 1994   2.445   3.315   3.627 -1.6544 -1.7229 -1.1595
   15MOL0     H 1995   2.502   3.368   3.327 -1.3281  1.5459 -1.5559
   15MOL0     H 1996   2.513   3.493   3.460  0.6981 -0.5386  1.2888
   15MOL0     H 1997   2.266   3.349   3.351  2.4411 -1.7753  1.3076
   15MOL0     H 1998   2.267   3.446   3.501  0.8538  0.9630 -0.0126
   15MOL0     H 1999   2.342   3.642   3.389  1.4051  0.1352 -1.1200
   15MOL0     H 2000   2.191   3.606   3.322  0.7013 -0.0083 -1.0634
   15MOL0     H 2001   2.299   3.675   3.142 -0.2697  1.6603  0.4735
   15MOL0     H 2002   2.461   3.599   3.184 -0.1217  1.0379 -0.0423
   15MOL0     H 2003   2.217   3.424   3.121 -0.0739 -1.9032 -1.8989
   15MOL0     H 2004   2.382   3.383   3.136  1.0247  1.2514  0.6590
   15MOL0     H 2005   2.308   3.399   2.881 -2.9642  0.2377 -0.5714
   15MOL0     H 2006   2.432   3.515   2.917 -0.7015  2.4074 -0.2161
   15MOL0     H 2007   2.820   3.422   3.306  0.1079  1.8424  1.4820
   15MOL0     H 2008   3.059   3.468   3.297  0.3209  0.5495  0.9377
   15MOL0     H 2009   3.464   3.619   3.529  0.3580  0.3082  1.2560
   15MOL0     H 2010   3.703   3.620   3.568 -0.7792 -0.3969  2.2757
   15MOL0     H 2011   5.552   3.692   3.174  0.3625  4.1978 -0.2238
   15MOL0     H 2012   5.782   3.673   3.065 -4.7106  0.2847 -1.2323
   15MOL0     H 2013   6.192   3.736   3.147 -1.5402 -1.3813  0.1256
   15MOL0     H 2014   6.444   3.764   3.087 -1.0412 -0.2054  0.4277
   15MOL0     H 2015   6.741   3.707   3.170 -1.2846  0.5457 -1.3578
   15MOL0     H 2016   6.683   3.564   3.253  1.0186  0.0943  0.6301
   15MOL0     H 2017   6.788   3.415   3.092 -2.8841  0.3889 -1.3312
   15MOL0     H 2018   6.896   3.510   3.194 -0.6224  3.2574  0.2494
   15MOL0     H 2019   6.909   3.672   2.999  0.8429  0.7511 -1.0251
   15MOL0     H 2020   6.819   3.554   2.898  1.9335 -1.4297 -1.4606
   15MOL0     H 2021   7.050   3.533   2.834 -0.6526 -0.6491 -0.7191
   15MOL0     H 2022   6.990   3.388   2.903 -0.4069 -0.0687  0.4276
   15MOL0     H 2023   7.310   3.471   3.142 -1.3642 -3.1910  1.3497
   15MOL0     H 2024   6.507   3.355   3.108 -0.6402 -0.0844 -1.2441
   15MOL0     H 2025   6.282   3.311   3.194  1.1697  0.1197  0.8205
   16MOL0     O 2026   9.751   1.452   4.065  0.2181 -0.4848  0.0332
   16MOL0     C 2027   9.732   1.384   4.166  1.2201  0.3467  1.0823
   16MOL0     O 2028   9.611   1.326   4.200 -0.0351 -0.3562 -0.3568
   16MOL0     C 2029   9.509   1.336   4.111  0.0268 -0.1747  0.6399
   16MOL0     C 2030   9.498   1.246   4.005  0.5789 -0.9085  0.3515
   16MOL0     C 2031   9.397   1.277   3.906 -0.0684 -0.1935  0.2274
   16MOL0     C 2032   9.303   1.387   3.921 -0.2475 -0.0809  0.1070
   16MOL0     O 2033   9.207   1.407   3.825  0.1152  0.1325  0.2707
   16MOL0     C 2034   9.103   1.495   3.854  0.1194 -0.9412 -0.3077
   16MOL0     C 2035   9.002   1.494   3.735 -0.8617  0.0533 -0.1405
   16MOL0     C 2036   8.881   1.559   3.783 -0.1873 -0.6061 -0.1341
   16MOL0     C 2037   8.817   1.641   3.660  0.0638 -0.0701 -0.6087
   16MOL0     C 2038   8.690   1.718   3.691 -0.5674  0.0480  0.1773
   16MOL0     C 2039   8.579   1.624   3.708 -0.1157  0.0042  0.3035
   16MOL0     C 2040   8.444   1.694   3.716  0.0040  0.4459  0.8020
   16MOL0     C 2041   8.321   1.598   3.734 -0.3214  0.0817 -0.5577
   16MOL0     N 2042   8.189   1.667   3.721  0.2080 -0.4460 -0.3330
   16MOL0     C 2043   8.150   1.755   3.817  0.8418  0.5329  0.0419
   16MOL0     C 2044   8.036   1.809   3.761 -0.3442  0.4100  0.1011
   16MOL0     C 2045   7.946   1.915   3.815  0.0934 -0.7896  0.0779
   16MOL0     C 2046   7.878   1.878   3.946 -0.2635  0.6773 -0.3121
   16MOL0     C 2047   7.775   1.986   3.970 -0.0466 -0.3309 -1.0529
   16MOL0     C 2048   7.638   1.991   3.906 -0.2282 -0.2944 -0.8348
   16MOL0     O 2049   7.547   1.893   3.950  0.0776 -0.4361  0.2247
   16MOL0     C 2050   7.408   1.900   3.924 -0.6458 -0.2550  0.9289
   16MOL0     C 2051   7.336   1.994   3.849 -0.1095  0.9336  0.4644
   16MOL0     C 2052   7.194   1.984   3.844 -0.4002 -0.3556 -0.2418
   16MOL0     C 2053   7.134   2.086   3.749 -1.2600 -0.1559  0.0481
   16MOL0     C 2054   7.129   1.882   3.919  0.5783  0.2508 -0.1430
   16MOL0     C 2055   6.980   1.864   3.908 -0.8217  0.1498 -0.2617
   16MOL0     O 2056   6.937   1.773   3.989  0.9214  0.2081 -0.5655
   16MOL0     C 2057   6.805   1.765   4.016  0.6305 -0.1858 -0.6420
   16MOL0     C 2058   6.770   1.789   4.151  0.5127  0.5975  0.8596
   16MOL0     C 2059   6.643   1.788   4.199  0.1263 -0.3686  0.8821
   16MOL0     C 2060   6.540   1.762   4.108  0.6848  0.0516 -0.5620
   16MOL0     O 2061   6.412   1.776   4.167 -0.5712  0.2907  0.2235
   16MOL0     C 2062   6.298   1.711   4.101  0.0088  0.6753 -0.0258
   16MOL0     C 2063   6.165   1.736   4.183 -0.5481 -0.0076  0.3050
   16MOL0     C 2064   6.046   1.734   4.093 -0.0270  0.2775  0.8950
   16MOL0     C 2065   5.919   1.763   4.175  0.6179 -0.2587  0.5310
   16MOL0     C 2066   5.789   1.760   4.109 -1.0712 -0.1036  0.6794
   16MOL0     C 2067   5.680   1.798   4.212 -0.0733 -0.3338  0.2133
   16MOL0     C 2068   5.548   1.812   4.142 -0.4994 -0.8754  0.1107
   16MOL0     C 2069   5.446   1.882   4.229 -0.5888 -0.7780 -0.2308
   16MOL0    Cl 2070   5.380   1.778   4.361  0.1785 -0.5143  0.1266
   16MOL0     C 2071   6.567   1.730   3.974 -0.4450  0.5839 -0.3677
   16MOL0     C 2072   6.695   1.728   3.924 -0.8321  0.3216  0.8154
   16MOL0     O 2073   6.910   1.924   3.829 -0.3754  0.1078 -0.2108
   16MOL0     C 2074   7.203   1.796   4.004  0.5703  0.0419  0.4603
   16MOL0     C 2075   7.340   1.811   3.996 -0.1846 -0.1919 -0.8689
   16MOL0     N 2076   8.015   1.749   3.633 -0.4219  0.4775  0.2253
   16MOL0     N 2077   8.110   1.666   3.612  0.4346  0.4004 -0.0142
   16MOL0     C 2078   9.321   1.468   4.036 -0.4770  0.1569 -0.0095
   16MOL0     C 2079   9.427   1.445   4.124 -0.2187 -0.5800  0.2512
   16MOL0     C 2080   9.851   1.366   4.250 -0.2636  0.2144  0.0367
   16MOL0     C 2081   9.979   1.422   4.213 -0.1253  0.6607 -0.1134
   16MOL0     C 2082  10.088   1.408   4.299  0.2332 -0.0068 -0.6957
   16MOL0     C 2083  10.076   1.336   4.423 -0.0778  0.3573  0.4054
   16MOL0     O 2084  10.194   1.334   4.502  0.4246  0.5762  0.8621
   16MOL0     C 2085  10.183   1.273   4.636  0.1655  0.9411 -0.1280
   16MOL0     C 2086  10.323   1.286   4.704 -0.4425  0.7559  0.1874
   16MOL0     C 2087  10.331   1.203   4.828 -0.2898 -0.0169 -0.2028
   16MOL0     C 2088  10.377   1.281   4.950 -0.2956 -0.1764  0.2163
   16MOL0     C 2089  10.392   1.198   5.068  0.4917  0.8134 -0.3442
   16MOL0     C 2090  10.387   1.120   5.168  0.2896 -0.1164 -0.0386
   16MOL0     C 2091   9.949   1.287   4.455 -0.2829 -0.0930  0.1424
   16MOL0     C 2092   9.843   1.291   4.366  0.3787  1.2940 -0.1631
   16MOL0     H 2093   9.579   1.179   3.978  1.1782 -0.0871  0.0602
   16MOL0     H 2094   9.372   1.213   3.822  0.5144 -0.2983  0.1261
   16MOL0     H 2095   9.067   1.457   3.950  2.4524  1.3719  1.6376
   16MOL0     H 2096   9.131   1.599   3.868 -1.6746 -0.5460  0.6952
   16MOL0     H 2097   9.050   1.547   3.652 -0.1297  0.5258  0.5725
   16MOL0     H 2098   8.965   1.397   3.700 -0.5940 -0.8323  1.8968
   16MOL0     H 2099   8.814   1.481   3.822 -0.0880 -0.1242  1.0594
   16MOL0     H 2100   8.902   1.628   3.865 -0.5860 -1.6423  0.8670
   16MOL0     H 2101   8.893   1.716   3.634 -1.2497  1.2646 -0.7309
   16MOL0     H 2102   8.800   1.571   3.577  0.5618  1.0580 -1.6933
   16MOL0     H 2103   8.691   1.772   3.786 -0.5610  0.9568 -0.3291
   16MOL0     H 2104   8.670   1.785   3.608 -3.2441  2.9817  2.9090
   16MOL0     H 2105   8.577   1.554   3.624  2.0056  0.5098 -0.2195
   16MOL0     H 2106   8.599   1.581   3.806 -1.6304 -1.0202  0.1953
   16MOL0     H 2107   8.446   1.756   3.807 -0.0744  1.0504  0.3978
   16MOL0     H 2108   8.425   1.755   3.627 -0.0563 -1.8701 -0.8569
   16MOL0     H 2109   8.328   1.551   3.832  0.0545  0.7287 -0.2707
   16MOL0     H 2110   8.321   1.519   3.657 -2.2494 -0.0342 -0.4968
   16MOL0     H 2111   8.193   1.785   3.912  1.2424  0.4163 -0.1020
   16MOL0     H 2112   8.000   2.009   3.826  0.1752 -0.9260  0.9671
   16MOL0     H 2113   7.876   1.951   3.739  1.6585 -0.3667 -1.2200
   16MOL0     H 2114   7.947   1.872   4.030  1.1233 -0.8594 -1.5033
   16MOL0     H 2115   7.820   1.785   3.936  2.0049 -0.7317 -1.0437
   16MOL0     H 2116   7.822   2.085   3.961  1.4271 -0.8659  0.2212
   16MOL0     H 2117   7.754   1.979   4.077 -0.2830 -2.0508 -1.1934
   16MOL0     H 2118   7.636   1.983   3.797 -4.5279  1.1001 -1.0501
   16MOL0     H 2119   7.596   2.089   3.929  1.1284  0.0512  0.3943
   16MOL0     H 2120   7.400   2.058   3.789  0.4798 -0.0446  0.0375
   16MOL0     H 2121   7.209   2.156   3.712 -1.3417  1.4246  2.5941
   16MOL0     H 2122   7.098   2.034   3.660 -0.6388 -2.3202  0.9895
   16MOL0     H 2123   7.060   2.146   3.802 -0.0343  1.9394 -0.4962
   16MOL0     H 2124   6.851   1.826   4.213  1.0606 -1.0568  1.1750
   16MOL0     H 2125   6.627   1.818   4.302 -2.1853  3.4227 -0.3709
   16MOL0     H 2126   6.286   1.748   3.999 -0.4032  2.9373  0.7930
   16MOL0     H 2127   6.310   1.602   4.111 -1.1330  0.6315  1.1715
   16MOL0     H 2128   6.153   1.656   4.257 -0.4284 -1.1120 -0.8272
   16MOL0     H 2129   6.170   1.831   4.237 -0.6180  0.1726  0.0003
   16MOL0     H 2130   6.047   1.637   4.042 -0.9499  0.2399  0.9369
   16MOL0     H 2131   6.045   1.815   4.020  0.5744 -0.4122  0.0959
   16MOL0     H 2132   5.907   1.688   4.254  1.2733 -0.1863  0.7081
   16MOL0     H 2133   5.929   1.854   4.236 -4.0075  0.3810  0.7316
   16MOL0     H 2134   5.778   1.655   4.078  4.9650 -0.6120 -0.9241
   16MOL0     H 2135   5.796   1.828   4.023  2.1488 -1.7120 -0.5072
   16MOL0     H 2136   5.680   1.718   4.286  2.6389  1.1814  1.9977
   16MOL0     H 2137   5.705   1.892   4.263  2.4563  0.0693 -1.5971
   16MOL0     H 2138   5.504   1.717   4.112 -0.8410  0.3773 -3.9921
   16MOL0     H 2139   5.561   1.865   4.047  1.0004 -2.2193 -0.4795
   16MOL0     H 2140   5.362   1.919   4.169 -0.9557 -0.5878  0.3946
   16MOL0     H 2141   5.489   1.972   4.273 -1.1971 -0.1587 -0.8672
   16MOL0     H 2142   6.505   1.708   3.888  1.5383 -1.0564 -1.4858
   16MOL0     H 2143   6.719   1.694   3.823 -1.5091  0.8790  0.4592
   16MOL0     H 2144   7.162   1.719   4.068  1.0962 -2.3272 -1.8971
   16MOL0     H 2145   7.397   1.741   4.057 -2.0910 -0.3001  0.9335
   16MOL0     H 2146   9.278   1.567   4.052  0.4789  0.0671  4.0290
   16MOL0     H 2147   9.442   1.517   4.203 -5.8376 -2.3717  3.5827
   16MOL0     H 2148   9.985   1.487   4.127 -1.0015  1.3092  0.3102
   16MOL0     H 2149  10.184   1.449   4.271 -0.4165  0.9943 -1.5466
   16MOL0     H 2150  10.117   1.340   4.693  2.6229  4.1774 -0.7808
   16MOL0     H 2151  10.147   1.170   4.628 -0.2299  0.8813  1.8075
   16MOL0     H 2152  10.342   1.391   4.730 -0.5209  0.6570  0.6527
   16MOL0     H 2153  10.403   1.258   4.635 -0.1508  0.1103  0.7798
   16MOL0     H 2154  10.393   1.113   4.818 -1.8223 -0.9228 -2.4470
   16MOL0     H 2155  10.234   1.160   4.855  0.6402 -0.2237  3.3338
   16MOL0     H 2156  10.311   1.362   4.980  1.2876  2.0820 -1.9594
   16MOL0     H 2157  10.470   1.330   4.919  0.7305 -1.8336  0.4952
   16MOL0     H 2158  10.379   1.053   5.251 -0.9392 -0.5100 -0.4538
   16MOL0     H 2159   9.939   1.222   4.541 -0.0479 -0.2802  0.0334
   16MOL0     H 2160   9.758   1.229   4.393  2.6189 -1.4788  1.1188
   17MOL0     O 2161  11.277  11.272   8.054 -0.1849 -0.0020 -1.0864
   17MOL0     C 2162  11.319  11.166   8.008  0.6358  0.2700  0.2428
   17MOL0     O 2163  11.242  11.082   7.938  0.2941  0.6536 -0.7154
   17MOL0     C 2164  11.107  11.111   7.922  0.7062  0.8443  0.0888
   17MOL0     C 2165  11.015  11.145   8.025  0.2340 -0.4006 -0.6615
   17MOL0     C 2166  10.879  11.160   7.996  0.6019  1.0004 -0.0312
   17MOL0     C 2167  10.834  11.168   7.867 -0.0422 -0.0337 -0.3077
   17MOL0     O 2168  10.708  11.201   7.819  0.0830  0.4928 -0.6078
   17MOL0     C 2169  10.622  11.243   7.927 -0.3013 -0.3205  0.2311
   17MOL0     C 2170  10.479  11.285   7.867  0.1574 -0.1908 -0.2271
   17MOL0     C 2171  10.388  11.324   7.983  0.2599 -0.5104  0.6442
   17MOL0     C 2172  10.240  11.337   7.948  0.0541  0.0664 -0.0111
   17MOL0     C 2173  10.172  11.201   7.929 -0.3365 -0.0380 -0.1742
   17MOL0     C 2174  10.026  11.226   7.911  0.4664 -0.4606 -1.1995
   17MOL0     C 2175   9.965  11.270   8.053  0.7800 -0.2522  0.4082
   17MOL0     C 2176   9.899  11.156   8.125  0.5585  0.0133 -0.8663
   17MOL0     N 2177   9.773  11.107   8.073 -0.0420 -0.1754  0.7567
   17MOL0     C 2178   9.761  10.981   8.008 -0.7948 -0.4403  0.0722
   17MOL0     C 2179   9.635  10.980   7.966 -0.1530  1.2857  0.6459
   17MOL0     C 2180   9.566  10.863   7.909 -0.3004 -0.0606  0.8722
   17MOL0     C 2181   9.420  10.892   7.851  0.3833 -0.1929 -0.6145
   17MOL0     C 2182   9.364  10.752   7.809  0.4697  0.9051  0.7618
   17MOL0     C 2183   9.225  10.772   7.750 -0.5865 -0.0254 -0.9998
   17MOL0     O 2184   9.134  10.793   7.863  0.2639 -0.2807  0.1513
   17MOL0     C 2185   9.000  10.780   7.830 -0.3867  0.9031 -0.3277
   17MOL0     C 2186   8.943  10.726   7.713  1.0005  0.8861 -0.3873
   17MOL0     C 2187   8.802  10.722   7.687  0.5653 -0.2790 -0.7188
   17MOL0     C 2188   8.760  10.650   7.564  0.3904  0.0841  0.3475
   17MOL0     C 2189   8.715  10.789   7.777 -0.9827  0.1491 -0.0436
   17MOL0     C 2190   8.565  10.796   7.770  0.3451 -0.3374 -0.2765
   17MOL0     O 2191   8.496  10.787   7.889  0.0529  0.7264  0.7694
   17MOL0     C 2192   8.363  10.810   7.892 -0.1718 -0.0425 -0.6643
   17MOL0     C 2193   8.267  10.786   7.784 -0.2516 -0.1031  0.2206
   17MOL0     C 2194   8.131  10.799   7.819  0.4743  0.0881  0.4763
   17MOL0     C 2195   8.085  10.844   7.944 -0.2348  0.0142 -0.3094
   17MOL0     O 2196   7.950  10.866   7.960 -0.4360 -0.0513 -0.1618
   17MOL0     C 2197   7.881  10.823   8.075  0.2070  0.0615 -0.1085
   17MOL0     C 2198   7.749  10.754   8.032  0.6543  0.5481 -0.6805
   17MOL0     C 2199   7.639  10.838   7.987  0.3246 -0.5770  0.3075
   17MOL0     C 2200   7.530  10.766   7.895 -0.1532  0.4649 -0.0258
   17MOL0     C 2201   7.408  10.854   7.901  0.1256  0.2377 -0.0793
   17MOL0     C 2202   7.279  10.800   7.828 -0.0099 -0.1923 -0.1964
   17MOL0     C 2203   7.168  10.913   7.830  0.0801  0.2491  0.4009
   17MOL0     C 2204   7.030  10.855   7.837  0.5067  0.4556  0.3442
   17MOL0    Cl 2205   6.997  10.728   7.711  0.1301 -0.2422 -0.3173
   17MOL0     C 2206   8.181  10.872   8.052  0.9050  0.2569 -0.0559
   17MOL0     C 2207   8.318  10.857   8.021  0.3829  0.3991  0.6673
   17MOL0     O 2208   8.516  10.805   7.658 -0.0114  0.0268 -0.1827
   17MOL0     C 2209   8.764  10.842   7.899 -0.6061 -0.2390  0.5463
   17MOL0     C 2210   8.906  10.842   7.911  0.5441 -0.2686  0.3548
   17MOL0     N 2211   9.583  11.105   7.988  0.7399  0.0689 -0.1552
   17MOL0     N 2212   9.666  11.178   8.054 -0.1902  0.1852 -0.0346
   17MOL0     C 2213  10.926  11.137   7.763  0.5527 -0.4816 -0.2847
   17MOL0     C 2214  11.059  11.104   7.786  0.1032 -0.3014 -0.4889
   17MOL0     C 2215  11.457  11.121   8.040 -0.9868 -0.9136 -0.3388
   17MOL0     C 2216  11.542  11.208   8.108 -0.3437 -0.6654 -0.3037
   17MOL0     C 2217  11.677  11.175   8.129 -0.3742  0.0128 -1.1493
   17MOL0     C 2218  11.725  11.055   8.081  0.4136  0.8212  0.4745
   17MOL0     O 2219  11.856  11.039   8.090  0.5044 -0.4963  0.2312
   17MOL0     C 2220  11.891  10.956   8.195 -0.3278 -0.6489  0.3730
   17MOL0     C 2221  11.987  10.855   8.129 -0.1776 -0.5018 -1.1726
   17MOL0     C 2222  12.096  10.805   8.224 -0.0522 -0.0540  0.5647
   17MOL0     C 2223  12.209  10.741   8.147 -0.7097  0.0872 -0.8005
   17MOL0     C 2224  12.165  10.616   8.078 -0.9376 -0.2623  0.5218
   17MOL0     C 2225  12.118  10.521   8.014 -0.0320  1.1704 -0.3874
   17MOL0     C 2226  11.640  10.970   8.013 -0.1224 -0.0931  1.2192
   17MOL0     C 2227  11.504  11.003   7.991 -0.3233 -0.3773 -0.5773
   17MOL0     H 2228  11.043  11.158   8.130 -0.1000 -0.3408 -0.5788
   17MOL0     H 2229  10.819  11.173   8.086  0.5534  0.8295 -0.0390
   17MOL0     H 2230  10.609  11.165   8.003  0.7413  1.4457  2.3528
   17MOL0     H 2231  10.664  11.325   7.986 -2.8295 -0.1755  2.0260
   17MOL0     H 2232  10.489  11.371   7.799  0.8099 -2.3523 -3.0590
   17MOL0     H 2233  10.434  11.203   7.811  0.8623  0.2112 -1.4413
   17MOL0     H 2234  10.393  11.260   8.072  0.0760  0.8882  1.6937
   17MOL0     H 2235  10.414  11.424   8.017 -0.3676 -0.6438  1.5600
   17MOL0     H 2236  10.204  11.401   8.030  2.1781 -0.7871  1.6835
   17MOL0     H 2237  10.224  11.395   7.857 -0.5149 -2.6947 -1.7655
   17MOL0     H 2238  10.205  11.157   7.834  0.6600  0.2154  0.0409
   17MOL0     H 2239  10.192  11.127   8.007  0.9941  0.9247  0.4360
   17MOL0     H 2240  10.002  11.291   7.826  0.1550 -0.0045 -0.7681
   17MOL0     H 2241   9.983  11.129   7.885 -0.6346  0.3842 -2.6887
   17MOL0     H 2242  10.038  11.308   8.126 -0.2087 -1.0309  1.8520
   17MOL0     H 2243   9.895  11.352   8.035 -0.6733 -1.5115  0.2186
   17MOL0     H 2244   9.880  11.184   8.229 -0.5412  1.8428 -1.5132
   17MOL0     H 2245   9.962  11.067   8.132 -1.0083 -1.0274  0.8882
   17MOL0     H 2246   9.829  10.897   8.020 -0.9540 -0.5570  0.1672
   17MOL0     H 2247   9.619  10.829   7.820  0.0704  0.0117  1.0642
   17MOL0     H 2248   9.550  10.787   7.987 -2.2499 -0.3884  0.2179
   17MOL0     H 2249   9.426  10.965   7.769  1.0491  2.3053  1.5339
   17MOL0     H 2250   9.354  10.937   7.925  1.7855 -0.2715  0.7320
   17MOL0     H 2251   9.368  10.679   7.891  0.5290 -0.6105 -0.5342
   17MOL0     H 2252   9.430  10.714   7.730 -0.2696  0.4852  0.3294
   17MOL0     H 2253   9.192  10.688   7.688 -0.9429  0.5965 -1.6677
   17MOL0     H 2254   9.234  10.862   7.689  2.4853  0.3782 -0.1091
   17MOL0     H 2255   8.998  10.662   7.645 -1.9820 -1.6124 -0.6874
   17MOL0     H 2256   8.826  10.564   7.553 -1.0716 -1.2057  1.2775
   17MOL0     H 2257   8.656  10.621   7.582  0.5853 -0.3475  0.7966
   17MOL0     H 2258   8.744  10.713   7.476 -1.2660 -3.2548 -1.9753
   17MOL0     H 2259   8.298  10.760   7.683 -0.4698  2.0840 -0.4527
   17MOL0     H 2260   8.062  10.779   7.738  0.6728 -2.6121  0.8628
   17MOL0     H 2261   7.944  10.747   8.122  0.8159 -1.6660 -3.4164
   17MOL0     H 2262   7.862  10.891   8.158 -0.0212  0.8637 -0.8039
   17MOL0     H 2263   7.777  10.682   7.955  0.8780 -1.6703  1.3493
   17MOL0     H 2264   7.709  10.699   8.118 -1.9015  0.2002 -2.0170
   17MOL0     H 2265   7.683  10.923   7.934 -2.2668  0.5654 -0.1392
   17MOL0     H 2266   7.596  10.893   8.071 -0.2748  2.5912 -1.9206
   17MOL0     H 2267   7.556  10.743   7.791 -1.4729  1.4048 -0.6050
   17MOL0     H 2268   7.510  10.667   7.937 -2.6703  0.9374  0.0949
   17MOL0     H 2269   7.433  10.951   7.857  3.6595 -0.1624  0.7009
   17MOL0     H 2270   7.377  10.865   8.005  1.4257 -0.4546  0.3962
   17MOL0     H 2271   7.302  10.767   7.727  0.4436  2.3336 -0.9869
   17MOL0     H 2272   7.240  10.717   7.888  1.0574  0.4370  1.4617
   17MOL0     H 2273   7.184  10.972   7.739  0.7174  1.1535  1.0762
   17MOL0     H 2274   7.186  10.978   7.916 -2.3540 -0.4944  1.5479
   17MOL0     H 2275   6.952  10.931   7.823 -0.1288 -0.5965 -2.6159
   17MOL0     H 2276   7.021  10.815   7.938  1.0846  2.2181  1.1283
   17MOL0     H 2277   8.148  10.907   8.150  0.4212  1.1743 -0.5398
   17MOL0     H 2278   8.400  10.881   8.087  3.7139 -0.8713 -2.6637
   17MOL0     H 2279   8.690  10.879   7.968 -2.8038 -3.6148  0.2461
   17MOL0     H 2280   8.955  10.888   7.997 -0.5551  1.3797  0.1524
   17MOL0     H 2281  10.893  11.122   7.661  1.0892  0.4606 -0.6140
   17MOL0     H 2282  11.129  11.070   7.710  0.2354 -0.6793 -0.2026
   17MOL0     H 2283  11.523  11.306   8.150  3.0162  0.3344 -0.8282
   17MOL0     H 2284  11.748  11.238   8.182 -0.2901  0.8332 -2.2160
   17MOL0     H 2285  11.950  11.013   8.267 -0.9875  0.5293  0.0059
   17MOL0     H 2286  11.809  10.910   8.251  0.5019  0.4115  2.5992
   17MOL0     H 2287  12.037  10.914   8.053 -2.5069  1.9308 -0.9667
   17MOL0     H 2288  11.931  10.771   8.086  0.3914 -0.5421 -1.8443
   17MOL0     H 2289  12.055  10.738   8.301 -2.5849 -2.4243 -2.5515
   17MOL0     H 2290  12.140  10.888   8.280  0.2290  0.5810 -0.5784
   17MOL0     H 2291  12.282  10.720   8.226 -0.3219  3.1540 -0.2160
   17MOL0     H 2292  12.260  10.809   8.078  1.7657 -1.8630 -1.0275
   17MOL0     H 2293  12.082  10.433   7.966  1.1966 -0.5639  1.6586
   17MOL0     H 2294  11.690  10.883   7.971  1.3744  0.5414  1.6209
   17MOL0     H 2295  11.443  10.934   7.935  1.2164 -0.3822 -2.3390
   18MOL0     O 2296   2.653   0.399   6.615 -0.5585 -0.5282  0.3724
   18MOL0     C 2297   2.712   0.322   6.543 -0.4881  0.4085  0.7684
   18MOL0     O 2298   2.658   0.251   6.429  0.3691 -0.4546 -0.1143
   18MOL0     C 2299   2.523   0.250   6.401 -1.0419 -0.3550 -0.0109
   18MOL0     C 2300   2.442   0.368   6.405  0.2348 -0.0934  0.9765
   18MOL0     C 2301   2.303   0.370   6.368 -0.2391  0.0188  0.1381
   18MOL0     C 2302   2.246   0.258   6.334 -0.4834  0.4203 -0.2474
   18MOL0     O 2303   2.110   0.255   6.326  0.0716  0.1355  0.4204
   18MOL0     C 2304   2.073   0.212   6.189  0.9096 -0.1900  0.5853
   18MOL0     C 2305   1.938   0.275   6.161  0.8872  0.0934 -0.4146
   18MOL0     C 2306   1.830   0.263   6.273  0.3138  0.5174  0.4771
   18MOL0     C 2307   1.773   0.121   6.293  0.2920 -0.1534 -0.2450
   18MOL0     C 2308   1.670   0.109   6.413  0.5451 -0.6924  1.0073
   18MOL0     C 2309   1.555   0.209   6.412  0.6924 -0.5938  0.2702
   18MOL0     C 2310   1.465   0.186   6.285 -0.3442 -0.0220  0.2534
   18MOL0     C 2311   1.335   0.264   6.296 -0.4401 -0.3556 -0.2404
   18MOL0     N 2312   1.257   0.249   6.174  0.2947  0.5825 -0.0510
   18MOL0     C 2313   1.203   0.131   6.137  1.0622  0.8002  0.1336
   18MOL0     C 2314   1.148   0.156   6.018  0.0113 -0.4698  0.0829
   18MOL0     C 2315   1.065   0.047   5.950 -0.3344 -0.6258  0.7388
   18MOL0     C 2316   0.921   0.045   5.993  0.8371  0.1692  0.0510
   18MOL0     C 2317   0.825   0.145   5.923  0.2209  0.4288  0.4986
   18MOL0     C 2318   0.678   0.132   5.980  0.6926  0.4827  0.1342
   18MOL0     O 2319   0.610   0.013   5.928 -0.1812 -0.4247  0.1575
   18MOL0     C 2320   0.472   0.022   5.939  0.3767  1.0108  0.2608
   18MOL0     C 2321   0.401  -0.033   5.831 -0.5190 -0.2370  0.0028
   18MOL0     C 2322   0.259  -0.035   5.834  0.2453  0.2682  0.3578
   18MOL0     C 2323   0.183  -0.094   5.720 -0.7297 -0.3479 -0.5872
   18MOL0     C 2324   0.191   0.024   5.943 -0.2151 -0.0934 -0.3930
   18MOL0     C 2325   0.036   0.028   5.955  0.5623  0.2442  0.2627
   18MOL0     O 2326  -0.038   0.047   5.842  0.0747 -0.7375  0.4787
   18MOL0     C 2327  -0.174   0.027   5.830 -0.2305  0.4520  0.8265
   18MOL0     C 2328  -0.266   0.015   5.942 -0.0624 -0.7604  0.1038
   18MOL0     C 2329  -0.404   0.003   5.920  0.2295 -0.8232  0.1170
   18MOL0     C 2330  -0.459   0.001   5.790  0.2991  0.5763 -0.9866
   18MOL0     O 2331  -0.591  -0.011   5.757  0.0243  0.3994  0.4207
   18MOL0     C 2332  -0.695  -0.057   5.852 -0.7157  0.1600 -0.0578
   18MOL0     C 2333  -0.830  -0.045   5.771 -0.7136  0.1312  0.4523
   18MOL0     C 2334  -0.834  -0.137   5.651 -0.4449 -0.3122  0.9632
   18MOL0     C 2335  -0.972  -0.174   5.606 -0.2453  0.2707 -0.4790
   18MOL0     C 2336  -0.988  -0.223   5.459  0.0371 -0.0073  0.8133
   18MOL0     C 2337  -1.128  -0.281   5.419 -0.7442  0.6257 -0.0563
   18MOL0     C 2338  -1.167  -0.390   5.521  0.0082  0.2791  0.2354
   18MOL0     C 2339  -1.299  -0.465   5.473  0.3470  0.2979 -1.4391
   18MOL0    Cl 2340  -1.301  -0.560   5.325 -0.3177 -0.0841  0.7515
   18MOL0     C 2341  -0.366   0.001   5.683 -0.8952 -0.6590 -0.0859
   18MOL0     C 2342  -0.223   0.014   5.700 -0.1698 -0.6037 -0.0748
   18MOL0     O 2343  -0.010   0.014   6.073  0.0841 -0.3409 -0.2312
   18MOL0     C 2344   0.268   0.084   6.046  0.7586 -0.0995  1.0549
   18MOL0     C 2345   0.405   0.086   6.041  0.6060 -0.6523  0.8697
   18MOL0     N 2346   1.171   0.290   5.979 -0.0551  0.3554  0.6877
   18MOL0     N 2347   1.238   0.337   6.077  0.5204 -0.0276  0.1783
   18MOL0     C 2348   2.328   0.142   6.329  0.5869 -0.8707  1.3480
   18MOL0     C 2349   2.464   0.136   6.358  0.0287  0.6547  0.0835
   18MOL0     C 2350   2.848   0.264   6.585 -0.3669  0.0108 -1.0089
   18MOL0     C 2351   2.899   0.162   6.507 -0.0027  0.2709 -0.3414
   18MOL0     C 2352   3.019   0.095   6.541 -0.1707 -0.7174  0.1801
   18MOL0     C 2353   3.092   0.131   6.657 -0.8806  0.2183  1.3461
   18MOL0     O 2354   3.207   0.069   6.694  0.0886 -0.0359  0.4052
   18MOL0     C 2355   3.244  -0.059   6.652  0.1599 -0.7483  0.0775
   18MOL0     C 2356   3.328  -0.126   6.763 -0.2095 -0.2780  0.2967
   18MOL0     C 2357   3.427  -0.015   6.821  0.1389 -0.0607 -0.5980
   18MOL0     C 2358   3.534  -0.074   6.912  0.1761  0.1847 -0.2111
   18MOL0     C 2359   3.629  -0.162   6.845 -0.9508  0.0047  0.1758
   18MOL0     C 2360   3.707  -0.226   6.777  0.2774 -0.0308 -0.2985
   18MOL0     C 2361   3.046   0.245   6.724  0.1266 -0.1031  0.1035
   18MOL0     C 2362   2.923   0.306   6.695  0.8651 -0.6966  0.1340
   18MOL0     H 2363   2.475   0.463   6.446 -3.7046  1.4953  0.8578
   18MOL0     H 2364   2.239   0.456   6.353 -0.1207 -0.3923 -3.7337
   18MOL0     H 2365   2.137   0.243   6.106 -2.3216 -1.8037 -2.8190
   18MOL0     H 2366   2.047   0.106   6.181 -0.6184  0.2448 -0.7890
   18MOL0     H 2367   1.947   0.383   6.153 -1.6285  0.3989  0.0549
   18MOL0     H 2368   1.890   0.229   6.074 -0.6671 -2.3608  1.5982
   18MOL0     H 2369   1.869   0.300   6.368  2.9932  0.1385 -0.3821
   18MOL0     H 2370   1.743   0.320   6.237 -0.2061 -1.1784 -1.1531
   18MOL0     H 2371   1.730   0.092   6.197  2.3746 -1.0371 -0.9730
   18MOL0     H 2372   1.852   0.048   6.314 -1.2198 -2.2327 -1.3948
   18MOL0     H 2373   1.649   0.003   6.427  3.9829 -1.4285  1.4413
   18MOL0     H 2374   1.737   0.126   6.498 -0.5431  1.9746  1.4480
   18MOL0     H 2375   1.500   0.195   6.506 -0.1536 -0.6922 -0.2289
   18MOL0     H 2376   1.603   0.307   6.405 -1.0408  0.1608 -3.0608
   18MOL0     H 2377   1.520   0.206   6.192 -0.5006 -1.9061 -0.2836
   18MOL0     H 2378   1.438   0.080   6.290 -3.1119  0.2701 -3.6722
   18MOL0     H 2379   1.366   0.368   6.310 -0.6677 -0.2847 -0.2569
   18MOL0     H 2380   1.282   0.239   6.388  2.3095  1.0075  1.8747
   18MOL0     H 2381   1.203   0.036   6.189 -1.4110  0.8580  0.3555
   18MOL0     H 2382   1.068   0.069   5.843 -0.9270 -3.2711  0.0931
   18MOL0     H 2383   1.112  -0.050   5.968 -0.9603 -0.5751  2.8107
   18MOL0     H 2384   0.920   0.071   6.100 -0.9503 -0.8556  0.3246
   18MOL0     H 2385   0.885  -0.057   5.981 -0.5180  0.7197 -0.8343
   18MOL0     H 2386   0.820   0.123   5.816 -5.1582 -0.9714  0.7593
   18MOL0     H 2387   0.871   0.242   5.943 -2.8121  2.5895 -2.1563
   18MOL0     H 2388   0.628   0.224   5.949 -2.2047 -1.2566 -0.7825
   18MOL0     H 2389   0.678   0.137   6.089  0.9968  2.5337  0.0815
   18MOL0     H 2390   0.454  -0.085   5.752 -1.8036 -0.0647 -1.0179
   18MOL0     H 2391   0.125  -0.180   5.752 -0.3432 -0.8974 -1.3306
   18MOL0     H 2392   0.129  -0.014   5.668  0.0544  1.2898  1.0092
   18MOL0     H 2393   0.255  -0.135   5.648 -1.1683 -2.6201  0.2112
   18MOL0     H 2394  -0.231   0.019   6.045  2.0520 -0.1499 -0.5790
   18MOL0     H 2395  -0.474  -0.010   6.002  0.2044 -0.9051  0.0834
   18MOL0     H 2396  -0.690  -0.160   5.889 -3.2074  0.3532  1.0413
   18MOL0     H 2397  -0.695   0.006   5.941 -2.2641 -1.4914  1.2027
   18MOL0     H 2398  -0.912  -0.075   5.836  0.7343 -4.7189  0.4510
   18MOL0     H 2399  -0.835   0.057   5.733 -1.8406  0.5003  1.5315
   18MOL0     H 2400  -0.766  -0.222   5.662  0.6400  0.1434 -1.4429
   18MOL0     H 2401  -0.802  -0.070   5.570 -1.8822 -0.4666  0.2322
   18MOL0     H 2402  -0.995  -0.250   5.682  0.4983  1.8170  1.3807
   18MOL0     H 2403  -1.038  -0.089   5.624  0.1885  0.6724 -0.7704
   18MOL0     H 2404  -0.907  -0.294   5.438 -0.0409  0.2072 -0.2791
   18MOL0     H 2405  -0.980  -0.136   5.393  1.1601  0.3127  1.3495
   18MOL0     H 2406  -1.197  -0.197   5.416  1.3648  2.4018 -0.9917
   18MOL0     H 2407  -1.123  -0.333   5.323  0.1051  0.4250  0.0911
   18MOL0     H 2408  -1.176  -0.339   5.618  3.2651  0.7246  0.4096
   18MOL0     H 2409  -1.090  -0.466   5.533 -3.3149 -3.1577  1.7012
   18MOL0     H 2410  -1.372  -0.385   5.463  0.2016  0.0847 -2.1266
   18MOL0     H 2411  -1.335  -0.532   5.552 -2.6809  0.6172 -2.4206
   18MOL0     H 2412  -0.399  -0.020   5.581 -0.9467 -0.4417 -0.1133
   18MOL0     H 2413  -0.154   0.028   5.617  0.5045  0.2833  0.6126
   18MOL0     H 2414   0.219   0.136   6.128  2.4806 -1.0394  2.7794
   18MOL0     H 2415   0.452   0.139   6.124 -2.3085  1.2166  1.4535
   18MOL0     H 2416   2.285   0.044   6.310 -0.0136 -0.5870  1.2243
   18MOL0     H 2417   2.509   0.037   6.356 -2.7750 -0.7136 -0.1430
   18MOL0     H 2418   2.857   0.132   6.412 -1.9188  0.4610  0.4121
   18MOL0     H 2419   3.064   0.027   6.470 -1.1941 -0.5421 -0.6674
   18MOL0     H 2420   3.151  -0.116   6.644 -1.0695  1.1514  0.2737
   18MOL0     H 2421   3.299  -0.066   6.558 -2.8814 -3.1575 -1.6720
   18MOL0     H 2422   3.388  -0.203   6.712 -0.3580  0.5812 -1.2350
   18MOL0     H 2423   3.273  -0.175   6.843 -1.1859 -0.4686 -0.4813
   18MOL0     H 2424   3.362   0.060   6.866 -1.6421 -1.3483 -0.9250
   18MOL0     H 2425   3.477   0.034   6.737 -0.7544 -1.5047 -2.0376
   18MOL0     H 2426   3.488  -0.110   7.004 -0.2008  1.1034 -0.0296
   18MOL0     H 2427   3.597   0.005   6.955 -1.2773  0.8191  0.8254
   18MOL0     H 2428   3.778  -0.290   6.727  0.5437 -2.4314  2.8459
   18MOL0     H 2429   3.116   0.290   6.794  1.0104  1.7267 -1.8546
   18MOL0     H 2430   2.871   0.383   6.751  0.4094 -1.5049  0.8390
   19MOL0     O 2431   9.742   6.793   0.549 -0.2192 -0.4994  0.4074
   19MOL0     C 2432   9.731   6.858   0.651  0.5117 -0.0959 -0.0172
   19MOL0     O 2433   9.630   6.949   0.673 -0.3760 -0.1009 -0.3338
   19MOL0     C 2434   9.551   6.977   0.566 -0.1959  0.4340  0.5559
   19MOL0     C 2435   9.561   7.093   0.480  0.0176  0.2651  0.5946
   19MOL0     C 2436   9.488   7.108   0.362  0.0341 -0.4341 -0.0865
   19MOL0     C 2437   9.404   7.012   0.319 -0.3475 -0.3638  0.0317
   19MOL0     O 2438   9.345   7.020   0.194  0.0140 -0.1665 -0.1599
   19MOL0     C 2439   9.398   7.099   0.087  0.7249  0.4353 -0.2613
   19MOL0     C 2440   9.318   7.075  -0.044  0.6509  0.4665  0.0274
   19MOL0     C 2441   9.386   7.134  -0.167  0.0234 -0.3967  0.0041
   19MOL0     C 2442   9.306   7.116  -0.297 -0.3021 -0.1389 -0.3696
   19MOL0     C 2443   9.377   7.165  -0.421 -0.1470 -0.1016 -0.9201
   19MOL0     C 2444   9.340   7.312  -0.437 -0.7748 -0.1972  0.2524
   19MOL0     C 2445   9.444   7.386  -0.521 -0.0707 -0.2260  0.0464
   19MOL0     C 2446   9.466   7.339  -0.665 -0.5959 -0.4991  0.0179
   19MOL0     N 2447   9.334   7.340  -0.746  0.2364  0.0863 -0.0376
   19MOL0     C 2448   9.245   7.445  -0.780  0.4541 -0.4763  1.0985
   19MOL0     C 2449   9.148   7.390  -0.861 -0.6608 -0.8569  0.2654
   19MOL0     C 2450   9.022   7.459  -0.908  0.2086  0.2686  0.9917
   19MOL0     C 2451   8.970   7.434  -1.053 -0.9285 -0.1182 -0.2377
   19MOL0     C 2452   8.865   7.547  -1.090 -0.0460  0.2940  0.0412
   19MOL0     C 2453   8.832   7.508  -1.240 -0.1954  0.0980 -1.1964
   19MOL0     O 2454   8.733   7.605  -1.280 -0.1585  0.5175  0.0380
   19MOL0     C 2455   8.603   7.590  -1.225 -0.5367 -0.7227  0.6427
   19MOL0     C 2456   8.527   7.701  -1.252 -0.3007  0.9013  0.1181
   19MOL0     C 2457   8.390   7.709  -1.218 -0.5227  0.0412  0.1062
   19MOL0     C 2458   8.325   7.847  -1.232  1.0518  0.4860  0.5758
   19MOL0     C 2459   8.325   7.590  -1.157  0.3687 -0.6824 -0.2903
   19MOL0     C 2460   8.188   7.595  -1.111 -0.6504 -0.3871 -0.3062
   19MOL0     O 2461   8.143   7.487  -1.039  0.6791 -0.0020 -0.0458
   19MOL0     C 2462   8.012   7.473  -0.987  0.4915  0.7178 -0.0591
   19MOL0     C 2463   7.976   7.345  -0.944 -0.2730  0.1231 -0.2167
   19MOL0     C 2464   7.856   7.320  -0.886  0.5948 -0.3837 -0.2217
   19MOL0     C 2465   7.774   7.425  -0.851 -0.4117 -0.1515  0.1605
   19MOL0     O 2466   7.651   7.412  -0.778 -1.1912 -0.2784 -1.4741
   19MOL0     C 2467   7.631   7.301  -0.691 -0.0439  0.0927  0.4037
   19MOL0     C 2468   7.512   7.345  -0.614  0.4641 -0.2502 -0.1917
   19MOL0     C 2469   7.382   7.301  -0.679  0.1760 -0.5459 -0.2991
   19MOL0     C 2470   7.254   7.356  -0.609 -0.3959  0.4452  0.0095
   19MOL0     C 2471   7.241   7.314  -0.460 -0.3580  0.3363  0.4587
   19MOL0     C 2472   7.103   7.354  -0.398  0.1179  1.2786 -0.0786
   19MOL0     C 2473   7.087   7.328  -0.251 -0.5010  0.5622 -0.8808
   19MOL0     C 2474   7.004   7.441  -0.189  0.5000  0.0256 -0.2302
   19MOL0    Cl 2475   6.998   7.428  -0.013 -0.4701 -0.1644  0.0243
   19MOL0     C 2476   7.798   7.551  -0.906  0.3818 -0.2924 -0.4183
   19MOL0     C 2477   7.910   7.578  -0.978  0.4685  0.0385  0.2288
   19MOL0     O 2478   8.128   7.698  -1.127 -0.8620 -0.2522 -0.2569
   19MOL0     C 2479   8.414   7.478  -1.122  0.9206 -0.4222  0.5579
   19MOL0     C 2480   8.549   7.478  -1.158 -0.2656  0.2480 -0.0916
   19MOL0     N 2481   9.187   7.264  -0.881 -0.4026  0.5135  0.3198
   19MOL0     N 2482   9.295   7.234  -0.815  0.5813  0.8721 -0.7517
   19MOL0     C 2483   9.384   6.906   0.403  0.0088 -0.1039 -0.8307
   19MOL0     C 2484   9.444   6.887   0.530  0.6716  0.3723  0.2007
   19MOL0     C 2485   9.840   6.837   0.746 -0.1482  0.9604  0.7261
   19MOL0     C 2486   9.949   6.753   0.713 -0.1146 -0.5819 -0.6123
   19MOL0     C 2487  10.058   6.738   0.807 -0.4067  0.1933  0.4065
   19MOL0     C 2488  10.074   6.816   0.923 -0.2470  0.0175 -0.0139
   19MOL0     O 2489  10.184   6.824   1.005 -0.0112  0.0405  0.6577
   19MOL0     C 2490  10.290   6.729   0.994 -0.0643  0.2058  0.1502
   19MOL0     C 2491  10.254   6.583   1.024 -0.3382 -1.1297 -0.1545
   19MOL0     C 2492  10.231   6.560   1.168  0.3616  0.6853 -0.4721
   19MOL0     C 2493  10.220   6.409   1.201 -0.1173 -0.2093  0.1458
   19MOL0     C 2494  10.100   6.342   1.151 -0.4172  0.1418  0.2662
   19MOL0     C 2495  10.005   6.286   1.095 -1.3036  0.2917 -0.4886
   19MOL0     C 2496   9.957   6.896   0.955 -0.5392 -0.4102  0.9335
   19MOL0     C 2497   9.850   6.907   0.863  0.5043 -0.4187 -0.8972
   19MOL0     H 2498   9.648   7.157   0.492  0.8248 -0.7240  0.2390
   19MOL0     H 2499   9.505   7.192   0.295 -3.0148 -1.1850 -1.9957
   19MOL0     H 2500   9.403   7.205   0.111  1.0778  0.3032  0.2514
   19MOL0     H 2501   9.502   7.073   0.065  0.6945  1.6943 -2.1245
   19MOL0     H 2502   9.323   6.966  -0.051  0.2950  0.2870  1.8813
   19MOL0     H 2503   9.213   7.106  -0.036 -1.0333 -4.5759  1.4871
   19MOL0     H 2504   9.397   7.242  -0.153 -0.5332 -0.4221  0.6631
   19MOL0     H 2505   9.485   7.089  -0.182  0.1222  0.5313 -2.7452
   19MOL0     H 2506   9.287   7.009  -0.306 -1.9769  0.2977 -3.5360
   19MOL0     H 2507   9.204   7.156  -0.293 -1.2634 -2.3775 -0.7963
   19MOL0     H 2508   9.484   7.151  -0.404 -0.1337  0.7672 -0.2797
   19MOL0     H 2509   9.336   7.112  -0.508  1.3710 -1.4678 -0.8631
   19MOL0     H 2510   9.233   7.322  -0.458 -1.1293 -1.8787  1.1076
   19MOL0     H 2511   9.360   7.357  -0.339  0.9790 -0.8112  0.2112
   19MOL0     H 2512   9.414   7.490  -0.538 -1.3186 -0.6411 -0.4199
   19MOL0     H 2513   9.539   7.391  -0.468  0.4210  1.6464 -0.9102
   19MOL0     H 2514   9.506   7.237  -0.664  1.1153  0.1425  0.5269
   19MOL0     H 2515   9.544   7.402  -0.709 -1.1833  0.9636  0.9847
   19MOL0     H 2516   9.248   7.546  -0.742  1.1122  0.1862 -0.6077
   19MOL0     H 2517   8.947   7.433  -0.833  0.0673  2.4904  1.6661
   19MOL0     H 2518   9.047   7.565  -0.905  0.9810  0.2221 -1.4822
   19MOL0     H 2519   8.922   7.336  -1.055  2.1228 -1.7360  0.5720
   19MOL0     H 2520   9.053   7.438  -1.123  0.1180 -2.9507  0.7107
   19MOL0     H 2521   8.907   7.648  -1.089 -0.1949  0.3587  0.9574
   19MOL0     H 2522   8.779   7.545  -1.022 -0.1542 -0.7045 -0.1195
   19MOL0     H 2523   8.791   7.407  -1.245 -2.4187  0.7922  0.9394
   19MOL0     H 2524   8.918   7.516  -1.307 -1.0995 -0.1194 -2.4091
   19MOL0     H 2525   8.573   7.788  -1.299  0.7763  1.1844  1.6324
   19MOL0     H 2526   8.240   7.831  -1.299  3.3223 -0.4595 -2.2980
   19MOL0     H 2527   8.288   7.892  -1.140 -0.6723  1.1793 -0.4146
   19MOL0     H 2528   8.396   7.912  -1.284 -1.4243  1.8355 -1.3593
   19MOL0     H 2529   8.054   7.271  -0.961 -0.7290 -0.6093  0.7835
   19MOL0     H 2530   7.841   7.223  -0.841  1.7454  0.5966  2.4752
   19MOL0     H 2531   7.628   7.212  -0.754  0.3104  1.5889 -1.8394
   19MOL0     H 2532   7.708   7.286  -0.614 -1.2080 -1.7459  1.2757
   19MOL0     H 2533   7.512   7.286  -0.522 -0.3009  2.4374  1.6602
   19MOL0     H 2534   7.520   7.452  -0.592 -0.1223 -0.1801 -0.2992
   19MOL0     H 2535   7.376   7.193  -0.693  1.1271 -0.8495  1.3566
   19MOL0     H 2536   7.380   7.344  -0.779 -1.3654 -0.7200 -0.3654
   19MOL0     H 2537   7.247   7.462  -0.635  0.6385  0.7032  0.7107
   19MOL0     H 2538   7.167   7.312  -0.658  0.8110 -0.0854 -1.7378
   19MOL0     H 2539   7.321   7.363  -0.402  1.3828 -3.1994  1.3493
   19MOL0     H 2540   7.259   7.206  -0.458  2.2751  0.7030  0.6167
   19MOL0     H 2541   7.079   7.457  -0.425  2.1592  1.6089 -0.8042
   19MOL0     H 2542   7.033   7.295  -0.459  0.8736 -0.7054  0.8619
   19MOL0     H 2543   7.186   7.321  -0.205 -1.6663 -3.6606  1.5829
   19MOL0     H 2544   7.027   7.236  -0.248  0.6368 -0.3771 -3.3592
   19MOL0     H 2545   6.905   7.455  -0.232  0.2863  1.2541  0.6280
   19MOL0     H 2546   7.044   7.540  -0.214 -0.7603  0.9155  1.1296
   19MOL0     H 2547   7.724   7.626  -0.880  1.4458  0.2236  1.2131
   19MOL0     H 2548   7.925   7.674  -1.027 -3.0070 -0.1191 -1.4491
   19MOL0     H 2549   8.388   7.383  -1.077  2.6634 -1.9399 -1.4334
   19MOL0     H 2550   8.603   7.388  -1.131  0.2486  0.2616 -1.0311
   19MOL0     H 2551   9.306   6.836   0.377  0.8629 -0.7376 -1.8121
   19MOL0     H 2552   9.413   6.806   0.594  1.4791 -0.5647 -0.5439
   19MOL0     H 2553   9.947   6.696   0.621 -2.4746 -0.2355 -0.8404
   19MOL0     H 2554  10.133   6.672   0.765  1.3353  1.7980  0.8661
   19MOL0     H 2555  10.343   6.726   0.898 -0.4892  0.0656 -0.0853
   19MOL0     H 2556  10.359   6.766   1.070 -0.4373  1.0032  0.1137
   19MOL0     H 2557  10.328   6.511   0.987 -0.3256 -2.2051  1.8095
   19MOL0     H 2558  10.158   6.561   0.977 -0.3366 -1.0722 -0.1836
   19MOL0     H 2559  10.135   6.607   1.195  1.6170  2.7747  0.6245
   19MOL0     H 2560  10.316   6.597   1.226  2.9630 -3.7798 -0.9676
   19MOL0     H 2561  10.225   6.403   1.310 -0.8200 -0.6158  0.1608
   19MOL0     H 2562  10.299   6.346   1.159 -0.1232 -1.6206  2.1524
   19MOL0     H 2563   9.913   6.244   1.058  1.2267 -3.4996 -3.2990
   19MOL0     H 2564   9.954   6.956   1.045 -0.0048  2.6665 -0.9459
   19MOL0     H 2565   9.770   6.977   0.888 -1.7379 -1.6233 -4.0526
   20MOL0     O 2566   0.881   3.187   6.811 -0.1851 -0.0186  0.1520
   20MOL0     C 2567   0.906   3.159   6.695 -0.5612 -0.8506  0.6595
   20MOL0     O 2568   0.811   3.112   6.607  0.0902  0.1386  0.5460
   20MOL0     C 2569   0.681   3.111   6.658  0.5441  0.3958 -0.2738
   20MOL0     C 2570   0.594   3.205   6.600 -0.9652 -0.1567 -0.2106
   20MOL0     C 2571   0.464   3.225   6.643 -0.6565 -0.7449  0.2261
   20MOL0     C 2572   0.419   3.146   6.752 -0.4224  0.2657  0.5371
   20MOL0     O 2573   0.287   3.171   6.789 -0.3055 -0.0443  0.4217
   20MOL0     C 2574   0.215   3.068   6.869 -0.5868 -0.3665  0.5515
   20MOL0     C 2575   0.068   3.091   6.847 -0.2150 -0.3116  0.6855
   20MOL0     C 2576  -0.014   2.995   6.934  0.8190 -0.9369  0.8030
   20MOL0     C 2577  -0.160   3.035   6.914 -0.0859 -0.7514 -0.3708
   20MOL0     C 2578  -0.200   3.165   6.982  0.0367 -0.6188 -0.3272
   20MOL0     C 2579  -0.346   3.196   7.028  0.1092  0.7304 -0.9108
   20MOL0     C 2580  -0.443   3.212   6.909 -0.5967  0.7309  0.3098
   20MOL0     C 2581  -0.569   3.303   6.943  0.0901  0.0366  0.0430
   20MOL0     N 2582  -0.666   3.323   6.833  0.3035 -0.4121 -0.1930
   20MOL0     C 2583  -0.719   3.444   6.797 -0.0263 -0.2397 -0.2279
   20MOL0     C 2584  -0.796   3.419   6.690 -0.2730 -0.4010  0.4814
   20MOL0     C 2585  -0.885   3.527   6.607 -0.7036  0.7125  0.4847
   20MOL0     C 2586  -1.020   3.547   6.658 -0.3433 -0.0954 -0.5881
   20MOL0     C 2587  -1.112   3.411   6.663 -0.7333 -0.3808  0.6339
   20MOL0     C 2588  -1.132   3.349   6.527  0.6614  0.3528 -0.6163
   20MOL0     O 2589  -1.180   3.445   6.429  0.3872 -0.0386  0.1615
   20MOL0     C 2590  -1.323   3.453   6.421  1.1888 -0.4499 -0.0288
   20MOL0     C 2591  -1.419   3.372   6.490  0.8285 -0.6331  0.3954
   20MOL0     C 2592  -1.557   3.401   6.474 -0.2975 -0.5667  0.3384
   20MOL0     C 2593  -1.654   3.307   6.540  0.4802 -0.0951  0.4410
   20MOL0     C 2594  -1.599   3.501   6.390 -0.1459 -0.8748  0.1805
   20MOL0     C 2595  -1.743   3.538   6.361 -0.2826  0.4225 -0.3417
   20MOL0     O 2596  -1.848   3.469   6.420  0.4998  0.7402 -0.1390
   20MOL0     C 2597  -1.980   3.510   6.410 -0.2945 -0.4561 -0.6720
   20MOL0     C 2598  -2.087   3.426   6.368  0.0952 -0.3059  0.1499
   20MOL0     C 2599  -2.221   3.467   6.390 -0.1681  0.1732  0.3726
   20MOL0     C 2600  -2.252   3.597   6.424 -0.8978 -0.0872 -0.3884
   20MOL0     O 2601  -2.381   3.640   6.440  0.1482 -0.0743 -0.0507
   20MOL0     C 2602  -2.482   3.604   6.338 -0.1914  0.3948  0.0833
   20MOL0     C 2603  -2.440   3.621   6.188 -0.2486 -0.2197 -1.3712
   20MOL0     C 2604  -2.394   3.767   6.166 -0.1286 -0.3351  0.0509
   20MOL0     C 2605  -2.294   3.786   6.056 -0.0864 -0.2526  0.0335
   20MOL0     C 2606  -2.151   3.738   6.073  0.7521 -0.1316 -0.4078
   20MOL0     C 2607  -2.059   3.776   5.961  0.4908 -0.0983  0.4005
   20MOL0     C 2608  -1.919   3.730   6.004  0.1866 -0.0861  0.4596
   20MOL0     C 2609  -1.852   3.666   5.882 -0.5478 -0.0447 -0.4814
   20MOL0    Cl 2610  -1.927   3.508   5.826 -0.4239  0.4277  0.0653
   20MOL0     C 2611  -2.140   3.685   6.448 -0.4683  0.2157  1.4298
   20MOL0     C 2612  -2.011   3.641   6.443  0.2568 -0.4117  0.1006
   20MOL0     O 2613  -1.759   3.619   6.271  0.5009  0.3037 -0.2195
   20MOL0     C 2614  -1.505   3.583   6.324 -0.0635  0.1966 -0.3866
   20MOL0     C 2615  -1.374   3.553   6.336 -0.6022 -0.5858  0.4044
   20MOL0     N 2616  -0.789   3.281   6.664  0.2169 -0.1948 -0.0167
   20MOL0     N 2617  -0.716   3.224   6.755 -0.0948 -0.2720 -0.6272
   20MOL0     C 2618   0.504   3.034   6.794 -0.1172 -0.1211 -0.8441
   20MOL0     C 2619   0.634   3.019   6.741  1.3903 -0.1243  0.2913
   20MOL0     C 2620   1.053   3.180   6.650 -0.3418  0.3141 -0.2055
   20MOL0     C 2621   1.155   3.149   6.731  0.1533 -0.4750  0.0122
   20MOL0     C 2622   1.293   3.154   6.698  0.9094 -0.3823  0.1105
   20MOL0     C 2623   1.320   3.174   6.559  0.2083 -0.1120  0.2920
   20MOL0     O 2624   1.449   3.145   6.528 -0.5438 -0.0536  0.6725
   20MOL0     C 2625   1.501   3.195   6.408 -0.3536 -0.5067  0.4081
   20MOL0     C 2626   1.651   3.180   6.404  1.0792 -0.7335 -0.0175
   20MOL0     C 2627   1.721   3.215   6.268  0.5441  0.0587  0.1316
   20MOL0     C 2628   1.873   3.189   6.268 -0.1073 -0.6895 -0.0475
   20MOL0     C 2629   1.929   3.226   6.136  0.6501  0.4807 -0.0289
   20MOL0     C 2630   1.982   3.255   6.035 -0.0618  0.8551  1.1143
   20MOL0     C 2631   1.218   3.196   6.465  0.1238 -1.0029  0.3580
   20MOL0     C 2632   1.085   3.204   6.509 -0.0780  0.1415  0.0816
   20MOL0     H 2633   0.622   3.245   6.503  0.7208 -0.3611  0.1660
   20MOL0     H 2634   0.395   3.287   6.586 -0.3053 -1.5921 -1.1661
   20MOL0     H 2635   0.244   2.970   6.831 -0.3967  0.7863 -2.5828
   20MOL0     H 2636   0.241   3.077   6.975  1.0626  0.5171  0.1189
   20MOL0     H 2637   0.038   3.193   6.875 -1.4164 -0.8663  1.4967
   20MOL0     H 2638   0.043   3.070   6.743  2.3959  2.2036 -0.6047
   20MOL0     H 2639   0.003   2.891   6.906 -1.0136 -0.5241 -2.2731
   20MOL0     H 2640   0.016   3.001   7.039 -1.5036 -5.3977  1.9716
   20MOL0     H 2641  -0.184   3.028   6.807 -0.2159  3.1293 -0.7130
   20MOL0     H 2642  -0.218   2.959   6.967 -1.7839  0.9479  0.3317
   20MOL0     H 2643  -0.149   3.165   7.079  0.6200  0.2852 -0.6208
   20MOL0     H 2644  -0.166   3.244   6.914  1.0595 -0.2304  0.6052
   20MOL0     H 2645  -0.389   3.117   7.091 -2.5934  1.7590 -1.3112
   20MOL0     H 2646  -0.343   3.281   7.097  1.0200 -0.9100  1.1716
   20MOL0     H 2647  -0.392   3.261   6.826  0.2472  0.0282  0.3986
   20MOL0     H 2648  -0.483   3.114   6.879  0.3186  0.1037  1.1013
   20MOL0     H 2649  -0.525   3.399   6.970  1.4905 -0.7489  0.6054
   20MOL0     H 2650  -0.624   3.272   7.032 -1.7304  1.4402 -0.5207
   20MOL0     H 2651  -0.706   3.537   6.851  0.9467 -0.5417  0.0742
   20MOL0     H 2652  -0.842   3.628   6.599 -0.3990  0.5153 -0.5226
   20MOL0     H 2653  -0.893   3.491   6.504  1.2871  3.8352 -0.9121
   20MOL0     H 2654  -1.066   3.624   6.596 -0.6235  0.6422  0.5243
   20MOL0     H 2655  -1.005   3.579   6.761 -2.2086 -1.2348  0.0996
   20MOL0     H 2656  -1.208   3.449   6.699 -1.1227 -0.7518 -0.0004
   20MOL0     H 2657  -1.079   3.341   6.740 -0.9248 -2.0199 -0.7316
   20MOL0     H 2658  -1.199   3.262   6.531  1.6421 -0.3776  1.3226
   20MOL0     H 2659  -1.032   3.314   6.498  2.1410  1.4693  2.6707
   20MOL0     H 2660  -1.391   3.289   6.554  1.2581 -2.2936 -1.8364
   20MOL0     H 2661  -1.603   3.231   6.600  1.6201 -0.0884 -0.4831
   20MOL0     H 2662  -1.720   3.370   6.601  0.2298 -1.0925  1.2253
   20MOL0     H 2663  -1.720   3.254   6.472 -0.1459  1.9893 -0.6659
   20MOL0     H 2664  -2.080   3.322   6.338 -1.2327 -0.2233 -0.5391
   20MOL0     H 2665  -2.297   3.395   6.362 -0.4899 -0.0938  1.8918
   20MOL0     H 2666  -2.510   3.499   6.355 -0.7050  0.5544  0.2367
   20MOL0     H 2667  -2.574   3.659   6.363 -0.1809  0.3403  0.2466
   20MOL0     H 2668  -2.353   3.559   6.165 -0.9209 -1.8719  0.2587
   20MOL0     H 2669  -2.531   3.609   6.129 -2.3755  2.3957  1.0853
   20MOL0     H 2670  -2.348   3.816   6.253  0.5487 -3.5910  1.6954
   20MOL0     H 2671  -2.481   3.828   6.140  1.1751  1.3506 -0.5896
   20MOL0     H 2672  -2.340   3.732   5.973  0.5349 -0.7494  0.0075
   20MOL0     H 2673  -2.287   3.892   6.027 -2.3016 -0.1799 -0.3591
   20MOL0     H 2674  -2.157   3.629   6.080 -1.3745  0.0097  5.0166
   20MOL0     H 2675  -2.121   3.778   6.170 -0.2361  0.0367 -0.1545
   20MOL0     H 2676  -2.104   3.731   5.872 -0.9767 -1.2925  1.6611
   20MOL0     H 2677  -2.064   3.884   5.947  0.0101 -0.3508 -1.6748
   20MOL0     H 2678  -1.920   3.647   6.076  0.8676  1.7366  2.6999
   20MOL0     H 2679  -1.860   3.821   6.021 -0.5388  1.4683 -3.9328
   20MOL0     H 2680  -1.749   3.640   5.909 -0.6714 -0.8663 -0.7556
   20MOL0     H 2681  -1.854   3.727   5.792 -2.0933  0.0040 -0.4528
   20MOL0     H 2682  -2.159   3.791   6.461  0.8080  0.2240  3.8006
   20MOL0     H 2683  -1.935   3.719   6.452  0.7083 -1.0027  1.8175
   20MOL0     H 2684  -1.530   3.653   6.245  0.5748  0.3697 -0.4382
   20MOL0     H 2685  -1.309   3.617   6.276 -0.5207 -1.8408 -0.9028
   20MOL0     H 2686   0.469   2.967   6.872 -0.6074  1.5809  0.4692
   20MOL0     H 2687   0.684   2.928   6.773 -1.0077 -1.2887  1.0158
   20MOL0     H 2688   1.133   3.110   6.830 -2.3466 -2.5089 -1.2201
   20MOL0     H 2689   1.375   3.134   6.767  1.8880  2.2291 -0.1858
   20MOL0     H 2690   1.461   3.143   6.321 -0.5833 -1.2998  0.9814
   20MOL0     H 2691   1.477   3.301   6.395 -3.2413 -0.6477  3.4111
   20MOL0     H 2692   1.663   3.073   6.426  3.7703 -1.1927 -2.8703
   20MOL0     H 2693   1.686   3.239   6.489 -0.7307 -0.3734  0.4988
   20MOL0     H 2694   1.703   3.323   6.260  1.1145  0.2716  1.3514
   20MOL0     H 2695   1.664   3.158   6.194  1.3897 -1.0376  0.3019
   20MOL0     H 2696   1.888   3.083   6.290  1.6226 -0.4211  0.2044
   20MOL0     H 2697   1.926   3.248   6.344  0.7016 -0.3644 -0.8449
   20MOL0     H 2698   2.039   3.283   5.948 -0.9980  3.0397  1.1347
   20MOL0     H 2699   1.247   3.217   6.363 -0.1744 -0.2733  0.4189
   20MOL0     H 2700   1.003   3.210   6.438 -0.3793  1.1437  0.4936
   21MOL0     O 2701   4.488   2.198   6.116  0.0413  0.5608  0.2319
   21MOL0     C 2702   4.535   2.245   6.220  0.1702 -0.3543  0.5483
   21MOL0     O 2703   4.455   2.287   6.322  0.0717  0.7720  0.5615
   21MOL0     C 2704   4.323   2.316   6.289  0.1164 -0.9560 -0.3197
   21MOL0     C 2705   4.290   2.449   6.254  0.3708 -0.2152  0.3133
   21MOL0     C 2706   4.165   2.484   6.195 -0.0626 -0.6226 -0.5910
   21MOL0     C 2707   4.064   2.382   6.177  0.8057 -0.7296 -0.1966
   21MOL0     O 2708   3.942   2.399   6.112 -0.0568 -0.1275  0.3022
   21MOL0     C 2709   3.895   2.536   6.109  0.1049  0.0591  0.1377
   21MOL0     C 2710   3.762   2.529   6.022 -0.1607  1.0561  0.2568
   21MOL0     C 2711   3.622   2.524   6.102  0.0666  0.4009  0.4242
   21MOL0     C 2712   3.502   2.488   6.017  0.1291  0.2537  0.3686
   21MOL0     C 2713   3.363   2.509   6.074  0.5922  0.0430 -0.4484
   21MOL0     C 2714   3.252   2.485   5.976  0.5762  0.6575  0.1657
   21MOL0     C 2715   3.118   2.522   6.037 -0.3236  0.4468 -0.5984
   21MOL0     C 2716   2.996   2.474   5.957 -0.5571 -0.8263 -0.1466
   21MOL0     N 2717   2.873   2.514   6.011 -0.1343  1.2738  0.1417
   21MOL0     C 2718   2.819   2.644   6.005 -0.4193  0.2607 -0.6666
   21MOL0     C 2719   2.689   2.621   6.055 -0.3783 -0.3843  0.6575
   21MOL0     C 2720   2.587   2.731   6.087 -0.4445  0.2146 -0.2117
   21MOL0     C 2721   2.450   2.693   6.031  0.1140  0.3136 -0.1580
   21MOL0     C 2722   2.373   2.600   6.129  0.7972  0.4385 -0.0659
   21MOL0     C 2723   2.326   2.677   6.248 -0.1060 -0.3568 -0.6291
   21MOL0     O 2724   2.239   2.779   6.218  0.0008 -0.0061  0.3093
   21MOL0     C 2725   2.106   2.753   6.197 -0.6269 -0.7804 -1.1722
   21MOL0     C 2726   2.054   2.828   6.090 -0.1670  0.1514  0.1073
   21MOL0     C 2727   1.918   2.821   6.053  0.4320 -1.0539  0.4969
   21MOL0     C 2728   1.873   2.909   5.940  0.3028 -0.0365 -0.0924
   21MOL0     C 2729   1.829   2.744   6.126 -0.9176  0.4333  0.1566
   21MOL0     C 2730   1.689   2.763   6.115 -0.1451  0.5250 -0.1554
   21MOL0     O 2731   1.635   2.884   6.116 -0.3671 -0.1652  0.1573
   21MOL0     C 2732   1.503   2.885   6.149  0.0606  0.0306  1.1773
   21MOL0     C 2733   1.404   2.908   6.056  0.1196 -0.8793  0.3126
   21MOL0     C 2734   1.266   2.900   6.091  0.7555  0.7257 -0.1244
   21MOL0     C 2735   1.227   2.878   6.227  0.3700 -0.0545  0.1414
   21MOL0     O 2736   1.095   2.886   6.275 -1.0892 -0.3428  0.8662
   21MOL0     C 2737   0.987   2.888   6.177  0.1076  0.4284 -0.5124
   21MOL0     C 2738   0.869   2.916   6.272  0.2611 -0.0871 -0.6435
   21MOL0     C 2739   0.742   2.902   6.187 -0.7452 -0.0068 -0.1489
   21MOL0     C 2740   0.614   2.925   6.269  0.7136  0.9197 -0.0724
   21MOL0     C 2741   0.495   2.924   6.167 -0.1560  0.8460 -0.3622
   21MOL0     C 2742   0.389   3.036   6.183  0.4240 -1.2014 -0.2732
   21MOL0     C 2743   0.328   3.050   6.326  0.2156 -0.4432 -0.4767
   21MOL0     C 2744   0.181   3.089   6.319  0.5755 -0.3676  0.2797
   21MOL0    Cl 2745   0.178   3.254   6.243 -0.1593 -0.4738  0.5215
   21MOL0     C 2746   1.324   2.869   6.328  0.6294  0.8015 -0.5065
   21MOL0     C 2747   1.461   2.873   6.282 -0.0830  0.6149  0.0036
   21MOL0     O 2748   1.625   2.661   6.130  0.1570  0.0367  0.4249
   21MOL0     C 2749   1.879   2.658   6.227 -0.3579  0.2072  0.0530
   21MOL0     C 2750   2.014   2.661   6.268  0.6755  0.0962  0.3932
   21MOL0     N 2751   2.676   2.486   6.088 -0.2365  0.2012  0.6427
   21MOL0     N 2752   2.781   2.428   6.059  0.5262  0.0282 -0.6301
   21MOL0     C 2753   4.099   2.255   6.229  0.6827 -0.5119  0.9341
   21MOL0     C 2754   4.219   2.222   6.286  0.1936 -0.3533  0.3661
   21MOL0     C 2755   4.679   2.261   6.237  0.3000  0.5214 -0.5345
   21MOL0     C 2756   4.740   2.333   6.342 -0.3307 -0.0830 -0.2398
   21MOL0     C 2757   4.885   2.337   6.341  0.1029  0.1976  0.5660
   21MOL0     C 2758   4.963   2.295   6.230 -0.0362  0.4800  0.0123
   21MOL0     O 2759   5.097   2.299   6.241 -0.6407 -0.3870 -0.2017
   21MOL0     C 2760   5.174   2.278   6.118  0.4911 -0.2294 -0.1544
   21MOL0     C 2761   5.328   2.255   6.142 -0.4946 -0.2458  0.2666
   21MOL0     C 2762   5.410   2.233   6.015 -0.8146  0.2345 -0.2856
   21MOL0     C 2763   5.367   2.125   5.917 -0.0683 -0.1499 -0.3916
   21MOL0     C 2764   5.447   2.144   5.798  0.4255  0.2718 -0.2125
   21MOL0     C 2765   5.515   2.156   5.702 -0.7245 -0.2081  0.1701
   21MOL0     C 2766   4.893   2.238   6.122 -1.2138 -1.0681 -0.1597
   21MOL0     C 2767   4.757   2.224   6.132  0.0631 -0.1172 -0.1100
   21MOL0     H 2768   4.354   2.536   6.261  0.6121 -0.2116 -1.5515
   21MOL0     H 2769   4.143   2.587   6.168  3.2619  0.1254 -0.9076
   21MOL0     H 2770   3.890   2.575   6.211 -0.0375 -1.0150  0.5533
   21MOL0     H 2771   3.967   2.596   6.052 -0.6994  1.2198  0.2979
   21MOL0     H 2772   3.755   2.617   5.958  1.1088  1.0788  0.1222
   21MOL0     H 2773   3.762   2.438   5.962  0.2620  1.0197  0.3119
   21MOL0     H 2774   3.620   2.453   6.185 -1.1013  0.2163  0.2489
   21MOL0     H 2775   3.613   2.617   6.160 -0.1297 -0.1440  1.2954
   21MOL0     H 2776   3.522   2.555   5.932  1.2880 -1.1540 -0.5089
   21MOL0     H 2777   3.519   2.387   5.979 -1.6383  0.4216 -0.9565
   21MOL0     H 2778   3.357   2.445   6.163  0.9008 -0.1536 -0.5682
   21MOL0     H 2779   3.350   2.610   6.113  1.6921  0.0857 -0.1646
   21MOL0     H 2780   3.270   2.550   5.890  0.4551  1.6777  0.8890
   21MOL0     H 2781   3.255   2.378   5.954 -1.0861  0.9932 -1.9783
   21MOL0     H 2782   3.111   2.467   6.131  0.5121  2.0564  0.4576
   21MOL0     H 2783   3.115   2.630   6.058 -0.7327  0.0628  1.5893
   21MOL0     H 2784   3.006   2.366   5.947  2.3606 -1.0113  3.0731
   21MOL0     H 2785   2.996   2.508   5.852  1.8244 -1.6870 -0.4826
   21MOL0     H 2786   2.864   2.731   5.960  0.0927 -0.2821 -1.2225
   21MOL0     H 2787   2.582   2.741   6.195  0.4725 -3.4190  0.3083
   21MOL0     H 2788   2.620   2.826   6.044  1.4728 -0.0994  0.4812
   21MOL0     H 2789   2.460   2.649   5.932 -0.3084  0.7380 -0.3946
   21MOL0     H 2790   2.392   2.784   6.014  1.3294  1.4061  1.2412
   21MOL0     H 2791   2.437   2.518   6.160  4.1267  3.6713  2.5810
   21MOL0     H 2792   2.285   2.570   6.071  2.6256 -1.6253 -1.9373
   21MOL0     H 2793   2.408   2.720   6.307 -1.9501  0.7265  1.2609
   21MOL0     H 2794   2.272   2.605   6.311  1.8481 -0.3453  1.1624
   21MOL0     H 2795   2.118   2.891   6.029 -0.0951 -0.5472 -0.5646
   21MOL0     H 2796   1.788   2.858   5.892  1.5251 -0.1042 -2.2949
   21MOL0     H 2797   1.838   3.009   5.966  0.5688  0.5509 -1.8759
   21MOL0     H 2798   1.951   2.925   5.865 -1.0570  0.4397 -1.4601
   21MOL0     H 2799   1.433   2.914   5.951 -1.9081  1.0678 -0.2263
   21MOL0     H 2800   1.190   2.895   6.014  1.3687 -1.7986 -0.6681
   21MOL0     H 2801   0.991   2.968   6.103  1.4237  2.2717  1.4260
   21MOL0     H 2802   0.969   2.791   6.130  1.4762 -0.2625  0.2849
   21MOL0     H 2803   0.861   2.837   6.347 -0.0093 -0.5940 -1.1998
   21MOL0     H 2804   0.880   3.012   6.323 -5.9423  0.4739  0.3456
   21MOL0     H 2805   0.734   2.802   6.143  2.8018 -0.7158  0.5572
   21MOL0     H 2806   0.744   2.971   6.102  1.6048 -0.9431 -0.9139
   21MOL0     H 2807   0.601   2.852   6.350 -0.7989  0.1819 -0.9334
   21MOL0     H 2808   0.623   3.026   6.309  0.8284  1.2981 -1.0367
   21MOL0     H 2809   0.442   2.829   6.181 -0.9169  1.1156 -1.2971
   21MOL0     H 2810   0.541   2.927   6.068  1.1072 -0.7164  0.1324
   21MOL0     H 2811   0.416   3.136   6.149 -0.4113 -0.9244 -0.1390
   21MOL0     H 2812   0.299   3.006   6.128 -0.6379  0.7984  0.3069
   21MOL0     H 2813   0.374   3.130   6.385  0.6356 -1.5667  0.7703
   21MOL0     H 2814   0.349   2.961   6.386  2.3708 -0.1161 -0.6616
   21MOL0     H 2815   0.151   3.093   6.425  2.0878 -1.6634  0.8033
   21MOL0     H 2816   0.122   3.020   6.258  2.6059  1.1619 -3.7848
   21MOL0     H 2817   1.304   2.860   6.434  1.6349 -1.7565 -0.4606
   21MOL0     H 2818   1.544   2.867   6.352 -0.7567 -0.7744  0.7179
   21MOL0     H 2819   1.812   2.599   6.289 -2.3588  0.6129 -1.6219
   21MOL0     H 2820   2.043   2.598   6.351 -1.1988  1.2704  2.0220
   21MOL0     H 2821   4.020   2.181   6.226 -0.8607  1.0369  1.6150
   21MOL0     H 2822   4.250   2.122   6.316 -0.0654 -1.7629 -3.4943
   21MOL0     H 2823   4.684   2.379   6.422  0.4064  0.5777 -0.0910
   21MOL0     H 2824   4.934   2.364   6.434 -0.1460 -1.2881  1.1584
   21MOL0     H 2825   5.137   2.190   6.066 -3.0668  0.5430  0.7811
   21MOL0     H 2826   5.144   2.364   6.057  0.1146  0.2699  0.7035
   21MOL0     H 2827   5.339   2.163   6.200  0.7733 -0.3203 -0.0584
   21MOL0     H 2828   5.367   2.343   6.195  0.3574 -0.6840  0.3961
   21MOL0     H 2829   5.506   2.196   6.053 -1.6335 -0.2998  1.3697
   21MOL0     H 2830   5.437   2.325   5.962 -1.1451 -1.2230 -3.1311
   21MOL0     H 2831   5.263   2.133   5.884 -0.6906  0.3569  1.5312
   21MOL0     H 2832   5.392   2.025   5.954 -0.6379  0.5228  1.9972
   21MOL0     H 2833   5.575   2.186   5.618 -1.5532  2.2986  0.3621
   21MOL0     H 2834   4.942   2.191   6.038 -0.7178  0.7970 -0.9620
   21MOL0     H 2835   4.703   2.183   6.047 -1.0624 -3.8323  2.1859
   22MOL0     O 2836  10.761   2.955   4.668 -0.0564 -0.3487 -0.2740
   22MOL0     C 2837  10.818   2.896   4.755  0.6001  0.8806 -0.7059
   22MOL0     O 2838  10.784   2.763   4.795 -0.0564 -0.4266 -0.0648
   22MOL0     C 2839  10.671   2.716   4.726 -0.0879  0.1885  0.0742
   22MOL0     C 2840  10.546   2.760   4.763 -0.2177  1.3263  0.5694
   22MOL0     C 2841  10.430   2.707   4.712  0.2436  0.4555  0.1619
   22MOL0     C 2842  10.430   2.617   4.612 -0.6004 -0.1214  0.2810
   22MOL0     O 2843  10.317   2.565   4.551  0.1116 -0.7426  0.3757
   22MOL0     C 2844  10.194   2.642   4.560 -0.9053  0.3396  0.2040
   22MOL0     C 2845  10.084   2.590   4.476 -0.4192 -0.6688 -0.6585
   22MOL0     C 2846   9.951   2.657   4.518 -0.1743  0.1228  0.6766
   22MOL0     C 2847   9.857   2.602   4.405 -0.3114  1.1767 -0.7194
   22MOL0     C 2848   9.716   2.668   4.423 -0.2489 -0.3252 -0.2298
   22MOL0     C 2849   9.603   2.639   4.319  0.1929  1.1357 -0.4532
   22MOL0     C 2850   9.462   2.691   4.371 -0.2819  0.0798 -0.1453
   22MOL0     C 2851   9.361   2.578   4.409 -0.1602  0.4643 -0.8065
   22MOL0     N 2852   9.222   2.636   4.406 -0.2269  0.4049  0.2018
   22MOL0     C 2853   9.121   2.596   4.317 -0.1352 -0.8279 -0.8148
   22MOL0     C 2854   9.019   2.679   4.354 -0.9912  0.0793  0.6536
   22MOL0     C 2855   8.870   2.650   4.315  0.0326  0.1123 -0.2172
   22MOL0     C 2856   8.795   2.770   4.241  0.2550  0.0279  0.2229
   22MOL0     C 2857   8.782   2.903   4.319  0.1766  0.0947  0.0071
   22MOL0     C 2858   8.678   2.993   4.253  0.7637 -1.6184  0.2696
   22MOL0     O 2859   8.543   2.952   4.240 -0.1014 -0.1219 -0.6150
   22MOL0     C 2860   8.449   3.025   4.168 -0.6693 -0.1000 -0.1631
   22MOL0     C 2861   8.316   3.001   4.196 -0.3893 -0.1493  0.2744
   22MOL0     C 2862   8.211   3.056   4.122  0.0762 -1.0413  0.2930
   22MOL0     C 2863   8.061   3.023   4.160 -0.2523 -0.1740 -0.6546
   22MOL0     C 2864   8.240   3.156   4.027 -0.6342 -0.1001  0.4772
   22MOL0     C 2865   8.137   3.241   3.973 -0.1096 -0.6848  0.5923
   22MOL0     O 2866   8.147   3.375   3.999  0.2792  0.2907 -0.4769
   22MOL0     C 2867   8.074   3.472   3.933 -0.4008 -1.0677 -0.9844
   22MOL0     C 2868   8.026   3.583   4.012 -0.1407 -0.2895 -0.4190
   22MOL0     C 2869   7.972   3.694   3.949 -0.3000  0.4747  0.8056
   22MOL0     C 2870   7.970   3.704   3.804  0.2988 -0.0472  0.4836
   22MOL0     O 2871   7.919   3.815   3.743 -0.2058 -0.9488 -0.7476
   22MOL0     C 2872   7.827   3.794   3.631  0.0825 -0.0111 -0.7604
   22MOL0     C 2873   7.686   3.826   3.671 -0.3192 -0.1664  0.6537
   22MOL0     C 2874   7.588   3.786   3.554  0.2095 -0.6100  0.3812
   22MOL0     C 2875   7.590   3.891   3.436  0.5326  0.2434 -0.3168
   22MOL0     C 2876   7.493   3.859   3.317 -0.0629  0.0672  0.1022
   22MOL0     C 2877   7.339   3.862   3.360  0.7978  0.4263  0.5143
   22MOL0     C 2878   7.252   3.880   3.235  0.4723 -0.2098  0.5309
   22MOL0     C 2879   7.096   3.920   3.255 -0.3151 -0.6072  0.0704
   22MOL0    Cl 2880   7.036   3.949   3.094 -0.1087 -0.3719  0.3269
   22MOL0     C 2881   8.014   3.590   3.736 -0.0507  0.2201 -0.2945
   22MOL0     C 2882   8.061   3.469   3.791 -0.3992  0.0715  0.2759
   22MOL0     O 2883   8.054   3.196   3.892  0.5196  0.2902 -0.1234
   22MOL0     C 2884   8.380   3.174   3.988  0.6028 -1.0646  0.2217
   22MOL0     C 2885   8.488   3.114   4.055  0.3454  0.8071 -0.6484
   22MOL0     N 2886   9.056   2.767   4.458  0.3460  0.6389 -0.1019
   22MOL0     N 2887   9.181   2.737   4.485 -0.1008  0.8008  0.3729
   22MOL0     C 2888  10.555   2.561   4.582  0.5257  0.5332 -0.1040
   22MOL0     C 2889  10.675   2.609   4.642 -0.1315  0.0018 -0.0925
   22MOL0     C 2890  10.936   2.959   4.814 -1.0522 -0.2993 -0.0625
   22MOL0     C 2891  11.037   2.878   4.871  0.3307 -0.1511 -0.3013
   22MOL0     C 2892  11.156   2.925   4.913 -0.1136 -0.2786 -0.7774
   22MOL0     C 2893  11.182   3.062   4.905  0.4147  0.6515  0.9753
   22MOL0     O 2894  11.301   3.115   4.930 -0.4834 -1.1687 -0.2075
   22MOL0     C 2895  11.400   3.034   4.992 -0.1641  0.2190  0.2302
   22MOL0     C 2896  11.512   3.128   5.037 -0.0599  0.5289 -0.6843
   22MOL0     C 2897  11.450   3.231   5.133  0.0624  0.3842 -0.6366
   22MOL0     C 2898  11.547   3.302   5.216  0.0006 -0.1520 -0.4576
   22MOL0     C 2899  11.490   3.428   5.276 -0.5418  0.1022  0.3709
   22MOL0     C 2900  11.441   3.527   5.321  0.6578  0.1260 -0.7666
   22MOL0     C 2901  11.079   3.150   4.860 -0.1287  0.1790 -0.2040
   22MOL0     C 2902  10.961   3.101   4.803  0.6453  0.3157  0.3540
   22MOL0     H 2903  10.532   2.825   4.849 -1.0193 -0.6241  1.9917
   22MOL0     H 2904  10.336   2.750   4.747 -1.7756 -1.1190 -2.8522
   22MOL0     H 2905  10.164   2.630   4.665 -0.2297 -0.3600  0.3377
   22MOL0     H 2906  10.223   2.743   4.532  0.8742 -0.4234 -0.9753
   22MOL0     H 2907  10.105   2.604   4.370  0.2079 -3.4716 -0.9843
   22MOL0     H 2908  10.086   2.483   4.501  1.6103 -0.4915  0.1335
   22MOL0     H 2909   9.905   2.640   4.616  1.4300  1.6161  1.7562
   22MOL0     H 2910   9.973   2.763   4.499 -0.6617  0.4408  1.8192
   22MOL0     H 2911   9.901   2.627   4.308 -0.9024 -0.0616 -1.3381
   22MOL0     H 2912   9.842   2.496   4.427 -4.8582  1.8265  0.3123
   22MOL0     H 2913   9.684   2.641   4.524 -0.4072  3.0042  0.7158
   22MOL0     H 2914   9.735   2.776   4.419 -0.0045 -0.2755  1.6635
   22MOL0     H 2915   9.620   2.695   4.227  0.6321  2.5214  0.4421
   22MOL0     H 2916   9.604   2.531   4.308 -3.0198  0.9123  0.3748
   22MOL0     H 2917   9.476   2.750   4.462  1.1714  0.9137 -0.8647
   22MOL0     H 2918   9.416   2.752   4.293  2.8687  0.8277 -1.5771
   22MOL0     H 2919   9.397   2.528   4.499  2.4784  0.4476 -1.7744
   22MOL0     H 2920   9.357   2.496   4.337 -1.1602 -1.9322  1.8437
   22MOL0     H 2921   9.115   2.517   4.243 -3.1694 -0.2100 -1.3741
   22MOL0     H 2922   8.862   2.567   4.244 -1.7834  0.2302 -0.1904
   22MOL0     H 2923   8.811   2.627   4.403  2.2193  1.1355  1.6321
   22MOL0     H 2924   8.690   2.739   4.238  0.3660 -0.5166  1.4415
   22MOL0     H 2925   8.830   2.770   4.137 -0.0571 -1.2624  0.1040
   22MOL0     H 2926   8.880   2.950   4.331  0.5803 -0.7206 -0.0505
   22MOL0     H 2927   8.738   2.888   4.418 -1.4269  0.4623 -0.6266
   22MOL0     H 2928   8.702   2.993   4.146 -3.8363 -1.3403 -0.9952
   22MOL0     H 2929   8.675   3.098   4.282 -2.8730 -0.9428 -1.8885
   22MOL0     H 2930   8.298   2.930   4.276 -2.4935  1.9844  1.8645
   22MOL0     H 2931   8.068   2.966   4.254  3.4710 -0.2836 -0.8333
   22MOL0     H 2932   8.004   3.112   4.185  2.7946  1.6233  0.5179
   22MOL0     H 2933   8.006   2.969   4.082 -2.0143 -2.2349  1.8303
   22MOL0     H 2934   8.054   3.589   4.117  1.1165  4.6123 -0.7994
   22MOL0     H 2935   7.928   3.775   4.005 -0.0087 -0.6229  2.7233
   22MOL0     H 2936   7.851   3.859   3.546 -1.8670 -0.3139 -1.6029
   22MOL0     H 2937   7.835   3.700   3.575  1.3616  0.7097 -1.8629
   22MOL0     H 2938   7.658   3.775   3.763  2.2779 -0.2565  1.4637
   22MOL0     H 2939   7.687   3.934   3.688 -4.1763 -0.0385  0.9183
   22MOL0     H 2940   7.487   3.768   3.592  0.6446  0.2131  2.0449
   22MOL0     H 2941   7.618   3.692   3.508 -0.5818 -0.5922 -0.1981
   22MOL0     H 2942   7.567   3.992   3.471  0.3601  0.0838  0.0422
   22MOL0     H 2943   7.689   3.898   3.391  0.9736  0.8509  0.7098
   22MOL0     H 2944   7.517   3.757   3.285  0.4708 -0.6331  2.4923
   22MOL0     H 2945   7.513   3.928   3.234 -0.7583 -0.0573 -0.1757
   22MOL0     H 2946   7.317   3.771   3.417  0.3469  0.8248  0.9825
   22MOL0     H 2947   7.313   3.944   3.428 -3.3430 -0.1775 -0.0717
   22MOL0     H 2948   7.259   3.786   3.179 -0.5552  0.3680 -0.5968
   22MOL0     H 2949   7.300   3.963   3.182  2.7505 -1.4250  0.5522
   22MOL0     H 2950   7.081   4.008   3.318 -1.1533 -0.4391 -0.3497
   22MOL0     H 2951   7.035   3.844   3.306  0.2341 -0.8330  0.3971
   22MOL0     H 2952   8.008   3.597   3.628  2.0424 -0.6636 -0.5081
   22MOL0     H 2953   8.092   3.386   3.729  1.9209  0.5178  0.7655
   22MOL0     H 2954   8.402   3.235   3.901  0.1836  0.3108  1.0557
   22MOL0     H 2955   8.588   3.134   4.016 -0.0180  0.2416 -1.9206
   22MOL0     H 2956  10.558   2.468   4.526 -0.3730  0.6152 -0.3031
   22MOL0     H 2957  10.772   2.568   4.614 -0.1950 -1.7635  1.9961
   22MOL0     H 2958  11.027   2.770   4.868 -0.4682 -0.0647 -0.7402
   22MOL0     H 2959  11.231   2.851   4.936 -1.2705 -1.0351  0.7716
   22MOL0     H 2960  11.372   2.968   5.075 -0.3407  0.0772  0.0574
   22MOL0     H 2961  11.452   2.971   4.919  0.2856  3.2275 -2.2962
   22MOL0     H 2962  11.542   3.187   4.950 -1.2622 -0.0552 -1.5187
   22MOL0     H 2963  11.603   3.078   5.072  0.7695  0.8041 -2.3585
   22MOL0     H 2964  11.386   3.177   5.204  1.5501 -0.1447  0.3594
   22MOL0     H 2965  11.391   3.305   5.079  1.3313  1.9819  0.0633
   22MOL0     H 2966  11.640   3.328   5.164 -0.8309 -1.5027 -2.7623
   22MOL0     H 2967  11.567   3.232   5.298  0.7240  0.6446  0.0668
   22MOL0     H 2968  11.384   3.613   5.351  0.2346 -0.4609  0.1392
   22MOL0     H 2969  11.095   3.256   4.848  2.8103 -0.4262 -2.9836
   22MOL0     H 2970  10.885   3.164   4.757  2.2567  0.8045 -1.7469
   23MOL0     O 2971   1.231   8.639   2.734 -0.9432  0.8554  0.5495
   23MOL0     C 2972   1.241   8.751   2.784 -0.1295  0.9770  0.9328
   23MOL0     O 2973   1.139   8.826   2.834 -0.0264 -0.1183  0.0162
   23MOL0     C 2974   1.017   8.766   2.844  0.3932 -0.2961  0.4420
   23MOL0     C 2975   0.908   8.821   2.792  0.6984 -0.1714 -0.2853
   23MOL0     C 2976   0.778   8.778   2.809  0.6009  0.6791  0.1968
   23MOL0     C 2977   0.764   8.660   2.878  0.6250  0.2199 -0.8625
   23MOL0     O 2978   0.636   8.612   2.908 -0.8189 -0.0686 -0.3651
   23MOL0     C 2979   0.606   8.487   2.983  0.5835 -0.1552  0.8783
   23MOL0     C 2980   0.459   8.485   3.022  0.2366 -0.1516  0.1462
   23MOL0     C 2981   0.442   8.349   3.077  0.2782  0.0746 -0.2651
   23MOL0     C 2982   0.310   8.343   3.153 -0.2801 -0.5354  0.3694
   23MOL0     C 2983   0.262   8.204   3.194  0.0944  0.5773 -1.1878
   23MOL0     C 2984   0.136   8.214   3.290  0.1655 -1.1228  0.8136
   23MOL0     C 2985   0.065   8.076   3.317  0.5108 -0.3612 -0.3836
   23MOL0     C 2986   0.144   8.007   3.431 -1.1003 -0.2340 -0.6360
   23MOL0     N 2987   0.080   7.880   3.473  0.3504  0.6861 -0.0793
   23MOL0     C 2988   0.068   7.768   3.398  0.3087 -0.0010  0.8401
   23MOL0     C 2989   0.021   7.668   3.477  0.3555  0.3559  0.6568
   23MOL0     C 2990  -0.010   7.524   3.430  0.5490  0.2776 -0.2610
   23MOL0     C 2991  -0.160   7.494   3.436  0.2937 -0.1777 -0.2742
   23MOL0     C 2992  -0.196   7.356   3.382 -0.5798 -0.4064 -0.3395
   23MOL0     C 2993  -0.330   7.350   3.320 -0.0974 -0.1046 -0.1024
   23MOL0     O 2994  -0.353   7.214   3.273 -0.2456  0.3482  0.2576
   23MOL0     C 2995  -0.481   7.170   3.265 -1.6988 -0.6331  0.2293
   23MOL0     C 2996  -0.516   7.038   3.279 -0.0627  0.6039  0.5007
   23MOL0     C 2997  -0.644   6.991   3.252  0.0911  0.1170  0.0176
   23MOL0     C 2998  -0.666   6.838   3.260  0.4050 -0.5828  0.3952
   23MOL0     C 2999  -0.746   7.082   3.226 -0.1595 -0.7600 -0.0879
   23MOL0     C 3000  -0.891   7.043   3.221 -0.0369  0.3764  0.5932
   23MOL0     O 3001  -0.936   6.928   3.155 -0.2081 -0.9893  0.0393
   23MOL0     C 3002  -1.069   6.913   3.141  0.1450  0.6986 -0.0089
   23MOL0     C 3003  -1.145   7.001   3.065 -0.1354  0.2340  0.4182
   23MOL0     C 3004  -1.280   6.982   3.056 -0.2544  0.6640 -0.1816
   23MOL0     C 3005  -1.351   6.878   3.113  0.3534 -0.0156  0.0677
   23MOL0     O 3006  -1.485   6.872   3.089  0.4678 -0.7010  0.0031
   23MOL0     C 3007  -1.574   6.820   3.189 -0.2228  0.1703 -0.0783
   23MOL0     C 3008  -1.713   6.877   3.159 -0.2812  0.6936  0.4106
   23MOL0     C 3009  -1.725   7.034   3.168 -0.4826  0.0987  0.1343
   23MOL0     C 3010  -1.867   7.066   3.128 -0.8031 -0.1060 -1.0402
   23MOL0     C 3011  -1.895   7.206   3.156  0.1951 -0.0925  0.5708
   23MOL0     C 3012  -2.041   7.241   3.175  0.0123 -0.9504 -0.0625
   23MOL0     C 3013  -2.123   7.174   3.063 -0.4189 -0.1519  0.3185
   23MOL0     C 3014  -2.263   7.232   3.052  0.1879  0.5549  0.5465
   23MOL0    Cl 3015  -2.342   7.214   3.220 -0.3858 -0.0205  0.2548
   23MOL0     C 3016  -1.279   6.801   3.206  0.7326 -0.3346 -0.1277
   23MOL0     C 3017  -1.140   6.827   3.222  0.1091 -0.4209  0.3372
   23MOL0     O 3018  -0.963   7.129   3.260  0.2916 -0.2675  1.0282
   23MOL0     C 3019  -0.709   7.216   3.207  0.1455  0.4210  0.6511
   23MOL0     C 3020  -0.579   7.252   3.226 -0.5348 -0.5150  0.2337
   23MOL0     N 3021  -0.004   7.733   3.601  0.5677  0.1201  0.4414
   23MOL0     N 3022   0.044   7.851   3.600  0.2034 -0.1324 -0.5648
   23MOL0     C 3023   0.876   8.588   2.923  1.1978  0.5657  0.6956
   23MOL0     C 3024   1.000   8.639   2.906  0.5433 -0.2229 -0.2180
   23MOL0     C 3025   1.379   8.801   2.771  0.8148 -0.4791  0.1136
   23MOL0     C 3026   1.389   8.938   2.770 -0.3364  0.0698  0.1175
   23MOL0     C 3027   1.515   8.993   2.760  0.0230 -0.6425  0.1611
   23MOL0     C 3028   1.622   8.913   2.748 -0.5447 -0.4588 -0.2190
   23MOL0     O 3029   1.747   8.984   2.751  0.7851 -0.4605 -0.1551
   23MOL0     C 3030   1.863   8.895   2.736 -0.1230 -0.4940 -0.5523
   23MOL0     C 3031   1.987   8.977   2.694 -0.3524  0.1996 -0.7891
   23MOL0     C 3032   1.977   9.088   2.589 -0.3978  0.5502 -0.0835
   23MOL0     C 3033   2.105   9.177   2.601 -0.3703  0.0321 -1.2479
   23MOL0     C 3034   2.228   9.103   2.570 -0.0136 -0.3154 -1.0814
   23MOL0     C 3035   2.317   9.029   2.536 -0.6762 -0.4119 -0.2210
   23MOL0     C 3036   1.614   8.775   2.741  0.6167 -0.2229  0.2039
   23MOL0     C 3037   1.491   8.719   2.754 -0.7068  1.0317 -0.7783
   23MOL0     H 3038   0.927   8.915   2.743  1.7254 -0.4290 -0.4041
   23MOL0     H 3039   0.690   8.833   2.778  1.8547  3.8147  1.8161
   23MOL0     H 3040   0.632   8.406   2.915  0.4817  1.4550 -1.1807
   23MOL0     H 3041   0.664   8.480   3.075 -0.3979  2.5617  1.7866
   23MOL0     H 3042   0.445   8.566   3.095  1.1091 -0.5967  0.8330
   23MOL0     H 3043   0.392   8.490   2.936  2.3418  1.4371 -1.5210
   23MOL0     H 3044   0.462   8.263   3.013  2.5856 -0.9114  1.6228
   23MOL0     H 3045   0.523   8.329   3.148  0.1387  3.2197  0.9741
   23MOL0     H 3046   0.321   8.415   3.235  2.4667  0.5386 -0.8120
   23MOL0     H 3047   0.241   8.388   3.081  3.5114  1.4588 -2.4043
   23MOL0     H 3048   0.235   8.141   3.109 -0.2578 -0.5002 -0.3052
   23MOL0     H 3049   0.346   8.154   3.243  0.3672  0.6136 -1.6195
   23MOL0     H 3050   0.171   8.263   3.382 -0.9268 -0.3348  0.8258
   23MOL0     H 3051   0.060   8.278   3.245  1.1337 -0.7234 -0.3121
   23MOL0     H 3052  -0.036   8.097   3.355  0.7658 -3.0127  2.1315
   23MOL0     H 3053   0.055   8.012   3.228 -0.3681 -0.4635 -0.2223
   23MOL0     H 3054   0.146   8.078   3.515 -2.2926 -0.9091 -0.0172
   23MOL0     H 3055   0.244   7.975   3.400  0.0524  0.8978  1.6693
   23MOL0     H 3056   0.080   7.752   3.292  0.9117 -0.0036  0.9041
   23MOL0     H 3057   0.026   7.513   3.327 -2.4356  1.0950 -1.5009
   23MOL0     H 3058   0.036   7.452   3.498 -3.3331 -0.3286  2.0199
   23MOL0     H 3059  -0.209   7.557   3.361  0.8218  2.1933  1.2535
   23MOL0     H 3060  -0.198   7.500   3.538  3.2520  1.4720  0.8556
   23MOL0     H 3061  -0.193   7.289   3.469 -1.4378  3.0433  2.6055
   23MOL0     H 3062  -0.122   7.323   3.309 -1.1993 -1.9741 -0.3025
   23MOL0     H 3063  -0.326   7.412   3.230  2.2142  3.1920  2.0174
   23MOL0     H 3064  -0.404   7.387   3.393  1.0470  0.1262  0.9797
   23MOL0     H 3065  -0.442   6.961   3.298 -0.5135 -0.1613 -0.6617
   23MOL0     H 3066  -0.731   6.805   3.179 -0.4884  1.9494 -0.0022
   23MOL0     H 3067  -0.575   6.785   3.229 -0.1548 -0.5113 -1.4996
   23MOL0     H 3068  -0.704   6.807   3.358 -4.0949  0.7166 -0.6978
   23MOL0     H 3069  -1.097   7.088   3.021  1.4844  0.5646  2.6874
   23MOL0     H 3070  -1.336   7.052   2.995  0.5004  0.5356 -1.0474
   23MOL0     H 3071  -1.580   6.710   3.188  0.0472  0.1373 -1.9260
   23MOL0     H 3072  -1.547   6.848   3.291 -0.1160 -2.1263  0.5882
   23MOL0     H 3073  -1.746   6.842   3.061 -2.9893 -3.0009  2.3767
   23MOL0     H 3074  -1.781   6.830   3.231 -1.6412  1.1897 -0.4956
   23MOL0     H 3075  -1.650   7.080   3.104  1.0103 -2.6950 -0.2967
   23MOL0     H 3076  -1.709   7.060   3.273 -1.6976 -2.4314  1.0363
   23MOL0     H 3077  -1.878   7.051   3.020 -0.8406  0.5676 -1.1336
   23MOL0     H 3078  -1.924   6.995   3.189  0.7151 -1.2118 -0.8294
   23MOL0     H 3079  -1.849   7.250   3.067  0.0163 -3.2979 -1.2477
   23MOL0     H 3080  -1.843   7.231   3.249 -1.4866  1.4605  1.1344
   23MOL0     H 3081  -2.077   7.206   3.272 -2.3766  1.4716  0.0350
   23MOL0     H 3082  -2.054   7.349   3.186 -0.8465 -0.7181 -2.6612
   23MOL0     H 3083  -2.140   7.067   3.075 -0.9449 -0.3268 -1.6532
   23MOL0     H 3084  -2.079   7.187   2.963 -1.7530 -2.0368 -0.5585
   23MOL0     H 3085  -2.318   7.173   2.978  3.5361  0.1807 -1.8785
   23MOL0     H 3086  -2.264   7.330   3.004 -2.5470  0.7716  0.8903
   23MOL0     H 3087  -1.342   6.726   3.253 -0.0896  1.2126  1.3477
   23MOL0     H 3088  -1.084   6.769   3.295  1.6591 -3.2288 -2.8191
   23MOL0     H 3089  -0.776   7.294   3.172  0.3645 -0.0632 -0.9548
   23MOL0     H 3090  -0.563   7.359   3.209  2.0219 -0.8085  0.2820
   23MOL0     H 3091   0.859   8.493   2.974 -2.0461  0.5184 -0.2419
   23MOL0     H 3092   1.087   8.588   2.944  1.1318  1.5167  0.8798
   23MOL0     H 3093   1.306   9.008   2.776  0.1921  0.6628  0.8705
   23MOL0     H 3094   1.507   9.099   2.738  1.7135 -0.4983  0.1570
   23MOL0     H 3095   1.886   8.849   2.832  1.3066  3.4931  1.1925
   23MOL0     H 3096   1.851   8.819   2.658 -0.3862 -0.8727 -0.1473
   23MOL0     H 3097   2.072   8.911   2.675  2.7932  3.0840  1.9358
   23MOL0     H 3098   2.019   9.024   2.787  0.0111 -1.5303  0.0091
   23MOL0     H 3099   1.885   9.141   2.614 -0.5739 -0.5967  1.8909
   23MOL0     H 3100   1.972   9.039   2.491 -0.0502  1.3136 -0.4864
   23MOL0     H 3101   2.126   9.207   2.704 -1.2242  0.6993 -1.2651
   23MOL0     H 3102   2.105   9.261   2.531  2.5839  0.9736 -0.2928
   23MOL0     H 3103   2.388   8.950   2.529 -1.3462 -0.9792 -0.8405
   23MOL0     H 3104   1.695   8.708   2.716  0.4721 -0.8666  1.3918
   23MOL0     H 3105   1.475   8.612   2.739  1.8989  0.6359 -1.3107
   24MOL0     O 3106   8.380   0.755  10.496 -0.2302  0.8094 -0.1901
   24MOL0     C 3107   8.367   0.862  10.445  0.1014  0.1571  0.1438
   24MOL0     O 3108   8.252   0.914  10.405  0.7484 -0.0669 -0.2494
   24MOL0     C 3109   8.123   0.862  10.422 -0.1725 -0.0144 -0.1215
   24MOL0     C 3110   8.082   0.742  10.485 -0.6513  0.4917  0.0934
   24MOL0     C 3111   7.947   0.713  10.504 -0.1396  1.1203  0.0737
   24MOL0     C 3112   7.849   0.801  10.457  0.4663  0.2761 -0.0597
   24MOL0     O 3113   7.715   0.771  10.469  0.1993 -0.9025  0.6860
   24MOL0     C 3114   7.665   0.685  10.570  0.5359 -0.3743 -0.3160
   24MOL0     C 3115   7.516   0.698  10.582  0.2083 -0.3469  0.0239
   24MOL0     C 3116   7.450   0.610  10.481  0.9567 -0.4264 -0.8432
   24MOL0     C 3117   7.299   0.654  10.461  0.0523  0.7322 -0.0365
   24MOL0     C 3118   7.193   0.546  10.415 -0.6065 -0.2914 -0.3423
   24MOL0     C 3119   7.212   0.500  10.268  1.2159 -0.0005 -0.3681
   24MOL0     C 3120   7.092   0.416  10.227 -0.2960  0.0221  0.0986
   24MOL0     C 3121   7.121   0.343  10.087  0.2817  0.6761 -0.4565
   24MOL0     N 3122   7.171   0.208  10.119 -0.3154 -0.5399  0.3339
   24MOL0     C 3123   7.105   0.092  10.168  0.6660 -0.4050 -0.5817
   24MOL0     C 3124   7.196  -0.009  10.168  0.7069  0.7155  1.3754
   24MOL0     C 3125   7.185  -0.159  10.169  0.4347 -0.2212 -0.4886
   24MOL0     C 3126   7.045  -0.222  10.186  0.1569  0.8955  0.3843
   24MOL0     C 3127   7.075  -0.371  10.233 -0.1439 -0.1654  0.3715
   24MOL0     C 3128   6.953  -0.465  10.202  0.1352  0.1754  0.2941
   24MOL0     O 3129   6.853  -0.446  10.309 -0.3470  0.0954  0.2289
   24MOL0     C 3130   6.744  -0.525  10.321 -0.3470 -0.5156  0.9250
   24MOL0     C 3131   6.713  -0.618  10.223 -0.5423 -0.0621 -0.1084
   24MOL0     C 3132   6.598  -0.696  10.229 -0.0313  0.1559  0.6823
   24MOL0     C 3133   6.576  -0.803  10.116  0.2010 -0.3952  0.1814
   24MOL0     C 3134   6.507  -0.679  10.342 -1.2570 -0.3669 -0.2919
   24MOL0     C 3135   6.379  -0.752  10.357  0.2606  0.0338  0.7977
   24MOL0     O 3136   6.362  -0.824  10.467 -0.3770 -0.6468  0.2920
   24MOL0     C 3137   6.244  -0.899  10.461 -0.0405 -0.3077 -0.3594
   24MOL0     C 3138   6.119  -0.838  10.485  0.0590 -0.1020  0.3684
   24MOL0     C 3139   5.998  -0.914  10.490 -1.1346  0.0456  0.1704
   24MOL0     C 3140   6.002  -1.054  10.466 -0.2204 -0.1579 -0.0399
   24MOL0     O 3141   5.881  -1.120  10.456 -0.4750 -0.2984  0.4991
   24MOL0     C 3142   5.872  -1.253  10.510  0.2885  0.5028  0.0382
   24MOL0     C 3143   5.849  -1.355  10.396  0.0406  0.2764 -0.6334
   24MOL0     C 3144   5.938  -1.488  10.423  0.6441  0.1145 -0.2421
   24MOL0     C 3145   5.914  -1.583  10.309 -0.3873 -0.6236  0.6203
   24MOL0     C 3146   5.986  -1.723  10.327  0.1151  1.1176  0.1398
   24MOL0     C 3147   5.981  -1.804  10.190 -0.9307  0.2323  0.0876
   24MOL0     C 3148   5.854  -1.789  10.102  0.3351  0.0266 -0.6479
   24MOL0     C 3149   5.847  -1.899   9.997  0.0443  0.1925  0.5260
   24MOL0    Cl 3150   5.674  -1.930   9.937 -0.2126  0.1558  0.0236
   24MOL0     C 3151   6.130  -1.110  10.440  1.1559  0.1608 -1.3140
   24MOL0     C 3152   6.250  -1.041  10.443 -0.0059 -0.0228  0.0498
   24MOL0     O 3153   6.304  -0.744  10.260  0.3644  0.2768 -0.2593
   24MOL0     C 3154   6.553  -0.590  10.446 -0.3096 -0.2685  0.7057
   24MOL0     C 3155   6.668  -0.509  10.429 -0.0394 -0.0660  0.1795
   24MOL0     N 3156   7.314   0.047  10.131  0.7368  0.4004  0.2500
   24MOL0     N 3157   7.303   0.180  10.123  0.0913  0.8771 -0.5231
   24MOL0     C 3158   7.890   0.927  10.403 -0.0679  0.4407  0.2022
   24MOL0     C 3159   8.026   0.949  10.385 -0.1825 -0.1538 -0.3633
   24MOL0     C 3160   8.486   0.932  10.392  0.2492  0.1373  0.7432
   24MOL0     C 3161   8.490   1.047  10.304  0.4294 -0.9615  0.0366
   24MOL0     C 3162   8.609   1.120  10.272  0.2350  0.5076 -0.3241
   24MOL0     C 3163   8.730   1.081  10.318  0.3935  0.4649  0.0381
   24MOL0     O 3164   8.845   1.150  10.270  0.0768 -0.1886 -0.4606
   24MOL0     C 3165   8.979   1.104  10.293 -1.0326 -0.2164 -0.0016
   24MOL0     C 3166   9.077   1.214  10.242  0.2647  0.1005 -0.0163
   24MOL0     C 3167   9.225   1.172  10.260 -0.1913  0.6583 -0.8668
   24MOL0     C 3168   9.318   1.286  10.255 -0.1438 -0.5751 -0.3110
   24MOL0     C 3169   9.316   1.365  10.382 -0.2751 -0.0044  0.4167
   24MOL0     C 3170   9.303   1.433  10.484  0.0566 -0.5561 -0.0151
   24MOL0     C 3171   8.734   0.974  10.405  0.0924 -0.6326  0.4163
   24MOL0     C 3172   8.617   0.897  10.440  0.0225  0.1047 -0.6492
   24MOL0     H 3173   8.154   0.670  10.523 -0.8604 -0.2701 -0.9015
   24MOL0     H 3174   7.918   0.621  10.553  1.4876  0.3839 -0.3132
   24MOL0     H 3175   7.684   0.584  10.531 -2.5843 -1.6307  1.0781
   24MOL0     H 3176   7.710   0.706  10.667  0.1170  2.6729 -0.7055
   24MOL0     H 3177   7.479   0.673  10.682  0.2772 -2.2978 -0.3986
   24MOL0     H 3178   7.487   0.801  10.559  3.1647  0.5421 -0.1369
   24MOL0     H 3179   7.498   0.611  10.382 -0.2975 -1.7075 -1.4952
   24MOL0     H 3180   7.452   0.505  10.512 -0.4429 -0.4548 -0.7969
   24MOL0     H 3181   7.259   0.689  10.557 -4.1449  1.7995 -1.9386
   24MOL0     H 3182   7.287   0.744  10.400  1.2239  1.6045  0.9774
   24MOL0     H 3183   7.216   0.460  10.478  0.8880  0.1392 -0.2582
   24MOL0     H 3184   7.093   0.584  10.435 -0.4994 -0.2883  0.1834
   24MOL0     H 3185   7.218   0.589  10.205 -1.9105 -0.5844 -1.6954
   24MOL0     H 3186   7.305   0.443  10.273  1.4271  0.4602  1.8518
   24MOL0     H 3187   7.063   0.333  10.293  2.1841 -0.6024  0.4975
   24MOL0     H 3188   7.007   0.481  10.204 -0.9474 -1.4146 -1.8439
   24MOL0     H 3189   7.197   0.404  10.037  0.5410  0.9573  0.2721
   24MOL0     H 3190   7.028   0.330  10.031 -0.6082 -0.5151  1.2165
   24MOL0     H 3191   7.000   0.074  10.189  1.0649 -1.6090  0.5297
   24MOL0     H 3192   7.245  -0.207  10.091  2.3697 -0.9304  1.3457
   24MOL0     H 3193   7.244  -0.184  10.257 -1.0112 -2.4134 -0.0639
   24MOL0     H 3194   6.999  -0.211  10.087  3.4706 -0.0381 -1.4027
   24MOL0     H 3195   6.995  -0.167  10.266  0.3996  1.8309 -0.0981
   24MOL0     H 3196   7.097  -0.377  10.340 -1.1445 -1.1058  0.5421
   24MOL0     H 3197   7.157  -0.416  10.175  0.8780  1.4373  0.5372
   24MOL0     H 3198   6.984  -0.570  10.211  0.3947  0.4197  3.2495
   24MOL0     H 3199   6.915  -0.433  10.105  1.1828  0.5329 -0.0168
   24MOL0     H 3200   6.783  -0.641  10.143 -2.4247  0.4113 -1.9613
   24MOL0     H 3201   6.472  -0.802  10.082 -0.5987  3.2326  2.1767
   24MOL0     H 3202   6.631  -0.780  10.024 -1.2055 -0.7109 -0.7682
   24MOL0     H 3203   6.611  -0.901  10.149 -1.0002 -1.2863 -1.0736
   24MOL0     H 3204   6.115  -0.735  10.520 -2.2941 -0.5275  1.5630
   24MOL0     H 3205   5.898  -0.872  10.497 -0.5591  1.5099 -0.1230
   24MOL0     H 3206   5.958  -1.275  10.575 -0.5205  1.1584  1.3641
   24MOL0     H 3207   5.780  -1.253  10.569  0.3237 -1.1778  0.1551
   24MOL0     H 3208   5.744  -1.385  10.402  0.4939 -1.1198  1.3932
   24MOL0     H 3209   5.857  -1.302  10.301  0.3998  0.3266 -0.5744
   24MOL0     H 3210   5.910  -1.535  10.517 -0.5425 -0.2717 -0.7673
   24MOL0     H 3211   6.046  -1.470  10.420  1.1240 -2.4488 -0.8880
   24MOL0     H 3212   5.807  -1.591  10.291 -0.8351  1.5361  1.9753
   24MOL0     H 3213   5.950  -1.539  10.215 -2.3954 -1.5869 -0.6795
   24MOL0     H 3214   5.935  -1.785  10.402 -2.9261  2.6327 -0.5199
   24MOL0     H 3215   6.087  -1.711  10.365 -0.0510  1.4961  0.4706
   24MOL0     H 3216   6.058  -1.753  10.130  0.5154  0.7562  2.2776
   24MOL0     H 3217   5.996  -1.912  10.201 -2.4814 -0.0686 -0.6008
   24MOL0     H 3218   5.851  -1.689  10.058  0.3792  0.8523  1.1304
   24MOL0     H 3219   5.763  -1.804  10.161  0.0680  0.5539 -0.9136
   24MOL0     H 3220   5.879  -1.997  10.035 -4.2821 -1.5652  0.2500
   24MOL0     H 3221   5.915  -1.863   9.920  1.7202  1.8564  2.6563
   24MOL0     H 3222   6.140  -1.218  10.433  2.0674  0.2018 -0.8495
   24MOL0     H 3223   6.341  -1.096  10.420 -0.9253 -0.6381 -2.4455
   24MOL0     H 3224   6.490  -0.582  10.534  2.5614  3.0460  2.7406
   24MOL0     H 3225   6.703  -0.443  10.508 -2.1984  2.0818 -0.5223
   24MOL0     H 3226   7.817   1.004  10.379 -0.6476 -0.1451  0.0486
   24MOL0     H 3227   8.054   1.049  10.353  0.0715 -0.0571  0.1560
   24MOL0     H 3228   8.400   1.072  10.248  0.2645  1.5221  1.3072
   24MOL0     H 3229   8.599   1.188  10.189 -2.0966 -0.0904 -0.6284
   24MOL0     H 3230   8.999   1.091  10.400  2.4393  1.5679 -0.2947
   24MOL0     H 3231   9.004   1.012  10.240 -0.1211  0.9389 -1.6486
   24MOL0     H 3232   9.056   1.309  10.291 -0.9085  0.4172 -1.0755
   24MOL0     H 3233   9.057   1.227  10.135 -2.1603  0.4349  0.4024
   24MOL0     H 3234   9.240   1.104  10.175 -1.0559 -1.0574  0.2889
   24MOL0     H 3235   9.236   1.110  10.350  0.5203  1.9359 -0.0384
   24MOL0     H 3236   9.299   1.357  10.174 -1.8084 -1.0691 -0.3850
   24MOL0     H 3237   9.423   1.256  10.239  0.6157  1.8945 -0.2859
   24MOL0     H 3238   9.287   1.495  10.570  1.6009  2.0878 -1.4825
   24MOL0     H 3239   8.829   0.937  10.441  0.3895 -0.9310 -0.6464
   24MOL0     H 3240   8.632   0.807  10.500 -1.2366 -1.4399 -2.5330
   25MOL0     O 3241   3.155   0.568   6.871  0.3423 -0.1162 -0.1317
   25MOL0     C 3242   3.183   0.511   6.971  0.0079  0.6393 -0.5642
   25MOL0     O 3243   3.100   0.487   7.084  0.9228 -0.1148  0.4058
   25MOL0     C 3244   2.964   0.505   7.065  0.5782 -0.1102  0.7278
   25MOL0     C 3245   2.886   0.399   7.024  0.4293 -0.2039  0.0062
   25MOL0     C 3246   2.752   0.426   7.007  0.0130 -0.2335  1.5465
   25MOL0     C 3247   2.686   0.546   7.041 -0.5366 -0.5737 -0.3259
   25MOL0     O 3248   2.554   0.571   7.027  0.0873  0.2469  0.0150
   25MOL0     C 3249   2.473   0.539   7.137 -0.0709 -0.1301  0.6426
   25MOL0     C 3250   2.325   0.543   7.096 -0.9388  0.0515  0.1225
   25MOL0     C 3251   2.278   0.680   7.054 -0.0151 -0.9397  0.9444
   25MOL0     C 3252   2.150   0.674   6.971 -0.7595  0.4683 -0.0776
   25MOL0     C 3253   2.101   0.813   6.918  0.3841 -0.0053  0.3039
   25MOL0     C 3254   1.976   0.797   6.821  0.1030  0.6210  0.8208
   25MOL0     C 3255   1.938   0.937   6.782  0.0977 -0.2355  0.0141
   25MOL0     C 3256   1.837   0.940   6.657 -0.2805 -0.0533 -1.0445
   25MOL0     N 3257   1.694   0.959   6.676  0.2621 -1.1103 -0.8329
   25MOL0     C 3258   1.631   0.889   6.776 -0.2574 -0.3309  0.0360
   25MOL0     C 3259   1.514   0.945   6.795 -0.3370 -0.6440 -0.5825
   25MOL0     C 3260   1.420   0.914   6.900 -0.2780  0.0548 -0.3983
   25MOL0     C 3261   1.295   0.850   6.840 -0.3869 -0.2863 -0.1645
   25MOL0     C 3262   1.190   0.828   6.945 -0.1286 -0.8542  0.5718
   25MOL0     C 3263   1.084   0.755   6.877  0.6837  0.4387  0.2812
   25MOL0     O 3264   0.972   0.774   6.965  0.5418  0.7893 -0.1850
   25MOL0     C 3265   0.852   0.713   6.937 -1.0052 -0.0993  0.2179
   25MOL0     C 3266   0.752   0.720   7.032 -0.3325  0.7669 -0.0742
   25MOL0     C 3267   0.621   0.663   7.010  0.0241  0.8516  0.3981
   25MOL0     C 3268   0.513   0.689   7.114 -0.0309  0.4423  0.5169
   25MOL0     C 3269   0.605   0.581   6.895  0.9124 -0.7172 -0.2289
   25MOL0     C 3270   0.476   0.515   6.862  0.4324  0.0228 -0.4568
   25MOL0     O 3271   0.452   0.485   6.729 -0.5491  0.3510 -0.6438
   25MOL0     C 3272   0.324   0.438   6.702 -0.3882  0.2393  0.1474
   25MOL0     C 3273   0.228   0.529   6.655  0.1455 -0.2765  0.0046
   25MOL0     C 3274   0.099   0.491   6.612 -0.3874  0.6571 -0.3180
   25MOL0     C 3275   0.062   0.356   6.628  0.6544 -0.8617 -0.1968
   25MOL0     O 3276  -0.072   0.324   6.613 -0.1805 -0.6960  0.3639
   25MOL0     C 3277  -0.129   0.227   6.703 -0.1315  0.1716 -0.1714
   25MOL0     C 3278  -0.278   0.223   6.690 -0.2763 -0.1925 -0.0269
   25MOL0     C 3279  -0.344   0.358   6.734 -0.2253 -0.1139  1.1775
   25MOL0     C 3280  -0.483   0.381   6.673  0.0692 -0.4785 -0.0962
   25MOL0     C 3281  -0.597   0.274   6.708 -0.3252 -0.0314 -0.7991
   25MOL0     C 3282  -0.720   0.314   6.639 -0.6274 -0.5155  0.1224
   25MOL0     C 3283  -0.831   0.207   6.639 -0.2324 -0.1518  0.4407
   25MOL0     C 3284  -0.931   0.253   6.536  0.3997  1.0962  1.6152
   25MOL0    Cl 3285  -1.064   0.139   6.510 -0.0419  0.0588  0.1414
   25MOL0     C 3286   0.157   0.258   6.660 -0.6036  0.5136  0.2551
   25MOL0     C 3287   0.288   0.296   6.700  0.5902  0.3674 -0.2736
   25MOL0     O 3288   0.401   0.475   6.952  0.5166  0.3649 -0.3680
   25MOL0     C 3289   0.706   0.585   6.794 -0.7279  0.3292 -0.0869
   25MOL0     C 3290   0.825   0.652   6.811 -0.8599  0.7936 -0.5333
   25MOL0     N 3291   1.504   1.050   6.710 -0.1316 -0.1694  0.2853
   25MOL0     N 3292   1.619   1.064   6.642  0.1737 -0.4753 -0.1483
   25MOL0     C 3293   2.770   0.649   7.089 -0.3616  0.5203  0.6977
   25MOL0     C 3294   2.910   0.625   7.092 -0.0020 -0.1348  0.1231
   25MOL0     C 3295   3.321   0.445   6.970  0.6773  0.3898 -1.0123
   25MOL0     C 3296   3.365   0.353   7.065  0.8698 -0.1594  0.2922
   25MOL0     C 3297   3.497   0.301   7.076  0.6507  1.4131 -0.2331
   25MOL0     C 3298   3.591   0.355   6.981  0.3212  0.1631  0.6703
   25MOL0     O 3299   3.728   0.324   6.975  0.1663  0.0945 -0.1477
   25MOL0     C 3300   3.780   0.263   7.094  0.0028 -0.7137 -0.1251
   25MOL0     C 3301   3.926   0.244   7.071  0.0945 -0.2230 -0.5310
   25MOL0     C 3302   3.964   0.161   6.942  0.2744 -0.1340  0.0300
   25MOL0     C 3303   3.912   0.020   6.936 -0.1563  0.0414 -0.9449
   25MOL0     C 3304   3.979  -0.074   7.041  0.3326 -0.6122 -0.2194
   25MOL0     C 3305   4.025  -0.149   7.126  0.5605  0.5999  0.0745
   25MOL0     C 3306   3.546   0.432   6.873  0.0898 -0.1037 -0.6918
   25MOL0     C 3307   3.416   0.477   6.876 -1.0244 -0.4780  0.5307
   25MOL0     H 3308   2.941   0.309   7.001 -1.7318 -1.5980 -0.0443
   25MOL0     H 3309   2.681   0.352   6.969 -0.1168 -1.1855  3.5220
   25MOL0     H 3310   2.499   0.444   7.184  2.5257 -0.0068 -0.4238
   25MOL0     H 3311   2.489   0.625   7.203  2.1986 -1.6025  2.1523
   25MOL0     H 3312   2.306   0.470   7.017  2.5423 -1.6156  0.6300
   25MOL0     H 3313   2.266   0.510   7.182  2.4155 -1.5753  2.0031
   25MOL0     H 3314   2.259   0.739   7.144  2.2141  1.5068 -0.0745
   25MOL0     H 3315   2.353   0.734   6.997 -1.0702 -0.2348  0.1981
   25MOL0     H 3316   2.165   0.615   6.880 -1.3782  1.3944 -0.8050
   25MOL0     H 3317   2.074   0.621   7.028 -0.4757  1.5138  1.3240
   25MOL0     H 3318   2.071   0.874   7.003  0.7321  0.9738 -0.2608
   25MOL0     H 3319   2.178   0.864   6.860  0.6034 -1.3240 -0.6205
   25MOL0     H 3320   2.008   0.743   6.732 -0.7392 -4.5681  3.3068
   25MOL0     H 3321   1.898   0.738   6.868  0.9667 -1.0802  0.2008
   25MOL0     H 3322   1.885   0.966   6.873  2.4389 -0.6155  1.5843
   25MOL0     H 3323   2.018   1.010   6.771 -0.0482 -0.4166 -2.8885
   25MOL0     H 3324   1.855   0.856   6.590 -0.6363 -2.4467  1.6607
   25MOL0     H 3325   1.866   1.027   6.598 -0.2652  1.2308  0.7501
   25MOL0     H 3326   1.662   0.803   6.835 -1.2405  0.2963  1.5324
   25MOL0     H 3327   1.459   0.841   6.971  2.4529  0.4189 -1.4128
   25MOL0     H 3328   1.397   1.004   6.957  0.0348 -0.4510  0.5369
   25MOL0     H 3329   1.338   0.756   6.804 -0.2221  0.0832 -0.9285
   25MOL0     H 3330   1.248   0.905   6.758  1.4723  0.7060 -0.6059
   25MOL0     H 3331   1.162   0.928   6.978  1.0104 -0.1665 -0.4530
   25MOL0     H 3332   1.235   0.771   7.028 -0.3800  2.7297  3.4466
   25MOL0     H 3333   1.115   0.653   6.856  2.7187  1.2693 -1.1063
   25MOL0     H 3334   1.062   0.805   6.782  2.4177  1.7204  0.5048
   25MOL0     H 3335   0.760   0.759   7.133  0.8059  2.9048 -0.9271
   25MOL0     H 3336   0.424   0.735   7.070 -0.2547  0.8314  1.3497
   25MOL0     H 3337   0.483   0.600   7.169  2.3783  0.1346  1.4592
   25MOL0     H 3338   0.542   0.761   7.192  0.0537 -1.4630  2.3474
   25MOL0     H 3339   0.256   0.634   6.642 -0.0927 -0.2926 -0.6619
   25MOL0     H 3340   0.028   0.571   6.592  0.0382  1.5580  1.5693
   25MOL0     H 3341  -0.096   0.127   6.671 -1.4098 -0.2516 -0.2034
   25MOL0     H 3342  -0.096   0.256   6.803 -5.7056  0.6880  1.8405
   25MOL0     H 3343  -0.309   0.197   6.588 -0.1915  0.9299 -0.3570
   25MOL0     H 3344  -0.318   0.149   6.761 -2.0847 -0.4442 -1.2286
   25MOL0     H 3345  -0.294   0.451   6.706 -2.1651  0.4688 -0.6354
   25MOL0     H 3346  -0.345   0.363   6.843 -0.2058  1.9867  1.1249
   25MOL0     H 3347  -0.522   0.478   6.707  0.9705 -0.9178  2.3747
   25MOL0     H 3348  -0.462   0.401   6.567  0.1011  2.3721  0.3515
   25MOL0     H 3349  -0.620   0.293   6.813  0.5361 -0.1215 -0.5909
   25MOL0     H 3350  -0.583   0.167   6.687 -0.1330 -1.0146  3.4590
   25MOL0     H 3351  -0.752   0.408   6.683 -0.3984  1.3485 -3.2963
   25MOL0     H 3352  -0.694   0.344   6.537 -3.2191 -0.1751 -0.5144
   25MOL0     H 3353  -0.884   0.194   6.734 -2.4785 -2.3657 -0.9806
   25MOL0     H 3354  -0.789   0.112   6.605  1.8588  0.3292  1.5441
   25MOL0     H 3355  -0.872   0.267   6.446  1.0148  1.7599  2.1119
   25MOL0     H 3356  -0.975   0.352   6.549 -3.5415 -0.6236  3.1611
   25MOL0     H 3357   0.131   0.153   6.664 -0.4199  0.4794  0.5289
   25MOL0     H 3358   0.359   0.225   6.740  0.8873  1.1229  0.5815
   25MOL0     H 3359   0.674   0.552   6.696  1.6532  2.3981 -1.6627
   25MOL0     H 3360   0.901   0.653   6.733 -0.1484 -0.1935  0.1275
   25MOL0     H 3361   2.721   0.741   7.120  0.3004  0.6840  1.2671
   25MOL0     H 3362   2.974   0.704   7.132  0.0808 -0.7741  1.2926
   25MOL0     H 3363   3.289   0.317   7.133 -0.4556  0.4730 -0.7846
   25MOL0     H 3364   3.508   0.225   7.152  2.0496  2.0082  0.1937
   25MOL0     H 3365   3.761   0.327   7.180  0.2105 -0.3674 -0.3332
   25MOL0     H 3366   3.728   0.167   7.104 -3.1804  0.7904 -0.8010
   25MOL0     H 3367   3.968   0.190   7.156  0.9778  2.3304  0.7654
   25MOL0     H 3368   3.980   0.339   7.061 -1.2621  0.7089  0.5012
   25MOL0     H 3369   4.072   0.154   6.926 -0.1784 -1.0891 -3.4642
   25MOL0     H 3370   3.931   0.203   6.846 -0.2534 -1.7713 -0.5474
   25MOL0     H 3371   3.931  -0.031   6.841  1.0899 -0.0324 -0.6732
   25MOL0     H 3372   3.804   0.013   6.954  0.0116 -1.5588 -0.4239
   25MOL0     H 3373   4.070  -0.224   7.189 -0.7697  0.0408  0.3923
   25MOL0     H 3374   3.620   0.465   6.800  1.1672  0.1826  0.4924
   25MOL0     H 3375   3.401   0.558   6.806  3.1386  1.4895  1.5916
   26MOL0     O 3376   4.996   8.970  10.038  0.6409 -0.6466 -0.1892
   26MOL0     C 3377   4.973   8.858  10.022  0.7687  1.2064  0.0080
   26MOL0     O 3378   4.853   8.786  10.038  0.0952 -0.5541 -0.3579
   26MOL0     C 3379   4.736   8.844  10.081 -0.1972 -0.0155 -0.3248
   26MOL0     C 3380   4.703   8.973  10.114 -0.3888 -0.6591 -0.2211
   26MOL0     C 3381   4.573   9.008  10.151 -0.0047  0.4640 -0.4761
   26MOL0     C 3382   4.473   8.909  10.159 -0.8585 -0.9782 -0.4958
   26MOL0     O 3383   4.349   8.919  10.209  0.9086 -0.0940 -0.4682
   26MOL0     C 3384   4.289   9.051  10.223 -0.7093  0.0167  0.3126
   26MOL0     C 3385   4.146   9.022  10.274 -0.6249 -0.2986 -0.1965
   26MOL0     C 3386   4.061   8.940  10.178  0.2479 -0.4285  0.2942
   26MOL0     C 3387   3.914   8.928  10.231 -0.5067  0.0373  0.0658
   26MOL0     C 3388   3.816   8.876  10.123  0.2400  0.2902  0.4930
   26MOL0     C 3389   3.674   8.848  10.173 -0.4430  0.0537 -0.0179
   26MOL0     C 3390   3.575   8.874  10.059  0.1035 -0.1083  0.0038
   26MOL0     C 3391   3.448   8.795  10.074 -0.6498  0.2908  0.8736
   26MOL0     N 3392   3.341   8.892  10.057  0.6479  0.6731 -0.1676
   26MOL0     C 3393   3.285   8.936   9.935 -1.1641 -0.0238  0.1866
   26MOL0     C 3394   3.185   9.021   9.964 -0.2503 -0.0978 -0.0187
   26MOL0     C 3395   3.112   9.090   9.856 -0.5463 -0.5336  0.0413
   26MOL0     C 3396   3.000   9.002   9.792  0.8180 -0.0986 -1.2753
   26MOL0     C 3397   2.893   8.976   9.897 -0.0342  0.0729  0.1719
   26MOL0     C 3398   2.773   8.894   9.842 -0.5971 -0.6573  0.2443
   26MOL0     O 3399   2.704   8.957   9.737  0.4711 -0.4596  0.0871
   26MOL0     C 3400   2.571   8.922   9.709 -0.2252 -0.2565 -0.5568
   26MOL0     C 3401   2.514   8.799   9.741 -0.6952 -0.7284 -1.0612
   26MOL0     C 3402   2.380   8.765   9.702  0.0202 -0.8276  0.2048
   26MOL0     C 3403   2.327   8.630   9.720 -0.1821  1.1175 -0.5353
   26MOL0     C 3404   2.308   8.865   9.634  1.6508  0.0098  0.8501
   26MOL0     C 3405   2.171   8.840   9.588  0.1545 -0.1852  0.1064
   26MOL0     O 3406   2.084   8.765   9.653  0.1343 -0.4774 -0.3846
   26MOL0     C 3407   1.953   8.764   9.618  0.5607 -0.1605  0.3609
   26MOL0     C 3408   1.855   8.855   9.678  0.7884 -0.3418  0.8864
   26MOL0     C 3409   1.724   8.852   9.631 -0.6394 -0.9489 -0.4738
   26MOL0     C 3410   1.678   8.767   9.528 -0.8268 -0.4411 -0.3533
   26MOL0     O 3411   1.558   8.759   9.466 -0.6671  0.8132 -0.2325
   26MOL0     C 3412   1.444   8.800   9.535  0.5241  0.4463  0.3535
   26MOL0     C 3413   1.320   8.758   9.471 -0.7270  1.1211 -0.2279
   26MOL0     C 3414   1.217   8.803   9.567 -0.4770 -0.0114 -0.5944
   26MOL0     C 3415   1.081   8.758   9.508  0.9840  0.0204 -1.0484
   26MOL0     C 3416   0.956   8.778   9.608  0.9023 -0.2724  0.0955
   26MOL0     C 3417   0.823   8.737   9.540  0.8360  0.0281 -0.0886
   26MOL0     C 3418   0.697   8.773   9.628  0.2197 -0.4075  0.7305
   26MOL0     C 3419   0.557   8.723   9.575 -0.5720  0.1106  0.2657
   26MOL0    Cl 3420   0.535   8.540   9.590 -0.1865  0.0255  0.0100
   26MOL0     C 3421   1.772   8.682   9.466 -0.6272  0.0106 -1.0767
   26MOL0     C 3422   1.907   8.675   9.516 -0.2355  0.4182 -0.0532
   26MOL0     O 3423   2.154   8.872   9.472 -0.8794 -0.0684 -0.6448
   26MOL0     C 3424   2.370   8.991   9.602  0.4024  0.4853 -0.2853
   26MOL0     C 3425   2.498   9.021   9.647  0.0022 -0.4010 -0.2559
   26MOL0     N 3426   3.167   9.018  10.097 -0.9462 -0.1864  0.5470
   26MOL0     N 3427   3.265   8.954  10.151 -0.3283  0.0345 -0.7903
   26MOL0     C 3428   4.510   8.779  10.120 -0.3444 -1.5193  0.5750
   26MOL0     C 3429   4.640   8.750  10.089 -0.6312  0.4329 -0.1207
   26MOL0     C 3430   5.098   8.779   9.998  0.6381  0.8320 -0.3234
   26MOL0     C 3431   5.202   8.838   9.934  0.5705  0.2626  0.6740
   26MOL0     C 3432   5.321   8.771   9.920 -1.1750  0.0997  0.3836
   26MOL0     C 3433   5.333   8.633   9.952 -0.9223  0.3139 -0.0021
   26MOL0     O 3434   5.451   8.554   9.925  0.1895  0.3428 -0.3707
   26MOL0     C 3435   5.581   8.620   9.908  0.3717  0.2746 -0.4510
   26MOL0     C 3436   5.689   8.529   9.968  0.4333 -0.3936 -0.1716
   26MOL0     C 3437   5.828   8.598   9.948  0.0105 -0.0176  0.0844
   26MOL0     C 3438   5.908   8.542   9.827  0.2776 -0.2464  0.3515
   26MOL0     C 3439   6.043   8.593   9.853 -1.3085  0.2718 -0.2677
   26MOL0     C 3440   6.156   8.620   9.880  0.6922  0.4251  0.6581
   26MOL0     C 3441   5.230   8.575  10.013  0.3393  0.3888  0.1959
   26MOL0     C 3442   5.109   8.644  10.036 -0.1722  0.9591 -0.7846
   26MOL0     H 3443   4.772   9.056  10.104 -3.3400  2.1074  0.7111
   26MOL0     H 3444   4.554   9.113  10.168 -0.6483  0.0758  1.4185
   26MOL0     H 3445   4.351   9.111  10.291 -0.7815  2.4328 -1.5977
   26MOL0     H 3446   4.284   9.104  10.127 -4.0538 -0.8761 -0.1316
   26MOL0     H 3447   4.142   8.977  10.373 -3.2036  1.6019  0.6621
   26MOL0     H 3448   4.103   9.122  10.283 -0.0806  0.1179 -1.7783
   26MOL0     H 3449   4.060   8.988  10.080 -0.4678  2.1048  1.4383
   26MOL0     H 3450   4.113   8.845  10.168 -0.7990 -0.7933 -2.1930
   26MOL0     H 3451   3.911   8.861  10.318 -0.4259  0.5265  0.4530
   26MOL0     H 3452   3.877   9.024  10.267 -3.3558 -1.0185  0.2128
   26MOL0     H 3453   3.811   8.956  10.049 -0.4275  0.4104  0.6633
   26MOL0     H 3454   3.849   8.780  10.084 -1.0552  0.5074 -1.2599
   26MOL0     H 3455   3.669   8.745  10.210 -1.7509  0.4879  1.1163
   26MOL0     H 3456   3.652   8.920  10.253  0.6055  0.5497 -0.1531
   26MOL0     H 3457   3.549   8.980  10.064 -0.7826 -0.2868 -0.6630
   26MOL0     H 3458   3.629   8.855   9.966  0.9377  2.4957 -0.1265
   26MOL0     H 3459   3.443   8.742  10.170  0.9516 -0.5129  0.5390
   26MOL0     H 3460   3.431   8.732   9.986  2.3382  0.5617  0.0051
   26MOL0     H 3461   3.326   8.922   9.836  0.9876 -1.3199  1.1918
   26MOL0     H 3462   3.069   9.183   9.894 -1.2873 -0.5589 -0.6896
   26MOL0     H 3463   3.180   9.128   9.779  0.6376 -2.9563 -0.2213
   26MOL0     H 3464   3.045   8.906   9.766 -1.2289 -1.4465 -0.1196
   26MOL0     H 3465   2.962   9.051   9.702 -0.2514 -0.2655 -0.9305
   26MOL0     H 3466   2.841   9.069   9.922  1.0695  0.3691  1.4970
   26MOL0     H 3467   2.942   8.927   9.983 -1.9252 -0.1976  1.1584
   26MOL0     H 3468   2.704   8.882   9.926 -1.5708  1.2211 -0.2241
   26MOL0     H 3469   2.811   8.799   9.806 -1.5733 -0.2280 -2.0798
   26MOL0     H 3470   2.578   8.729   9.793  1.6477  1.5210 -0.6943
   26MOL0     H 3471   2.236   8.624   9.779  0.0421  0.8081 -0.2162
   26MOL0     H 3472   2.301   8.589   9.622  1.8201  0.6271 -0.9158
   26MOL0     H 3473   2.406   8.564   9.757 -1.3489 -0.4067 -0.6981
   26MOL0     H 3474   1.890   8.932   9.747  0.4554 -1.3425  2.2256
   26MOL0     H 3475   1.658   8.931   9.664 -0.3759 -0.1139 -1.8725
   26MOL0     H 3476   1.450   8.765   9.639  3.2619  3.2398  1.2706
   26MOL0     H 3477   1.454   8.909   9.526 -3.9518  0.9873 -0.5763
   26MOL0     H 3478   1.297   8.797   9.371 -0.0727  0.5047 -0.6290
   26MOL0     H 3479   1.321   8.649   9.465 -1.8242  1.1840 -2.7099
   26MOL0     H 3480   1.234   8.911   9.573  3.5262 -0.5234  0.0880
   26MOL0     H 3481   1.238   8.752   9.662 -0.6106 -0.0679 -0.5952
   26MOL0     H 3482   1.059   8.815   9.418  0.0443 -0.7172 -1.3037
   26MOL0     H 3483   1.077   8.651   9.487 -3.3578 -0.7458  2.1289
   26MOL0     H 3484   0.942   8.885   9.622 -3.9976 -0.6697 -0.0496
   26MOL0     H 3485   0.957   8.734   9.709 -0.4901 -1.0945 -0.2165
   26MOL0     H 3486   0.812   8.776   9.438  0.9454 -0.2274 -0.1969
   26MOL0     H 3487   0.825   8.628   9.531  0.4493  0.1022 -1.1336
   26MOL0     H 3488   0.689   8.881   9.642  0.3615  0.1303 -2.6479
   26MOL0     H 3489   0.706   8.736   9.731 -2.3033  1.3175  1.6928
   26MOL0     H 3490   0.550   8.750   9.470 -1.0517  0.2706  0.3331
   26MOL0     H 3491   0.483   8.785   9.628  0.2960 -0.3590  2.1264
   26MOL0     H 3492   1.734   8.614   9.389  0.0066 -1.8233  0.1691
   26MOL0     H 3493   1.981   8.613   9.467  2.1270  2.8270  0.2182
   26MOL0     H 3494   2.325   9.070   9.542  0.3368  0.4332 -0.3046
   26MOL0     H 3495   2.554   9.109   9.620 -1.1113  0.4947  0.2719
   26MOL0     H 3496   4.438   8.698  10.121 -0.2758 -1.7082 -2.2718
   26MOL0     H 3497   4.669   8.654  10.045  0.3110  0.6990 -0.1069
   26MOL0     H 3498   5.214   8.940   9.900  3.0506 -0.1994 -0.0091
   26MOL0     H 3499   5.402   8.819   9.866 -1.5614 -0.2463 -0.5391
   26MOL0     H 3500   5.587   8.645   9.802 -2.2925  3.5149 -0.0381
   26MOL0     H 3501   5.566   8.718   9.956 -1.4666 -0.3769  0.4082
   26MOL0     H 3502   5.680   8.428   9.927  0.9155 -0.5363  0.0575
   26MOL0     H 3503   5.662   8.523  10.074  1.3605  1.4687  0.2164
   26MOL0     H 3504   5.889   8.585  10.037  2.1175 -1.0705 -1.4384
   26MOL0     H 3505   5.820   8.702   9.915  0.2557 -0.2919 -0.8653
   26MOL0     H 3506   5.860   8.577   9.735 -2.4717  1.5099  2.3038
   26MOL0     H 3507   5.915   8.434   9.810  2.1242  0.3172 -3.6604
   26MOL0     H 3508   6.254   8.659   9.899  0.8832  0.6963 -0.7458
   26MOL0     H 3509   5.222   8.469  10.034 -0.7139  0.4772  0.3380
   26MOL0     H 3510   5.028   8.591  10.086 -0.4774  3.8216  2.1227
   27MOL0     O 3511   8.065  11.062   7.268 -0.3989  0.3887 -0.4035
   27MOL0     C 3512   8.142  11.004   7.348  0.2902  0.1195 -0.0411
   27MOL0     O 3513   8.102  10.923   7.452  0.2544 -0.3671  0.0603
   27MOL0     C 3514   7.972  10.876   7.457 -0.4724  0.2319 -0.1849
   27MOL0     C 3515   7.924  10.814   7.344  0.9224  0.3311 -0.4008
   27MOL0     C 3516   7.782  10.808   7.332  0.2662 -0.5684 -0.4016
   27MOL0     C 3517   7.698  10.861   7.435 -0.1010 -0.1616 -0.6873
   27MOL0     O 3518   7.558  10.862   7.429 -0.6211  0.0625  0.4825
   27MOL0     C 3519   7.488  10.788   7.326 -0.9705 -0.2360  0.2201
   27MOL0     C 3520   7.343  10.827   7.343 -1.0188 -0.1240 -0.3242
   27MOL0     C 3521   7.253  10.728   7.279  0.1793  0.1056 -0.8578
   27MOL0     C 3522   7.106  10.743   7.329 -0.6171  0.8870  0.0713
   27MOL0     C 3523   7.031  10.641   7.248  0.0770  0.1566 -0.3143
   27MOL0     C 3524   6.890  10.611   7.301 -0.0405  0.2121 -0.4447
   27MOL0     C 3525   6.785  10.719   7.294  0.3990 -0.9751 -0.0883
   27MOL0     C 3526   6.762  10.777   7.149 -0.6523  0.1112 -0.4236
   27MOL0     N 3527   6.692  10.675   7.062 -0.6800  0.3790  0.3423
   27MOL0     C 3528   6.560  10.659   7.057 -0.7062  0.0011 -0.1354
   27MOL0     C 3529   6.542  10.535   7.000  0.4257  0.0684 -0.8240
   27MOL0     C 3530   6.412  10.462   6.987 -0.2570  0.0462 -0.5084
   27MOL0     C 3531   6.367  10.382   7.110 -0.5584 -1.0671 -0.8600
   27MOL0     C 3532   6.224  10.338   7.078 -0.2988  0.4551 -0.0317
   27MOL0     C 3533   6.201  10.217   6.989 -0.7630 -0.3588  0.3154
   27MOL0     O 3534   6.106  10.241   6.884 -0.3971  0.5816 -0.0624
   27MOL0     C 3535   5.973  10.239   6.897  0.5657 -0.3020  0.3476
   27MOL0     C 3536   5.900  10.173   6.996 -0.1127 -0.7443 -0.6703
   27MOL0     C 3537   5.760  10.176   7.012  0.0098  0.1413 -0.5164
   27MOL0     C 3538   5.688  10.090   7.113  0.1518  0.0744 -0.5312
   27MOL0     C 3539   5.683  10.256   6.920 -0.9429 -0.5975 -0.5355
   27MOL0     C 3540   5.533  10.270   6.913  0.2613  0.8740 -0.1881
   27MOL0     O 3541   5.472  10.380   6.860 -0.4606 -0.6143  0.2868
   27MOL0     C 3542   5.333  10.387   6.857  0.0427  0.1020 -0.0137
   27MOL0     C 3543   5.267  10.385   6.977  0.9142 -0.3118  0.1050
   27MOL0     C 3544   5.127  10.407   6.978 -0.4527 -0.5301  0.2898
   27MOL0     C 3545   5.056  10.438   6.866 -0.2302 -0.2301  0.1405
   27MOL0     O 3546   4.932  10.485   6.882  0.3322 -0.7158 -0.1348
   27MOL0     C 3547   4.863  10.538   6.769  0.3256 -0.1938 -0.2359
   27MOL0     C 3548   4.735  10.598   6.817  0.1261 -0.5786  0.5283
   27MOL0     C 3549   4.747  10.716   6.912  0.1159  0.7458  0.3833
   27MOL0     C 3550   4.609  10.757   6.972 -0.5300 -0.5071 -0.3023
   27MOL0     C 3551   4.638  10.875   7.066  0.3922  0.9788  0.4945
   27MOL0     C 3552   4.499  10.931   7.099 -0.4795  1.0927  0.0392
   27MOL0     C 3553   4.510  11.005   7.229 -0.3030 -0.6160  0.6834
   27MOL0     C 3554   4.546  10.939   7.361 -0.6436  0.5549 -1.0918
   27MOL0    Cl 3555   4.489  11.020   7.505 -0.1311 -0.4119 -0.1097
   27MOL0     C 3556   5.130  10.449   6.749  0.5327  0.8646 -0.4686
   27MOL0     C 3557   5.265  10.414   6.739 -0.9187 -0.0087 -0.6747
   27MOL0     O 3558   5.481  10.165   6.930 -0.0317 -0.1831 -0.1341
   27MOL0     C 3559   5.754  10.330   6.825  0.2601 -0.1026 -0.5006
   27MOL0     C 3560   5.896  10.325   6.811 -0.5644  0.4788  0.1153
   27MOL0     N 3561   6.658  10.486   6.973  0.6515  0.3194  0.3328
   27MOL0     N 3562   6.748  10.565   7.014 -0.3450 -0.0820  0.0676
   27MOL0     C 3563   7.747  10.925   7.553  0.5205 -1.1109  0.5739
   27MOL0     C 3564   7.886  10.929   7.557  0.1608  0.0585  0.4097
   27MOL0     C 3565   8.283  11.029   7.336  0.4089 -0.4094  0.3972
   27MOL0     C 3566   8.381  10.976   7.416 -0.6755  0.1810  0.5139
   27MOL0     C 3567   8.516  11.020   7.417 -0.5230  0.2979  0.2537
   27MOL0     C 3568   8.549  11.127   7.331 -0.2908  0.8701  0.1153
   27MOL0     O 3569   8.670  11.189   7.308 -0.2083 -0.1285  0.0282
   27MOL0     C 3570   8.780  11.140   7.387 -0.5038  0.4842 -0.5021
   27MOL0     C 3571   8.897  11.236   7.381 -0.4002 -0.9439  0.0401
   27MOL0     C 3572   9.013  11.173   7.461  0.4420  0.4986  0.2306
   27MOL0     C 3573   9.145  11.247   7.459  0.0659  0.0207  0.7120
   27MOL0     C 3574   9.258  11.180   7.526  0.4949  0.3422 -0.3617
   27MOL0     C 3575   9.361  11.156   7.588  0.1738 -0.0795 -0.1716
   27MOL0     C 3576   8.449  11.193   7.254 -0.5827  0.5985  0.2406
   27MOL0     C 3577   8.319  11.145   7.253  0.0381 -0.0277 -0.2833
   27MOL0     H 3578   7.980  10.781   7.257 -0.3501 -1.0755 -0.7174
   27MOL0     H 3579   7.737  10.780   7.237  1.0482 -2.7967 -0.1752
   27MOL0     H 3580   7.527  10.811   7.227  2.3280 -2.0547  0.9583
   27MOL0     H 3581   7.517  10.684   7.344  0.2984  0.1470  0.5264
   27MOL0     H 3582   7.318  10.832   7.450  1.7361 -1.9447  0.4899
   27MOL0     H 3583   7.333  10.928   7.301 -0.1674  0.6488  1.2307
   27MOL0     H 3584   7.249  10.753   7.172 -0.1610 -1.6208 -1.2647
   27MOL0     H 3585   7.296  10.628   7.281  0.4819  0.2467 -0.2306
   27MOL0     H 3586   7.090  10.725   7.436  1.2162 -1.1244  0.0745
   27MOL0     H 3587   7.050  10.830   7.293 -1.0318  0.0243 -1.4326
   27MOL0     H 3588   7.019  10.658   7.141 -3.4501  2.9188  0.3475
   27MOL0     H 3589   7.076  10.541   7.259  0.1543  0.3351  1.2119
   27MOL0     H 3590   6.857  10.516   7.258 -2.6805 -0.7106  3.1500
   27MOL0     H 3591   6.896  10.579   7.405 -3.3659 -2.7285 -0.9774
   27MOL0     H 3592   6.693  10.680   7.338  1.7557 -1.9209  2.0544
   27MOL0     H 3593   6.821  10.798   7.360  1.6999 -0.8135 -0.9524
   27MOL0     H 3594   6.859  10.807   7.109 -0.4069  4.6947  2.7580
   27MOL0     H 3595   6.704  10.870   7.151 -0.8076  0.0397  2.7511
   27MOL0     H 3596   6.492  10.732   7.100  0.1389 -0.6009  2.4004
   27MOL0     H 3597   6.336  10.539   6.969  0.0856  0.3929 -0.4691
   27MOL0     H 3598   6.424  10.395   6.902  2.3301 -1.3150  0.8193
   27MOL0     H 3599   6.360  10.443   7.200  0.5981  1.2010 -2.1934
   27MOL0     H 3600   6.442  10.303   7.120 -0.7757 -1.2256 -0.4589
   27MOL0     H 3601   6.164  10.412   7.024 -0.2180 -1.4380 -2.9941
   27MOL0     H 3602   6.172  10.309   7.169  1.3823  0.3422  0.9259
   27MOL0     H 3603   6.174  10.134   7.054 -1.6831 -0.5944 -0.3499
   27MOL0     H 3604   6.300  10.193   6.948 -0.1036 -2.6752  2.9312
   27MOL0     H 3605   5.956  10.104   7.058  0.8444 -2.0642 -2.8751
   27MOL0     H 3606   5.651   9.999   7.064 -1.6597 -1.0154  2.5744
   27MOL0     H 3607   5.752  10.051   7.192 -0.5758 -2.4563 -1.0899
   27MOL0     H 3608   5.605  10.147   7.155 -1.5103 -1.6795 -1.2612
   27MOL0     H 3609   5.321  10.366   7.069  0.7539  0.2321  0.3156
   27MOL0     H 3610   5.075  10.424   7.071  2.9475  0.1184  2.2390
   27MOL0     H 3611   4.920  10.616   6.717  2.1770 -2.5345 -1.9732
   27MOL0     H 3612   4.843  10.459   6.695 -2.0926  0.8309 -0.7567
   27MOL0     H 3613   4.673  10.633   6.734  1.0790  0.6835  0.3181
   27MOL0     H 3614   4.674  10.517   6.858 -5.1685  1.2708 -2.8200
   27MOL0     H 3615   4.795  10.804   6.867  0.3410 -0.2366 -1.3909
   27MOL0     H 3616   4.808  10.685   6.997  0.0312 -1.5238 -0.3102
   27MOL0     H 3617   4.536  10.792   6.898 -1.1969  1.0048  1.0082
   27MOL0     H 3618   4.566  10.672   7.026 -1.6735 -0.0858 -0.5245
   27MOL0     H 3619   4.709  10.949   7.027  1.5733 -0.4222 -0.1087
   27MOL0     H 3620   4.689  10.821   7.146 -1.0192  1.1067  1.5116
   27MOL0     H 3621   4.486  10.997   7.013  0.5550  2.0894  0.6168
   27MOL0     H 3622   4.425  10.851   7.104  1.4889 -0.9624 -1.4456
   27MOL0     H 3623   4.415  11.059   7.241 -1.1162 -2.1193  1.2587
   27MOL0     H 3624   4.595  11.074   7.228  1.4170 -2.6508 -0.1251
   27MOL0     H 3625   4.655  10.926   7.365 -0.4705  1.9422 -0.6478
   27MOL0     H 3626   4.495  10.843   7.369 -1.7062  1.2231  0.8817
   27MOL0     H 3627   5.076  10.474   6.658  0.8040  0.3395 -0.7788
   27MOL0     H 3628   5.315  10.427   6.643 -1.5262 -2.3660 -1.3868
   27MOL0     H 3629   5.704  10.393   6.751 -0.4111 -0.2759 -0.2009
   27MOL0     H 3630   5.959  10.364   6.732  0.3710 -0.6417  0.2902
   27MOL0     H 3631   7.695  10.982   7.630  1.8868  1.8431 -0.5412
   27MOL0     H 3632   7.922  10.999   7.632 -0.0401  1.9723 -1.1914
   27MOL0     H 3633   8.365  10.891   7.481 -1.2256  1.1581  1.7053
   27MOL0     H 3634   8.593  10.978   7.481  0.8759 -0.3604 -1.7676
   27MOL0     H 3635   8.745  11.133   7.490 -1.2863  1.1200 -0.7162
   27MOL0     H 3636   8.812  11.042   7.348  1.3447  0.6899  0.3982
   27MOL0     H 3637   8.865  11.335   7.416  1.2124  0.4553 -2.2072
   27MOL0     H 3638   8.915  11.251   7.275 -1.5910 -0.5869 -0.1284
   27MOL0     H 3639   9.039  11.076   7.418 -0.6106  0.3578 -0.1043
   27MOL0     H 3640   8.975  11.162   7.562 -2.3699  0.7249 -0.7247
   27MOL0     H 3641   9.145  11.350   7.496 -0.5422  0.1702  0.3002
   27MOL0     H 3642   9.166  11.253   7.351 -2.2863 -3.2421 -0.0725
   27MOL0     H 3643   9.456  11.128   7.629 -0.0647 -1.9546 -0.8048
   27MOL0     H 3644   8.459  11.289   7.205 -1.9925  0.3844 -0.5363
   27MOL0     H 3645   8.244  11.192   7.190  0.7021  1.3062 -0.1153
   28MOL0     O 3646   5.736  10.774   0.018 -0.1224  0.0743 -0.3037
   28MOL0     C 3647   5.727  10.835   0.121  0.9001 -0.5474  0.0189
   28MOL0     O 3648   5.609  10.865   0.179 -0.5116  0.0906  0.0773
   28MOL0     C 3649   5.497  10.827   0.121 -0.7243  0.2981 -0.2038
   28MOL0     C 3650   5.464  10.690   0.134  0.8470  0.2463  0.2339
   28MOL0     C 3651   5.333  10.650   0.104 -0.0006  0.6180  0.2071
   28MOL0     C 3652   5.233  10.737   0.056  0.4202 -0.5085  0.5499
   28MOL0     O 3653   5.109  10.686   0.022  0.3205  0.5780 -0.4783
   28MOL0     C 3654   4.998  10.781   0.026  0.6159 -0.6957  0.1503
   28MOL0     C 3655   4.859  10.723  -0.013 -0.8248 -0.5126 -0.2117
   28MOL0     C 3656   4.754  10.831  -0.071 -0.1088  0.5544  0.5914
   28MOL0     C 3657   4.620  10.767  -0.107  0.7656 -0.5146  0.0885
   28MOL0     C 3658   4.528  10.734   0.012  0.2885 -0.2803 -0.2515
   28MOL0     C 3659   4.392  10.687  -0.034 -0.8191 -0.3463 -0.4617
   28MOL0     C 3660   4.297  10.690   0.090 -0.5477 -0.3872 -0.2054
   28MOL0     C 3661   4.182  10.604   0.064  0.3233 -0.7532 -0.4150
   28MOL0     N 3662   4.105  10.634  -0.063 -0.0000  0.1183 -0.1659
   28MOL0     C 3663   4.099  10.548  -0.175  0.0866  0.3597  0.4796
   28MOL0     C 3664   4.041  10.619  -0.275  0.5947  0.0709  0.7020
   28MOL0     C 3665   3.989  10.583  -0.416 -0.0742  0.4796  0.3183
   28MOL0     C 3666   3.976  10.428  -0.434 -0.4836 -0.6152 -0.9411
   28MOL0     C 3667   3.864  10.391  -0.536 -0.6889  0.0847  0.3996
   28MOL0     C 3668   3.731  10.368  -0.474  0.6653 -0.1621  0.1326
   28MOL0     O 3669   3.681  10.476  -0.400 -0.3659 -0.2920 -0.7268
   28MOL0     C 3670   3.548  10.478  -0.360 -1.0196  0.3524 -0.0109
   28MOL0     C 3671   3.505  10.570  -0.276  0.1386 -0.4513  0.4084
   28MOL0     C 3672   3.375  10.577  -0.221  0.6082  0.3612  1.4774
   28MOL0     C 3673   3.348  10.691  -0.129 -0.1982  0.0361 -0.1823
   28MOL0     C 3674   3.272  10.485  -0.263 -0.0690  0.2429  0.7047
   28MOL0     C 3675   3.143  10.466  -0.199 -0.0583 -0.1226  0.5137
   28MOL0     O 3676   3.054  10.398  -0.279  0.0600  0.2001 -0.7245
   28MOL0     C 3677   2.928  10.364  -0.231  0.1696  0.3223  0.1712
   28MOL0     C 3678   2.817  10.435  -0.281 -0.0451  0.3835  0.1546
   28MOL0     C 3679   2.690  10.404  -0.236  0.5115 -1.0212  0.2806
   28MOL0     C 3680   2.675  10.296  -0.142 -0.5391  0.4646  0.4007
   28MOL0     O 3681   2.556  10.263  -0.092 -0.0666  0.5873 -0.9103
   28MOL0     C 3682   2.462  10.367  -0.061 -0.2039 -0.2315  0.2346
   28MOL0     C 3683   2.335  10.317  -0.001  0.5996 -0.5106 -0.6499
   28MOL0     C 3684   2.274  10.417   0.108 -0.3037  0.6591  0.1976
   28MOL0     C 3685   2.148  10.479   0.059 -0.3902  0.4728  0.0289
   28MOL0     C 3686   2.084  10.562   0.173 -0.2404  0.2088 -0.1790
   28MOL0     C 3687   1.932  10.608   0.151 -0.3066 -0.4831  0.3929
   28MOL0     C 3688   1.828  10.496   0.161  0.6140 -0.3497  0.3667
   28MOL0     C 3689   1.691  10.555   0.180 -0.1128 -0.2579 -0.0926
   28MOL0    Cl 3690   1.636  10.625   0.036 -0.0815 -0.2928  0.0265
   28MOL0     C 3691   2.784  10.222  -0.105  0.9674 -0.0316  0.1978
   28MOL0     C 3692   2.910  10.255  -0.139 -0.1776  0.0362 -0.1203
   28MOL0     O 3693   3.121  10.513  -0.090  0.2131 -0.2528 -0.0953
   28MOL0     C 3694   3.316  10.386  -0.360  0.5597  0.0719 -0.1364
   28MOL0     C 3695   3.449  10.388  -0.400  0.0045  0.4072  0.7633
   28MOL0     N 3696   4.032  10.748  -0.225  0.2078 -0.5738 -0.2801
   28MOL0     N 3697   4.069  10.758  -0.102  0.0658 -0.2284  0.0177
   28MOL0     C 3698   5.266  10.870   0.040 -0.1756 -0.3684 -0.0883
   28MOL0     C 3699   5.397  10.916   0.073  0.1978  0.3303 -0.4465
   28MOL0     C 3700   5.847  10.882   0.187 -0.6320 -0.0620  0.3884
   28MOL0     C 3701   5.966  10.906   0.107  0.1621  0.0676  0.4408
   28MOL0     C 3702   6.084  10.938   0.160  0.3408  0.7333  0.1252
   28MOL0     C 3703   6.101  10.953   0.297 -0.4407 -0.3052 -1.0953
   28MOL0     O 3704   6.222  10.968   0.362 -0.0758 -0.5667  0.1767
   28MOL0     C 3705   6.339  10.978   0.281  0.7915  0.0207 -0.2719
   28MOL0     C 3706   6.463  10.990   0.373 -0.0494 -0.1082  1.0999
   28MOL0     C 3707   6.581  11.046   0.291  0.6655 -0.1821  0.0849
   28MOL0     C 3708   6.693  11.091   0.384 -0.4945 -0.5076 -0.0526
   28MOL0     C 3709   6.726  10.989   0.489 -0.1158 -0.3529  0.8760
   28MOL0     C 3710   6.764  10.910   0.570 -0.3353  1.1225 -0.0952
   28MOL0     C 3711   5.995  10.934   0.381  0.6759  0.1502  0.2521
   28MOL0     C 3712   5.861  10.898   0.323 -0.7564 -0.1444  0.1889
   28MOL0     H 3713   5.537  10.633   0.191  0.5806 -0.4564 -0.1198
   28MOL0     H 3714   5.300  10.548   0.122  1.0826 -0.6682 -4.0003
   28MOL0     H 3715   4.997  10.823   0.127  0.8718  2.5283 -1.0864
   28MOL0     H 3716   5.009  10.866  -0.042 -1.1159 -0.0366  0.6367
   28MOL0     H 3717   4.865  10.642  -0.086 -0.4007 -1.3942  0.7796
   28MOL0     H 3718   4.805  10.679   0.071 -0.1463 -0.4469  0.2610
   28MOL0     H 3719   4.745  10.918  -0.005  0.3596  1.5951 -0.6703
   28MOL0     H 3720   4.802  10.877  -0.158  1.6256 -3.1957 -0.6405
   28MOL0     H 3721   4.573  10.846  -0.167  3.8494  0.2283 -1.5797
   28MOL0     H 3722   4.641  10.679  -0.167  3.7437  1.3985 -1.9457
   28MOL0     H 3723   4.568  10.652   0.074  0.2696 -0.8889 -1.0226
   28MOL0     H 3724   4.522  10.822   0.077 -0.0847  0.7983 -1.7037
   28MOL0     H 3725   4.348  10.758  -0.105  1.7832  1.3685 -0.5347
   28MOL0     H 3726   4.401  10.589  -0.081  2.3720  0.6172 -2.1538
   28MOL0     H 3727   4.349  10.660   0.182 -0.1786  0.9942  0.0650
   28MOL0     H 3728   4.261  10.793   0.099 -1.8275 -0.9211  1.3080
   28MOL0     H 3729   4.109  10.603   0.145 -1.3609  1.5752 -1.7902
   28MOL0     H 3730   4.211  10.501   0.041 -0.4604 -0.9286 -0.6063
   28MOL0     H 3731   4.131  10.445  -0.179 -0.7222  0.1120  0.1825
   28MOL0     H 3732   3.886  10.622  -0.416 -1.1760 -2.2546 -0.0086
   28MOL0     H 3733   4.054  10.622  -0.495  3.5355 -0.9502  2.3711
   28MOL0     H 3734   3.961  10.388  -0.334 -1.6615  4.4210  1.2374
   28MOL0     H 3735   4.074  10.396  -0.470  0.4442  0.2855  0.6920
   28MOL0     H 3736   3.905  10.305  -0.589  0.7800  2.1556 -2.0689
   28MOL0     H 3737   3.849  10.461  -0.619 -0.1001  0.0964  0.3009
   28MOL0     H 3738   3.743  10.282  -0.407 -0.5315  1.0420  1.9630
   28MOL0     H 3739   3.670  10.348  -0.563 -0.8627 -1.0017  1.3168
   28MOL0     H 3740   3.571  10.650  -0.243  0.9685 -1.4978  1.3407
   28MOL0     H 3741   3.409  10.781  -0.142 -1.6891  1.1561  0.2111
   28MOL0     H 3742   3.245  10.724  -0.147 -0.6172 -0.7152  0.7218
   28MOL0     H 3743   3.350  10.655  -0.026  0.1306 -1.7349 -0.7797
   28MOL0     H 3744   2.842  10.517  -0.348  0.1834 -0.5035 -0.8635
   28MOL0     H 3745   2.606  10.465  -0.266 -0.0171 -1.6711  0.3947
   28MOL0     H 3746   2.518  10.437   0.002 -0.0164  0.1851 -0.3861
   28MOL0     H 3747   2.433  10.417  -0.154  1.6504 -0.7622 -0.6856
   28MOL0     H 3748   2.256  10.297  -0.074 -0.5978 -1.4829  0.8544
   28MOL0     H 3749   2.352  10.227   0.059  0.3634 -0.8544 -1.0868
   28MOL0     H 3750   2.352  10.489   0.135  1.3995 -0.3780 -1.6219
   28MOL0     H 3751   2.250  10.354   0.195  1.0732  0.2731  0.3359
   28MOL0     H 3752   2.160  10.539  -0.031 -1.7744  0.0961 -0.4230
   28MOL0     H 3753   2.076  10.403   0.029  1.1127 -1.8041  1.8360
   28MOL0     H 3754   2.144  10.648   0.204 -0.8183  0.7350 -0.5178
   28MOL0     H 3755   2.080  10.499   0.263 -0.4901 -0.7337 -0.8278
   28MOL0     H 3756   1.908  10.694   0.215 -0.9472  0.8206 -1.5104
   28MOL0     H 3757   1.927  10.643   0.047  0.7037 -2.7644 -0.4869
   28MOL0     H 3758   1.860  10.441   0.251  0.4462 -0.6513  0.2416
   28MOL0     H 3759   1.828  10.422   0.082 -1.2889 -0.3462  0.3168
   28MOL0     H 3760   1.689  10.626   0.263  1.8125  1.3071 -1.2672
   28MOL0     H 3761   1.634  10.469   0.215  1.0933 -0.0754  2.5704
   28MOL0     H 3762   2.759  10.140  -0.039 -1.7412  0.8849  0.4449
   28MOL0     H 3763   2.992  10.199  -0.096  0.8079  2.8684  2.0586
   28MOL0     H 3764   3.238  10.316  -0.390 -2.5811  2.8356  0.8811
   28MOL0     H 3765   3.471  10.304  -0.465  2.1729  1.8411 -0.5102
   28MOL0     H 3766   5.205  10.952   0.004  0.1053  0.3915  1.0732
   28MOL0     H 3767   5.425  11.021   0.065  2.1901 -0.1183  0.0436
   28MOL0     H 3768   5.965  10.895  -0.001 -1.8567 -0.7983  0.5151
   28MOL0     H 3769   6.171  10.944   0.095  0.1916  1.2032 -0.0366
   28MOL0     H 3770   6.354  10.885   0.226 -0.2839 -0.3567  0.0534
   28MOL0     H 3771   6.333  11.075   0.229  1.0468  0.6809  0.8846
   28MOL0     H 3772   6.476  10.893   0.421 -3.1583 -1.0797  0.2047
   28MOL0     H 3773   6.443  11.062   0.453 -0.2795 -0.5894  1.4847
   28MOL0     H 3774   6.543  11.121   0.220 -0.8720 -1.0376 -0.0361
   28MOL0     H 3775   6.621  10.965   0.230  1.7468  2.5184 -3.0774
   28MOL0     H 3776   6.669  11.186   0.433 -2.2551  0.3611 -2.4354
   28MOL0     H 3777   6.783  11.110   0.325 -0.4217 -1.5686 -0.2936
   28MOL0     H 3778   6.795  10.837   0.643  0.6517  1.9661  0.3603
   28MOL0     H 3779   6.002  10.941   0.489  2.6363  1.0853  0.1215
   28MOL0     H 3780   5.776  10.891   0.391 -0.2933  0.0656  0.7987
   29MOL0     O 3781   5.606   3.164   8.630 -0.7448 -0.5734  0.5161
   29MOL0     C 3782   5.613   3.068   8.704 -0.7250  0.7414 -0.5460
   29MOL0     O 3783   5.512   3.006   8.774  0.1478 -0.4351 -0.3822
   29MOL0     C 3784   5.398   3.070   8.775 -0.1436  0.6702  0.5723
   29MOL0     C 3785   5.290   3.019   8.710  0.0562 -0.4689  0.2278
   29MOL0     C 3786   5.167   3.078   8.719  0.1128  0.0014 -0.0445
   29MOL0     C 3787   5.142   3.201   8.778  0.1700 -0.5403 -0.0517
   29MOL0     O 3788   5.017   3.256   8.780 -0.1453  0.1786  0.1678
   29MOL0     C 3789   4.966   3.352   8.879 -0.0315  0.3999 -0.5312
   29MOL0     C 3790   4.863   3.447   8.825  0.6963  1.1998  0.0040
   29MOL0     C 3791   4.729   3.373   8.790  0.7016  0.1434  0.7518
   29MOL0     C 3792   4.620   3.478   8.744  0.3766 -0.2109 -0.5242
   29MOL0     C 3793   4.487   3.398   8.723 -0.0810 -0.1309  0.1926
   29MOL0     C 3794   4.393   3.475   8.626  0.0622  1.1150  0.1432
   29MOL0     C 3795   4.247   3.416   8.613 -0.3422  0.2951 -0.2168
   29MOL0     C 3796   4.145   3.516   8.576  0.4702 -0.2572 -0.2530
   29MOL0     N 3797   4.013   3.450   8.545  0.5703 -0.1562 -0.7110
   29MOL0     C 3798   3.931   3.391   8.637 -0.8480  0.5487  0.3556
   29MOL0     C 3799   3.830   3.339   8.567 -0.0558  0.4743  1.1140
   29MOL0     C 3800   3.718   3.254   8.619  0.4109 -0.0709 -0.7944
   29MOL0     C 3801   3.597   3.333   8.670 -0.0896 -0.2126  0.1094
   29MOL0     C 3802   3.483   3.243   8.704 -0.9470 -0.8287  0.5160
   29MOL0     C 3803   3.374   3.332   8.756 -0.3845  0.5536  0.7134
   29MOL0     O 3804   3.245   3.263   8.754 -0.1569 -0.6517 -0.2253
   29MOL0     C 3805   3.134   3.335   8.799 -0.2969 -0.6591  0.3628
   29MOL0     C 3806   3.126   3.472   8.838  0.2246 -0.1228  1.0211
   29MOL0     C 3807   3.003   3.535   8.876 -0.3045  0.8442  0.3975
   29MOL0     C 3808   3.015   3.680   8.909 -0.2433 -0.2185  0.3334
   29MOL0     C 3809   2.885   3.451   8.876 -0.2188  0.1236 -0.3407
   29MOL0     C 3810   2.753   3.494   8.922  0.2537 -0.4804 -0.4864
   29MOL0     O 3811   2.651   3.415   8.893  0.1510  0.1157  0.2520
   29MOL0     C 3812   2.531   3.415   8.953  0.0281 -0.0000 -0.4405
   29MOL0     C 3813   2.450   3.530   8.974  0.1710 -0.0392  1.0779
   29MOL0     C 3814   2.325   3.521   9.027  0.1878 -0.1186  0.0668
   29MOL0     C 3815   2.266   3.388   9.049 -0.0215  0.1547  0.7232
   29MOL0     O 3816   2.141   3.376   9.109  0.3266 -0.1920  0.5786
   29MOL0     C 3817   2.023   3.424   9.037  0.1300 -0.5264 -0.5999
   29MOL0     C 3818   1.900   3.379   9.103 -0.8695 -0.0297  0.4371
   29MOL0     C 3819   1.775   3.435   9.035  0.0999 -0.6354 -0.3644
   29MOL0     C 3820   1.664   3.473   9.138 -0.3606  0.5643 -0.2031
   29MOL0     C 3821   1.557   3.558   9.069  0.0867 -0.5700  0.3943
   29MOL0     C 3822   1.444   3.605   9.172 -0.6553  0.0551  0.0658
   29MOL0     C 3823   1.337   3.709   9.117 -0.1749 -0.4019 -0.1795
   29MOL0     C 3824   1.222   3.734   9.211 -0.5434  0.1221 -0.1232
   29MOL0    Cl 3825   1.095   3.592   9.208  0.0465 -0.0035 -0.1644
   29MOL0     C 3826   2.336   3.279   9.013  0.1372  0.1628 -0.0883
   29MOL0     C 3827   2.467   3.292   8.964  0.6380  0.5527  0.6539
   29MOL0     O 3828   2.744   3.596   9.000  0.2087  0.0454  0.1709
   29MOL0     C 3829   2.894   3.317   8.838  0.2466 -0.1149  0.7035
   29MOL0     C 3830   3.013   3.263   8.797  0.1255  0.6544 -0.6973
   29MOL0     N 3831   3.849   3.370   8.431  0.4207  0.5349  0.6217
   29MOL0     N 3832   3.960   3.431   8.422 -0.2951  0.1493 -0.2443
   29MOL0     C 3833   5.253   3.245   8.857 -0.0885  0.6047  0.5471
   29MOL0     C 3834   5.375   3.176   8.854 -0.5505 -0.0582 -0.1419
   29MOL0     C 3835   5.746   2.997   8.725 -0.5840 -0.6921 -0.4848
   29MOL0     C 3836   5.849   3.015   8.631  1.0434  0.7803 -0.5680
   29MOL0     C 3837   5.979   2.966   8.639 -0.1039  0.2169 -0.4360
   29MOL0     C 3838   6.006   2.885   8.753  1.0778  0.0952 -0.0455
   29MOL0     O 3839   6.131   2.838   8.782 -0.8998 -0.3708 -0.4248
   29MOL0     C 3840   6.237   2.864   8.702  0.8136 -0.6710  0.6577
   29MOL0     C 3841   6.293   3.007   8.739 -0.5667  0.1092 -0.4019
   29MOL0     C 3842   6.372   3.049   8.611 -0.5386 -0.1779  0.5293
   29MOL0     C 3843   6.435   3.188   8.610  0.0595 -0.0873  0.3644
   29MOL0     C 3844   6.490   3.212   8.747 -0.0344 -1.7745 -0.2508
   29MOL0     C 3845   6.525   3.247   8.865  0.5885  0.7526  0.0970
   29MOL0     C 3846   5.900   2.856   8.840  0.1815  0.3648 -0.2749
   29MOL0     C 3847   5.776   2.915   8.839 -0.2782 -0.2580 -0.0514
   29MOL0     H 3848   5.299   2.931   8.647 -2.6560 -0.2016 -0.6676
   29MOL0     H 3849   5.085   3.018   8.682  0.5246 -0.1245 -0.7763
   29MOL0     H 3850   4.921   3.293   8.960  2.4293 -0.3932  0.3289
   29MOL0     H 3851   5.052   3.408   8.915  0.7861 -0.5561 -0.9292
   29MOL0     H 3852   4.841   3.517   8.906 -1.2464 -3.5997  4.2044
   29MOL0     H 3853   4.893   3.502   8.736 -0.7587 -2.2219 -2.8289
   29MOL0     H 3854   4.732   3.302   8.707  0.4475 -1.6152  2.1861
   29MOL0     H 3855   4.695   3.316   8.877  0.2458 -2.1461 -0.8286
   29MOL0     H 3856   4.599   3.546   8.827 -0.3973 -0.2641 -0.6611
   29MOL0     H 3857   4.648   3.534   8.654 -3.5914 -0.0595 -1.8755
   29MOL0     H 3858   4.529   3.301   8.693  0.5246  0.2225 -0.1237
   29MOL0     H 3859   4.440   3.393   8.821 -2.1845  1.8206 -0.6317
   29MOL0     H 3860   4.383   3.582   8.645 -0.9929  0.9877  0.3759
   29MOL0     H 3861   4.437   3.473   8.526 -2.3260 -0.5897 -0.9750
   29MOL0     H 3862   4.250   3.336   8.538  2.1316  0.5190 -0.4387
   29MOL0     H 3863   4.216   3.372   8.708 -0.6426  0.0593 -0.4203
   29MOL0     H 3864   4.186   3.578   8.496 -1.9113  1.3713 -0.3216
   29MOL0     H 3865   4.134   3.586   8.659 -1.6031 -0.7331 -0.0623
   29MOL0     H 3866   3.941   3.382   8.745 -2.5377  1.4006  0.6150
   29MOL0     H 3867   3.686   3.189   8.537 -0.2766  1.6781 -1.9744
   29MOL0     H 3868   3.749   3.197   8.707 -2.5698  0.9330  1.0586
   29MOL0     H 3869   3.572   3.397   8.585 -1.4856  0.1818  0.7854
   29MOL0     H 3870   3.623   3.394   8.757  1.7111 -0.3052 -0.3259
   29MOL0     H 3871   3.500   3.172   8.785 -2.7144 -0.5978  1.1290
   29MOL0     H 3872   3.441   3.189   8.618 -0.3034 -1.4153  0.5675
   29MOL0     H 3873   3.372   3.425   8.698 -1.8732  0.0726 -0.0755
   29MOL0     H 3874   3.412   3.352   8.857  2.3981 -0.2981 -0.0742
   29MOL0     H 3875   3.217   3.530   8.849  2.1663 -2.2141 -2.1626
   29MOL0     H 3876   3.113   3.728   8.909 -0.9514  1.2976 -0.5165
   29MOL0     H 3877   2.938   3.733   8.854 -1.7317 -1.7294  0.8516
   29MOL0     H 3878   2.983   3.699   9.012 -0.4716  0.1352  0.1976
   29MOL0     H 3879   2.493   3.625   8.944  0.4428 -0.6797 -0.6724
   29MOL0     H 3880   2.265   3.610   9.047  1.4455  1.0193 -1.0217
   29MOL0     H 3881   2.027   3.532   9.024  2.6286 -0.6233 -1.0701
   29MOL0     H 3882   2.027   3.377   8.938  0.0510 -1.8353 -0.0154
   29MOL0     H 3883   1.892   3.270   9.107  0.9130 -0.2239 -0.4367
   29MOL0     H 3884   1.911   3.422   9.203  2.1711 -1.5735  0.8666
   29MOL0     H 3885   1.736   3.364   8.962  0.5443 -0.9994 -0.2512
   29MOL0     H 3886   1.805   3.526   8.982 -0.6232  2.0082  3.3478
   29MOL0     H 3887   1.630   3.379   9.183  2.6308 -0.4509  0.1748
   29MOL0     H 3888   1.705   3.534   9.220 -3.5107 -0.5941  2.4720
   29MOL0     H 3889   1.508   3.506   8.986  1.2957 -2.8451  1.0356
   29MOL0     H 3890   1.611   3.647   9.033 -1.3622 -0.5365 -1.9086
   29MOL0     H 3891   1.396   3.516   9.212 -1.1519  0.7014  0.9415
   29MOL0     H 3892   1.486   3.656   9.260 -1.0775 -0.8917  0.8296
   29MOL0     H 3893   1.290   3.666   9.028 -1.1298  1.3092 -0.5515
   29MOL0     H 3894   1.389   3.802   9.091 -0.6484  0.3523  1.4072
   29MOL0     H 3895   1.176   3.833   9.199 -1.9761 -0.3526  1.1195
   29MOL0     H 3896   1.265   3.736   9.312 -0.2478 -0.7625 -0.2240
   29MOL0     H 3897   2.300   3.178   9.029  1.8746 -0.7149 -1.4714
   29MOL0     H 3898   2.519   3.203   8.932 -2.2981 -1.1158  0.0972
   29MOL0     H 3899   2.807   3.252   8.837 -1.1924  1.7042 -0.3363
   29MOL0     H 3900   3.023   3.160   8.765 -2.4591  0.4118 -0.9168
   29MOL0     H 3901   5.239   3.335   8.915  1.5423  0.2099  1.6201
   29MOL0     H 3902   5.453   3.216   8.917  0.1869 -1.0074 -0.4237
   29MOL0     H 3903   5.827   3.074   8.542  0.1663  0.8311 -0.3236
   29MOL0     H 3904   6.061   3.003   8.578 -0.3918  0.8592 -0.4485
   29MOL0     H 3905   6.322   2.797   8.719  0.9267 -1.0354 -1.1764
   29MOL0     H 3906   6.204   2.856   8.599  0.3952 -0.0899  0.7388
   29MOL0     H 3907   6.346   3.012   8.835 -0.8216  2.6891 -0.3247
   29MOL0     H 3908   6.210   3.078   8.737 -0.3574  0.4277  1.1290
   29MOL0     H 3909   6.306   3.039   8.524  2.4294  2.2763 -2.2647
   29MOL0     H 3910   6.452   2.975   8.596  0.9586  1.2834  0.9556
   29MOL0     H 3911   6.368   3.272   8.588  0.5529 -0.3763 -2.7237
   29MOL0     H 3912   6.514   3.185   8.533 -1.0461  0.0607 -0.8140
   29MOL0     H 3913   6.572   3.278   8.956  1.2741 -2.9263  1.1777
   29MOL0     H 3914   5.922   2.798   8.929 -1.1109  0.7862  0.3546
   29MOL0     H 3915   5.705   2.889   8.918 -1.5268  0.0089 -1.0566
   30MOL0     O 3916   9.971   0.907   9.379 -0.0448 -0.1478 -0.1620
   30MOL0     C 3917   9.916   0.817   9.319  0.7062  0.1337 -1.0565
   30MOL0     O 3918   9.779   0.820   9.279 -0.1034  0.6434 -0.2269
   30MOL0     C 3919   9.704   0.930   9.310 -0.0756 -0.8614  1.1155
   30MOL0     C 3920   9.598   0.916   9.401 -0.0569  0.4393 -0.4303
   30MOL0     C 3921   9.515   1.028   9.434 -0.6799  0.5415 -0.3394
   30MOL0     C 3922   9.541   1.157   9.382  0.2921  0.4966 -0.1189
   30MOL0     O 3923   9.457   1.245   9.430  0.5082 -0.1531 -0.7480
   30MOL0     C 3924   9.477   1.383   9.404 -0.0077 -0.0945 -0.0047
   30MOL0     C 3925   9.354   1.449   9.466  0.4588 -0.1577 -0.2856
   30MOL0     C 3926   9.222   1.416   9.412  0.5219  0.5029 -0.3333
   30MOL0     C 3927   9.115   1.492   9.490  0.2027  0.3136  0.2328
   30MOL0     C 3928   9.055   1.405   9.600  0.1531 -0.5419 -0.0877
   30MOL0     C 3929   8.935   1.483   9.651  0.2952  0.2182 -0.9391
   30MOL0     C 3930   8.855   1.406   9.765 -1.0167 -0.2050  0.2041
   30MOL0     C 3931   8.710   1.453   9.772  0.0665 -0.6184 -0.4261
   30MOL0     N 3932   8.616   1.390   9.684  0.2138 -0.1215 -0.6296
   30MOL0     C 3933   8.549   1.272   9.706  0.2252  0.9258  0.3479
   30MOL0     C 3934   8.472   1.252   9.595  0.5919 -0.0543 -0.2989
   30MOL0     C 3935   8.394   1.132   9.559  0.4621  0.0322 -0.1505
   30MOL0     C 3936   8.243   1.157   9.528 -0.1418  0.7827  0.4488
   30MOL0     C 3937   8.172   1.018   9.520  0.0628  0.3649  0.0709
   30MOL0     C 3938   8.020   1.015   9.535 -0.3680 -0.1079 -0.1909
   30MOL0     O 3939   7.967   1.057   9.670 -0.1753 -0.5318 -0.1617
   30MOL0     C 3940   7.838   1.055   9.702  0.3810  0.0220  0.1253
   30MOL0     C 3941   7.742   1.017   9.614  0.5582 -0.4376 -0.4590
   30MOL0     C 3942   7.604   1.017   9.638 -0.2609 -0.4227  0.4214
   30MOL0     C 3943   7.513   0.956   9.533 -0.0826  0.8313 -0.0413
   30MOL0     C 3944   7.562   1.063   9.768  0.5472  0.7245  0.1373
   30MOL0     C 3945   7.418   1.064   9.802  1.4352 -0.4956 -0.3168
   30MOL0     O 3946   7.332   1.096   9.702 -0.2498 -0.5413  0.6603
   30MOL0     C 3947   7.197   1.083   9.726  0.1820  0.2335 -0.5739
   30MOL0     C 3948   7.126   0.989   9.657 -2.1440  0.2529  0.4948
   30MOL0     C 3949   6.998   0.952   9.701  0.2527 -0.6239  0.6846
   30MOL0     C 3950   6.940   1.020   9.807  0.3897 -0.8646  0.2722
   30MOL0     O 3951   6.814   0.994   9.849 -0.1233  0.0097 -0.3755
   30MOL0     C 3952   6.745   0.880   9.802 -0.0119  0.0366  0.0413
   30MOL0     C 3953   6.609   0.868   9.878  0.2168 -0.5726  0.6128
   30MOL0     C 3954   6.506   0.772   9.820 -0.0616  0.1815  0.2657
   30MOL0     C 3955   6.564   0.631   9.804  0.1179 -0.2129 -0.2976
   30MOL0     C 3956   6.448   0.537   9.741  0.6362  0.0424 -0.0486
   30MOL0     C 3957   6.498   0.409   9.682 -0.8783 -0.1031 -0.1987
   30MOL0     C 3958   6.586   0.323   9.767  0.5763  0.0685  0.4785
   30MOL0     C 3959   6.516   0.254   9.882  0.2045 -0.1727 -0.2468
   30MOL0    Cl 3960   6.629   0.136   9.965  0.2369 -0.3372  0.2374
   30MOL0     C 3961   7.005   1.126   9.867 -0.3803  0.0139 -0.6272
   30MOL0     C 3962   7.135   1.156   9.828  0.2459 -0.2829 -0.0868
   30MOL0     O 3963   7.386   1.035   9.918 -0.4670  0.1070  0.3418
   30MOL0     C 3964   7.660   1.097   9.871  0.7364  0.1176  0.0779
   30MOL0     C 3965   7.792   1.100   9.831 -0.2931  0.3713 -0.2598
   30MOL0     N 3966   8.493   1.363   9.509 -0.8243  0.0508  0.2354
   30MOL0     N 3967   8.578   1.439   9.562  0.1112 -0.0177 -0.2854
   30MOL0     C 3968   9.642   1.172   9.291 -0.2051  0.7724 -0.2080
   30MOL0     C 3969   9.717   1.055   9.250 -0.4302  0.1267 -0.1493
   30MOL0     C 3970  10.004   0.697   9.277  0.2339 -0.1940  0.2713
   30MOL0     C 3971  10.138   0.676   9.328 -0.0410  0.4895  0.1995
   30MOL0     C 3972  10.214   0.561   9.302  0.4562  0.5962 -0.1272
   30MOL0     C 3973  10.149   0.459   9.227 -0.5826 -0.4790  0.3864
   30MOL0     O 3974  10.211   0.334   9.213  0.5958 -0.3131  0.6264
   30MOL0     C 3975  10.331   0.295   9.267 -0.5040 -0.1418 -0.3442
   30MOL0     C 3976  10.369   0.162   9.193  0.1327 -0.7126  0.3391
   30MOL0     C 3977  10.486   0.112   9.271  0.2639  0.0853 -0.9600
   30MOL0     C 3978  10.555  -0.004   9.204  1.1344  0.4193 -0.0360
   30MOL0     C 3979  10.649  -0.068   9.296  0.5824 -0.0732 -0.5213
   30MOL0     C 3980  10.721  -0.128   9.376 -0.6084 -0.2513  0.1516
   30MOL0     C 3981  10.025   0.478   9.173 -0.0344  0.1287 -0.3239
   30MOL0     C 3982   9.952   0.600   9.187  0.0160  0.2851 -0.4696
   30MOL0     H 3983   9.571   0.817   9.434  2.3612  0.0735  0.6384
   30MOL0     H 3984   9.426   1.007   9.492 -0.1217 -1.8676 -0.2332
   30MOL0     H 3985   9.562   1.432   9.453 -0.6488  1.4256 -0.3444
   30MOL0     H 3986   9.482   1.398   9.296  3.8913  0.0957  0.0657
   30MOL0     H 3987   9.345   1.434   9.574 -2.0228  1.8628 -0.1138
   30MOL0     H 3988   9.367   1.556   9.447  0.3843 -0.2393 -0.8136
   30MOL0     H 3989   9.227   1.450   9.308  2.4815 -1.3366 -0.8919
   30MOL0     H 3990   9.204   1.308   9.413  5.5203 -0.5974 -1.3435
   30MOL0     H 3991   9.152   1.586   9.530 -0.3337  0.0840  1.3168
   30MOL0     H 3992   9.042   1.525   9.415  1.5560  3.6749  0.2398
   30MOL0     H 3993   9.023   1.311   9.553  0.8764 -1.7106  1.6475
   30MOL0     H 3994   9.132   1.385   9.676  0.5167 -0.3486 -0.4008
   30MOL0     H 3995   8.972   1.575   9.698  1.1864 -0.7459  0.3380
   30MOL0     H 3996   8.864   1.510   9.572 -0.4752  2.3772  0.3944
   30MOL0     H 3997   8.852   1.303   9.727 -1.9419 -0.6849  1.5296
   30MOL0     H 3998   8.906   1.400   9.861 -0.6208  0.1801  0.0220
   30MOL0     H 3999   8.698   1.559   9.747 -1.7627 -1.4363 -3.5023
   30MOL0     H 4000   8.675   1.425   9.872  1.8171 -1.4631 -0.0061
   30MOL0     H 4001   8.555   1.202   9.789  1.6202 -0.4082 -0.8110
   30MOL0     H 4002   8.446   1.085   9.475  0.0158  0.2658 -0.5640
   30MOL0     H 4003   8.405   1.059   9.640  0.5014  1.3460  1.0729
   30MOL0     H 4004   8.220   1.191   9.426 -0.5898 -0.9979 -0.0911
   30MOL0     H 4005   8.204   1.212   9.613 -2.7277  0.2321 -0.2996
   30MOL0     H 4006   8.219   0.957   9.598  1.5755  0.8131 -0.4564
   30MOL0     H 4007   8.182   0.974   9.420 -0.1597  0.3011  0.0769
   30MOL0     H 4008   8.002   0.907   9.524 -0.1544  0.0272 -2.1527
   30MOL0     H 4009   7.965   1.065   9.455 -3.8472 -1.2635  1.2875
   30MOL0     H 4010   7.772   0.998   9.512  0.0139  1.6318 -1.0608
   30MOL0     H 4011   7.483   1.033   9.462 -2.0066  0.3242  0.1604
   30MOL0     H 4012   7.566   0.882   9.471 -0.3256 -0.0273  0.7487
   30MOL0     H 4013   7.435   0.898   9.583 -0.4134 -0.7877 -2.2761
   30MOL0     H 4014   7.177   0.935   9.577 -0.3072  2.0045  0.4007
   30MOL0     H 4015   6.960   0.866   9.645 -2.6869  0.0997  1.3676
   30MOL0     H 4016   6.733   0.886   9.694 -0.6086  1.3722  0.1682
   30MOL0     H 4017   6.795   0.785   9.827  2.3871  1.2236  0.0669
   30MOL0     H 4018   6.627   0.845   9.984 -0.6961 -0.7516  0.7350
   30MOL0     H 4019   6.556   0.963   9.865  1.9019  0.0936 -2.1911
   30MOL0     H 4020   6.470   0.809   9.724 -0.3186 -1.6770 -0.3917
   30MOL0     H 4021   6.424   0.764   9.892 -0.6723  0.9249 -0.3349
   30MOL0     H 4022   6.645   0.635   9.730  0.7190  0.1529  0.3654
   30MOL0     H 4023   6.604   0.589   9.897  0.2291 -3.5806 -1.7312
   30MOL0     H 4024   6.398   0.598   9.666  0.5087  2.0535  1.5829
   30MOL0     H 4025   6.374   0.511   9.817  1.3157  1.2785  1.0793
   30MOL0     H 4026   6.405   0.358   9.655 -1.9631  1.4158  0.5472
   30MOL0     H 4027   6.557   0.420   9.590  1.4768 -3.8941  0.6503
   30MOL0     H 4028   6.674   0.374   9.807 -0.4586  1.4128  1.1010
   30MOL0     H 4029   6.615   0.239   9.703 -4.2794 -2.3411  1.0407
   30MOL0     H 4030   6.427   0.200   9.850 -0.9966  1.9064 -0.5871
   30MOL0     H 4031   6.500   0.329   9.960  0.1781  0.4085 -0.8004
   30MOL0     H 4032   6.948   1.180   9.942  1.6432  2.6496 -0.8261
   30MOL0     H 4033   7.200   1.233   9.869  0.4212 -0.4199 -0.1022
   30MOL0     H 4034   7.628   1.122   9.972  1.5622  0.4764  0.2513
   30MOL0     H 4035   7.868   1.139   9.899  1.0198 -0.9800 -0.8862
   30MOL0     H 4036   9.668   1.275   9.270  1.0798  1.2769  3.2530
   30MOL0     H 4037   9.802   1.084   9.188 -0.9472  3.0028  0.3686
   30MOL0     H 4038  10.183   0.743   9.400 -1.3397  0.0498  1.4494
   30MOL0     H 4039  10.312   0.547   9.346 -0.8355 -0.7612  2.5407
   30MOL0     H 4040  10.408   0.370   9.248 -0.7965  0.6909  1.5638
   30MOL0     H 4041  10.317   0.270   9.373  0.2641  0.3175 -0.1269
   30MOL0     H 4042  10.398   0.196   9.093  1.7631 -1.1343  0.6412
   30MOL0     H 4043  10.281   0.099   9.180 -1.8366  2.3767 -3.2638
   30MOL0     H 4044  10.443   0.074   9.364  2.5019  3.6216  1.7688
   30MOL0     H 4045  10.560   0.186   9.302  1.0262 -1.4554  1.0829
   30MOL0     H 4046  10.614   0.023   9.116  2.2806  1.1363  0.9241
   30MOL0     H 4047  10.483  -0.077   9.166  1.3270  0.5060 -0.5756
   30MOL0     H 4048  10.775  -0.170   9.458 -1.7718  1.0951  1.6673
   30MOL0     H 4049   9.986   0.402   9.106  2.3589 -2.1199  0.6481
   30MOL0     H 4050   9.854   0.613   9.143 -0.1619  1.5216  0.2573
   31MOL0     O 4051   0.304   6.698  10.905  0.1793 -0.5465  0.0587
   31MOL0     C 4052   0.381   6.620  10.851 -0.2687  0.1115 -0.0012
   31MOL0     O 4053   0.354   6.513  10.767  0.1375 -0.3846  0.1130
   31MOL0     C 4054   0.231   6.516  10.722 -0.1548  0.0047  0.8892
   31MOL0     C 4055   0.203   6.592  10.608 -0.5436  0.3158  1.0300
   31MOL0     C 4056   0.067   6.592  10.551 -0.2194  0.4730  0.2857
   31MOL0     C 4057  -0.036   6.522  10.625  0.2484 -0.2741  0.2791
   31MOL0     O 4058  -0.167   6.535  10.610  0.3803 -0.2713 -0.4802
   31MOL0     C 4059  -0.213   6.547  10.475 -0.8495 -0.1323  0.0119
   31MOL0     C 4060  -0.359   6.579  10.461  0.4750 -0.1425  0.3115
   31MOL0     C 4061  -0.395   6.637  10.321 -0.4056 -0.5728  0.8221
   31MOL0     C 4062  -0.548   6.672  10.314 -0.4946 -0.0914  0.3776
   31MOL0     C 4063  -0.599   6.716  10.177 -0.5066 -0.2164  0.0605
   31MOL0     C 4064  -0.753   6.723  10.174  0.1917  0.8290  0.3412
   31MOL0     C 4065  -0.809   6.579  10.162  0.1024 -0.4775 -0.0026
   31MOL0     C 4066  -0.959   6.579  10.204  0.6454  0.8018  0.3002
   31MOL0     N 4067  -0.963   6.598  10.349  0.1539  0.2486 -0.2898
   31MOL0     C 4068  -0.968   6.502  10.445  0.0512  0.1055  0.5131
   31MOL0     C 4069  -0.999   6.562  10.564 -0.8570  0.3073 -0.0326
   31MOL0     C 4070  -1.006   6.515  10.712  0.4326  0.3352  0.4306
   31MOL0     C 4071  -1.138   6.472  10.761  0.5104  0.4288  0.7957
   31MOL0     C 4072  -1.235   6.595  10.766 -0.2946 -0.0188  0.9623
   31MOL0     C 4073  -1.374   6.561  10.832 -0.4607 -0.5406  0.0985
   31MOL0     O 4074  -1.446   6.686  10.838 -0.0408  0.1657 -1.3748
   31MOL0     C 4075  -1.580   6.682  10.827  0.0498  0.1708  0.6432
   31MOL0     C 4076  -1.669   6.579  10.856  0.0618  0.3719 -0.5520
   31MOL0     C 4077  -1.809   6.574  10.842 -0.2770 -0.1726 -0.3136
   31MOL0     C 4078  -1.884   6.453  10.892 -0.2819  0.8387  0.0625
   31MOL0     C 4079  -1.865   6.706  10.799 -0.0307  0.3348  0.0289
   31MOL0     C 4080  -2.016   6.732  10.788 -0.4131  0.4683  0.3499
   31MOL0     O 4081  -2.049   6.866  10.799  0.3885 -0.4999 -0.8527
   31MOL0     C 4082  -2.171   6.911  10.758  0.0372 -0.1615 -0.9590
   31MOL0     C 4083  -2.289   6.895  10.826  0.8436  0.0793  0.0067
   31MOL0     C 4084  -2.411   6.952  10.771 -0.5559  0.5544 -0.2801
   31MOL0     C 4085  -2.413   7.015  10.648 -0.3149 -0.2138 -0.9907
   31MOL0     O 4086  -2.534   7.059  10.606 -0.2647 -0.0155  0.0540
   31MOL0     C 4087  -2.546   7.127  10.484  0.2297 -0.1717 -0.5485
   31MOL0     C 4088  -2.690   7.164  10.468  0.1575  0.4828 -0.4304
   31MOL0     C 4089  -2.786   7.045  10.475 -0.4720 -0.4101 -0.7305
   31MOL0     C 4090  -2.922   7.074  10.420 -0.4562 -0.2820  0.8687
   31MOL0     C 4091  -3.014   6.953  10.426 -0.4456  0.2501  0.0297
   31MOL0     C 4092  -3.052   6.911  10.566 -0.4767 -1.1069 -0.0822
   31MOL0     C 4093  -3.169   6.990  10.633  0.3485  0.8236 -0.9081
   31MOL0     C 4094  -3.303   6.908  10.617 -0.5824 -0.0103 -0.6078
   31MOL0    Cl 4095  -3.288   6.749  10.715 -0.3933  0.0569 -0.2041
   31MOL0     C 4096  -2.289   7.031  10.586  0.9608 -0.9545 -0.1059
   31MOL0     C 4097  -2.169   6.978  10.637 -0.0850 -0.4277  0.9723
   31MOL0     O 4098  -2.095   6.637  10.767 -0.3463  0.0247  0.0995
   31MOL0     C 4099  -1.783   6.817  10.765 -0.1137  0.0614 -0.5748
   31MOL0     C 4100  -1.644   6.795  10.778 -0.7646  0.5125 -0.3302
   31MOL0     N 4101  -1.006   6.696  10.537  0.5499  0.0720  0.0064
   31MOL0     N 4102  -1.006   6.718  10.403  0.2056  0.0626 -0.5231
   31MOL0     C 4103  -0.001   6.452  10.739  0.3527 -0.2272 -0.7447
   31MOL0     C 4104   0.133   6.447  10.785 -0.3871 -0.6333 -0.2933
   31MOL0     C 4105   0.515   6.628  10.916  0.4198 -0.1291  0.3939
   31MOL0     C 4106   0.608   6.525  10.900  0.0826 -0.0577  0.6251
   31MOL0     C 4107   0.739   6.533  10.937  0.1414 -0.3365  0.4233
   31MOL0     C 4108   0.787   6.638  11.015 -0.6286 -0.3995 -0.3792
   31MOL0     O 4109   0.915   6.636  11.047 -0.3180  0.3442 -0.4563
   31MOL0     C 4110   0.956   6.726  11.153 -0.5525  0.6217  1.5893
   31MOL0     C 4111   1.089   6.669  11.210 -0.9926  0.0050 -1.1574
   31MOL0     C 4112   1.065   6.534  11.290 -0.2645  0.7802 -0.2135
   31MOL0     C 4113   1.194   6.469  11.354 -0.2307  0.2357 -0.5411
   31MOL0     C 4114   1.291   6.435  11.250  0.3164  0.1622 -0.3525
   31MOL0     C 4115   1.372   6.423  11.161  0.0450  1.0039  0.3756
   31MOL0     C 4116   0.695   6.738  11.052  0.0892  0.7572  0.0529
   31MOL0     C 4117   0.567   6.743  10.995  0.4787  1.0003  0.3476
   31MOL0     H 4118   0.276   6.639  10.542 -3.1263  0.0856 -2.3119
   31MOL0     H 4119   0.038   6.651  10.464 -0.8872 -2.4756 -1.6385
   31MOL0     H 4120  -0.165   6.634  10.429 -0.2931 -0.5369 -0.1885
   31MOL0     H 4121  -0.188   6.460  10.414  0.8203  0.4086 -0.1363
   31MOL0     H 4122  -0.417   6.487  10.475  1.0309 -0.6053 -0.4015
   31MOL0     H 4123  -0.389   6.656  10.532 -0.9850  2.5192 -2.9395
   31MOL0     H 4124  -0.333   6.721  10.290 -1.2982 -0.8247 -1.9442
   31MOL0     H 4125  -0.374   6.558  10.248 -1.1748  0.8887 -1.0881
   31MOL0     H 4126  -0.591   6.575  10.342 -0.3889 -0.7303 -1.5193
   31MOL0     H 4127  -0.573   6.755  10.382 -1.4457 -0.0382 -0.0237
   31MOL0     H 4128  -0.558   6.816  10.161  2.1371 -1.1695  0.3541
   31MOL0     H 4129  -0.562   6.651  10.096  0.3322 -0.1240  0.3543
   31MOL0     H 4130  -0.791   6.771  10.265 -0.9749 -1.0975  0.9373
   31MOL0     H 4131  -0.784   6.780  10.086  0.9250  0.4296 -0.1893
   31MOL0     H 4132  -0.790   6.553  10.057 -0.4228 -0.0639 -0.2020
   31MOL0     H 4133  -0.753   6.502  10.216  1.7516  0.2624 -0.5974
   31MOL0     H 4134  -1.004   6.483  10.178  0.9758  0.3526  1.3198
   31MOL0     H 4135  -1.036   6.646  10.163 -0.2123 -0.9823 -1.1389
   31MOL0     H 4136  -0.956   6.396  10.426  0.0558  0.6546 -3.6334
   31MOL0     H 4137  -0.936   6.432  10.722  1.5282  0.8988 -1.8025
   31MOL0     H 4138  -0.969   6.601  10.768 -2.1545  1.1108  1.1127
   31MOL0     H 4139  -1.119   6.441  10.864 -1.7190 -0.7610  0.9040
   31MOL0     H 4140  -1.173   6.383  10.708 -0.6581 -0.3494  2.7534
   31MOL0     H 4141  -1.257   6.616  10.661  0.0116 -2.6189  0.2888
   31MOL0     H 4142  -1.180   6.678  10.810 -3.3266  1.3794  2.3868
   31MOL0     H 4143  -1.363   6.518  10.932  1.1047  0.5722  0.4389
   31MOL0     H 4144  -1.422   6.486  10.768  0.0624 -0.4209 -0.4516
   31MOL0     H 4145  -1.624   6.492  10.903  0.2750  0.4786 -0.5576
   31MOL0     H 4146  -1.924   6.399  10.805 -2.1550  0.9357  0.8126
   31MOL0     H 4147  -1.819   6.386  10.948  0.4380  0.3801 -1.2905
   31MOL0     H 4148  -1.969   6.480  10.956 -1.4192 -1.7357 -0.2306
   31MOL0     H 4149  -2.276   6.847  10.923  0.4539  4.9097  2.7751
   31MOL0     H 4150  -2.511   6.941  10.812 -1.0031 -1.1069 -1.6730
   31MOL0     H 4151  -2.477   7.212  10.492  0.7545 -0.6880  0.7064
   31MOL0     H 4152  -2.519   7.070  10.395 -3.9945  1.2607 -3.0382
   31MOL0     H 4153  -2.719   7.233  10.548  2.6078 -0.5996  1.4883
   31MOL0     H 4154  -2.693   7.208  10.367 -0.5767 -0.1713 -0.7091
   31MOL0     H 4155  -2.792   7.024  10.582 -1.0000  0.6387 -0.5474
   31MOL0     H 4156  -2.740   6.960  10.422  0.4677 -0.7290  0.5439
   31MOL0     H 4157  -2.969   7.165  10.458 -2.0225 -1.3887  1.6644
   31MOL0     H 4158  -2.908   7.086  10.312 -1.1595  1.2231  0.9126
   31MOL0     H 4159  -2.967   6.867  10.378  1.3737  2.5817 -2.6492
   31MOL0     H 4160  -3.115   6.966  10.384 -0.3497  0.8878 -0.0100
   31MOL0     H 4161  -3.089   6.809  10.549 -0.4115 -1.4428  1.6514
   31MOL0     H 4162  -2.966   6.910  10.633  2.1957  0.6921 -3.1810
   31MOL0     H 4163  -3.181   7.093  10.597 -0.7845  1.7754  1.9778
   31MOL0     H 4164  -3.152   6.996  10.740 -0.6477 -0.4366 -0.6556
   31MOL0     H 4165  -3.309   6.881  10.511  1.0383  0.7715 -0.9338
   31MOL0     H 4166  -3.386   6.961  10.664 -0.8920 -0.5617 -0.5321
   31MOL0     H 4167  -2.282   7.078  10.489 -3.2851  0.0928 -0.1119
   31MOL0     H 4168  -2.078   6.993  10.579 -2.0975  1.3521 -1.9934
   31MOL0     H 4169  -1.822   6.911  10.729 -2.2858 -0.5168  0.1212
   31MOL0     H 4170  -1.594   6.887  10.748 -0.0886 -0.6139 -2.8959
   31MOL0     H 4171  -0.085   6.407  10.791  1.2778 -2.3655 -0.9935
   31MOL0     H 4172   0.152   6.384  10.871  1.0277  0.4498  0.2274
   31MOL0     H 4173   0.567   6.436  10.852  1.4127  0.8064 -2.3824
   31MOL0     H 4174   0.808   6.450  10.931  0.6190  0.1685 -1.8936
   31MOL0     H 4175   0.964   6.826  11.110 -0.7160  0.8692  2.1277
   31MOL0     H 4176   0.882   6.731  11.234 -0.5859 -2.0321  1.8111
   31MOL0     H 4177   1.138   6.746  11.271 -0.8147  0.5634 -1.9905
   31MOL0     H 4178   1.162   6.655  11.129  2.3615 -0.9656  1.7740
   31MOL0     H 4179   1.018   6.462  11.222  1.6206  0.6243 -1.4236
   31MOL0     H 4180   0.993   6.559  11.368  1.6943  0.3939  1.7925
   31MOL0     H 4181   1.173   6.379  11.413  0.8184  1.1565  1.3598
   31MOL0     H 4182   1.238   6.533  11.431  0.7286 -1.9297  0.8060
   31MOL0     H 4183   1.431   6.414  11.072 -3.0802  1.8865 -1.9525
   31MOL0     H 4184   0.724   6.829  11.104 -0.2253  0.5246  0.6296
   31MOL0     H 4185   0.492   6.820  11.009 -0.7236 -0.2308  0.9214
   32MOL0     O 4186   6.233   6.827   8.930  0.3977  0.0086  0.2380
   32MOL0     C 4187   6.182   6.790   9.036 -0.5784 -0.3561  0.1770
   32MOL0     O 4188   6.265   6.760   9.143 -0.3327 -0.3176 -0.0604
   32MOL0     C 4189   6.404   6.751   9.129 -0.7317  0.9754 -0.0300
   32MOL0     C 4190   6.486   6.815   9.225 -0.5015 -0.0179 -0.3703
   32MOL0     C 4191   6.626   6.823   9.211 -0.3295 -0.1522  0.5174
   32MOL0     C 4192   6.685   6.755   9.097 -1.2930 -0.6665 -0.4318
   32MOL0     O 4193   6.822   6.758   9.092 -0.1894 -0.3181 -0.8622
   32MOL0     C 4194   6.887   6.676   8.994 -0.2884 -0.3474 -0.1159
   32MOL0     C 4195   7.036   6.664   9.022  1.0447  0.2480 -0.0044
   32MOL0     C 4196   7.107   6.796   9.024 -0.3643  0.3277 -0.2662
   32MOL0     C 4197   7.243   6.764   9.089 -0.1703 -0.5764 -0.4208
   32MOL0     C 4198   7.331   6.888   9.076 -0.4169 -0.6956 -0.5287
   32MOL0     C 4199   7.454   6.897   9.166  0.3143  0.4686  0.2321
   32MOL0     C 4200   7.547   6.774   9.162  0.4185  0.1354  1.1910
   32MOL0     C 4201   7.582   6.726   9.306 -0.9003  0.2336 -0.0238
   32MOL0     N 4202   7.477   6.649   9.361  0.0949  0.1031  0.0788
   32MOL0     C 4203   7.382   6.693   9.461  0.1424  0.1506  0.2914
   32MOL0     C 4204   7.302   6.587   9.462  0.0715  0.5415  0.3815
   32MOL0     C 4205   7.171   6.569   9.544 -0.3300  0.3908 -0.7536
   32MOL0     C 4206   7.055   6.608   9.453 -0.0393 -0.2069 -0.1478
   32MOL0     C 4207   6.920   6.583   9.525  0.2465 -0.9269 -0.6752
   32MOL0     C 4208   6.805   6.607   9.431 -0.5241 -0.4276 -0.0042
   32MOL0     O 4209   6.692   6.557   9.506  0.3132 -0.3817 -0.9618
   32MOL0     C 4210   6.574   6.521   9.443 -0.3786 -1.2434  1.0195
   32MOL0     C 4211   6.568   6.473   9.314  0.0055 -0.7090  0.4330
   32MOL0     C 4212   6.454   6.415   9.265  0.4399  0.0053 -0.2530
   32MOL0     C 4213   6.470   6.361   9.122  0.1987  0.0171 -0.6582
   32MOL0     C 4214   6.330   6.415   9.340  0.3660  0.0232  0.3331
   32MOL0     C 4215   6.202   6.363   9.289 -0.2766 -0.7818  0.2217
   32MOL0     O 4216   6.179   6.368   9.155 -0.2748 -0.4019 -0.2331
   32MOL0     C 4217   6.056   6.311   9.116  0.2404  0.4186 -0.2217
   32MOL0     C 4218   5.938   6.391   9.116  0.2744  0.6516 -0.9479
   32MOL0     C 4219   5.820   6.340   9.067  0.6272 -0.6126  0.7980
   32MOL0     C 4220   5.809   6.207   9.028  0.3907 -0.6440  0.2997
   32MOL0     O 4221   5.690   6.176   8.983  0.2063  0.2676  0.3923
   32MOL0     C 4222   5.655   6.034   8.956  0.7087  0.3583  0.2484
   32MOL0     C 4223   5.504   6.005   8.925  0.3457 -0.3646  0.8431
   32MOL0     C 4224   5.503   5.861   8.866  0.3539  0.2907  0.1326
   32MOL0     C 4225   5.377   5.846   8.781 -0.1461 -0.0122  0.4881
   32MOL0     C 4226   5.356   5.697   8.749  0.2304  0.4730 -0.4308
   32MOL0     C 4227   5.237   5.682   8.645  0.4360 -0.8514  0.0006
   32MOL0     C 4228   5.101   5.666   8.705  0.0139 -0.4374  0.5348
   32MOL0     C 4229   5.000   5.666   8.581  0.0327  0.0343 -0.1071
   32MOL0    Cl 4230   4.840   5.628   8.641  0.0203  0.0493 -0.2421
   32MOL0     C 4231   5.929   6.126   9.032 -0.2965  0.2423 -0.2341
   32MOL0     C 4232   6.046   6.178   9.085  0.4283  0.1103 -0.7240
   32MOL0     O 4233   6.122   6.318   9.373  0.2257 -0.2654 -0.6053
   32MOL0     C 4234   6.342   6.448   9.478 -0.2121  0.1538 -0.1885
   32MOL0     C 4235   6.464   6.497   9.529 -0.1955  0.1739  1.2956
   32MOL0     N 4236   7.340   6.487   9.371  0.4342 -0.3891 -0.5985
   32MOL0     N 4237   7.439   6.528   9.306 -0.4775  0.3989 -0.9078
   32MOL0     C 4238   6.605   6.680   9.017  0.5975  1.7794  0.6822
   32MOL0     C 4239   6.466   6.680   9.022 -0.7467 -0.0457  0.4755
   32MOL0     C 4240   6.035   6.795   9.051  1.1021  0.8396  0.5423
   32MOL0     C 4241   5.944   6.815   8.945  0.0465 -0.0620 -0.0183
   32MOL0     C 4242   5.808   6.843   8.972  0.3464 -0.5712 -0.6169
   32MOL0     C 4243   5.757   6.849   9.101 -0.3425  0.3155  0.7050
   32MOL0     O 4244   5.630   6.901   9.124 -0.6993 -0.0751  0.3083
   32MOL0     C 4245   5.584   6.905   9.266  0.3602  0.9325  0.1354
   32MOL0     C 4246   5.441   6.973   9.278 -0.0663 -0.1794  0.0221
   32MOL0     C 4247   5.324   6.908   9.208  0.1392  0.2855 -0.6691
   32MOL0     C 4248   5.193   6.988   9.223  0.1847 -0.7002  0.0843
   32MOL0     C 4249   5.142   6.985   9.362 -0.4330  0.1348  0.2779
   32MOL0     C 4250   5.109   6.984   9.478  1.2905 -0.2131 -0.9080
   32MOL0     C 4251   5.840   6.805   9.203  0.3776  0.5320 -0.2189
   32MOL0     C 4252   5.977   6.783   9.179  0.0773 -0.0910  0.6860
   32MOL0     H 4253   6.429   6.870   9.299 -1.0549  2.5700 -2.5707
   32MOL0     H 4254   6.699   6.877   9.270  1.9675 -2.5552  0.0695
   32MOL0     H 4255   6.853   6.573   9.002  0.1526 -0.5039 -0.2361
   32MOL0     H 4256   6.887   6.722   8.894 -3.2260  2.0469  0.8411
   32MOL0     H 4257   7.042   6.605   9.114 -2.1148 -1.4699 -0.7586
   32MOL0     H 4258   7.076   6.600   8.943 -1.7581 -2.6669  0.7336
   32MOL0     H 4259   7.122   6.832   8.922  0.8326 -0.3709 -0.3551
   32MOL0     H 4260   7.049   6.865   9.086  0.1364 -1.3474  2.1973
   32MOL0     H 4261   7.238   6.748   9.198 -1.0193  2.1700  0.0030
   32MOL0     H 4262   7.291   6.675   9.047 -0.5945 -1.0299  0.0450
   32MOL0     H 4263   7.375   6.886   8.976  1.6075 -2.2953  0.3304
   32MOL0     H 4264   7.267   6.975   9.097 -0.6208 -1.7293  4.4271
   32MOL0     H 4265   7.505   6.993   9.156  0.9822  0.2095  1.0064
   32MOL0     H 4266   7.416   6.900   9.269  3.3385 -0.5180  1.4958
   32MOL0     H 4267   7.498   6.692   9.109  1.9526 -2.2279  3.2201
   32MOL0     H 4268   7.641   6.800   9.113 -0.5712 -2.0498 -2.2423
   32MOL0     H 4269   7.601   6.814   9.368  0.0810 -0.5890  0.8763
   32MOL0     H 4270   7.675   6.670   9.294 -2.2716 -1.7487 -2.1698
   32MOL0     H 4271   7.379   6.784   9.520  2.7323  0.9517 -0.6957
   32MOL0     H 4272   7.167   6.462   9.566  2.6119  0.1370 -1.0782
   32MOL0     H 4273   7.180   6.619   9.641 -0.0705  0.9497 -1.0588
   32MOL0     H 4274   7.064   6.557   9.358  1.2108 -0.9203  0.3284
   32MOL0     H 4275   7.065   6.713   9.423 -1.4557 -0.0481 -0.1250
   32MOL0     H 4276   6.898   6.654   9.605 -1.2483  0.4812 -2.2404
   32MOL0     H 4277   6.903   6.483   9.565 -0.6458 -0.6753 -0.4003
   32MOL0     H 4278   6.821   6.558   9.334  0.0356 -1.9798  0.8320
   32MOL0     H 4279   6.795   6.713   9.408  3.0005  0.2545  1.0011
   32MOL0     H 4280   6.657   6.472   9.252  0.2475  2.9454  0.5237
   32MOL0     H 4281   6.427   6.261   9.117  0.2040  0.0043 -0.4611
   32MOL0     H 4282   6.419   6.424   9.048  0.0164  0.6452 -0.0083
   32MOL0     H 4283   6.575   6.356   9.090  0.8282 -3.9467  1.4380
   32MOL0     H 4284   5.946   6.492   9.154 -0.0826 -0.0888  1.2117
   32MOL0     H 4285   5.724   6.390   9.069 -2.1404 -5.3075  0.1633
   32MOL0     H 4286   5.707   6.003   8.865 -2.0302 -1.0411 -0.9832
   32MOL0     H 4287   5.687   5.969   9.037  0.4979  0.6759  0.5924
   32MOL0     H 4288   5.450   6.023   9.019  0.3509  0.5589  0.6843
   32MOL0     H 4289   5.464   6.079   8.855 -1.3370 -0.9691  1.1299
   32MOL0     H 4290   5.492   5.784   8.942 -0.9687  1.1678  0.8635
   32MOL0     H 4291   5.592   5.833   8.807 -0.1999 -0.9918 -0.1226
   32MOL0     H 4292   5.292   5.884   8.838 -0.7828 -0.7943  0.0740
   32MOL0     H 4293   5.387   5.905   8.689  0.5693  1.1575  1.2903
   32MOL0     H 4294   5.337   5.634   8.836 -0.2576  0.7226 -0.3513
   32MOL0     H 4295   5.442   5.657   8.696  0.5127  0.9450 -0.3379
   32MOL0     H 4296   5.228   5.775   8.587 -0.2009 -0.1593  1.1731
   32MOL0     H 4297   5.258   5.607   8.569 -1.1009 -1.2614 -0.0500
   32MOL0     H 4298   5.068   5.747   8.771 -1.7094  0.7460 -1.6009
   32MOL0     H 4299   5.091   5.569   8.755  1.0496  0.4183  2.4935
   32MOL0     H 4300   5.030   5.600   8.500 -1.9791 -1.7920  0.5444
   32MOL0     H 4301   4.996   5.765   8.534  0.6382  0.9691  1.6983
   32MOL0     H 4302   5.927   6.019   9.014 -0.1285  0.3876 -1.1867
   32MOL0     H 4303   6.134   6.114   9.083 -0.3420 -0.9918 -0.3717
   32MOL0     H 4304   6.254   6.445   9.541 -1.0745 -0.9704 -1.3838
   32MOL0     H 4305   6.470   6.514   9.636  0.9476  0.0013  1.2770
   32MOL0     H 4306   6.648   6.629   8.931  2.0165  0.4812  2.0946
   32MOL0     H 4307   6.404   6.642   8.942  1.2484  1.2430 -1.8406
   32MOL0     H 4308   5.977   6.824   8.841  0.3580 -2.8336 -0.2115
   32MOL0     H 4309   5.735   6.878   8.900 -0.1247 -0.8563 -0.2840
   32MOL0     H 4310   5.573   6.804   9.305 -3.1873  0.8439 -0.7716
   32MOL0     H 4311   5.665   6.954   9.321  2.3333 -0.3557 -1.5189
   32MOL0     H 4312   5.437   7.073   9.234 -3.1854 -0.9738 -1.7560
   32MOL0     H 4313   5.423   6.972   9.386  0.3865  1.5249  0.1429
   32MOL0     H 4314   5.297   6.810   9.247 -0.6987  0.4970 -0.6964
   32MOL0     H 4315   5.346   6.897   9.101 -2.5065  1.8956 -1.4704
   32MOL0     H 4316   5.114   6.938   9.166 -0.2966  3.0140 -2.9423
   32MOL0     H 4317   5.208   7.087   9.178  0.4170 -2.5054 -4.2752
   32MOL0     H 4318   5.086   6.977   9.583  1.5342 -0.2564 -0.8580
   32MOL0     H 4319   5.825   6.809   9.310  1.2052 -0.1103 -0.0678
   32MOL0     H 4320   6.047   6.774   9.261 -0.3803  0.6492  1.1596
   33MOL0     O 4321   9.188  10.339   9.617  0.5779 -0.0314 -0.0535
   33MOL0     C 4322   9.167  10.454   9.570  0.2178  0.2627 -0.7084
   33MOL0     O 4323   9.062  10.484   9.492 -0.5712  0.2927  0.2863
   33MOL0     C 4324   8.965  10.387   9.487  0.2526 -0.0879  0.0635
   33MOL0     C 4325   8.975  10.297   9.380 -0.1220 -0.7977 -0.5516
   33MOL0     C 4326   8.871  10.203   9.365 -0.3654 -0.0696  0.4657
   33MOL0     C 4327   8.753  10.213   9.433 -0.9614  0.7899 -0.2044
   33MOL0     O 4328   8.645  10.135   9.411 -0.1204  0.7668 -0.4395
   33MOL0     C 4329   8.652  10.035   9.307 -0.0224 -0.4445  0.2774
   33MOL0     C 4330   8.522   9.962   9.294  0.0041  0.0659  0.0816
   33MOL0     C 4331   8.401  10.044   9.275  0.3763  0.5108  0.1441
   33MOL0     C 4332   8.319   9.996   9.159  0.0313  0.4118 -0.1794
   33MOL0     C 4333   8.182  10.051   9.141 -0.6416 -0.4951  0.1274
   33MOL0     C 4334   8.077  10.014   9.239  0.1596 -0.7607 -0.6032
   33MOL0     C 4335   7.936  10.060   9.189  0.5254  0.7236 -0.4132
   33MOL0     C 4336   7.838  10.035   9.308 -0.0514  0.4444 -0.1760
   33MOL0     N 4337   7.759   9.915   9.291  0.5794 -0.1144  0.2143
   33MOL0     C 4338   7.799   9.796   9.231  0.3379 -0.2551 -0.1187
   33MOL0     C 4339   7.682   9.720   9.218  0.2157 -0.9090  0.7539
   33MOL0     C 4340   7.676   9.584   9.150  0.4168 -0.8109 -0.3172
   33MOL0     C 4341   7.698   9.606   9.005  0.7545 -0.6638 -0.8933
   33MOL0     C 4342   7.702   9.476   8.916  0.3574 -1.1853  0.4134
   33MOL0     C 4343   7.563   9.425   8.884  0.4231  0.5200  0.2235
   33MOL0     O 4344   7.549   9.295   8.819 -0.5020 -0.8843 -0.3519
   33MOL0     C 4345   7.431   9.254   8.774 -0.2551  0.0467 -0.3309
   33MOL0     C 4346   7.425   9.126   8.726  0.5005  0.0331 -0.1098
   33MOL0     C 4347   7.310   9.075   8.654 -0.2292  0.2809  0.0376
   33MOL0     C 4348   7.322   8.931   8.608  0.2759 -0.8045  0.8985
   33MOL0     C 4349   7.205   9.163   8.623  0.3953  0.0441 -0.3908
   33MOL0     C 4350   7.082   9.129   8.542 -0.6327 -0.5870  1.1675
   33MOL0     O 4351   6.958   9.165   8.584 -0.1534  0.1055  0.2519
   33MOL0     C 4352   6.843   9.133   8.522 -0.4912  0.1202 -0.0010
   33MOL0     C 4353   6.729   9.195   8.585 -0.5443  0.3712  0.6134
   33MOL0     C 4354   6.603   9.173   8.532  0.0710  0.1208 -0.5726
   33MOL0     C 4355   6.591   9.106   8.409 -0.4720 -0.4732  1.2180
   33MOL0     O 4356   6.470   9.069   8.353 -0.1924 -0.1921  0.2616
   33MOL0     C 4357   6.385   9.182   8.322  0.3116  0.1571  0.1010
   33MOL0     C 4358   6.255   9.173   8.406  0.1595 -0.0168 -0.1268
   33MOL0     C 4359   6.171   9.055   8.361 -0.3411  0.3997  0.0886
   33MOL0     C 4360   6.088   9.068   8.228  0.1485 -0.4138 -0.4566
   33MOL0     C 4361   5.980   9.173   8.237 -0.0976  0.9307  0.1416
   33MOL0     C 4362   5.875   9.146   8.128  0.0296  0.4665  0.5674
   33MOL0     C 4363   5.750   9.245   8.134  0.4949 -0.4762 -0.5385
   33MOL0     C 4364   5.676   9.234   8.004 -0.1109  0.2434 -0.1675
   33MOL0    Cl 4365   5.618   9.065   7.961  0.0342  0.0552  0.0479
   33MOL0     C 4366   6.703   9.045   8.348 -0.3616 -0.4354 -0.3322
   33MOL0     C 4367   6.828   9.062   8.396  0.0493 -0.4474  0.4184
   33MOL0     O 4368   7.106   9.068   8.437  0.2367 -1.0162  0.1042
   33MOL0     C 4369   7.207   9.286   8.687 -0.6612  0.6168 -0.0335
   33MOL0     C 4370   7.315   9.335   8.749  0.3356  0.0260 -0.0895
   33MOL0     N 4371   7.576   9.790   9.275  0.3099  0.2188  0.4089
   33MOL0     N 4372   7.625   9.901   9.324  0.2974  0.4970  0.1899
   33MOL0     C 4373   8.738  10.306   9.528  0.2215  0.8347  0.0871
   33MOL0     C 4374   8.845  10.401   9.561 -0.2031 -0.1029  0.0048
   33MOL0     C 4375   9.274  10.548   9.587 -0.2683  0.0967 -0.1150
   33MOL0     C 4376   9.398  10.514   9.650 -0.6335  0.6075  0.0700
   33MOL0     C 4377   9.492  10.618   9.669  0.2405 -0.5036 -0.1910
   33MOL0     C 4378   9.467  10.753   9.639  0.4758  0.2108  0.1479
   33MOL0     O 4379   9.545  10.857   9.675  0.1127 -0.4316  0.7377
   33MOL0     C 4380   9.627  10.860   9.787 -0.7672 -0.1252 -1.1159
   33MOL0     C 4381   9.770  10.869   9.748 -0.5133 -0.0327 -0.1395
   33MOL0     C 4382   9.851  10.928   9.864 -0.0784 -0.4057 -0.0297
   33MOL0     C 4383  10.000  10.945   9.820 -0.2746  0.0355  0.3619
   33MOL0     C 4384  10.091  11.016   9.909  0.9037  0.5703 -0.2278
   33MOL0     C 4385  10.166  11.083   9.978  0.8010 -0.2146 -0.0649
   33MOL0     C 4386   9.350  10.783   9.577  0.0484 -0.4285 -0.5844
   33MOL0     C 4387   9.252  10.687   9.554  0.7622 -0.3276  0.0262
   33MOL0     H 4388   9.068  10.308   9.326  0.6312 -1.0092  0.6589
   33MOL0     H 4389   8.900  10.119   9.302 -1.4639 -0.6625  0.7223
   33MOL0     H 4390   8.664  10.075   9.206 -0.2185 -1.1865 -0.0446
   33MOL0     H 4391   8.737   9.969   9.323  2.2326  2.5554  1.6739
   33MOL0     H 4392   8.536   9.884   9.219 -0.6252 -1.9993  1.9657
   33MOL0     H 4393   8.512   9.915   9.393 -1.0381  1.8587  0.8834
   33MOL0     H 4394   8.341  10.033   9.366 -1.3846  0.0348 -1.0209
   33MOL0     H 4395   8.427  10.149   9.262  0.9329  0.2174 -1.4381
   33MOL0     H 4396   8.388  10.006   9.075  1.2717  0.2324  0.7906
   33MOL0     H 4397   8.297   9.890   9.175  1.3087  0.4356  2.2423
   33MOL0     H 4398   8.199  10.159   9.146  0.2079 -0.6626  1.3190
   33MOL0     H 4399   8.153  10.035   9.037 -1.9574 -1.0441  0.5589
   33MOL0     H 4400   8.076   9.906   9.259 -2.1945 -0.7420 -0.2887
   33MOL0     H 4401   8.097  10.067   9.332  0.0732 -2.1184  0.2272
   33MOL0     H 4402   7.930  10.167   9.165 -2.5997  0.8815  0.6339
   33MOL0     H 4403   7.911  10.008   9.096  1.5482 -0.2597 -0.1688
   33MOL0     H 4404   7.771  10.119   9.330 -0.6676  0.4012 -1.7604
   33MOL0     H 4405   7.895  10.033   9.402 -0.0963  3.4504  0.0363
   33MOL0     H 4406   7.892   9.757   9.192  0.4961 -1.2365  1.1811
   33MOL0     H 4407   7.753   9.527   9.203  0.1752 -0.0210  0.9236
   33MOL0     H 4408   7.584   9.528   9.170  1.2368 -2.8806 -1.9900
   33MOL0     H 4409   7.798   9.647   8.987  0.6264 -0.6460 -1.6264
   33MOL0     H 4410   7.629   9.677   8.958 -0.7045 -2.1329 -1.0414
   33MOL0     H 4411   7.755   9.394   8.966  0.5214 -0.2999  1.7188
   33MOL0     H 4412   7.744   9.505   8.819 -2.6216  1.9907 -0.1258
   33MOL0     H 4413   7.519   9.497   8.814 -0.0943 -0.2200 -0.2170
   33MOL0     H 4414   7.510   9.425   8.980 -0.0066 -1.3933  0.0240
   33MOL0     H 4415   7.508   9.060   8.749 -0.4547 -1.1555  0.0371
   33MOL0     H 4416   7.381   8.876   8.683 -3.0651 -0.7054  3.8425
   33MOL0     H 4417   7.225   8.880   8.608 -0.5297  0.6195 -1.0805
   33MOL0     H 4418   7.372   8.925   8.511 -2.1294  0.1089 -0.4790
   33MOL0     H 4419   6.751   9.238   8.682  2.0804  2.3396 -0.7483
   33MOL0     H 4420   6.510   9.213   8.573  0.1913  0.2568 -0.4299
   33MOL0     H 4421   6.430   9.281   8.331  1.3974 -0.0795 -2.0376
   33MOL0     H 4422   6.359   9.172   8.216  0.7673  1.5953 -0.1676
   33MOL0     H 4423   6.282   9.169   8.512  1.5068 -1.0214 -0.4754
   33MOL0     H 4424   6.198   9.266   8.403  0.0720 -0.0228  1.0233
   33MOL0     H 4425   6.102   9.029   8.442  0.5449 -4.5591 -0.4476
   33MOL0     H 4426   6.243   8.972   8.361  0.0506  0.7246 -0.9048
   33MOL0     H 4427   6.150   9.072   8.138  0.0521 -3.9570 -0.8514
   33MOL0     H 4428   6.030   8.976   8.215 -1.6662  0.7894 -1.3620
   33MOL0     H 4429   6.025   9.273   8.232  4.1384 -0.8015  0.0049
   33MOL0     H 4430   5.931   9.160   8.334  2.1307 -2.3527  0.9889
   33MOL0     H 4431   5.925   9.129   8.032 -1.8330 -1.6964 -0.0935
   33MOL0     H 4432   5.836   9.046   8.149 -0.1093  0.0474 -1.5144
   33MOL0     H 4433   5.774   9.347   8.165  0.7212 -0.3711 -1.0681
   33MOL0     H 4434   5.677   9.211   8.209 -0.8623  0.9073 -1.1763
   33MOL0     H 4435   5.739   9.276   7.925 -0.4485  1.5689  0.2387
   33MOL0     H 4436   5.585   9.295   8.010  1.3084  2.7477 -1.8945
   33MOL0     H 4437   6.701   8.990   8.255 -0.1158 -0.6625 -0.2054
   33MOL0     H 4438   6.907   9.018   8.337  0.0790 -0.3342  0.3748
   33MOL0     H 4439   7.124   9.352   8.663 -0.0897  0.8856 -1.3466
   33MOL0     H 4440   7.304   9.438   8.782 -3.4984  0.6221 -2.5329
   33MOL0     H 4441   8.636  10.329   9.555  0.7153  3.2517  0.1409
   33MOL0     H 4442   8.839  10.486   9.628  3.1037  0.6635 -0.5281
   33MOL0     H 4443   9.417  10.414   9.686 -0.7882  0.2810 -0.7217
   33MOL0     H 4444   9.582  10.594   9.725 -1.0268  1.1166  2.7688
   33MOL0     H 4445   9.604  10.949   9.846  0.9176 -1.2664  1.4724
   33MOL0     H 4446   9.604  10.782   9.860 -1.1210 -1.0574 -2.1844
   33MOL0     H 4447   9.779  10.941   9.666  0.6896  0.2176  0.1845
   33MOL0     H 4448   9.794  10.768   9.713  1.6497  1.7149 -4.5716
   33MOL0     H 4449   9.826  10.861   9.946 -2.2441  0.2353 -0.0981
   33MOL0     H 4450   9.814  11.028   9.890  2.6482  0.2239  1.8414
   33MOL0     H 4451  10.012  10.990   9.720  3.1431  1.7088  1.3528
   33MOL0     H 4452  10.041  10.844   9.814 -0.2901 -0.0421  1.4552
   33MOL0     H 4453  10.227  11.125  10.055 -1.1883 -1.1097  2.1134
   33MOL0     H 4454   9.329  10.884   9.543  2.1440 -0.5762 -2.5322
   33MOL0     H 4455   9.156  10.708   9.509 -0.2720 -2.2980  1.1766
   34MOL0     O 4456   6.948   1.766  10.030  0.0839  0.3999 -0.1172
   34MOL0     C 4457   7.010   1.862  10.066 -0.0009 -0.1857  0.5237
   34MOL0     O 4458   6.951   1.979  10.089 -0.7239 -1.0162 -0.8663
   34MOL0     C 4459   6.818   1.989  10.079  1.3245  0.0511  0.2178
   34MOL0     C 4460   6.748   2.070   9.992 -0.3646 -0.0013  0.3123
   34MOL0     C 4461   6.609   2.061   9.987 -0.9639 -0.9785 -1.0339
   34MOL0     C 4462   6.539   1.986  10.077 -0.1212  0.4992  0.6680
   34MOL0     O 4463   6.400   1.978  10.062 -0.2555  0.2979  0.2404
   34MOL0     C 4464   6.304   1.936  10.165  0.0240  0.6171  0.0252
   34MOL0     C 4465   6.263   1.780  10.158 -0.6641 -0.5670  0.9871
   34MOL0     C 4466   6.137   1.753  10.077 -0.4590 -0.0899 -0.3427
   34MOL0     C 4467   6.013   1.819  10.143 -0.4382 -0.9120 -0.0580
   34MOL0     C 4468   5.885   1.771  10.079 -0.6602 -0.4104  0.4453
   34MOL0     C 4469   5.755   1.842  10.131  0.6721 -0.0047 -0.8290
   34MOL0     C 4470   5.617   1.808  10.065 -0.3305 -0.4137 -0.0901
   34MOL0     C 4471   5.587   1.664  10.094  0.5936  0.2087 -0.4995
   34MOL0     N 4472   5.452   1.633  10.059  0.5463  0.3971 -0.2838
   34MOL0     C 4473   5.346   1.639  10.149  0.5191 -0.7516  0.5072
   34MOL0     C 4474   5.243   1.594  10.072  0.2351 -0.2926 -0.5264
   34MOL0     C 4475   5.102   1.606  10.113  0.5212 -0.1020  0.1445
   34MOL0     C 4476   5.013   1.623   9.994 -0.4599  0.6042  0.1219
   34MOL0     C 4477   4.865   1.672  10.028 -0.1918 -0.4382  1.0013
   34MOL0     C 4478   4.792   1.722   9.895  0.0566 -0.4585 -0.9731
   34MOL0     O 4479   4.863   1.847   9.861 -0.6071  0.6766  0.5621
   34MOL0     C 4480   4.844   1.965   9.918 -0.5473  0.6413 -0.2741
   34MOL0     C 4481   4.915   2.082   9.881  1.1775 -0.1810 -1.0179
   34MOL0     C 4482   4.892   2.208   9.935  0.4146 -0.8022  0.8700
   34MOL0     C 4483   4.965   2.322   9.864 -0.8385  0.4191 -0.2696
   34MOL0     C 4484   4.797   2.226  10.038 -0.1100 -0.5359  0.7082
   34MOL0     C 4485   4.761   2.352  10.105 -0.1781  0.0709 -0.0894
   34MOL0     O 4486   4.685   2.339  10.222  1.0547  0.3654  0.5057
   34MOL0     C 4487   4.655   2.447  10.301 -0.0311 -0.5239 -0.1377
   34MOL0     C 4488   4.534   2.439  10.380  0.2270  0.4676 -0.4295
   34MOL0     C 4489   4.480   2.552  10.446  0.0025  0.0825 -0.3708
   34MOL0     C 4490   4.553   2.665  10.453 -0.6815  0.2510  0.1163
   34MOL0     O 4491   4.479   2.768  10.500  0.0561  0.6100 -0.7492
   34MOL0     C 4492   4.535   2.901  10.514  0.0412  0.3393 -0.5646
   34MOL0     C 4493   4.414   2.980  10.563  0.2482  0.6202 -0.4502
   34MOL0     C 4494   4.457   3.129  10.586  0.0828  0.0442  0.7168
   34MOL0     C 4495   4.337   3.209  10.631 -0.0366 -0.3564  0.5657
   34MOL0     C 4496   4.348   3.358  10.616  0.1287 -0.5340  0.3663
   34MOL0     C 4497   4.217   3.424  10.639 -0.0052 -0.1401 -0.5719
   34MOL0     C 4498   4.167   3.399  10.778  0.5061 -0.3733 -0.1748
   34MOL0     C 4499   4.090   3.522  10.837  0.2419  0.4453  0.7893
   34MOL0    Cl 4500   4.009   3.472  10.980  0.3358  0.2745 -0.4760
   34MOL0     C 4501   4.679   2.674  10.385  0.1882 -0.7809  0.2390
   34MOL0     C 4502   4.732   2.566  10.312  0.5736  0.7665  0.6204
   34MOL0     O 4503   4.792   2.464  10.049  0.4643  0.0479 -0.0105
   34MOL0     C 4504   4.736   2.108  10.083 -0.0795  0.4278  0.1811
   34MOL0     C 4505   4.755   1.982  10.028  0.2715 -0.2628  0.0995
   34MOL0     N 4506   5.291   1.546   9.953  0.1278 -0.4610 -0.2042
   34MOL0     N 4507   5.419   1.568   9.942 -0.1479  0.0783 -0.2413
   34MOL0     C 4508   6.607   1.920  10.177 -0.2225  0.6725  0.0427
   34MOL0     C 4509   6.747   1.916  10.176 -0.9795 -0.5749  0.3057
   34MOL0     C 4510   7.162   1.841  10.091 -1.2414  0.0425  0.0427
   34MOL0     C 4511   7.235   1.959  10.123 -1.0708 -0.8424 -0.0213
   34MOL0     C 4512   7.375   1.948  10.134  0.3936 -0.3494 -0.3415
   34MOL0     C 4513   7.434   1.819  10.141 -0.2189 -0.7226  0.3346
   34MOL0     O 4514   7.569   1.792  10.152  0.0312 -0.1076 -0.9137
   34MOL0     C 4515   7.657   1.899  10.174  0.4240 -0.2350 -0.1250
   34MOL0     C 4516   7.802   1.863  10.145  0.2964  0.3541 -0.5411
   34MOL0     C 4517   7.804   1.820  10.006 -0.1193  1.0366 -0.1022
   34MOL0     C 4518   7.942   1.812   9.943  0.0740 -0.3700  0.1893
   34MOL0     C 4519   7.995   1.952   9.940 -0.2685  0.7749 -0.0038
   34MOL0     C 4520   8.044   2.059   9.953  0.2442 -0.1625 -1.0711
   34MOL0     C 4521   7.356   1.702  10.136 -0.2849 -1.0255 -0.7473
   34MOL0     C 4522   7.224   1.715  10.109  0.4677 -0.1598 -1.0515
   34MOL0     H 4523   6.811   2.128   9.925  1.0367 -0.9816  0.7524
   34MOL0     H 4524   6.548   2.109   9.911  0.1516  0.0376 -1.3112
   34MOL0     H 4525   6.337   1.959  10.267 -0.8920 -3.2885  1.3890
   34MOL0     H 4526   6.218   2.001  10.148 -0.0651  0.0927 -1.7374
   34MOL0     H 4527   6.341   1.719  10.112 -0.2320 -0.6376  1.7858
   34MOL0     H 4528   6.250   1.740  10.260  1.3062 -0.2315  1.4256
   34MOL0     H 4529   6.157   1.799   9.979  2.2483  1.9081  1.0338
   34MOL0     H 4530   6.122   1.645  10.066  2.1059 -0.6486  0.9235
   34MOL0     H 4531   6.004   1.804  10.251  0.5949 -1.9660 -0.1099
   34MOL0     H 4532   6.018   1.924  10.113 -1.0975 -1.3673 -1.8676
   34MOL0     H 4533   5.894   1.784   9.970 -3.6812 -0.1608  0.1235
   34MOL0     H 4534   5.887   1.662  10.084  0.7390 -0.5210 -1.3123
   34MOL0     H 4535   5.749   1.821  10.238 -4.1716 -1.1157 -1.0788
   34MOL0     H 4536   5.766   1.950  10.115 -0.7043  0.1056 -1.1875
   34MOL0     H 4537   5.545   1.867  10.121 -0.6186  0.7551 -1.6422
   34MOL0     H 4538   5.603   1.840   9.962 -0.5525  0.2101  0.1332
   34MOL0     H 4539   5.608   1.636  10.198  2.5701 -1.2951 -1.2391
   34MOL0     H 4540   5.650   1.601  10.031  3.3223  0.5368  1.6644
   34MOL0     H 4541   5.337   1.681  10.248 -0.8334 -4.6262  2.2423
   34MOL0     H 4542   5.072   1.517  10.169  0.2991 -1.5308 -2.1204
   34MOL0     H 4543   5.085   1.693  10.176 -0.5308 -1.2360  1.4746
   34MOL0     H 4544   5.014   1.523   9.948  1.8148  0.3439  0.6137
   34MOL0     H 4545   5.066   1.684   9.920  2.6988 -2.0407 -0.0444
   34MOL0     H 4546   4.883   1.754  10.098 -1.9575  0.2150  0.7357
   34MOL0     H 4547   4.809   1.593  10.078 -0.5978 -0.7661  0.0473
   34MOL0     H 4548   4.684   1.735   9.897  0.1606  0.7191 -1.8262
   34MOL0     H 4549   4.810   1.653   9.812 -0.9443 -0.9715 -0.7650
   34MOL0     H 4550   4.988   2.064   9.803  0.3005 -0.4773 -1.7724
   34MOL0     H 4551   4.902   2.398   9.817 -1.2849 -0.1639 -0.6330
   34MOL0     H 4552   5.030   2.371   9.938  0.8247 -0.9552 -0.7829
   34MOL0     H 4553   5.033   2.278   9.791 -0.4492 -0.0367  0.3616
   34MOL0     H 4554   4.487   2.343  10.366 -0.5064  0.7929 -0.2138
   34MOL0     H 4555   4.379   2.558  10.485 -0.6566 -1.0505 -1.8639
   34MOL0     H 4556   4.616   2.911  10.587  0.3376  0.2043 -0.8674
   34MOL0     H 4557   4.581   2.943  10.423  3.1106  1.3680  1.2951
   34MOL0     H 4558   4.324   2.964  10.503 -0.9805 -1.7616  1.8196
   34MOL0     H 4559   4.386   2.941  10.662 -1.6421 -0.4485 -1.3568
   34MOL0     H 4560   4.486   3.165  10.486  0.0013 -0.5224  0.4891
   34MOL0     H 4561   4.543   3.139  10.652  1.5356  0.3965 -1.1315
   34MOL0     H 4562   4.250   3.172  10.577 -0.0812  0.8406 -0.2231
   34MOL0     H 4563   4.306   3.193  10.734 -0.4459 -0.2536  0.4604
   34MOL0     H 4564   4.370   3.385  10.513 -2.1909  0.2399  0.0163
   34MOL0     H 4565   4.424   3.399  10.683 -0.8133  0.1760  1.0407
   34MOL0     H 4566   4.233   3.532  10.627 -1.3875 -0.1050 -2.9058
   34MOL0     H 4567   4.140   3.401  10.564 -1.2847  2.4728 -0.1955
   34MOL0     H 4568   4.250   3.377  10.845  0.7561  2.7383  0.6584
   34MOL0     H 4569   4.095   3.316  10.775 -0.9994  0.8725  0.2403
   34MOL0     H 4570   4.027   3.560  10.756  0.2341 -0.1985  0.4830
   34MOL0     H 4571   4.158   3.605  10.860 -0.3062  1.3379 -0.6733
   34MOL0     H 4572   4.728   2.770  10.373  1.1725 -1.5923 -3.2125
   34MOL0     H 4573   4.828   2.572  10.261  0.7834  0.3682  0.9643
   34MOL0     H 4574   4.662   2.105  10.162  0.4578 -0.1647  0.6813
   34MOL0     H 4575   4.689   1.902  10.060  0.2461 -0.5692 -0.6943
   34MOL0     H 4576   6.564   1.863  10.258  1.1692 -0.1005  0.2876
   34MOL0     H 4577   6.804   1.853  10.243  0.1805  1.0591  0.9452
   34MOL0     H 4578   7.193   2.059  10.113 -0.5954 -0.8104 -2.1805
   34MOL0     H 4579   7.433   2.040  10.127  0.0224 -0.2400 -3.2126
   34MOL0     H 4580   7.624   1.977  10.106 -0.6782 -0.8224 -0.2766
   34MOL0     H 4581   7.651   1.920  10.282 -0.9235 -2.3879  0.2830
   34MOL0     H 4582   7.836   1.780  10.208 -0.5344 -1.6699 -2.6536
   34MOL0     H 4583   7.864   1.950  10.172  0.1706  0.3292 -0.1673
   34MOL0     H 4584   7.737   1.878   9.941  0.3591 -1.0750 -2.6452
   34MOL0     H 4585   7.768   1.717   9.999  0.8911  0.6518  0.1798
   34MOL0     H 4586   7.937   1.750   9.854  2.1728  2.9749 -2.5011
   34MOL0     H 4587   8.005   1.760  10.016 -1.1013 -0.8751  0.8766
   34MOL0     H 4588   8.084   2.157   9.968  0.8608 -0.9208  3.9800
   34MOL0     H 4589   7.393   1.600  10.143  0.5179 -0.8167 -1.7303
   34MOL0     H 4590   7.159   1.630  10.087 -0.8449  0.5849 -0.2217
   35MOL0     O 4591   0.736   8.568   6.219  0.1083  0.0484  0.4925
   35MOL0     C 4592   0.849   8.617   6.216  1.4432  0.3761 -0.0094
   35MOL0     O 4593   0.894   8.717   6.124  0.5485  0.0896 -0.4883
   35MOL0     C 4594   0.795   8.775   6.061  0.3774 -0.0607  0.6260
   35MOL0     C 4595   0.771   8.751   5.918 -1.2145  0.4513  0.4921
   35MOL0     C 4596   0.668   8.820   5.848 -0.1716  0.1345  0.3967
   35MOL0     C 4597   0.588   8.917   5.908  0.3144 -0.3335 -0.2153
   35MOL0     O 4598   0.495   8.968   5.834 -0.0474 -0.1575 -0.4652
   35MOL0     C 4599   0.399   9.051   5.898  0.2580 -0.0205  0.0923
   35MOL0     C 4600   0.298   9.082   5.784 -0.1625  0.1240 -0.4237
   35MOL0     C 4601   0.204   9.195   5.827  0.1130 -0.5784  0.0314
   35MOL0     C 4602   0.073   9.188   5.740  1.0376  0.7168 -1.0687
   35MOL0     C 4603  -0.020   9.311   5.773 -0.5503  0.3671  0.5715
   35MOL0     C 4604  -0.123   9.319   5.662  1.0457 -0.6650  0.3868
   35MOL0     C 4605  -0.210   9.441   5.703  0.2235  0.7083 -0.0770
   35MOL0     C 4606  -0.324   9.450   5.602 -0.4555  0.0823  0.0736
   35MOL0     N 4607  -0.423   9.563   5.613 -0.8886 -0.3521 -0.5047
   35MOL0     C 4608  -0.539   9.557   5.687  0.1236 -0.8044 -0.4080
   35MOL0     C 4609  -0.599   9.675   5.668  0.0210 -0.1740 -0.1303
   35MOL0     C 4610  -0.717   9.733   5.739  0.8627  0.1449  0.6843
   35MOL0     C 4611  -0.836   9.629   5.757 -0.0147 -0.7267 -0.2142
   35MOL0     C 4612  -0.946   9.714   5.823 -0.6429  0.0017 -0.2117
   35MOL0     C 4613  -1.085   9.660   5.828 -0.2081 -0.1331 -0.2498
   35MOL0     O 4614  -1.089   9.545   5.914 -0.1477  0.0515  0.1863
   35MOL0     C 4615  -1.219   9.503   5.940  0.2817 -1.2085 -0.1735
   35MOL0     C 4616  -1.232   9.420   6.060  0.7045 -0.1047  0.4303
   35MOL0     C 4617  -1.360   9.375   6.104 -0.0156  0.2004 -0.0173
   35MOL0     C 4618  -1.359   9.290   6.231  0.8270 -0.7756 -0.1867
   35MOL0     C 4619  -1.479   9.399   6.024 -0.3386  0.1366 -0.1028
   35MOL0     C 4620  -1.615   9.343   6.062  0.6263  0.2485 -0.1772
   35MOL0     O 4621  -1.712   9.335   5.964  0.4804 -0.5119  0.1709
   35MOL0     C 4622  -1.834   9.297   6.000  1.1167  0.6979 -0.1615
   35MOL0     C 4623  -1.864   9.170   6.061  0.6582  0.0567  0.0434
   35MOL0     C 4624  -1.998   9.146   6.089  0.8537  0.0440 -0.1410
   35MOL0     C 4625  -2.101   9.243   6.068  0.0310  0.2187 -0.5035
   35MOL0     O 4626  -2.226   9.221   6.100  0.2162  0.1606  0.3535
   35MOL0     C 4627  -2.265   9.114   6.181  0.2602  0.5679 -0.3580
   35MOL0     C 4628  -2.418   9.113   6.210 -0.0653 -0.2776 -0.6905
   35MOL0     C 4629  -2.461   9.237   6.283  0.2267 -0.1006  0.3776
   35MOL0     C 4630  -2.599   9.222   6.359 -0.0988 -0.1396 -0.4993
   35MOL0     C 4631  -2.717   9.202   6.269 -0.4705  0.3589  0.2991
   35MOL0     C 4632  -2.841   9.179   6.361 -0.3155 -0.1299  0.1921
   35MOL0     C 4633  -2.967   9.181   6.271 -0.1353  0.2007  0.2459
   35MOL0     C 4634  -3.074   9.080   6.331 -0.6008  0.9619 -1.3042
   35MOL0    Cl 4635  -3.146   9.136   6.488  0.1061 -0.3264 -0.3653
   35MOL0     C 4636  -2.070   9.365   6.003  0.0427  0.1748 -0.4259
   35MOL0     C 4637  -1.936   9.391   5.977  0.0566  0.0299 -0.2363
   35MOL0     O 4638  -1.634   9.309   6.176 -0.2923 -0.6543 -0.0958
   35MOL0     C 4639  -1.467   9.486   5.911 -0.6039 -0.5147 -0.4301
   35MOL0     C 4640  -1.338   9.533   5.864  0.9948 -0.3152 -0.4254
   35MOL0     N 4641  -0.521   9.738   5.575 -0.1816 -0.5291  0.5073
   35MOL0     N 4642  -0.420   9.671   5.533  0.8339 -0.1328  1.0048
   35MOL0     C 4643   0.611   8.942   6.043 -0.4726 -0.6625 -0.0660
   35MOL0     C 4644   0.712   8.880   6.119 -0.5367  0.3573  0.7685
   35MOL0     C 4645   0.952   8.582   6.322  0.2233  0.5614  0.1106
   35MOL0     C 4646   1.078   8.639   6.326 -0.0622 -0.7206 -0.4330
   35MOL0     C 4647   1.171   8.618   6.427 -0.6732  0.1245 -0.2236
   35MOL0     C 4648   1.138   8.511   6.521 -0.3269 -0.2442  0.6184
   35MOL0     O 4649   1.230   8.451   6.604 -0.3003  0.0705  0.3779
   35MOL0     C 4650   1.372   8.470   6.593  0.2074 -1.4099 -0.2787
   35MOL0     C 4651   1.444   8.362   6.670 -0.7252 -1.1537  0.1743
   35MOL0     C 4652   1.594   8.361   6.655 -0.0119  0.5249  0.0189
   35MOL0     C 4653   1.682   8.481   6.686  0.0054  0.4635  0.3360
   35MOL0     C 4654   1.674   8.516   6.828  0.0088 -0.5898  0.6533
   35MOL0     C 4655   1.670   8.542   6.948 -1.3757 -0.0594  0.2608
   35MOL0     C 4656   1.016   8.447   6.515 -0.2001  0.7232 -0.2216
   35MOL0     C 4657   0.923   8.483   6.423 -0.1569 -0.3436  0.7378
   35MOL0     H 4658   0.825   8.675   5.864 -0.3817  0.2971  1.5196
   35MOL0     H 4659   0.644   8.802   5.744 -1.5448 -0.1957  0.7435
   35MOL0     H 4660   0.346   8.994   5.975  0.9176 -0.0588  0.5137
   35MOL0     H 4661   0.445   9.141   5.939 -1.1365  1.9018 -2.2478
   35MOL0     H 4662   0.363   9.120   5.705  0.4390  1.9937  0.8975
   35MOL0     H 4663   0.242   8.993   5.754 -0.4201 -1.3359  3.7113
   35MOL0     H 4664   0.173   9.180   5.931  1.3234  1.2174  0.6829
   35MOL0     H 4665   0.241   9.297   5.830 -0.5218 -0.3585  1.9267
   35MOL0     H 4666   0.101   9.197   5.635 -0.8958  0.0730 -1.6843
   35MOL0     H 4667   0.018   9.094   5.752  0.6462  0.9846 -0.7581
   35MOL0     H 4668  -0.061   9.302   5.874 -4.3434 -1.4195 -0.9554
   35MOL0     H 4669   0.038   9.404   5.774 -2.1602  1.4270 -0.3621
   35MOL0     H 4670  -0.069   9.329   5.568 -0.2641 -0.3920 -0.3602
   35MOL0     H 4671  -0.175   9.222   5.659  2.8992 -1.7426  1.4508
   35MOL0     H 4672  -0.237   9.436   5.809  3.1998  1.4401  0.8121
   35MOL0     H 4673  -0.144   9.525   5.679 -1.4257  1.3887 -2.5769
   35MOL0     H 4674  -0.387   9.362   5.617  0.8160 -0.9252 -0.3078
   35MOL0     H 4675  -0.285   9.448   5.500 -1.7647 -1.6619 -0.4404
   35MOL0     H 4676  -0.567   9.474   5.751  2.0907 -1.3917 -0.2247
   35MOL0     H 4677  -0.679   9.758   5.839  1.4463  0.8218  0.2997
   35MOL0     H 4678  -0.752   9.820   5.683 -0.3813 -0.9621 -0.3444
   35MOL0     H 4679  -0.798   9.540   5.809  1.2258  0.8898  1.7655
   35MOL0     H 4680  -0.879   9.600   5.660 -0.1422 -0.0666 -0.3612
   35MOL0     H 4681  -0.954   9.801   5.758 -0.9745  0.4947  0.4763
   35MOL0     H 4682  -0.921   9.748   5.924 -0.3582  2.2636 -0.9921
   35MOL0     H 4683  -1.125   9.630   5.730 -2.7140 -1.5707  1.1104
   35MOL0     H 4684  -1.151   9.743   5.851 -0.2715 -0.6239  1.4569
   35MOL0     H 4685  -1.142   9.402   6.117  0.2994  2.1949  1.9279
   35MOL0     H 4686  -1.412   9.339   6.313  0.7982 -2.1357  0.6566
   35MOL0     H 4687  -1.406   9.193   6.212  1.6577 -1.3243  0.4782
   35MOL0     H 4688  -1.259   9.253   6.256 -0.5570 -3.4863  1.8963
   35MOL0     H 4689  -1.783   9.100   6.082  1.6842  1.1854 -0.0526
   35MOL0     H 4690  -2.001   9.048   6.135  2.9173  0.3782  0.8272
   35MOL0     H 4691  -2.236   9.018   6.138 -0.7432 -0.7511  1.7013
   35MOL0     H 4692  -2.217   9.115   6.280 -0.1939 -0.7262 -0.1020
   35MOL0     H 4693  -2.466   9.111   6.112  0.5124  0.5149 -1.0038
   35MOL0     H 4694  -2.433   9.022   6.268  1.4834  1.0379  1.9704
   35MOL0     H 4695  -2.476   9.315   6.207 -0.9435 -3.0062 -2.6461
   35MOL0     H 4696  -2.387   9.262   6.359  1.2920 -0.6523 -0.4415
   35MOL0     H 4697  -2.594   9.131   6.419 -0.6354  0.2913  0.2013
   35MOL0     H 4698  -2.622   9.309   6.421  0.4266 -0.7025  0.5146
   35MOL0     H 4699  -2.696   9.118   6.202  0.3724  1.6418 -1.1233
   35MOL0     H 4700  -2.735   9.291   6.209 -1.9883  1.0519  1.7250
   35MOL0     H 4701  -2.831   9.079   6.404  2.7673 -0.3205 -0.7286
   35MOL0     H 4702  -2.855   9.261   6.432  1.3960  0.0205  0.3873
   35MOL0     H 4703  -2.938   9.152   6.170 -3.0563  0.9924 -0.9084
   35MOL0     H 4704  -3.012   9.280   6.274  0.3574  0.5050 -1.4862
   35MOL0     H 4705  -3.013   8.990   6.344 -3.6311 -1.0629  0.1723
   35MOL0     H 4706  -3.160   9.062   6.265 -1.2755  0.6375 -0.3477
   35MOL0     H 4707  -2.151   9.425   5.963  1.2887  2.1537 -0.1237
   35MOL0     H 4708  -1.906   9.478   5.920  0.1722 -0.6282 -1.2103
   35MOL0     H 4709  -1.550   9.511   5.845  0.7990  2.9642 -1.1223
   35MOL0     H 4710  -1.350   9.596   5.777 -1.0563  2.1485  1.4811
   35MOL0     H 4711   0.563   9.022   6.099  2.6062  1.5837 -0.3524
   35MOL0     H 4712   0.726   8.911   6.222 -2.8873  2.2090  0.6120
   35MOL0     H 4713   1.112   8.704   6.247  3.4055  0.6932  1.9510
   35MOL0     H 4714   1.267   8.668   6.428 -0.6308  0.0461  0.7948
   35MOL0     H 4715   1.412   8.472   6.491 -0.4683 -1.5000 -0.5487
   35MOL0     H 4716   1.385   8.566   6.642 -2.0486 -1.5650  0.7494
   35MOL0     H 4717   1.400   8.265   6.644 -0.7983 -1.6166  1.9143
   35MOL0     H 4718   1.425   8.373   6.778 -1.2795  1.0369 -0.1034
   35MOL0     H 4719   1.602   8.345   6.547 -4.7485 -1.5538 -0.2599
   35MOL0     H 4720   1.629   8.276   6.713 -0.0243  0.6127  0.1555
   35MOL0     H 4721   1.654   8.564   6.620  1.4272 -0.9676 -2.2311
   35MOL0     H 4722   1.782   8.457   6.649 -0.0152 -0.0849  0.6361
   35MOL0     H 4723   1.671   8.564   7.053 -2.3660  3.3713 -0.3128
   35MOL0     H 4724   1.005   8.368   6.589  3.5398 -0.9238 -1.1923
   35MOL0     H 4725   0.825   8.437   6.415 -1.2923  2.1123 -0.5195
   36MOL0     O 4726   2.765   7.457   0.519 -0.3846  0.3586 -0.4280
   36MOL0     C 4727   2.846   7.433   0.429  0.1735  0.0246  0.0455
   36MOL0     O 4728   2.810   7.429   0.284  0.1434 -0.1061 -0.5464
   36MOL0     C 4729   2.692   7.481   0.249 -0.6253  0.2005 -0.7689
   36MOL0     C 4730   2.665   7.621   0.260 -0.0819 -0.1069  0.7414
   36MOL0     C 4731   2.541   7.672   0.215  0.5878  0.9299  0.1669
   36MOL0     C 4732   2.453   7.596   0.146  0.8218  0.4800  0.9549
   36MOL0     O 4733   2.349   7.665   0.078 -0.3975  0.3715  0.1029
   36MOL0     C 4734   2.220   7.610   0.093  0.4061  0.3857 -0.1025
   36MOL0     C 4735   2.112   7.684   0.027  0.7344 -0.1474  0.2182
   36MOL0     C 4736   1.969   7.619   0.011  0.0493 -0.4831 -0.3505
   36MOL0     C 4737   1.879   7.701  -0.081 -0.3735 -0.6299 -0.0681
   36MOL0     C 4738   1.748   7.743  -0.011  0.3326 -0.5927 -0.4789
   36MOL0     C 4739   1.653   7.851  -0.064  0.2697 -0.4698 -0.1690
   36MOL0     C 4740   1.590   7.809  -0.196 -0.5320  0.4865  0.3416
   36MOL0     C 4741   1.526   7.927  -0.264 -0.3566 -0.0073  0.7564
   36MOL0     N 4742   1.395   7.947  -0.198 -0.1501  0.1736  0.0057
   36MOL0     C 4743   1.274   7.886  -0.216  0.5680 -0.7424 -0.0666
   36MOL0     C 4744   1.170   7.956  -0.159  0.0743  0.7531  0.6563
   36MOL0     C 4745   1.021   7.924  -0.167 -0.6664  0.0317 -0.1299
   36MOL0     C 4746   1.002   7.821  -0.281 -0.2676 -0.3414 -0.0157
   36MOL0     C 4747   0.851   7.790  -0.310 -1.2446  0.2420 -0.1742
   36MOL0     C 4748   0.846   7.703  -0.433 -0.2504  0.0412  0.1417
   36MOL0     O 4749   0.819   7.765  -0.560  0.1348  0.0194  0.4472
   36MOL0     C 4750   0.695   7.807  -0.582  0.4452 -0.1306 -0.0890
   36MOL0     C 4751   0.586   7.804  -0.490 -0.0242  0.6849  0.2023
   36MOL0     C 4752   0.453   7.840  -0.533  0.0684 -0.2193 -0.4302
   36MOL0     C 4753   0.336   7.770  -0.458  0.2375  0.0211 -1.1404
   36MOL0     C 4754   0.430   7.910  -0.658  0.3997  0.2342  0.1186
   36MOL0     C 4755   0.296   7.941  -0.724  0.3890 -0.5715 -0.0151
   36MOL0     O 4756   0.186   7.928  -0.643 -1.0609 -0.4858  0.2032
   36MOL0     C 4757   0.076   8.003  -0.684  0.3284 -0.4297  0.0529
   36MOL0     C 4758  -0.048   7.937  -0.675  0.7731  0.1384  0.2623
   36MOL0     C 4759  -0.169   8.003  -0.690 -0.4898 -0.6006  0.2988
   36MOL0     C 4760  -0.165   8.145  -0.714 -0.6971  0.3997 -0.1892
   36MOL0     O 4761  -0.273   8.221  -0.759 -0.1358  0.0195  0.0134
   36MOL0     C 4762  -0.306   8.341  -0.696 -0.2366  0.3743 -0.8913
   36MOL0     C 4763  -0.451   8.377  -0.723 -0.3192  0.4346 -0.0354
   36MOL0     C 4764  -0.543   8.311  -0.626  0.6409 -0.1811  0.0354
   36MOL0     C 4765  -0.675   8.384  -0.645 -0.5177 -0.3947  1.0357
   36MOL0     C 4766  -0.788   8.308  -0.567  0.1396 -0.1955 -0.0714
   36MOL0     C 4767  -0.909   8.403  -0.567 -0.0464 -0.0962  0.1715
   36MOL0     C 4768  -0.979   8.404  -0.708 -0.3077 -0.6491 -0.1472
   36MOL0     C 4769  -1.120   8.451  -0.703 -0.7820 -0.4772 -0.6582
   36MOL0    Cl 4770  -1.228   8.339  -0.612 -0.4469  0.2203 -0.1377
   36MOL0     C 4771  -0.042   8.211  -0.716  0.0150  0.3918  1.0322
   36MOL0     C 4772   0.070   8.142  -0.707 -0.6278  0.3528 -0.8689
   36MOL0     O 4773   0.292   7.981  -0.840 -0.3085  0.3115  0.3815
   36MOL0     C 4774   0.546   7.921  -0.743 -0.2595  0.1121 -0.8481
   36MOL0     C 4775   0.674   7.868  -0.705  0.6138 -0.9293 -0.7420
   36MOL0     N 4776   1.238   8.058  -0.092 -0.1903 -0.2381  0.3719
   36MOL0     N 4777   1.366   8.053  -0.116  0.4232  0.0714 -0.4929
   36MOL0     C 4778   2.469   7.454   0.146 -0.5918  0.3387  0.8993
   36MOL0     C 4779   2.589   7.402   0.200  0.1440  0.8786  0.0766
   36MOL0     C 4780   2.989   7.413   0.469  0.0488 -0.4923 -0.1946
   36MOL0     C 4781   3.093   7.390   0.383  0.5500 -0.6914  1.2211
   36MOL0     C 4782   3.224   7.396   0.421 -0.5388  0.3741 -0.4603
   36MOL0     C 4783   3.250   7.431   0.552 -0.2288 -0.3724 -0.2576
   36MOL0     O 4784   3.381   7.459   0.578  0.3085  0.1161 -0.7277
   36MOL0     C 4785   3.406   7.500   0.712 -0.1238  0.0340  0.5928
   36MOL0     C 4786   3.559   7.520   0.740  0.4627 -0.4043 -0.2611
   36MOL0     C 4787   3.628   7.612   0.635  0.1894 -0.2633 -0.3044
   36MOL0     C 4788   3.777   7.623   0.668 -0.9636  0.0570  0.8460
   36MOL0     C 4789   3.867   7.525   0.605  0.5332 -0.0052  0.4224
   36MOL0     C 4790   3.946   7.453   0.546  0.1595 -0.5993  0.6844
   36MOL0     C 4791   3.150   7.445   0.645  0.6702 -0.4695 -0.2577
   36MOL0     C 4792   3.021   7.430   0.605 -0.0810  0.2416 -0.6722
   36MOL0     H 4793   2.737   7.683   0.314  0.5816 -0.0590 -0.1699
   36MOL0     H 4794   2.525   7.779   0.220 -0.6930  0.8606 -1.4570
   36MOL0     H 4795   2.214   7.506   0.060 -0.9674  0.4536 -0.1152
   36MOL0     H 4796   2.183   7.609   0.197  1.1062 -1.7212  0.1598
   36MOL0     H 4797   2.102   7.775   0.086 -1.1290 -0.4829  0.4742
   36MOL0     H 4798   2.146   7.707  -0.074  2.1325 -0.1448  0.6670
   36MOL0     H 4799   1.987   7.523  -0.038  0.9625 -1.4006  1.6590
   36MOL0     H 4800   1.924   7.600   0.109 -0.3975  1.4718 -0.1465
   36MOL0     H 4801   1.933   7.789  -0.118 -0.4185 -0.3386  0.5380
   36MOL0     H 4802   1.861   7.636  -0.166 -1.3301 -1.7663  0.9623
   36MOL0     H 4803   1.685   7.653  -0.007 -2.8023  1.4292 -0.7011
   36MOL0     H 4804   1.777   7.778   0.089  0.5492 -0.7436 -0.4889
   36MOL0     H 4805   1.583   7.880   0.015  2.1542 -0.0256  1.4220
   36MOL0     H 4806   1.712   7.943  -0.074 -1.1588  0.5567  0.4542
   36MOL0     H 4807   1.661   7.761  -0.264 -1.0857 -0.7689  0.6291
   36MOL0     H 4808   1.517   7.732  -0.169  1.4976 -1.7222 -0.1998
   36MOL0     H 4809   1.505   7.897  -0.367 -2.2930 -1.8998  1.6341
   36MOL0     H 4810   1.589   8.017  -0.259 -0.4844  0.1054  0.3311
   36MOL0     H 4811   1.256   7.799  -0.279  1.2256 -0.7134 -0.3033
   36MOL0     H 4812   0.978   7.879  -0.077 -0.5901 -2.2411 -1.1519
   36MOL0     H 4813   0.968   8.015  -0.195  0.4242  0.3754 -1.1911
   36MOL0     H 4814   1.049   7.727  -0.250 -0.3766 -0.2609  0.3876
   36MOL0     H 4815   1.048   7.869  -0.368  3.0476 -0.1356  1.7253
   36MOL0     H 4816   0.793   7.882  -0.325 -1.8728 -0.2195 -0.6329
   36MOL0     H 4817   0.808   7.735  -0.226 -1.2138 -0.5210 -0.6465
   36MOL0     H 4818   0.763   7.631  -0.423 -0.1961 -0.0411  0.0102
   36MOL0     H 4819   0.937   7.647  -0.459 -0.0108  0.6882 -0.4467
   36MOL0     H 4820   0.593   7.766  -0.389  0.6107 -1.5317 -0.6307
   36MOL0     H 4821   0.276   7.843  -0.404 -0.1054 -0.9051 -0.2347
   36MOL0     H 4822   0.265   7.717  -0.522  0.3701 -1.0656 -0.4135
   36MOL0     H 4823   0.367   7.698  -0.382  1.8321  0.6080 -1.2057
   36MOL0     H 4824  -0.051   7.830  -0.657 -3.2027 -0.3894 -2.3896
   36MOL0     H 4825  -0.269   7.960  -0.687 -0.5286 -0.5089  0.3398
   36MOL0     H 4826  -0.298   8.345  -0.587 -3.3098  1.3153 -0.6026
   36MOL0     H 4827  -0.239   8.415  -0.740 -0.6740  1.3798  0.1071
   36MOL0     H 4828  -0.465   8.484  -0.703  1.2512  0.4903  0.9209
   36MOL0     H 4829  -0.477   8.353  -0.826  3.4083  0.7309 -1.1760
   36MOL0     H 4830  -0.502   8.314  -0.525  2.2311  1.2761 -0.6029
   36MOL0     H 4831  -0.547   8.207  -0.658  0.0757 -0.1846  0.1078
   36MOL0     H 4832  -0.668   8.481  -0.596 -1.2912 -0.9163  2.2217
   36MOL0     H 4833  -0.704   8.391  -0.750 -2.2543  0.9525  1.5541
   36MOL0     H 4834  -0.753   8.297  -0.464 -0.2801  0.3087  0.1321
   36MOL0     H 4835  -0.805   8.205  -0.601  0.3347 -0.1352 -0.3449
   36MOL0     H 4836  -0.977   8.375  -0.486 -0.3832 -0.1269 -0.1188
   36MOL0     H 4837  -0.885   8.506  -0.538  0.7248  0.0415 -0.9291
   36MOL0     H 4838  -0.981   8.303  -0.749 -2.3397 -1.3299  1.4501
   36MOL0     H 4839  -0.927   8.469  -0.780 -0.0346 -0.1317  0.5045
   36MOL0     H 4840  -1.151   8.453  -0.808 -1.5602 -1.8316 -0.4775
   36MOL0     H 4841  -1.130   8.553  -0.664 -3.2610 -0.9774  0.2237
   36MOL0     H 4842  -0.034   8.315  -0.748  0.1646 -0.2163 -1.0475
   36MOL0     H 4843   0.165   8.195  -0.715 -1.2094  1.3948 -1.0446
   36MOL0     H 4844   0.541   7.941  -0.850  3.5931  1.6783 -0.9332
   36MOL0     H 4845   0.746   7.866  -0.786 -1.1440  3.7481 -2.8183
   36MOL0     H 4846   2.401   7.382   0.101 -0.0357  1.8389 -2.6593
   36MOL0     H 4847   2.610   7.295   0.202  1.8954  1.2020  1.4560
   36MOL0     H 4848   3.088   7.372   0.276  3.3921  2.9502  0.2838
   36MOL0     H 4849   3.307   7.364   0.359 -0.4467  1.1976 -0.7718
   36MOL0     H 4850   3.347   7.587   0.739 -0.7823 -0.5201  0.9653
   36MOL0     H 4851   3.366   7.427   0.782 -1.1349 -1.7118 -1.6612
   36MOL0     H 4852   3.610   7.424   0.732  3.7824  1.3114 -1.6429
   36MOL0     H 4853   3.574   7.577   0.832 -0.1397 -0.2484 -0.2509
   36MOL0     H 4854   3.588   7.714   0.639  1.3078  0.1538  0.8635
   36MOL0     H 4855   3.609   7.587   0.530 -1.1417 -0.3142 -0.0723
   36MOL0     H 4856   3.795   7.625   0.776 -1.3252  2.9348  0.9427
   36MOL0     H 4857   3.804   7.722   0.631 -0.1458  0.3106  2.0686
   36MOL0     H 4858   4.025   7.387   0.517  0.6437  0.3977 -0.3387
   36MOL0     H 4859   3.159   7.472   0.750 -1.0359 -0.4508 -0.0822
   36MOL0     H 4860   2.946   7.431   0.683  0.2234 -2.0505 -0.3040
   37MOL0     O 4861   5.783   8.153   9.126 -0.7376  0.2431 -0.0365
   37MOL0     C 4862   5.841   8.243   9.069 -0.0152  0.2695  0.0522
   37MOL0     O 4863   5.790   8.358   9.036  0.2258 -0.4057 -0.0361
   37MOL0     C 4864   5.659   8.369   9.050  0.1490 -0.1658 -0.2024
   37MOL0     C 4865   5.600   8.480   9.116  0.4413 -0.4876 -0.5214
   37MOL0     C 4866   5.462   8.478   9.153 -0.1551 -0.8178  0.3112
   37MOL0     C 4867   5.380   8.378   9.095  0.5663 -0.2302 -0.3288
   37MOL0     O 4868   5.245   8.395   9.116 -0.3000  0.1445  0.7693
   37MOL0     C 4869   5.139   8.329   9.051  0.0358 -0.2373 -0.5640
   37MOL0     C 4870   5.016   8.398   9.101 -0.4986 -0.3663  0.4898
   37MOL0     C 4871   4.883   8.339   9.046 -0.0520  0.0364 -0.4166
   37MOL0     C 4872   4.771   8.446   9.064  0.2569 -0.5318  0.4489
   37MOL0     C 4873   4.635   8.383   9.061 -0.1308 -0.4866  0.1071
   37MOL0     C 4874   4.518   8.482   9.069 -1.0696 -0.6351  0.6393
   37MOL0     C 4875   4.535   8.566   8.947  0.7656  0.1810  0.6642
   37MOL0     C 4876   4.402   8.619   8.895 -0.1719  0.6496  0.2328
   37MOL0     N 4877   4.293   8.528   8.852 -0.1689 -0.0870  0.2802
   37MOL0     C 4878   4.313   8.402   8.788 -0.2476 -0.1129  0.2599
   37MOL0     C 4879   4.201   8.338   8.792  0.2957 -0.4363 -0.4355
   37MOL0     C 4880   4.196   8.196   8.762  0.2072  0.5668 -0.1265
   37MOL0     C 4881   4.056   8.136   8.740 -0.5784 -0.3648  0.3593
   37MOL0     C 4882   4.065   7.994   8.678 -0.3397  1.2478 -0.7982
   37MOL0     C 4883   3.935   7.949   8.605  0.4683  0.1993 -0.7065
   37MOL0     O 4884   3.890   8.062   8.528 -0.8203 -0.2254 -0.2046
   37MOL0     C 4885   3.759   8.066   8.492  1.0509  0.5499  0.1708
   37MOL0     C 4886   3.724   8.177   8.421 -0.4556 -0.3190 -1.4187
   37MOL0     C 4887   3.589   8.208   8.388 -0.4478  0.1814  0.5601
   37MOL0     C 4888   3.563   8.330   8.316 -0.2708 -0.4373 -0.2009
   37MOL0     C 4889   3.484   8.119   8.422 -0.0693 -0.0105  0.4511
   37MOL0     C 4890   3.338   8.136   8.388 -1.0335 -0.1652 -0.1097
   37MOL0     O 4891   3.253   8.042   8.445 -0.3116 -0.7463 -0.4035
   37MOL0     C 4892   3.123   8.038   8.410  0.6683  0.0293 -0.1093
   37MOL0     C 4893   3.029   8.088   8.498 -0.4096 -0.2144  0.2657
   37MOL0     C 4894   2.890   8.078   8.473  0.0481 -0.2519 -0.8283
   37MOL0     C 4895   2.852   8.010   8.355 -0.1187  0.0328 -0.4330
   37MOL0     O 4896   2.722   7.977   8.337  0.7350 -0.6755 -0.0030
   37MOL0     C 4897   2.627   7.952   8.449  0.2051 -0.0873  0.1102
   37MOL0     C 4898   2.515   7.867   8.382  0.5804 -0.3484 -0.6617
   37MOL0     C 4899   2.417   7.951   8.296 -0.2537  0.3680  0.0110
   37MOL0     C 4900   2.348   8.074   8.362  0.0630 -0.6031 -0.0622
   37MOL0     C 4901   2.295   8.182   8.260 -0.2173  0.4486 -0.0652
   37MOL0     C 4902   2.275   8.317   8.331  0.0579 -0.5371 -0.0270
   37MOL0     C 4903   2.181   8.316   8.451 -0.2661  0.4364 -0.1470
   37MOL0     C 4904   2.139   8.456   8.501 -0.3992  0.2372  0.1161
   37MOL0    Cl 4905   2.028   8.508   8.369  0.5427  0.3289 -0.1474
   37MOL0     C 4906   2.948   7.957   8.270  0.1525 -0.2979 -0.1056
   37MOL0     C 4907   3.085   7.972   8.298  0.8945 -0.3182  0.3129
   37MOL0     O 4908   3.305   8.232   8.318 -0.0805 -0.0609 -0.0803
   37MOL0     C 4909   3.522   7.998   8.483  0.0574 -0.1696 -0.1151
   37MOL0     C 4910   3.658   7.972   8.521  0.5183  0.1377  0.3632
   37MOL0     N 4911   4.104   8.429   8.836  0.3818  0.3000 -1.2112
   37MOL0     N 4912   4.163   8.535   8.886 -0.1164  0.5163 -0.3308
   37MOL0     C 4913   5.429   8.279   9.009  0.0301  0.7784 -0.5468
   37MOL0     C 4914   5.567   8.267   8.997 -0.1003  0.7888 -0.3290
   37MOL0     C 4915   5.986   8.218   9.036 -0.2691 -0.4533  0.9496
   37MOL0     C 4916   6.052   8.304   8.950  1.0156 -0.1081  0.1123
   37MOL0     C 4917   6.183   8.279   8.912 -0.1027 -0.4537  0.5612
   37MOL0     C 4918   6.257   8.174   8.967  0.0137  0.2072 -0.0425
   37MOL0     O 4919   6.386   8.164   8.926  0.5160 -0.1620 -0.0691
   37MOL0     C 4920   6.423   8.039   8.877 -0.5026 -0.0441  0.2933
   37MOL0     C 4921   6.390   8.021   8.725 -0.6076  0.7873  0.5530
   37MOL0     C 4922   6.453   8.100   8.614 -0.2748 -0.1049 -0.2781
   37MOL0     C 4923   6.602   8.135   8.624 -0.1444  1.2072  0.1755
   37MOL0     C 4924   6.685   8.012   8.599 -0.1867  0.3582 -0.9624
   37MOL0     C 4925   6.764   7.925   8.583 -0.5470  0.1127 -0.0593
   37MOL0     C 4926   6.194   8.094   9.061  0.5798  0.2403  0.3158
   37MOL0     C 4927   6.058   8.117   9.102 -0.4005 -0.5053  0.5810
   37MOL0     H 4928   5.647   8.573   9.145  1.0128 -0.9510  0.0605
   37MOL0     H 4929   5.415   8.560   9.206  0.3849  1.5111 -2.5643
   37MOL0     H 4930   5.136   8.328   8.942  0.8449 -0.2084 -0.5951
   37MOL0     H 4931   5.144   8.225   9.086  1.9530  0.8025  2.6263
   37MOL0     H 4932   5.014   8.385   9.209  0.5591 -3.6976  0.2147
   37MOL0     H 4933   5.022   8.507   9.097  0.5782 -0.0827  5.0066
   37MOL0     H 4934   4.899   8.318   8.940  0.0449 -5.3350  0.3589
   37MOL0     H 4935   4.861   8.245   9.097 -0.9774  0.2133 -0.4782
   37MOL0     H 4936   4.775   8.496   9.161 -2.9673 -0.4963  0.6650
   37MOL0     H 4937   4.785   8.523   8.987  0.3341 -1.5845 -0.6203
   37MOL0     H 4938   4.630   8.313   8.978 -1.6517 -2.1078  1.5029
   37MOL0     H 4939   4.635   8.319   9.149 -0.3644 -1.3521 -0.5181
   37MOL0     H 4940   4.422   8.430   9.076 -1.0272 -0.7885  0.1162
   37MOL0     H 4941   4.521   8.549   9.155  2.4280 -1.8780  1.6551
   37MOL0     H 4942   4.598   8.653   8.967 -0.6999  1.8649 -1.5995
   37MOL0     H 4943   4.578   8.502   8.869  1.1140  1.1215  0.0675
   37MOL0     H 4944   4.424   8.681   8.807  0.7639 -0.4207 -0.3168
   37MOL0     H 4945   4.363   8.677   8.979 -1.3211  1.5368 -0.8794
   37MOL0     H 4946   4.407   8.371   8.743 -1.1037 -2.1180 -0.2256
   37MOL0     H 4947   4.262   8.184   8.675  0.7375 -0.8601  0.4361
   37MOL0     H 4948   4.248   8.146   8.845  0.0279  0.4753 -0.0698
   37MOL0     H 4949   4.011   8.209   8.671  1.1216  0.3351 -0.0648
   37MOL0     H 4950   4.007   8.132   8.837  2.1252 -0.4846  1.8292
   37MOL0     H 4951   4.103   7.918   8.748  1.9812  2.7694 -0.3113
   37MOL0     H 4952   4.137   7.997   8.596  0.2827  0.0143 -0.3329
   37MOL0     H 4953   3.854   7.919   8.672 -0.2166  2.1879 -0.5648
   37MOL0     H 4954   3.939   7.862   8.538 -2.6421 -0.5707 -0.0571
   37MOL0     H 4955   3.807   8.242   8.394 -1.0053 -0.1546 -2.7893
   37MOL0     H 4956   3.651   8.394   8.315 -1.8790  1.9134 -0.3609
   37MOL0     H 4957   3.538   8.306   8.212 -0.6357  0.8208 -0.4264
   37MOL0     H 4958   3.484   8.391   8.361 -0.0039 -0.7452  0.6923
   37MOL0     H 4959   3.065   8.137   8.588  1.1456 -1.2158  0.2250
   37MOL0     H 4960   2.826   8.104   8.557  0.5042 -2.0717  0.1454
   37MOL0     H 4961   2.673   7.886   8.523 -1.0055 -0.6038  0.4284
   37MOL0     H 4962   2.589   8.040   8.502 -0.4302  0.3453 -1.0334
   37MOL0     H 4963   2.541   7.781   8.319 -1.9741 -0.7837 -1.2107
   37MOL0     H 4964   2.451   7.826   8.460 -1.7416  3.4388 -0.3301
   37MOL0     H 4965   2.332   7.889   8.269  1.1883 -2.0283  0.7093
   37MOL0     H 4966   2.468   7.985   8.205 -1.8515  0.7134 -0.7819
   37MOL0     H 4967   2.278   8.020   8.426  2.5776 -2.6503  1.1346
   37MOL0     H 4968   2.415   8.125   8.432 -1.0849 -0.5345  1.0154
   37MOL0     H 4969   2.200   8.157   8.211 -0.3397  2.2391 -0.8481
   37MOL0     H 4970   2.365   8.188   8.176  0.3097  0.5279  0.3770
   37MOL0     H 4971   2.366   8.372   8.357 -0.8168  0.9568  0.0507
   37MOL0     H 4972   2.236   8.383   8.253 -0.0962 -2.1063 -1.3126
   37MOL0     H 4973   2.242   8.263   8.524 -2.8377 -0.6515  1.3404
   37MOL0     H 4974   2.100   8.248   8.427  0.7649 -1.1505  0.7184
   37MOL0     H 4975   2.221   8.529   8.503 -0.9699  1.1687 -3.3168
   37MOL0     H 4976   2.084   8.451   8.595 -0.7886 -2.1760 -0.1893
   37MOL0     H 4977   2.922   7.895   8.184 -0.6569 -0.0401 -0.0478
   37MOL0     H 4978   3.144   7.908   8.233  2.6047  3.4133 -2.1014
   37MOL0     H 4979   3.452   7.917   8.498 -0.4818 -0.2708 -2.6039
   37MOL0     H 4980   3.678   7.877   8.570 -0.5936 -1.0839 -1.4496
   37MOL0     H 4981   5.364   8.211   8.955 -1.8382  2.9815 -1.2724
   37MOL0     H 4982   5.606   8.179   8.947 -2.3034 -0.8237  0.6309
   37MOL0     H 4983   5.992   8.388   8.916  2.4844  0.5974 -0.8629
   37MOL0     H 4984   6.236   8.336   8.836  1.5784 -0.7753  1.4500
   37MOL0     H 4985   6.532   8.032   8.887 -0.4515  0.9090  0.4591
   37MOL0     H 4986   6.378   7.954   8.931  0.7657 -0.7257  0.3126
   37MOL0     H 4987   6.281   8.033   8.726 -0.8812 -1.3035  1.0433
   37MOL0     H 4988   6.405   7.917   8.696 -1.2237  1.0035 -0.6379
   37MOL0     H 4989   6.403   8.197   8.608 -0.1216 -0.0327 -0.3866
   37MOL0     H 4990   6.423   8.042   8.525  0.6155  2.5792 -2.4680
   37MOL0     H 4991   6.628   8.185   8.717  1.8074 -1.0137  0.9168
   37MOL0     H 4992   6.623   8.202   8.540 -0.2374  1.9980  0.7702
   37MOL0     H 4993   6.840   7.852   8.566 -1.1020 -0.0210 -2.2693
   37MOL0     H 4994   6.256   8.011   9.092 -0.9374 -1.7158 -1.5992
   37MOL0     H 4995   6.011   8.049   9.172 -0.2578 -0.0951  1.0821
   38MOL0     O 4996   2.220   8.207  10.135 -0.2475 -0.2401  0.1836
   38MOL0     C 4997   2.176   8.222  10.246  0.6393  0.8969 -0.6632
   38MOL0     O 4998   2.042   8.248  10.272  0.0571  0.0968 -0.2054
   38MOL0     C 4999   1.957   8.214  10.177  0.0613  0.4348 -0.0252
   38MOL0     C 5000   1.863   8.311  10.134 -0.0356 -0.2355  0.7132
   38MOL0     C 5001   1.766   8.274  10.039  0.7643  0.2796  0.2257
   38MOL0     C 5002   1.760   8.136   9.992 -0.7216  0.2768 -0.3805
   38MOL0     O 5003   1.660   8.102   9.908 -0.5281 -0.5149 -0.0890
   38MOL0     C 5004   1.555   8.040   9.988 -0.4270  0.5885  0.5979
   38MOL0     C 5005   1.425   8.067   9.918  0.5274  0.5474  0.3160
   38MOL0     C 5006   1.312   7.993   9.983  0.0220 -0.3160  0.0598
   38MOL0     C 5007   1.195   8.021   9.894  0.3729  0.2433  0.1510
   38MOL0     C 5008   1.080   7.952   9.963  0.0284 -0.7929 -0.0243
   38MOL0     C 5009   0.965   7.988   9.864  1.0350 -0.0445  0.0294
   38MOL0     C 5010   0.829   7.995   9.930 -0.6124 -0.1893 -0.1730
   38MOL0     C 5011   0.708   8.001   9.834  0.0762  0.4845 -0.3227
   38MOL0     N 5012   0.581   7.970   9.907 -0.5099  1.0421  0.2638
   38MOL0     C 5013   0.520   8.038  10.011  0.2922  0.0954  0.3300
   38MOL0     C 5014   0.402   7.975  10.032  0.1530  0.4221 -0.4070
   38MOL0     C 5015   0.311   8.019  10.142  0.5125 -0.1819 -0.5584
   38MOL0     C 5016   0.184   8.064  10.077  0.1221  0.2759  0.1677
   38MOL0     C 5017   0.104   8.150  10.184 -0.4715 -0.2137 -0.0242
   38MOL0     C 5018  -0.030   8.204  10.129 -0.2488  0.3527 -0.4846
   38MOL0     O 5019  -0.082   8.302  10.219 -0.1230 -0.2145 -0.1648
   38MOL0     C 5020  -0.206   8.364  10.187 -0.2946  0.4208 -0.2961
   38MOL0     C 5021  -0.244   8.466  10.264  0.3820  0.4533  0.1399
   38MOL0     C 5022  -0.363   8.532  10.247  0.1660 -0.5402  0.0028
   38MOL0     C 5023  -0.382   8.659  10.325 -0.8211  0.4143  0.1740
   38MOL0     C 5024  -0.458   8.486  10.161 -0.0224  0.1997 -0.6724
   38MOL0     C 5025  -0.603   8.529  10.150 -0.2865 -0.5080 -0.8519
   38MOL0     O 5026  -0.655   8.603  10.254 -0.1194 -0.8332 -0.2689
   38MOL0     C 5027  -0.777   8.666  10.237  0.5517 -0.6328 -1.2161
   38MOL0     C 5028  -0.901   8.600  10.213 -0.0378  0.6033 -0.6387
   38MOL0     C 5029  -1.026   8.665  10.220 -0.0008  0.2019 -0.4362
   38MOL0     C 5030  -1.024   8.809  10.226 -0.0174 -0.0654  0.5288
   38MOL0     O 5031  -1.148   8.875  10.208 -0.0168  0.2423 -0.0689
   38MOL0     C 5032  -1.152   9.016  10.212 -0.2718 -0.1639 -0.2304
   38MOL0     C 5033  -1.286   9.071  10.151 -0.0550 -0.0549 -0.4462
   38MOL0     C 5034  -1.410   9.051  10.242  0.7273  0.0318  0.5684
   38MOL0     C 5035  -1.531   9.104  10.160 -0.6186 -0.1148  0.1953
   38MOL0     C 5036  -1.663   9.085  10.231  0.5430  0.3427 -0.3320
   38MOL0     C 5037  -1.664   9.143  10.371  0.2578  0.1943  0.3687
   38MOL0     C 5038  -1.640   9.294  10.372  0.1250 -0.4627  0.1365
   38MOL0     C 5039  -1.674   9.367  10.498 -0.7883  0.4081  0.4489
   38MOL0    Cl 5040  -1.850   9.344  10.506 -0.3761 -0.2040 -0.1314
   38MOL0     C 5041  -0.905   8.872  10.258 -1.0105 -0.5850  0.7918
   38MOL0     C 5042  -0.781   8.801  10.262  0.8458  0.2330  0.0222
   38MOL0     O 5043  -0.663   8.502  10.048 -0.1988  0.6736  0.8566
   38MOL0     C 5044  -0.426   8.375  10.079  0.6188  0.0171 -0.2870
   38MOL0     C 5045  -0.295   8.319  10.093 -0.4119 -0.7996  0.0203
   38MOL0     N 5046   0.388   7.881   9.936 -0.0909  0.1916 -0.2178
   38MOL0     N 5047   0.499   7.869   9.867  0.2461 -0.2261  0.7014
   38MOL0     C 5048   1.856   8.043  10.045  0.1476 -0.8945 -0.0860
   38MOL0     C 5049   1.954   8.083  10.133 -0.5758 -0.4140  0.2731
   38MOL0     C 5050   2.271   8.222  10.361  0.0457  0.2279  1.0353
   38MOL0     C 5051   2.222   8.230  10.489  0.5869 -0.0265 -0.8240
   38MOL0     C 5052   2.308   8.227  10.598 -0.3696 -0.2185 -0.2769
   38MOL0     C 5053   2.444   8.219  10.583  0.1421  0.1579  0.0038
   38MOL0     O 5054   2.515   8.221  10.696  0.6012 -0.1172  0.5952
   38MOL0     C 5055   2.654   8.197  10.694  0.8059  0.1474 -0.0944
   38MOL0     C 5056   2.717   8.263  10.818  0.3222 -0.1881 -0.6442
   38MOL0     C 5057   2.866   8.260  10.816 -0.1853 -0.1219 -0.3263
   38MOL0     C 5058   2.919   8.119  10.848 -0.2621 -0.9156  0.1817
   38MOL0     C 5059   3.064   8.124  10.880  0.4140 -1.1891  0.5480
   38MOL0     C 5060   3.176   8.147  10.912  0.3293 -0.4083  0.3477
   38MOL0     C 5061   2.493   8.209  10.450 -0.1088 -0.3500 -0.0114
   38MOL0     C 5062   2.407   8.215  10.344 -0.2382 -0.2223  0.0853
   38MOL0     H 5063   1.865   8.414  10.169  2.4101 -0.4722  1.3838
   38MOL0     H 5064   1.691   8.331   9.987  0.0406  0.0827  1.0290
   38MOL0     H 5065   1.587   7.935   9.988  2.4394  1.3728 -0.4981
   38MOL0     H 5066   1.547   8.069  10.093 -2.0139  0.3334  0.5702
   38MOL0     H 5067   1.406   8.172   9.942  0.5000  1.0044 -1.6067
   38MOL0     H 5068   1.430   8.062   9.809 -1.7883  0.2226  0.1621
   38MOL0     H 5069   1.330   7.886   9.977 -1.0509 -0.5955  1.4388
   38MOL0     H 5070   1.288   8.012  10.088  3.7132 -1.0891  1.1920
   38MOL0     H 5071   1.184   8.130   9.897  0.5280  0.2388  1.1865
   38MOL0     H 5072   1.212   7.980   9.794  0.8084 -1.8218  1.0137
   38MOL0     H 5073   1.086   7.844   9.980  0.2933 -1.4324 -3.3954
   38MOL0     H 5074   1.062   8.002  10.058 -0.4833 -0.7945 -0.1184
   38MOL0     H 5075   0.980   8.083   9.812 -1.0974  0.9609  1.1018
   38MOL0     H 5076   0.964   7.915   9.783  3.4030 -1.2967  1.0153
   38MOL0     H 5077   0.819   7.905   9.990  2.0372  0.5002  1.4797
   38MOL0     H 5078   0.824   8.085   9.991 -2.0319  0.9046 -1.8027
   38MOL0     H 5079   0.723   7.930   9.752 -1.6628  0.3053 -0.5158
   38MOL0     H 5080   0.691   8.099   9.790 -0.6604  0.3629 -0.3188
   38MOL0     H 5081   0.567   8.112  10.075  0.4096 -1.8878  2.6781
   38MOL0     H 5082   0.295   7.934  10.210  1.3600  2.1679  2.8007
   38MOL0     H 5083   0.353   8.096  10.207 -1.7407  0.1733  0.5848
   38MOL0     H 5084   0.118   7.981  10.051  1.6330 -0.4038 -1.7181
   38MOL0     H 5085   0.208   8.125   9.989 -0.7938 -0.4004 -0.5750
   38MOL0     H 5086   0.171   8.234  10.205  1.5184 -1.9443  0.9882
   38MOL0     H 5087   0.088   8.104  10.282  0.3992  2.9572  1.7743
   38MOL0     H 5088  -0.099   8.120  10.118 -1.5755  1.1763  1.1865
   38MOL0     H 5089  -0.017   8.248  10.030  1.1368 -0.9962 -0.9421
   38MOL0     H 5090  -0.178   8.501  10.343  0.8096  2.0349 -0.8671
   38MOL0     H 5091  -0.450   8.658  10.410  0.9318  0.4205  1.6509
   38MOL0     H 5092  -0.287   8.700  10.361 -1.7289  0.5938  2.4892
   38MOL0     H 5093  -0.417   8.741  10.262 -0.2140  0.0908 -0.6096
   38MOL0     H 5094  -0.897   8.494  10.189 -0.7881 -0.2710  2.6032
   38MOL0     H 5095  -1.120   8.611  10.213 -1.1160  2.0704 -0.5514
   38MOL0     H 5096  -1.150   9.052  10.315  0.0924 -2.5815  0.6911
   38MOL0     H 5097  -1.073   9.068  10.158 -1.3262  1.3845 -0.3517
   38MOL0     H 5098  -1.276   9.178  10.133  0.2634  0.4590  2.4261
   38MOL0     H 5099  -1.293   9.021  10.053 -1.8289  0.0032 -0.3754
   38MOL0     H 5100  -1.394   9.110  10.332 -0.5576 -0.3717  1.0919
   38MOL0     H 5101  -1.412   8.944  10.268  3.0665 -0.0403  0.6632
   38MOL0     H 5102  -1.520   9.212  10.143  1.4042 -0.1653  0.8757
   38MOL0     H 5103  -1.537   9.054  10.063 -1.8583 -0.9225  0.6662
   38MOL0     H 5104  -1.679   8.978  10.243  1.4363  0.4980  2.9843
   38MOL0     H 5105  -1.751   9.126  10.179  0.3866  1.5293  0.8234
   38MOL0     H 5106  -1.767   9.120  10.399 -0.3367  0.2763 -1.5923
   38MOL0     H 5107  -1.601   9.071  10.424 -2.9657 -1.2926  2.5326
   38MOL0     H 5108  -1.700   9.341  10.294 -1.5019 -0.1453  1.5009
   38MOL0     H 5109  -1.535   9.309  10.348  0.2178 -0.1543  0.7101
   38MOL0     H 5110  -1.656   9.475  10.495 -2.8915  0.9395  3.2625
   38MOL0     H 5111  -1.628   9.307  10.576  0.5461 -0.4140 -0.9109
   38MOL0     H 5112  -0.911   8.972  10.300  2.1307 -0.2787  0.7080
   38MOL0     H 5113  -0.691   8.834  10.313 -1.4328 -1.9106  6.3925
   38MOL0     H 5114  -0.495   8.350   9.999  0.5035  2.2907 -0.9619
   38MOL0     H 5115  -0.274   8.240  10.021 -0.0999  0.2912 -1.1258
   38MOL0     H 5116   1.846   7.940  10.013 -0.2505 -1.4846  1.8054
   38MOL0     H 5117   2.021   8.006  10.170 -1.8064 -1.0890  1.1624
   38MOL0     H 5118   2.116   8.234  10.508  0.8774 -0.6295  1.0571
   38MOL0     H 5119   2.262   8.245  10.694 -1.9302  0.6880 -1.1467
   38MOL0     H 5120   2.674   8.090  10.698  0.2148 -0.0214 -1.4089
   38MOL0     H 5121   2.698   8.236  10.602 -0.1175 -1.4629 -1.2647
   38MOL0     H 5122   2.676   8.210  10.905 -0.0761 -0.2846 -0.8853
   38MOL0     H 5123   2.685   8.368  10.820 -0.9272 -0.5496  1.3615
   38MOL0     H 5124   2.906   8.324  10.895  2.9780 -3.1018  0.8026
   38MOL0     H 5125   2.907   8.297  10.722 -0.8463  0.1728 -0.4992
   38MOL0     H 5126   2.909   8.049  10.765 -0.8295  0.3712 -0.8738
   38MOL0     H 5127   2.858   8.077  10.929  0.2830  0.2205  1.2035
   38MOL0     H 5128   3.279   8.169  10.928  0.3130  0.2822 -0.4332
   38MOL0     H 5129   2.598   8.192  10.430 -0.2238 -1.8846  0.5338
   38MOL0     H 5130   2.446   8.196  10.244 -2.3730 -0.1445 -0.8261
   39MOL0     O 5131   3.948   9.609  10.924 -0.2763 -0.1809  0.0004
   39MOL0     C 5132   3.989   9.685  10.836 -0.4371  0.0517  0.5148
   39MOL0     O 5133   3.911   9.738  10.740  0.2894 -0.3628  0.6206
   39MOL0     C 5134   3.781   9.704  10.729 -0.1140 -0.1431  0.1917
   39MOL0     C 5135   3.682   9.778  10.803 -0.2012 -0.6717 -0.6848
   39MOL0     C 5136   3.546   9.747  10.806 -0.0786  0.1038  0.2572
   39MOL0     C 5137   3.499   9.633  10.725 -0.3806  0.9031 -0.5420
   39MOL0     O 5138   3.373   9.575  10.714 -0.2960 -0.2339 -0.3615
   39MOL0     C 5139   3.259   9.660  10.731 -0.0116  0.5922 -0.2617
   39MOL0     C 5140   3.135   9.588  10.670 -0.0949  0.0165  0.0238
   39MOL0     C 5141   3.036   9.697  10.637 -0.4656 -0.2400 -0.3278
   39MOL0     C 5142   2.893   9.642  10.626  0.5359  0.6708  0.5862
   39MOL0     C 5143   2.786   9.755  10.630 -0.0075  0.2736  0.1320
   39MOL0     C 5144   2.645   9.694  10.634  0.6734  0.2401 -0.2794
   39MOL0     C 5145   2.532   9.792  10.623 -0.1192  0.5748  0.7129
   39MOL0     C 5146   2.405   9.709  10.593  0.7443 -0.6475 -0.1026
   39MOL0     N 5147   2.287   9.804  10.577 -0.0039 -0.4056 -0.0506
   39MOL0     C 5148   2.178   9.809  10.659  0.3274 -0.4499  0.0134
   39MOL0     C 5149   2.088   9.891  10.593 -0.8134  0.6328 -0.4584
   39MOL0     C 5150   1.970   9.956  10.658  0.1955 -0.6053 -1.0706
   39MOL0     C 5151   1.954  10.104  10.647 -0.1091  0.3325  0.2691
   39MOL0     C 5152   1.850  10.169  10.730 -0.1001 -0.3453 -1.1691
   39MOL0     C 5153   1.827  10.309  10.686  0.3157  0.5838  0.4808
   39MOL0     O 5154   1.742  10.300  10.569 -0.3314 -0.6735  0.1534
   39MOL0     C 5155   1.609  10.304  10.599  0.1935  0.4977 -0.3844
   39MOL0     C 5156   1.545  10.425  10.621 -0.4300  0.4689  0.5349
   39MOL0     C 5157   1.410  10.432  10.649  0.5493 -0.1006  0.8042
   39MOL0     C 5158   1.361  10.578  10.663  0.0409 -0.7983 -0.2506
   39MOL0     C 5159   1.329  10.312  10.650 -0.2405 -0.1726 -0.4512
   39MOL0     C 5160   1.175  10.312  10.643 -0.0302 -0.0529  0.0709
   39MOL0     O 5161   1.105  10.191  10.638  0.0286  0.1008 -0.8347
   39MOL0     C 5162   0.967  10.175  10.621 -0.0060  1.0001 -0.3858
   39MOL0     C 5163   0.891  10.267  10.543 -0.2142 -1.1777  0.2909
   39MOL0     C 5164   0.760  10.240  10.507  0.4612  0.6479  0.0816
   39MOL0     C 5165   0.690  10.121  10.554 -0.8139 -0.1518  0.0765
   39MOL0     O 5166   0.549  10.101  10.542 -0.7349  0.7099  1.0728
   39MOL0     C 5167   0.478  10.200  10.614 -0.2508  0.0709  0.1635
   39MOL0     C 5168   0.328  10.187  10.602 -0.6679 -0.0218  0.3518
   39MOL0     C 5169   0.267  10.205  10.457  0.2826  0.5650 -0.5628
   39MOL0     C 5170   0.113  10.214  10.463  0.0585 -0.6408  0.3957
   39MOL0     C 5171   0.067  10.277  10.327 -0.1382 -0.6195 -0.1240
   39MOL0     C 5172  -0.077  10.321  10.332 -0.8754  0.4785  0.0014
   39MOL0     C 5173  -0.172  10.208  10.356 -0.8398  0.3351 -0.0958
   39MOL0     C 5174  -0.308  10.252  10.319 -0.1384  0.9754  0.2750
   39MOL0    Cl 5175  -0.432  10.119  10.326 -0.2287  0.2982  0.1741
   39MOL0     C 5176   0.773  10.033  10.621 -0.0209 -0.5126 -0.5065
   39MOL0     C 5177   0.907  10.055  10.658 -0.5962  0.7944  0.3890
   39MOL0     O 5178   1.123  10.419  10.667 -0.6818 -0.2629 -0.0568
   39MOL0     C 5179   1.393  10.187  10.623 -1.0681 -0.5885 -0.9473
   39MOL0     C 5180   1.533  10.186  10.598 -0.7208 -0.3862  0.0320
   39MOL0     N 5181   2.135   9.897  10.465  0.7958 -0.6487 -0.1196
   39MOL0     N 5182   2.251   9.846  10.455 -0.5082 -0.6647  0.8165
   39MOL0     C 5183   3.597   9.558  10.652 -0.6728 -0.2970 -0.5164
   39MOL0     C 5184   3.734   9.590  10.654  0.4133 -0.4045  0.5128
   39MOL0     C 5185   4.135   9.731  10.831  0.5523 -0.0740  0.2851
   39MOL0     C 5186   4.226   9.664  10.913 -0.2291 -0.1693 -0.1224
   39MOL0     C 5187   4.352   9.728  10.934  0.1837  0.8386 -0.5879
   39MOL0     C 5188   4.392   9.837  10.859 -0.5795 -0.4677  0.0834
   39MOL0     O 5189   4.517   9.895  10.874  0.1817  0.3973  0.2375
   39MOL0     C 5190   4.576   9.943  10.754 -0.0777  0.1345  0.4285
   39MOL0     C 5191   4.725   9.913  10.786 -0.0509  0.6012 -0.2315
   39MOL0     C 5192   4.769  10.002  10.896  0.0202 -0.4161  0.7221
   39MOL0     C 5193   4.911   9.968  10.947  0.4942 -0.1593  1.2434
   39MOL0     C 5194   4.934  10.034  11.082 -0.2523  0.1130 -0.5471
   39MOL0     C 5195   4.954  10.052  11.203 -0.1884 -0.4559 -0.0767
   39MOL0     C 5196   4.303   9.885  10.771  1.1444  0.2482 -0.4083
   39MOL0     C 5197   4.172   9.845  10.753 -0.6048  0.5434 -0.1302
   39MOL0     H 5198   3.718   9.861  10.863 -2.0636 -2.1620  2.8326
   39MOL0     H 5199   3.474   9.797  10.870 -1.5113 -1.7446  0.1723
   39MOL0     H 5200   3.242   9.686  10.836 -2.0428 -0.5718 -0.2565
   39MOL0     H 5201   3.271   9.758  10.685 -2.2306  0.2547 -1.6946
   39MOL0     H 5202   3.158   9.548  10.571  1.4540  2.6059 -0.7417
   39MOL0     H 5203   3.103   9.506  10.736 -0.3388 -1.3860 -1.7591
   39MOL0     H 5204   3.042   9.771  10.717 -0.1336  0.5741 -1.0896
   39MOL0     H 5205   3.062   9.749  10.544 -0.1758 -3.0347 -1.9483
   39MOL0     H 5206   2.885   9.580  10.536  0.3896 -0.5318  1.4013
   39MOL0     H 5207   2.876   9.582  10.716  1.2494 -1.6513 -0.7324
   39MOL0     H 5208   2.797   9.821  10.716  0.5930  0.8763 -0.4008
   39MOL0     H 5209   2.795   9.828  10.549 -1.1246  0.3594  0.0655
   39MOL0     H 5210   2.638   9.621  10.553 -0.4356 -0.4048  0.3732
   39MOL0     H 5211   2.638   9.633  10.724 -0.8498 -0.0751 -0.5873
   39MOL0     H 5212   2.514   9.857  10.709 -0.3866 -0.8662  1.7883
   39MOL0     H 5213   2.558   9.853  10.535  2.7645 -0.4989  0.7250
   39MOL0     H 5214   2.387   9.637  10.674 -1.7286 -0.3262 -0.2825
   39MOL0     H 5215   2.405   9.642  10.506  0.3120 -4.8008  2.8088
   39MOL0     H 5216   2.181   9.760  10.755 -1.5897 -0.3631  0.1494
   39MOL0     H 5217   1.881   9.904  10.622 -0.8635 -1.4426  2.3505
   39MOL0     H 5218   1.965   9.934  10.766  0.1963  0.2387 -0.8971
   39MOL0     H 5219   1.932  10.123  10.542  2.6427 -0.1660 -0.4634
   39MOL0     H 5220   2.052  10.152  10.660 -0.2225  1.2454 -1.8800
   39MOL0     H 5221   1.892  10.166  10.831 -0.1104 -1.3955 -1.1876
   39MOL0     H 5222   1.751  10.123  10.734 -1.0295  1.5611 -1.2857
   39MOL0     H 5223   1.924  10.356  10.667  0.3356  1.6997  3.0155
   39MOL0     H 5224   1.782  10.364  10.769 -1.6997  0.8486 -0.7071
   39MOL0     H 5225   1.596  10.521  10.618 -1.6186  1.1423 -3.2426
   39MOL0     H 5226   1.326  10.596  10.766  0.9122 -0.0356 -0.0715
   39MOL0     H 5227   1.435  10.654  10.637  1.6469 -2.1742  0.1782
   39MOL0     H 5228   1.284  10.601  10.588  2.5121  1.9668 -2.1864
   39MOL0     H 5229   0.936  10.353  10.494 -2.8471  0.3091  0.2954
   39MOL0     H 5230   0.706  10.306  10.440 -0.6200 -0.3863 -0.1074
   39MOL0     H 5231   0.508  10.189  10.719 -2.9806 -4.7041  0.7694
   39MOL0     H 5232   0.498  10.303  10.585 -0.4678 -0.7227 -3.1525
   39MOL0     H 5233   0.300  10.087  10.635 -1.0501 -0.4028 -1.0566
   39MOL0     H 5234   0.284  10.263  10.668 -1.8078 -1.0661  0.8320
   39MOL0     H 5235   0.304  10.137  10.380 -1.9322 -1.7589  0.2846
   39MOL0     H 5236   0.298  10.306  10.430  0.3253  1.0990  1.3526
   39MOL0     H 5237   0.074  10.113  10.483 -0.0621 -0.5603  0.5763
   39MOL0     H 5238   0.067  10.271  10.545 -1.5496 -2.2775  0.7147
   39MOL0     H 5239   0.084  10.202  10.249 -3.2272 -0.6886 -0.8472
   39MOL0     H 5240   0.133  10.362  10.306 -0.4032 -0.6050 -0.9464
   39MOL0     H 5241  -0.093  10.409  10.395 -1.1543 -1.6694  3.1723
   39MOL0     H 5242  -0.093  10.351  10.228  1.7774 -3.4870 -1.8020
   39MOL0     H 5243  -0.165  10.173  10.459 -0.0365 -2.2675 -0.9633
   39MOL0     H 5244  -0.142  10.123  10.293  2.5657  3.0564 -2.5356
   39MOL0     H 5245  -0.297  10.281  10.214  0.3425 -1.1059 -0.2899
   39MOL0     H 5246  -0.350  10.324  10.389 -1.8479  0.0507  0.2640
   39MOL0     H 5247   0.728   9.942  10.658  1.7852 -0.9448  0.7633
   39MOL0     H 5248   0.966   9.976  10.704 -1.2591 -0.4230 -0.7623
   39MOL0     H 5249   1.344  10.091  10.627 -0.3628 -0.9123  0.6219
   39MOL0     H 5250   1.583  10.093  10.570  0.1816  0.7536 -2.3986
   39MOL0     H 5251   3.570   9.480  10.583 -0.0056 -0.0280 -1.0882
   39MOL0     H 5252   3.804   9.529  10.596  0.0095  2.3640 -3.2637
   39MOL0     H 5253   4.194   9.581  10.975 -1.8432 -0.3240 -1.1053
   39MOL0     H 5254   4.428   9.688  11.000 -0.8752 -1.0532 -0.4203
   39MOL0     H 5255   4.547   9.890  10.662 -0.6422 -2.9184  2.2287
   39MOL0     H 5256   4.555  10.050  10.748 -1.5771 -0.0728  1.3449
   39MOL0     H 5257   4.795   9.922  10.703  1.2767  2.5567  1.0168
   39MOL0     H 5258   4.719   9.810  10.823  0.1610  0.7221  0.1516
   39MOL0     H 5259   4.699  10.006  10.979 -1.3029 -1.5853 -0.2733
   39MOL0     H 5260   4.776  10.101  10.850 -3.6795 -2.0021 -4.0557
   39MOL0     H 5261   4.991  10.010  10.885 -0.0592  1.6217  1.6694
   39MOL0     H 5262   4.910   9.859  10.955 -1.1948 -0.3334 -0.5438
   39MOL0     H 5263   4.963  10.057  11.309 -0.5370  0.1005 -0.0659
   39MOL0     H 5264   4.324   9.968  10.705  1.4562 -1.3477 -2.3904
   39MOL0     H 5265   4.103   9.900  10.690  0.0122 -1.5699 -2.8762
   40MOL0     O 5266  10.796   9.507   4.139  1.0411  0.3445 -0.0114
   40MOL0     C 5267  10.854   9.518   4.247  0.2374 -0.3146  0.9084
   40MOL0     O 5268  10.797   9.535   4.365  0.0546  0.4763  0.3823
   40MOL0     C 5269  10.664   9.569   4.357  0.8186  0.2393 -0.7619
   40MOL0     C 5270  10.619   9.685   4.305  0.0961 -0.2508  0.1499
   40MOL0     C 5271  10.489   9.729   4.307 -0.0499 -0.2732 -0.2032
   40MOL0     C 5272  10.392   9.649   4.372 -0.3390 -0.2148  0.0012
   40MOL0     O 5273  10.267   9.706   4.399 -0.1372 -0.4025  0.6127
   40MOL0     C 5274  10.186   9.653   4.506 -0.2865  0.9091 -0.6400
   40MOL0     C 5275  10.045   9.694   4.480  0.9833 -0.0100 -0.0440
   40MOL0     C 5276   9.948   9.632   4.584  0.1477  0.7596 -0.0770
   40MOL0     C 5277   9.811   9.692   4.564 -0.5312  0.1820 -0.3858
   40MOL0     C 5278   9.717   9.636   4.666 -0.5958 -0.1701 -0.1258
   40MOL0     C 5279   9.573   9.706   4.662 -0.9641 -0.0818 -0.6179
   40MOL0     C 5280   9.498   9.662   4.794  0.2085 -0.1841  0.5683
   40MOL0     C 5281   9.351   9.703   4.785  0.2091  0.0422  0.0187
   40MOL0     N 5282   9.264   9.639   4.887 -0.7937  0.1507 -0.3970
   40MOL0     C 5283   9.242   9.506   4.913  0.4153  0.5398 -0.5968
   40MOL0     C 5284   9.154   9.500   5.016 -0.0029 -0.8492 -0.0629
   40MOL0     C 5285   9.112   9.372   5.082  0.1334 -0.0508  0.3990
   40MOL0     C 5286   8.961   9.365   5.054  0.7115  0.1145 -0.2667
   40MOL0     C 5287   8.907   9.241   5.121 -0.3896 -0.4378  0.2888
   40MOL0     C 5288   8.752   9.229   5.125 -0.4179 -0.3713  0.3463
   40MOL0     O 5289   8.710   9.095   5.151 -0.7523 -0.2250 -0.0603
   40MOL0     C 5290   8.569   9.080   5.139 -0.0415 -0.3722  0.2717
   40MOL0     C 5291   8.475   9.173   5.096  0.3359 -0.5144  0.3172
   40MOL0     C 5292   8.337   9.137   5.068 -0.6621  0.0580  0.1129
   40MOL0     C 5293   8.248   9.244   5.013 -0.7262 -0.0911  0.4663
   40MOL0     C 5294   8.289   9.000   5.098 -0.3472  0.4403  0.4653
   40MOL0     C 5295   8.156   8.943   5.072  0.3803  0.3486  0.1154
   40MOL0     O 5296   8.146   8.810   5.026  0.3994 -0.0538 -0.6660
   40MOL0     C 5297   8.024   8.780   4.969  0.3159 -0.7332 -0.8565
   40MOL0     C 5298   8.022   8.719   4.845 -0.0326 -0.6224 -0.4426
   40MOL0     C 5299   7.898   8.679   4.787 -0.9131  0.0842  0.0504
   40MOL0     C 5300   7.774   8.707   4.843  0.3524 -0.6277 -0.7668
   40MOL0     O 5301   7.650   8.680   4.800  0.2084  0.4197  0.8835
   40MOL0     C 5302   7.628   8.569   4.719  0.4909 -0.4227  1.4380
   40MOL0     C 5303   7.488   8.583   4.644  0.4126  0.3081  0.2711
   40MOL0     C 5304   7.472   8.494   4.520  0.2359 -0.0410 -0.1322
   40MOL0     C 5305   7.388   8.364   4.548  0.7272 -0.3465  1.1341
   40MOL0     C 5306   7.359   8.287   4.416 -0.1784  0.2789 -0.1037
   40MOL0     C 5307   7.291   8.143   4.436  0.2414 -0.7970 -0.1350
   40MOL0     C 5308   7.277   8.064   4.308  0.3601 -0.1072 -0.0166
   40MOL0     C 5309   7.157   8.097   4.226  0.8264 -0.6250 -0.0600
   40MOL0    Cl 5310   7.012   8.059   4.316  0.2726  0.4135  0.2235
   40MOL0     C 5311   7.776   8.771   4.971  1.2467  0.2326 -1.3320
   40MOL0     C 5312   7.899   8.806   5.032  0.3273 -0.4811  0.3102
   40MOL0     O 5313   8.061   9.019   5.098 -0.0516  0.3357  0.7724
   40MOL0     C 5314   8.384   8.914   5.144 -1.0286 -0.7717 -0.4675
   40MOL0     C 5315   8.522   8.954   5.161 -0.3014 -0.3669 -0.2279
   40MOL0     N 5316   9.114   9.631   5.043 -0.4860  0.1647 -0.5169
   40MOL0     N 5317   9.184   9.716   4.976  0.9618  0.5181  0.3690
   40MOL0     C 5318  10.430   9.526   4.415 -0.0021 -0.2196 -1.1513
   40MOL0     C 5319  10.569   9.494   4.422 -0.0472  1.0400 -0.3438
   40MOL0     C 5320  10.999   9.519   4.244 -0.9254  1.4273 -0.5576
   40MOL0     C 5321  11.076   9.496   4.365  0.3932  1.0167  0.0119
   40MOL0     C 5322  11.215   9.497   4.366  0.0249 -0.8761 -0.2112
   40MOL0     C 5323  11.286   9.524   4.246  0.5211  0.6700 -0.2360
   40MOL0     O 5324  11.419   9.539   4.227  0.2451 -0.2760  0.2624
   40MOL0     C 5325  11.513   9.466   4.311  0.6434  0.6621  0.7077
   40MOL0     C 5326  11.493   9.316   4.300  0.3325  0.6184  0.4883
   40MOL0     C 5327  11.596   9.248   4.395  0.9845 -0.0230 -0.2011
   40MOL0     C 5328  11.576   9.091   4.415  0.2771  0.7604  0.3455
   40MOL0     C 5329  11.432   9.046   4.430 -0.0248  0.5156  0.1896
   40MOL0     C 5330  11.317   9.005   4.439  0.2177 -0.3353  0.4309
   40MOL0     C 5331  11.211   9.547   4.133  0.0257 -0.8247 -0.2057
   40MOL0     C 5332  11.075   9.542   4.134  0.5843  1.5600  0.5471
   40MOL0     H 5333  10.702   9.743   4.265 -1.2948  2.3355  0.8096
   40MOL0     H 5334  10.467   9.826   4.263 -0.2964 -0.2052  0.0654
   40MOL0     H 5335  10.193   9.545   4.525 -1.1007  0.7331 -1.2961
   40MOL0     H 5336  10.214   9.695   4.603  4.1026 -0.7800 -0.9548
   40MOL0     H 5337  10.031   9.803   4.478  2.4758  0.1869 -0.8819
   40MOL0     H 5338  10.022   9.656   4.380 -4.4321  0.2800  0.7664
   40MOL0     H 5339   9.942   9.524   4.567 -0.8505  0.8890 -0.6258
   40MOL0     H 5340   9.983   9.652   4.686 -0.1204 -0.3271  0.2505
   40MOL0     H 5341   9.813   9.801   4.568  0.2268  0.2054 -1.1622
   40MOL0     H 5342   9.780   9.666   4.462  0.4048 -1.2861 -0.3309
   40MOL0     H 5343   9.701   9.527   4.662 -2.3500 -0.0375  1.4914
   40MOL0     H 5344   9.760   9.652   4.765  1.1822  3.9026 -1.3686
   40MOL0     H 5345   9.587   9.814   4.656  2.4849 -0.4796 -2.0574
   40MOL0     H 5346   9.510   9.664   4.583 -0.2811 -2.3163 -0.0621
   40MOL0     H 5347   9.509   9.555   4.814 -0.2614 -0.4740 -0.6162
   40MOL0     H 5348   9.542   9.712   4.881  0.2987  2.8593 -1.0949
   40MOL0     H 5349   9.321   9.662   4.689 -0.5842 -2.3273  1.2014
   40MOL0     H 5350   9.350   9.812   4.777  3.0335  0.1617  0.1388
   40MOL0     H 5351   9.288   9.416   4.873  2.7684  1.0807  0.6812
   40MOL0     H 5352   9.157   9.285   5.033 -0.7357  0.2857 -1.0432
   40MOL0     H 5353   9.139   9.369   5.188  0.7361 -4.3417  0.2939
   40MOL0     H 5354   8.952   9.370   4.945  1.5853  2.0612 -0.2888
   40MOL0     H 5355   8.911   9.453   5.096 -5.2219 -3.4579  1.4380
   40MOL0     H 5356   8.950   9.233   5.221 -2.9778 -0.6896  1.4446
   40MOL0     H 5357   8.935   9.154   5.060  0.0733 -0.7433  0.9262
   40MOL0     H 5358   8.735   9.258   5.021  1.3282 -0.0027  0.1358
   40MOL0     H 5359   8.711   9.305   5.192  2.2263  0.0494  1.6089
   40MOL0     H 5360   8.506   9.275   5.078 -0.5387  0.8899  5.3824
   40MOL0     H 5361   8.184   9.285   5.091 -1.9981 -0.8389 -0.1510
   40MOL0     H 5362   8.313   9.325   4.981  1.4292 -1.7140  0.4785
   40MOL0     H 5363   8.184   9.200   4.936 -2.1073  0.4221  1.2862
   40MOL0     H 5364   8.117   8.688   4.802  0.6360 -0.7949  1.1069
   40MOL0     H 5365   7.903   8.620   4.695  1.7647 -0.5135  0.4882
   40MOL0     H 5366   7.691   8.571   4.629 -1.6274  0.1721 -0.1316
   40MOL0     H 5367   7.637   8.476   4.774  0.2756  0.4927  3.0782
   40MOL0     H 5368   7.411   8.567   4.720  2.9140 -2.1081  2.5393
   40MOL0     H 5369   7.484   8.683   4.601 -1.3770 -0.8991 -2.6609
   40MOL0     H 5370   7.570   8.473   4.476  0.9446 -0.6566  1.6468
   40MOL0     H 5371   7.424   8.551   4.440  0.0262  0.8954  0.6421
   40MOL0     H 5372   7.440   8.294   4.614 -0.1068 -1.7799  0.3260
   40MOL0     H 5373   7.296   8.390   4.600  0.0472 -1.7833  0.6793
   40MOL0     H 5374   7.455   8.269   4.367 -0.0418 -2.4144  1.0089
   40MOL0     H 5375   7.305   8.348   4.343 -0.5167  1.4290  1.0534
   40MOL0     H 5376   7.353   8.098   4.514  0.1681 -0.1014  0.3337
   40MOL0     H 5377   7.195   8.165   4.485  1.9677  1.8009  2.4132
   40MOL0     H 5378   7.278   7.961   4.343 -1.9570 -0.1454  0.0609
   40MOL0     H 5379   7.362   8.078   4.241  0.3508  1.0354  0.1800
   40MOL0     H 5380   7.154   8.045   4.130  0.7923 -0.6544 -0.0436
   40MOL0     H 5381   7.155   8.204   4.205  2.6351 -0.4875  0.3494
   40MOL0     H 5382   7.680   8.784   5.018  2.5525  0.6904  1.3670
   40MOL0     H 5383   7.895   8.843   5.134  2.9947 -1.5996  0.8978
   40MOL0     H 5384   8.367   8.808   5.159  3.4253 -1.4680  1.4016
   40MOL0     H 5385   8.593   8.874   5.177  3.0065  2.0505 -1.7517
   40MOL0     H 5386  10.369   9.474   4.488  1.5883  0.4394  0.7659
   40MOL0     H 5387  10.603   9.402   4.469 -0.6777  0.6505 -0.6338
   40MOL0     H 5388  11.021   9.492   4.459  1.7589  1.9074  0.8949
   40MOL0     H 5389  11.275   9.476   4.454  2.6109 -0.2407 -1.7312
   40MOL0     H 5390  11.608   9.487   4.262  0.2804  1.4934  0.3323
   40MOL0     H 5391  11.506   9.500   4.414 -0.8669 -0.5788  1.0489
   40MOL0     H 5392  11.511   9.272   4.201 -0.5198  0.2194  0.4993
   40MOL0     H 5393  11.391   9.292   4.331 -0.1845 -1.6215 -2.4288
   40MOL0     H 5394  11.586   9.293   4.495 -0.7346 -2.3391  0.7629
   40MOL0     H 5395  11.699   9.270   4.368  0.4975  0.6656 -1.5612
   40MOL0     H 5396  11.632   9.046   4.497  1.8851 -0.5970 -1.4097
   40MOL0     H 5397  11.614   9.043   4.325  0.4927 -0.0768  0.8796
   40MOL0     H 5398  11.212   8.985   4.452 -0.1657 -2.2873 -3.9638
   40MOL0     H 5399  11.257   9.585   4.042 -0.7162  3.0381  0.8732
   40MOL0     H 5400  11.021   9.553   4.041 -0.7377  0.6928  1.1730
   41MOL0     O 5401   0.713   7.157   7.474 -0.5073 -0.2905  0.6253
   41MOL0     C 5402   0.738   7.253   7.553 -0.0516 -0.4422 -0.0334
   41MOL0     O 5403   0.685   7.370   7.558 -0.0722 -1.0677  0.1446
   41MOL0     C 5404   0.606   7.410   7.455  0.4332 -0.2542  0.9488
   41MOL0     C 5405   0.480   7.466   7.486 -0.1804  0.3641 -0.4282
   41MOL0     C 5406   0.395   7.514   7.382  1.1326  0.6677  0.0337
   41MOL0     C 5407   0.434   7.508   7.252  1.8710  0.3482  0.1314
   41MOL0     O 5408   0.356   7.550   7.149  0.1285 -0.2956  0.6206
   41MOL0     C 5409   0.219   7.500   7.148  0.3767 -0.6373  0.0213
   41MOL0     C 5410   0.135   7.578   7.060 -0.1471 -0.0550 -0.5740
   41MOL0     C 5411   0.198   7.596   6.928  0.0703  0.7312  0.1156
   41MOL0     C 5412   0.092   7.623   6.817  0.3686 -0.5271 -0.5948
   41MOL0     C 5413  -0.015   7.731   6.835  0.5314 -0.2990 -0.5525
   41MOL0     C 5414  -0.086   7.758   6.702  0.9572 -0.0628 -0.5799
   41MOL0     C 5415  -0.214   7.832   6.716  0.2613 -0.3077  0.9471
   41MOL0     C 5416  -0.282   7.845   6.586  0.1173  0.6128 -0.7962
   41MOL0     N 5417  -0.403   7.932   6.586 -0.3302 -0.0385 -0.3822
   41MOL0     C 5418  -0.490   7.926   6.485  0.1209  0.1016  0.8892
   41MOL0     C 5419  -0.575   8.025   6.501 -0.6717  0.1992 -1.1974
   41MOL0     C 5420  -0.692   8.056   6.430 -1.0544 -0.0068  0.3748
   41MOL0     C 5421  -0.816   7.984   6.467  0.2989 -0.3764  0.2829
   41MOL0     C 5422  -0.870   8.026   6.612 -0.1912  0.4513  0.0838
   41MOL0     C 5423  -0.983   7.930   6.659  0.1260  0.0056  0.9292
   41MOL0     O 5424  -1.099   7.953   6.583 -0.0034  0.3988  0.0378
   41MOL0     C 5425  -1.198   7.862   6.571 -0.4843 -0.0223  0.2492
   41MOL0     C 5426  -1.312   7.906   6.510  0.1389  0.5425 -0.4396
   41MOL0     C 5427  -1.432   7.831   6.505 -0.0890  0.0762 -0.9458
   41MOL0     C 5428  -1.560   7.897   6.463  1.2612 -0.8282 -0.3549
   41MOL0     C 5429  -1.421   7.692   6.551  0.3223  0.7478  0.2555
   41MOL0     C 5430  -1.540   7.595   6.564  0.1496  0.3762 -0.1724
   41MOL0     O 5431  -1.664   7.648   6.598 -0.0935  0.1329  0.2637
   41MOL0     C 5432  -1.778   7.590   6.566  0.4077  0.4914  0.0832
   41MOL0     C 5433  -1.797   7.481   6.478  0.0588  0.2916  0.0550
   41MOL0     C 5434  -1.923   7.434   6.455 -0.0207  0.4370  0.4759
   41MOL0     C 5435  -2.032   7.479   6.529  1.1513 -0.3843 -0.9984
   41MOL0     O 5436  -2.156   7.409   6.516  0.1119 -0.0224  0.2349
   41MOL0     C 5437  -2.279   7.477   6.502  1.4643 -0.2624 -0.3329
   41MOL0     C 5438  -2.400   7.400   6.554 -0.6972 -0.2696 -0.1712
   41MOL0     C 5439  -2.427   7.294   6.457  0.0528 -0.2257  0.1562
   41MOL0     C 5440  -2.540   7.208   6.504 -0.5724  0.0260  0.2726
   41MOL0     C 5441  -2.556   7.092   6.408 -0.0509 -0.0347  0.0593
   41MOL0     C 5442  -2.611   6.963   6.463 -0.3704 -0.7312 -0.4132
   41MOL0     C 5443  -2.623   6.849   6.360  0.2068  0.3021  0.5390
   41MOL0     C 5444  -2.691   6.723   6.421  0.8698 -0.1974 -0.1101
   41MOL0    Cl 5445  -2.605   6.661   6.561 -0.0881  0.2545  0.2527
   41MOL0     C 5446  -2.020   7.590   6.615 -0.0193  0.5474  0.0135
   41MOL0     C 5447  -1.892   7.647   6.628  0.7872 -0.7404 -0.6532
   41MOL0     O 5448  -1.516   7.479   6.549 -0.4570  0.2060 -0.3341
   41MOL0     C 5449  -1.300   7.641   6.587 -0.8131  0.1516 -0.0843
   41MOL0     C 5450  -1.190   7.727   6.604  0.0841  0.0356 -0.0883
   41MOL0     N 5451  -0.530   8.089   6.620  0.1225 -0.5639  0.3127
   41MOL0     N 5452  -0.433   8.029   6.673 -0.6040  0.0580 -0.6259
   41MOL0     C 5453   0.550   7.443   7.222  0.2901  0.5138  0.0315
   41MOL0     C 5454   0.647   7.400   7.318 -0.4868 -0.0114  0.0153
   41MOL0     C 5455   0.831   7.218   7.659  0.5352 -0.5349 -0.1703
   41MOL0     C 5456   0.920   7.111   7.666  0.4581  0.5964 -0.0401
   41MOL0     C 5457   1.002   7.081   7.769 -0.5486  0.0938  0.0297
   41MOL0     C 5458   1.015   7.181   7.870  0.2320  0.5325  0.2668
   41MOL0     O 5459   1.096   7.183   7.981  0.0073  0.3803 -0.1811
   41MOL0     C 5460   1.157   7.056   8.019 -0.4269 -1.0975 -0.2335
   41MOL0     C 5461   1.235   7.052   8.150 -0.5841  0.3319 -0.1198
   41MOL0     C 5462   1.347   7.167   8.173  0.3332  0.0766  0.1192
   41MOL0     C 5463   1.474   7.143   8.088 -0.9129  0.0194 -0.3305
   41MOL0     C 5464   1.589   7.214   8.142  0.4784  0.1094 -0.2376
   41MOL0     C 5465   1.679   7.295   8.178  1.0456  0.2311 -0.2784
   41MOL0     C 5466   0.924   7.289   7.868 -0.4154  0.1506  0.9580
   41MOL0     C 5467   0.832   7.312   7.769 -0.2882  1.3892 -0.0301
   41MOL0     H 5468   0.459   7.480   7.592 -0.0779  2.8568 -0.6910
   41MOL0     H 5469   0.301   7.547   7.424  0.4889 -0.5563 -0.4005
   41MOL0     H 5470   0.211   7.395   7.120 -1.6451 -1.3892  2.9632
   41MOL0     H 5471   0.180   7.514   7.250  1.2881 -1.2275  0.4658
   41MOL0     H 5472   0.032   7.542   7.055 -0.1760  0.1443 -1.6053
   41MOL0     H 5473   0.126   7.679   7.103  1.2392 -0.6746  1.2511
   41MOL0     H 5474   0.273   7.675   6.925 -2.0101  2.7706 -0.8686
   41MOL0     H 5475   0.236   7.498   6.898 -0.0006  0.4886  0.7992
   41MOL0     H 5476   0.159   7.641   6.732  1.4959 -0.9380  0.1836
   41MOL0     H 5477   0.043   7.531   6.784 -0.4179 -0.0356 -0.8185
   41MOL0     H 5478  -0.091   7.711   6.911 -0.6665  4.6359 -0.1381
   41MOL0     H 5479   0.035   7.823   6.868  0.5008 -1.4333  3.1741
   41MOL0     H 5480  -0.019   7.816   6.638  1.6037 -1.0559 -0.8240
   41MOL0     H 5481  -0.100   7.661   6.655 -0.5417  0.8310 -2.0673
   41MOL0     H 5482  -0.284   7.786   6.786 -0.5619  0.3147  0.5594
   41MOL0     H 5483  -0.187   7.933   6.750  1.7435 -0.2203 -0.3568
   41MOL0     H 5484  -0.290   7.748   6.534 -3.0866 -1.0092  2.2705
   41MOL0     H 5485  -0.208   7.894   6.522  1.7412 -0.6830  0.0220
   41MOL0     H 5486  -0.493   7.853   6.404  2.6378  1.1810 -0.3019
   41MOL0     H 5487  -0.708   8.163   6.449 -0.9125 -0.1107  1.1147
   41MOL0     H 5488  -0.675   8.038   6.323 -0.4017  1.3379  0.2338
   41MOL0     H 5489  -0.790   7.878   6.453 -2.5136 -0.8872 -1.8609
   41MOL0     H 5490  -0.898   7.989   6.395  0.8231 -2.9838 -0.6154
   41MOL0     H 5491  -0.900   8.131   6.602  0.4528  0.7247  0.8867
   41MOL0     H 5492  -0.789   8.013   6.684 -0.7956 -0.8539  0.5527
   41MOL0     H 5493  -1.011   7.937   6.765 -0.7935 -1.0978  0.7697
   41MOL0     H 5494  -0.944   7.832   6.634  3.3657  0.1243  4.5018
   41MOL0     H 5495  -1.325   8.006   6.469 -1.6186  0.6437  0.2668
   41MOL0     H 5496  -1.615   7.833   6.394 -0.4617 -1.5090  1.5379
   41MOL0     H 5497  -1.628   7.901   6.549 -1.0435 -1.8177 -2.0492
   41MOL0     H 5498  -1.548   7.996   6.418  0.6781  0.1517  1.5270
   41MOL0     H 5499  -1.708   7.434   6.438  2.0947  2.8497  1.2369
   41MOL0     H 5500  -1.929   7.348   6.389 -1.3015 -0.1529  1.3208
   41MOL0     H 5501  -2.277   7.567   6.563  1.6551 -0.4359 -0.0804
   41MOL0     H 5502  -2.305   7.496   6.398  0.2917 -0.3123 -0.0660
   41MOL0     H 5503  -2.390   7.348   6.650 -1.0990 -0.2177 -0.1022
   41MOL0     H 5504  -2.480   7.474   6.560  0.1713  0.6055  1.1863
   41MOL0     H 5505  -2.343   7.225   6.442  1.8336  1.7937  0.3657
   41MOL0     H 5506  -2.458   7.338   6.362 -0.4896  0.6392  0.7196
   41MOL0     H 5507  -2.528   7.158   6.601 -0.5774  1.2793  0.9346
   41MOL0     H 5508  -2.628   7.272   6.511 -1.4030 -1.0077 -0.4861
   41MOL0     H 5509  -2.459   7.065   6.365 -1.7536 -2.2862 -2.7901
   41MOL0     H 5510  -2.611   7.127   6.320 -0.4928  0.1054  0.3861
   41MOL0     H 5511  -2.556   6.941   6.555  0.5069 -0.8094 -0.9507
   41MOL0     H 5512  -2.712   6.994   6.492 -0.1535  0.2036 -0.6307
   41MOL0     H 5513  -2.529   6.827   6.310  0.7166 -0.0683  1.6296
   41MOL0     H 5514  -2.691   6.894   6.287 -1.7027  0.2432  2.1830
   41MOL0     H 5515  -2.705   6.644   6.346 -2.2277  1.6998 -1.7508
   41MOL0     H 5516  -2.790   6.761   6.450 -0.9892 -1.4659 -4.0582
   41MOL0     H 5517  -2.098   7.637   6.673  0.8636  0.3384  1.4012
   41MOL0     H 5518  -1.878   7.736   6.689  2.5920 -1.9075  0.7203
   41MOL0     H 5519  -1.288   7.536   6.614  1.3447  0.0681 -1.1980
   41MOL0     H 5520  -1.107   7.669   6.641  0.0246 -1.5244 -2.1934
   41MOL0     H 5521   0.567   7.425   7.117 -1.0450 -1.9694  0.1539
   41MOL0     H 5522   0.735   7.340   7.296 -0.5376  0.1983 -0.7960
   41MOL0     H 5523   0.909   7.034   7.591 -1.3239 -0.4477  1.1950
   41MOL0     H 5524   1.050   6.984   7.764  0.7201  0.4909  2.6492
   41MOL0     H 5525   1.086   6.973   8.031 -0.1666 -1.4331 -0.9623
   41MOL0     H 5526   1.221   7.031   7.933  0.3815 -3.3402  0.9435
   41MOL0     H 5527   1.289   6.957   8.153  1.4035  1.3553 -1.0096
   41MOL0     H 5528   1.170   7.054   8.237  2.9904 -0.4757  2.8338
   41MOL0     H 5529   1.371   7.165   8.280  0.1881 -0.0549  0.1491
   41MOL0     H 5530   1.295   7.262   8.156  0.0104 -0.2560 -0.8282
   41MOL0     H 5531   1.457   7.177   7.986  0.1038 -0.0132 -0.5223
   41MOL0     H 5532   1.509   7.039   8.083  2.4916  1.0215 -0.0167
   41MOL0     H 5533   1.752   7.368   8.209  3.4360 -2.2115  0.2224
   41MOL0     H 5534   0.934   7.365   7.946  1.3073  1.5877 -0.5778
   41MOL0     H 5535   0.760   7.393   7.783 -1.1228  0.9426 -1.4822
   42MOL0     O 5536   4.610   5.435   6.312  0.5198 -0.0537  0.5189
   42MOL0     C 5537   4.699   5.425   6.228  0.4244  0.3592 -0.0069
   42MOL0     O 5538   4.723   5.313   6.156 -0.7149 -0.5665 -0.2326
   42MOL0     C 5539   4.647   5.197   6.172 -0.5189  0.4275  0.1839
   42MOL0     C 5540   4.520   5.190   6.119 -0.5042  0.6824 -0.7024
   42MOL0     C 5541   4.446   5.078   6.131  0.7796  0.2216 -0.1397
   42MOL0     C 5542   4.496   4.967   6.192  0.1039  0.3609  0.4094
   42MOL0     O 5543   4.418   4.851   6.215  0.4039 -0.0749 -0.3667
   42MOL0     C 5544   4.277   4.873   6.243 -0.0198  1.1228  0.6619
   42MOL0     C 5545   4.216   4.803   6.120 -0.2016 -0.2489  0.1980
   42MOL0     C 5546   4.068   4.772   6.159  0.1224  0.5542  1.3199
   42MOL0     C 5547   3.998   4.716   6.041  0.2489  0.0560 -0.1964
   42MOL0     C 5548   3.847   4.677   6.075  0.0498 -1.0425 -0.2485
   42MOL0     C 5549   3.775   4.605   5.962 -0.3811  0.1407 -0.4804
   42MOL0     C 5550   3.632   4.559   6.000 -0.1780  0.4382  0.0057
   42MOL0     C 5551   3.591   4.446   5.894  0.0675  0.7537 -0.5781
   42MOL0     N 5552   3.453   4.397   5.933 -1.4601  0.7032 -0.9224
   42MOL0     C 5553   3.421   4.306   6.034  0.0674  0.0306 -0.0263
   42MOL0     C 5554   3.301   4.258   5.996  0.6352 -0.0802  0.2168
   42MOL0     C 5555   3.240   4.135   6.070  0.5622 -0.5697  0.9170
   42MOL0     C 5556   3.096   4.102   6.034  0.0911 -1.0927  0.0601
   42MOL0     C 5557   3.043   3.970   6.079 -0.9233  0.4153  0.4079
   42MOL0     C 5558   2.892   3.963   6.072  0.2684  1.3837  0.5813
   42MOL0     O 5559   2.814   4.060   6.143 -0.2374  0.2113 -0.0963
   42MOL0     C 5560   2.683   4.040   6.167  0.6157  0.1730  0.0791
   42MOL0     C 5561   2.604   3.934   6.132 -0.1017 -0.0447  0.4802
   42MOL0     C 5562   2.475   3.916   6.182  0.4714 -0.0649  0.2720
   42MOL0     C 5563   2.408   3.782   6.148  0.7732  0.0156  0.0533
   42MOL0     C 5564   2.412   4.015   6.253  0.8707  0.5264  0.9839
   42MOL0     C 5565   2.262   4.016   6.276  0.0766 -1.5365 -0.4416
   42MOL0     O 5566   2.173   3.930   6.209 -0.2779 -0.1498 -0.1082
   42MOL0     C 5567   2.041   3.962   6.229  0.3186  0.5004 -0.0158
   42MOL0     C 5568   1.982   3.908   6.350 -0.0851 -0.7621  1.0359
   42MOL0     C 5569   1.845   3.915   6.363 -1.5230  0.0203 -0.4174
   42MOL0     C 5570   1.766   3.986   6.279  0.1539 -0.1971  0.6837
   42MOL0     O 5571   1.631   3.997   6.295  0.0105  0.2229  0.0703
   42MOL0     C 5572   1.608   4.117   6.376  0.3457 -0.3293 -0.3954
   42MOL0     C 5573   1.464   4.166   6.393  0.0058  0.2270  0.8166
   42MOL0     C 5574   1.399   4.066   6.485  0.1079 -0.8008 -0.3487
   42MOL0     C 5575   1.244   4.073   6.478  0.5739  0.0858 -0.2602
   42MOL0     C 5576   1.178   4.180   6.558  0.2344 -0.0936 -0.1114
   42MOL0     C 5577   1.029   4.188   6.550  0.3426  0.1044 -0.2444
   42MOL0     C 5578   0.972   4.308   6.625 -0.5709  0.6626  0.7349
   42MOL0     C 5579   0.824   4.316   6.610  0.3486 -0.6605 -0.1241
   42MOL0    Cl 5580   0.756   4.445   6.710  0.3420 -0.0713  0.1400
   42MOL0     C 5581   1.825   4.046   6.165 -0.0226 -0.3125 -0.6103
   42MOL0     C 5582   1.959   4.030   6.140  0.0013  0.6386 -0.0337
   42MOL0     O 5583   2.230   4.094   6.372  0.1906  0.1452 -0.2160
   42MOL0     C 5584   2.487   4.130   6.279 -0.1969  0.0378  0.0621
   42MOL0     C 5585   2.616   4.144   6.226  0.2904  0.2310 -0.9916
   42MOL0     N 5586   3.255   4.326   5.884 -0.3414  0.0327  0.1688
   42MOL0     N 5587   3.342   4.423   5.850 -0.0204  0.6207 -0.7722
   42MOL0     C 5588   4.627   4.967   6.234  0.5398 -0.2638  0.1552
   42MOL0     C 5589   4.707   5.080   6.218  0.6104  0.4055  0.5289
   42MOL0     C 5590   4.814   5.521   6.228  0.1676  0.0125 -0.0380
   42MOL0     C 5591   4.921   5.510   6.145  0.9600  0.1583  0.4360
   42MOL0     C 5592   5.028   5.611   6.156 -0.3622  0.8225  0.0012
   42MOL0     C 5593   5.024   5.713   6.241  0.1018  0.8009 -0.1767
   42MOL0     O 5594   5.121   5.804   6.261  0.5394  0.1991 -0.4686
   42MOL0     C 5595   5.228   5.803   6.161 -0.1188 -0.9425 -0.0374
   42MOL0     C 5596   5.317   5.928   6.187 -0.4842 -0.3631 -0.2210
   42MOL0     C 5597   5.387   5.928   6.323  0.1183  0.1571 -0.4042
   42MOL0     C 5598   5.452   6.060   6.345 -0.3042  0.8715 -0.1454
   42MOL0     C 5599   5.541   6.052   6.460 -0.7021  0.3770 -0.2799
   42MOL0     C 5600   5.608   6.042   6.561 -0.9376  0.0640  1.3061
   42MOL0     C 5601   4.919   5.717   6.330  0.0195 -0.2191  0.5160
   42MOL0     C 5602   4.817   5.627   6.324  0.5678  0.0672 -0.5830
   42MOL0     H 5603   4.497   5.281   6.064 -1.5819  0.1001 -1.2417
   42MOL0     H 5604   4.342   5.062   6.104  0.8534 -2.1309  0.7917
   42MOL0     H 5605   4.252   4.823   6.337 -2.0098 -2.0408 -1.3656
   42MOL0     H 5606   4.241   4.975   6.255 -0.8751  0.8330  0.6187
   42MOL0     H 5607   4.213   4.877   6.039 -0.4528 -0.1601  0.2899
   42MOL0     H 5608   4.275   4.712   6.106 -1.1838 -1.3624  2.6710
   42MOL0     H 5609   4.060   4.699   6.240 -3.1536 -1.5390 -0.6791
   42MOL0     H 5610   4.011   4.861   6.186 -1.9273 -0.5787  0.9484
   42MOL0     H 5611   3.996   4.783   5.954  0.9682  0.8094  0.3613
   42MOL0     H 5612   4.046   4.626   6.002 -0.2163 -1.1712  1.8940
   42MOL0     H 5613   3.842   4.621   6.170  0.5318 -0.5970  0.0438
   42MOL0     H 5614   3.778   4.759   6.092 -1.6319 -2.7180  1.6565
   42MOL0     H 5615   3.774   4.662   5.868 -1.5211  0.1473 -0.4851
   42MOL0     H 5616   3.830   4.512   5.945 -1.1656 -1.1099  3.0390
   42MOL0     H 5617   3.639   4.518   6.101  2.0739 -1.2320 -0.7381
   42MOL0     H 5618   3.555   4.636   6.009 -0.1177  1.1001 -3.6509
   42MOL0     H 5619   3.648   4.353   5.889  0.6815  1.1547 -1.0270
   42MOL0     H 5620   3.602   4.488   5.794  0.9694  3.1509  0.4604
   42MOL0     H 5621   3.489   4.275   6.112 -1.1299 -0.2219  0.9508
   42MOL0     H 5622   3.303   4.052   6.037  0.1440  0.4306 -2.8109
   42MOL0     H 5623   3.257   4.155   6.176 -0.6859 -2.8491  1.6253
   42MOL0     H 5624   3.092   4.113   5.925 -4.1635 -1.5140 -0.0073
   42MOL0     H 5625   3.036   4.183   6.076  2.0110 -0.8668  2.6328
   42MOL0     H 5626   3.080   3.950   6.180 -0.3773  3.0829  0.7931
   42MOL0     H 5627   3.082   3.886   6.020 -0.0183  2.1661 -1.6356
   42MOL0     H 5628   2.869   3.866   6.116  1.7671 -0.1061 -1.6975
   42MOL0     H 5629   2.864   3.956   5.966 -0.8468  2.1524  0.8019
   42MOL0     H 5630   2.655   3.853   6.082  2.9892  1.0417  1.6494
   42MOL0     H 5631   2.337   3.802   6.067 -1.2927  1.3327  2.0849
   42MOL0     H 5632   2.486   3.711   6.120  1.3504 -0.8986  3.5400
   42MOL0     H 5633   2.361   3.742   6.238 -1.3408  2.2232  0.0278
   42MOL0     H 5634   2.040   3.850   6.421  0.9036 -2.0378 -0.7374
   42MOL0     H 5635   1.801   3.865   6.449 -0.4419 -2.1628 -1.0743
   42MOL0     H 5636   1.646   4.104   6.479 -0.2038  1.6040  0.0744
   42MOL0     H 5637   1.664   4.205   6.344 -1.0532 -0.1464 -2.4941
   42MOL0     H 5638   1.457   4.265   6.439  1.3058  0.0627  1.3990
   42MOL0     H 5639   1.413   4.165   6.296  0.4083 -0.2501  0.6102
   42MOL0     H 5640   1.421   4.088   6.589 -0.3076  0.4697 -0.5123
   42MOL0     H 5641   1.437   3.965   6.466  1.0747 -0.4989 -0.0408
   42MOL0     H 5642   1.215   4.080   6.372  0.1180  1.5251 -0.0647
   42MOL0     H 5643   1.207   3.975   6.510  1.5074 -0.6489 -1.3179
   42MOL0     H 5644   1.218   4.279   6.536  0.3976 -0.2155 -0.3717
   42MOL0     H 5645   1.203   4.157   6.662 -1.7425  0.0509  0.4334
   42MOL0     H 5646   1.012   4.193   6.442  0.5675 -0.6953 -0.3218
   42MOL0     H 5647   0.974   4.104   6.592 -0.1091  0.0636 -0.9038
   42MOL0     H 5648   1.021   4.399   6.588  1.5129 -0.7069 -0.0295
   42MOL0     H 5649   1.010   4.310   6.727  0.0671  1.3972  0.5002
   42MOL0     H 5650   0.786   4.221   6.648  1.7136 -1.3158 -0.3669
   42MOL0     H 5651   0.798   4.336   6.506 -0.7574  0.1457  0.2834
   42MOL0     H 5652   1.766   4.090   6.086  3.7285  1.1705 -2.8912
   42MOL0     H 5653   1.997   4.062   6.044  0.9774 -0.9576 -0.2050
   42MOL0     H 5654   2.445   4.220   6.322 -1.8004  1.0850 -3.3789
   42MOL0     H 5655   2.669   4.238   6.236 -2.8526  2.1485 -0.9976
   42MOL0     H 5656   4.673   4.876   6.270  1.9014  0.5241  0.4857
   42MOL0     H 5657   4.812   5.080   6.245  1.1917  1.5918 -1.5030
   42MOL0     H 5658   4.935   5.435   6.068  0.7115 -0.6519  1.1741
   42MOL0     H 5659   5.116   5.580   6.102 -2.6426 -4.6649 -1.2565
   42MOL0     H 5660   5.284   5.709   6.172 -0.0643 -0.8599  0.4098
   42MOL0     H 5661   5.192   5.817   6.059  0.8478 -1.0306 -0.4058
   42MOL0     H 5662   5.243   6.008   6.181 -0.3761 -0.3817 -2.9352
   42MOL0     H 5663   5.384   5.950   6.104  0.6838 -0.1681  0.7443
   42MOL0     H 5664   5.464   5.851   6.308 -0.1533 -0.7060  2.1176
   42MOL0     H 5665   5.326   5.897   6.408  0.2544 -3.4824 -1.4553
   42MOL0     H 5666   5.389   6.148   6.359  0.1317  0.9727  1.3565
   42MOL0     H 5667   5.512   6.094   6.260  0.1398  0.6516  0.0762
   42MOL0     H 5668   5.654   6.053   6.657  0.1158 -1.9319  1.0949
   42MOL0     H 5669   4.920   5.795   6.404 -1.3915  2.8027 -2.3845
   42MOL0     H 5670   4.742   5.643   6.401  2.8015  1.1189  1.4859
   43MOL0     O 5671   2.478   0.615  10.529 -0.0418  0.2988  0.1372
   43MOL0     C 5672   2.534   0.532  10.464  0.7794  0.6029  0.4075
   43MOL0     O 5673   2.481   0.459  10.362  0.9658 -0.0373 -0.1902
   43MOL0     C 5674   2.349   0.442  10.340 -0.1448  0.4126  0.7945
   43MOL0     C 5675   2.304   0.314  10.308 -0.1818  0.4085  0.2168
   43MOL0     C 5676   2.169   0.290  10.289  0.1201  0.4783  0.8377
   43MOL0     C 5677   2.072   0.392  10.285 -0.8081  0.5863 -0.4000
   43MOL0     O 5678   1.940   0.383  10.273  0.1595  0.9110 -0.4209
   43MOL0     C 5679   1.880   0.255  10.251 -0.0005 -0.3178  0.1087
   43MOL0     C 5680   1.723   0.254  10.248 -0.6459  0.1184 -0.4269
   43MOL0     C 5681   1.656   0.264  10.385 -0.5472  0.7252  0.5186
   43MOL0     C 5682   1.664   0.395  10.457  0.3909 -0.2390  0.4751
   43MOL0     C 5683   1.567   0.389  10.575 -0.8911 -0.2473  1.0820
   43MOL0     C 5684   1.532   0.528  10.624  0.0211 -0.2056 -0.8455
   43MOL0     C 5685   1.416   0.604  10.550  0.6078  0.0724  0.1266
   43MOL0     C 5686   1.278   0.550  10.586  0.6354  0.0405 -0.8978
   43MOL0     N 5687   1.223   0.577  10.722 -0.3759 -0.1174  0.0151
   43MOL0     C 5688   1.160   0.692  10.761  1.2288  0.0667  0.0777
   43MOL0     C 5689   1.159   0.683  10.893 -0.2227 -0.7684 -0.1472
   43MOL0     C 5690   1.093   0.777  10.989  0.3121  0.7685  0.3593
   43MOL0     C 5691   0.958   0.843  10.940 -0.8895  0.0273 -0.5919
   43MOL0     C 5692   0.840   0.739  10.912  0.3345 -0.5623 -0.2031
   43MOL0     C 5693   0.709   0.823  10.918 -1.2610 -0.3519 -0.0596
   43MOL0     O 5694   0.610   0.758  10.847 -0.1554  1.0240  0.5340
   43MOL0     C 5695   0.498   0.834  10.816 -0.5881 -0.1339 -0.4596
   43MOL0     C 5696   0.402   0.761  10.737 -0.7155 -0.4375 -0.8617
   43MOL0     C 5697   0.284   0.822  10.690  0.1810 -0.3393 -0.0392
   43MOL0     C 5698   0.203   0.731  10.600  0.9407 -0.7273 -0.4371
   43MOL0     C 5699   0.251   0.953  10.735 -0.1193  0.4251 -0.9961
   43MOL0     C 5700   0.117   1.013  10.705  0.2007 -0.2022 -0.0223
   43MOL0     O 5701   0.109   1.143  10.742  0.5332  0.7139 -0.5051
   43MOL0     C 5702  -0.007   1.208  10.713 -0.1909 -0.0914  0.1711
   43MOL0     C 5703  -0.096   1.262  10.807  0.1919  0.2568  0.1556
   43MOL0     C 5704  -0.216   1.318  10.774  0.4534 -0.7234  0.0546
   43MOL0     C 5705  -0.253   1.349  10.644  0.4957 -0.4102  0.4006
   43MOL0     O 5706  -0.366   1.424  10.627 -0.1787  0.8260  0.1909
   43MOL0     C 5707  -0.438   1.436  10.504 -0.7684 -0.1482 -0.1418
   43MOL0     C 5708  -0.553   1.515  10.546 -0.2190 -0.1214  0.0148
   43MOL0     C 5709  -0.663   1.495  10.443  0.3507 -0.3787 -0.0926
   43MOL0     C 5710  -0.804   1.560  10.478 -0.2929 -0.4881 -0.1724
   43MOL0     C 5711  -0.922   1.493  10.402 -0.6249 -0.8580  0.1295
   43MOL0     C 5712  -1.054   1.559  10.458  1.1016 -0.4585 -0.1477
   43MOL0     C 5713  -1.180   1.486  10.406 -0.6746  0.5807 -0.1155
   43MOL0     C 5714  -1.316   1.557  10.435 -0.7473  0.7727 -0.0340
   43MOL0    Cl 5715  -1.443   1.443  10.382 -0.3810  0.0302  0.0171
   43MOL0     C 5716  -0.162   1.317  10.543 -0.2139  1.2136 -0.2037
   43MOL0     C 5717  -0.041   1.246  10.578  0.3728  0.5535 -0.8752
   43MOL0     O 5718   0.034   0.942  10.642 -0.5318 -0.0601 -0.0754
   43MOL0     C 5719   0.348   1.023  10.815  0.1642  0.8147 -0.2970
   43MOL0     C 5720   0.470   0.969  10.853  0.9146 -0.1123  0.6013
   43MOL0     N 5721   1.223   0.563  10.929  0.3725  0.1579 -0.0973
   43MOL0     N 5722   1.263   0.499  10.827 -0.4044  0.7769  0.4760
   43MOL0     C 5723   2.119   0.519  10.303  0.0932  0.0850 -0.0992
   43MOL0     C 5724   2.255   0.547  10.339  0.6308 -0.9297 -0.4501
   43MOL0     C 5725   2.676   0.527  10.476 -0.5987  0.6113 -0.3654
   43MOL0     C 5726   2.751   0.618  10.553 -0.9468  0.1871  0.2478
   43MOL0     C 5727   2.886   0.602  10.568  0.1110 -0.0302 -0.5177
   43MOL0     C 5728   2.951   0.499  10.515  0.1057 -0.0802  0.2909
   43MOL0     O 5729   3.085   0.493  10.525 -0.3780 -0.0707 -0.4176
   43MOL0     C 5730   3.133   0.375  10.599  0.3122  0.0973  0.7830
   43MOL0     C 5731   3.268   0.405  10.651 -0.5583 -0.5653 -0.8961
   43MOL0     C 5732   3.388   0.409  10.547 -0.4907  0.3280 -0.0941
   43MOL0     C 5733   3.494   0.298  10.569 -0.2341  0.4584  0.0410
   43MOL0     C 5734   3.589   0.277  10.459  0.1592 -0.1062 -0.5140
   43MOL0     C 5735   3.675   0.259  10.384  0.2988  0.5141  0.1821
   43MOL0     C 5736   2.886   0.398  10.445 -0.4153 -0.0159  0.5792
   43MOL0     C 5737   2.748   0.418  10.422  0.5638  0.2523 -0.4359
   43MOL0     H 5738   2.373   0.230  10.306  0.8369  1.2491 -1.4182
   43MOL0     H 5739   2.141   0.187  10.267  2.6100 -0.2269  0.6131
   43MOL0     H 5740   1.916   0.215  10.156  0.8781  2.0726 -0.6642
   43MOL0     H 5741   1.917   0.187  10.328 -0.9283  1.3764  2.1658
   43MOL0     H 5742   1.686   0.322  10.170 -1.5497 -1.5574 -1.5199
   43MOL0     H 5743   1.689   0.160  10.204 -0.5837 -0.7221  1.2508
   43MOL0     H 5744   1.550   0.252  10.360 -0.0399 -0.3486 -1.3608
   43MOL0     H 5745   1.696   0.188  10.453  1.0742  0.3171 -0.8261
   43MOL0     H 5746   1.767   0.409  10.491  0.3842 -1.7818  1.2335
   43MOL0     H 5747   1.640   0.475  10.387  0.4564  1.0230  1.8348
   43MOL0     H 5748   1.472   0.343  10.546 -0.9985  0.1888  0.7268
   43MOL0     H 5749   1.607   0.338  10.663 -1.3318 -0.1220  1.3586
   43MOL0     H 5750   1.504   0.517  10.729  1.2761 -4.1690 -0.7771
   43MOL0     H 5751   1.619   0.593  10.630 -0.3889  0.2343  1.1460
   43MOL0     H 5752   1.425   0.711  10.574  0.8235  0.4505 -1.5363
   43MOL0     H 5753   1.430   0.608  10.442  0.4745  1.1126  0.1371
   43MOL0     H 5754   1.282   0.442  10.569 -3.7627 -0.9869  2.4662
   43MOL0     H 5755   1.200   0.597  10.526  1.1417  1.6172 -0.3749
   43MOL0     H 5756   1.127   0.776  10.701 -0.4016 -1.7607 -1.7210
   43MOL0     H 5757   1.068   0.723  11.081  0.2253  1.6357  0.8678
   43MOL0     H 5758   1.164   0.854  11.023  0.4967  1.8402 -2.2061
   43MOL0     H 5759   0.966   0.903  10.849 -2.2359  0.8751 -0.1916
   43MOL0     H 5760   0.935   0.919  11.015 -3.8483  1.8045 -3.0840
   43MOL0     H 5761   0.830   0.666  10.993  1.2412  1.4807  1.8778
   43MOL0     H 5762   0.847   0.697  10.811  0.0763 -1.3544  0.1038
   43MOL0     H 5763   0.733   0.919  10.870 -2.5603  0.5609  1.0329
   43MOL0     H 5764   0.685   0.850  11.021 -0.5800  4.2902 -0.8579
   43MOL0     H 5765   0.427   0.657  10.722 -0.5229 -0.7142  1.0997
   43MOL0     H 5766   0.263   0.647  10.565  2.5429  1.0263 -2.1014
   43MOL0     H 5767   0.116   0.681  10.644  2.0300 -0.6435  1.9842
   43MOL0     H 5768   0.170   0.799  10.521 -2.9488  0.6015  2.0234
   43MOL0     H 5769  -0.080   1.254  10.914 -0.7967  0.5746  0.3310
   43MOL0     H 5770  -0.292   1.340  10.849  0.8917 -1.4335  0.7247
   43MOL0     H 5771  -0.378   1.495  10.434 -0.9923 -2.1245 -2.1493
   43MOL0     H 5772  -0.459   1.342  10.451  1.3188 -1.3151  0.9744
   43MOL0     H 5773  -0.586   1.496  10.648  0.9202  0.0687  0.4328
   43MOL0     H 5774  -0.527   1.622  10.544  1.5322 -0.4955  1.1106
   43MOL0     H 5775  -0.681   1.388  10.426  1.4130 -0.2775 -2.1757
   43MOL0     H 5776  -0.635   1.538  10.346  0.1155  1.9370  0.8159
   43MOL0     H 5777  -0.822   1.557  10.586  2.1368  0.0875  0.2969
   43MOL0     H 5778  -0.798   1.667  10.456  0.3402  0.2660  3.1500
   43MOL0     H 5779  -0.928   1.385  10.420  1.1494 -1.1062 -0.5558
   43MOL0     H 5780  -0.921   1.511  10.294  1.9326 -0.5827  0.1254
   43MOL0     H 5781  -1.049   1.551  10.567  4.3201  3.0664  0.1586
   43MOL0     H 5782  -1.055   1.664  10.430 -0.0620 -0.5203 -0.3708
   43MOL0     H 5783  -1.174   1.392  10.462  0.3100  0.6609 -0.0635
   43MOL0     H 5784  -1.162   1.467  10.300 -1.6606 -0.0326 -0.1864
   43MOL0     H 5785  -1.330   1.653  10.384  0.7681  1.0047 -0.0539
   43MOL0     H 5786  -1.317   1.573  10.544 -0.0815 -1.1464  0.2943
   43MOL0     H 5787  -0.194   1.343  10.442  0.3834 -1.9694 -1.3083
   43MOL0     H 5788   0.030   1.217  10.501  0.9720  0.6487 -0.3655
   43MOL0     H 5789   0.327   1.124  10.847  0.8379  1.1098 -0.7599
   43MOL0     H 5790   0.535   1.014  10.927 -0.1901  0.3124  1.3241
   43MOL0     H 5791   2.047   0.600  10.295  0.5625  0.4308 -0.9120
   43MOL0     H 5792   2.285   0.648  10.363 -0.2439 -0.3339 -1.7326
   43MOL0     H 5793   2.700   0.693  10.614 -1.6325  0.4036 -0.5736
   43MOL0     H 5794   2.950   0.662  10.632  0.0680 -0.1717 -0.3415
   43MOL0     H 5795   3.058   0.358  10.677 -2.0538 -1.1835 -1.5757
   43MOL0     H 5796   3.143   0.289  10.532 -0.7120 -0.0980  0.8632
   43MOL0     H 5797   3.279   0.331  10.730 -3.3130  0.8859  1.0089
   43MOL0     H 5798   3.258   0.495  10.712 -3.9996 -1.6582  0.3956
   43MOL0     H 5799   3.446   0.501  10.561  2.1503 -1.1038 -0.8069
   43MOL0     H 5800   3.351   0.400  10.444  0.0587  0.2465 -0.2944
   43MOL0     H 5801   3.435   0.206  10.568 -0.1211  0.3805 -1.1937
   43MOL0     H 5802   3.547   0.300  10.665  0.2306 -0.1261 -0.2007
   43MOL0     H 5803   3.761   0.237  10.323  0.1368  0.9429 -0.2068
   43MOL0     H 5804   2.941   0.321  10.393 -1.4061 -1.0269  0.9845
   43MOL0     H 5805   2.705   0.336  10.365  0.9698  0.9666 -1.8200
   44MOL0     O 5806   4.193  10.051   1.129 -0.4258 -0.5360  0.3232
   44MOL0     C 5807   4.221   9.936   1.165  0.0802  0.7835  0.6458
   44MOL0     O 5808   4.145   9.826   1.144 -0.6894  1.3661  0.3428
   44MOL0     C 5809   4.021   9.839   1.091  0.0163  0.0953 -0.5789
   44MOL0     C 5810   3.975   9.737   1.005  1.0227  0.4578 -0.1058
   44MOL0     C 5811   3.848   9.749   0.951  0.1567 -0.0046 -0.1322
   44MOL0     C 5812   3.762   9.852   0.977  0.1012 -0.7496 -0.4122
   44MOL0     O 5813   3.641   9.865   0.921  0.5895  0.4755  0.1231
   44MOL0     C 5814   3.601   9.794   0.803  0.2822  0.0220 -0.7069
   44MOL0     C 5815   3.456   9.822   0.768 -0.1793 -0.5521  0.4571
   44MOL0     C 5816   3.433   9.968   0.738  0.5429 -0.5241 -0.0026
   44MOL0     C 5817   3.290   9.993   0.682 -0.3425  0.5855 -0.3317
   44MOL0     C 5818   3.267  10.143   0.657  0.4197 -0.2172  0.0510
   44MOL0     C 5819   3.143  10.180   0.574 -0.4387 -0.2531  0.0067
   44MOL0     C 5820   3.020  10.139   0.651  0.6802  0.7305 -0.7280
   44MOL0     C 5821   2.889  10.181   0.584  0.1935  0.0248 -0.0892
   44MOL0     N 5822   2.761  10.170   0.665 -0.0942  0.0558 -0.9818
   44MOL0     C 5823   2.621  10.171   0.626  0.3493 -0.4011  0.0507
   44MOL0     C 5824   2.556  10.133   0.737  0.1700  0.2467 -0.6398
   44MOL0     C 5825   2.415  10.087   0.746  0.5460  0.5512 -0.4116
   44MOL0     C 5826   2.326  10.145   0.644  0.3013  0.7439 -0.6361
   44MOL0     C 5827   2.179  10.118   0.676  0.5181 -0.1355  0.0676
   44MOL0     C 5828   2.084  10.212   0.594 -0.1711  0.5482 -0.0830
   44MOL0     O 5829   1.954  10.170   0.634  0.1966  0.3783 -0.3620
   44MOL0     C 5830   1.850  10.194   0.545  0.1564  0.0496  0.4065
   44MOL0     C 5831   1.838  10.130   0.420 -0.4400 -0.1963 -0.7144
   44MOL0     C 5832   1.724  10.146   0.343 -0.4051 -0.8922  0.1610
   44MOL0     C 5833   1.729  10.075   0.216 -0.4483 -0.9670  0.0860
   44MOL0     C 5834   1.620  10.241   0.373  0.3724  0.2367 -0.8583
   44MOL0     C 5835   1.493  10.274   0.300 -0.5782  0.7468  0.4259
   44MOL0     O 5836   1.408  10.366   0.353 -0.2859 -0.6142 -0.2779
   44MOL0     C 5837   1.330  10.427   0.264 -0.0840 -0.1422  0.1014
   44MOL0     C 5838   1.353  10.555   0.230  0.1985 -0.6929 -0.5880
   44MOL0     C 5839   1.263  10.624   0.149  0.1060 -0.6460  0.7190
   44MOL0     C 5840   1.147  10.560   0.106  0.1245 -0.5350 -0.4091
   44MOL0     O 5841   1.050  10.628   0.042 -0.0857  0.4577 -0.4140
   44MOL0     C 5842   1.096  10.702  -0.076  0.0588 -0.0638 -0.7332
   44MOL0     C 5843   0.980  10.700  -0.170  0.7409  0.2815  0.5472
   44MOL0     C 5844   1.012  10.805  -0.277 -0.5911  0.6044 -0.0718
   44MOL0     C 5845   0.890  10.837  -0.366  0.3442  0.6370  0.1189
   44MOL0     C 5846   0.861  10.729  -0.466  0.6523  0.0145 -0.2175
   44MOL0     C 5847   0.732  10.772  -0.542  0.1565  0.3499 -0.6247
   44MOL0     C 5848   0.687  10.650  -0.625  0.2418 -0.2421  0.7107
   44MOL0     C 5849   0.623  10.686  -0.765  0.3243  0.7153 -0.0974
   44MOL0    Cl 5850   0.463  10.763  -0.727 -0.2347  0.4173 -0.0681
   44MOL0     C 5851   1.125  10.428   0.138  0.3645  0.4364  0.1337
   44MOL0     C 5852   1.217  10.362   0.222 -0.5718  0.1323 -0.7327
   44MOL0     O 5853   1.479  10.226   0.187 -0.0275  0.1760 -0.6627
   44MOL0     C 5854   1.643  10.301   0.497 -0.8152 -0.3000  0.0807
   44MOL0     C 5855   1.744  10.278   0.587 -0.9017  0.1520 -0.1359
   44MOL0     N 5856   2.648  10.140   0.847 -0.1059  0.0133 -0.5207
   44MOL0     N 5857   2.764  10.151   0.799 -0.1751  0.3563 -0.6012
   44MOL0     C 5858   3.802   9.954   1.057 -0.3673 -0.1479  0.3011
   44MOL0     C 5859   3.929   9.946   1.111  0.3982 -0.0437  0.5435
   44MOL0     C 5860   4.364   9.922   1.202 -0.0012  0.2695 -0.3254
   44MOL0     C 5861   4.422   9.806   1.158 -0.0663  0.1505  0.6171
   44MOL0     C 5862   4.559   9.794   1.162 -0.2586  0.0701  0.2625
   44MOL0     C 5863   4.638   9.896   1.213  0.1268 -0.0948  0.0569
   44MOL0     O 5864   4.770   9.871   1.217  0.6876  0.4715 -0.2958
   44MOL0     C 5865   4.855   9.953   1.287 -0.0158 -1.0391 -0.2187
   44MOL0     C 5866   4.997   9.909   1.290  0.1359 -0.7028 -0.9517
   44MOL0     C 5867   5.076   9.991   1.397  0.0921 -0.3297  0.4800
   44MOL0     C 5868   5.223   9.971   1.379  0.3085 -0.6911 -0.2162
   44MOL0     C 5869   5.303  10.067   1.454 -0.4992 -0.2643  0.2983
   44MOL0     C 5870   5.369  10.159   1.499 -1.0936  0.0992 -0.2976
   44MOL0     C 5871   4.581  10.009   1.257 -0.5059  0.1367 -0.0201
   44MOL0     C 5872   4.439  10.023   1.253 -0.3997 -0.0863 -0.0827
   44MOL0     H 5873   4.033   9.648   0.987  0.4972  0.3377 -1.3784
   44MOL0     H 5874   3.817   9.676   0.877 -2.0421 -0.5087  1.2114
   44MOL0     H 5875   3.664   9.807   0.714 -0.1080 -5.7578 -2.2410
   44MOL0     H 5876   3.609   9.687   0.827  0.7378  0.6438  2.2922
   44MOL0     H 5877   3.434   9.755   0.685  1.0826 -0.9960  0.4613
   44MOL0     H 5878   3.408   9.786   0.859  2.3963 -4.8042  0.4118
   44MOL0     H 5879   3.454  10.030   0.826  1.2414  0.9042 -1.1303
   44MOL0     H 5880   3.501  10.002   0.660 -1.1685 -0.9215 -1.7369
   44MOL0     H 5881   3.282   9.944   0.584  3.6204 -0.1439 -0.4687
   44MOL0     H 5882   3.220   9.947   0.752  0.2770 -0.9504 -0.6656
   44MOL0     H 5883   3.293  10.211   0.739  3.4309  0.2532 -1.1432
   44MOL0     H 5884   3.349  10.173   0.591  0.1389  4.7430  1.5024
   44MOL0     H 5885   3.142  10.289   0.566  0.7516 -0.2932 -0.9867
   44MOL0     H 5886   3.135  10.142   0.472 -2.1018 -0.7442  0.2986
   44MOL0     H 5887   3.032  10.031   0.666  1.8417  0.7900 -1.1115
   44MOL0     H 5888   3.020  10.181   0.752 -2.5254  0.7059 -0.6109
   44MOL0     H 5889   2.873  10.116   0.497  0.9074 -0.6069  0.2392
   44MOL0     H 5890   2.895  10.277   0.531 -1.4323  0.6527  0.7870
   44MOL0     H 5891   2.576  10.178   0.527 -0.5126  0.2169  0.4775
   44MOL0     H 5892   2.420   9.980   0.725 -1.7153  0.0566  1.2145
   44MOL0     H 5893   2.373  10.110   0.844 -2.2578  0.7456 -1.5563
   44MOL0     H 5894   2.351  10.103   0.546 -0.7543  3.6167 -2.2307
   44MOL0     H 5895   2.341  10.252   0.656 -0.8810  1.3116 -3.5024
   44MOL0     H 5896   2.170  10.158   0.778 -3.1676  0.6564 -0.4307
   44MOL0     H 5897   2.150  10.013   0.671 -0.4864  0.0931  0.8490
   44MOL0     H 5898   2.093  10.197   0.486  0.8170 -0.3841  0.1180
   44MOL0     H 5899   2.100  10.318   0.620 -4.5236  1.7806 -1.5980
   44MOL0     H 5900   1.907  10.053   0.389  0.4467  0.6878 -0.9930
   44MOL0     H 5901   1.724  10.141   0.129  0.6131 -0.2089  0.5637
   44MOL0     H 5902   1.834  10.047   0.209  1.0790  3.3354  2.0258
   44MOL0     H 5903   1.661   9.991   0.205  0.7570 -2.2017  1.5694
   44MOL0     H 5904   1.441  10.597   0.278 -1.1332 -0.2237  1.5945
   44MOL0     H 5905   1.276  10.727   0.116 -1.0038 -0.7710 -0.1528
   44MOL0     H 5906   1.119  10.801  -0.036 -0.6153  0.2671 -1.1440
   44MOL0     H 5907   1.185  10.658  -0.122  0.7848  0.4537  0.1337
   44MOL0     H 5908   0.962  10.599  -0.207 -0.3749  1.2431 -1.7389
   44MOL0     H 5909   0.899  10.733  -0.105  1.9996  1.7519  1.4589
   44MOL0     H 5910   1.099  10.762  -0.327  0.5781  1.2881  1.3025
   44MOL0     H 5911   1.045  10.894  -0.223 -0.3110  0.1218  0.5657
   44MOL0     H 5912   0.806  10.852  -0.298  0.1563 -0.6373  0.1906
   44MOL0     H 5913   0.897  10.934  -0.416 -1.1980  0.1194 -1.2153
   44MOL0     H 5914   0.849  10.632  -0.417 -0.3980 -0.4258 -1.2975
   44MOL0     H 5915   0.941  10.717  -0.540  1.6062  1.1980  0.5880
   44MOL0     H 5916   0.658  10.811  -0.471  2.2991 -0.0569  1.9603
   44MOL0     H 5917   0.764  10.849  -0.612  3.6987 -0.4156  0.0015
   44MOL0     H 5918   0.613  10.595  -0.565 -1.3182  1.3125  0.3034
   44MOL0     H 5919   0.776  10.590  -0.644  1.7890  2.2044 -0.2520
   44MOL0     H 5920   0.608  10.598  -0.828 -2.3997  0.5148  0.7144
   44MOL0     H 5921   0.682  10.757  -0.824  1.4640  0.9742  1.3064
   44MOL0     H 5922   1.033  10.385   0.100  0.5484 -0.8496  1.0752
   44MOL0     H 5923   1.195  10.258   0.244 -1.5102  0.7388  1.5427
   44MOL0     H 5924   1.580  10.372   0.552  1.5570 -0.3090  3.0771
   44MOL0     H 5925   1.763  10.320   0.685  1.7375  2.4896 -1.4756
   44MOL0     H 5926   3.742  10.042   1.077  0.1922  0.2163  0.3935
   44MOL0     H 5927   3.953  10.037   1.165 -0.5689 -0.1369  1.1621
   44MOL0     H 5928   4.369   9.719   1.120  2.1141 -1.9634  2.0950
   44MOL0     H 5929   4.611   9.706   1.127  0.6499 -0.4962  2.8688
   44MOL0     H 5930   4.848  10.054   1.245  5.4501 -0.4434 -0.3882
   44MOL0     H 5931   4.821   9.958   1.391  0.6470  0.1007 -0.0369
   44MOL0     H 5932   5.034   9.911   1.188  0.5086  0.4601 -0.8113
   44MOL0     H 5933   4.984   9.806   1.324  1.4565 -0.5792  0.0083
   44MOL0     H 5934   5.057   9.971   1.503  0.6239 -2.2500  0.2572
   44MOL0     H 5935   5.046  10.096   1.392  1.7192  0.4375  3.8055
   44MOL0     H 5936   5.257   9.985   1.276  1.4707  2.8076  0.4947
   44MOL0     H 5937   5.257   9.869   1.397 -0.0761 -0.6440  0.8570
   44MOL0     H 5938   5.440  10.227   1.541  0.9208 -2.2868  0.3885
   44MOL0     H 5939   4.632  10.087   1.313 -1.7079 -0.9572  2.8285
   44MOL0     H 5940   4.400  10.116   1.293  0.1025  0.7613 -1.4877
   45MOL0     O 5941   3.720   1.744   7.148 -0.0839  0.4144  0.1900
   45MOL0     C 5942   3.709   1.828   7.053  0.1650  0.9166  0.6209
   45MOL0     O 5943   3.596   1.888   7.024  0.2314 -0.1003 -0.1507
   45MOL0     C 5944   3.483   1.815   7.031  0.3798  0.0907 -0.0953
   45MOL0     C 5945   3.395   1.827   7.140 -0.1276 -0.5537 -0.4967
   45MOL0     C 5946   3.281   1.754   7.153  0.1171 -0.0116  0.0430
   45MOL0     C 5947   3.244   1.673   7.049  0.0485  0.6193 -0.9278
   45MOL0     O 5948   3.128   1.604   7.048 -0.2729 -0.1253 -0.5825
   45MOL0     C 5949   3.009   1.679   7.077  1.1301 -0.5021  0.7301
   45MOL0     C 5950   2.903   1.577   7.118 -0.2630  0.5854 -0.2753
   45MOL0     C 5951   2.768   1.606   7.069 -0.2955 -0.4366  0.4783
   45MOL0     C 5952   2.692   1.478   7.079 -0.2214  0.9800 -0.3815
   45MOL0     C 5953   2.580   1.484   6.974 -0.3304 -0.1884 -0.4083
   45MOL0     C 5954   2.480   1.367   6.974 -0.1927 -0.5753  0.2965
   45MOL0     C 5955   2.387   1.375   6.850  0.4477  0.3391 -0.3088
   45MOL0     C 5956   2.274   1.277   6.862  0.4195  0.0061 -0.4324
   45MOL0     N 5957   2.163   1.309   6.776  0.8253  0.3232 -0.0564
   45MOL0     C 5958   2.076   1.410   6.781 -0.4035 -0.2688  0.1778
   45MOL0     C 5959   1.997   1.399   6.669  0.6705  1.2259 -0.3610
   45MOL0     C 5960   1.880   1.478   6.645  0.0919  0.8761  0.7558
   45MOL0     C 5961   1.771   1.435   6.737 -0.6669 -0.3124  0.0524
   45MOL0     C 5962   1.630   1.498   6.709 -0.4350 -0.3444 -0.8040
   45MOL0     C 5963   1.526   1.396   6.647 -0.3209 -0.0379  0.1274
   45MOL0     O 5964   1.410   1.479   6.626  0.0798 -0.2279  0.1316
   45MOL0     C 5965   1.291   1.441   6.581 -0.0283 -0.0558  0.8518
   45MOL0     C 5966   1.268   1.303   6.564  0.1517  0.7647 -1.2197
   45MOL0     C 5967   1.170   1.257   6.478 -0.0830  0.5986  0.4520
   45MOL0     C 5968   1.177   1.107   6.467  0.2165  0.2301 -0.3459
   45MOL0     C 5969   1.071   1.346   6.430 -0.2283 -0.6314  0.3654
   45MOL0     C 5970   0.958   1.310   6.345  0.0616 -0.2747 -0.1227
   45MOL0     O 5971   0.855   1.393   6.333  0.5662 -0.3701  0.4575
   45MOL0     C 5972   0.745   1.348   6.264  0.2776 -1.2693  0.2350
   45MOL0     C 5973   0.659   1.252   6.312  0.0878 -0.3748 -0.0260
   45MOL0     C 5974   0.546   1.205   6.237  0.1552 -0.4234 -0.1575
   45MOL0     C 5975   0.522   1.263   6.116 -0.2080 -0.2004  0.3777
   45MOL0     O 5976   0.398   1.238   6.051  0.0226 -0.6504 -0.5518
   45MOL0     C 5977   0.289   1.308   6.109  0.2077  0.6803  0.3350
   45MOL0     C 5978   0.166   1.294   6.024  0.0223  0.7824  0.2945
   45MOL0     C 5979   0.069   1.192   6.085  0.0193  0.0898 -0.3259
   45MOL0     C 5980  -0.026   1.142   5.976  0.0299 -0.1071  0.4155
   45MOL0     C 5981  -0.088   1.006   6.007 -0.2897 -0.5927 -0.2554
   45MOL0     C 5982  -0.220   0.996   5.924 -0.3349  0.0892 -0.6715
   45MOL0     C 5983  -0.264   0.856   5.882 -0.6686  0.3528 -0.0979
   45MOL0     C 5984  -0.301   0.765   6.004 -0.1785  1.4546  0.0703
   45MOL0    Cl 5985  -0.452   0.817   6.088 -0.1157 -0.0775 -0.1786
   45MOL0     C 5986   0.604   1.360   6.068  0.7018 -0.1022  0.7881
   45MOL0     C 5987   0.717   1.405   6.139  0.5380 -0.1811  0.5543
   45MOL0     O 5988   0.963   1.193   6.309 -0.5435  0.5057  0.5811
   45MOL0     C 5989   1.086   1.483   6.461 -0.1417  0.0838  0.3055
   45MOL0     C 5990   1.199   1.530   6.530  0.4576 -0.2907  0.0602
   45MOL0     N 5991   2.044   1.288   6.598  0.1700  0.0792 -0.5454
   45MOL0     N 5992   2.132   1.228   6.671  0.0244 -0.2957 -0.6261
   45MOL0     C 5993   3.318   1.672   6.927 -0.4716 -0.1673 -0.8079
   45MOL0     C 5994   3.440   1.731   6.923 -0.1234  0.1318 -0.2269
   45MOL0     C 5995   3.829   1.884   6.982 -0.1280  0.4230 -0.0434
   45MOL0     C 5996   3.962   1.870   7.028  0.7172  0.2213  0.1844
   45MOL0     C 5997   4.069   1.936   6.960  0.1728  0.2648  0.5410
   45MOL0     C 5998   4.045   2.009   6.845  0.7635  0.0612 -0.4377
   45MOL0     O 5999   4.140   2.069   6.763  0.5736  0.5648  0.3745
   45MOL0     C 6000   4.275   2.035   6.796 -0.0276  0.2609 -0.1628
   45MOL0     C 6001   4.367   2.106   6.691  0.0584 -0.4812 -0.2837
   45MOL0     C 6002   4.515   2.072   6.716  0.0872 -0.6699  0.5128
   45MOL0     C 6003   4.609   2.168   6.651 -0.3173  0.6657 -0.1847
   45MOL0     C 6004   4.748   2.120   6.630 -0.0372  1.0984  0.0730
   45MOL0     C 6005   4.866   2.101   6.607  0.7837  0.0387 -0.4309
   45MOL0     C 6006   3.913   2.024   6.803 -0.5057  0.0212 -0.5657
   45MOL0     C 6007   3.807   1.965   6.863  0.4084 -0.0109 -0.0889
   45MOL0     H 6008   3.415   1.907   7.210 -1.1845  1.0443 -1.9484
   45MOL0     H 6009   3.220   1.761   7.243 -1.3458 -0.6068 -0.8755
   45MOL0     H 6010   3.013   1.753   7.157 -1.6345  0.5600  0.0232
   45MOL0     H 6011   2.986   1.731   6.983 -3.4682 -2.7112  0.3273
   45MOL0     H 6012   2.930   1.490   7.057 -2.4584  1.7494 -3.1486
   45MOL0     H 6013   2.917   1.553   7.223  0.2680 -2.4344 -0.9393
   45MOL0     H 6014   2.718   1.680   7.132 -1.1358  0.2947 -1.0056
   45MOL0     H 6015   2.770   1.643   6.967 -0.6172 -1.3439  0.1247
   45MOL0     H 6016   2.754   1.390   7.062 -1.2005  0.6356 -2.4333
   45MOL0     H 6017   2.658   1.454   7.181  2.0129 -2.6123 -0.2949
   45MOL0     H 6018   2.526   1.579   6.967  1.1006  0.8205  1.1818
   45MOL0     H 6019   2.641   1.486   6.883  1.3096 -0.3721  0.6310
   45MOL0     H 6020   2.536   1.273   6.979 -0.0501 -0.7418 -2.7999
   45MOL0     H 6021   2.413   1.372   7.061 -3.3922  2.5357 -2.0337
   45MOL0     H 6022   2.348   1.477   6.848  1.2061  0.6673  0.6698
   45MOL0     H 6023   2.460   1.374   6.768  5.6767 -0.9870  3.7623
   45MOL0     H 6024   2.242   1.282   6.967 -2.8881 -2.4813 -1.1659
   45MOL0     H 6025   2.298   1.173   6.840 -0.6662 -0.2532 -0.4687
   45MOL0     H 6026   2.082   1.481   6.863 -0.8533  2.9769 -2.4091
   45MOL0     H 6027   1.900   1.585   6.652  3.6212  0.3142  1.1204
   45MOL0     H 6028   1.838   1.448   6.548  1.7052 -4.0707  1.2892
   45MOL0     H 6029   1.798   1.471   6.837  0.7393 -1.2466  0.0251
   45MOL0     H 6030   1.756   1.327   6.744  0.4932 -0.5714 -1.0932
   45MOL0     H 6031   1.641   1.581   6.640 -0.8116 -0.1504 -0.6340
   45MOL0     H 6032   1.592   1.532   6.806  1.9751 -1.3806  0.5971
   45MOL0     H 6033   1.500   1.315   6.715  2.9566 -1.7469 -0.4400
   45MOL0     H 6034   1.566   1.349   6.557 -0.2354 -1.3427  0.8257
   45MOL0     H 6035   1.322   1.224   6.617 -1.4939 -0.5604 -1.4441
   45MOL0     H 6036   1.258   1.063   6.526 -0.1688 -1.6677 -1.1623
   45MOL0     H 6037   1.083   1.070   6.509 -0.7214  1.9870 -0.7574
   45MOL0     H 6038   1.185   1.077   6.363  1.8522  1.0047 -0.4823
   45MOL0     H 6039   0.668   1.204   6.410  0.4203 -1.4170 -0.5527
   45MOL0     H 6040   0.476   1.137   6.283  0.7415 -0.9976 -0.0943
   45MOL0     H 6041   0.277   1.279   6.214 -2.2459 -1.4140 -0.4508
   45MOL0     H 6042   0.305   1.416   6.093 -0.0714  0.5846 -0.6632
   45MOL0     H 6043   0.115   1.388   5.999 -2.0086  0.2318  2.0610
   45MOL0     H 6044   0.200   1.257   5.927 -0.8984 -0.7391  0.5140
   45MOL0     H 6045   0.019   1.234   6.174 -0.2657 -0.2051 -0.3463
   45MOL0     H 6046   0.119   1.110   6.136 -0.3622  1.9831  3.4652
   45MOL0     H 6047  -0.107   1.212   5.957  0.9025  0.6552 -0.5631
   45MOL0     H 6048   0.037   1.130   5.888 -1.6029 -2.8597 -0.4900
   45MOL0     H 6049  -0.104   1.010   6.115 -1.5838  1.7006 -0.4635
   45MOL0     H 6050  -0.024   0.922   5.977 -0.2260 -0.3129 -0.9246
   45MOL0     H 6051  -0.294   1.040   5.991  2.4083  4.3648 -0.0737
   45MOL0     H 6052  -0.218   1.052   5.830 -0.6457 -0.2235 -0.8675
   45MOL0     H 6053  -0.190   0.812   5.814  0.5961  0.8691  0.9009
   45MOL0     H 6054  -0.356   0.875   5.827  0.3650  2.2314 -1.2625
   45MOL0     H 6055  -0.224   0.777   6.081  2.0675 -0.2202 -1.7901
   45MOL0     H 6056  -0.321   0.666   5.964 -5.5919  1.1903  2.4905
   45MOL0     H 6057   0.576   1.400   5.971  0.6540 -0.9319  0.4518
   45MOL0     H 6058   0.779   1.479   6.090 -1.6636 -0.1976 -2.5870
   45MOL0     H 6059   1.018   1.555   6.415  1.7221  0.0770 -2.8286
   45MOL0     H 6060   1.214   1.635   6.553 -0.6907 -0.6613  3.0267
   45MOL0     H 6061   3.272   1.620   6.843 -0.5739  0.5231 -1.1848
   45MOL0     H 6062   3.492   1.729   6.828  0.0102  3.0652 -0.3147
   45MOL0     H 6063   3.974   1.807   7.115  0.0676  0.8371  0.7290
   45MOL0     H 6064   4.165   1.919   7.007  0.3965 -2.7200 -0.7875
   45MOL0     H 6065   4.297   2.058   6.901 -3.0395  1.4941  0.2837
   45MOL0     H 6066   4.293   1.927   6.797  1.4694  0.4939 -0.0030
   45MOL0     H 6067   4.341   2.210   6.712 -2.6351 -1.1032 -0.2598
   45MOL0     H 6068   4.343   2.091   6.586 -2.2710  3.7168 -0.5923
   45MOL0     H 6069   4.537   1.976   6.666 -1.8696  0.4260 -2.7789
   45MOL0     H 6070   4.533   2.069   6.823  0.2579 -3.4610  0.4917
   45MOL0     H 6071   4.623   2.255   6.716  0.3264 -0.5178  1.3162
   45MOL0     H 6072   4.568   2.210   6.558 -0.2236  1.7863  0.2558
   45MOL0     H 6073   4.966   2.074   6.579 -0.4813 -3.1565 -2.4361
   45MOL0     H 6074   3.890   2.083   6.715 -1.4360 -1.7162 -1.5552
   45MOL0     H 6075   3.704   1.979   6.832  0.2393  0.6073  0.7202
   46MOL0     O 6076   0.316   7.312   3.146  0.2969  0.2905 -0.0639
   46MOL0     C 6077   0.356   7.195   3.128 -0.6566 -0.0779  0.1074
   46MOL0     O 6078   0.299   7.105   3.038 -0.4365 -0.8301  0.0610
   46MOL0     C 6079   0.172   7.128   2.991  0.3498 -0.3154  0.0457
   46MOL0     C 6080   0.155   7.128   2.852  0.0985 -0.7755 -0.8045
   46MOL0     C 6081   0.025   7.131   2.792 -1.2003 -0.5880  0.0867
   46MOL0     C 6082  -0.083   7.131   2.878  0.6269  0.1920  0.2123
   46MOL0     O 6083  -0.210   7.121   2.812 -0.6387 -0.0626  0.2940
   46MOL0     C 6084  -0.331   7.157   2.879 -0.4281 -0.2709  0.4784
   46MOL0     C 6085  -0.453   7.113   2.795 -0.5565 -0.2309  0.5076
   46MOL0     C 6086  -0.581   7.131   2.871 -0.2217  0.2207 -0.5912
   46MOL0     C 6087  -0.700   7.115   2.776  0.3970  0.0284  0.0460
   46MOL0     C 6088  -0.834   7.150   2.849 -0.8280 -0.3093 -0.5125
   46MOL0     C 6089  -0.944   7.122   2.745 -0.3621 -0.5253 -0.6559
   46MOL0     C 6090  -0.965   7.239   2.646 -0.4020  0.1279 -0.2649
   46MOL0     C 6091  -1.082   7.227   2.548  0.7877  0.3339 -0.3080
   46MOL0     N 6092  -1.224   7.192   2.599  0.4264  0.0666  0.1670
   46MOL0     C 6093  -1.270   7.084   2.672  1.1311  0.3698 -0.4557
   46MOL0     C 6094  -1.405   7.110   2.692 -0.0122  0.3309  0.4984
   46MOL0     C 6095  -1.505   7.005   2.744 -0.5671  0.5781  0.2760
   46MOL0     C 6096  -1.640   7.059   2.795  0.1190 -0.2042  0.0416
   46MOL0     C 6097  -1.756   7.025   2.710 -0.0562 -1.1804 -0.2336
   46MOL0     C 6098  -1.791   6.879   2.691 -0.2964 -0.2397 -0.5192
   46MOL0     O 6099  -1.835   6.820   2.816  0.6051 -0.0615 -0.0780
   46MOL0     C 6100  -1.962   6.818   2.857  0.1245  0.2955 -0.1359
   46MOL0     C 6101  -2.075   6.882   2.797 -0.2143  0.3344 -0.2920
   46MOL0     C 6102  -2.203   6.864   2.845  0.2796 -0.0631  0.2584
   46MOL0     C 6103  -2.312   6.944   2.764  0.4786  0.0334  0.2009
   46MOL0     C 6104  -2.230   6.778   2.962  0.9647 -0.4894  0.1998
   46MOL0     C 6105  -2.362   6.756   3.010  0.4012 -0.3538 -0.5546
   46MOL0     O 6106  -2.466   6.747   2.921  0.5839 -0.2448 -0.9588
   46MOL0     C 6107  -2.592   6.729   2.978  0.0614  0.0416 -0.2236
   46MOL0     C 6108  -2.666   6.613   2.944 -0.7734 -0.2754  0.1812
   46MOL0     C 6109  -2.799   6.599   2.996  0.6670  0.4690 -0.2130
   46MOL0     C 6110  -2.856   6.688   3.082 -0.1717 -0.2790 -0.0674
   46MOL0     O 6111  -2.984   6.662   3.128 -0.0052 -0.1090 -0.1131
   46MOL0     C 6112  -2.987   6.651   3.274 -0.2317  0.4455 -1.1512
   46MOL0     C 6113  -3.061   6.767   3.331 -0.1094 -0.1952  0.1204
   46MOL0     C 6114  -3.193   6.791   3.254 -0.6996  0.4799 -0.2218
   46MOL0     C 6115  -3.267   6.660   3.224 -0.6837  0.1100 -0.0787
   46MOL0     C 6116  -3.402   6.685   3.156  0.3551 -0.5178 -0.2698
   46MOL0     C 6117  -3.513   6.595   3.207  0.3452  0.2374 -0.5204
   46MOL0     C 6118  -3.644   6.615   3.136 -0.3148 -0.4477 -0.4449
   46MOL0     C 6119  -3.722   6.483   3.144  0.4607 -0.0767  1.2462
   46MOL0    Cl 6120  -3.892   6.524   3.146  0.0191  0.0362 -0.1626
   46MOL0     C 6121  -2.784   6.811   3.106 -0.1774  0.2833 -0.2269
   46MOL0     C 6122  -2.654   6.831   3.058  1.1161 -0.2682 -0.2154
   46MOL0     O 6123  -2.366   6.734   3.136 -0.0135  0.2602  0.3330
   46MOL0     C 6124  -2.121   6.711   3.012 -0.9336  1.1658  0.2814
   46MOL0     C 6125  -1.995   6.730   2.970  0.6324  0.0460  0.6332
   46MOL0     N 6126  -1.437   7.226   2.628  0.0711  0.0170 -0.1541
   46MOL0     N 6127  -1.327   7.277   2.573 -0.0240  0.1468 -0.5050
   46MOL0     C 6128  -0.066   7.120   3.016  0.2670  0.8323 -0.8975
   46MOL0     C 6129   0.061   7.120   3.074 -0.6127  0.3690 -0.4693
   46MOL0     C 6130   0.450   7.145   3.226 -0.2032 -0.1741  0.5289
   46MOL0     C 6131   0.511   7.228   3.323 -0.0254 -0.7855 -0.2428
   46MOL0     C 6132   0.607   7.184   3.415 -0.7860  0.2007  0.0810
   46MOL0     C 6133   0.651   7.051   3.408  0.1740 -0.2766 -0.5856
   46MOL0     O 6134   0.743   7.009   3.498  0.0157  0.5527  0.1663
   46MOL0     C 6135   0.852   7.095   3.540  0.1564 -0.0561 -0.3763
   46MOL0     C 6136   0.966   7.002   3.570 -0.2250 -0.3834  0.6964
   46MOL0     C 6137   1.099   7.082   3.607 -0.3023 -0.2635 -0.0090
   46MOL0     C 6138   1.204   6.983   3.645  0.0011  0.1122 -0.7452
   46MOL0     C 6139   1.305   7.049   3.729  0.1523  0.2488  0.2590
   46MOL0     C 6140   1.361   7.107   3.820 -0.0386  0.0019 -0.6277
   46MOL0     C 6141   0.589   6.964   3.320 -0.4252 -0.1124 -1.2757
   46MOL0     C 6142   0.490   7.009   3.230 -0.3183 -0.8485 -0.2375
   46MOL0     H 6143   0.243   7.133   2.789  2.3281  4.3740  2.0858
   46MOL0     H 6144   0.011   7.150   2.686  0.1918  0.0946 -0.0084
   46MOL0     H 6145  -0.331   7.122   2.983  2.3675  0.1606  0.7058
   46MOL0     H 6146  -0.337   7.266   2.887  0.0442 -0.1473 -0.7884
   46MOL0     H 6147  -0.458   7.171   2.703 -1.7143 -1.5160 -0.2749
   46MOL0     H 6148  -0.457   7.006   2.773 -3.7496 -0.2014  0.4157
   46MOL0     H 6149  -0.576   7.063   2.957 -0.8010  1.1901  0.2327
   46MOL0     H 6150  -0.580   7.237   2.899 -4.0218  0.7087 -1.7067
   46MOL0     H 6151  -0.697   7.181   2.689 -0.9005  3.7704  2.6456
   46MOL0     H 6152  -0.691   7.012   2.738  2.9067 -0.7207  2.3473
   46MOL0     H 6153  -0.856   7.080   2.930 -1.3655  0.7727  0.3047
   46MOL0     H 6154  -0.834   7.250   2.893  2.6271 -0.2939 -0.2286
   46MOL0     H 6155  -0.915   7.035   2.685  1.1768 -1.1071  0.8376
   46MOL0     H 6156  -1.041   7.092   2.786 -0.2057  0.2672  0.3266
   46MOL0     H 6157  -0.964   7.331   2.705  2.8416  0.4366 -0.6347
   46MOL0     H 6158  -0.879   7.249   2.579 -0.1967 -0.0927 -0.0310
   46MOL0     H 6159  -1.069   7.147   2.475 -0.3244  1.9690 -2.4073
   46MOL0     H 6160  -1.104   7.321   2.497  0.1234  1.2452  1.5399
   46MOL0     H 6161  -1.207   7.003   2.708 -1.4178 -0.8825  1.5070
   46MOL0     H 6162  -1.522   6.951   2.650 -0.2293  2.0488 -0.6717
   46MOL0     H 6163  -1.452   6.941   2.815 -1.4393 -1.2140 -0.6084
   46MOL0     H 6164  -1.638   7.168   2.805  2.5973 -0.3611  2.1450
   46MOL0     H 6165  -1.655   7.010   2.892 -1.2316  1.6174  0.8152
   46MOL0     H 6166  -1.742   7.082   2.617 -0.7489  2.2958  1.6107
   46MOL0     H 6167  -1.840   7.079   2.755  0.2233 -0.1518 -0.9001
   46MOL0     H 6168  -1.707   6.821   2.653  2.0628  0.4654  3.0370
   46MOL0     H 6169  -1.869   6.867   2.615 -0.9316  3.6528 -0.7062
   46MOL0     H 6170  -2.047   6.941   2.711 -0.2061 -2.6579 -2.4972
   46MOL0     H 6171  -2.358   7.013   2.835 -0.0860 -2.4573  2.4191
   46MOL0     H 6172  -2.275   7.002   2.679  2.8638  0.3089  1.3449
   46MOL0     H 6173  -2.387   6.875   2.724  0.5930 -0.4553  0.7982
   46MOL0     H 6174  -2.618   6.542   2.877 -1.7521 -1.6742  0.8990
   46MOL0     H 6175  -2.852   6.511   2.963 -2.4483  1.8326  0.7626
   46MOL0     H 6176  -3.032   6.560   3.315  1.7499 -0.0400  0.0697
   46MOL0     H 6177  -2.888   6.660   3.319  0.2286  2.0176 -2.3661
   46MOL0     H 6178  -3.076   6.754   3.438 -0.6214  3.6398  0.6739
   46MOL0     H 6179  -3.002   6.859   3.323  1.8591 -1.5467 -2.4819
   46MOL0     H 6180  -3.176   6.838   3.157 -0.3093 -0.7646 -0.7819
   46MOL0     H 6181  -3.259   6.854   3.315 -0.9635 -0.2959  0.3084
   46MOL0     H 6182  -3.205   6.596   3.162  1.7964  1.9608  0.3358
   46MOL0     H 6183  -3.286   6.616   3.323  0.2609  1.5727  0.8013
   46MOL0     H 6184  -3.397   6.677   3.047  0.5144 -0.5274 -0.2620
   46MOL0     H 6185  -3.446   6.782   3.184  0.2622 -0.3653 -0.9218
   46MOL0     H 6186  -3.481   6.492   3.195  1.4079  0.3532  1.0799
   46MOL0     H 6187  -3.531   6.613   3.314  0.1004  1.6968 -0.7867
   46MOL0     H 6188  -3.628   6.639   3.030  0.4423 -2.7590 -0.9010
   46MOL0     H 6189  -3.686   6.705   3.182  2.1212  0.5204  0.0330
   46MOL0     H 6190  -3.707   6.415   3.228 -1.7409  0.4311  2.1340
   46MOL0     H 6191  -3.705   6.426   3.051 -0.7774  2.5172 -0.6987
   46MOL0     H 6192  -2.842   6.886   3.158  0.0012 -0.1780  0.6640
   46MOL0     H 6193  -2.606   6.928   3.067 -2.0490  1.5949 -1.6072
   46MOL0     H 6194  -2.139   6.654   3.103  1.6001  0.9037  0.6762
   46MOL0     H 6195  -1.913   6.682   3.023  1.4150 -1.1914 -1.5528
   46MOL0     H 6196  -0.150   7.109   3.084  0.0047  3.0804 -0.7849
   46MOL0     H 6197   0.071   7.092   3.179 -1.9570 -1.1895 -0.6956
   46MOL0     H 6198   0.484   7.333   3.326 -0.2302 -0.8328 -0.3645
   46MOL0     H 6199   0.643   7.252   3.492  0.3213  0.1694 -0.3869
   46MOL0     H 6200   0.869   7.178   3.471 -1.3407  1.3584  0.8827
   46MOL0     H 6201   0.818   7.133   3.637 -0.1685  1.4872 -1.0612
   46MOL0     H 6202   0.991   6.944   3.480 -0.0691  0.5141  0.1489
   46MOL0     H 6203   0.937   6.934   3.651 -0.6964 -1.5353 -0.3895
   46MOL0     H 6204   1.091   7.154   3.689  5.7257 -0.6657  1.4014
   46MOL0     H 6205   1.131   7.127   3.512 -0.9442 -2.3728 -1.2924
   46MOL0     H 6206   1.271   6.948   3.567  2.4099  0.3523  1.1036
   46MOL0     H 6207   1.165   6.892   3.692 -0.9812  0.7210 -0.3340
   46MOL0     H 6208   1.409   7.156   3.902 -2.5545  4.1766 -1.3572
   46MOL0     H 6209   0.631   6.865   3.304 -0.5883 -0.6169  1.0984
   46MOL0     H 6210   0.453   6.946   3.149 -0.0884 -0.5167 -0.6064
   47MOL0     O 6211   3.468   1.154   3.275  0.5409 -0.2222  0.2851
   47MOL0     C 6212   3.555   1.135   3.352 -0.1626  0.2846 -0.1522
   47MOL0     O 6213   3.542   1.119   3.493  0.2033 -0.1683  0.4918
   47MOL0     C 6214   3.416   1.135   3.549 -0.2250  1.1854  0.5544
   47MOL0     C 6215   3.303   1.059   3.503 -0.0218 -0.2257 -0.8988
   47MOL0     C 6216   3.180   1.064   3.568 -0.2506 -0.0510 -1.0126
   47MOL0     C 6217   3.162   1.158   3.675  0.0753 -0.3974 -0.1340
   47MOL0     O 6218   3.047   1.177   3.744  0.5930 -0.5874  0.1037
   47MOL0     C 6219   2.914   1.162   3.678  0.4924  0.0351  0.2358
   47MOL0     C 6220   2.799   1.217   3.761 -0.0793  0.3621 -0.5930
   47MOL0     C 6221   2.752   1.125   3.872  0.0254  0.5638 -0.7089
   47MOL0     C 6222   2.627   1.178   3.949 -0.6377  0.3512  0.3453
   47MOL0     C 6223   2.574   1.060   4.037 -0.6486 -0.0256  0.4770
   47MOL0     C 6224   2.464   1.100   4.130  0.0864  0.0637 -0.1387
   47MOL0     C 6225   2.367   0.989   4.177  0.2946  0.7243  0.1727
   47MOL0     C 6226   2.263   1.032   4.277  0.6577  0.4445 -0.4550
   47MOL0     N 6227   2.174   1.136   4.230 -0.7693 -0.3288 -0.5838
   47MOL0     C 6228   2.144   1.162   4.096 -1.1845  0.4696  0.0393
   47MOL0     C 6229   2.065   1.268   4.103  0.6470  0.0086  0.5513
   47MOL0     C 6230   2.005   1.343   3.987 -0.0716 -0.2538 -0.6068
   47MOL0     C 6231   1.913   1.259   3.916 -0.3136 -0.4504  0.3265
   47MOL0     C 6232   1.780   1.243   3.982  0.2255  0.3005  0.7415
   47MOL0     C 6233   1.694   1.372   4.000  0.8570 -0.6284  0.1380
   47MOL0     O 6234   1.552   1.347   3.997 -0.5219 -0.6566 -0.2771
   47MOL0     C 6235   1.465   1.457   4.005  0.3290  0.0183 -0.7045
   47MOL0     C 6236   1.506   1.578   4.073  1.0823 -0.0944  0.1997
   47MOL0     C 6237   1.423   1.691   4.058  0.1378  0.0938 -0.0232
   47MOL0     C 6238   1.465   1.809   4.142 -0.0187 -0.5403  0.5966
   47MOL0     C 6239   1.300   1.681   3.989  0.0333 -1.2266 -0.5163
   47MOL0     C 6240   1.215   1.795   3.952  0.7064  0.9564 -0.5860
   47MOL0     O 6241   1.077   1.766   3.930  0.6421 -0.5893  0.0402
   47MOL0     C 6242   0.986   1.864   3.947  0.0635  0.2536  0.2152
   47MOL0     C 6243   0.957   1.967   3.855  0.1449 -0.3354  0.3435
   47MOL0     C 6244   0.861   2.058   3.891 -0.3556 -0.2648 -0.1773
   47MOL0     C 6245   0.788   2.051   4.010 -0.5027 -0.3491  0.0137
   47MOL0     O 6246   0.710   2.148   4.050  0.3351 -0.2874 -0.0148
   47MOL0     C 6247   0.784   2.264   4.083  0.4097 -0.4501  1.1117
   47MOL0     C 6248   0.744   2.370   3.971  0.6554 -0.3147  0.3898
   47MOL0     C 6249   0.802   2.514   3.994  0.5863  0.0107 -0.7291
   47MOL0     C 6250   0.955   2.512   3.966  0.9933  0.6599  0.3934
   47MOL0     C 6251   1.009   2.657   3.960  0.0870 -0.0399 -0.5012
   47MOL0     C 6252   1.014   2.722   4.099  0.1954  0.3207 -0.1439
   47MOL0     C 6253   1.111   2.837   4.082 -0.4572 -1.4498  0.5477
   47MOL0     C 6254   1.125   2.920   4.211  0.0266  0.0474 -0.3057
   47MOL0    Cl 6255   1.173   2.812   4.352 -0.3993 -0.4120 -0.2930
   47MOL0     C 6256   0.807   1.946   4.098 -1.4093 -0.4609 -0.1700
   47MOL0     C 6257   0.901   1.850   4.055  0.4019  1.1393 -0.5739
   47MOL0     O 6258   1.266   1.907   3.929  0.5860  0.5749  0.0791
   47MOL0     C 6259   1.256   1.556   3.935  0.7951 -0.4850 -0.1586
   47MOL0     C 6260   1.341   1.450   3.948 -0.7444 -0.2892  0.2802
   47MOL0     N 6261   2.051   1.305   4.237  0.0935 -0.2191  0.2229
   47MOL0     N 6262   2.114   1.220   4.312  0.1664  1.0483  0.0477
   47MOL0     C 6263   3.279   1.222   3.723 -0.7111 -0.3616  0.0585
   47MOL0     C 6264   3.400   1.213   3.655  0.2397  0.3741 -0.1265
   47MOL0     C 6265   3.690   1.106   3.294  0.6202 -0.3384 -0.5220
   47MOL0     C 6266   3.797   1.075   3.378  0.3821 -0.4332  0.2204
   47MOL0     C 6267   3.931   1.058   3.325  0.5730  0.1306 -0.6965
   47MOL0     C 6268   3.956   1.080   3.190 -0.0435  1.0091 -0.1037
   47MOL0     O 6269   4.080   1.061   3.133 -0.4667  0.3206  0.9872
   47MOL0     C 6270   4.191   1.014   3.212 -0.5388  0.6778 -0.0790
   47MOL0     C 6271   4.320   1.046   3.151 -0.4949  0.6208 -0.5644
   47MOL0     C 6272   4.432   1.023   3.256 -0.6308 -1.1473 -0.5306
   47MOL0     C 6273   4.573   1.056   3.212 -0.3417  0.5350 -0.3468
   47MOL0     C 6274   4.617   0.982   3.088  0.7611 -0.0939  0.4727
   47MOL0     C 6275   4.673   0.921   2.998  0.6235 -0.6531 -0.7674
   47MOL0     C 6276   3.845   1.106   3.106  0.3509 -0.5883  0.0403
   47MOL0     C 6277   3.721   1.128   3.159  0.3486 -0.1720  0.7089
   47MOL0     H 6278   3.303   0.985   3.423  0.0364  0.0297 -1.1366
   47MOL0     H 6279   3.098   0.995   3.550 -1.3344  1.5661 -2.5517
   47MOL0     H 6280   2.916   1.229   3.591 -2.8764  0.7658  0.6106
   47MOL0     H 6281   2.899   1.066   3.627  3.0424 -0.4733  0.3098
   47MOL0     H 6282   2.827   1.318   3.792  1.1351 -0.2284  0.3269
   47MOL0     H 6283   2.709   1.231   3.701 -2.6819 -1.1668  2.6050
   47MOL0     H 6284   2.719   1.028   3.832 -3.5309  1.4102 -0.1805
   47MOL0     H 6285   2.828   1.104   3.947  0.4435  1.6076 -0.8279
   47MOL0     H 6286   2.651   1.263   4.014 -1.4113 -0.0766  1.2121
   47MOL0     H 6287   2.557   1.218   3.876 -1.1716 -0.0599  0.6274
   47MOL0     H 6288   2.547   0.978   3.970  2.1551 -0.3844 -0.3228
   47MOL0     H 6289   2.661   1.025   4.093  0.9303 -1.9761 -2.8616
   47MOL0     H 6290   2.505   1.145   4.221 -2.1808  0.5388  0.7201
   47MOL0     H 6291   2.406   1.174   4.073 -0.1444 -2.0208 -2.8406
   47MOL0     H 6292   2.326   0.940   4.089  0.0872  2.1659 -0.5489
   47MOL0     H 6293   2.427   0.911   4.226  0.6974  0.3313 -0.9253
   47MOL0     H 6294   2.302   1.064   4.374  0.5728 -2.4829  0.6168
   47MOL0     H 6295   2.216   0.936   4.296  3.3495 -1.6202 -3.2208
   47MOL0     H 6296   2.185   1.119   4.005 -1.0373  0.3195  0.1755
   47MOL0     H 6297   1.970   1.439   4.025  2.2148 -0.5222  2.6776
   47MOL0     H 6298   2.087   1.368   3.920 -1.5103  0.2745 -2.2192
   47MOL0     H 6299   1.963   1.166   3.888 -0.1890  0.1003 -1.4236
   47MOL0     H 6300   1.901   1.297   3.814 -2.6845 -2.8249 -0.4148
   47MOL0     H 6301   1.786   1.193   4.079  1.0069 -0.5536  0.2662
   47MOL0     H 6302   1.721   1.177   3.919  0.8013  0.3074  0.1889
   47MOL0     H 6303   1.707   1.451   3.925 -0.0549 -0.4212  0.1872
   47MOL0     H 6304   1.723   1.414   4.097 -0.2348  0.9823 -0.2027
   47MOL0     H 6305   1.598   1.583   4.130 -0.0996 -1.0298  2.3416
   47MOL0     H 6306   1.490   1.898   4.084  0.6763 -0.1149  1.5365
   47MOL0     H 6307   1.387   1.849   4.208  1.4682  2.4330  0.7087
   47MOL0     H 6308   1.549   1.798   4.211 -0.3461  1.9278  1.4920
   47MOL0     H 6309   1.013   1.986   3.765 -1.3909 -0.7002 -0.7264
   47MOL0     H 6310   0.834   2.137   3.822 -0.6604  1.0667  1.3974
   47MOL0     H 6311   0.753   2.314   4.175 -1.5737  0.0738  0.2066
   47MOL0     H 6312   0.892   2.247   4.092  0.2372 -1.0969  2.0430
   47MOL0     H 6313   0.779   2.327   3.876 -0.7459 -0.1935 -0.2124
   47MOL0     H 6314   0.635   2.380   3.960  0.4522  0.5486  2.7042
   47MOL0     H 6315   0.791   2.545   4.098  0.9556  0.1856 -0.7424
   47MOL0     H 6316   0.747   2.590   3.936 -1.8743 -0.0413  1.3728
   47MOL0     H 6317   1.006   2.449   4.039  1.2142 -0.0452 -0.3612
   47MOL0     H 6318   0.977   2.473   3.867 -1.3895  0.2340 -0.0471
   47MOL0     H 6319   0.949   2.713   3.888  1.2361  0.8391 -0.8051
   47MOL0     H 6320   1.109   2.646   3.918 -0.0983 -0.3395 -0.8675
   47MOL0     H 6321   0.916   2.764   4.122  0.6576  0.5327  1.5692
   47MOL0     H 6322   1.038   2.640   4.167  1.4541 -1.1863 -2.2410
   47MOL0     H 6323   1.066   2.908   4.012  0.0463 -0.1538  1.4883
   47MOL0     H 6324   1.207   2.811   4.036  0.8332  0.8784  1.7423
   47MOL0     H 6325   1.026   2.959   4.238  0.2027 -0.7651  1.6875
   47MOL0     H 6326   1.188   3.008   4.195 -0.4916 -0.0247 -3.4443
   47MOL0     H 6327   0.746   1.927   4.186 -1.0948 -1.0058 -0.0597
   47MOL0     H 6328   0.917   1.759   4.111 -0.6028  1.5104  0.3477
   47MOL0     H 6329   1.162   1.538   3.883  0.5948  0.0882  0.0062
   47MOL0     H 6330   1.323   1.356   3.897 -0.5125  0.4789 -1.2854
   47MOL0     H 6331   3.266   1.285   3.809 -0.1523 -0.2831  0.0917
   47MOL0     H 6332   3.489   1.264   3.691  2.1427 -2.6363 -0.2105
   47MOL0     H 6333   3.788   1.053   3.483  0.5825  0.6247  0.4776
   47MOL0     H 6334   4.001   1.036   3.405  0.0967  1.6034  0.1654
   47MOL0     H 6335   4.187   1.073   3.305  0.8172 -0.2802  0.6097
   47MOL0     H 6336   4.185   0.909   3.240 -2.4734  1.3668  2.4772
   47MOL0     H 6337   4.322   1.149   3.115 -0.7448  0.4467 -1.0849
   47MOL0     H 6338   4.342   0.973   3.072  4.9005  1.1185  0.0449
   47MOL0     H 6339   4.424   0.925   3.305  0.6197 -1.2430 -0.4840
   47MOL0     H 6340   4.409   1.098   3.332  3.7574 -1.3835  1.3010
   47MOL0     H 6341   4.647   1.040   3.291  0.3233  0.9227 -0.8835
   47MOL0     H 6342   4.568   1.163   3.192  0.5502  0.1238 -3.1967
   47MOL0     H 6343   4.732   0.874   2.921  2.8932 -0.1905  0.6162
   47MOL0     H 6344   3.866   1.128   3.001  0.1233  0.5756  0.2253
   47MOL0     H 6345   3.647   1.165   3.089  0.4063  2.4514  1.9102
   48MOL0     O 6346   7.736   5.216   8.033  0.6920  0.5724  0.5998
   48MOL0     C 6347   7.756   5.105   8.071 -0.7948 -0.0031 -0.0510
   48MOL0     O 6348   7.686   5.042   8.171  0.3733  0.0834 -0.2217
   48MOL0     C 6349   7.593   5.118   8.241 -0.5276 -0.6864 -0.1719
   48MOL0     C 6350   7.617   5.242   8.303  0.0824  0.4818 -0.1932
   48MOL0     C 6351   7.509   5.318   8.355  0.6351 -0.4778 -0.2953
   48MOL0     C 6352   7.379   5.269   8.362  0.6416 -0.0223  0.1043
   48MOL0     O 6353   7.273   5.353   8.389 -0.6323  0.7575  0.1460
   48MOL0     C 6354   7.290   5.483   8.447 -0.6458  0.1355 -0.2415
   48MOL0     C 6355   7.173   5.524   8.532  0.5856 -0.4137  1.0352
   48MOL0     C 6356   7.038   5.467   8.467 -1.0147  0.8154  0.1051
   48MOL0     C 6357   6.908   5.512   8.527  0.0840 -0.7285 -0.3867
   48MOL0     C 6358   6.785   5.470   8.443 -0.8101 -0.1895 -0.5345
   48MOL0     C 6359   6.668   5.553   8.494  0.5885  0.5586 -0.1770
   48MOL0     C 6360   6.541   5.509   8.422 -0.1927 -0.6652  0.2137
   48MOL0     C 6361   6.433   5.625   8.419 -0.3971  0.6570  0.0712
   48MOL0     N 6362   6.311   5.570   8.353 -0.2041  0.4992  0.5836
   48MOL0     C 6363   6.306   5.537   8.220 -1.1898  0.1062 -1.3436
   48MOL0     C 6364   6.195   5.465   8.210 -0.8647  0.2023 -0.5811
   48MOL0     C 6365   6.126   5.400   8.089 -0.6003 -0.4343  0.2558
   48MOL0     C 6366   6.010   5.480   8.035 -0.0676 -0.7914  0.3071
   48MOL0     C 6367   5.896   5.504   8.134  0.9373  0.2528 -0.3447
   48MOL0     C 6368   5.833   5.376   8.198  0.2804  0.1037 -0.6736
   48MOL0     O 6369   5.737   5.422   8.302 -0.1780  1.1690 -0.4638
   48MOL0     C 6370   5.603   5.396   8.276  0.0149  0.0554  0.4537
   48MOL0     C 6371   5.550   5.278   8.235 -0.0486 -0.4419  0.4040
   48MOL0     C 6372   5.409   5.255   8.211 -0.1970 -0.3069 -0.1401
   48MOL0     C 6373   5.380   5.113   8.168  0.0363 -0.4662 -0.0675
   48MOL0     C 6374   5.321   5.356   8.258  0.4584 -0.4918  0.2467
   48MOL0     C 6375   5.170   5.346   8.272 -0.2419 -0.2485 -0.3234
   48MOL0     O 6376   5.114   5.227   8.253  0.2704  0.6232  0.1765
   48MOL0     C 6377   4.977   5.225   8.229  0.1100  0.0415  0.8245
   48MOL0     C 6378   4.915   5.304   8.134  0.4188 -0.1497 -0.1195
   48MOL0     C 6379   4.776   5.296   8.109  0.1665 -0.2206  0.3921
   48MOL0     C 6380   4.693   5.220   8.190 -0.7499 -0.0344 -0.0169
   48MOL0     O 6381   4.554   5.215   8.192  0.2917 -0.3761  0.0702
   48MOL0     C 6382   4.494   5.263   8.073 -0.4045 -0.5539 -0.0359
   48MOL0     C 6383   4.348   5.255   8.086  0.2733 -0.2635  0.0443
   48MOL0     C 6384   4.271   5.298   7.956 -0.0789  0.7177  0.4576
   48MOL0     C 6385   4.119   5.280   7.982 -0.5654 -0.5471 -0.4978
   48MOL0     C 6386   4.040   5.316   7.856  0.6123  1.0645  0.5081
   48MOL0     C 6387   3.892   5.282   7.867  0.0573  0.8876  0.2443
   48MOL0     C 6388   3.815   5.347   7.747 -0.5239  0.3715  0.0013
   48MOL0     C 6389   3.660   5.351   7.774 -0.4654 -0.6018 -0.1641
   48MOL0    Cl 6390   3.609   5.219   7.882 -0.2343 -0.5850  0.0777
   48MOL0     C 6391   4.752   5.146   8.290 -0.4050 -0.1813 -0.0960
   48MOL0     C 6392   4.893   5.140   8.300 -0.2167 -0.5391 -1.0295
   48MOL0     O 6393   5.116   5.444   8.316  0.4504  0.5774  0.4210
   48MOL0     C 6394   5.378   5.480   8.285 -0.7072 -0.4354 -0.1596
   48MOL0     C 6395   5.514   5.500   8.296  0.2200  0.2642  0.7863
   48MOL0     N 6396   6.144   5.451   8.335 -1.3734  0.4230 -0.4897
   48MOL0     N 6397   6.209   5.520   8.422  0.2762 -0.0725  0.3145
   48MOL0     C 6398   7.358   5.135   8.323 -0.1818  0.0717  0.3968
   48MOL0     C 6399   7.466   5.065   8.258  0.3948 -0.0050  0.0679
   48MOL0     C 6400   7.874   5.041   8.017  0.0942  0.8002 -1.1714
   48MOL0     C 6401   7.953   5.108   7.923  0.0377  0.2512  0.0796
   48MOL0     C 6402   8.069   5.044   7.873 -0.4643 -0.6218 -0.1708
   48MOL0     C 6403   8.112   4.923   7.916 -0.0002  0.4836 -0.8418
   48MOL0     O 6404   8.226   4.858   7.867  0.4178 -0.4151  0.2370
   48MOL0     C 6405   8.302   4.911   7.758  0.6936 -0.3916  0.7098
   48MOL0     C 6406   8.440   4.850   7.761  0.1316  0.0829  0.0883
   48MOL0     C 6407   8.530   4.911   7.869  0.3361 -0.4051  1.0350
   48MOL0     C 6408   8.662   4.849   7.887  0.2388 -0.3714  0.9969
   48MOL0     C 6409   8.756   4.945   7.931  0.1985 -0.0788 -0.2618
   48MOL0     C 6410   8.841   5.019   7.974  0.0772 -0.0003  0.5175
   48MOL0     C 6411   8.037   4.862   8.014 -0.1735 -0.2850 -0.2682
   48MOL0     C 6412   7.922   4.919   8.064 -0.4853 -0.7202 -0.3890
   48MOL0     H 6413   7.716   5.286   8.301 -0.5634  2.0054 -1.7896
   48MOL0     H 6414   7.514   5.422   8.386 -3.1798  0.0198 -0.7964
   48MOL0     H 6415   7.369   5.484   8.522 -1.5801  0.9690  0.7522
   48MOL0     H 6416   7.312   5.559   8.370 -1.7275  0.6872 -0.0277
   48MOL0     H 6417   7.178   5.490   8.636 -0.1815 -0.5322  1.0417
   48MOL0     H 6418   7.163   5.633   8.533  1.6033 -0.2879  0.0383
   48MOL0     H 6419   7.045   5.477   8.358  0.8413  0.8632  0.2023
   48MOL0     H 6420   7.047   5.359   8.482  0.7304  1.1789  2.2337
   48MOL0     H 6421   6.897   5.465   8.625  0.4722  2.0734  1.1172
   48MOL0     H 6422   6.925   5.620   8.538  1.6808 -0.5333 -3.6140
   48MOL0     H 6423   6.792   5.491   8.336 -2.9209  1.2449 -0.4619
   48MOL0     H 6424   6.761   5.363   8.449 -0.0555 -0.2873  1.5224
   48MOL0     H 6425   6.660   5.550   8.603 -3.0382  0.2182 -0.3315
   48MOL0     H 6426   6.699   5.656   8.471  2.5748  0.3056  1.0997
   48MOL0     H 6427   6.567   5.479   8.320  0.1938 -3.5224  1.0560
   48MOL0     H 6428   6.500   5.420   8.472 -2.6921 -1.2459 -2.6117
   48MOL0     H 6429   6.455   5.712   8.355 -1.4014  0.6716 -0.2598
   48MOL0     H 6430   6.412   5.663   8.520 -1.3552 -1.0214  0.5298
   48MOL0     H 6431   6.380   5.558   8.143  1.9948 -0.3902  1.3531
   48MOL0     H 6432   6.208   5.412   8.017  2.1565  0.1027  3.2692
   48MOL0     H 6433   6.097   5.296   8.105 -0.3281 -0.5599 -0.0572
   48MOL0     H 6434   5.987   5.461   7.930 -0.8936 -0.1350  0.3557
   48MOL0     H 6435   6.037   5.586   8.033  0.0428 -0.8071  0.7969
   48MOL0     H 6436   5.820   5.570   8.091  1.9775  1.3100 -0.5881
   48MOL0     H 6437   5.939   5.567   8.212  0.9496  4.1175 -3.1625
   48MOL0     H 6438   5.909   5.305   8.233 -0.1569 -0.6840 -1.2780
   48MOL0     H 6439   5.789   5.317   8.117  1.1696  0.2796 -1.3011
   48MOL0     H 6440   5.620   5.201   8.206  2.7136  1.6027  1.2370
   48MOL0     H 6441   5.464   5.059   8.124 -0.8236 -0.4824 -1.7694
   48MOL0     H 6442   5.332   5.051   8.245 -2.3615 -2.9221 -3.2877
   48MOL0     H 6443   5.313   5.121   8.082  0.6152  0.8289 -0.4201
   48MOL0     H 6444   4.985   5.355   8.068  1.9890 -2.8488 -0.6888
   48MOL0     H 6445   4.749   5.362   8.027 -4.2939  0.9362  2.4815
   48MOL0     H 6446   4.522   5.368   8.058 -1.3069 -0.6761 -3.2604
   48MOL0     H 6447   4.530   5.206   7.988 -1.9620  0.6811 -1.5939
   48MOL0     H 6448   4.323   5.150   8.103 -2.0071  0.0927 -0.8824
   48MOL0     H 6449   4.316   5.317   8.170 -1.5120  1.4559 -1.7776
   48MOL0     H 6450   4.308   5.232   7.877  0.6115  0.0331  1.3202
   48MOL0     H 6451   4.289   5.403   7.932  1.2970  0.9046  2.0839
   48MOL0     H 6452   4.092   5.175   7.999  1.2287 -0.6650  2.2963
   48MOL0     H 6453   4.089   5.336   8.071  0.1021  0.4635 -0.8914
   48MOL0     H 6454   4.088   5.280   7.766 -2.4073  1.6691 -1.4937
   48MOL0     H 6455   4.054   5.423   7.837  0.0464  1.4094  1.8536
   48MOL0     H 6456   3.868   5.176   7.874  0.7101  0.6126 -1.1489
   48MOL0     H 6457   3.856   5.317   7.964  0.9646 -1.0902  1.3652
   48MOL0     H 6458   3.845   5.297   7.655 -2.0044  0.7148 -0.6980
   48MOL0     H 6459   3.847   5.452   7.742 -1.2085  0.7300  2.0333
   48MOL0     H 6460   3.595   5.346   7.686  1.0466 -1.0327 -1.3150
   48MOL0     H 6461   3.637   5.448   7.818  1.6644  2.4469 -4.9240
   48MOL0     H 6462   4.685   5.089   8.354  0.2760 -0.1273  0.6794
   48MOL0     H 6463   4.945   5.084   8.377  2.7787 -0.0664 -2.5332
   48MOL0     H 6464   5.313   5.565   8.300  0.8348  0.8320 -0.3469
   48MOL0     H 6465   5.534   5.603   8.324 -3.7532  0.6120  2.9762
   48MOL0     H 6466   7.261   5.088   8.332  0.4213 -0.9597  2.1850
   48MOL0     H 6467   7.455   4.961   8.227 -1.5360  0.6539 -1.6606
   48MOL0     H 6468   7.916   5.201   7.882  1.7558  0.6804 -0.6046
   48MOL0     H 6469   8.125   5.086   7.789 -0.4687 -1.6869 -0.7269
   48MOL0     H 6470   8.246   4.900   7.665 -0.3803  1.2316  1.1042
   48MOL0     H 6471   8.314   5.020   7.762  1.2162 -0.4853  3.0088
   48MOL0     H 6472   8.484   4.856   7.661 -1.6052  0.3253 -0.6917
   48MOL0     H 6473   8.413   4.746   7.781 -0.9468  0.2981 -0.1896
   48MOL0     H 6474   8.476   4.915   7.964  1.4051  0.0933  1.6322
   48MOL0     H 6475   8.546   5.013   7.832 -3.8650  0.6357  1.4818
   48MOL0     H 6476   8.704   4.814   7.792  1.5510 -1.0977  1.8120
   48MOL0     H 6477   8.655   4.761   7.952 -3.1545 -1.5101 -0.6092
   48MOL0     H 6478   8.905   5.094   8.015 -0.4044  1.0381 -0.5630
   48MOL0     H 6479   8.070   4.769   8.060 -0.6621 -0.9246 -1.1580
   48MOL0     H 6480   7.880   4.858   8.143 -1.5222 -1.8440 -1.7407
   49MOL0     O 6481   7.303   1.860   2.467  0.4287  0.3205 -0.0915
   49MOL0     C 6482   7.362   1.811   2.376 -0.1037  0.6607  0.1748
   49MOL0     O 6483   7.310   1.734   2.281 -0.0102  0.8351  0.5615
   49MOL0     C 6484   7.180   1.689   2.283 -0.1593 -0.1167  0.2169
   49MOL0     C 6485   7.157   1.549   2.257  1.1872  0.7457 -0.7435
   49MOL0     C 6486   7.028   1.497   2.268 -0.5962  0.6559  0.4350
   49MOL0     C 6487   6.919   1.579   2.305  0.0480  0.1722  0.1459
   49MOL0     O 6488   6.800   1.519   2.330 -1.1200 -0.3595 -0.0570
   49MOL0     C 6489   6.681   1.600   2.342 -0.2158 -0.4760 -0.1853
   49MOL0     C 6490   6.576   1.483   2.338  0.0085 -1.2512 -0.1320
   49MOL0     C 6491   6.434   1.541   2.340  0.3738 -0.0773 -0.2134
   49MOL0     C 6492   6.339   1.423   2.310  0.5399  0.0023  0.0033
   49MOL0     C 6493   6.184   1.462   2.319  0.3840  0.0781 -0.7201
   49MOL0     C 6494   6.158   1.589   2.236 -0.3816 -0.0589  0.0675
   49MOL0     C 6495   6.008   1.624   2.209 -0.2341  0.4655 -0.2670
   49MOL0     C 6496   5.938   1.684   2.339  0.2479  0.5331 -0.4744
   49MOL0     N 6497   5.797   1.697   2.319  0.4187 -0.6446  0.0873
   49MOL0     C 6498   5.733   1.794   2.241  0.6814  0.0114  0.4485
   49MOL0     C 6499   5.602   1.770   2.271 -1.1632 -0.3618 -0.0668
   49MOL0     C 6500   5.488   1.864   2.211  0.7168  0.4320 -1.4969
   49MOL0     C 6501   5.421   1.950   2.320 -0.3221  0.0769 -0.0992
   49MOL0     C 6502   5.321   1.881   2.418  0.8933 -0.3428  0.5458
   49MOL0     C 6503   5.260   1.993   2.509  0.0817 -0.3892 -0.1021
   49MOL0     O 6504   5.168   2.073   2.439 -0.1499 -0.2284 -0.0507
   49MOL0     C 6505   5.083   2.151   2.509 -0.3747 -0.1069  0.1769
   49MOL0     C 6506   5.021   2.256   2.434 -0.0545  0.0133  0.0381
   49MOL0     C 6507   4.944   2.350   2.487  0.2033 -0.2083 -0.2659
   49MOL0     C 6508   4.891   2.460   2.400  0.4846 -0.3341  0.3013
   49MOL0     C 6509   4.903   2.337   2.628  0.0787  0.6415  0.6787
   49MOL0     C 6510   4.800   2.414   2.706 -1.0704  0.0124 -0.1451
   49MOL0     O 6511   4.761   2.363   2.824 -0.9757  0.5056 -0.6544
   49MOL0     C 6512   4.640   2.410   2.874 -0.6838 -0.4456  0.3070
   49MOL0     C 6513   4.637   2.508   2.972  0.2917 -0.2629  0.1342
   49MOL0     C 6514   4.515   2.538   3.029 -0.1212 -0.3495  0.6044
   49MOL0     C 6515   4.393   2.483   2.981 -0.1055 -0.8403  0.0599
   49MOL0     O 6516   4.282   2.519   3.056 -0.7325 -0.1753 -0.3554
   49MOL0     C 6517   4.147   2.498   3.015  0.3415  0.2188  0.3451
   49MOL0     C 6518   4.048   2.570   3.112  0.1082 -0.2118 -0.5314
   49MOL0     C 6519   3.910   2.599   3.051 -0.0142  0.4863  0.0490
   49MOL0     C 6520   3.836   2.467   3.017  0.4472 -0.4010  0.4110
   49MOL0     C 6521   3.723   2.492   2.913 -0.5586 -0.3342 -0.3098
   49MOL0     C 6522   3.637   2.367   2.910 -0.1050 -0.3076  0.1830
   49MOL0     C 6523   3.527   2.389   2.805 -0.3130 -0.2833 -0.2775
   49MOL0     C 6524   3.567   2.392   2.658 -0.6878 -0.1958  0.1447
   49MOL0    Cl 6525   3.408   2.383   2.561 -0.1011  0.3848 -0.0711
   49MOL0     C 6526   4.400   2.386   2.883  0.2140  1.2930  0.0725
   49MOL0     C 6527   4.526   2.351   2.824  0.1526  0.5971  1.1944
   49MOL0     O 6528   4.744   2.510   2.651  0.5292  0.6873  0.6949
   49MOL0     C 6529   4.955   2.224   2.702  0.5005 -0.1804  0.0217
   49MOL0     C 6530   5.052   2.142   2.646  0.1841  0.8091  0.0061
   49MOL0     N 6531   5.592   1.667   2.358  0.0236 -0.3209 -0.4450
   49MOL0     N 6532   5.700   1.617   2.387  0.5320  0.0016 -0.2570
   49MOL0     C 6533   6.945   1.715   2.321 -0.5764  0.0630 -0.6418
   49MOL0     C 6534   7.077   1.769   2.323  0.6611  0.2347 -0.4852
   49MOL0     C 6535   7.509   1.826   2.384  0.0661  0.5142  0.4738
   49MOL0     C 6536   7.560   1.915   2.475 -0.3803  0.3477  0.0053
   49MOL0     C 6537   7.696   1.951   2.481 -0.0705 -0.7283  0.0794
   49MOL0     C 6538   7.785   1.877   2.408 -0.5193  0.7090 -0.8633
   49MOL0     O 6539   7.918   1.919   2.403 -0.3442 -0.0221 -0.4587
   49MOL0     C 6540   7.981   1.906   2.280  0.2523 -0.8581  0.3406
   49MOL0     C 6541   8.115   1.988   2.291  0.2592  0.0272  0.7734
   49MOL0     C 6542   8.234   1.904   2.337 -0.1434  0.2322  0.4133
   49MOL0     C 6543   8.359   1.981   2.325 -0.0602  0.3090 -0.2971
   49MOL0     C 6544   8.476   1.904   2.375 -0.6226 -0.8899 -0.2494
   49MOL0     C 6545   8.575   1.853   2.425  0.3912 -0.8480 -0.5260
   49MOL0     C 6546   7.734   1.772   2.328  0.4414  0.1573 -0.1483
   49MOL0     C 6547   7.594   1.748   2.310  0.0453  0.4137 -0.1904
   49MOL0     H 6548   7.247   1.493   2.237 -1.8259 -4.4911 -1.6689
   49MOL0     H 6549   7.004   1.392   2.257  0.2649  0.2306  2.1308
   49MOL0     H 6550   6.673   1.661   2.432  2.1757 -0.3694  0.0373
   49MOL0     H 6551   6.658   1.678   2.269  2.8561  0.0993 -0.7094
   49MOL0     H 6552   6.601   1.428   2.246  0.9255 -0.1104 -0.5886
   49MOL0     H 6553   6.599   1.414   2.420  0.1453  0.1119  1.0115
   49MOL0     H 6554   6.409   1.583   2.438  0.3136 -1.3132  0.3227
   49MOL0     H 6555   6.426   1.627   2.272  2.5007  1.5249  1.4307
   49MOL0     H 6556   6.361   1.365   2.220 -3.3800 -2.2145  0.2915
   49MOL0     H 6557   6.349   1.345   2.385  0.7671 -0.4554 -0.5002
   49MOL0     H 6558   6.119   1.377   2.297 -0.0148  0.5252 -1.2933
   49MOL0     H 6559   6.161   1.481   2.424 -2.4535 -0.6361 -1.1314
   49MOL0     H 6560   6.208   1.681   2.270  0.0330  0.7942 -2.5892
   49MOL0     H 6561   6.198   1.561   2.138 -3.6068 -0.6966 -1.1753
   49MOL0     H 6562   5.997   1.691   2.123  0.2563 -1.3354 -1.7750
   49MOL0     H 6563   5.962   1.530   2.178 -0.3808  0.9180 -1.4891
   49MOL0     H 6564   5.975   1.783   2.366  2.4654  0.1388 -1.8185
   49MOL0     H 6565   5.953   1.615   2.422 -3.4188 -0.8535 -0.7806
   49MOL0     H 6566   5.761   1.882   2.185 -3.6134  0.9025 -0.6851
   49MOL0     H 6567   5.526   1.945   2.147  2.3045  2.0566  1.3221
   49MOL0     H 6568   5.417   1.795   2.165 -2.5265  2.1858  0.4828
   49MOL0     H 6569   5.364   2.018   2.256  1.6038  0.0607 -1.9638
   49MOL0     H 6570   5.496   2.006   2.378  0.7839 -1.5860  0.1341
   49MOL0     H 6571   5.366   1.813   2.491  0.7360 -1.7355 -0.5984
   49MOL0     H 6572   5.242   1.828   2.364 -1.2862  1.1393  2.0682
   49MOL0     H 6573   5.339   2.052   2.554 -1.2066  1.1345  0.2418
   49MOL0     H 6574   5.199   1.951   2.590  0.7823  2.5552  2.0814
   49MOL0     H 6575   5.047   2.263   2.329  2.7418 -1.1003  0.5435
   49MOL0     H 6576   4.899   2.554   2.454 -0.8930 -0.4529  0.7340
   49MOL0     H 6577   4.948   2.470   2.307  0.8549  1.7704  0.6981
   49MOL0     H 6578   4.785   2.440   2.384  1.1668 -2.9785 -1.7569
   49MOL0     H 6579   4.738   2.537   3.001  0.1274  0.7659 -0.2689
   49MOL0     H 6580   4.519   2.600   3.118  3.4247  1.6012 -0.6906
   49MOL0     H 6581   4.132   2.555   2.923  2.5415  0.5382  0.1136
   49MOL0     H 6582   4.121   2.392   3.012  0.4118  0.1396  1.8396
   49MOL0     H 6583   4.038   2.497   3.192 -3.3485 -2.2953 -2.6478
   49MOL0     H 6584   4.078   2.664   3.160 -0.6505 -0.0838 -0.2975
   49MOL0     H 6585   3.924   2.656   2.959  2.0148 -0.3529 -0.2146
   49MOL0     H 6586   3.854   2.656   3.126  0.3013  2.1023 -0.9005
   49MOL0     H 6587   3.897   2.386   2.976 -1.3416 -2.3578  1.4767
   49MOL0     H 6588   3.799   2.439   3.115 -0.2012 -2.3447 -0.3456
   49MOL0     H 6589   3.759   2.522   2.815 -1.2248  1.5919 -0.0151
   49MOL0     H 6590   3.664   2.575   2.954  0.6771 -0.5636  2.1175
   49MOL0     H 6591   3.696   2.280   2.879 -0.5533 -0.1051 -1.3514
   49MOL0     H 6592   3.595   2.361   3.010 -0.7744 -0.4728 -0.1024
   49MOL0     H 6593   3.473   2.483   2.820  0.3270 -0.0615  0.7300
   49MOL0     H 6594   3.465   2.300   2.808  1.6066 -1.8843 -3.0109
   49MOL0     H 6595   3.629   2.307   2.631 -4.1476 -2.9029  0.0572
   49MOL0     H 6596   3.603   2.491   2.628 -0.7312  0.0319  0.8344
   49MOL0     H 6597   4.308   2.332   2.864  1.8894 -1.8956  0.2677
   49MOL0     H 6598   4.536   2.274   2.749 -2.2002  1.1792  0.1963
   49MOL0     H 6599   4.934   2.208   2.807 -3.9146 -0.0689 -0.6163
   49MOL0     H 6600   5.112   2.084   2.715 -0.0610  1.3701  0.7070
   49MOL0     H 6601   6.869   1.784   2.356 -0.7736 -0.7128  0.4985
   49MOL0     H 6602   7.088   1.873   2.351  1.4133  0.1660 -0.5263
   49MOL0     H 6603   7.494   1.966   2.545  1.3067  2.3717  0.2186
   49MOL0     H 6604   7.736   2.028   2.546  0.8334 -1.6892  0.7066
   49MOL0     H 6605   7.996   1.804   2.241  3.4740 -0.9224  1.4499
   49MOL0     H 6606   7.908   1.951   2.212  0.2657  0.3424  1.1117
   49MOL0     H 6607   8.101   2.070   2.362  2.7911  1.2991 -0.0778
   49MOL0     H 6608   8.136   2.042   2.198 -1.3719  0.3063  0.5258
   49MOL0     H 6609   8.242   1.820   2.267 -2.5854  0.8081 -0.6591
   49MOL0     H 6610   8.231   1.869   2.440  0.6843 -0.2986  0.2667
   49MOL0     H 6611   8.358   2.070   2.388 -0.7123 -1.1590  1.8856
   49MOL0     H 6612   8.364   2.013   2.221  2.9297 -0.4779 -0.4999
   49MOL0     H 6613   8.662   1.803   2.464  0.9459  0.5296  0.0573
   49MOL0     H 6614   7.804   1.718   2.265 -0.1432 -2.4019  1.2649
   49MOL0     H 6615   7.558   1.664   2.251  1.7218 -1.2026  0.9631
   50MOL0     O 6616  11.208   9.857   4.049 -0.4387  0.1141 -0.1053
   50MOL0     C 6617  11.209   9.893   4.169  0.4737 -0.2254  0.3881
   50MOL0     O 6618  11.099   9.950   4.234  0.1577 -0.4117  0.2891
   50MOL0     C 6619  11.000   9.984   4.153  0.3179  0.5192  0.1283
   50MOL0     C 6620  10.983  10.113   4.108 -0.1704 -0.2328 -0.0227
   50MOL0     C 6621  10.876  10.149   4.027  0.6479  0.2598 -0.4597
   50MOL0     C 6622  10.777  10.054   3.992  0.9049 -0.1147 -0.5385
   50MOL0     O 6623  10.664  10.098   3.927 -0.5348 -0.1436  0.4900
   50MOL0     C 6624  10.600  10.008   3.834 -0.6418  0.2345  0.2548
   50MOL0     C 6625  10.512  10.082   3.730  0.0194  0.7106  0.2227
   50MOL0     C 6626  10.406  10.177   3.785 -0.2093  0.2655 -0.5058
   50MOL0     C 6627  10.320  10.209   3.667 -0.4040 -0.5688 -0.1985
   50MOL0     C 6628  10.207  10.310   3.705  0.2249 -0.0714 -0.4299
   50MOL0     C 6629  10.097  10.237   3.781 -0.9802 -0.1187  0.1630
   50MOL0     C 6630   9.987  10.316   3.840 -0.4655 -0.4210 -0.6115
   50MOL0     C 6631   9.872  10.227   3.886  0.7852  0.6885  0.7963
   50MOL0     N 6632   9.808  10.146   3.785 -0.2717 -0.6150  0.1788
   50MOL0     C 6633   9.841  10.019   3.746  0.0110 -0.0386  0.4945
   50MOL0     C 6634   9.749   9.992   3.644  0.4409  0.0385 -0.1519
   50MOL0     C 6635   9.731   9.854   3.602 -0.5629  0.4959  0.8173
   50MOL0     C 6636   9.688   9.766   3.725  0.4774  0.3184 -0.1839
   50MOL0     C 6637   9.537   9.784   3.771 -0.1220  0.1029 -0.3301
   50MOL0     C 6638   9.457   9.693   3.681  0.4689  0.2253  0.2227
   50MOL0     O 6639   9.404   9.576   3.748  0.7105 -0.6430  0.4672
   50MOL0     C 6640   9.280   9.535   3.706  0.4393 -0.4226  0.3598
   50MOL0     C 6641   9.203   9.465   3.798 -0.0674 -0.6641 -0.0867
   50MOL0     C 6642   9.067   9.432   3.774  0.2247 -0.2188  0.2907
   50MOL0     C 6643   8.993   9.382   3.898  0.2697  0.6342  0.0967
   50MOL0     C 6644   9.013   9.457   3.646 -0.0398  0.6168 -0.5712
   50MOL0     C 6645   8.876   9.411   3.609 -0.8368 -0.2378 -0.8116
   50MOL0     O 6646   8.841   9.454   3.482  0.3017  0.1102  0.2240
   50MOL0     C 6647   8.715   9.451   3.440 -0.0279 -0.4780  0.1146
   50MOL0     C 6648   8.702   9.454   3.302  0.9896 -0.4076 -0.3933
   50MOL0     C 6649   8.572   9.439   3.245 -0.3788  0.5960  0.7903
   50MOL0     C 6650   8.454   9.424   3.319  0.1299 -0.0053  0.0844
   50MOL0     O 6651   8.327   9.399   3.267  0.6890  0.4008  0.5358
   50MOL0     C 6652   8.322   9.409   3.123 -0.2680  0.9654  0.8623
   50MOL0     C 6653   8.182   9.372   3.094  0.4701  0.2125  0.6457
   50MOL0     C 6654   8.152   9.219   3.116 -0.0012 -0.2594  0.1031
   50MOL0     C 6655   8.006   9.193   3.169  0.2660 -0.2487  0.6527
   50MOL0     C 6656   7.892   9.269   3.088  0.0551  0.1112 -0.4303
   50MOL0     C 6657   7.758   9.208   3.122  0.3619 -0.2696 -0.2204
   50MOL0     C 6658   7.634   9.271   3.047  0.2761 -0.0154  0.4471
   50MOL0     C 6659   7.508   9.267   3.144  0.1467  0.6504  0.5049
   50MOL0    Cl 6660   7.443   9.105   3.158  0.0018  0.1496  0.3338
   50MOL0     C 6661   8.467   9.423   3.454 -0.4464  0.7059  0.3959
   50MOL0     C 6662   8.593   9.449   3.514 -0.7108  0.1569  0.0033
   50MOL0     O 6663   8.804   9.351   3.686  0.2808 -0.0622 -0.1090
   50MOL0     C 6664   9.088   9.531   3.555 -0.8633  0.1145 -0.1059
   50MOL0     C 6665   9.221   9.566   3.589 -0.1536 -0.6418  1.0840
   50MOL0     N 6666   9.669  10.106   3.624  0.0066 -0.4995  0.2988
   50MOL0     N 6667   9.706  10.198   3.710  0.1690  0.5394 -0.2669
   50MOL0     C 6668  10.797   9.927   4.027 -0.6582 -0.2508 -0.2762
   50MOL0     C 6669  10.907   9.889   4.114  0.5765  0.1365 -0.0649
   50MOL0     C 6670  11.331   9.877   4.251 -0.2476 -0.3731  0.2564
   50MOL0     C 6671  11.450   9.855   4.187 -0.6658 -0.1921 -0.2149
   50MOL0     C 6672  11.563   9.861   4.266 -0.3915  0.0471  0.4674
   50MOL0     C 6673  11.559   9.853   4.401 -0.5262 -0.8834  0.5948
   50MOL0     O 6674  11.674   9.843   4.467  0.5324  0.1854  0.0772
   50MOL0     C 6675  11.741   9.709   4.466 -0.8522 -0.1747 -0.8901
   50MOL0     C 6676  11.892   9.738   4.469 -0.0482  0.0906  0.0126
   50MOL0     C 6677  11.984   9.612   4.455  0.0608  0.2823  0.0485
   50MOL0     C 6678  12.123   9.651   4.461  0.5638  0.6374 -0.3888
   50MOL0     C 6679  12.212   9.536   4.439  0.4136  0.0878  0.2783
   50MOL0     C 6680  12.283   9.439   4.430  0.1733  0.1096  0.0012
   50MOL0     C 6681  11.437   9.872   4.467  0.0195  0.4387 -0.2950
   50MOL0     C 6682  11.323   9.895   4.389 -0.1949  0.4148 -0.2351
   50MOL0     H 6683  11.057  10.179   4.153  0.3956  0.6025 -2.0192
   50MOL0     H 6684  10.853  10.248   3.989 -0.0218 -0.1356 -1.1101
   50MOL0     H 6685  10.677   9.949   3.783  0.4179  1.3598  0.4931
   50MOL0     H 6686  10.539   9.940   3.894  1.8408  0.7825  3.7267
   50MOL0     H 6687  10.580  10.145   3.671  0.8314  1.1299  1.5599
   50MOL0     H 6688  10.457  10.012   3.667  0.7343  2.2464 -2.2487
   50MOL0     H 6689  10.346  10.128   3.861  2.0764 -1.5965  0.2270
   50MOL0     H 6690  10.454  10.266   3.827 -2.9460  2.8173 -2.3281
   50MOL0     H 6691  10.375  10.266   3.593  0.7763  0.3729  1.3542
   50MOL0     H 6692  10.283  10.117   3.621 -1.7074 -0.9185  1.4369
   50MOL0     H 6693  10.242  10.392   3.769  0.8378 -0.5328 -0.1733
   50MOL0     H 6694  10.176  10.364   3.615 -3.6081  1.0667  1.3282
   50MOL0     H 6695  10.053  10.165   3.712 -1.3199 -0.3636  0.6317
   50MOL0     H 6696  10.143  10.179   3.861  0.6065  0.7159 -0.0997
   50MOL0     H 6697  10.031  10.360   3.930  1.3111 -0.8861 -1.2210
   50MOL0     H 6698   9.953  10.399   3.777 -3.2006 -0.0834  1.0961
   50MOL0     H 6699   9.799  10.292   3.936  0.2561  0.1602  0.7318
   50MOL0     H 6700   9.914  10.164   3.965 -0.1167 -2.4195 -1.0369
   50MOL0     H 6701   9.915   9.961   3.801  0.6264  1.7758  1.6654
   50MOL0     H 6702   9.667   9.853   3.513  0.6784 -2.4162 -0.1758
   50MOL0     H 6703   9.824   9.813   3.562 -0.1594 -0.2780  2.4571
   50MOL0     H 6704   9.753   9.783   3.811  1.2445 -0.3966 -0.6008
   50MOL0     H 6705   9.720   9.664   3.702  0.6491  0.4763 -0.6567
   50MOL0     H 6706   9.506   9.885   3.744  0.7901  0.6465  0.6317
   50MOL0     H 6707   9.538   9.768   3.879 -0.6770  2.0180 -0.0051
   50MOL0     H 6708   9.508   9.666   3.589  2.5107  1.5728  0.9063
   50MOL0     H 6709   9.380   9.760   3.640  0.1363 -0.5299 -0.4136
   50MOL0     H 6710   9.246   9.443   3.895 -0.5943 -0.9058  0.0960
   50MOL0     H 6711   8.967   9.277   3.881 -1.1950  1.1771 -1.3501
   50MOL0     H 6712   9.057   9.370   3.986 -2.5027 -0.3592  2.1456
   50MOL0     H 6713   8.910   9.451   3.912  0.9621  1.8345 -1.4512
   50MOL0     H 6714   8.791   9.480   3.246  0.8285  0.0483 -0.4404
   50MOL0     H 6715   8.568   9.440   3.136  0.2800 -1.5939  0.7099
   50MOL0     H 6716   8.337   9.510   3.083 -2.3184  0.9249 -0.1501
   50MOL0     H 6717   8.383   9.338   3.067 -2.3023  0.1672 -0.4436
   50MOL0     H 6718   8.111   9.420   3.162 -0.1109 -1.5281  1.3148
   50MOL0     H 6719   8.163   9.394   2.988 -1.6457 -2.8483  0.2789
   50MOL0     H 6720   8.229   9.175   3.180  1.3990 -0.9335 -1.9278
   50MOL0     H 6721   8.150   9.172   3.017 -3.0107 -0.1643  0.0164
   50MOL0     H 6722   7.983   9.086   3.167 -0.4877 -0.0840 -0.8830
   50MOL0     H 6723   8.010   9.227   3.273  1.9423  0.6444  0.3221
   50MOL0     H 6724   7.913   9.261   2.981  3.9922 -1.7454  0.2712
   50MOL0     H 6725   7.891   9.376   3.109  1.6473 -0.2171  1.5694
   50MOL0     H 6726   7.759   9.103   3.092 -0.4315  0.2319 -2.1498
   50MOL0     H 6727   7.732   9.213   3.228 -0.9757 -4.0084 -0.2412
   50MOL0     H 6728   7.623   9.210   2.957 -0.6148  2.1130 -0.9801
   50MOL0     H 6729   7.660   9.376   3.026  0.4984 -0.3969 -1.3352
   50MOL0     H 6730   7.431   9.331   3.102  0.7475  0.0094 -1.7157
   50MOL0     H 6731   7.528   9.311   3.242  1.7431 -0.5845  0.7725
   50MOL0     H 6732   8.379   9.415   3.518 -1.2184 -0.9654 -0.7920
   50MOL0     H 6733   8.598   9.465   3.621 -1.5127 -1.2718  0.2736
   50MOL0     H 6734   9.053   9.560   3.456  1.0537  2.2264 -0.2584
   50MOL0     H 6735   9.270   9.618   3.508  0.1139 -1.8987  0.4216
   50MOL0     H 6736  10.734   9.842   4.002 -0.1256 -1.4385  2.0840
   50MOL0     H 6737  10.929   9.785   4.138 -1.5419 -0.3639 -0.1090
   50MOL0     H 6738  11.454   9.839   4.079 -2.5946 -1.7645 -0.1211
   50MOL0     H 6739  11.665   9.837   4.240  0.8085  0.9885  3.8122
   50MOL0     H 6740  11.719   9.660   4.561  3.4555  1.2228  1.0855
   50MOL0     H 6741  11.702   9.648   4.384 -1.5070  0.4345 -1.0450
   50MOL0     H 6742  11.920   9.791   4.561  1.4257 -0.5438 -0.0435
   50MOL0     H 6743  11.909   9.809   4.388 -0.9585  1.3661  0.9003
   50MOL0     H 6744  11.964   9.558   4.362 -2.7571 -0.3067  0.9054
   50MOL0     H 6745  11.968   9.541   4.537 -3.2512 -1.1602 -1.6691
   50MOL0     H 6746  12.134   9.687   4.564 -0.1343  2.2620 -0.8456
   50MOL0     H 6747  12.147   9.734   4.393  2.3215  2.1997  1.9509
   50MOL0     H 6748  12.350   9.356   4.439 -1.4240 -1.0471  2.1861
   50MOL0     H 6749  11.451   9.881   4.575  3.9627 -0.3278 -0.6232
   50MOL0     H 6750  11.229   9.933   4.425 -1.2764 -2.0523 -0.2670
   51MOL0     O 6751   4.083   3.593   8.957 -0.2833 -0.2242 -0.0389
   51MOL0     C 6752   4.130   3.708   8.945  0.0438  0.2353  0.2044
   51MOL0     O 6753   4.062   3.814   8.887 -0.0504  0.3397  0.4551
   51MOL0     C 6754   3.939   3.782   8.838  0.6039  0.3888 -0.0337
   51MOL0     C 6755   3.918   3.795   8.700 -0.1873  0.0765  0.0371
   51MOL0     C 6756   3.809   3.743   8.639  0.1418  0.0180  1.1390
   51MOL0     C 6757   3.698   3.703   8.718 -0.3852 -1.0042  0.5196
   51MOL0     O 6758   3.581   3.654   8.670  0.4569 -0.5013  0.4276
   51MOL0     C 6759   3.556   3.672   8.528  0.0188 -0.3984  0.2073
   51MOL0     C 6760   3.403   3.666   8.505 -0.7306  0.0928  1.0157
   51MOL0     C 6761   3.329   3.788   8.564  0.1002  0.2504  0.0439
   51MOL0     C 6762   3.174   3.778   8.554  0.8471  0.3606 -0.7882
   51MOL0     C 6763   3.102   3.899   8.623  0.0401  0.4673  0.2433
   51MOL0     C 6764   2.953   3.890   8.585  0.3581  0.1759  0.4289
   51MOL0     C 6765   2.880   4.017   8.623  0.0405 -0.3448  0.0884
   51MOL0     C 6766   2.748   4.019   8.550  0.1278 -0.0874 -0.0728
   51MOL0     N 6767   2.642   3.935   8.605 -0.3958 -0.6218 -0.5467
   51MOL0     C 6768   2.567   3.954   8.716  0.4311 -0.2051 -0.0879
   51MOL0     C 6769   2.474   3.860   8.706 -0.0584  0.4974 -0.1697
   51MOL0     C 6770   2.362   3.858   8.801  0.3711  0.4554  0.1207
   51MOL0     C 6771   2.245   3.952   8.759  0.2660  0.6541  0.1856
   51MOL0     C 6772   2.140   3.893   8.663 -0.7918  0.6224 -0.2760
   51MOL0     C 6773   2.009   3.846   8.726 -0.4425  0.9525  0.0324
   51MOL0     O 6774   1.938   3.950   8.786 -0.6163 -0.7669 -0.7505
   51MOL0     C 6775   1.804   3.932   8.806  0.0239  0.0865  0.1119
   51MOL0     C 6776   1.736   3.814   8.794 -0.1070 -0.8525 -0.2619
   51MOL0     C 6777   1.592   3.815   8.785  0.7104  0.2468 -0.2697
   51MOL0     C 6778   1.520   3.688   8.758 -0.6557 -0.0610 -0.5724
   51MOL0     C 6779   1.521   3.941   8.796 -0.2434  1.2336  0.6356
   51MOL0     C 6780   1.377   3.941   8.789  1.6507 -0.6080  0.8489
   51MOL0     O 6781   1.308   4.000   8.888 -0.2581  0.2178 -0.0468
   51MOL0     C 6782   1.169   4.000   8.865 -0.1750 -0.7112  0.3180
   51MOL0     C 6783   1.103   4.122   8.852  0.1912 -0.0254  0.2418
   51MOL0     C 6784   0.961   4.117   8.869 -0.6171 -0.7679  0.5783
   51MOL0     C 6785   0.885   4.004   8.886  0.1763  1.4597 -0.3690
   51MOL0     O 6786   0.748   3.986   8.913 -0.1544  0.0969  0.2225
   51MOL0     C 6787   0.665   4.105   8.914  0.6389  0.2051  0.2598
   51MOL0     C 6788   0.514   4.063   8.928  0.2703  0.0234 -0.2723
   51MOL0     C 6789   0.434   4.159   9.020 -0.4669  0.7696  0.0695
   51MOL0     C 6790   0.434   4.121   9.166  0.0611  0.2087  0.3660
   51MOL0     C 6791   0.318   4.183   9.245 -0.9347  0.1499 -0.0235
   51MOL0     C 6792   0.178   4.122   9.201  0.2813 -0.2130  0.2126
   51MOL0     C 6793   0.060   4.201   9.272  0.5766 -0.7468 -0.2965
   51MOL0     C 6794  -0.080   4.125   9.270  0.2651  0.0563 -0.1120
   51MOL0    Cl 6795  -0.208   4.237   9.334 -0.2812  0.1740 -0.1496
   51MOL0     C 6796   0.961   3.882   8.892  0.4208 -0.4488  0.1091
   51MOL0     C 6797   1.106   3.879   8.891  0.8181  0.2308 -0.3676
   51MOL0     O 6798   1.326   3.893   8.688  0.0580  0.1201 -0.2400
   51MOL0     C 6799   1.597   4.048   8.827  0.8300  0.0797  0.7263
   51MOL0     C 6800   1.736   4.055   8.823  0.3105  0.3034  1.0615
   51MOL0     N 6801   2.491   3.780   8.593  0.0283  0.2146  0.2289
   51MOL0     N 6802   2.591   3.839   8.533  0.3589  0.2226  0.6034
   51MOL0     C 6803   3.712   3.697   8.856  0.5053  0.7477 -0.2055
   51MOL0     C 6804   3.827   3.745   8.914 -0.1093  0.3764  0.1147
   51MOL0     C 6805   4.265   3.747   8.989  0.7018 -0.4981  0.8981
   51MOL0     C 6806   4.339   3.830   8.907 -0.1411 -0.3752  0.6079
   51MOL0     C 6807   4.467   3.857   8.941  0.1245 -0.8672  0.0069
   51MOL0     C 6808   4.534   3.818   9.059  0.4683 -0.5437 -0.2108
   51MOL0     O 6809   4.663   3.863   9.087 -0.9019 -0.3191 -0.5557
   51MOL0     C 6810   4.714   3.837   9.218  0.1734 -0.9718  0.4867
   51MOL0     C 6811   4.866   3.878   9.233 -0.1472 -0.0817  0.8035
   51MOL0     C 6812   4.957   3.785   9.147 -0.0938  0.3286 -0.6144
   51MOL0     C 6813   5.103   3.800   9.195  0.3147  0.3962 -1.0337
   51MOL0     C 6814   5.153   3.934   9.163 -0.3945 -0.2353 -0.4885
   51MOL0     C 6815   5.190   4.048   9.147  0.1593 -0.9571 -0.2232
   51MOL0     C 6816   4.453   3.739   9.147  0.1771  0.9045  0.6476
   51MOL0     C 6817   4.320   3.700   9.112 -0.6422  0.5976  0.4291
   51MOL0     H 6818   3.991   3.853   8.645  0.8038 -1.5422 -0.4196
   51MOL0     H 6819   3.796   3.746   8.531 -2.0987 -0.0733  1.3561
   51MOL0     H 6820   3.586   3.770   8.490  0.8916 -1.0549 -0.8561
   51MOL0     H 6821   3.613   3.602   8.467  0.1261  0.3208 -0.5358
   51MOL0     H 6822   3.387   3.657   8.398 -0.6938 -2.0870  1.1496
   51MOL0     H 6823   3.366   3.578   8.558  0.9798 -0.8586  0.6778
   51MOL0     H 6824   3.362   3.810   8.666  0.1731  0.2433  0.0219
   51MOL0     H 6825   3.346   3.880   8.507 -0.6144  0.7361  0.5925
   51MOL0     H 6826   3.148   3.775   8.448  0.8298 -0.6542 -0.7695
   51MOL0     H 6827   3.143   3.684   8.600  0.4096  1.1121  0.5027
   51MOL0     H 6828   3.116   3.882   8.730  2.6318 -1.1022 -0.2540
   51MOL0     H 6829   3.150   3.992   8.595  2.2833 -0.7957 -0.3448
   51MOL0     H 6830   2.944   3.875   8.477  2.2193 -2.5863  0.5468
   51MOL0     H 6831   2.897   3.808   8.632 -0.3972 -0.0750 -0.8700
   51MOL0     H 6832   2.864   4.024   8.731 -3.1183 -0.3636 -0.2802
   51MOL0     H 6833   2.935   4.107   8.595  1.3477 -1.6383 -1.7080
   51MOL0     H 6834   2.766   3.985   8.447 -0.3973 -1.2786  0.2119
   51MOL0     H 6835   2.715   4.123   8.547  1.1915  0.4587  3.2683
   51MOL0     H 6836   2.568   4.029   8.795 -3.3796  0.1641 -0.2218
   51MOL0     H 6837   2.317   3.759   8.804 -3.7509  2.0376 -1.9780
   51MOL0     H 6838   2.398   3.889   8.900 -1.2121  0.0440  0.8584
   51MOL0     H 6839   2.273   4.049   8.716 -1.5926  0.4485 -1.6673
   51MOL0     H 6840   2.205   3.987   8.854  3.2523  3.2352  0.6303
   51MOL0     H 6841   2.188   3.806   8.617  0.8562  0.3620  1.7677
   51MOL0     H 6842   2.107   3.977   8.602  2.9226  3.1277  0.8400
   51MOL0     H 6843   2.021   3.762   8.795 -1.9273 -0.6724 -1.5809
   51MOL0     H 6844   1.959   3.797   8.642 -0.9564  0.6084  0.5317
   51MOL0     H 6845   1.785   3.718   8.781  0.3218 -0.7957  0.7610
   51MOL0     H 6846   1.591   3.607   8.775  1.0026  1.4275 -0.1470
   51MOL0     H 6847   1.434   3.677   8.825 -1.2563  0.8343 -1.1782
   51MOL0     H 6848   1.482   3.689   8.655  0.6743 -0.0277 -1.0787
   51MOL0     H 6849   1.151   4.219   8.848 -0.3506  0.1992 -1.3972
   51MOL0     H 6850   0.910   4.213   8.869 -1.7405 -1.3459  0.1268
   51MOL0     H 6851   0.689   4.166   9.002  2.4687 -0.1787  0.0695
   51MOL0     H 6852   0.680   4.166   8.825 -0.8379 -1.3214 -1.0971
   51MOL0     H 6853   0.468   4.064   8.829 -0.1919 -2.7596 -0.1451
   51MOL0     H 6854   0.515   3.963   8.973 -0.2133  0.6308  1.1574
   51MOL0     H 6855   0.331   4.168   8.986 -0.1579 -1.2869 -1.6202
   51MOL0     H 6856   0.474   4.260   9.008  1.1752  0.0498 -0.9482
   51MOL0     H 6857   0.428   4.012   9.173  0.5426  0.1216 -0.4944
   51MOL0     H 6858   0.530   4.151   9.209  0.8049 -1.4511 -0.0420
   51MOL0     H 6859   0.318   4.291   9.230 -0.4985 -0.0531 -1.6278
   51MOL0     H 6860   0.331   4.167   9.352  1.1194  0.8931 -0.1179
   51MOL0     H 6861   0.159   4.121   9.093  4.0042 -0.2366 -0.5620
   51MOL0     H 6862   0.160   4.020   9.237 -0.8773 -0.6963 -1.6139
   51MOL0     H 6863   0.050   4.300   9.227 -2.2420 -0.8011 -0.0095
   51MOL0     H 6864   0.087   4.229   9.374  1.5212  3.1853 -1.4475
   51MOL0     H 6865  -0.081   4.033   9.329  0.1756  1.0826  1.5628
   51MOL0     H 6866  -0.106   4.100   9.167 -0.3204 -1.2771  0.3409
   51MOL0     H 6867   0.920   3.782   8.903 -0.2695 -0.5052 -2.3802
   51MOL0     H 6868   1.156   3.784   8.907  1.1781  0.6127  0.8417
   51MOL0     H 6869   1.558   4.149   8.829 -0.1229 -0.2899  1.2810
   51MOL0     H 6870   1.797   4.144   8.830  0.6075  0.0781  1.3139
   51MOL0     H 6871   3.632   3.675   8.926  1.0307  1.7822  0.7438
   51MOL0     H 6872   3.838   3.748   9.022  2.7123 -0.7284 -0.0337
   51MOL0     H 6873   4.300   3.862   8.811  1.1638 -2.2705 -0.6194
   51MOL0     H 6874   4.517   3.933   8.881 -1.5049 -1.3272 -2.0452
   51MOL0     H 6875   4.653   3.891   9.291 -0.7111  0.5114 -1.2660
   51MOL0     H 6876   4.702   3.730   9.236 -2.5766 -0.8627 -0.3343
   51MOL0     H 6877   4.904   3.868   9.335  2.4761 -0.8299 -0.1667
   51MOL0     H 6878   4.875   3.979   9.193  0.3849 -0.1018  0.8692
   51MOL0     H 6879   4.957   3.812   9.041  1.4969  0.2041 -0.6695
   51MOL0     H 6880   4.936   3.677   9.150  0.1784  0.2624 -0.9228
   51MOL0     H 6881   5.166   3.727   9.142  2.9437  1.4309  0.4856
   51MOL0     H 6882   5.102   3.777   9.302 -5.6052 -0.0285 -0.8342
   51MOL0     H 6883   5.260   4.129   9.144  0.1070 -0.9222 -0.4690
   51MOL0     H 6884   4.493   3.707   9.242 -3.2332  0.7601  2.1663
   51MOL0     H 6885   4.269   3.636   9.183  1.3623  0.3484  1.7175
   52MOL0     O 6886   6.717   1.646   2.684 -0.0288  0.1811 -0.2775
   52MOL0     C 6887   6.743   1.524   2.691  0.2286 -0.9835  0.3179
   52MOL0     O 6888   6.650   1.426   2.688  0.5445 -0.1968  0.1967
   52MOL0     C 6889   6.513   1.440   2.704 -0.3346  0.0494 -0.2155
   52MOL0     C 6890   6.432   1.556   2.715 -0.3828  0.1655  0.6223
   52MOL0     C 6891   6.299   1.548   2.748 -0.1873 -0.9939  0.6070
   52MOL0     C 6892   6.228   1.426   2.753  0.3261 -0.6223 -0.4758
   52MOL0     O 6893   6.096   1.412   2.782  0.2734 -0.7704  0.1469
   52MOL0     C 6894   6.018   1.533   2.812  0.2088  0.5967 -0.2010
   52MOL0     C 6895   5.886   1.491   2.869 -0.0564 -0.0941  0.1117
   52MOL0     C 6896   5.809   1.614   2.899 -0.2883  0.5581  0.5180
   52MOL0     C 6897   5.695   1.579   2.986  0.2871 -0.7136 -0.0712
   52MOL0     C 6898   5.631   1.705   3.056  0.6133  0.1655 -0.4938
   52MOL0     C 6899   5.505   1.660   3.135 -0.4413 -1.1850 -0.1194
   52MOL0     C 6900   5.443   1.772   3.225 -1.3829  0.2402  0.0093
   52MOL0     C 6901   5.353   1.714   3.335 -0.2077 -0.2707  0.3302
   52MOL0     N 6902   5.211   1.706   3.289 -0.3084 -0.8259  0.3474
   52MOL0     C 6903   5.149   1.588   3.263 -0.5659 -0.8566 -0.1085
   52MOL0     C 6904   5.015   1.620   3.278  0.0097  0.5280 -0.2297
   52MOL0     C 6905   4.893   1.534   3.261  0.6121  0.1012 -1.1825
   52MOL0     C 6906   4.815   1.566   3.137  0.0178  0.1164 -0.1811
   52MOL0     C 6907   4.741   1.697   3.149  0.9905 -0.9624 -0.3893
   52MOL0     C 6908   4.610   1.693   3.068 -0.2839  0.9209 -0.5023
   52MOL0     O 6909   4.512   1.611   3.131 -0.3384 -0.7453 -0.3606
   52MOL0     C 6910   4.389   1.609   3.072 -0.6983 -0.3123 -0.2911
   52MOL0     C 6911   4.299   1.509   3.117 -0.5865  0.0504 -0.2260
   52MOL0     C 6912   4.171   1.497   3.074  0.6739 -0.4915 -0.3430
   52MOL0     C 6913   4.083   1.390   3.132 -0.3772 -0.3577 -0.1002
   52MOL0     C 6914   4.119   1.606   2.989 -0.5862 -0.3168 -0.6140
   52MOL0     C 6915   3.977   1.602   2.933 -0.7633 -0.4185 -0.3675
   52MOL0     O 6916   3.877   1.571   3.015 -0.1251 -0.3696 -0.3663
   52MOL0     C 6917   3.743   1.579   2.982  0.1929  0.0126  0.5630
   52MOL0     C 6918   3.660   1.551   3.085 -0.2879  0.3403 -0.4779
   52MOL0     C 6919   3.522   1.573   3.080 -0.3473  0.1905 -0.0734
   52MOL0     C 6920   3.459   1.616   2.967 -0.6436 -0.2178 -0.6705
   52MOL0     O 6921   3.324   1.638   2.951  0.7348  0.0288 -0.4470
   52MOL0     C 6922   3.225   1.583   3.047  0.1969  0.1259 -0.4263
   52MOL0     C 6923   3.084   1.597   2.995  0.4383 -1.0794 -0.0114
   52MOL0     C 6924   3.036   1.742   2.978 -0.0075 -0.9362  0.3236
   52MOL0     C 6925   2.906   1.749   2.899  0.0839 -0.2010 -0.3464
   52MOL0     C 6926   2.883   1.889   2.857  0.7908  0.0848  0.5396
   52MOL0     C 6927   2.734   1.916   2.836 -0.6920 -0.3391  0.5076
   52MOL0     C 6928   2.647   1.904   2.957  0.1718 -0.0096 -0.5122
   52MOL0     C 6929   2.517   1.980   2.933  1.2061  0.6080  0.3303
   52MOL0    Cl 6930   2.526   2.153   2.977  0.2744  0.0724 -0.0291
   52MOL0     C 6931   3.541   1.650   2.858  0.4268 -0.0031  0.6000
   52MOL0     C 6932   3.682   1.637   2.871 -0.0267  0.6681  1.3668
   52MOL0     O 6933   3.959   1.643   2.820 -0.0621  0.6235 -0.3977
   52MOL0     C 6934   4.211   1.703   2.937 -1.1644 -0.5006 -0.2651
   52MOL0     C 6935   4.343   1.705   2.976 -0.5034  0.5835 -0.6121
   52MOL0     N 6936   5.007   1.761   3.296 -0.1682 -0.3147 -0.1942
   52MOL0     N 6937   5.129   1.809   3.302  0.7085 -0.2724 -0.2317
   52MOL0     C 6938   6.299   1.315   2.736 -0.1473 -0.5705 -0.7172
   52MOL0     C 6939   6.442   1.322   2.713  0.1225 -0.7669  0.1874
   52MOL0     C 6940   6.885   1.482   2.675  0.4385 -0.4150 -0.6426
   52MOL0     C 6941   6.931   1.344   2.681 -0.8633  0.2458 -0.4100
   52MOL0     C 6942   7.076   1.311   2.671  0.8821 -0.0431 -0.2147
   52MOL0     C 6943   7.168   1.410   2.636 -0.3910 -0.1841 -1.2642
   52MOL0     O 6944   7.305   1.375   2.641 -0.0099 -0.5811 -0.5438
   52MOL0     C 6945   7.398   1.447   2.562 -0.0228  0.0917  0.0544
   52MOL0     C 6946   7.540   1.391   2.590  0.7103 -0.2244 -0.2687
   52MOL0     C 6947   7.629   1.466   2.489 -0.0427 -0.0881  0.6852
   52MOL0     C 6948   7.774   1.413   2.502  0.2524  0.0171 -0.0414
   52MOL0     C 6949   7.800   1.292   2.420  0.2971  0.3536  0.0136
   52MOL0     C 6950   7.796   1.207   2.346  1.1362  0.1540 -0.3083
   52MOL0     C 6951   7.125   1.548   2.619 -0.0526  0.8211  0.3361
   52MOL0     C 6952   6.988   1.582   2.635 -0.4180  0.0166  0.8155
   52MOL0     H 6953   6.487   1.650   2.717 -1.3034  0.9210 -2.6706
   52MOL0     H 6954   6.244   1.641   2.759 -0.3030 -1.1325  1.2323
   52MOL0     H 6955   6.071   1.590   2.889  0.6177 -0.4787  0.3391
   52MOL0     H 6956   6.007   1.582   2.715  0.0605 -0.5650 -0.7950
   52MOL0     H 6957   5.827   1.433   2.796 -1.2313  0.4624  0.5973
   52MOL0     H 6958   5.912   1.433   2.958 -0.8971 -0.8844 -0.1313
   52MOL0     H 6959   5.871   1.681   2.960  0.9985  0.0357 -0.1867
   52MOL0     H 6960   5.773   1.652   2.803  0.3926 -2.1898 -0.9300
   52MOL0     H 6961   5.618   1.528   2.928 -1.6781  3.1724 -1.2379
   52MOL0     H 6962   5.734   1.519   3.069  1.5612 -0.3281 -0.3580
   52MOL0     H 6963   5.704   1.747   3.126 -0.1029  2.4271 -0.9998
   52MOL0     H 6964   5.604   1.784   2.986 -1.3589  0.4895  0.5565
   52MOL0     H 6965   5.436   1.620   3.060 -0.0608 -1.0522 -0.5493
   52MOL0     H 6966   5.540   1.578   3.198  3.9920  0.9664  0.6258
   52MOL0     H 6967   5.526   1.825   3.272  0.3269 -0.5460 -1.9761
   52MOL0     H 6968   5.378   1.830   3.159 -0.3745  0.5425 -0.7447
   52MOL0     H 6969   5.352   1.776   3.425 -1.5252 -0.4979  0.4975
   52MOL0     H 6970   5.387   1.616   3.371 -1.0333  0.6906  4.1746
   52MOL0     H 6971   5.191   1.492   3.235 -1.4248 -0.9570 -1.1166
   52MOL0     H 6972   4.916   1.427   3.263  0.5746 -0.0605 -4.1298
   52MOL0     H 6973   4.828   1.559   3.345  2.3132  2.8082 -0.5379
   52MOL0     H 6974   4.744   1.486   3.117  0.2185 -0.4257  1.2239
   52MOL0     H 6975   4.888   1.578   3.056  1.0963 -0.4753  0.6783
   52MOL0     H 6976   4.811   1.773   3.115  1.2880 -1.0920 -0.0693
   52MOL0     H 6977   4.713   1.726   3.251  3.3464 -1.8790  0.6033
   52MOL0     H 6978   4.640   1.661   2.968 -0.2893 -2.1735  0.3647
   52MOL0     H 6979   4.573   1.795   3.058  1.0718  1.7728  2.1441
   52MOL0     H 6980   4.327   1.449   3.203  1.0914 -0.6087 -1.1864
   52MOL0     H 6981   3.997   1.431   3.186 -0.7240 -1.0859 -0.0864
   52MOL0     H 6982   4.040   1.339   3.045 -2.5717  0.8740  0.1911
   52MOL0     H 6983   4.139   1.319   3.193  1.2409  0.7354 -0.2392
   52MOL0     H 6984   3.700   1.513   3.178 -1.6946  1.0640  0.4664
   52MOL0     H 6985   3.467   1.554   3.171  2.4178 -2.1051  1.3076
   52MOL0     H 6986   3.240   1.475   3.054 -1.5270 -0.1361 -0.3532
   52MOL0     H 6987   3.243   1.634   3.142  1.5583 -1.3006  0.1259
   52MOL0     H 6988   3.083   1.546   2.898  0.8862 -1.1613  0.0253
   52MOL0     H 6989   3.013   1.555   3.067  0.5017  3.0103  2.7872
   52MOL0     H 6990   3.109   1.805   2.926 -0.3249 -0.9844 -0.1778
   52MOL0     H 6991   3.022   1.793   3.074 -3.0582  0.0287 -0.5197
   52MOL0     H 6992   2.913   1.684   2.812 -1.5943 -2.1044  0.8735
   52MOL0     H 6993   2.822   1.707   2.953 -1.3918 -2.3391 -3.9662
   52MOL0     H 6994   2.945   1.902   2.768  1.8753 -2.1574  0.9109
   52MOL0     H 6995   2.915   1.970   2.924  1.4076  2.9148 -2.8795
   52MOL0     H 6996   2.731   2.022   2.806 -0.1579 -0.9188 -1.8552
   52MOL0     H 6997   2.694   1.856   2.754  1.3097  1.9732 -2.3950
   52MOL0     H 6998   2.695   1.932   3.051 -3.9523 -0.2491  1.9278
   52MOL0     H 6999   2.621   1.797   2.958 -0.1730  0.0684  0.6623
   52MOL0     H 7000   2.429   1.938   2.982  0.6730 -1.0552 -1.8926
   52MOL0     H 7001   2.489   1.972   2.827 -0.5663  0.7148  0.7629
   52MOL0     H 7002   3.493   1.690   2.770 -0.7795 -0.7931  0.8754
   52MOL0     H 7003   3.742   1.672   2.788 -3.2853 -0.1033 -1.5334
   52MOL0     H 7004   4.179   1.779   2.867 -1.0211 -1.9854 -2.0430
   52MOL0     H 7005   4.408   1.776   2.926  0.0980 -1.1043 -2.3807
   52MOL0     H 7006   6.246   1.225   2.767 -0.3663  0.1699  1.1891
   52MOL0     H 7007   6.508   1.236   2.711 -2.2768 -2.6825 -0.6877
   52MOL0     H 7008   6.856   1.266   2.688 -1.6968  1.1404  1.4693
   52MOL0     H 7009   7.105   1.207   2.668  1.1083 -0.1905  3.3692
   52MOL0     H 7010   7.361   1.446   2.459  1.3706  1.7876 -0.5070
   52MOL0     H 7011   7.398   1.549   2.602  0.7421  0.8637 -1.8227
   52MOL0     H 7012   7.560   1.284   2.579  0.4512 -0.2717 -0.2730
   52MOL0     H 7013   7.567   1.421   2.692  0.3322 -3.2063  0.8196
   52MOL0     H 7014   7.641   1.573   2.510  2.6482  0.0521 -1.1505
   52MOL0     H 7015   7.588   1.456   2.389 -0.1455  0.4962  0.6626
   52MOL0     H 7016   7.785   1.404   2.611 -2.1236  2.8042  0.5444
   52MOL0     H 7017   7.844   1.491   2.471  1.3508 -0.5035  1.0247
   52MOL0     H 7018   7.801   1.114   2.293 -1.1512 -1.4223  1.9641
   52MOL0     H 7019   7.196   1.623   2.586  1.0126 -0.2473  0.1258
   52MOL0     H 7020   6.963   1.686   2.617  1.4716  0.3988  0.2023
   53MOL0     O 7021   8.199   0.373   3.169  0.1468 -0.0053  0.7053
   53MOL0     C 7022   8.114   0.284   3.147 -0.2526  0.0624  0.3299
   53MOL0     O 7023   7.987   0.306   3.120  0.6811  0.8163 -1.2448
   53MOL0     C 7024   7.936   0.429   3.124  0.2361 -0.3106  0.3142
   53MOL0     C 7025   7.828   0.441   3.214  1.0085 -1.1794  0.5639
   53MOL0     C 7026   7.769   0.571   3.220  0.6507 -0.2394 -0.4309
   53MOL0     C 7027   7.812   0.678   3.140  1.0891  0.1290 -0.2856
   53MOL0     O 7028   7.741   0.795   3.165 -0.2720  0.2343  0.4335
   53MOL0     C 7029   7.688   0.872   3.053  0.0238 -0.3251  0.2968
   53MOL0     C 7030   7.535   0.862   3.049 -0.3619 -0.2740  0.4195
   53MOL0     C 7031   7.493   0.892   3.190  0.3776 -0.6413  0.2075
   53MOL0     C 7032   7.340   0.899   3.181  0.5903 -0.3493 -0.0866
   53MOL0     C 7033   7.267   0.961   3.308 -0.2480  0.8994 -0.0799
   53MOL0     C 7034   7.116   0.985   3.283 -0.2143  0.0240  0.1680
   53MOL0     C 7035   7.046   1.094   3.367 -0.4354  0.0624  0.6512
   53MOL0     C 7036   6.895   1.095   3.338  0.2523  0.1600  0.0519
   53MOL0     N 7037   6.817   0.994   3.416  0.4518 -0.5708 -0.2843
   53MOL0     C 7038   6.681   0.988   3.427  0.2426  0.3246 -0.0035
   53MOL0     C 7039   6.658   0.891   3.521 -0.3872 -0.7588  0.7023
   53MOL0     C 7040   6.525   0.848   3.582  0.6699  0.0651 -0.1065
   53MOL0     C 7041   6.429   0.798   3.471 -0.5314  0.0289 -0.2701
   53MOL0     C 7042   6.304   0.738   3.535  0.3045  0.1693  0.3697
   53MOL0     C 7043   6.224   0.682   3.419 -0.0338  0.8305 -0.0337
   53MOL0     O 7044   6.095   0.633   3.465 -0.0778  0.4024 -0.1176
   53MOL0     C 7045   5.985   0.717   3.471 -0.3727  0.2944 -0.3270
   53MOL0     C 7046   5.997   0.856   3.461 -0.1361 -0.2877  0.1210
   53MOL0     C 7047   5.890   0.943   3.478 -0.0233  0.3010  0.0979
   53MOL0     C 7048   5.912   1.092   3.453  0.6471 -0.2044 -0.2875
   53MOL0     C 7049   5.760   0.890   3.492  0.4876  0.0827 -0.4186
   53MOL0     C 7050   5.638   0.978   3.517 -0.2034  0.6658  0.4774
   53MOL0     O 7051   5.660   1.105   3.572  0.4354  0.2851  0.5369
   53MOL0     C 7052   5.542   1.178   3.587  0.2211  0.1471 -0.8050
   53MOL0     C 7053   5.512   1.255   3.477  0.5051 -0.6852 -0.2083
   53MOL0     C 7054   5.403   1.344   3.477  0.4352 -0.2741  0.8941
   53MOL0     C 7055   5.306   1.343   3.580  0.2703 -0.4314 -0.0375
   53MOL0     O 7056   5.208   1.436   3.573  0.2216  0.8376 -0.6231
   53MOL0     C 7057   5.129   1.466   3.685 -0.1746 -0.4332 -0.5814
   53MOL0     C 7058   5.029   1.573   3.644 -0.1160  0.0445  0.2619
   53MOL0     C 7059   4.891   1.558   3.728 -0.7917  0.2685  0.9582
   53MOL0     C 7060   4.927   1.541   3.882 -0.6455  0.3945 -0.4359
   53MOL0     C 7061   4.822   1.561   3.984 -0.3490  0.5529 -0.2526
   53MOL0     C 7062   4.712   1.470   3.956 -0.2566 -0.4200  0.4825
   53MOL0     C 7063   4.600   1.468   4.064 -0.1197  0.2385 -0.2895
   53MOL0     C 7064   4.522   1.594   4.082  0.6136 -0.6682  0.0507
   53MOL0    Cl 7065   4.595   1.721   4.180 -0.0901  0.2361 -0.1727
   53MOL0     C 7066   5.330   1.260   3.690  0.3086 -0.1367  0.3036
   53MOL0     C 7067   5.441   1.174   3.694 -1.0903 -0.2220  0.5112
   53MOL0     O 7068   5.525   0.929   3.487  0.0110  0.1514  0.4196
   53MOL0     C 7069   5.746   0.748   3.496 -0.4096  0.1732 -0.0275
   53MOL0     C 7070   5.861   0.668   3.493 -0.4657  0.1522 -0.1568
   53MOL0     N 7071   6.780   0.830   3.551  0.4341 -0.1617  0.0494
   53MOL0     N 7072   6.875   0.898   3.488  0.2471 -0.3106  0.7566
   53MOL0     C 7073   7.915   0.661   3.053 -0.0003 -0.0685 -0.7497
   53MOL0     C 7074   7.985   0.540   3.049 -0.1113  0.0946 -0.1410
   53MOL0     C 7075   8.159   0.139   3.148  1.0669 -0.1612  0.3756
   53MOL0     C 7076   8.064   0.034   3.166  0.2156 -0.6081  0.3696
   53MOL0     C 7077   8.101  -0.096   3.150 -0.2275  0.5984 -0.4696
   53MOL0     C 7078   8.234  -0.124   3.115 -0.7031 -0.2206  0.5343
   53MOL0     O 7079   8.280  -0.246   3.083  0.1856  0.9262  0.7894
   53MOL0     C 7080   8.197  -0.365   3.110 -0.9996 -0.1181  0.9534
   53MOL0     C 7081   8.107  -0.401   2.990 -0.6522 -0.3922 -0.6749
   53MOL0     C 7082   8.198  -0.463   2.875 -0.0984  0.3420  0.1307
   53MOL0     C 7083   8.121  -0.513   2.752  0.0185 -0.3150  0.0579
   53MOL0     C 7084   8.078  -0.405   2.662  0.4057  1.5007 -0.7682
   53MOL0     C 7085   8.045  -0.330   2.574 -0.4627  0.6281 -0.3915
   53MOL0     C 7086   8.327  -0.022   3.105 -0.4321  0.0925 -0.3832
   53MOL0     C 7087   8.289   0.110   3.128  0.1766 -0.2638  0.3988
   53MOL0     H 7088   7.798   0.349   3.264  0.9120 -1.9487 -0.8696
   53MOL0     H 7089   7.697   0.587   3.300  1.4434  1.0267  0.0622
   53MOL0     H 7090   7.712   0.978   3.064 -0.5451  0.0545 -1.6911
   53MOL0     H 7091   7.738   0.852   2.958  0.0415 -0.2591  0.2922
   53MOL0     H 7092   7.504   0.939   2.978 -0.1211 -1.3837 -0.9327
   53MOL0     H 7093   7.508   0.762   3.014  0.6197 -0.3650 -0.1448
   53MOL0     H 7094   7.523   0.814   3.261 -0.1122  0.3547  1.5535
   53MOL0     H 7095   7.537   0.984   3.231  0.5579 -0.5851 -0.1056
   53MOL0     H 7096   7.318   0.961   3.093  1.8456  0.0998 -0.0989
   53MOL0     H 7097   7.299   0.802   3.153 -0.4464  0.1610 -0.4147
   53MOL0     H 7098   7.288   0.906   3.400  1.1015 -1.6139 -1.7496
   53MOL0     H 7099   7.315   1.057   3.330  1.8527 -0.6018  2.4207
   53MOL0     H 7100   7.106   1.030   3.184 -1.7043  0.9090  0.6825
   53MOL0     H 7101   7.064   0.889   3.290  0.0785 -0.2915 -1.5738
   53MOL0     H 7102   7.073   1.101   3.473  4.2080 -2.3899 -0.1283
   53MOL0     H 7103   7.096   1.179   3.319  2.6226 -1.2467  1.3254
   53MOL0     H 7104   6.865   1.085   3.234  0.5638  0.3857 -0.0598
   53MOL0     H 7105   6.851   1.187   3.378 -0.1511  0.3322 -0.7649
   53MOL0     H 7106   6.607   1.046   3.372 -1.4672 -0.5617  1.2507
   53MOL0     H 7107   6.552   0.765   3.648  0.7337  0.0569 -0.1434
   53MOL0     H 7108   6.474   0.929   3.635 -0.0818  2.0926 -3.6453
   53MOL0     H 7109   6.480   0.729   3.404 -0.1620  1.4942 -1.5790
   53MOL0     H 7110   6.402   0.884   3.408  1.3502 -0.5037 -1.8634
   53MOL0     H 7111   6.235   0.802   3.591  2.0142  1.8542  0.6378
   53MOL0     H 7112   6.331   0.656   3.603 -2.9313  0.6952  2.5046
   53MOL0     H 7113   6.281   0.593   3.389 -0.9410 -0.2713  1.3902
   53MOL0     H 7114   6.213   0.760   3.343  0.4985 -0.1473 -1.1522
   53MOL0     H 7115   6.092   0.903   3.439  0.1016 -0.7727  0.1047
   53MOL0     H 7116   6.016   1.105   3.422  0.9869 -2.4317 -0.1813
   53MOL0     H 7117   5.839   1.120   3.377 -1.5115  0.0830  1.7577
   53MOL0     H 7118   5.890   1.150   3.544 -1.5573 -0.4556 -0.6064
   53MOL0     H 7119   5.575   1.254   3.389  1.5724 -0.8372  0.5338
   53MOL0     H 7120   5.395   1.414   3.394 -1.3807  1.3532  2.3546
   53MOL0     H 7121   5.067   1.380   3.712  1.0456 -1.0233  0.3739
   53MOL0     H 7122   5.189   1.500   3.769  2.8333 -3.1108 -1.4688
   53MOL0     H 7123   5.071   1.671   3.665 -3.3458  1.0242  2.9811
   53MOL0     H 7124   5.012   1.565   3.536  1.6481  1.9879 -0.2079
   53MOL0     H 7125   4.825   1.479   3.690  0.4978 -0.5533  0.3618
   53MOL0     H 7126   4.844   1.656   3.725  3.7931  2.7203  0.1231
   53MOL0     H 7127   4.967   1.441   3.895  0.6805  0.8681 -0.6937
   53MOL0     H 7128   5.014   1.603   3.907 -0.5067  0.6003 -1.3949
   53MOL0     H 7129   4.786   1.665   3.981 -2.4175 -0.0952  0.2453
   53MOL0     H 7130   4.868   1.546   4.082 -1.9832  0.7455  0.5827
   53MOL0     H 7131   4.665   1.506   3.864  1.4087  1.4868  0.2870
   53MOL0     H 7132   4.747   1.370   3.932  1.0857 -0.3037  1.7755
   53MOL0     H 7133   4.643   1.452   4.164 -1.8009 -0.1671  0.4114
   53MOL0     H 7134   4.527   1.395   4.027  0.9823 -0.4578 -1.1178
   53MOL0     H 7135   4.420   1.580   4.117 -0.8335  4.8444 -0.9996
   53MOL0     H 7136   4.493   1.619   3.979 -2.4110 -5.0898 -0.4605
   53MOL0     H 7137   5.262   1.240   3.772 -2.0310 -0.4473 -1.5762
   53MOL0     H 7138   5.429   1.099   3.772 -2.0195  0.4213  1.0093
   53MOL0     H 7139   5.646   0.708   3.503 -0.5358  0.5825  0.5394
   53MOL0     H 7140   5.846   0.562   3.510 -1.4396  0.4805  1.2342
   53MOL0     H 7141   7.936   0.748   2.991  0.3021  0.2515 -0.2144
   53MOL0     H 7142   8.069   0.534   2.979 -0.7618  1.5222 -1.0885
   53MOL0     H 7143   7.956   0.047   3.174  0.2656 -0.9853  2.0121
   53MOL0     H 7144   8.021  -0.169   3.145  0.3183  0.0538 -4.6432
   53MOL0     H 7145   8.262  -0.446   3.145  0.6422  0.9466  0.4767
   53MOL0     H 7146   8.138  -0.354   3.202  0.6704 -1.0800  2.2021
   53MOL0     H 7147   8.067  -0.308   2.950  0.8970  1.2510  1.3912
   53MOL0     H 7148   8.028  -0.474   3.010 -1.6764  0.2768 -2.1030
   53MOL0     H 7149   8.249  -0.546   2.923 -0.6217  0.9439  1.7893
   53MOL0     H 7150   8.263  -0.385   2.834 -1.4073  0.1383 -2.6037
   53MOL0     H 7151   8.038  -0.578   2.783 -2.2482  1.0446 -2.6484
   53MOL0     H 7152   8.180  -0.584   2.693 -3.6039 -2.1635 -1.7283
   53MOL0     H 7153   7.995  -0.276   2.496 -2.3975 -3.3360 -2.1897
   53MOL0     H 7154   8.432  -0.044   3.090 -0.0811  1.6457 -0.3302
   53MOL0     H 7155   8.368   0.184   3.113 -0.1051  0.0730  0.5743
   54MOL0     O 7156   5.914   3.139   5.058  0.3049  0.3910  0.7382
   54MOL0     C 7157   6.017   3.110   5.119 -0.1584 -1.0216  0.5173
   54MOL0     O 7158   6.031   3.095   5.252  0.2351 -0.4263 -0.1860
   54MOL0     C 7159   5.933   3.127   5.337 -0.6933  0.7528 -0.0352
   54MOL0     C 7160   5.799   3.093   5.324  0.4005  1.0056 -0.1481
   54MOL0     C 7161   5.695   3.127   5.420 -0.2299 -0.2432  0.2927
   54MOL0     C 7162   5.739   3.187   5.539 -0.4365  1.0757 -0.0204
   54MOL0     O 7163   5.641   3.225   5.632  0.0790  0.6481 -0.8553
   54MOL0     C 7164   5.662   3.319   5.735 -0.0973 -0.4198 -0.1916
   54MOL0     C 7165   5.540   3.319   5.820  0.0671 -0.1324  0.4977
   54MOL0     C 7166   5.524   3.188   5.900  0.3684  0.8244 -0.1179
   54MOL0     C 7167   5.380   3.167   5.949 -0.3444  0.2236 -0.7475
   54MOL0     C 7168   5.282   3.120   5.833 -0.1549  0.3256 -0.0937
   54MOL0     C 7169   5.154   3.090   5.904  0.0208  0.6675 -0.2523
   54MOL0     C 7170   5.072   2.991   5.824 -0.2093  0.0179 -0.9536
   54MOL0     C 7171   5.008   3.054   5.698 -0.7020 -0.1714 -0.1743
   54MOL0     N 7172   4.867   3.006   5.692 -0.8313  0.3121 -0.2207
   54MOL0     C 7173   4.766   3.032   5.777 -0.0642  0.4693  0.3307
   54MOL0     C 7174   4.659   2.989   5.717  0.2524  0.4603  0.0760
   54MOL0     C 7175   4.524   2.995   5.773  0.2404 -0.1272 -0.5416
   54MOL0     C 7176   4.482   3.144   5.797  0.1993  0.7980 -0.3868
   54MOL0     C 7177   4.336   3.153   5.838  0.3799 -0.6261 -0.5588
   54MOL0     C 7178   4.242   3.141   5.718 -0.3156 -0.3041  0.0401
   54MOL0     O 7179   4.105   3.142   5.755  0.0792 -0.1829 -0.0405
   54MOL0     C 7180   4.006   3.160   5.665 -0.9066 -0.7409  0.3210
   54MOL0     C 7181   3.878   3.175   5.717 -0.0506 -0.1205  0.1448
   54MOL0     C 7182   3.766   3.202   5.631 -0.7295 -0.6928 -0.0494
   54MOL0     C 7183   3.634   3.218   5.699  0.3736 -1.4111  0.4823
   54MOL0     C 7184   3.788   3.230   5.491 -0.0276  0.1552  0.8011
   54MOL0     C 7185   3.671   3.229   5.397  0.0249  0.4139  0.2079
   54MOL0     O 7186   3.583   3.124   5.418  0.2654  0.3446  0.0331
   54MOL0     C 7187   3.449   3.129   5.371 -0.3104 -0.1958 -0.7493
   54MOL0     C 7188   3.374   3.245   5.381 -0.1752 -0.1139 -0.1776
   54MOL0     C 7189   3.236   3.239   5.350 -0.3163  0.5432 -0.2534
   54MOL0     C 7190   3.175   3.131   5.298 -0.3974  0.4751 -0.5193
   54MOL0     O 7191   3.042   3.130   5.253  0.3736 -0.3433  0.2394
   54MOL0     C 7192   2.985   3.250   5.203  0.4816 -0.1196 -0.3731
   54MOL0     C 7193   2.848   3.220   5.132  0.4395 -0.2922 -0.4573
   54MOL0     C 7194   2.755   3.132   5.216  0.2123  0.4830  0.9214
   54MOL0     C 7195   2.600   3.142   5.182 -0.2580  0.4939  0.5009
   54MOL0     C 7196   2.503   3.074   5.275 -0.1403  0.9998  0.5529
   54MOL0     C 7197   2.367   3.132   5.262  0.4179  0.3810  0.6415
   54MOL0     C 7198   2.267   3.074   5.363  0.3003  0.7061  0.3836
   54MOL0     C 7199   2.265   3.154   5.492  0.6751 -0.2828 -0.0257
   54MOL0    Cl 7200   2.155   3.065   5.603 -0.1892 -0.1078  0.0094
   54MOL0     C 7201   3.256   3.016   5.272  0.1915  0.1009 -0.3732
   54MOL0     C 7202   3.396   3.014   5.317  0.9482  0.6109 -0.2288
   54MOL0     O 7203   3.664   3.313   5.309  0.6790 -0.4319  0.2969
   54MOL0     C 7204   3.919   3.224   5.447 -0.7560 -0.2553 -0.3628
   54MOL0     C 7205   4.026   3.196   5.527  0.3690  0.2716 -0.1070
   54MOL0     N 7206   4.697   2.915   5.601 -0.2756 -0.0033  0.5026
   54MOL0     N 7207   4.821   2.934   5.587 -0.0049 -0.8763  0.0142
   54MOL0     C 7208   5.869   3.210   5.561 -1.0820  0.2557 -0.3552
   54MOL0     C 7209   5.963   3.177   5.462 -0.3410 -0.2419  0.0092
   54MOL0     C 7210   6.138   3.096   5.032 -0.3767  0.1800 -0.4791
   54MOL0     C 7211   6.267   3.102   5.095  0.3183 -0.0767  0.3523
   54MOL0     C 7212   6.383   3.088   5.009  0.0015  0.2027 -0.0075
   54MOL0     C 7213   6.370   3.077   4.870 -0.2882  0.5653  0.0021
   54MOL0     O 7214   6.482   3.079   4.800 -0.6994 -0.1341 -0.2417
   54MOL0     C 7215   6.477   3.054   4.661  0.3523  0.4399  0.3204
   54MOL0     C 7216   6.613   3.087   4.606 -0.5633  0.1222  0.1126
   54MOL0     C 7217   6.691   2.957   4.591  0.2090  0.2130  0.9136
   54MOL0     C 7218   6.824   2.995   4.516  0.4820  0.0663 -0.0228
   54MOL0     C 7219   6.917   2.884   4.534 -0.3015  0.2143 -0.6594
   54MOL0     C 7220   7.004   2.797   4.540 -0.8710  0.1848  0.6484
   54MOL0     C 7221   6.242   3.056   4.818 -0.2785  0.0307  0.4738
   54MOL0     C 7222   6.130   3.068   4.901 -0.2159 -0.8969  0.7621
   54MOL0     H 7223   5.763   3.049   5.231  2.0672 -1.2784  0.2062
   54MOL0     H 7224   5.589   3.107   5.416 -0.7501  0.9376  4.3405
   54MOL0     H 7225   5.745   3.295   5.803  0.1073  2.2018  0.5936
   54MOL0     H 7226   5.681   3.418   5.693 -0.0155 -0.1010  0.5849
   54MOL0     H 7227   5.540   3.407   5.885 -0.1825  0.5976 -0.4698
   54MOL0     H 7228   5.449   3.340   5.763 -0.6263  0.5930  1.8063
   54MOL0     H 7229   5.552   3.103   5.837 -0.7439  0.2741  0.1022
   54MOL0     H 7230   5.597   3.189   5.981  3.1753  0.1529 -2.4882
   54MOL0     H 7231   5.387   3.089   6.025 -2.0866 -0.4710 -1.2321
   54MOL0     H 7232   5.343   3.256   6.001 -0.5904 -0.2161 -0.1553
   54MOL0     H 7233   5.271   3.198   5.757 -1.3832 -0.9836 -1.3433
   54MOL0     H 7234   5.327   3.031   5.788 -1.2752  0.8800 -2.4396
   54MOL0     H 7235   5.178   3.039   5.998 -0.9572  0.8073  0.0792
   54MOL0     H 7236   5.103   3.184   5.929 -0.4742  0.6657 -1.2157
   54MOL0     H 7237   5.147   2.917   5.795  0.3174  0.7772 -1.5494
   54MOL0     H 7238   5.002   2.949   5.897 -0.0724  0.9729 -0.2668
   54MOL0     H 7239   5.057   3.030   5.603 -2.1006 -2.5544 -0.3731
   54MOL0     H 7240   4.993   3.161   5.717 -1.3219 -0.2261 -0.3327
   54MOL0     H 7241   4.776   3.087   5.870 -1.1785  1.2779 -0.0019
   54MOL0     H 7242   4.460   2.943   5.702  0.2510 -1.2312  0.2354
   54MOL0     H 7243   4.520   2.937   5.866  2.1131  0.6895  0.1038
   54MOL0     H 7244   4.492   3.199   5.703 -1.0465  1.4819 -0.1465
   54MOL0     H 7245   4.551   3.192   5.867  2.1417 -0.3956 -1.3842
   54MOL0     H 7246   4.329   3.252   5.882 -0.4643 -0.3831 -1.2273
   54MOL0     H 7247   4.313   3.084   5.920 -1.2650  0.9013  0.3335
   54MOL0     H 7248   4.267   3.045   5.672 -2.8407 -1.8469  1.6968
   54MOL0     H 7249   4.264   3.236   5.668 -0.0078  1.0283  2.5725
   54MOL0     H 7250   3.855   3.167   5.822  0.5315 -0.8690  0.2200
   54MOL0     H 7251   3.652   3.279   5.788 -0.9090  0.8145 -0.6911
   54MOL0     H 7252   3.563   3.272   5.635  1.1979  0.9674  1.4561
   54MOL0     H 7253   3.589   3.123   5.727 -0.9510 -0.9719 -0.0779
   54MOL0     H 7254   3.420   3.338   5.413  0.7616 -0.0115 -1.7101
   54MOL0     H 7255   3.178   3.330   5.366 -1.7067 -0.2606 -0.5652
   54MOL0     H 7256   2.967   3.322   5.283 -0.2066  0.4221 -0.9968
   54MOL0     H 7257   3.056   3.297   5.134 -0.1207 -1.5652 -2.0535
   54MOL0     H 7258   2.797   3.316   5.118  0.7498  0.4456  2.7579
   54MOL0     H 7259   2.876   3.178   5.035  1.7680  3.6402 -1.9977
   54MOL0     H 7260   2.771   3.164   5.319  0.4138  2.7265  0.2504
   54MOL0     H 7261   2.795   3.031   5.230 -0.1300  0.2933  0.5836
   54MOL0     H 7262   2.574   3.248   5.177  2.1719  1.0723 -1.6694
   54MOL0     H 7263   2.584   3.108   5.079 -1.9090  0.2704  0.8009
   54MOL0     H 7264   2.543   3.084   5.376  0.8500  0.5566  0.2257
   54MOL0     H 7265   2.495   2.969   5.245 -2.8900  1.5003 -0.7975
   54MOL0     H 7266   2.367   3.241   5.257  2.6836  0.4920 -5.4480
   54MOL0     H 7267   2.339   3.105   5.159 -0.2183  1.3869  0.5473
   54MOL0     H 7268   2.280   2.967   5.379 -0.2500  0.6055  0.1647
   54MOL0     H 7269   2.165   3.086   5.326  0.3973 -2.0374 -1.0158
   54MOL0     H 7270   2.220   3.251   5.469 -2.2542 -2.0176 -2.4690
   54MOL0     H 7271   2.366   3.162   5.533  1.3624 -1.4102 -1.4392
   54MOL0     H 7272   3.208   2.935   5.219 -1.2040  0.3148  0.5066
   54MOL0     H 7273   3.462   2.928   5.306  0.4655  0.0889  0.7824
   54MOL0     H 7274   3.933   3.222   5.339  0.4631 -0.5378 -0.2122
   54MOL0     H 7275   4.120   3.191   5.472 -0.1311 -1.2275 -0.8860
   54MOL0     H 7276   5.913   3.262   5.645  3.0347  2.1962 -3.3760
   54MOL0     H 7277   6.068   3.189   5.485 -0.3558 -1.6648  0.9621
   54MOL0     H 7278   6.269   3.116   5.202 -0.8133  0.4641  0.3176
   54MOL0     H 7279   6.483   3.098   5.051  0.2427 -1.1681 -0.2107
   54MOL0     H 7280   6.452   2.949   4.645 -0.6265  0.1465  3.1511
   54MOL0     H 7281   6.400   3.107   4.604 -0.1853 -0.2798  0.3588
   54MOL0     H 7282   6.655   3.165   4.671  0.4231 -0.8372  0.6777
   54MOL0     H 7283   6.602   3.139   4.511  1.3968  1.3154  0.4726
   54MOL0     H 7284   6.635   2.882   4.536  4.0192 -2.8238  0.7476
   54MOL0     H 7285   6.723   2.909   4.684  1.1894 -0.3449  0.3038
   54MOL0     H 7286   6.868   3.086   4.558 -0.2182 -0.3218  1.5994
   54MOL0     H 7287   6.807   3.005   4.408  1.2729 -3.8537 -0.6672
   54MOL0     H 7288   7.081   2.723   4.541  1.0936  2.1171  0.2906
   54MOL0     H 7289   6.232   3.035   4.712  1.4252 -0.4330  0.3860
   54MOL0     H 7290   6.038   3.062   4.843  2.2376 -0.9206 -3.5856
   55MOL0     O 7291  10.327   2.881   6.402  0.4898 -0.7049  0.1428
   55MOL0     C 7292  10.404   2.890   6.495  0.2773  0.9160 -1.1014
   55MOL0     O 7293  10.362   2.896   6.628 -0.0069 -0.3326  0.2606
   55MOL0     C 7294  10.226   2.923   6.666 -1.2665  0.6107 -0.0416
   55MOL0     C 7295  10.123   2.845   6.629  0.5074 -0.3468 -0.3640
   55MOL0     C 7296   9.988   2.879   6.663 -0.8045  0.4472 -0.1713
   55MOL0     C 7297   9.957   2.991   6.728 -0.3335 -0.5631  0.5579
   55MOL0     O 7298   9.826   3.033   6.738 -0.1762 -0.1365 -0.4400
   55MOL0     C 7299   9.755   2.935   6.808  0.7810  0.3060 -0.3619
   55MOL0     C 7300   9.642   3.004   6.884  0.4779  0.0673 -0.1241
   55MOL0     C 7301   9.523   3.014   6.789 -0.8401  0.4921  0.2690
   55MOL0     C 7302   9.427   3.112   6.850  0.2362 -0.0060 -0.2210
   55MOL0     C 7303   9.286   3.103   6.787  0.6597 -0.1555 -0.3672
   55MOL0     C 7304   9.265   3.130   6.636  0.0542  0.3669 -0.0125
   55MOL0     C 7305   9.131   3.067   6.586 -0.0932 -0.4026 -0.3564
   55MOL0     C 7306   9.015   3.165   6.615 -0.5392  0.5360 -0.3154
   55MOL0     N 7307   8.877   3.113   6.578 -1.0731  0.4289  0.2828
   55MOL0     C 7308   8.802   3.143   6.469 -0.4226  0.8248 -0.1718
   55MOL0     C 7309   8.702   3.054   6.472 -0.2026 -0.4667 -0.8984
   55MOL0     C 7310   8.593   3.050   6.372  0.1136 -0.3230  0.2277
   55MOL0     C 7311   8.465   3.121   6.414  0.7699  0.2434  0.4206
   55MOL0     C 7312   8.345   3.066   6.338  0.3228  0.5986 -0.5815
   55MOL0     C 7313   8.219   3.139   6.378  1.0158  0.8395 -0.2580
   55MOL0     O 7314   8.136   3.132   6.264  0.7809 -0.0493  0.8135
   55MOL0     C 7315   8.051   3.239   6.243  0.1597  0.1308 -0.5257
   55MOL0     C 7316   8.027   3.349   6.325  0.3845  0.3646  0.2498
   55MOL0     C 7317   7.932   3.454   6.292  0.5622  0.0506 -0.2828
   55MOL0     C 7318   7.912   3.549   6.414  0.1993 -0.4092 -0.6015
   55MOL0     C 7319   7.855   3.442   6.177 -0.3510  0.3579 -0.5885
   55MOL0     C 7320   7.768   3.551   6.137 -0.0586 -0.4312 -0.4201
   55MOL0     O 7321   7.698   3.527   6.018 -0.0672 -0.0294 -0.7246
   55MOL0     C 7322   7.577   3.594   5.983  0.2974 -0.4286  0.4546
   55MOL0     C 7323   7.486   3.660   6.077 -0.5779  0.2049  0.4782
   55MOL0     C 7324   7.362   3.715   6.019  0.4574 -0.5404  0.2849
   55MOL0     C 7325   7.339   3.702   5.880 -0.3878  0.2030  0.0235
   55MOL0     O 7326   7.222   3.763   5.850  0.0435  0.7680 -0.0376
   55MOL0     C 7327   7.192   3.792   5.713 -0.1407  0.7373 -1.0915
   55MOL0     C 7328   7.061   3.862   5.675 -0.7705  0.6643  0.2004
   55MOL0     C 7329   7.036   3.991   5.754 -0.2405 -0.1569  0.8293
   55MOL0     C 7330   6.882   4.005   5.787 -0.2535 -0.2978 -0.0978
   55MOL0     C 7331   6.861   4.139   5.855  0.8566 -0.1920 -0.6971
   55MOL0     C 7332   6.707   4.183   5.854  0.1972  0.3311  0.3988
   55MOL0     C 7333   6.688   4.319   5.912  0.6076 -0.1202 -0.3205
   55MOL0     C 7334   6.542   4.367   5.921 -0.0215 -0.1852  0.4678
   55MOL0    Cl 7335   6.449   4.273   6.052 -0.2800 -0.0308  0.0135
   55MOL0     C 7336   7.447   3.658   5.787  0.6375 -0.7997  0.5236
   55MOL0     C 7337   7.560   3.598   5.847  0.9777  0.1863  0.2575
   55MOL0     O 7338   7.763   3.658   6.203 -0.2072 -0.3712  0.4138
   55MOL0     C 7339   7.882   3.329   6.088 -0.4088  0.5734  0.4365
   55MOL0     C 7340   7.979   3.236   6.124 -0.2523  1.0101  0.1032
   55MOL0     N 7341   8.704   2.980   6.591  0.0634 -0.1500 -0.3240
   55MOL0     N 7342   8.816   3.020   6.654 -0.4135  0.3703 -0.5761
   55MOL0     C 7343  10.064   3.074   6.772  0.2375 -0.3582 -0.7305
   55MOL0     C 7344  10.196   3.043   6.743  0.0836 -0.0027 -0.1523
   55MOL0     C 7345  10.548   2.874   6.464  0.4846  0.5940 -0.3125
   55MOL0     C 7346  10.604   2.854   6.337  0.2844  0.9824  0.0185
   55MOL0     C 7347  10.734   2.868   6.294 -0.4075 -0.6208 -0.5658
   55MOL0     C 7348  10.830   2.910   6.387  0.0951 -0.8056  0.0999
   55MOL0     O 7349  10.954   2.932   6.336 -0.5515 -0.0047 -0.1927
   55MOL0     C 7350  11.061   2.958   6.423 -0.8482  0.1648 -0.5477
   55MOL0     C 7351  11.101   2.842   6.520  0.1895 -0.5003  0.4138
   55MOL0     C 7352  11.174   2.718   6.460 -0.0074  0.1738  0.2000
   55MOL0     C 7353  11.308   2.730   6.391  0.1770  0.4587 -0.2851
   55MOL0     C 7354  11.416   2.766   6.487 -0.2969  0.4705 -0.2467
   55MOL0     C 7355  11.512   2.776   6.561 -0.3355 -0.5089 -0.0871
   55MOL0     C 7356  10.787   2.924   6.522  0.3773  0.5730 -0.4633
   55MOL0     C 7357  10.650   2.904   6.560  0.4366  0.1444 -0.6423
   55MOL0     H 7358  10.136   2.760   6.564 -1.1030 -1.7981  1.1198
   55MOL0     H 7359   9.905   2.813   6.641  0.4622 -1.4048  0.3268
   55MOL0     H 7360   9.707   2.862   6.743 -3.1410  0.9785  1.4610
   55MOL0     H 7361   9.809   2.877   6.884 -0.1470 -0.0358  0.0537
   55MOL0     H 7362   9.611   2.929   6.957  0.5142  1.9075  1.8532
   55MOL0     H 7363   9.671   3.103   6.919  0.2671  1.5743 -3.7367
   55MOL0     H 7364   9.549   3.063   6.694 -0.9651  1.3882  0.6872
   55MOL0     H 7365   9.475   2.917   6.770 -1.0234  0.1133  2.4236
   55MOL0     H 7366   9.414   3.081   6.955  0.4449 -0.8339 -0.4287
   55MOL0     H 7367   9.479   3.208   6.857 -0.1896  0.4344 -2.3585
   55MOL0     H 7368   9.247   3.007   6.820 -0.4315  0.8492  1.4193
   55MOL0     H 7369   9.229   3.181   6.837  1.4621 -0.7729  1.5948
   55MOL0     H 7370   9.257   3.237   6.613  0.3973  0.1504 -1.2092
   55MOL0     H 7371   9.353   3.087   6.587  0.2425  0.1461  0.5225
   55MOL0     H 7372   9.135   3.050   6.478 -0.1936  2.1031 -0.8086
   55MOL0     H 7373   9.105   2.975   6.639 -0.2139 -1.4000 -2.0718
   55MOL0     H 7374   9.038   3.260   6.566 -0.2117 -0.1278 -1.4940
   55MOL0     H 7375   9.024   3.184   6.722  2.1508 -0.8228 -0.2012
   55MOL0     H 7376   8.816   3.210   6.386 -1.2823  0.1864 -0.8446
   55MOL0     H 7377   8.629   3.099   6.281 -2.1009 -2.3596 -1.9035
   55MOL0     H 7378   8.572   2.944   6.352  0.5535 -0.5488  0.9113
   55MOL0     H 7379   8.468   3.230   6.411 -1.4733  0.5254  3.6959
   55MOL0     H 7380   8.453   3.099   6.521  1.9361 -1.1092  0.3077
   55MOL0     H 7381   8.345   2.958   6.352 -0.7889  0.8080  1.3748
   55MOL0     H 7382   8.361   3.081   6.231  0.5633 -0.6942 -0.7407
   55MOL0     H 7383   8.231   3.244   6.407  0.4474  0.9352 -0.3636
   55MOL0     H 7384   8.167   3.085   6.457 -0.6765 -0.5740 -2.2308
   55MOL0     H 7385   8.081   3.374   6.416 -0.3350  2.6915  0.1067
   55MOL0     H 7386   7.811   3.573   6.448 -0.3550 -3.4109  0.2061
   55MOL0     H 7387   7.957   3.507   6.505  2.6569  1.4655 -0.8672
   55MOL0     H 7388   7.973   3.637   6.391  0.1165 -0.2275 -0.1391
   55MOL0     H 7389   7.515   3.665   6.182 -1.6412  1.0601  0.7506
   55MOL0     H 7390   7.286   3.764   6.079  1.0686  2.2273 -1.0509
   55MOL0     H 7391   7.274   3.856   5.679  0.2918  1.5170  1.2685
   55MOL0     H 7392   7.192   3.696   5.660 -2.3315 -0.0937  0.2697
   55MOL0     H 7393   7.058   3.889   5.570 -1.2634 -3.2713 -0.9706
   55MOL0     H 7394   6.977   3.792   5.690  0.0955 -0.3145  0.6449
   55MOL0     H 7395   7.076   4.074   5.696 -2.8317  0.8441  0.3159
   55MOL0     H 7396   7.084   3.984   5.852 -0.5165  0.3853  1.0095
   55MOL0     H 7397   6.824   4.002   5.694 -2.6150 -2.6823  1.3277
   55MOL0     H 7398   6.843   3.921   5.844  1.7328 -1.5845 -0.5267
   55MOL0     H 7399   6.913   4.219   5.802 -1.9859  0.1856 -3.1642
   55MOL0     H 7400   6.883   4.127   5.962 -0.5884  2.1845 -0.0814
   55MOL0     H 7401   6.663   4.188   5.754 -0.8500 -0.7461  0.7781
   55MOL0     H 7402   6.654   4.114   5.922 -1.0410  1.5252  0.6909
   55MOL0     H 7403   6.743   4.393   5.852 -0.3492 -1.7163 -3.3900
   55MOL0     H 7404   6.724   4.326   6.015 -1.3112  1.8267  0.3081
   55MOL0     H 7405   6.492   4.357   5.824 -2.4518 -1.0081  1.7152
   55MOL0     H 7406   6.540   4.475   5.936 -0.3334  0.1405 -1.5454
   55MOL0     H 7407   7.421   3.657   5.682 -0.1157  0.7303  0.6719
   55MOL0     H 7408   7.634   3.550   5.785  0.6686 -1.3010  0.9768
   55MOL0     H 7409   7.820   3.316   6.000 -1.4094 -1.3651  1.3806
   55MOL0     H 7410   7.997   3.155   6.054  0.1417 -0.0866  1.4234
   55MOL0     H 7411  10.028   3.154   6.837 -2.1146 -1.4746 -0.5526
   55MOL0     H 7412  10.279   3.108   6.766 -0.0182  0.8701 -2.0681
   55MOL0     H 7413  10.539   2.818   6.258  2.8264 -0.7183 -1.4727
   55MOL0     H 7414  10.758   2.865   6.188  3.1506  0.9123  0.0357
   55MOL0     H 7415  11.148   2.996   6.369 -0.3260 -0.9373 -0.4913
   55MOL0     H 7416  11.033   3.042   6.488  4.5540  0.4803  1.8293
   55MOL0     H 7417  11.016   2.801   6.575 -0.7476 -0.6386 -1.0689
   55MOL0     H 7418  11.164   2.892   6.594  1.0352  1.7685 -1.6691
   55MOL0     H 7419  11.116   2.675   6.378  2.3622 -0.1847 -1.4036
   55MOL0     H 7420  11.169   2.634   6.530 -1.1522 -1.4135 -1.6864
   55MOL0     H 7421  11.302   2.804   6.311  1.6862  2.0560  1.0106
   55MOL0     H 7422  11.337   2.637   6.342 -0.4574  0.9741 -1.6986
   55MOL0     H 7423  11.597   2.792   6.623  1.6355  1.9118 -3.1263
   55MOL0     H 7424  10.864   2.945   6.595  1.0235 -2.0192 -0.2743
   55MOL0     H 7425  10.623   2.928   6.662 -1.5852 -0.1685 -1.0533
   56MOL0     O 7426   4.027   4.434   0.316 -0.8094  0.7472  0.0708
   56MOL0     C 7427   4.131   4.377   0.275 -1.1996 -0.2437 -0.3345
   56MOL0     O 7428   4.124   4.290   0.171 -0.0287 -0.4260 -0.0496
   56MOL0     C 7429   4.008   4.221   0.148  0.1656 -0.0358 -0.5696
   56MOL0     C 7430   3.957   4.219   0.017  0.8125 -0.2393 -0.4543
   56MOL0     C 7431   3.849   4.136  -0.016 -0.4196  0.5053 -0.2453
   56MOL0     C 7432   3.784   4.065   0.087 -0.0408 -0.4223 -0.1804
   56MOL0     O 7433   3.676   3.979   0.077  0.6796 -0.3844 -0.0538
   56MOL0     C 7434   3.578   4.006  -0.032  0.0239  0.3961 -0.2538
   56MOL0     C 7435   3.478   3.883  -0.032 -0.3998 -0.4065  0.4232
   56MOL0     C 7436   3.398   3.896  -0.160  0.2872  0.5784  0.5195
   56MOL0     C 7437   3.269   3.807  -0.164  0.1493 -0.0905  0.7523
   56MOL0     C 7438   3.199   3.777  -0.307 -0.5228 -0.4462 -0.4568
   56MOL0     C 7439   3.125   3.900  -0.357  0.7226  0.0053  0.5669
   56MOL0     C 7440   3.098   3.892  -0.511  0.0694 -0.4843 -0.6564
   56MOL0     C 7441   2.987   3.799  -0.556  0.1808 -0.2021  0.0800
   56MOL0     N 7442   2.851   3.834  -0.500  0.5547  0.0723 -0.3254
   56MOL0     C 7443   2.747   3.890  -0.566  0.1578 -1.0451 -0.1586
   56MOL0     C 7444   2.646   3.900  -0.473  0.2150  0.7134 -0.4250
   56MOL0     C 7445   2.505   3.942  -0.504 -0.3554 -0.6042 -0.9653
   56MOL0     C 7446   2.452   3.910  -0.643 -0.0444 -0.7700  0.7118
   56MOL0     C 7447   2.324   3.988  -0.661 -0.9223  0.6215 -0.7144
   56MOL0     C 7448   2.271   3.958  -0.801  0.5259 -0.2579 -0.0847
   56MOL0     O 7449   2.165   4.047  -0.822 -0.8671 -0.4776  0.0557
   56MOL0     C 7450   2.056   4.018  -0.891 -0.2628  0.2597  0.4943
   56MOL0     C 7451   2.052   3.921  -0.993 -0.0933  0.1474 -0.7602
   56MOL0     C 7452   1.933   3.901  -1.066 -0.1162 -0.2242  0.1008
   56MOL0     C 7453   1.946   3.792  -1.175  0.3000 -0.2995  0.6159
   56MOL0     C 7454   1.816   3.965  -1.029  0.6393 -0.8576  0.4637
   56MOL0     C 7455   1.679   3.949  -1.097 -0.5519  0.1097 -0.0179
   56MOL0     O 7456   1.656   3.855  -1.198 -0.7608 -0.4012  0.0761
   56MOL0     C 7457   1.535   3.860  -1.267  0.2472 -0.1357  0.9419
   56MOL0     C 7458   1.525   3.959  -1.361  0.4077  0.2513 -0.1636
   56MOL0     C 7459   1.407   3.963  -1.438  0.0885  0.6452  0.3884
   56MOL0     C 7460   1.301   3.877  -1.412  0.2633 -0.1311  0.0198
   56MOL0     O 7461   1.183   3.878  -1.484 -0.4823 -0.4010 -0.2302
   56MOL0     C 7462   1.164   3.966  -1.595 -0.4192  0.1370  0.3218
   56MOL0     C 7463   1.025   3.968  -1.639 -0.6410 -0.1675 -0.2559
   56MOL0     C 7464   0.986   3.860  -1.739 -0.4630  0.2424  0.2487
   56MOL0     C 7465   0.843   3.851  -1.790 -0.2748 -0.2648 -0.0513
   56MOL0     C 7466   0.823   3.777  -1.914  0.7100 -0.7322  0.4918
   56MOL0     C 7467   0.676   3.778  -1.957 -0.3046 -0.5805  0.2187
   56MOL0     C 7468   0.651   3.713  -2.092 -0.4199 -0.5451  0.3760
   56MOL0     C 7469   0.503   3.702  -2.132 -0.3695  0.4547 -0.6298
   56MOL0    Cl 7470   0.420   3.585  -2.034  0.3323  0.0201  0.4020
   56MOL0     C 7471   1.313   3.779  -1.308  0.7471  0.3775 -0.0453
   56MOL0     C 7472   1.434   3.772  -1.240  0.2510  0.0051 -0.0602
   56MOL0     O 7473   1.595   4.036  -1.065  0.0243 -0.2606 -0.1616
   56MOL0     C 7474   1.820   4.064  -0.929 -0.1005  0.0995  0.0539
   56MOL0     C 7475   1.942   4.082  -0.861  0.8003  0.5335 -0.0595
   56MOL0     N 7476   2.680   3.831  -0.359  0.0450  0.2193  0.6737
   56MOL0     N 7477   2.804   3.803  -0.376  0.0319  0.1817 -0.9558
   56MOL0     C 7478   3.838   4.067   0.220 -0.0442  0.1895  0.2458
   56MOL0     C 7479   3.952   4.142   0.250  0.4594  0.7193  0.1951
   56MOL0     C 7480   4.263   4.441   0.302  0.4192  0.0103  0.1194
   56MOL0     C 7481   4.274   4.528   0.415  0.3157 -0.4287 -0.0113
   56MOL0     C 7482   4.402   4.579   0.442  0.6250  0.1047 -0.4096
   56MOL0     C 7483   4.510   4.555   0.359 -0.8853  0.3145  0.2346
   56MOL0     O 7484   4.637   4.593   0.397 -0.2755 -0.0328  1.1416
   56MOL0     C 7485   4.667   4.728   0.348  0.4887  0.5754 -0.3363
   56MOL0     C 7486   4.717   4.731   0.199  0.5772  0.4387 -0.8734
   56MOL0     C 7487   4.832   4.639   0.160 -0.2842 -0.0778  0.6394
   56MOL0     C 7488   4.951   4.651   0.261  0.6598  0.0248  0.3977
   56MOL0     C 7489   5.077   4.610   0.193 -0.0557 -0.0553  0.7718
   56MOL0     C 7490   5.164   4.536   0.149  0.3691  0.5122  0.3562
   56MOL0     C 7491   4.500   4.463   0.254  0.5298  0.0250 -0.5467
   56MOL0     C 7492   4.375   4.404   0.226  0.8542 -0.1700  0.7755
   56MOL0     H 7493   4.003   4.260  -0.072  1.7620 -0.2851 -0.0008
   56MOL0     H 7494   3.805   4.155  -0.114 -1.0193 -1.4386 -0.3987
   56MOL0     H 7495   3.522   4.099  -0.018 -1.9910 -0.9493  1.2015
   56MOL0     H 7496   3.632   4.007  -0.127  1.3736  1.0169  0.4806
   56MOL0     H 7497   3.537   3.793  -0.050  1.6973  1.2413 -1.4502
   56MOL0     H 7498   3.422   3.876   0.062  1.2751  1.0064  1.5838
   56MOL0     H 7499   3.374   4.002  -0.172  3.1387  1.4213  1.5013
   56MOL0     H 7500   3.468   3.860  -0.236 -1.1733  0.2750 -0.7305
   56MOL0     H 7501   3.303   3.714  -0.118  0.7728 -0.1505  0.1812
   56MOL0     H 7502   3.197   3.852  -0.095  0.9624  1.6394  0.5113
   56MOL0     H 7503   3.274   3.740  -0.378  0.3916  0.2962  0.1016
   56MOL0     H 7504   3.123   3.701  -0.289  0.5208 -0.7334  3.6707
   56MOL0     H 7505   3.027   3.920  -0.313 -0.1580  0.4872 -1.4777
   56MOL0     H 7506   3.198   3.981  -0.342 -0.6884  0.9635  2.7359
   56MOL0     H 7507   3.086   3.991  -0.554 -0.9840  0.4892  1.6596
   56MOL0     H 7508   3.193   3.855  -0.549  0.4475  0.7193 -0.9170
   56MOL0     H 7509   3.013   3.701  -0.515  0.8870  0.8987  2.4418
   56MOL0     H 7510   2.982   3.795  -0.666  0.7589 -4.9501  0.0341
   56MOL0     H 7511   2.752   3.920  -0.670  0.2229 -0.7967 -0.0855
   56MOL0     H 7512   2.430   3.904  -0.433 -1.6691  0.5059 -1.6946
   56MOL0     H 7513   2.505   4.051  -0.495 -0.6218 -0.7132  0.7756
   56MOL0     H 7514   2.435   3.803  -0.659 -2.6789 -0.4415  1.0206
   56MOL0     H 7515   2.525   3.942  -0.718 -0.3818  0.9850  1.0879
   56MOL0     H 7516   2.344   4.096  -0.666  1.1692  0.5393  2.6800
   56MOL0     H 7517   2.254   3.963  -0.582  0.3895  0.6928  0.5236
   56MOL0     H 7518   2.230   3.857  -0.806 -1.2875  0.2398  2.9338
   56MOL0     H 7519   2.346   3.973  -0.880  1.1195 -0.0603  0.4998
   56MOL0     H 7520   2.145   3.872  -1.020  0.9476  2.1002 -0.9355
   56MOL0     H 7521   1.879   3.706  -1.168  0.3777 -0.4977 -0.8087
   56MOL0     H 7522   1.918   3.850  -1.264  3.3677  0.9851  0.3612
   56MOL0     H 7523   2.044   3.747  -1.191  0.1983 -0.4542  0.4222
   56MOL0     H 7524   1.608   4.027  -1.371 -1.4095  2.3066 -2.5101
   56MOL0     H 7525   1.388   4.046  -1.505 -2.0763  0.1617  0.3372
   56MOL0     H 7526   1.191   4.068  -1.566  0.4208  0.2888 -0.9129
   56MOL0     H 7527   1.237   3.939  -1.672 -1.3881 -0.7303 -0.3133
   56MOL0     H 7528   0.958   3.966  -1.553  0.1520  1.8175  0.4800
   56MOL0     H 7529   1.008   4.069  -1.677  2.6655  1.3511  1.8516
   56MOL0     H 7530   1.004   3.760  -1.698  4.3885  0.4475 -0.8348
   56MOL0     H 7531   1.060   3.874  -1.819  0.4025 -0.7421  0.8504
   56MOL0     H 7532   0.777   3.802  -1.717  0.5511 -0.7837  0.3532
   56MOL0     H 7533   0.800   3.951  -1.805  1.5576  0.5087 -0.3768
   56MOL0     H 7534   0.848   3.673  -1.892 -0.8290 -1.3375 -0.5069
   56MOL0     H 7535   0.884   3.822  -1.993  0.1943 -1.2304 -0.2019
   56MOL0     H 7536   0.610   3.742  -1.878 -1.5044  0.3239 -0.3530
   56MOL0     H 7537   0.648   3.884  -1.963 -0.6542 -0.6736  0.2205
   56MOL0     H 7538   0.697   3.614  -2.103  1.6799  0.3112  1.0059
   56MOL0     H 7539   0.700   3.779  -2.163 -0.6151  0.0750  0.8150
   56MOL0     H 7540   0.492   3.659  -2.232 -1.2844 -2.3276  0.5699
   56MOL0     H 7541   0.464   3.804  -2.119  0.8377  0.5291  4.5861
   56MOL0     H 7542   1.222   3.722  -1.288  1.1471  0.3240  1.8843
   56MOL0     H 7543   1.448   3.698  -1.162 -2.0844  0.9784  1.3774
   56MOL0     H 7544   1.744   4.142  -0.920  0.3023  0.9525 -2.9294
   56MOL0     H 7545   1.949   4.171  -0.798 -0.9994 -0.1536  1.2018
   56MOL0     H 7546   3.805   4.009   0.306  1.6599  0.8671  1.3973
   56MOL0     H 7547   3.994   4.141   0.350 -1.0368 -2.4460  0.9103
   56MOL0     H 7548   4.182   4.559   0.463  0.7354  0.2965  0.3535
   56MOL0     H 7549   4.424   4.642   0.527  0.3404 -1.3321  0.7758
   56MOL0     H 7550   4.586   4.798   0.368  3.7868  3.7356  3.7455
   56MOL0     H 7551   4.738   4.771   0.419  0.8580  2.3359 -1.7084
   56MOL0     H 7552   4.722   4.837   0.175 -3.2582  0.9688 -0.1036
   56MOL0     H 7553   4.633   4.703   0.133  1.3807 -0.9319 -1.3567
   56MOL0     H 7554   4.867   4.669   0.061  1.3057  2.6349  1.9072
   56MOL0     H 7555   4.802   4.533   0.158  1.2229 -0.5296  0.2260
   56MOL0     H 7556   4.934   4.593   0.352  1.1125 -0.3243  0.2639
   56MOL0     H 7557   4.958   4.753   0.301  1.6540 -0.4517  1.5037
   56MOL0     H 7558   5.231   4.468   0.101  2.3616  0.5952  2.8130
   56MOL0     H 7559   4.592   4.438   0.203  1.3864  2.1107 -0.1422
   56MOL0     H 7560   4.353   4.331   0.149 -2.9479  0.6770  0.8906
   57MOL0     O 7561   0.451   2.745   3.677 -0.5328  0.1519  0.7456
   57MOL0     C 7562   0.438   2.669   3.769 -0.1249 -0.0139 -0.5805
   57MOL0     O 7563   0.381   2.547   3.772  0.0547 -0.3240  0.1308
   57MOL0     C 7564   0.319   2.497   3.659 -0.6861  0.1124  0.2602
   57MOL0     C 7565   0.232   2.578   3.585  0.1104  0.4938  0.3940
   57MOL0     C 7566   0.175   2.529   3.466 -0.2413 -0.0387 -0.1784
   57MOL0     C 7567   0.199   2.397   3.423  1.1454  0.1010 -0.7538
   57MOL0     O 7568   0.140   2.337   3.314 -0.6352 -0.0960  0.0837
   57MOL0     C 7569   0.015   2.393   3.269  0.2709  0.3970  0.1403
   57MOL0     C 7570  -0.054   2.292   3.180 -0.0586 -0.1161  0.5303
   57MOL0     C 7571  -0.194   2.346   3.138 -0.8542  0.1916 -0.7208
   57MOL0     C 7572  -0.248   2.268   3.017 -0.5486  0.4748  0.8913
   57MOL0     C 7573  -0.399   2.301   2.986 -0.0472  0.4173  0.1731
   57MOL0     C 7574  -0.407   2.431   2.902 -0.9959  0.1220 -0.4138
   57MOL0     C 7575  -0.534   2.466   2.834 -0.1632  0.3214 -0.0290
   57MOL0     C 7576  -0.652   2.463   2.935 -0.1201 -0.6142  0.3553
   57MOL0     N 7577  -0.787   2.496   2.884 -0.0422 -0.1435 -0.5752
   57MOL0     C 7578  -0.835   2.619   2.856  0.7980 -0.7262  0.5441
   57MOL0     C 7579  -0.965   2.593   2.820 -0.5206  0.8189  0.5817
   57MOL0     C 7580  -1.066   2.691   2.764 -0.3399 -0.0222  0.3969
   57MOL0     C 7581  -1.057   2.694   2.608 -0.3165 -0.2523  0.6719
   57MOL0     C 7582  -1.181   2.620   2.540 -0.6919  1.0940 -0.2034
   57MOL0     C 7583  -1.323   2.656   2.588 -0.2235  0.2541 -0.1055
   57MOL0     O 7584  -1.354   2.799   2.570  0.6136  0.1378  0.3967
   57MOL0     C 7585  -1.446   2.828   2.468 -0.1245 -0.1486  0.4822
   57MOL0     C 7586  -1.524   2.943   2.472  0.3612  0.4265  0.7604
   57MOL0     C 7587  -1.601   2.992   2.362 -0.0636 -0.1453 -0.8506
   57MOL0     C 7588  -1.680   3.122   2.393  0.1027  0.0877 -0.4087
   57MOL0     C 7589  -1.601   2.918   2.243  0.0441  0.5388  1.1009
   57MOL0     C 7590  -1.678   2.970   2.128  0.4060  0.2016  0.8771
   57MOL0     O 7591  -1.621   2.924   2.007  0.5076 -0.7582 -0.7497
   57MOL0     C 7592  -1.688   2.973   1.893  0.0967  0.5363 -0.4739
   57MOL0     C 7593  -1.677   3.105   1.848 -0.3239 -0.9161 -0.1274
   57MOL0     C 7594  -1.736   3.152   1.730  0.6550 -0.0815  0.0252
   57MOL0     C 7595  -1.798   3.059   1.642  0.5986  0.2094 -0.0991
   57MOL0     O 7596  -1.849   3.076   1.510  0.2145 -0.7718  0.2961
   57MOL0     C 7597  -1.829   3.207   1.453 -0.9275  0.4145  1.2754
   57MOL0     C 7598  -1.848   3.189   1.296  0.7553 -0.0842 -0.9035
   57MOL0     C 7599  -1.988   3.135   1.261 -0.1282  0.2551 -0.1711
   57MOL0     C 7600  -2.007   3.137   1.112 -0.2489  0.1322  0.0613
   57MOL0     C 7601  -2.136   3.076   1.068 -0.2463 -0.1624 -0.3567
   57MOL0     C 7602  -2.143   2.921   1.057  0.9297  0.3990  0.7257
   57MOL0     C 7603  -2.294   2.888   1.023  0.4271 -0.1385  0.3258
   57MOL0     C 7604  -2.304   2.754   0.974 -0.2545  0.3222 -0.7776
   57MOL0    Cl 7605  -2.476   2.707   0.912 -0.3785  0.3555  0.1397
   57MOL0     C 7606  -1.817   2.929   1.693 -0.2048  0.1170  0.2997
   57MOL0     C 7607  -1.760   2.885   1.812  0.1794 -0.3939  0.2913
   57MOL0     O 7608  -1.787   3.019   2.140  0.9715 -0.7545 -0.1269
   57MOL0     C 7609  -1.506   2.810   2.227 -0.4906  0.5189  0.0957
   57MOL0     C 7610  -1.441   2.764   2.343  0.1474  0.2857  0.0828
   57MOL0     N 7611  -0.984   2.457   2.816  0.2732 -0.3886 -0.0546
   57MOL0     N 7612  -0.877   2.398   2.853 -0.5400 -0.5126  0.4230
   57MOL0     C 7613   0.295   2.324   3.490  0.3212  0.4940 -0.0478
   57MOL0     C 7614   0.344   2.364   3.616 -0.2844  0.1709  0.5282
   57MOL0     C 7615   0.495   2.716   3.893 -0.4167 -0.4968  0.5976
   57MOL0     C 7616   0.605   2.812   3.902  0.8449  0.3950 -0.5341
   57MOL0     C 7617   0.649   2.858   4.025  0.5364  0.1649 -0.4976
   57MOL0     C 7618   0.600   2.805   4.142 -0.1279 -0.6141 -0.4539
   57MOL0     O 7619   0.667   2.848   4.259 -0.7591 -0.7669  0.3109
   57MOL0     C 7620   0.640   2.793   4.388  0.8524 -0.2050 -0.6504
   57MOL0     C 7621   0.726   2.661   4.405  0.5221  0.9424 -0.5205
   57MOL0     C 7622   0.718   2.606   4.551 -0.4851  0.4752 -0.3121
   57MOL0     C 7623   0.762   2.461   4.572  0.3926 -0.5206 -0.1198
   57MOL0     C 7624   0.905   2.432   4.562  0.1381 -0.0239  0.1018
   57MOL0     C 7625   1.019   2.415   4.537 -0.6172 -0.0078 -0.2595
   57MOL0     C 7626   0.489   2.719   4.134 -0.6143  0.3052 -0.4194
   57MOL0     C 7627   0.441   2.679   4.015  0.6204  0.1596  0.3153
   57MOL0     H 7628   0.201   2.678   3.614 -0.2192  1.0674 -1.6972
   57MOL0     H 7629   0.088   2.580   3.428  0.2402  0.6468 -0.3824
   57MOL0     H 7630  -0.057   2.418   3.348 -2.0584  0.7751 -1.9734
   57MOL0     H 7631   0.036   2.479   3.206  1.0194 -2.0990 -3.3420
   57MOL0     H 7632   0.002   2.268   3.089 -1.3037  2.3671 -0.9746
   57MOL0     H 7633  -0.068   2.205   3.246 -0.7320  1.8913  3.1897
   57MOL0     H 7634  -0.267   2.351   3.219  2.0846  0.3356  2.1216
   57MOL0     H 7635  -0.176   2.448   3.106 -3.1270 -0.1674 -3.5524
   57MOL0     H 7636  -0.190   2.300   2.929 -0.2182 -0.6171  0.6982
   57MOL0     H 7637  -0.234   2.161   3.035 -0.8282  0.4238  0.8050
   57MOL0     H 7638  -0.443   2.217   2.931 -2.2000 -0.4697  3.0256
   57MOL0     H 7639  -0.454   2.293   3.080  1.6928  2.8721  1.5068
   57MOL0     H 7640  -0.369   2.515   2.962  2.2502  0.0578 -2.1315
   57MOL0     H 7641  -0.332   2.423   2.823 -1.7616 -2.1791 -0.9632
   57MOL0     H 7642  -0.529   2.563   2.784  0.9400 -0.4730 -1.5660
   57MOL0     H 7643  -0.550   2.388   2.758  0.7540 -0.1569  0.2556
   57MOL0     H 7644  -0.639   2.531   3.020 -2.5472 -1.6029  1.6234
   57MOL0     H 7645  -0.643   2.363   2.980  0.9435 -1.1076 -0.8765
   57MOL0     H 7646  -0.783   2.711   2.880  2.1120 -1.6674  1.4083
   57MOL0     H 7647  -1.162   2.661   2.806 -0.9919  1.9166  0.3501
   57MOL0     H 7648  -1.046   2.791   2.804 -0.8920  0.5882 -0.8103
   57MOL0     H 7649  -0.967   2.646   2.570 -0.1537 -0.5229  1.3822
   57MOL0     H 7650  -1.056   2.794   2.563  2.2392 -1.3307 -1.9813
   57MOL0     H 7651  -1.163   2.514   2.555 -0.1945  1.3474  1.1187
   57MOL0     H 7652  -1.166   2.625   2.431  1.4964 -2.4075 -0.2002
   57MOL0     H 7653  -1.325   2.618   2.691  1.7032 -2.5205 -0.9460
   57MOL0     H 7654  -1.396   2.595   2.535  0.0709 -3.2272  3.0239
   57MOL0     H 7655  -1.509   3.002   2.562  4.0670 -0.2955  0.7520
   57MOL0     H 7656  -1.664   3.162   2.493 -0.0511  1.7379 -1.0126
   57MOL0     H 7657  -1.641   3.197   2.323  2.7333 -0.8748 -0.0864
   57MOL0     H 7658  -1.789   3.116   2.378 -0.0259  0.9321  0.1213
   57MOL0     H 7659  -1.630   3.179   1.912 -0.2107 -2.1346  1.2756
   57MOL0     H 7660  -1.735   3.260   1.717  0.2200 -0.0694  0.0676
   57MOL0     H 7661  -1.905   3.278   1.488 -2.0784  0.1103 -0.4515
   57MOL0     H 7662  -1.730   3.243   1.480  0.0007 -1.9732  1.2742
   57MOL0     H 7663  -1.838   3.286   1.248 -1.1359 -0.3237 -1.8974
   57MOL0     H 7664  -1.783   3.112   1.255  0.0504 -0.6897 -0.9154
   57MOL0     H 7665  -2.063   3.201   1.306 -2.5121 -3.6564  2.1870
   57MOL0     H 7666  -2.004   3.033   1.296  0.1155 -0.6116 -2.4151
   57MOL0     H 7667  -1.990   3.240   1.081  1.2859  1.6382  4.9268
   57MOL0     H 7668  -1.925   3.080   1.066  0.6400  1.3982  0.0335
   57MOL0     H 7669  -2.155   3.113   0.967 -0.6614 -1.2705 -0.7064
   57MOL0     H 7670  -2.216   3.118   1.130 -0.4601 -0.7001 -0.2588
   57MOL0     H 7671  -2.084   2.899   0.967  1.7124 -0.2368  1.3802
   57MOL0     H 7672  -2.114   2.860   1.143 -1.4922 -1.2315  0.4894
   57MOL0     H 7673  -2.323   2.961   0.948 -0.9138  2.2227  2.9649
   57MOL0     H 7674  -2.359   2.906   1.109  0.6977  2.2292  0.0896
   57MOL0     H 7675  -2.278   2.699   1.065  1.4153  2.0417 -0.1493
   57MOL0     H 7676  -2.235   2.742   0.891  0.6759 -2.7867  0.3040
   57MOL0     H 7677  -1.851   2.852   1.625 -2.8340  1.0219  0.4768
   57MOL0     H 7678  -1.761   2.779   1.835  0.8951 -0.2914  0.8606
   57MOL0     H 7679  -1.495   2.754   2.134  2.9108  0.3838  0.4516
   57MOL0     H 7680  -1.369   2.683   2.345  0.0351  0.1893  1.0560
   57MOL0     H 7681   0.322   2.224   3.458  0.6067  0.3723  0.5584
   57MOL0     H 7682   0.403   2.303   3.684 -1.4505 -0.5245  0.9307
   57MOL0     H 7683   0.659   2.845   3.814  0.6148  0.5594 -0.6152
   57MOL0     H 7684   0.735   2.923   4.010  0.4786  0.0521 -1.3483
   57MOL0     H 7685   0.672   2.861   4.468  2.2212 -3.2719  1.6144
   57MOL0     H 7686   0.533   2.775   4.402  0.2046  0.2515 -4.1795
   57MOL0     H 7687   0.827   2.695   4.379  0.7482  2.0632  1.6084
   57MOL0     H 7688   0.700   2.586   4.330  1.4249 -0.0459  0.1242
   57MOL0     H 7689   0.612   2.616   4.579 -0.5189  0.0128 -0.2638
   57MOL0     H 7690   0.774   2.668   4.622  0.1554  0.3294 -0.6823
   57MOL0     H 7691   0.713   2.403   4.493 -1.2166 -0.3677  0.7211
   57MOL0     H 7692   0.739   2.422   4.672  3.1978  0.1093  0.8777
   57MOL0     H 7693   1.123   2.396   4.525 -0.2127  1.5248  0.5787
   57MOL0     H 7694   0.458   2.660   4.219 -1.5483  0.2099 -0.8200
   57MOL0     H 7695   0.365   2.601   4.011  1.4080 -0.6335  0.3832
   58MOL0     O 7696  11.188  10.680   4.990  0.9536 -0.0433  0.2944
   58MOL0     C 7697  11.231  10.669   4.873 -0.0593  0.2769 -0.3850
   58MOL0     O 7698  11.156  10.693   4.756 -0.1681  0.6243  0.1096
   58MOL0     C 7699  11.037  10.762   4.765  0.9795  0.3102  0.3572
   58MOL0     C 7700  10.990  10.860   4.859 -0.1072 -0.0442  0.0260
   58MOL0     C 7701  10.859  10.910   4.859  0.1052  0.5184 -0.7491
   58MOL0     C 7702  10.766  10.883   4.758  0.4438 -0.9321 -0.3767
   58MOL0     O 7703  10.639  10.933   4.764  0.2232 -0.6724 -0.5647
   58MOL0     C 7704  10.618  11.058   4.833  0.9531 -0.2940  0.2758
   58MOL0     C 7705  10.467  11.095   4.811  0.3004  0.6659  0.9698
   58MOL0     C 7706  10.358  10.995   4.866  0.0528  0.1775  0.2035
   58MOL0     C 7707  10.210  11.014   4.825  0.2541  0.1169 -0.0809
   58MOL0     C 7708  10.117  10.903   4.867 -0.8732  1.2627  0.7079
   58MOL0     C 7709  10.071  10.918   5.016  0.0006 -0.1699 -0.2371
   58MOL0     C 7710   9.972  11.030   5.032 -0.6058  1.1409 -0.3766
   58MOL0     C 7711   9.880  10.996   5.141  0.2924 -0.7024 -0.5967
   58MOL0     N 7712   9.783  11.108   5.174 -0.1302  0.0734  0.5953
   58MOL0     C 7713   9.738  11.150   5.290 -0.7252 -0.0857  0.5854
   58MOL0     C 7714   9.646  11.236   5.268 -0.1285 -0.9429 -0.3041
   58MOL0     C 7715   9.544  11.295   5.360 -0.8810 -0.0611  0.1307
   58MOL0     C 7716   9.599  11.387   5.468 -0.1766 -0.9415 -0.0792
   58MOL0     C 7717   9.495  11.433   5.572  0.1559 -0.0331  0.4679
   58MOL0     C 7718   9.447  11.309   5.657 -0.5522  0.3106  0.0381
   58MOL0     O 7719   9.333  11.351   5.733 -0.4000 -0.1033  0.3659
   58MOL0     C 7720   9.215  11.354   5.667  0.4548 -0.9220  0.1011
   58MOL0     C 7721   9.104  11.357   5.758 -0.0650  0.2382  0.1140
   58MOL0     C 7722   8.971  11.352   5.719 -0.7080  1.0442  0.0647
   58MOL0     C 7723   8.863  11.334   5.823 -0.9250 -0.7308  0.2975
   58MOL0     C 7724   8.943  11.367   5.582  0.4675  0.3705 -0.0542
   58MOL0     C 7725   8.810  11.394   5.524  0.5063 -0.2160  0.1983
   58MOL0     O 7726   8.706  11.419   5.612  0.0777  0.3008  0.0988
   58MOL0     C 7727   8.586  11.459   5.562 -0.6484  0.3016  0.5161
   58MOL0     C 7728   8.563  11.592   5.570  1.1546 -1.2264 -0.5100
   58MOL0     C 7729   8.451  11.651   5.512 -0.5065  0.6843 -0.7963
   58MOL0     C 7730   8.368  11.569   5.440  0.9517  0.6003  0.5596
   58MOL0     O 7731   8.243  11.608   5.387  0.6269 -0.1659  0.3695
   58MOL0     C 7732   8.198  11.742   5.392  0.1392  0.1191  0.3484
   58MOL0     C 7733   8.060  11.734   5.324 -0.2298  0.1340 -0.2947
   58MOL0     C 7734   7.970  11.622   5.373  0.4553  0.4259 -0.2055
   58MOL0     C 7735   7.822  11.631   5.328 -0.5773 -1.4729 -0.4510
   58MOL0     C 7736   7.761  11.501   5.379 -0.0487  0.1527  0.2830
   58MOL0     C 7737   7.610  11.528   5.385  0.7415 -0.3521  0.2800
   58MOL0     C 7738   7.536  11.399   5.410 -0.1843 -0.2186 -0.4195
   58MOL0     C 7739   7.385  11.419   5.387  0.2120 -0.1968 -0.4234
   58MOL0    Cl 7740   7.333  11.528   5.514  0.0962 -0.0814 -0.2375
   58MOL0     C 7741   8.399  11.435   5.420  0.9425 -0.2934 -0.2400
   58MOL0     C 7742   8.509  11.373   5.485  0.5654 -0.1576  0.0749
   58MOL0     O 7743   8.792  11.373   5.404 -0.4585  0.2474 -0.3231
   58MOL0     C 7744   9.054  11.365   5.490  0.4014 -0.6186 -0.4334
   58MOL0     C 7745   9.184  11.350   5.530  1.4370 -0.4069  0.0495
   58MOL0     N 7746   9.628  11.250   5.131  0.2998 -0.0924 -0.1385
   58MOL0     N 7747   9.714  11.174   5.074  0.1494  0.6029 -0.0466
   58MOL0     C 7748  10.806  10.790   4.664 -0.0186 -0.7579  0.0694
   58MOL0     C 7749  10.940  10.735   4.665 -0.0302  0.1352 -0.6990
   58MOL0     C 7750  11.375  10.632   4.861  0.6924  0.1337  0.2436
   58MOL0     C 7751  11.444  10.560   4.959  0.5896 -0.0547 -0.5651
   58MOL0     C 7752  11.587  10.530   4.941 -0.4309  0.2487  0.1134
   58MOL0     C 7753  11.647  10.559   4.824 -0.9591 -0.5057 -0.2042
   58MOL0     O 7754  11.784  10.537   4.800 -0.5872 -0.3408 -0.2854
   58MOL0     C 7755  11.861  10.478   4.908 -0.1617  0.0310  0.1537
   58MOL0     C 7756  12.009  10.485   4.899 -0.1887  0.1176  0.8536
   58MOL0     C 7757  12.089  10.405   4.996  0.8436  0.1059 -0.3153
   58MOL0     C 7758  12.240  10.424   4.969 -0.2398 -0.1724 -0.8297
   58MOL0     C 7759  12.310  10.313   5.029  0.4163 -0.6946 -0.9189
   58MOL0     C 7760  12.358  10.214   5.073  0.7174  0.5316  0.5140
   58MOL0     C 7761  11.574  10.629   4.726  0.7239 -0.0591  0.3560
   58MOL0     C 7762  11.445  10.674   4.744  0.7947  0.7910  0.1873
   58MOL0     H 7763  11.056  10.894   4.937 -0.6783 -1.3475  1.1145
   58MOL0     H 7764  10.836  10.984   4.934 -1.8185 -1.2341  0.5019
   58MOL0     H 7765  10.628  11.053   4.942  0.6129 -0.2101  0.3135
   58MOL0     H 7766  10.676  11.144   4.798 -1.1593  1.3684  0.6295
   58MOL0     H 7767  10.453  11.194   4.854  1.3503  0.9856  0.6015
   58MOL0     H 7768  10.457  11.098   4.702  2.1407 -3.0078  0.5423
   58MOL0     H 7769  10.391  10.894   4.841  4.5029  1.2126  1.0511
   58MOL0     H 7770  10.363  10.993   4.975 -2.0912  1.6090  0.3851
   58MOL0     H 7771  10.167  11.104   4.869 -1.2500 -0.7597  0.3154
   58MOL0     H 7772  10.208  11.017   4.716 -1.0050  0.1412 -0.0654
   58MOL0     H 7773  10.028  10.905   4.805  0.1714  0.9602 -0.8500
   58MOL0     H 7774  10.172  10.811   4.845 -1.7848  0.9905 -0.5534
   58MOL0     H 7775  10.032  10.826   5.059 -1.4697  0.2451 -0.6482
   58MOL0     H 7776  10.153  10.942   5.085 -1.3973  1.5221  0.9239
   58MOL0     H 7777  10.025  11.121   5.062 -1.7196  1.3556  1.0397
   58MOL0     H 7778   9.923  11.062   4.940 -0.1948  1.3980 -0.5126
   58MOL0     H 7779   9.940  10.985   5.232 -0.6440  0.3963  0.2012
   58MOL0     H 7780   9.822  10.908   5.112 -0.9418  0.3857 -1.5868
   58MOL0     H 7781   9.757  11.111   5.389 -0.4081  1.1081  1.0158
   58MOL0     H 7782   9.473  11.361   5.309 -0.7790 -1.5922 -2.0835
   58MOL0     H 7783   9.485  11.216   5.407 -0.6862 -0.3275 -0.0723
   58MOL0     H 7784   9.629  11.485   5.430 -1.7001  0.4176  2.0179
   58MOL0     H 7785   9.678  11.332   5.520  0.8992  1.0983  0.5252
   58MOL0     H 7786   9.412  11.479   5.518 -1.6563  0.7788  3.6886
   58MOL0     H 7787   9.539  11.510   5.635  1.5728 -0.1814 -0.2985
   58MOL0     H 7788   9.528  11.277   5.723 -0.3816 -1.7893 -1.0960
   58MOL0     H 7789   9.422  11.218   5.603 -0.9080 -0.1403  0.9478
   58MOL0     H 7790   9.138  11.336   5.858  3.1769 -0.8468 -1.0814
   58MOL0     H 7791   8.908  11.301   5.917 -3.5611  0.8461  2.2551
   58MOL0     H 7792   8.821  11.430   5.852  0.2409 -0.3783  0.8811
   58MOL0     H 7793   8.780  11.268   5.797 -1.8026  0.6566 -0.5920
   58MOL0     H 7794   8.619  11.657   5.638  0.2278 -1.1420  0.1934
   58MOL0     H 7795   8.430  11.754   5.539 -2.3674 -0.0496  0.8529
   58MOL0     H 7796   8.194  11.794   5.488 -0.2985 -0.3118  0.5682
   58MOL0     H 7797   8.264  11.800   5.327  1.4801  2.5369  3.5894
   58MOL0     H 7798   7.996  11.822   5.326 -0.8818 -0.3333  1.4893
   58MOL0     H 7799   8.074  11.715   5.217 -3.7817  0.7415 -0.9953
   58MOL0     H 7800   7.972  11.631   5.482  2.3757 -0.7511 -0.0892
   58MOL0     H 7801   8.018  11.526   5.351 -0.1332 -0.2829  1.4299
   58MOL0     H 7802   7.780  11.718   5.379 -1.8724 -2.8535  0.9323
   58MOL0     H 7803   7.815  11.644   5.219 -0.6847  0.1012 -0.2867
   58MOL0     H 7804   7.798  11.469   5.476  0.5936  0.9325  0.3063
   58MOL0     H 7805   7.777  11.419   5.308 -1.8686 -1.3842  1.5460
   58MOL0     H 7806   7.588  11.602   5.462 -2.4402 -0.5024 -0.3392
   58MOL0     H 7807   7.575  11.576   5.292 -0.0992  1.8996  1.6716
   58MOL0     H 7808   7.554  11.364   5.512 -0.6574 -4.2541 -1.5452
   58MOL0     H 7809   7.570  11.331   5.331  0.9361 -1.4050  1.0307
   58MOL0     H 7810   7.341  11.320   5.404  3.5492 -1.7164  0.2923
   58MOL0     H 7811   7.362  11.450   5.285 -4.1448  0.4958  0.5646
   58MOL0     H 7812   8.331  11.380   5.354  0.7172  2.0790 -2.1228
   58MOL0     H 7813   8.538  11.269   5.477 -0.8054 -0.7782  2.1172
   58MOL0     H 7814   9.037  11.367   5.383  1.2533  1.3919 -0.5833
   58MOL0     H 7815   9.258  11.328   5.454  1.7781 -1.4102  0.6539
   58MOL0     H 7816  10.740  10.752   4.587 -1.7561  1.3854  0.3787
   58MOL0     H 7817  10.969  10.666   4.586 -0.9881 -1.8239  0.5660
   58MOL0     H 7818  11.393  10.545   5.054 -0.5446  3.6472 -0.3982
   58MOL0     H 7819  11.630  10.461   5.014 -2.2445 -1.7931 -0.6603
   58MOL0     H 7820  11.840  10.533   5.000 -0.7692 -0.8704  0.5671
   58MOL0     H 7821  11.837  10.373   4.929  1.8467 -0.3184  0.9604
   58MOL0     H 7822  12.055  10.581   4.873  1.9253 -1.4432 -1.6745
   58MOL0     H 7823  12.023  10.432   4.804 -0.2184  1.4467  0.0792
   58MOL0     H 7824  12.063  10.299   5.005  0.4897  0.2961  1.0579
   58MOL0     H 7825  12.077  10.443   5.098  2.7304  0.5355 -0.2172
   58MOL0     H 7826  12.278  10.522   4.998 -3.8424  0.1510  4.1459
   58MOL0     H 7827  12.257  10.403   4.864  1.2175 -4.5761  0.0852
   58MOL0     H 7828  12.406  10.124   5.107 -1.2760 -1.6616 -2.0289
   58MOL0     H 7829  11.635  10.655   4.640  0.0424 -2.3904 -0.8956
   58MOL0     H 7830  11.388  10.726   4.667  0.9953 -0.4452 -0.8274
   59MOL0     O 7831   2.172   2.450   1.778  0.0106  0.3914  0.1631
   59MOL0     C 7832   2.073   2.422   1.839  0.2203 -0.0534  0.0797
   59MOL0     O 7833   2.047   2.451   1.966 -0.0506 -0.1347 -0.0801
   59MOL0     C 7834   2.145   2.456   2.056 -0.8419  0.3598  0.5774
   59MOL0     C 7835   2.226   2.350   2.091 -0.1014 -0.0286  0.1038
   59MOL0     C 7836   2.340   2.363   2.175 -0.1974 -0.6631 -0.8551
   59MOL0     C 7837   2.377   2.494   2.219 -0.7179 -0.4812 -0.7844
   59MOL0     O 7838   2.490   2.506   2.297 -0.5850  0.2165 -0.3617
   59MOL0     C 7839   2.494   2.598   2.407  0.5613 -0.6888 -0.6446
   59MOL0     C 7840   2.635   2.618   2.453  0.2599  0.1233 -0.0303
   59MOL0     C 7841   2.641   2.685   2.589 -0.6554  0.1904 -0.2498
   59MOL0     C 7842   2.778   2.655   2.656  0.6132 -0.1959 -0.4343
   59MOL0     C 7843   2.777   2.521   2.729  0.1770 -0.5013  0.2261
   59MOL0     C 7844   2.891   2.500   2.821  0.6243 -0.6794 -0.0123
   59MOL0     C 7845   2.886   2.357   2.881 -0.3146 -0.1536 -0.3716
   59MOL0     C 7846   2.990   2.261   2.821  0.0029  0.1945  0.5704
   59MOL0     N 7847   2.950   2.245   2.683 -0.0780  0.5208  0.6118
   59MOL0     C 7848   3.017   2.303   2.581  0.5896 -0.0574 -0.0887
   59MOL0     C 7849   2.972   2.244   2.463 -1.2985  0.1555 -0.5322
   59MOL0     C 7850   3.009   2.265   2.314  0.4689  0.0186  0.1952
   59MOL0     C 7851   3.082   2.399   2.283  0.0710  0.4504  0.7620
   59MOL0     C 7852   2.990   2.524   2.308 -1.4642 -0.5890  0.1577
   59MOL0     C 7853   2.887   2.548   2.201  0.1197  0.2948 -0.0174
   59MOL0     O 7854   2.936   2.555   2.068 -0.0083 -0.4356 -0.2576
   59MOL0     C 7855   2.847   2.584   1.970  0.2611  0.0743  0.2492
   59MOL0     C 7856   2.713   2.529   1.957  0.8091  0.1972 -0.2449
   59MOL0     C 7857   2.620   2.561   1.857 -0.4325  0.0799  0.1778
   59MOL0     C 7858   2.484   2.494   1.864 -0.3618  0.3901  0.1009
   59MOL0     C 7859   2.663   2.646   1.751  1.2460 -0.4530  0.1559
   59MOL0     C 7860   2.571   2.679   1.637  1.0486 -0.2497  0.0725
   59MOL0     O 7861   2.631   2.703   1.513  0.2705  0.7430 -0.1256
   59MOL0     C 7862   2.553   2.774   1.415 -0.3648  0.0315  0.1525
   59MOL0     C 7863   2.571   2.731   1.281 -0.2090 -0.1847 -0.1778
   59MOL0     C 7864   2.498   2.782   1.173  0.5564  1.0093  0.4249
   59MOL0     C 7865   2.395   2.879   1.196 -0.2574 -0.0884  0.1688
   59MOL0     O 7866   2.326   2.929   1.088  0.0174 -0.4242 -0.0753
   59MOL0     C 7867   2.389   2.940   0.963  0.1079 -1.1343  0.5332
   59MOL0     C 7868   2.312   3.047   0.882 -0.3422 -0.1213 -0.2960
   59MOL0     C 7869   2.169   2.999   0.861 -0.4437 -0.0351  0.3289
   59MOL0     C 7870   2.095   3.095   0.759 -0.3067  0.7976 -0.3374
   59MOL0     C 7871   1.936   3.088   0.784 -0.3037 -0.8532 -0.8998
   59MOL0     C 7872   1.863   2.960   0.806  0.5387  0.4894  0.0817
   59MOL0     C 7873   1.825   2.897   0.673  0.2521 -0.0019  0.0641
   59MOL0     C 7874   1.717   2.801   0.677  0.5372 -0.2135 -0.4741
   59MOL0    Cl 7875   1.639   2.785   0.513  0.5960  0.0205 -0.2113
   59MOL0     C 7876   2.393   2.932   1.327  0.2978  0.1414 -0.7839
   59MOL0     C 7877   2.460   2.872   1.437 -0.0317 -0.9379  0.8992
   59MOL0     O 7878   2.453   2.667   1.654 -0.3589  0.1301  0.5469
   59MOL0     C 7879   2.797   2.700   1.757  0.5422  0.1760 -0.1428
   59MOL0     C 7880   2.881   2.668   1.862  0.6504 -0.3680 -0.7797
   59MOL0     N 7881   2.880   2.152   2.494 -0.1975  0.2808 -0.4518
   59MOL0     N 7882   2.864   2.157   2.622  0.0312  0.1272  0.1039
   59MOL0     C 7883   2.289   2.600   2.188 -0.1178  0.2789 -0.4675
   59MOL0     C 7884   2.174   2.579   2.116  0.0945 -0.1603  1.2589
   59MOL0     C 7885   1.959   2.379   1.760  0.3915 -0.4600  0.6480
   59MOL0     C 7886   1.973   2.377   1.614  0.3265 -0.6414  0.1986
   59MOL0     C 7887   1.865   2.326   1.534 -0.2262  0.4941 -0.1405
   59MOL0     C 7888   1.745   2.298   1.587  0.2469 -0.4910  0.3649
   59MOL0     O 7889   1.627   2.266   1.528 -0.0274 -0.3094 -0.2881
   59MOL0     C 7890   1.632   2.252   1.390  0.0541  0.3194 -0.7254
   59MOL0     C 7891   1.496   2.207   1.326 -0.1297  0.6818 -0.1010
   59MOL0     C 7892   1.377   2.292   1.352  0.4435 -0.2966 -0.6995
   59MOL0     C 7893   1.249   2.240   1.278 -0.1784  0.8691  0.4733
   59MOL0     C 7894   1.150   2.348   1.273  0.2334  0.0837  0.3656
   59MOL0     C 7895   1.066   2.431   1.251 -0.6473  0.2718 -0.4892
   59MOL0     C 7896   1.736   2.304   1.721  0.5124 -0.1396  0.7390
   59MOL0     C 7897   1.839   2.341   1.813  1.0017  0.7034  0.2851
   59MOL0     H 7898   2.212   2.252   2.047  2.1047  1.0580 -3.4702
   59MOL0     H 7899   2.387   2.268   2.199  2.0744 -0.0350 -2.4697
   59MOL0     H 7900   2.441   2.690   2.383 -1.6000 -1.1682  1.7600
   59MOL0     H 7901   2.430   2.555   2.485 -0.8674  1.3805 -0.6090
   59MOL0     H 7902   2.684   2.521   2.458 -1.7106 -0.9071  0.4715
   59MOL0     H 7903   2.679   2.681   2.375 -1.1545  0.7619 -0.3408
   59MOL0     H 7904   2.622   2.792   2.575 -1.3782 -0.2171 -3.0336
   59MOL0     H 7905   2.564   2.651   2.659 -1.7405  1.5365 -0.7384
   59MOL0     H 7906   2.859   2.657   2.582  0.7892 -1.6782 -0.3171
   59MOL0     H 7907   2.791   2.726   2.738  1.3240 -1.1882  0.3326
   59MOL0     H 7908   2.685   2.511   2.788  1.5816 -0.4295  2.5843
   59MOL0     H 7909   2.777   2.437   2.659 -0.2913 -0.1235 -0.2351
   59MOL0     H 7910   2.976   2.511   2.753  0.3882  0.9767 -0.0693
   59MOL0     H 7911   2.904   2.576   2.898 -3.8884 -0.8343  1.1528
   59MOL0     H 7912   2.909   2.351   2.988  1.5769 -3.7471 -0.8214
   59MOL0     H 7913   2.787   2.311   2.870 -0.0219 -1.2489  1.0980
   59MOL0     H 7914   2.982   2.165   2.873 -1.4045  0.2952  0.6002
   59MOL0     H 7915   3.092   2.298   2.829  0.6303 -1.0177 -1.3880
   59MOL0     H 7916   3.098   2.374   2.595 -0.0952  0.6437  0.4217
   59MOL0     H 7917   3.059   2.179   2.267 -2.2250 -1.6330  0.1664
   59MOL0     H 7918   2.918   2.275   2.255  1.0965  0.7526 -0.6793
   59MOL0     H 7919   3.112   2.396   2.177 -2.4831  0.8642 -0.0261
   59MOL0     H 7920   3.172   2.392   2.344  0.7297  0.1498 -0.2074
   59MOL0     H 7921   3.046   2.618   2.309 -2.0554 -0.1366  3.5699
   59MOL0     H 7922   2.953   2.530   2.411 -0.7443  0.7528  0.3620
   59MOL0     H 7923   2.822   2.629   2.233  1.4545  0.9416  1.1915
   59MOL0     H 7924   2.829   2.455   2.205  2.5210 -1.2739  0.6300
   59MOL0     H 7925   2.683   2.466   2.039 -1.9641 -1.0242 -2.0316
   59MOL0     H 7926   2.403   2.566   1.878 -1.8816 -0.8984 -1.5014
   59MOL0     H 7927   2.466   2.437   1.772 -1.0641 -2.1187  1.7110
   59MOL0     H 7928   2.470   2.427   1.949 -0.8214  1.6266  1.0259
   59MOL0     H 7929   2.650   2.657   1.270  0.7414  0.5386  1.3675
   59MOL0     H 7930   2.506   2.735   1.075 -0.2364 -1.4951  1.4778
   59MOL0     H 7931   2.490   2.983   0.964 -0.1359 -0.5101 -0.4247
   59MOL0     H 7932   2.384   2.847   0.906  0.4554 -0.3925 -0.7486
   59MOL0     H 7933   2.315   3.144   0.932 -0.0009 -0.7700  0.9888
   59MOL0     H 7934   2.361   3.071   0.788  0.1594 -0.9117 -0.2468
   59MOL0     H 7935   2.134   3.009   0.964 -1.3739  2.5011 -0.1438
   59MOL0     H 7936   2.167   2.897   0.821 -2.3895 -0.5692  1.6294
   59MOL0     H 7937   2.133   3.196   0.776  2.2944 -0.3793  1.3548
   59MOL0     H 7938   2.114   3.063   0.656 -1.3267  1.4484 -0.7455
   59MOL0     H 7939   1.884   3.153   0.713  1.0311  0.1539 -0.9947
   59MOL0     H 7940   1.924   3.153   0.871 -2.4711  0.2357 -1.9139
   59MOL0     H 7941   1.933   2.901   0.866 -1.6385 -1.7942  0.5125
   59MOL0     H 7942   1.774   2.974   0.868  2.1862  2.3535  2.1800
   59MOL0     H 7943   1.920   2.854   0.640  0.0008 -0.0937 -0.5581
   59MOL0     H 7944   1.789   2.973   0.602  0.8189  2.3460  2.1720
   59MOL0     H 7945   1.644   2.833   0.751  1.8665  2.7701 -0.3117
   59MOL0     H 7946   1.764   2.707   0.708  0.3425  0.3411  1.6496
   59MOL0     H 7947   2.323   3.011   1.354  0.6814  0.1159  0.3712
   59MOL0     H 7948   2.450   2.893   1.543  1.0231  0.3201  0.7805
   59MOL0     H 7949   2.826   2.780   1.690  0.9727  0.5329  0.4574
   59MOL0     H 7950   2.975   2.721   1.864  0.0586  0.7182  0.9707
   59MOL0     H 7951   2.295   2.707   2.206 -1.5854  0.1468  1.0541
   59MOL0     H 7952   2.111   2.665   2.099 -1.1845 -0.6633  3.1479
   59MOL0     H 7953   2.063   2.409   1.563  0.4934 -2.4730 -0.7580
   59MOL0     H 7954   1.881   2.307   1.428 -0.5309 -1.4343  0.1254
   59MOL0     H 7955   1.669   2.345   1.346  1.3698  1.4436  2.4358
   59MOL0     H 7956   1.709   2.178   1.366  2.9788  3.0151 -0.3915
   59MOL0     H 7957   1.476   2.112   1.377  2.5225  0.8835  1.4786
   59MOL0     H 7958   1.513   2.190   1.220 -2.4929  2.2818 -0.8236
   59MOL0     H 7959   1.403   2.397   1.333  1.8489 -0.1616  1.5268
   59MOL0     H 7960   1.352   2.279   1.458  1.3507 -0.2316 -0.4604
   59MOL0     H 7961   1.218   2.150   1.330 -0.9345  0.3076 -0.8873
   59MOL0     H 7962   1.271   2.200   1.178 -1.6528 -1.3546  0.9840
   59MOL0     H 7963   0.990   2.505   1.235 -0.9912 -0.0194 -0.2467
   59MOL0     H 7964   1.637   2.296   1.765  0.1535  2.4590  0.5696
   59MOL0     H 7965   1.829   2.345   1.920  2.3385 -1.8680  0.5884
   60MOL0     O 7966   8.171   6.960   2.423  0.3625  0.1429 -0.1261
   60MOL0     C 7967   8.150   7.048   2.343  0.0577 -0.1855  1.2937
   60MOL0     O 7968   8.028   7.112   2.327 -0.5261  0.0903 -0.4405
   60MOL0     C 7969   7.914   7.060   2.384  0.3710 -0.2593 -0.1290
   60MOL0     C 7970   7.821   7.154   2.445  0.7733 -0.0706  0.6144
   60MOL0     C 7971   7.689   7.110   2.498 -0.0684 -0.2636 -0.2992
   60MOL0     C 7972   7.659   6.977   2.487  1.3730  0.2901 -0.5787
   60MOL0     O 7973   7.532   6.921   2.505 -0.2957  0.1553  0.3283
   60MOL0     C 7974   7.420   7.014   2.491 -0.0563  0.9197 -0.0675
   60MOL0     C 7975   7.325   6.942   2.413 -0.1051  0.7473  0.0957
   60MOL0     C 7976   7.195   6.919   2.484  1.2550 -0.1051  0.5621
   60MOL0     C 7977   7.208   6.805   2.583 -0.1083  0.3504  0.2493
   60MOL0     C 7978   7.076   6.733   2.635  0.5957 -0.1689  0.1981
   60MOL0     C 7979   7.021   6.649   2.517  0.5007  0.2490 -1.0375
   60MOL0     C 7980   6.872   6.608   2.552 -1.0305 -0.0680 -0.5398
   60MOL0     C 7981   6.759   6.712   2.568  0.0803 -0.7637 -0.4459
   60MOL0     N 7982   6.625   6.642   2.563 -0.3751 -1.3703 -0.2347
   60MOL0     C 7983   6.513   6.678   2.640 -0.3088  0.4706  0.0210
   60MOL0     C 7984   6.413   6.616   2.579 -0.7702 -0.1316 -0.4329
   60MOL0     C 7985   6.272   6.628   2.628 -0.3152 -0.2513 -0.0600
   60MOL0     C 7986   6.260   6.639   2.776  0.3535  0.2697 -0.5927
   60MOL0     C 7987   6.118   6.659   2.822 -0.7602 -0.9731 -0.2259
   60MOL0     C 7988   6.055   6.791   2.803  0.3171  0.2700  0.2397
   60MOL0     O 7989   5.914   6.772   2.810  0.2917  0.1839 -0.3196
   60MOL0     C 7990   5.826   6.879   2.786 -0.5033  0.7792 -0.2149
   60MOL0     C 7991   5.866   7.014   2.786 -0.4839  0.4578 -0.0435
   60MOL0     C 7992   5.772   7.112   2.746 -0.0790  0.4135 -0.3198
   60MOL0     C 7993   5.830   7.247   2.711 -0.3495 -0.6493 -0.8714
   60MOL0     C 7994   5.636   7.078   2.745  0.5502  0.5994  0.6623
   60MOL0     C 7995   5.531   7.172   2.695 -0.0145  0.4491  0.2221
   60MOL0     O 7996   5.414   7.113   2.643  0.4690  0.1459  0.8045
   60MOL0     C 7997   5.311   7.187   2.595  0.0851  0.0750 -0.5621
   60MOL0     C 7998   5.333   7.297   2.506 -0.0689  0.0156 -0.2257
   60MOL0     C 7999   5.230   7.362   2.443 -0.3793  0.0648  0.4760
   60MOL0     C 8000   5.096   7.320   2.470  0.1810  0.2227  0.6759
   60MOL0     O 8001   4.993   7.394   2.414 -0.2389 -0.5547  0.1394
   60MOL0     C 8002   4.926   7.478   2.509  0.6456  0.3829 -0.2534
   60MOL0     C 8003   4.851   7.582   2.422 -0.1013  0.4148  0.4596
   60MOL0     C 8004   4.737   7.647   2.508 -0.3341  0.6354  0.0331
   60MOL0     C 8005   4.673   7.753   2.423 -0.2318 -0.4524  0.3839
   60MOL0     C 8006   4.567   7.688   2.341  0.1394 -0.4438 -0.1910
   60MOL0     C 8007   4.455   7.781   2.288  0.2020  0.3402  0.1037
   60MOL0     C 8008   4.511   7.909   2.225  0.9500  0.5100 -0.7210
   60MOL0     C 8009   4.407   7.973   2.139 -0.4116 -0.3795 -0.0428
   60MOL0    Cl 8010   4.474   8.124   2.078  0.0519  0.2940  0.3397
   60MOL0     C 8011   5.070   7.212   2.557  0.5277 -0.5571  0.7545
   60MOL0     C 8012   5.180   7.141   2.613 -0.1327  0.2226  0.0771
   60MOL0     O 8013   5.549   7.297   2.705 -0.5880  0.7687 -0.3616
   60MOL0     C 8014   5.597   6.946   2.785  0.7387  0.2157 -0.5846
   60MOL0     C 8015   5.692   6.847   2.797  0.6590  0.2582 -0.3031
   60MOL0     N 8016   6.461   6.548   2.469  0.2711  0.5106  0.0595
   60MOL0     N 8017   6.587   6.576   2.448  0.4037 -0.5248  0.0878
   60MOL0     C 8018   7.745   6.885   2.434  0.0864  0.4481  0.2552
   60MOL0     C 8019   7.873   6.926   2.380  0.0411 -0.8787 -0.1159
   60MOL0     C 8020   8.264   7.099   2.258  0.1935  0.3805  0.0030
   60MOL0     C 8021   8.383   7.019   2.263  0.0308  0.3947  0.7331
   60MOL0     C 8022   8.491   7.053   2.188 -0.2008 -1.0970  0.5162
   60MOL0     C 8023   8.493   7.163   2.105  0.2967 -0.9003 -0.5389
   60MOL0     O 8024   8.609   7.186   2.030  0.2799 -0.5985  0.4568
   60MOL0     C 8025   8.626   7.320   1.978  0.1279  0.7285  0.2627
   60MOL0     C 8026   8.742   7.308   1.878  0.5726 -0.0285  0.0842
   60MOL0     C 8027   8.872   7.289   1.951  0.8123 -0.9638  0.7964
   60MOL0     C 8028   8.981   7.284   1.841  0.0527 -0.3579 -0.7067
   60MOL0     C 8029   9.105   7.253   1.908  0.0105 -0.6223  0.2644
   60MOL0     C 8030   9.222   7.240   1.948  0.2712  0.7733  0.3199
   60MOL0     C 8031   8.379   7.248   2.108 -0.6144 -0.4712 -0.0427
   60MOL0     C 8032   8.265   7.212   2.177  0.1187  0.5312  0.0001
   60MOL0     H 8033   7.850   7.259   2.442  2.8001 -0.6243 -1.2572
   60MOL0     H 8034   7.613   7.184   2.521  0.0139 -0.4720  0.6676
   60MOL0     H 8035   7.392   7.039   2.594  2.2929  1.3763  0.5144
   60MOL0     H 8036   7.438   7.109   2.441 -0.7225 -0.5005 -3.2593
   60MOL0     H 8037   7.306   6.988   2.315 -1.6537 -0.5858 -0.2874
   60MOL0     H 8038   7.366   6.845   2.384  1.4843  1.9220 -1.8410
   60MOL0     H 8039   7.163   7.011   2.533 -0.6927 -0.6186  0.3037
   60MOL0     H 8040   7.114   6.899   2.414  1.2381  0.3285  0.4584
   60MOL0     H 8041   7.272   6.725   2.544 -0.7011  0.7014 -1.5424
   60MOL0     H 8042   7.268   6.847   2.665  0.8667 -1.0537  0.2774
   60MOL0     H 8043   7.096   6.661   2.715  1.0238 -1.1696 -0.7866
   60MOL0     H 8044   7.003   6.808   2.666  1.9733  0.8803  1.0504
   60MOL0     H 8045   7.013   6.719   2.434 -1.8394  1.3589  0.0285
   60MOL0     H 8046   7.084   6.565   2.487  1.6645  0.1574  1.3888
   60MOL0     H 8047   6.846   6.525   2.487  1.0051 -0.7377 -0.5835
   60MOL0     H 8048   6.872   6.567   2.653 -0.5631  0.1021 -0.4658
   60MOL0     H 8049   6.755   6.783   2.485 -2.8884 -0.2756  0.0038
   60MOL0     H 8050   6.772   6.776   2.656 -0.5943 -2.3947  0.8832
   60MOL0     H 8051   6.501   6.750   2.720  0.2288 -0.1275  0.6546
   60MOL0     H 8052   6.232   6.720   2.583  1.0330  0.3838 -0.0166
   60MOL0     H 8053   6.213   6.541   2.598 -1.5604  0.0942  1.2490
   60MOL0     H 8054   6.323   6.722   2.807  2.2741 -0.5539 -2.0628
   60MOL0     H 8055   6.298   6.545   2.818  2.6044  1.3682 -0.0337
   60MOL0     H 8056   6.109   6.623   2.924 -0.2441 -4.4065 -1.2671
   60MOL0     H 8057   6.064   6.587   2.759 -2.0108 -0.2860  0.0329
   60MOL0     H 8058   6.077   6.831   2.703 -1.6811  3.2717  0.8684
   60MOL0     H 8059   6.092   6.862   2.878 -2.1471  1.6636  0.2648
   60MOL0     H 8060   5.971   7.042   2.783 -0.1177 -0.7805  0.4063
   60MOL0     H 8061   5.806   7.315   2.792 -1.7204  1.1125 -2.6674
   60MOL0     H 8062   5.938   7.242   2.691 -0.2686 -1.8471 -0.2061
   60MOL0     H 8063   5.778   7.280   2.620 -1.4401 -0.1674 -0.0918
   60MOL0     H 8064   5.430   7.336   2.478 -0.0989  1.1564  1.1407
   60MOL0     H 8065   5.255   7.445   2.378  0.1526  0.2898  0.9673
   60MOL0     H 8066   4.871   7.410   2.575 -0.3591 -0.4545 -1.8851
   60MOL0     H 8067   4.998   7.528   2.574  0.0689 -1.7694  2.2150
   60MOL0     H 8068   4.915   7.658   2.378 -0.7412  0.0578 -1.1445
   60MOL0     H 8069   4.797   7.523   2.347 -0.2744  0.6729  0.3792
   60MOL0     H 8070   4.771   7.692   2.601  0.2851  0.0431  0.1003
   60MOL0     H 8071   4.674   7.562   2.540 -0.6206  0.3634 -1.1791
   60MOL0     H 8072   4.622   7.821   2.493  0.7042  0.1764  0.4683
   60MOL0     H 8073   4.746   7.806   2.361 -0.9591  0.4386  0.2681
   60MOL0     H 8074   4.510   7.620   2.405 -3.1132  1.3035 -1.0190
   60MOL0     H 8075   4.618   7.632   2.261  0.3986  2.3877 -2.1607
   60MOL0     H 8076   4.407   7.720   2.210  2.0601  0.8041 -1.4816
   60MOL0     H 8077   4.376   7.805   2.360  0.0611  3.1686 -0.8666
   60MOL0     H 8078   4.587   7.877   2.153 -1.6723 -2.2438 -2.5110
   60MOL0     H 8079   4.552   7.985   2.292  1.3695  0.9925 -1.5043
   60MOL0     H 8080   4.312   7.987   2.190 -0.7609  0.8259 -0.9728
   60MOL0     H 8081   4.381   7.906   2.056  0.1612 -2.1637  1.1756
   60MOL0     H 8082   4.972   7.169   2.576  0.4335 -2.6996 -3.4693
   60MOL0     H 8083   5.180   7.054   2.678  1.9350  1.0333  1.2542
   60MOL0     H 8084   5.492   6.932   2.807  1.0737 -2.1600 -0.2971
   60MOL0     H 8085   5.659   6.747   2.822  0.2771  0.7672  1.3867
   60MOL0     H 8086   7.722   6.780   2.420  0.0464  0.3968  0.6960
   60MOL0     H 8087   7.924   6.852   2.319  1.7381  0.7540 -0.7870
   60MOL0     H 8088   8.397   6.921   2.306  0.0361 -0.1682 -0.5214
   60MOL0     H 8089   8.579   6.989   2.187  0.6501 -0.0124  2.0346
   60MOL0     H 8090   8.535   7.340   1.920 -0.2397 -0.6065  0.3502
   60MOL0     H 8091   8.635   7.400   2.052  2.5532  0.2290  0.5843
   60MOL0     H 8092   8.737   7.404   1.827 -4.7122  0.1129  0.3447
   60MOL0     H 8093   8.716   7.225   1.812  0.8314 -0.9643  1.1303
   60MOL0     H 8094   8.881   7.199   2.013  0.3762 -1.3723  0.2763
   60MOL0     H 8095   8.886   7.373   2.019 -0.5504  0.4251 -0.5675
   60MOL0     H 8096   9.001   7.383   1.797  5.0987 -0.9329 -0.3725
   60MOL0     H 8097   8.952   7.208   1.768 -0.7379  1.0222 -1.9007
   60MOL0     H 8098   9.323   7.232   1.984 -0.1881 -1.1889  1.3239
   60MOL0     H 8099   8.379   7.340   2.051  0.6764 -0.4135  0.0089
   60MOL0     H 8100   8.178   7.275   2.176  0.3636  0.8682 -0.7852
   61MOL0     O 8101   4.424   5.255   1.221 -0.0135 -0.4242  0.1805
   61MOL0     C 8102   4.390   5.156   1.284  0.0887 -0.0168 -0.0471
   61MOL0     O 8103   4.448   5.032   1.289  0.2418  0.8815 -0.3502
   61MOL0     C 8104   4.574   5.026   1.253 -0.1378  0.2515 -0.3684
   61MOL0     C 8105   4.612   4.969   1.135  0.4447 -0.4543  0.5317
   61MOL0     C 8106   4.742   4.981   1.084  0.5282  0.3506  0.4718
   61MOL0     C 8107   4.844   5.035   1.165  0.1960  0.5264  0.3727
   61MOL0     O 8108   4.967   5.035   1.115 -0.2436  0.4856  0.2060
   61MOL0     C 8109   5.066   4.973   1.196  0.3350 -0.3947 -0.1480
   61MOL0     C 8110   5.206   4.990   1.131 -0.3228 -1.1714  0.2570
   61MOL0     C 8111   5.309   4.955   1.237  0.1612 -0.1785 -0.0893
   61MOL0     C 8112   5.450   4.940   1.176  0.3961 -1.4419 -0.5592
   61MOL0     C 8113   5.541   4.904   1.289 -0.0570  0.4436  0.7526
   61MOL0     C 8114   5.694   4.905   1.244  0.5607  0.0811 -0.4578
   61MOL0     C 8115   5.794   4.878   1.353 -0.3602  0.3612 -0.8717
   61MOL0     C 8116   5.935   4.942   1.336  0.4290  0.4055  0.1014
   61MOL0     N 8117   5.995   4.875   1.214 -0.2623  0.0455 -0.2313
   61MOL0     C 8118   6.000   4.928   1.089  0.8611 -0.5293  0.1778
   61MOL0     C 8119   6.074   4.836   1.024  0.7471  0.5013  0.0603
   61MOL0     C 8120   6.108   4.837   0.880  0.1537  0.1648 -0.3032
   61MOL0     C 8121   6.220   4.940   0.852 -0.2054 -0.0289  0.5072
   61MOL0     C 8122   6.276   4.921   0.704  0.4507  0.5590 -1.0990
   61MOL0     C 8123   6.391   5.014   0.662  0.9463  0.2227 -0.2420
   61MOL0     O 8124   6.357   5.153   0.690 -0.0138  0.6424  1.1185
   61MOL0     C 8125   6.304   5.226   0.592  0.3486  0.1009  0.5908
   61MOL0     C 8126   6.281   5.201   0.456  0.7099 -0.6556  0.6548
   61MOL0     C 8127   6.205   5.287   0.375  0.2988 -0.1585  0.2684
   61MOL0     C 8128   6.157   5.222   0.245  0.2879 -0.1027  0.1784
   61MOL0     C 8129   6.166   5.413   0.425  0.0984  0.1233  0.4681
   61MOL0     C 8130   6.083   5.500   0.343 -0.2508  0.1948  0.4251
   61MOL0     O 8131   5.988   5.566   0.409 -0.1209 -0.4271 -0.9339
   61MOL0     C 8132   5.924   5.658   0.331 -0.2990  1.3967 -0.1935
   61MOL0     C 8133   5.800   5.635   0.265 -1.0513  0.6604 -1.4712
   61MOL0     C 8134   5.730   5.737   0.201 -0.8806  0.4942  0.8811
   61MOL0     C 8135   5.788   5.869   0.192  0.9065  0.1787 -0.2453
   61MOL0     O 8136   5.711   5.975   0.146 -0.5032 -0.4946  0.3063
   61MOL0     C 8137   5.580   5.949   0.101 -0.0352  0.2853  0.9097
   61MOL0     C 8138   5.586   5.891  -0.041 -0.4018 -0.2573 -0.8639
   61MOL0     C 8139   5.630   6.005  -0.146 -0.8251 -0.0511 -1.1429
   61MOL0     C 8140   5.630   5.970  -0.289  0.1191  0.7240 -0.3643
   61MOL0     C 8141   5.692   6.088  -0.375 -0.7240 -0.7605 -0.6183
   61MOL0     C 8142   5.638   6.236  -0.339 -0.6062  0.0528 -0.1237
   61MOL0     C 8143   5.688   6.337  -0.445 -0.2742  0.4017  1.4623
   61MOL0     C 8144   5.660   6.487  -0.410 -0.0052  0.0612 -0.1349
   61MOL0    Cl 8145   5.769   6.505  -0.267  0.4399  0.0104  0.4278
   61MOL0     C 8146   5.916   5.891   0.249 -1.0763  0.5727 -0.7456
   61MOL0     C 8147   5.981   5.789   0.323  0.0626  0.1420  0.1500
   61MOL0     O 8148   6.120   5.520   0.227 -0.6209  0.8376 -1.2442
   61MOL0     C 8149   6.175   5.435   0.562 -0.9372  0.3030 -0.7586
   61MOL0     C 8150   6.256   5.349   0.640  0.1242 -0.3538  0.9488
   61MOL0     N 8151   6.118   4.737   1.112  0.3762  0.0670  0.2917
   61MOL0     N 8152   6.074   4.763   1.231  0.2840 -0.0944 -0.3821
   61MOL0     C 8153   4.805   5.109   1.273  0.5615  0.5524 -0.0790
   61MOL0     C 8154   4.669   5.104   1.324 -0.1483  0.2074  0.8437
   61MOL0     C 8155   4.274   5.179   1.383 -0.4324  0.2883 -0.4005
   61MOL0     C 8156   4.173   5.278   1.359 -0.2376 -0.5723  0.0977
   61MOL0     C 8157   4.060   5.293   1.450  0.3130 -0.4010 -0.4193
   61MOL0     C 8158   4.055   5.200   1.561 -0.1097 -0.4207  0.0970
   61MOL0     O 8159   3.953   5.194   1.651  0.0091  0.9517 -0.4801
   61MOL0     C 8160   3.853   5.292   1.628  0.0118 -0.1120 -0.2641
   61MOL0     C 8161   3.736   5.286   1.724 -0.5700 -0.2701  0.0231
   61MOL0     C 8162   3.784   5.309   1.872 -0.0405 -0.5204 -0.3062
   61MOL0     C 8163   3.681   5.336   1.979 -0.8008  0.3960  0.0071
   61MOL0     C 8164   3.605   5.463   1.958 -0.3141 -0.8161 -0.6049
   61MOL0     C 8165   3.550   5.566   1.932 -0.7377  0.1237  0.3491
   61MOL0     C 8166   4.154   5.104   1.583 -0.4899 -0.4444  0.6051
   61MOL0     C 8167   4.264   5.096   1.494  0.5800  0.8121 -0.3733
   61MOL0     H 8168   4.532   4.917   1.082 -0.1757 -0.0895  1.1033
   61MOL0     H 8169   4.765   4.948   0.983 -1.6196  3.7510 -1.3092
   61MOL0     H 8170   5.066   5.018   1.296  0.9544  0.5842 -0.5769
   61MOL0     H 8171   5.037   4.870   1.218 -0.1016 -0.3708 -0.5853
   61MOL0     H 8172   5.205   4.907   1.061 -2.5035 -2.3955  1.6394
   61MOL0     H 8173   5.208   5.094   1.096 -4.2218 -0.1435  2.3678
   61MOL0     H 8174   5.312   5.028   1.318 -3.1414 -1.7722  1.6622
   61MOL0     H 8175   5.268   4.862   1.277  0.0372 -0.2990 -0.4926
   61MOL0     H 8176   5.457   4.880   1.085 -0.0039 -1.4758 -0.5732
   61MOL0     H 8177   5.473   5.043   1.145  1.0263 -1.1853  0.7081
   61MOL0     H 8178   5.536   4.986   1.361  1.9457  2.3950 -1.1757
   61MOL0     H 8179   5.517   4.802   1.321 -1.0873 -0.2147 -1.8279
   61MOL0     H 8180   5.708   4.830   1.166 -0.9964  0.2200 -0.9098
   61MOL0     H 8181   5.705   5.005   1.200 -1.1228 -0.4164 -2.1452
   61MOL0     H 8182   5.754   4.909   1.451 -0.3094  0.8632 -1.0077
   61MOL0     H 8183   5.823   4.774   1.367  0.2048  0.6464  0.2529
   61MOL0     H 8184   5.995   4.918   1.424 -0.6829 -0.3088  0.6903
   61MOL0     H 8185   5.925   5.049   1.315 -1.7041  0.0087 -1.1192
   61MOL0     H 8186   5.931   5.004   1.055 -2.2265 -3.2852 -0.2913
   61MOL0     H 8187   6.148   4.739   0.853  3.6863  2.1208 -3.0653
   61MOL0     H 8188   6.019   4.852   0.817 -1.4296 -0.2772  1.7315
   61MOL0     H 8189   6.308   4.920   0.915 -0.8484 -2.8130  0.6173
   61MOL0     H 8190   6.186   5.041   0.879  2.1319  0.3318  2.4359
   61MOL0     H 8191   6.191   4.928   0.636 -0.3042 -0.0179 -0.2303
   61MOL0     H 8192   6.313   4.818   0.702 -2.9103 -0.8414  0.6778
   61MOL0     H 8193   6.411   5.005   0.554 -1.4631 -0.1421 -0.7186
   61MOL0     H 8194   6.477   4.972   0.714  0.7506 -2.0804 -1.6265
   61MOL0     H 8195   6.316   5.115   0.401 -0.2047 -0.6511  0.0381
   61MOL0     H 8196   6.236   5.158   0.204  0.7513 -0.6929  1.8865
   61MOL0     H 8197   6.067   5.162   0.262  1.1004 -1.5501 -0.4600
   61MOL0     H 8198   6.136   5.296   0.168  2.6620  2.0528  1.4048
   61MOL0     H 8199   5.754   5.540   0.288  1.2572 -0.1761 -0.0115
   61MOL0     H 8200   5.640   5.709   0.148 -2.1065  0.9043  2.6553
   61MOL0     H 8201   5.520   5.893   0.173 -1.3575  1.5785  0.8614
   61MOL0     H 8202   5.532   6.046   0.085 -0.1740 -0.3275 -4.0641
   61MOL0     H 8203   5.666   5.818  -0.050  2.0301  2.0126  0.8172
   61MOL0     H 8204   5.491   5.844  -0.068  0.6705 -1.7115 -2.2646
   61MOL0     H 8205   5.733   6.031  -0.121 -0.8047  0.4903 -1.7569
   61MOL0     H 8206   5.561   6.084  -0.116  1.0848  0.3254  2.9447
   61MOL0     H 8207   5.695   5.882  -0.298 -2.0738 -0.8487 -2.1870
   61MOL0     H 8208   5.530   5.946  -0.327 -0.3015  0.7853  0.6914
   61MOL0     H 8209   5.673   6.068  -0.481 -1.6727 -0.6809 -0.4799
   61MOL0     H 8210   5.798   6.096  -0.351 -1.1851  1.2258  0.9916
   61MOL0     H 8211   5.530   6.224  -0.330 -0.2427 -1.9505  2.3763
   61MOL0     H 8212   5.677   6.270  -0.243  1.1195  2.3603 -1.5101
   61MOL0     H 8213   5.638   6.319  -0.541 -0.0914 -0.5655  1.5441
   61MOL0     H 8214   5.793   6.328  -0.475 -1.0021  0.8189 -1.4752
   61MOL0     H 8215   5.558   6.511  -0.379 -0.1472  0.7295 -1.0732
   61MOL0     H 8216   5.690   6.550  -0.494 -1.2738  0.7033 -0.1363
   61MOL0     H 8217   5.955   5.992   0.260  0.6864 -0.1365 -0.0261
   61MOL0     H 8218   6.080   5.811   0.364  1.9309 -1.0843 -3.3100
   61MOL0     H 8219   6.136   5.523   0.612 -1.6299 -0.1273 -0.5340
   61MOL0     H 8220   6.265   5.366   0.746 -1.8101 -0.9840  1.2499
   61MOL0     H 8221   4.882   5.164   1.326  0.6959  1.1616 -0.8898
   61MOL0     H 8222   4.639   5.173   1.402  1.9389  2.8431 -0.5097
   61MOL0     H 8223   4.189   5.351   1.280  3.9844 -2.3461 -0.9572
   61MOL0     H 8224   3.990   5.374   1.434 -0.8953 -1.9682 -4.1919
   61MOL0     H 8225   3.896   5.393   1.629  1.3879 -0.6053 -2.4881
   61MOL0     H 8226   3.809   5.286   1.528  1.1501  3.0355 -1.0664
   61MOL0     H 8227   3.690   5.187   1.714 -1.3395 -0.1207  1.6827
   61MOL0     H 8228   3.660   5.360   1.697 -0.0783  0.2415  0.0243
   61MOL0     H 8229   3.853   5.394   1.873 -2.8068  1.8790  0.3258
   61MOL0     H 8230   3.844   5.222   1.901  0.3271  0.4564  2.0553
   61MOL0     H 8231   3.740   5.339   2.071  1.8233 -3.2560 -1.3130
   61MOL0     H 8232   3.615   5.250   1.992  0.8122 -0.7191  1.3759
   61MOL0     H 8233   3.490   5.651   1.909 -1.2905 -0.0114  1.2635
   61MOL0     H 8234   4.140   5.032   1.662 -0.7398 -1.1201 -0.0461
   61MOL0     H 8235   4.336   5.017   1.514 -0.2989 -0.3053 -1.4781
   62MOL0     O 8236   6.521   4.756   7.898 -0.5864 -0.6699  0.8743
   62MOL0     C 8237   6.533   4.881   7.903  0.0587  0.8309  0.0709
   62MOL0     O 8238   6.444   4.967   7.969 -0.3289  0.2175 -0.2110
   62MOL0     C 8239   6.323   4.931   8.014  0.4379 -1.0554 -0.2978
   62MOL0     C 8240   6.211   4.989   7.960 -0.6221 -0.3023  0.5017
   62MOL0     C 8241   6.089   4.937   8.001 -0.1212 -0.2246  0.7468
   62MOL0     C 8242   6.075   4.847   8.100 -1.2334 -0.6308 -0.3883
   62MOL0     O 8243   5.945   4.830   8.144 -0.0868  0.1877 -0.4610
   62MOL0     C 8244   5.937   4.714   8.231  0.2141  0.1748  0.2063
   62MOL0     C 8245   5.782   4.690   8.248 -0.5175 -0.5898  0.1301
   62MOL0     C 8246   5.711   4.796   8.338 -0.4195 -0.1960  0.0825
   62MOL0     C 8247   5.564   4.752   8.352 -0.8101 -0.3205 -0.7790
   62MOL0     C 8248   5.498   4.840   8.461  0.0525  0.5926 -0.9671
   62MOL0     C 8249   5.349   4.805   8.454  0.6881  0.2148  0.0777
   62MOL0     C 8250   5.254   4.883   8.545 -0.5449  0.2241 -0.2283
   62MOL0     C 8251   5.119   4.827   8.559 -0.6419  0.7241 -0.3672
   62MOL0     N 8252   5.073   4.773   8.432  0.3503 -0.7883  0.3151
   62MOL0     C 8253   5.054   4.643   8.406  0.4155 -0.0471  0.5542
   62MOL0     C 8254   4.969   4.639   8.297 -0.2724 -0.6636  0.6888
   62MOL0     C 8255   4.921   4.515   8.233 -0.6685  0.1954 -0.2504
   62MOL0     C 8256   4.832   4.439   8.323 -0.0213 -0.1088 -1.4743
   62MOL0     C 8257   4.710   4.500   8.393  0.1450  0.1877  0.0223
   62MOL0     C 8258   4.663   4.398   8.502  0.5216 -0.3222  0.2731
   62MOL0     O 8259   4.612   4.270   8.444  0.0048 -0.4901 -0.2819
   62MOL0     C 8260   4.474   4.265   8.454 -0.0363  0.1024  0.5640
   62MOL0     C 8261   4.387   4.316   8.359 -0.2342 -0.2187 -0.6117
   62MOL0     C 8262   4.243   4.305   8.363  0.3705  0.1765 -0.3470
   62MOL0     C 8263   4.178   4.348   8.238  0.4854  0.6359 -0.2788
   62MOL0     C 8264   4.190   4.236   8.476  0.8880 -0.2357  0.9440
   62MOL0     C 8265   4.043   4.219   8.498  0.9369  0.5957 -0.8495
   62MOL0     O 8266   4.011   4.146   8.606 -0.6867  0.7781 -0.3283
   62MOL0     C 8267   3.874   4.138   8.629 -0.6209 -0.6977 -0.4700
   62MOL0     C 8268   3.828   4.179   8.757 -0.4479 -0.5621 -0.2354
   62MOL0     C 8269   3.701   4.167   8.800 -0.2266  0.2911  0.6964
   62MOL0     C 8270   3.604   4.110   8.712 -0.0312 -0.8039 -1.0372
   62MOL0     O 8271   3.475   4.090   8.748  0.2137  0.2817  0.5018
   62MOL0     C 8272   3.420   4.174   8.850  0.2612 -0.1559 -0.3661
   62MOL0     C 8273   3.270   4.146   8.849 -0.3709  1.4738 -0.1824
   62MOL0     C 8274   3.197   4.274   8.873  0.4911 -1.3322  0.1519
   62MOL0     C 8275   3.044   4.258   8.898  0.6031 -0.1024  0.2808
   62MOL0     C 8276   2.970   4.382   8.950  0.3953  0.5177  0.3711
   62MOL0     C 8277   2.814   4.375   8.940  0.0407  0.1836  0.1476
   62MOL0     C 8278   2.751   4.270   9.032  0.3415 -0.0996 -0.3855
   62MOL0     C 8279   2.597   4.304   9.059  0.1950  0.4985  0.8208
   62MOL0    Cl 8280   2.586   4.440   9.168  0.4169 -0.6471 -0.0606
   62MOL0     C 8281   3.650   4.074   8.587  1.0852  0.0739 -0.2137
   62MOL0     C 8282   3.780   4.080   8.546 -1.6473  0.5155  0.4523
   62MOL0     O 8283   3.960   4.280   8.430  0.3892  0.1054  0.0632
   62MOL0     C 8284   4.277   4.188   8.578 -0.1590  0.3581  0.0395
   62MOL0     C 8285   4.415   4.211   8.564 -0.5999  0.4746  0.3102
   62MOL0     N 8286   4.932   4.768   8.271  0.2510 -1.0384  0.1276
   62MOL0     N 8287   5.001   4.848   8.347 -0.2087  0.2185 -0.0206
   62MOL0     C 8288   6.192   4.808   8.171  0.5993  0.2863  0.0749
   62MOL0     C 8289   6.312   4.849   8.126  0.3824  0.2037  0.3074
   62MOL0     C 8290   6.645   4.938   7.825 -0.0651  0.6100 -1.1048
   62MOL0     C 8291   6.702   4.864   7.716 -0.2706  0.5224 -0.5255
   62MOL0     C 8292   6.816   4.905   7.648 -0.9117  1.5451 -0.7279
   62MOL0     C 8293   6.873   5.029   7.678 -0.4987  0.0586  0.3160
   62MOL0     O 8294   6.969   5.081   7.601 -0.4979  0.0022 -0.2337
   62MOL0     C 8295   6.982   5.038   7.469 -0.1108 -0.3793  0.4287
   62MOL0     C 8296   7.093   5.127   7.401 -0.1922 -0.2051  0.2176
   62MOL0     C 8297   7.127   5.083   7.255  0.4711  0.3885  0.0864
   62MOL0     C 8298   7.231   5.178   7.191 -0.1045 -0.3248  0.7125
   62MOL0     C 8299   7.218   5.154   7.050 -0.0496 -0.2375 -0.3399
   62MOL0     C 8300   7.214   5.123   6.935 -0.8916 -0.1555  0.1998
   62MOL0     C 8301   6.814   5.110   7.776 -0.7124 -0.0527  0.3595
   62MOL0     C 8302   6.701   5.067   7.856 -0.0596  0.4658  0.8193
   62MOL0     H 8303   6.227   5.059   7.879  3.3871 -0.3326  1.0872
   62MOL0     H 8304   6.007   4.983   7.948  0.2415  0.8020  1.0501
   62MOL0     H 8305   6.005   4.632   8.205  1.9220  2.1884 -2.0593
   62MOL0     H 8306   5.969   4.755   8.327 -1.0691  0.2190  0.6379
   62MOL0     H 8307   5.744   4.696   8.146 -0.4281 -0.6669  0.0923
   62MOL0     H 8308   5.769   4.587   8.283  0.5075 -1.1311 -1.0547
   62MOL0     H 8309   5.757   4.805   8.437 -2.7046  3.6555  1.0109
   62MOL0     H 8310   5.716   4.892   8.284 -0.7205  0.8483  1.8204
   62MOL0     H 8311   5.511   4.764   8.257  0.9438 -0.2398 -1.8008
   62MOL0     H 8312   5.552   4.650   8.389 -2.1697 -0.0772 -0.4817
   62MOL0     H 8313   5.541   4.820   8.560 -0.6691  0.4928 -0.6669
   62MOL0     H 8314   5.514   4.943   8.429  0.8251  1.1226  0.9936
   62MOL0     H 8315   5.315   4.819   8.351 -0.9079  0.6457  0.6412
   62MOL0     H 8316   5.338   4.698   8.474  0.8866  0.8326  4.5267
   62MOL0     H 8317   5.294   4.891   8.646  1.1701 -1.8704 -0.6667
   62MOL0     H 8318   5.249   4.987   8.511 -1.7412  0.7062  1.3392
   62MOL0     H 8319   5.048   4.898   8.603 -0.7645 -0.0965  0.8193
   62MOL0     H 8320   5.128   4.737   8.621  0.0870  1.0665  0.0441
   62MOL0     H 8321   5.093   4.553   8.452 -0.1686 -1.7777 -2.0785
   62MOL0     H 8322   4.879   4.527   8.133 -0.1976  1.9462 -0.2562
   62MOL0     H 8323   5.007   4.448   8.218  0.5625  1.4692  0.8150
   62MOL0     H 8324   4.899   4.415   8.407 -1.0981  0.2526 -0.4818
   62MOL0     H 8325   4.806   4.338   8.289  2.6335 -2.0299  1.4935
   62MOL0     H 8326   4.639   4.509   8.310  2.0537 -1.4228 -1.8869
   62MOL0     H 8327   4.728   4.597   8.441 -1.6467  1.7918 -2.2799
   62MOL0     H 8328   4.584   4.449   8.559  0.0071 -2.0856  1.1939
   62MOL0     H 8329   4.740   4.370   8.574 -0.7861 -3.2636  0.6712
   62MOL0     H 8330   4.434   4.376   8.282  1.9437  1.2597  1.7064
   62MOL0     H 8331   4.120   4.262   8.204 -0.3173  0.5704  1.2101
   62MOL0     H 8332   4.114   4.435   8.249  0.9542  0.9538 -0.0305
   62MOL0     H 8333   4.253   4.365   8.160  2.2179  3.3010  1.7748
   62MOL0     H 8334   3.896   4.228   8.825 -2.2239 -1.9907  2.7541
   62MOL0     H 8335   3.688   4.202   8.902  0.5557 -2.3265  1.7766
   62MOL0     H 8336   3.469   4.136   8.939 -0.2873  0.3526  0.1639
   62MOL0     H 8337   3.441   4.280   8.831 -2.9292  0.4651 -1.0328
   62MOL0     H 8338   3.243   4.101   8.753 -0.9987 -0.8853  1.0067
   62MOL0     H 8339   3.245   4.069   8.923  2.3219  0.7071  0.0487
   62MOL0     H 8340   3.208   4.342   8.788  2.5893  0.7641  1.9337
   62MOL0     H 8341   3.241   4.315   8.965 -1.3369 -2.6754  1.7158
   62MOL0     H 8342   2.997   4.217   8.808 -0.8084  0.1996  0.8688
   62MOL0     H 8343   3.035   4.185   8.979  1.6779  0.0957  0.5962
   62MOL0     H 8344   2.996   4.468   8.889  1.4753 -0.0290  0.0386
   62MOL0     H 8345   3.000   4.398   9.054 -0.1002 -0.1428  0.6216
   62MOL0     H 8346   2.776   4.475   8.963  0.2614  0.1877  0.4919
   62MOL0     H 8347   2.776   4.357   8.838  0.3713 -3.0706  0.4920
   62MOL0     H 8348   2.801   4.269   9.129  1.4788  0.8204 -0.9466
   62MOL0     H 8349   2.757   4.171   8.987  0.2746 -1.1677  1.8010
   62MOL0     H 8350   2.564   4.213   9.111  0.7273  1.0513  2.1714
   62MOL0     H 8351   2.550   4.333   8.965  2.5572  4.2529  0.6190
   62MOL0     H 8352   3.576   4.034   8.519 -0.1771  3.6450 -1.1242
   62MOL0     H 8353   3.828   4.042   8.456  2.5908  3.9701  0.9099
   62MOL0     H 8354   4.245   4.141   8.671 -1.3163  3.2178  1.2142
   62MOL0     H 8355   4.481   4.164   8.636 -1.1783 -0.6747  0.1040
   62MOL0     H 8356   6.186   4.746   8.261 -1.4244  0.3995  0.0775
   62MOL0     H 8357   6.396   4.813   8.186  0.8080  2.0020  0.8911
   62MOL0     H 8358   6.648   4.777   7.680  1.1516 -0.4341 -0.4531
   62MOL0     H 8359   6.857   4.840   7.572 -0.9897 -1.1530  1.3624
   62MOL0     H 8360   7.022   4.936   7.462  1.0783  0.1637 -2.1203
   62MOL0     H 8361   6.889   5.048   7.413 -0.3845 -1.8107  0.5958
   62MOL0     H 8362   7.181   5.149   7.462  0.1972 -0.0841 -0.3804
   62MOL0     H 8363   7.047   5.226   7.394  2.1795  0.9408 -0.3384
   62MOL0     H 8364   7.031   5.073   7.203 -1.6136 -2.2338  3.9680
   62MOL0     H 8365   7.173   4.984   7.257  0.7111  0.5123  0.8965
   62MOL0     H 8366   7.330   5.153   7.231  0.3991 -0.3499 -0.5261
   62MOL0     H 8367   7.217   5.284   7.212  1.5475 -0.0652  0.6809
   62MOL0     H 8368   7.200   5.092   6.833  0.4471 -0.1627  0.0063
   62MOL0     H 8369   6.856   5.210   7.786 -0.2656 -0.3299  1.4965
   62MOL0     H 8370   6.669   5.133   7.935  2.0741  1.7363  0.6939
   63MOL0     O 8371  10.695   3.413   9.649  0.0478  0.2148  0.1752
   63MOL0     C 8372  10.789   3.388   9.567 -0.5781  0.0601  0.4781
   63MOL0     O 8373  10.787   3.413   9.430 -0.4138  0.0280 -0.3415
   63MOL0     C 8374  10.678   3.448   9.360 -0.2501  0.1293 -0.2152
   63MOL0     C 8375  10.547   3.421   9.395  0.1434 -0.5045  0.4978
   63MOL0     C 8376  10.440   3.461   9.312 -0.5015 -0.0262 -0.8961
   63MOL0     C 8377  10.471   3.512   9.192  0.3802 -0.0617  0.1967
   63MOL0     O 8378  10.369   3.536   9.101 -0.2460  0.2155 -0.1363
   63MOL0     C 8379  10.289   3.417   9.086 -0.1142  0.0000  0.2968
   63MOL0     C 8380  10.195   3.432   8.970  0.1696 -0.2481 -0.6729
   63MOL0     C 8381  10.093   3.325   8.963  0.1498 -0.3488 -0.1309
   63MOL0     C 8382   9.982   3.349   8.856 -0.7003 -0.3193 -0.0541
   63MOL0     C 8383   9.873   3.455   8.893 -0.8934 -0.0302  0.3514
   63MOL0     C 8384   9.760   3.460   8.791 -0.0551 -0.2410  0.0942
   63MOL0     C 8385   9.643   3.541   8.843 -0.2729 -0.2990  0.0566
   63MOL0     C 8386   9.543   3.582   8.735 -0.2459 -0.1153 -0.2474
   63MOL0     N 8387   9.408   3.638   8.784 -0.4714 -0.1665 -0.1626
   63MOL0     C 8388   9.290   3.585   8.752 -0.0481  0.4675 -0.5486
   63MOL0     C 8389   9.195   3.678   8.796 -0.0673  0.1388  0.0243
   63MOL0     C 8390   9.044   3.672   8.783  0.2601 -0.2508  0.0833
   63MOL0     C 8391   8.970   3.757   8.883  0.2760 -0.3138  0.4669
   63MOL0     C 8392   8.834   3.692   8.927 -0.3315  0.2202  0.0545
   63MOL0     C 8393   8.725   3.694   8.819  0.2211  0.2362  0.6912
   63MOL0     O 8394   8.602   3.673   8.884 -0.3310 -0.2976 -0.3089
   63MOL0     C 8395   8.483   3.680   8.812  0.3090 -0.7048 -0.1490
   63MOL0     C 8396   8.481   3.707   8.677 -0.3797 -0.8261  0.2981
   63MOL0     C 8397   8.363   3.703   8.604  0.2096 -0.3285 -0.0559
   63MOL0     C 8398   8.377   3.723   8.455 -0.0711 -1.1396  0.4493
   63MOL0     C 8399   8.232   3.687   8.671  0.1447  1.1319  0.0426
   63MOL0     C 8400   8.102   3.690   8.606 -0.5931 -0.5030  0.0082
   63MOL0     O 8401   8.096   3.659   8.471 -0.4205  0.3023 -0.7705
   63MOL0     C 8402   7.971   3.657   8.426  0.8472 -0.3711  0.1897
   63MOL0     C 8403   7.926   3.756   8.334  0.9634  0.7595 -0.7528
   63MOL0     C 8404   7.790   3.750   8.300  0.3836 -0.1737  0.2371
   63MOL0     C 8405   7.700   3.644   8.327  0.9015 -0.2203  1.0338
   63MOL0     O 8406   7.575   3.647   8.275 -0.2108  1.0141 -0.2019
   63MOL0     C 8407   7.513   3.533   8.215 -0.6685  0.1954 -0.3997
   63MOL0     C 8408   7.378   3.557   8.164  0.2100  0.4976  0.9062
   63MOL0     C 8409   7.290   3.591   8.279  0.0865 -0.9535 -0.5134
   63MOL0     C 8410   7.141   3.598   8.239 -0.3777  1.1257 -0.1389
   63MOL0     C 8411   7.051   3.519   8.338  0.6192 -0.0864  0.7916
   63MOL0     C 8412   7.027   3.582   8.469  0.4342 -0.3873 -0.4269
   63MOL0     C 8413   6.898   3.539   8.542 -0.1235  1.0674 -0.6599
   63MOL0     C 8414   6.861   3.653   8.635 -0.9493 -0.1727 -1.1585
   63MOL0    Cl 8415   6.728   3.620   8.747 -0.0806 -0.4924 -0.1986
   63MOL0     C 8416   7.754   3.536   8.400  0.6876  0.0120  0.0991
   63MOL0     C 8417   7.887   3.545   8.447 -0.5094 -0.5567  0.0211
   63MOL0     O 8418   8.008   3.729   8.674 -0.5290  0.1519 -0.1445
   63MOL0     C 8419   8.236   3.655   8.804 -0.3085 -0.7702 -0.5609
   63MOL0     C 8420   8.368   3.652   8.876  0.3250  0.2780  0.6215
   63MOL0     N 8421   9.264   3.784   8.858  0.8168 -0.1413  0.5631
   63MOL0     N 8422   9.387   3.759   8.844 -0.4742 -0.0370  0.3820
   63MOL0     C 8423  10.601   3.545   9.163 -0.1934 -0.1636 -0.9908
   63MOL0     C 8424  10.709   3.507   9.242 -0.1716  0.3294  0.3699
   63MOL0     C 8425  10.918   3.339   9.624  0.4258 -0.2142  1.7574
   63MOL0     C 8426  10.941   3.315   9.758 -0.3589 -0.8772 -0.6385
   63MOL0     C 8427  11.066   3.272   9.812  0.4380 -0.2726  0.2735
   63MOL0     C 8428  11.167   3.234   9.720  0.2055 -0.3758 -0.2853
   63MOL0     O 8429  11.284   3.168   9.748 -0.2378 -0.0116 -0.3948
   63MOL0     C 8430  11.314   3.142   9.886  0.4838  0.0269  0.0123
   63MOL0     C 8431  11.444   3.077   9.914 -0.2759  0.2285  0.3240
   63MOL0     C 8432  11.564   3.179   9.924  0.1101  0.0332  0.3748
   63MOL0     C 8433  11.564   3.256  10.058 -0.3494  0.2006  0.9707
   63MOL0     C 8434  11.696   3.330  10.076 -0.8938  0.2789  0.2595
   63MOL0     C 8435  11.806   3.378  10.098  0.6166 -1.2371 -0.2501
   63MOL0     C 8436  11.144   3.257   9.586  0.4380  0.4487 -0.5738
   63MOL0     C 8437  11.026   3.311   9.540 -0.3309 -0.8518  0.5932
   63MOL0     H 8438  10.512   3.391   9.493 -0.6356  1.2366  0.8005
   63MOL0     H 8439  10.338   3.443   9.344 -0.2215 -2.6079 -1.2710
   63MOL0     H 8440  10.360   3.336   9.066  0.9011  0.9375 -0.0206
   63MOL0     H 8441  10.228   3.386   9.171 -0.7379 -0.8970 -0.4477
   63MOL0     H 8442  10.142   3.524   8.996 -0.5086 -1.2259  1.5878
   63MOL0     H 8443  10.242   3.459   8.874  0.4247 -1.8847 -1.0329
   63MOL0     H 8444  10.138   3.227   8.945  1.1297  0.4083 -2.0123
   63MOL0     H 8445  10.046   3.319   9.062  0.3492 -0.1042 -0.0222
   63MOL0     H 8446  10.034   3.373   8.763 -0.1015  0.4633  0.4701
   63MOL0     H 8447   9.928   3.254   8.851 -0.1912 -0.6161  0.0199
   63MOL0     H 8448   9.825   3.431   8.989  0.5571  0.0293  1.1214
   63MOL0     H 8449   9.914   3.557   8.898  1.7206 -1.0407  1.0947
   63MOL0     H 8450   9.803   3.501   8.699 -2.1837  1.0742 -0.3919
   63MOL0     H 8451   9.725   3.357   8.786 -0.1269 -0.2170  0.0983
   63MOL0     H 8452   9.588   3.483   8.918 -2.0189  0.1278 -0.8374
   63MOL0     H 8453   9.676   3.635   8.889  0.7288  0.2987 -1.7915
   63MOL0     H 8454   9.529   3.504   8.659 -1.1437  1.6766 -2.0308
   63MOL0     H 8455   9.588   3.661   8.674 -1.1071  0.0840 -0.6312
   63MOL0     H 8456   9.277   3.485   8.712  0.4171 -0.0937  0.6250
   63MOL0     H 8457   9.011   3.709   8.685 -0.2711 -0.3884  0.2070
   63MOL0     H 8458   9.015   3.567   8.795  1.0219 -0.7410 -1.9679
   63MOL0     H 8459   8.957   3.856   8.838  1.7978  0.7360  2.1967
   63MOL0     H 8460   9.033   3.768   8.971  1.1041 -0.6831 -0.0633
   63MOL0     H 8461   8.805   3.754   9.013  0.1466 -0.0023  0.3813
   63MOL0     H 8462   8.846   3.590   8.965  0.9488 -0.9453 -3.1484
   63MOL0     H 8463   8.734   3.626   8.733  1.9460  0.0290  0.9837
   63MOL0     H 8464   8.730   3.790   8.768 -2.0009 -0.1748 -0.4176
   63MOL0     H 8465   8.566   3.741   8.619 -0.4464  1.4875  1.4245
   63MOL0     H 8466   8.332   3.648   8.389  0.5937 -1.0669 -0.0988
   63MOL0     H 8467   8.331   3.818   8.425 -0.1066 -2.1815 -3.2675
   63MOL0     H 8468   8.477   3.708   8.413 -0.9613 -0.5554 -2.0604
   63MOL0     H 8469   7.991   3.834   8.296 -0.0154  0.7800 -2.4944
   63MOL0     H 8470   7.763   3.828   8.230  0.6659  2.2590  2.6826
   63MOL0     H 8471   7.578   3.501   8.132  0.3538 -0.7707  0.7357
   63MOL0     H 8472   7.512   3.462   8.299  0.3651  1.2147  0.5004
   63MOL0     H 8473   7.383   3.633   8.084  3.1497 -0.6232 -0.1233
   63MOL0     H 8474   7.329   3.471   8.119  0.8928  0.8271 -0.5537
   63MOL0     H 8475   7.311   3.690   8.320 -1.2952 -1.9242  2.8054
   63MOL0     H 8476   7.299   3.526   8.366  0.5408 -1.2488 -0.7771
   63MOL0     H 8477   7.107   3.702   8.239 -1.6658  0.8526 -3.7282
   63MOL0     H 8478   7.125   3.559   8.138  0.4153 -0.1886  0.2188
   63MOL0     H 8479   7.080   3.414   8.350 -1.4613 -0.5436  2.3550
   63MOL0     H 8480   6.952   3.520   8.292 -0.1139  0.6404  2.3137
   63MOL0     H 8481   7.114   3.572   8.536  0.2871 -1.2635 -0.3488
   63MOL0     H 8482   7.025   3.689   8.450 -0.8492 -0.3033  0.0839
   63MOL0     H 8483   6.917   3.452   8.606 -0.3174  1.7462  0.3563
   63MOL0     H 8484   6.813   3.515   8.477 -0.9582 -0.5946  0.9593
   63MOL0     H 8485   6.839   3.746   8.581  2.1651  0.9397 -0.7004
   63MOL0     H 8486   6.950   3.687   8.688  0.9289 -3.9721 -1.5594
   63MOL0     H 8487   7.689   3.455   8.433 -1.0193  0.4680 -1.9527
   63MOL0     H 8488   7.921   3.461   8.507  3.8742  2.4898  2.3935
   63MOL0     H 8489   8.149   3.622   8.860  1.5848 -3.6469  0.9311
   63MOL0     H 8490   8.381   3.628   8.981  0.7502 -2.7956 -0.0420
   63MOL0     H 8491  10.608   3.601   9.070  0.4606 -0.0421 -0.8727
   63MOL0     H 8492  10.813   3.531   9.222  0.0288 -0.2295  0.7142
   63MOL0     H 8493  10.863   3.331   9.832 -0.0062 -1.4733 -0.1278
   63MOL0     H 8494  11.072   3.267   9.920  0.9392  1.8986  0.3920
   63MOL0     H 8495  11.311   3.230   9.951  0.4821 -0.6040  0.8841
   63MOL0     H 8496  11.238   3.075   9.928  1.2482 -0.0595  1.3036
   63MOL0     H 8497  11.460   3.022   9.821 -2.9509  1.1033 -0.7455
   63MOL0     H 8498  11.446   3.013  10.002  0.5070  1.0572  0.9278
   63MOL0     H 8499  11.556   3.250   9.840  2.1464 -0.4332 -0.2530
   63MOL0     H 8500  11.661   3.130   9.914 -0.4335 -0.9910 -0.0728
   63MOL0     H 8501  11.550   3.183  10.138 -1.1130 -1.7616 -0.8342
   63MOL0     H 8502  11.477   3.321  10.051 -0.5988 -0.2868 -3.2726
   63MOL0     H 8503  11.890   3.442  10.117 -0.1573 -0.5683  1.0638
   63MOL0     H 8504  11.217   3.227   9.512  0.6578  1.1087 -0.6298
   63MOL0     H 8505  11.008   3.317   9.433  1.4004  0.5589  0.3229
   64MOL0     O 8506   5.486   7.478   5.363  0.8262  0.2514 -1.0334
   64MOL0     C 8507   5.453   7.390   5.287 -0.4007  0.1536 -0.0420
   64MOL0     O 8508   5.345   7.305   5.310 -0.3670 -0.0179 -0.3191
   64MOL0     C 8509   5.290   7.306   5.439  0.4685  1.2628 -0.2491
   64MOL0     C 8510   5.158   7.331   5.446  0.0724 -0.4800  0.1966
   64MOL0     C 8511   5.083   7.329   5.566 -0.2743 -0.1425 -0.0394
   64MOL0     C 8512   5.159   7.312   5.688 -0.0530 -0.2458 -0.8194
   64MOL0     O 8513   5.099   7.300   5.817  0.5782 -0.1981 -0.0944
   64MOL0     C 8514   4.961   7.311   5.821  0.1679  0.1785 -0.5275
   64MOL0     C 8515   4.917   7.260   5.962  0.5245  0.5255  0.2511
   64MOL0     C 8516   4.762   7.238   5.982  0.0206  0.6796  0.1850
   64MOL0     C 8517   4.691   7.371   5.997  0.1512 -0.3146 -0.0508
   64MOL0     C 8518   4.544   7.354   6.022  0.4803  0.7253 -0.5894
   64MOL0     C 8519   4.477   7.468   6.088  0.0991 -0.0704 -0.4404
   64MOL0     C 8520   4.330   7.427   6.123  0.5946 -1.9757  0.0596
   64MOL0     C 8521   4.268   7.558   6.178 -0.8970  0.2760 -0.3164
   64MOL0     N 8522   4.137   7.525   6.241 -0.8861 -0.1704  0.1993
   64MOL0     C 8523   4.030   7.465   6.181 -0.3049  0.4700  0.0589
   64MOL0     C 8524   3.949   7.444   6.285 -0.4383 -0.3605  0.0536
   64MOL0     C 8525   3.826   7.370   6.292 -0.0968  0.0001 -0.1042
   64MOL0     C 8526   3.696   7.448   6.272  0.5336  0.4867  0.3976
   64MOL0     C 8527   3.577   7.348   6.278 -0.0056 -0.6257  1.6576
   64MOL0     C 8528   3.446   7.416   6.252  0.6284  0.7522  0.5216
   64MOL0     O 8529   3.341   7.329   6.289 -0.5305 -0.1833 -0.3935
   64MOL0     C 8530   3.216   7.350   6.244  0.5330  0.0457 -0.3519
   64MOL0     C 8531   3.171   7.455   6.165 -0.2699  0.2110 -0.4406
   64MOL0     C 8532   3.045   7.467   6.107  0.4611 -0.3975 -0.9341
   64MOL0     C 8533   3.009   7.594   6.041  0.5163 -0.7443  0.8306
   64MOL0     C 8534   2.953   7.367   6.136 -0.0996  0.2195  0.0519
   64MOL0     C 8535   2.809   7.380   6.089  0.1911  0.5089 -0.5110
   64MOL0     O 8536   2.726   7.290   6.153  0.0768  0.6020 -0.1178
   64MOL0     C 8537   2.616   7.249   6.089 -0.0771 -0.0508  0.2752
   64MOL0     C 8538   2.507   7.322   6.037  0.2818 -0.6754 -0.6928
   64MOL0     C 8539   2.411   7.267   5.959 -0.1985 -0.1552 -0.4578
   64MOL0     C 8540   2.413   7.124   5.935 -0.0072 -0.2884 -0.5020
   64MOL0     O 8541   2.309   7.067   5.863 -0.8281 -0.7387  0.1756
   64MOL0     C 8542   2.251   7.149   5.762  0.0652 -0.4149 -0.6318
   64MOL0     C 8543   2.205   7.067   5.649  0.4401  1.0960 -0.0232
   64MOL0     C 8544   2.107   6.952   5.691 -0.3791 -0.2904  0.0656
   64MOL0     C 8545   2.011   6.910   5.571 -0.2359  0.3549  0.8850
   64MOL0     C 8546   1.875   6.978   5.577  0.8845 -0.5562 -0.0052
   64MOL0     C 8547   1.772   6.895   5.498 -0.3294 -0.5745 -0.2550
   64MOL0     C 8548   1.660   6.990   5.444  0.4187  0.9602 -0.1243
   64MOL0     C 8549   1.547   6.934   5.357  0.0303  0.9834  0.1679
   64MOL0    Cl 8550   1.425   6.829   5.452 -0.5316 -0.4162  0.0791
   64MOL0     C 8551   2.510   7.049   5.989 -0.6073  1.0143 -0.2318
   64MOL0     C 8552   2.615   7.114   6.059  0.3983 -0.6516 -0.1849
   64MOL0     O 8553   2.779   7.437   5.984 -0.5290 -0.0014 -0.9622
   64MOL0     C 8554   2.995   7.256   6.210 -0.6736  0.0883 -0.0911
   64MOL0     C 8555   3.125   7.247   6.267 -0.2674  0.2518  0.3516
   64MOL0     N 8556   4.000   7.499   6.400 -0.6424  0.6305  0.6637
   64MOL0     N 8557   4.115   7.551   6.377 -0.3788 -0.0572  0.4005
   64MOL0     C 8558   5.297   7.303   5.681  0.3287 -0.2547  0.3075
   64MOL0     C 8559   5.362   7.287   5.558  0.0611  0.7892  0.2228
   64MOL0     C 8560   5.536   7.353   5.169 -0.2576  0.2093 -0.9756
   64MOL0     C 8561   5.671   7.389   5.169 -0.4687 -0.6693  0.4645
   64MOL0     C 8562   5.752   7.339   5.063  0.2545  0.1671 -1.2720
   64MOL0     C 8563   5.701   7.286   4.954  0.4211 -0.5472  1.1573
   64MOL0     O 8564   5.768   7.244   4.840  0.5332  0.8434 -0.6220
   64MOL0     C 8565   5.913   7.230   4.858  0.5711 -0.2755  0.2761
   64MOL0     C 8566   5.985   7.357   4.840 -0.3893  1.0608 -0.5155
   64MOL0     C 8567   6.122   7.341   4.906 -0.3015 -0.1742 -0.5390
   64MOL0     C 8568   6.212   7.229   4.849 -0.1740 -0.5040 -0.6770
   64MOL0     C 8569   6.349   7.239   4.906  0.1803  0.6122 -0.1177
   64MOL0     C 8570   6.454   7.250   4.960 -0.2161 -0.0263  0.2930
   64MOL0     C 8571   5.561   7.261   4.946 -0.1354  0.1913  0.3314
   64MOL0     C 8572   5.480   7.292   5.054  0.1125  0.7271 -0.0917
   64MOL0     H 8573   5.094   7.343   5.359  0.9910 -0.1026 -0.4460
   64MOL0     H 8574   4.976   7.346   5.565 -0.3564 -0.6647 -0.4323
   64MOL0     H 8575   4.930   7.416   5.827 -1.0179 -0.2311  2.9684
   64MOL0     H 8576   4.904   7.265   5.739 -1.0487 -2.1273  1.4886
   64MOL0     H 8577   4.974   7.167   5.964  1.1943  0.8810 -0.9530
   64MOL0     H 8578   4.958   7.317   6.047 -0.8709  0.6986  0.8251
   64MOL0     H 8579   4.736   7.180   5.893  1.1103 -0.5309  0.6123
   64MOL0     H 8580   4.745   7.173   6.068  1.2946  0.7099  0.4888
   64MOL0     H 8581   4.733   7.430   6.079  1.1996  0.5706 -1.1772
   64MOL0     H 8582   4.710   7.436   5.910  0.1684  1.2030  1.0428
   64MOL0     H 8583   4.496   7.321   5.930 -0.7716 -0.2364  0.3780
   64MOL0     H 8584   4.521   7.271   6.090  2.3147  1.0499  0.4904
   64MOL0     H 8585   4.533   7.491   6.179 -2.3891  1.5930  0.7893
   64MOL0     H 8586   4.487   7.560   6.029 -1.9618  0.8465  0.5224
   64MOL0     H 8587   4.275   7.393   6.034 -2.0374 -1.3600  1.3402
   64MOL0     H 8588   4.327   7.351   6.202 -1.7080 -0.5052  1.5314
   64MOL0     H 8589   4.253   7.623   6.092 -0.5400 -1.3085 -1.6274
   64MOL0     H 8590   4.336   7.614   6.242  0.5950 -0.9661 -0.7423
   64MOL0     H 8591   4.017   7.424   6.081 -0.7911 -0.7213  0.5865
   64MOL0     H 8592   3.825   7.293   6.214 -1.7808 -0.5643  0.4273
   64MOL0     H 8593   3.821   7.324   6.391 -0.4973  0.8589  0.2831
   64MOL0     H 8594   3.684   7.494   6.173 -4.1887  2.0159  1.4041
   64MOL0     H 8595   3.684   7.528   6.345  1.7400  0.9569  0.0917
   64MOL0     H 8596   3.579   7.311   6.381  0.6477  2.2055  2.7557
   64MOL0     H 8597   3.603   7.268   6.209 -1.4122 -1.3099  1.8892
   64MOL0     H 8598   3.442   7.431   6.144  0.5736 -1.3970  0.1685
   64MOL0     H 8599   3.425   7.505   6.312 -0.9473  1.1801 -0.5892
   64MOL0     H 8600   3.224   7.549   6.149 -1.9898  1.2612 -0.2003
   64MOL0     H 8601   3.075   7.680   6.055  1.0566 -0.4994 -2.4627
   64MOL0     H 8602   3.007   7.581   5.932  1.8885  1.9915  0.3946
   64MOL0     H 8603   2.913   7.630   6.078  0.0551 -1.5217  0.4319
   64MOL0     H 8604   2.489   7.427   6.055 -1.1145 -0.7520 -1.5282
   64MOL0     H 8605   2.315   7.316   5.942  0.0644  0.6327  0.2518
   64MOL0     H 8606   2.168   7.199   5.812  0.5310  0.0719 -0.3410
   64MOL0     H 8607   2.323   7.220   5.720 -0.7191 -0.2383 -1.7280
   64MOL0     H 8608   2.178   7.118   5.557  1.6681 -1.5731 -2.0027
   64MOL0     H 8609   2.292   7.021   5.602  0.5473  3.8983 -2.8926
   64MOL0     H 8610   2.052   6.981   5.782 -0.2968  0.6004 -0.1657
   64MOL0     H 8611   2.164   6.865   5.725  0.2059  0.8162  2.0963
   64MOL0     H 8612   2.056   6.921   5.472 -0.0839  2.2006  1.1149
   64MOL0     H 8613   1.992   6.803   5.576 -1.0866  0.2671 -1.9696
   64MOL0     H 8614   1.883   7.077   5.531  1.9298 -0.3003  0.6967
   64MOL0     H 8615   1.842   6.997   5.679  0.5451 -4.7747  0.8682
   64MOL0     H 8616   1.827   6.855   5.412  1.9279  1.2729  0.2306
   64MOL0     H 8617   1.732   6.819   5.566  1.7639 -0.4398  1.2536
   64MOL0     H 8618   1.709   7.064   5.380  1.4333 -1.3457 -2.1418
   64MOL0     H 8619   1.608   7.028   5.533 -1.8062 -2.7727  0.3794
   64MOL0     H 8620   1.588   6.875   5.274  0.8212  2.3129 -0.4179
   64MOL0     H 8621   1.500   7.019   5.307 -0.3024  1.4883  1.3325
   64MOL0     H 8622   2.529   6.944   5.968 -1.5424  1.2004 -2.2649
   64MOL0     H 8623   2.694   7.050   6.098 -1.2743 -3.4294 -0.9999
   64MOL0     H 8624   2.917   7.185   6.236 -0.0182  0.3662  3.0626
   64MOL0     H 8625   3.163   7.165   6.327 -0.5127 -0.3236 -0.2637
   64MOL0     H 8626   5.352   7.305   5.775 -0.7637  0.6666  0.9527
   64MOL0     H 8627   5.469   7.267   5.558 -0.1658 -0.5478 -0.1947
   64MOL0     H 8628   5.728   7.432   5.250 -0.0497 -0.0441 -0.1588
   64MOL0     H 8629   5.857   7.367   5.067 -0.4018  2.8285 -0.4916
   64MOL0     H 8630   5.942   7.177   4.949  2.4208  0.8407  0.3850
   64MOL0     H 8631   5.949   7.161   4.780  2.7335 -0.9271  1.7644
   64MOL0     H 8632   5.934   7.445   4.881 -0.9042  0.3596  0.3749
   64MOL0     H 8633   5.999   7.367   4.732  1.7070 -2.1911 -0.6797
   64MOL0     H 8634   6.111   7.329   5.014 -1.2717 -1.9639 -0.7980
   64MOL0     H 8635   6.172   7.437   4.892 -1.4582  0.5328  0.0568
   64MOL0     H 8636   6.224   7.241   4.740 -1.8681 -0.5061 -0.8941
   64MOL0     H 8637   6.169   7.131   4.871 -3.4898  1.4614  2.6646
   64MOL0     H 8638   6.544   7.259   5.017 -0.1450  1.1168  0.0228
   64MOL0     H 8639   5.505   7.224   4.861 -2.2873 -1.1778  2.2047
   64MOL0     H 8640   5.376   7.260   5.055  0.8168 -1.7639  0.9803
   65MOL0     O 8641   8.668   5.781   1.394 -0.3734  0.9418 -0.0271
   65MOL0     C 8642   8.774   5.731   1.408 -1.1819  1.3726  0.2193
   65MOL0     O 8643   8.813   5.608   1.360  0.4591  0.0793 -0.7227
   65MOL0     C 8644   8.711   5.523   1.328 -0.0178  0.1454 -0.7953
   65MOL0     C 8645   8.679   5.466   1.200 -0.1477  0.0356  0.5919
   65MOL0     C 8646   8.594   5.358   1.190 -0.3378 -0.5105  0.6444
   65MOL0     C 8647   8.517   5.309   1.294  0.0787  0.7642  0.8794
   65MOL0     O 8648   8.419   5.211   1.279  0.3446  0.5127  0.3905
   65MOL0     C 8649   8.401   5.148   1.148 -0.7862 -0.3921 -0.5384
   65MOL0     C 8650   8.289   5.042   1.155 -0.3557 -0.2115 -0.3363
   65MOL0     C 8651   8.143   5.094   1.147 -0.7337  0.0600  0.1659
   65MOL0     C 8652   8.119   5.162   1.009  0.2342 -0.2025  0.2698
   65MOL0     C 8653   8.001   5.258   1.027  0.0477 -0.1832 -0.0937
   65MOL0     C 8654   7.947   5.333   0.897 -0.2159  0.2325  0.2838
   65MOL0     C 8655   7.829   5.415   0.934 -0.1003  0.4351 -0.2054
   65MOL0     C 8656   7.791   5.511   0.816  0.3970 -0.0173  0.2183
   65MOL0     N 8657   7.673   5.592   0.839 -0.7842  0.0816 -0.1853
   65MOL0     C 8658   7.670   5.705   0.908 -0.7149 -0.6324 -0.7626
   65MOL0     C 8659   7.543   5.751   0.896  0.3805  1.0407 -0.7993
   65MOL0     C 8660   7.484   5.872   0.953  0.4463  0.2973  0.9218
   65MOL0     C 8661   7.511   5.894   1.099 -0.1361  1.4230  0.1440
   65MOL0     C 8662   7.425   5.787   1.178  0.3632 -0.0496 -0.0558
   65MOL0     C 8663   7.470   5.770   1.329 -0.0935  0.0794  0.6864
   65MOL0     O 8664   7.419   5.654   1.383  0.8407 -0.4908 -0.1600
   65MOL0     C 8665   7.276   5.645   1.405 -0.3433  0.9273 -1.2840
   65MOL0     C 8666   7.228   5.520   1.454 -0.0344  0.1052  0.0306
   65MOL0     C 8667   7.098   5.497   1.480  0.4907  0.0667  0.0104
   65MOL0     C 8668   7.072   5.356   1.521 -0.0020 -0.5320  0.1969
   65MOL0     C 8669   7.003   5.604   1.463 -0.0395  1.4030  0.9526
   65MOL0     C 8670   6.860   5.588   1.484 -0.8033  0.0217  0.2634
   65MOL0     O 8671   6.798   5.687   1.549  0.2814 -0.4775 -0.0543
   65MOL0     C 8672   6.666   5.701   1.522 -0.5959  0.3760 -0.6684
   65MOL0     C 8673   6.624   5.802   1.426 -0.6689 -0.2708  0.2624
   65MOL0     C 8674   6.486   5.813   1.415 -0.4807  0.0452 -0.4745
   65MOL0     C 8675   6.395   5.741   1.502 -1.2399 -1.3493 -0.3191
   65MOL0     O 8676   6.255   5.755   1.487  0.4340 -0.1859 -0.0616
   65MOL0     C 8677   6.209   5.774   1.349  0.1349  0.4386 -0.5833
   65MOL0     C 8678   6.143   5.915   1.338 -0.5711  0.6709  0.3200
   65MOL0     C 8679   6.019   5.926   1.429  0.5489 -0.0126  1.2188
   65MOL0     C 8680   5.942   6.055   1.408 -0.8870 -0.1888  0.2224
   65MOL0     C 8681   5.807   6.063   1.490  0.1095 -0.3815  0.1406
   65MOL0     C 8682   5.738   6.201   1.464 -0.0233  0.2777 -0.2249
   65MOL0     C 8683   5.605   6.210   1.545 -0.0663 -0.3945  0.0732
   65MOL0     C 8684   5.622   6.243   1.692  0.5164  0.1675 -0.5159
   65MOL0    Cl 8685   5.634   6.090   1.791  0.3998  0.1392  0.1967
   65MOL0     C 8686   6.450   5.649   1.590 -0.1764  0.1783  0.3223
   65MOL0     C 8687   6.586   5.630   1.606  0.0833 -0.0135  0.3651
   65MOL0     O 8688   6.811   5.507   1.419  0.5790  0.1592 -0.1399
   65MOL0     C 8689   7.052   5.728   1.418 -0.0838  0.0408 -0.5324
   65MOL0     C 8690   7.185   5.746   1.398  0.3046 -0.0377 -0.1481
   65MOL0     N 8691   7.468   5.656   0.818 -0.4167 -0.1073 -0.0183
   65MOL0     N 8692   7.549   5.557   0.795  0.5459 -0.4131 -0.0323
   65MOL0     C 8693   8.540   5.362   1.420 -0.2667 -0.2558 -0.7770
   65MOL0     C 8694   8.639   5.465   1.438  0.1361 -0.0566 -0.6549
   65MOL0     C 8695   8.878   5.813   1.476  0.7877  0.6904 -0.0557
   65MOL0     C 8696   9.003   5.753   1.499  0.3015  0.1405 -0.6519
   65MOL0     C 8697   9.106   5.831   1.560  0.0889  0.1945  0.3189
   65MOL0     C 8698   9.087   5.962   1.603 -0.4943 -0.3399 -0.4400
   65MOL0     O 8699   9.188   6.022   1.680 -0.1862  0.0435  0.0651
   65MOL0     C 8700   9.254   6.132   1.622  0.1891  0.4933 -0.4841
   65MOL0     C 8701   9.382   6.175   1.689 -1.0329  0.7397 -0.2135
   65MOL0     C 8702   9.450   6.299   1.633  0.6812 -0.1976  0.2841
   65MOL0     C 8703   9.355   6.421   1.632  0.6720  0.1210 -0.4688
   65MOL0     C 8704   9.433   6.545   1.618 -0.0312 -0.4948 -0.8744
   65MOL0     C 8705   9.501   6.648   1.600 -0.3012 -0.2562  0.6569
   65MOL0     C 8706   8.972   6.020   1.556 -0.5396 -0.7803 -0.1617
   65MOL0     C 8707   8.864   5.946   1.504 -0.0500 -0.2403  0.2359
   65MOL0     H 8708   8.736   5.502   1.115 -0.2498 -0.5623  0.2621
   65MOL0     H 8709   8.585   5.299   1.099  0.4173  0.6300 -0.1936
   65MOL0     H 8710   8.389   5.231   1.077  1.1860  2.3096  2.0496
   65MOL0     H 8711   8.486   5.084   1.125  0.5485  0.7787  0.8916
   65MOL0     H 8712   8.314   4.979   1.070  2.6464 -1.8440  1.5754
   65MOL0     H 8713   8.308   4.982   1.244 -0.0986  1.0984  0.5265
   65MOL0     H 8714   8.077   5.007   1.155 -0.2311 -0.3248  0.1438
   65MOL0     H 8715   8.114   5.155   1.232  0.3226  0.2173  0.4205
   65MOL0     H 8716   8.205   5.217   0.972  0.7546 -0.6363  0.8114
   65MOL0     H 8717   8.104   5.088   0.930 -0.1293  1.1822 -1.0090
   65MOL0     H 8718   7.923   5.191   1.065  1.6995 -1.8120  0.5658
   65MOL0     H 8719   8.036   5.334   1.097 -0.6118  0.7816 -0.7831
   65MOL0     H 8720   8.025   5.394   0.852  1.6617 -2.6108 -0.5936
   65MOL0     H 8721   7.915   5.253   0.830  0.4442 -0.3636  0.6739
   65MOL0     H 8722   7.741   5.357   0.964 -0.9025  1.3210 -0.7621
   65MOL0     H 8723   7.853   5.480   1.018 -3.0087  0.6067  0.6012
   65MOL0     H 8724   7.779   5.463   0.718  3.1914 -0.0296 -0.2016
   65MOL0     H 8725   7.864   5.589   0.791 -0.5403  0.0765 -2.5960
   65MOL0     H 8726   7.743   5.752   0.973 -1.4178 -0.7285  0.1140
   65MOL0     H 8727   7.531   5.953   0.896 -1.0011 -1.0087 -2.4063
   65MOL0     H 8728   7.377   5.875   0.928  0.2922 -3.5170  0.5774
   65MOL0     H 8729   7.492   5.994   1.141 -0.0876  0.9776  1.2497
   65MOL0     H 8730   7.618   5.881   1.113 -0.3957 -0.0840  0.9478
   65MOL0     H 8731   7.437   5.693   1.123  0.7068  0.3945 -0.7621
   65MOL0     H 8732   7.319   5.813   1.184  0.2037 -0.6059 -0.3515
   65MOL0     H 8733   7.442   5.860   1.385 -0.5084  0.0772  0.4911
   65MOL0     H 8734   7.579   5.765   1.335 -0.1988 -1.9746  2.0565
   65MOL0     H 8735   7.306   5.446   1.469  0.7993  0.8192 -0.6382
   65MOL0     H 8736   7.146   5.282   1.487  0.5800  0.4061 -0.6419
   65MOL0     H 8737   7.048   5.348   1.627 -3.7396  0.8191 -0.3921
   65MOL0     H 8738   6.984   5.315   1.469  0.9538 -3.0988  0.4370
   65MOL0     H 8739   6.699   5.859   1.371  2.1110 -3.0531  0.8827
   65MOL0     H 8740   6.444   5.896   1.358 -0.6076  1.5331  1.6672
   65MOL0     H 8741   6.290   5.762   1.277  0.0351 -3.0824 -0.2472
   65MOL0     H 8742   6.134   5.704   1.313 -1.4962  1.6913  0.2419
   65MOL0     H 8743   6.213   5.996   1.361 -0.1964  0.1984  0.8802
   65MOL0     H 8744   6.120   5.929   1.232 -0.7501 -1.6459  0.0010
   65MOL0     H 8745   6.034   5.918   1.537 -3.1889  2.2718  2.1061
   65MOL0     H 8746   5.947   5.847   1.403  0.4816 -0.8015  3.5205
   65MOL0     H 8747   6.010   6.138   1.429  0.6315 -1.7476  1.8358
   65MOL0     H 8748   5.908   6.050   1.305 -0.9430  2.3719  0.0546
   65MOL0     H 8749   5.840   6.060   1.594 -2.2250 -0.4780  0.9445
   65MOL0     H 8750   5.752   5.972   1.463  2.6917 -2.6078  1.8383
   65MOL0     H 8751   5.799   6.282   1.504  0.2672  0.4934 -1.0883
   65MOL0     H 8752   5.724   6.218   1.357  0.2299  0.4061 -0.2375
   65MOL0     H 8753   5.552   6.116   1.533  0.0900 -0.5149  0.3136
   65MOL0     H 8754   5.545   6.295   1.511  0.1962  0.7070  2.2030
   65MOL0     H 8755   5.524   6.285   1.719  1.1280  0.1701  1.9383
   65MOL0     H 8756   5.708   6.304   1.721  0.5264 -0.0919  0.0284
   65MOL0     H 8757   6.384   5.589   1.651  2.4133 -1.4421  1.7105
   65MOL0     H 8758   6.621   5.555   1.675  0.4507  0.9173  1.2154
   65MOL0     H 8759   6.979   5.807   1.416 -0.1790  0.0986  2.1033
   65MOL0     H 8760   7.201   5.847   1.360  0.7778 -0.6131 -1.5639
   65MOL0     H 8761   8.479   5.322   1.501  1.5386 -0.2589  0.6308
   65MOL0     H 8762   8.666   5.498   1.538  0.3242  0.0123 -0.7284
   65MOL0     H 8763   9.011   5.649   1.469  0.0805 -0.7102  1.9526
   65MOL0     H 8764   9.209   5.797   1.560  1.1726  3.1727  0.8031
   65MOL0     H 8765   9.275   6.102   1.519 -1.4080  1.3322 -1.1005
   65MOL0     H 8766   9.185   6.217   1.615 -1.1746 -0.5075  0.3404
   65MOL0     H 8767   9.444   6.085   1.684 -0.6207  1.0913 -2.1405
   65MOL0     H 8768   9.371   6.193   1.797 -0.5676  0.8431 -0.1798
   65MOL0     H 8769   9.500   6.288   1.537 -1.5633  0.4306 -1.0278
   65MOL0     H 8770   9.534   6.314   1.702  2.5088  0.4702 -1.9761
   65MOL0     H 8771   9.293   6.440   1.720  0.1873 -0.7806 -0.5981
   65MOL0     H 8772   9.292   6.414   1.542 -1.1998  2.1550  0.5804
   65MOL0     H 8773   9.551   6.739   1.575 -2.0854  1.2259  2.2536
   65MOL0     H 8774   8.939   6.122   1.569  1.1019 -0.4658  2.0537
   65MOL0     H 8775   8.770   5.996   1.484 -0.0775  0.1479  1.2860
   66MOL0     O 8776   7.456   4.194   2.198 -0.3013  0.6341 -0.7571
   66MOL0     C 8777   7.479   4.312   2.203  0.3658 -0.4529 -0.1519
   66MOL0     O 8778   7.419   4.405   2.126  0.5734  0.6752  0.2477
   66MOL0     C 8779   7.303   4.365   2.057  0.4372  0.2793  0.1582
   66MOL0     C 8780   7.195   4.302   2.123 -0.2267  1.1013  0.1492
   66MOL0     C 8781   7.079   4.280   2.057 -0.4146  0.0827  0.4657
   66MOL0     C 8782   7.057   4.308   1.919  0.0099  0.3339 -0.0819
   66MOL0     O 8783   6.942   4.265   1.861  0.0963  0.0240 -0.0327
   66MOL0     C 8784   6.891   4.359   1.762 -0.5213  0.3318 -0.0619
   66MOL0     C 8785   6.742   4.361   1.758 -0.0830 -0.6549  0.0839
   66MOL0     C 8786   6.670   4.391   1.891 -0.6359 -0.2486  0.4081
   66MOL0     C 8787   6.528   4.334   1.900 -0.6380 -0.9620  0.0959
   66MOL0     C 8788   6.459   4.368   2.033 -0.2960  0.3092  0.7343
   66MOL0     C 8789   6.306   4.321   2.020  0.5580  0.7620 -0.4115
   66MOL0     C 8790   6.227   4.395   1.904  0.9671 -0.2846 -0.1249
   66MOL0     C 8791   6.211   4.541   1.932 -0.6306 -0.5965 -0.2662
   66MOL0     N 8792   6.148   4.577   2.052 -0.1554  0.2437 -0.6273
   66MOL0     C 8793   6.013   4.580   2.073 -0.2738  0.1140 -0.8062
   66MOL0     C 8794   5.995   4.641   2.193 -0.3728  0.6180 -0.3748
   66MOL0     C 8795   5.868   4.689   2.253 -0.0041  0.4191  0.2887
   66MOL0     C 8796   5.804   4.818   2.189 -0.6401  0.4277 -0.0644
   66MOL0     C 8797   5.682   4.876   2.267 -0.3706  0.1084  0.3777
   66MOL0     C 8798   5.558   4.784   2.249 -0.1485 -0.8371 -0.6180
   66MOL0     O 8799   5.440   4.876   2.249 -0.6280  0.7584 -0.1383
   66MOL0     C 8800   5.390   4.923   2.371  0.2239 -0.7692  0.2952
   66MOL0     C 8801   5.446   4.885   2.492  0.7122 -0.3801  0.3912
   66MOL0     C 8802   5.405   4.944   2.614  0.1323 -0.7110  0.1927
   66MOL0     C 8803   5.481   4.902   2.734 -0.3683  0.0227  0.2061
   66MOL0     C 8804   5.306   5.045   2.611  0.8436 -0.2435 -0.0471
   66MOL0     C 8805   5.241   5.110   2.732  1.0586  0.1985 -0.5285
   66MOL0     O 8806   5.160   5.213   2.705 -0.4180  0.7037 -0.0990
   66MOL0     C 8807   5.073   5.262   2.799  0.8480 -0.1392 -0.7502
   66MOL0     C 8808   5.060   5.401   2.825 -0.5097  0.5741  0.3658
   66MOL0     C 8809   4.960   5.446   2.914 -0.1585 -0.4239 -0.2045
   66MOL0     C 8810   4.870   5.362   2.969  0.3093 -0.9251  0.3903
   66MOL0     O 8811   4.765   5.419   3.039 -0.2075  0.4893 -0.1733
   66MOL0     C 8812   4.679   5.335   3.115 -0.1768  0.5111 -0.1428
   66MOL0     C 8813   4.615   5.426   3.220  0.9839  1.1334  1.2437
   66MOL0     C 8814   4.492   5.358   3.271 -0.4174  0.2220 -0.3911
   66MOL0     C 8815   4.430   5.446   3.377  0.1378 -0.1678 -0.0649
   66MOL0     C 8816   4.326   5.359   3.450  0.2713 -0.5052 -0.5743
   66MOL0     C 8817   4.198   5.361   3.367  0.7529  0.1508  0.5654
   66MOL0     C 8818   4.086   5.299   3.445  0.3980  0.4196  0.3178
   66MOL0     C 8819   4.100   5.149   3.445 -0.3548 -0.1311  0.4417
   66MOL0    Cl 8820   3.977   5.085   3.561  0.3027 -0.3520 -0.1500
   66MOL0     C 8821   4.880   5.224   2.945 -0.3124 -0.4452  0.5485
   66MOL0     C 8822   4.980   5.179   2.859 -0.0608  0.6321  0.8343
   66MOL0     O 8823   5.270   5.070   2.848 -0.4923  0.5727  0.4559
   66MOL0     C 8824   5.248   5.063   2.488  0.6725  0.9691  0.0886
   66MOL0     C 8825   5.288   5.010   2.364  0.5369 -0.2703 -0.4557
   66MOL0     N 8826   6.126   4.666   2.244 -0.4086 -0.0649 -0.5215
   66MOL0     N 8827   6.213   4.617   2.165  0.0925 -0.1914 -0.2784
   66MOL0     C 8828   7.162   4.383   1.860 -0.0316 -0.5814 -0.5315
   66MOL0     C 8829   7.276   4.414   1.935 -0.1382 -1.0138 -0.3747
   66MOL0     C 8830   7.583   4.364   2.298 -2.3884 -0.4867  0.6988
   66MOL0     C 8831   7.650   4.286   2.395  0.8503 -0.5864  0.2432
   66MOL0     C 8832   7.754   4.337   2.482  0.8168  0.3022  0.8612
   66MOL0     C 8833   7.795   4.471   2.459  0.7279 -0.2223 -0.2831
   66MOL0     O 8834   7.888   4.531   2.539 -0.3999  0.1208  0.2156
   66MOL0     C 8835   7.857   4.536   2.681 -0.7141  0.0895  0.2516
   66MOL0     C 8836   7.744   4.640   2.714 -0.7893 -1.0209  0.4305
   66MOL0     C 8837   7.793   4.782   2.727 -0.3026  0.2269  0.1718
   66MOL0     C 8838   7.679   4.875   2.770  0.1237  0.3397 -0.6856
   66MOL0     C 8839   7.569   4.886   2.682  1.2505 -0.0028  0.0905
   66MOL0     C 8840   7.477   4.889   2.610  0.5036  0.1748  0.4683
   66MOL0     C 8841   7.727   4.556   2.368 -0.3910  0.1790  0.3217
   66MOL0     C 8842   7.632   4.497   2.283 -0.3903  0.5002 -0.2107
   66MOL0     H 8843   7.206   4.260   2.222 -2.7551  0.5146  0.2455
   66MOL0     H 8844   6.999   4.219   2.098 -0.0780 -1.0481 -0.4809
   66MOL0     H 8845   6.923   4.454   1.805 -0.1661 -0.1564  0.7914
   66MOL0     H 8846   6.935   4.338   1.664  1.3264 -0.9095  0.9574
   66MOL0     H 8847   6.715   4.445   1.692  0.4928 -0.4701  0.0788
   66MOL0     H 8848   6.699   4.267   1.724  0.9409 -0.4704 -1.9174
   66MOL0     H 8849   6.729   4.372   1.981 -1.2884  0.9800  1.1218
   66MOL0     H 8850   6.661   4.500   1.894  4.3675  0.3443  1.3411
   66MOL0     H 8851   6.477   4.370   1.809 -0.5222  2.6969  1.3388
   66MOL0     H 8852   6.529   4.225   1.895 -1.2470 -0.9149 -2.2662
   66MOL0     H 8853   6.496   4.317   2.122 -1.4697  0.0473  1.0911
   66MOL0     H 8854   6.469   4.476   2.050 -1.5025  0.6407 -0.4768
   66MOL0     H 8855   6.301   4.214   1.997  0.8967  0.2776  1.5650
   66MOL0     H 8856   6.253   4.329   2.116 -2.4472  0.4888 -1.9336
   66MOL0     H 8857   6.277   4.382   1.807 -1.9336 -0.1325 -1.7735
   66MOL0     H 8858   6.137   4.335   1.890  1.6784 -2.7146  4.1416
   66MOL0     H 8859   6.164   4.590   1.846  1.0216  1.4089 -0.1068
   66MOL0     H 8860   6.312   4.584   1.931 -1.7261  2.2935 -3.0752
   66MOL0     H 8861   5.930   4.544   2.013  0.0869  0.3073 -1.4364
   66MOL0     H 8862   5.795   4.608   2.245  1.2762 -0.6473 -1.1639
   66MOL0     H 8863   5.876   4.703   2.361  0.0883  1.5538  0.1453
   66MOL0     H 8864   5.780   4.798   2.084  0.7061  0.2557 -0.3648
   66MOL0     H 8865   5.876   4.900   2.181 -0.7828  0.4342 -1.4600
   66MOL0     H 8866   5.664   4.971   2.216  2.5624  0.1861 -0.7357
   66MOL0     H 8867   5.702   4.902   2.371 -1.3854  1.5367  0.2499
   66MOL0     H 8868   5.557   4.713   2.332  0.2308 -0.3670 -0.2016
   66MOL0     H 8869   5.548   4.722   2.160 -1.2652 -0.2507 -0.9155
   66MOL0     H 8870   5.533   4.820   2.501  1.3721  0.4059 -0.2225
   66MOL0     H 8871   5.513   4.984   2.799 -3.0624  1.1724  0.2152
   66MOL0     H 8872   5.419   4.831   2.790 -0.6468 -1.2010 -1.5621
   66MOL0     H 8873   5.573   4.848   2.709  0.0842  0.2138  1.3740
   66MOL0     H 8874   5.125   5.476   2.781 -1.9329  2.1836  0.8939
   66MOL0     H 8875   4.950   5.553   2.926 -0.5004 -0.2576 -1.6660
   66MOL0     H 8876   4.604   5.297   3.046 -0.4119  0.1795  0.2966
   66MOL0     H 8877   4.720   5.252   3.172  0.4502 -0.1879 -1.5635
   66MOL0     H 8878   4.696   5.442   3.291  2.0962 -1.6311  0.7141
   66MOL0     H 8879   4.590   5.521   3.171  2.5482 -0.3887 -3.0202
   66MOL0     H 8880   4.508   5.263   3.324 -0.6291  0.9899  1.1248
   66MOL0     H 8881   4.425   5.338   3.187 -0.3760  0.9430 -0.5984
   66MOL0     H 8882   4.507   5.467   3.451  2.2527  1.5963 -2.5914
   66MOL0     H 8883   4.396   5.538   3.330  2.3252  2.5367  3.1713
   66MOL0     H 8884   4.305   5.407   3.546  1.2522  2.2057 -1.6221
   66MOL0     H 8885   4.347   5.253   3.469  0.9573 -0.5586 -1.5508
   66MOL0     H 8886   4.168   5.461   3.335 -0.4328 -0.6125 -0.8630
   66MOL0     H 8887   4.218   5.314   3.270 -2.6484 -1.2880  0.4102
   66MOL0     H 8888   3.989   5.342   3.418  1.5362  3.5577  0.8129
   66MOL0     H 8889   4.094   5.330   3.550 -1.3796 -0.7879  0.8542
   66MOL0     H 8890   4.202   5.124   3.476  1.2842  3.8899 -1.0331
   66MOL0     H 8891   4.081   5.105   3.347  1.4298  0.4623 -0.2041
   66MOL0     H 8892   4.812   5.150   2.985 -0.0999 -2.7706 -3.0148
   66MOL0     H 8893   4.981   5.076   2.825  0.5518  1.3442 -1.4809
   66MOL0     H 8894   5.161   5.128   2.480  0.1765  0.3360  0.2495
   66MOL0     H 8895   5.235   5.041   2.274 -0.0931  2.0311  0.6242
   66MOL0     H 8896   7.167   4.396   1.752 -0.4080  0.8732 -0.3947
   66MOL0     H 8897   7.361   4.467   1.893 -1.6507  1.4054 -0.5772
   66MOL0     H 8898   7.621   4.181   2.402  0.5078 -0.4457  1.0417
   66MOL0     H 8899   7.812   4.277   2.551  2.1554  1.4717  0.8008
   66MOL0     H 8900   7.849   4.433   2.717  2.0957 -0.1183  0.4630
   66MOL0     H 8901   7.943   4.574   2.737 -2.5621  3.7435  0.9960
   66MOL0     H 8902   7.717   4.604   2.814  2.3741 -1.3896  1.2655
   66MOL0     H 8903   7.660   4.634   2.645  0.1140  2.5753 -1.2220
   66MOL0     H 8904   7.830   4.818   2.630  0.0912  0.6755  0.4837
   66MOL0     H 8905   7.872   4.788   2.801  0.9210  0.4583 -1.1055
   66MOL0     H 8906   7.715   4.976   2.792  1.2058 -0.3407  0.8486
   66MOL0     H 8907   7.628   4.839   2.861 -0.7455 -0.6202 -1.5239
   66MOL0     H 8908   7.402   4.886   2.533 -1.0220  2.0070  1.7870
   66MOL0     H 8909   7.746   4.662   2.359 -1.5163  0.4044  0.4232
   66MOL0     H 8910   7.590   4.561   2.206 -0.7090 -1.1763 -1.4917
   67MOL0     O 8911   4.684   3.733   3.312 -0.3121  0.5107 -0.0559
   67MOL0     C 8912   4.700   3.854   3.301  0.8034  0.3472 -0.0223
   67MOL0     O 8913   4.594   3.942   3.289  0.6376 -1.0084  0.1220
   67MOL0     C 8914   4.463   3.905   3.288  0.1337  1.2164 -1.1395
   67MOL0     C 8915   4.385   4.007   3.336 -0.8303  0.1306 -0.3516
   67MOL0     C 8916   4.237   4.014   3.314  0.1427  0.3749  0.6181
   67MOL0     C 8917   4.181   3.903   3.264 -0.0377  0.6180  0.2969
   67MOL0     O 8918   4.041   3.917   3.247 -1.4457  0.3940 -0.0539
   67MOL0     C 8919   3.965   3.830   3.171  0.2697  0.2445 -1.0185
   67MOL0     C 8920   3.841   3.910   3.120 -0.0542 -0.3996  1.2048
   67MOL0     C 8921   3.768   3.960   3.245  0.4541  1.0656 -0.5008
   67MOL0     C 8922   3.630   4.019   3.206 -0.6355 -0.2692  0.6410
   67MOL0     C 8923   3.521   3.916   3.237 -0.1245 -0.0618 -0.1495
   67MOL0     C 8924   3.379   3.965   3.228  0.4838 -0.4815  0.2462
   67MOL0     C 8925   3.279   3.867   3.291 -0.0077  0.1802  0.3815
   67MOL0     C 8926   3.137   3.916   3.291  0.2682  0.2868  0.1168
   67MOL0     N 8927   3.118   4.047   3.356  0.1403 -0.1330  0.8087
   67MOL0     C 8928   3.111   4.075   3.486  1.2828 -0.0465  0.0036
   67MOL0     C 8929   3.035   4.191   3.504 -0.1587 -0.0139  0.6539
   67MOL0     C 8930   2.984   4.268   3.622 -0.7348  0.4424 -0.1551
   67MOL0     C 8931   2.845   4.234   3.672  0.6149 -0.2806 -0.4194
   67MOL0     C 8932   2.821   4.085   3.695  0.9628 -0.0561 -0.8965
   67MOL0     C 8933   2.683   4.056   3.756 -0.4483 -0.1245  0.2839
   67MOL0     O 8934   2.588   4.048   3.650  1.1482 -0.2282  0.2862
   67MOL0     C 8935   2.457   4.048   3.688 -0.7388  0.1945 -0.6678
   67MOL0     C 8936   2.367   4.013   3.588  0.8198  0.1992  0.9975
   67MOL0     C 8937   2.229   4.025   3.614 -0.0194 -0.5691  0.0944
   67MOL0     C 8938   2.146   3.981   3.493  1.5359  0.0041 -0.5987
   67MOL0     C 8939   2.175   4.066   3.734  0.5450 -0.2347  0.1952
   67MOL0     C 8940   2.027   4.067   3.768  0.9275  0.8734  0.4644
   67MOL0     O 8941   2.009   4.043   3.901  0.1604  0.6467  0.4216
   67MOL0     C 8942   1.881   4.007   3.936 -0.4007 -0.3440 -0.2709
   67MOL0     C 8943   1.820   3.895   3.880 -0.3144 -0.1743 -0.2092
   67MOL0     C 8944   1.682   3.875   3.914 -1.1037  1.1228  0.1992
   67MOL0     C 8945   1.619   3.952   4.010  0.4824 -0.1232  0.0480
   67MOL0     O 8946   1.486   3.925   4.034  0.2162  0.0671 -0.3269
   67MOL0     C 8947   1.409   4.017   4.116  0.5650 -0.2260 -0.4848
   67MOL0     C 8948   1.270   4.040   4.057  0.5136  1.3097 -0.0244
   67MOL0     C 8949   1.192   3.907   4.058  0.3139 -0.4985  0.4836
   67MOL0     C 8950   1.040   3.943   4.051  0.3350  0.3636 -0.3649
   67MOL0     C 8951   0.956   3.827   4.103  0.2136 -0.4498 -0.1027
   67MOL0     C 8952   0.965   3.809   4.251  0.5953  0.4375 -0.1273
   67MOL0     C 8953   0.866   3.710   4.301  0.6375  0.4735  0.5077
   67MOL0     C 8954   0.889   3.578   4.226  0.1724  0.2449 -0.1359
   67MOL0    Cl 8955   0.826   3.434   4.318  0.3803 -0.0583 -0.5242
   67MOL0     C 8956   1.688   4.061   4.066  0.0182  0.3443 -0.3863
   67MOL0     C 8957   1.817   4.086   4.022  0.7966 -0.3923 -0.1383
   67MOL0     O 8958   1.933   4.082   3.684 -0.4966  0.6568 -0.0050
   67MOL0     C 8959   2.268   4.097   3.841 -0.3770 -0.2831  0.7245
   67MOL0     C 8960   2.409   4.091   3.814 -0.1013  0.8838  0.3255
   67MOL0     N 8961   3.007   4.229   3.371 -0.0383 -0.3784 -0.6311
   67MOL0     N 8962   3.055   4.142   3.277  0.0410 -0.0053 -1.1220
   67MOL0     C 8963   4.252   3.788   3.223 -0.4210 -0.5388  1.1466
   67MOL0     C 8964   4.394   3.792   3.239  0.1780 -0.3986  0.2642
   67MOL0     C 8965   4.839   3.891   3.262 -0.4770  0.7542 -0.7713
   67MOL0     C 8966   4.948   3.801   3.295  0.3356  0.0346  0.2783
   67MOL0     C 8967   5.076   3.845   3.272 -0.0593  0.2281  0.1822
   67MOL0     C 8968   5.105   3.971   3.212  0.2979  0.4649 -0.5678
   67MOL0     O 8969   5.231   4.022   3.179  0.0208  0.1508 -0.0162
   67MOL0     C 8970   5.344   3.942   3.226 -0.6188  0.0431  0.3503
   67MOL0     C 8971   5.482   4.003   3.199  1.2516 -0.1016  0.1246
   67MOL0     C 8972   5.493   4.037   3.057 -0.0231 -0.4279 -0.3326
   67MOL0     C 8973   5.640   4.080   3.039  0.4112  0.0158 -0.1783
   67MOL0     C 8974   5.671   4.141   2.909  0.3373  0.1219  1.1063
   67MOL0     C 8975   5.692   4.180   2.797 -0.2299  0.1306  0.2005
   67MOL0     C 8976   5.000   4.056   3.181  0.0075  0.9109  0.3609
   67MOL0     C 8977   4.868   4.021   3.205  0.5864 -0.5550  0.0175
   67MOL0     H 8978   4.435   4.087   3.390  3.0494 -2.9161  1.0587
   67MOL0     H 8979   4.175   4.101   3.337 -2.1484 -1.0637  0.2423
   67MOL0     H 8980   4.016   3.794   3.081 -0.3691 -3.7990  0.0670
   67MOL0     H 8981   3.934   3.744   3.231  2.9887 -0.7389 -0.8970
   67MOL0     H 8982   3.885   3.987   3.057  0.7681 -1.4303  0.4967
   67MOL0     H 8983   3.772   3.851   3.059 -0.3434  0.1903  0.9550
   67MOL0     H 8984   3.760   3.876   3.315  0.2047  2.0218  0.6630
   67MOL0     H 8985   3.827   4.037   3.296  1.2728 -0.2924  0.6881
   67MOL0     H 8986   3.608   4.111   3.260  0.6818  2.1257 -2.6045
   67MOL0     H 8987   3.628   4.040   3.099 -2.1440 -0.4792  0.5981
   67MOL0     H 8988   3.534   3.824   3.179  0.2937  0.2365 -0.5396
   67MOL0     H 8989   3.526   3.877   3.339 -1.2310 -1.9781 -0.7754
   67MOL0     H 8990   3.357   4.064   3.268 -2.9773 -0.4398 -1.4390
   67MOL0     H 8991   3.356   3.959   3.121 -1.4860 -3.2776  0.7208
   67MOL0     H 8992   3.285   3.770   3.241 -0.1551 -1.2120  2.9071
   67MOL0     H 8993   3.308   3.845   3.394  0.0256 -1.3526  0.0676
   67MOL0     H 8994   3.074   3.852   3.354 -0.1368  1.8539  1.3877
   67MOL0     H 8995   3.111   3.913   3.185 -0.0959  1.3075  0.1684
   67MOL0     H 8996   3.160   4.024   3.568 -0.5106 -2.5730 -0.3924
   67MOL0     H 8997   3.054   4.244   3.703 -2.1416 -2.1332  0.3851
   67MOL0     H 8998   2.984   4.375   3.600 -1.1455  0.0812 -2.0404
   67MOL0     H 8999   2.765   4.275   3.609 -0.6462  2.4241  2.6198
   67MOL0     H 9000   2.818   4.290   3.762  1.6409 -1.0718  0.4184
   67MOL0     H 9001   2.902   4.062   3.764 -0.6148 -3.1879  0.0881
   67MOL0     H 9002   2.823   4.025   3.603  0.8825 -1.9293  0.2871
   67MOL0     H 9003   2.653   4.133   3.828 -2.0869 -2.2640  2.0286
   67MOL0     H 9004   2.695   3.956   3.798  2.3649 -0.3557 -0.8319
   67MOL0     H 9005   2.398   3.969   3.494 -1.3954  0.7883 -0.0587
   67MOL0     H 9006   2.068   3.909   3.520  1.0794  0.4841 -0.6236
   67MOL0     H 9007   2.107   4.067   3.438 -0.8474 -1.3027 -1.0772
   67MOL0     H 9008   2.203   3.927   3.418 -0.7197 -0.7366 -1.8819
   67MOL0     H 9009   1.869   3.828   3.811 -0.9911  0.5338 -1.4098
   67MOL0     H 9010   1.629   3.795   3.863 -1.5020  1.2628  0.3900
   67MOL0     H 9011   1.402   3.982   4.220 -1.7079  0.3028 -0.4026
   67MOL0     H 9012   1.451   4.117   4.105  0.0113 -0.0630 -1.2462
   67MOL0     H 9013   1.223   4.106   4.131 -1.6123 -0.7727  0.6367
   67MOL0     H 9014   1.279   4.085   3.958  1.2233  1.9498  0.3202
   67MOL0     H 9015   1.214   3.855   4.152  3.2617  0.2595  0.3258
   67MOL0     H 9016   1.208   3.850   3.966 -3.8718 -1.6545  0.3046
   67MOL0     H 9017   1.024   4.038   4.103 -0.2032  0.1050 -0.0450
   67MOL0     H 9018   1.006   3.966   3.950 -1.9751 -0.3459  0.2035
   67MOL0     H 9019   0.980   3.739   4.043 -1.4920 -1.0387  0.0458
   67MOL0     H 9020   0.855   3.858   4.076 -0.2715 -2.8821 -1.4337
   67MOL0     H 9021   1.068   3.785   4.279  1.3460  2.6282 -0.7773
   67MOL0     H 9022   0.940   3.903   4.301  0.7423 -0.2310  1.2438
   67MOL0     H 9023   0.760   3.732   4.285  0.0528 -2.2543  0.1934
   67MOL0     H 9024   0.880   3.706   4.409 -0.1315 -0.6728  0.5806
   67MOL0     H 9025   0.996   3.572   4.204  0.0957  2.1696 -1.3387
   67MOL0     H 9026   0.841   3.586   4.127 -0.1437  2.9283  0.1371
   67MOL0     H 9027   1.644   4.122   4.144 -1.8709 -0.9937 -0.3238
   67MOL0     H 9028   1.885   4.160   4.064  3.3935 -3.3558  1.2896
   67MOL0     H 9029   2.228   4.125   3.938 -1.3616 -2.0981  0.8935
   67MOL0     H 9030   2.479   4.126   3.888  0.4692  2.1623 -0.7768
   67MOL0     H 9031   4.199   3.704   3.180 -1.8724  1.8522 -2.1839
   67MOL0     H 9032   4.449   3.709   3.198  0.6805  0.7181 -1.4437
   67MOL0     H 9033   4.930   3.704   3.340  0.4856 -0.0659  0.1230
   67MOL0     H 9034   5.158   3.776   3.290  0.6008  1.1889  0.8857
   67MOL0     H 9035   5.327   3.922   3.332 -1.1273  0.0975  0.2819
   67MOL0     H 9036   5.336   3.847   3.173 -1.2388  0.4052 -0.2248
   67MOL0     H 9037   5.560   3.935   3.236 -1.4549 -2.2513  2.4317
   67MOL0     H 9038   5.482   4.093   3.262 -0.8598 -1.0546  1.6076
   67MOL0     H 9039   5.418   4.115   3.043 -1.5829 -1.9986 -1.1540
   67MOL0     H 9040   5.469   3.952   2.992  1.2974 -0.3285 -0.9874
   67MOL0     H 9041   5.710   3.997   3.052  2.3297  1.4470 -0.8604
   67MOL0     H 9042   5.658   4.160   3.112  0.2473 -1.1952  1.2298
   67MOL0     H 9043   5.707   4.212   2.696  1.9303 -0.3550  0.3212
   67MOL0     H 9044   5.018   4.154   3.137 -1.2819  0.4399 -1.3312
   67MOL0     H 9045   4.785   4.089   3.190  0.5145  0.2111  3.1333
   68MOL0     O 9046   6.496   8.007  10.919  0.2766 -0.3244  0.7299
   68MOL0     C 9047   6.524   7.895  10.879 -0.1889 -0.7920  0.1350
   68MOL0     O 9048   6.444   7.789  10.878 -0.7885  0.2736 -0.5996
   68MOL0     C 9049   6.328   7.781  10.942  0.3030 -0.3672 -0.9359
   68MOL0     C 9050   6.211   7.814  10.880  0.4738  0.7133  0.3288
   68MOL0     C 9051   6.087   7.815  10.938 -0.2184 -0.1157 -0.2141
   68MOL0     C 9052   6.072   7.797  11.069 -0.9612  0.1508 -0.2133
   68MOL0     O 9053   5.948   7.805  11.124  0.2627 -0.0827  0.2111
   68MOL0     C 9054   5.929   7.753  11.255  0.8465 -0.0899  0.2716
   68MOL0     C 9055   5.770   7.752  11.283 -0.2991  0.5716 -0.2019
   68MOL0     C 9056   5.709   7.890  11.294  0.6689  1.1436  0.8294
   68MOL0     C 9057   5.556   7.884  11.301  0.1229  0.1354 -0.2653
   68MOL0     C 9058   5.503   7.975  11.411  0.1076 -0.2627  0.0827
   68MOL0     C 9059   5.354   7.984  11.417  0.5691 -0.4211 -0.2681
   68MOL0     C 9060   5.307   8.082  11.523  0.2366  0.0591  0.1388
   68MOL0     C 9061   5.161   8.132  11.506  0.8358  0.6029 -0.2626
   68MOL0     N 9062   5.063   8.019  11.529 -0.3499 -0.3146  0.1333
   68MOL0     C 9063   4.955   8.004  11.448  0.6599 -0.1129 -0.2809
   68MOL0     C 9064   4.881   7.903  11.504 -0.5037  0.1245 -0.7310
   68MOL0     C 9065   4.763   7.843  11.445 -0.0677 -0.2775 -0.4097
   68MOL0     C 9066   4.652   7.943  11.424 -0.6597 -0.4815 -0.0451
   68MOL0     C 9067   4.624   8.027  11.560 -0.0933 -0.0640 -0.1028
   68MOL0     C 9068   4.599   7.935  11.683  0.0690  0.0209 -0.0677
   68MOL0     O 9069   4.486   7.849  11.652  1.1396 -0.6895  0.1881
   68MOL0     C 9070   4.357   7.896  11.645  0.6150 -0.1778 -0.2585
   68MOL0     C 9071   4.265   7.801  11.597  0.3070  0.3478 -0.7234
   68MOL0     C 9072   4.124   7.833  11.592  0.3088 -0.3538  0.5933
   68MOL0     C 9073   4.045   7.723  11.523 -0.6473  0.8836 -0.7357
   68MOL0     C 9074   4.069   7.955  11.650  0.3547  0.2017  0.3238
   68MOL0     C 9075   3.920   7.980  11.674 -0.4829 -0.3463  0.5305
   68MOL0     O 9076   3.833   7.880  11.635 -0.2390 -0.3069  0.4784
   68MOL0     C 9077   3.699   7.884  11.660  0.1639  0.0620 -0.1878
   68MOL0     C 9078   3.617   7.849  11.555 -0.1548  0.0493  0.1065
   68MOL0     C 9079   3.480   7.857  11.555  0.4903 -0.1011 -0.1131
   68MOL0     C 9080   3.424   7.917  11.665  0.1614  0.6508 -0.2837
   68MOL0     O 9081   3.285   7.928  11.664 -0.5581  0.2178  0.4998
   68MOL0     C 9082   3.232   7.805  11.706 -0.3306  0.6155 -0.0072
   68MOL0     C 9083   3.079   7.797  11.687  0.2580  0.2408  0.1133
   68MOL0     C 9084   3.002   7.852  11.804  0.3839 -0.1519 -0.3987
   68MOL0     C 9085   2.855   7.858  11.776  0.0757 -0.4893  0.1386
   68MOL0     C 9086   2.778   7.912  11.888 -0.3754 -0.4930 -0.3605
   68MOL0     C 9087   2.642   7.856  11.899 -0.4609 -0.0192  0.4167
   68MOL0     C 9088   2.533   7.923  11.807  0.0469 -0.6100  0.0014
   68MOL0     C 9089   2.402   7.840  11.812  0.6783 -0.4970 -0.2460
   68MOL0    Cl 9090   2.307   7.920  11.684  0.3549 -0.2727 -0.2641
   68MOL0     C 9091   3.497   7.941  11.783 -0.7873 -0.2645  0.5181
   68MOL0     C 9092   3.636   7.930  11.777 -0.6433  0.3301 -0.9243
   68MOL0     O 9093   3.883   8.095  11.714  0.4161  0.5466 -0.0789
   68MOL0     C 9094   4.162   8.046  11.709  0.3878  0.5611  1.2615
   68MOL0     C 9095   4.302   8.016  11.706  0.1611  0.8439 -0.3529
   68MOL0     N 9096   4.938   7.869  11.628 -0.1515 -0.2693  1.0234
   68MOL0     N 9097   5.040   7.938  11.643  0.3140 -0.2110  0.1476
   68MOL0     C 9098   6.190   7.758  11.143 -0.3004  0.0446 -0.3975
   68MOL0     C 9099   6.315   7.755  11.078  0.7193  0.3005 -0.7070
   68MOL0     C 9100   6.661   7.875  10.841  0.0998  0.1930 -0.5716
   68MOL0     C 9101   6.700   7.756  10.786  0.7802  0.7084  0.0974
   68MOL0     C 9102   6.830   7.723  10.757 -0.0341 -0.2538 -0.0513
   68MOL0     C 9103   6.933   7.817  10.785  0.1554 -0.2542  0.4472
   68MOL0     O 9104   7.055   7.788  10.730  0.1580  0.6554 -0.1720
   68MOL0     C 9105   7.158   7.888  10.737 -0.7405  0.8604  0.2897
   68MOL0     C 9106   7.296   7.817  10.746 -1.1353 -0.5984  0.9382
   68MOL0     C 9107   7.310   7.710  10.861  0.0981 -0.2411 -0.0412
   68MOL0     C 9108   7.452   7.703  10.892 -0.0311 -0.1829 -0.6251
   68MOL0     C 9109   7.477   7.620  11.009 -0.3693 -0.1854  0.5729
   68MOL0     C 9110   7.513   7.540  11.095 -0.7150  0.7003  0.4063
   68MOL0     C 9111   6.898   7.943  10.842 -1.1832  0.4202  0.1749
   68MOL0     C 9112   6.768   7.970  10.865  0.3335  0.3249  0.8021
   68MOL0     H 9113   6.208   7.832  10.773  1.7682  1.2600  0.3550
   68MOL0     H 9114   5.998   7.826  10.876  0.6819  1.5876 -1.2690
   68MOL0     H 9115   5.967   7.650  11.261 -2.5700 -1.6753 -2.1034
   68MOL0     H 9116   5.972   7.820  11.330 -2.5025  1.6817  0.8169
   68MOL0     H 9117   5.722   7.703  11.198  0.5455 -1.1767  0.2816
   68MOL0     H 9118   5.758   7.692  11.374 -2.6037  1.7397  0.3577
   68MOL0     H 9119   5.746   7.940  11.384 -0.3111 -0.3789  2.1550
   68MOL0     H 9120   5.738   7.948  11.207 -1.8823 -1.3095 -1.8838
   68MOL0     H 9121   5.510   7.909  11.205  2.4730 -0.3889 -1.6098
   68MOL0     H 9122   5.516   7.791  11.340  2.0276 -0.8170 -0.4803
   68MOL0     H 9123   5.532   7.931  11.507 -2.7784  2.1385  2.2377
   68MOL0     H 9124   5.548   8.074  11.396  0.6888 -0.3134  1.3255
   68MOL0     H 9125   5.312   7.996  11.316  1.1730 -0.3464 -0.5167
   68MOL0     H 9126   5.309   7.889  11.445 -2.7274  0.5595 -1.6985
   68MOL0     H 9127   5.318   8.037  11.623  2.8867 -1.4958 -0.7629
   68MOL0     H 9128   5.374   8.168  11.513  0.1443  0.1677  0.4419
   68MOL0     H 9129   5.157   8.184  11.410  3.1192  0.7982 -0.2942
   68MOL0     H 9130   5.132   8.205  11.582 -3.2513 -0.0425 -0.9715
   68MOL0     H 9131   4.938   8.064  11.359 -1.4566  0.8668  0.7127
   68MOL0     H 9132   4.785   7.797  11.348 -0.6001 -0.6322 -0.3642
   68MOL0     H 9133   4.733   7.758  11.508  1.5607 -0.6740 -0.1202
   68MOL0     H 9134   4.559   7.887  11.408 -1.7722  1.0003  0.9969
   68MOL0     H 9135   4.684   8.017  11.351  0.5749  0.4812  1.3963
   68MOL0     H 9136   4.539   8.092  11.538  1.3380  1.5113 -1.1999
   68MOL0     H 9137   4.710   8.090  11.584  0.0115 -0.3237  0.2170
   68MOL0     H 9138   4.574   8.001  11.766  0.1928 -1.4353  1.1747
   68MOL0     H 9139   4.689   7.878  11.707 -0.4775 -0.7121  0.2967
   68MOL0     H 9140   4.313   7.711  11.562  0.5111  0.2534 -0.2128
   68MOL0     H 9141   3.990   7.768  11.440 -1.3201  2.6754  0.6233
   68MOL0     H 9142   4.116   7.653  11.477 -0.1617  1.0547 -0.2539
   68MOL0     H 9143   3.981   7.672  11.595 -1.2175  2.8991  0.2457
   68MOL0     H 9144   3.659   7.813  11.461  2.9516 -0.7141  1.6277
   68MOL0     H 9145   3.427   7.828  11.465  2.0987  1.3467 -1.6228
   68MOL0     H 9146   3.284   7.719  11.663  0.6926  1.1487  0.1350
   68MOL0     H 9147   3.249   7.798  11.814 -2.4694 -0.3955  0.3145
   68MOL0     H 9148   3.043   7.835  11.591 -1.8527  2.0000  1.5066
   68MOL0     H 9149   3.052   7.691  11.687 -0.0219  0.3073 -0.5612
   68MOL0     H 9150   3.046   7.951  11.819 -0.2694  0.4941 -2.4548
   68MOL0     H 9151   3.016   7.794  11.896  0.9320 -2.3435 -1.7925
   68MOL0     H 9152   2.832   7.912  11.684 -4.0293 -1.7154  0.2289
   68MOL0     H 9153   2.811   7.759  11.758  0.8402 -0.7687 -0.2596
   68MOL0     H 9154   2.777   8.021  11.886 -0.8489 -0.5016 -0.9477
   68MOL0     H 9155   2.825   7.891  11.984 -1.0520  0.0170  0.0861
   68MOL0     H 9156   2.645   7.749  11.876  0.4521  0.2845 -0.9905
   68MOL0     H 9157   2.583   7.861  11.992 -0.5214 -0.7606  0.4191
   68MOL0     H 9158   2.564   7.914  11.702  2.9004 -1.3926  0.8545
   68MOL0     H 9159   2.507   8.027  11.831 -4.8714 -1.3746 -0.9084
   68MOL0     H 9160   2.352   7.848  11.909 -0.9237  1.5305 -1.1593
   68MOL0     H 9161   2.420   7.736  11.782  0.9042 -0.7734  0.7840
   68MOL0     H 9162   3.454   7.985  11.872  0.7389  3.0000 -0.1982
   68MOL0     H 9163   3.708   7.966  11.849 -0.2519  0.7905 -1.5356
   68MOL0     H 9164   4.135   8.130  11.773 -0.3420  0.4233  1.1330
   68MOL0     H 9165   4.368   8.084  11.758 -0.6246 -0.3339  2.3457
   68MOL0     H 9166   6.197   7.756  11.251  0.7623  0.1762 -0.4542
   68MOL0     H 9167   6.404   7.732  11.136 -1.0076 -0.1250  1.9848
   68MOL0     H 9168   6.624   7.683  10.759  0.7401  0.2200  1.4771
   68MOL0     H 9169   6.850   7.624  10.718 -2.9478 -0.4307 -1.3732
   68MOL0     H 9170   7.153   7.950  10.647  2.0708 -2.2832 -2.3321
   68MOL0     H 9171   7.158   7.945  10.830 -2.8152 -1.0969  1.5980
   68MOL0     H 9172   7.372   7.896  10.752  0.0833 -1.6681  0.1836
   68MOL0     H 9173   7.324   7.767  10.652  1.4461  0.8827  0.8143
   68MOL0     H 9174   7.266   7.619  10.819 -4.0836  1.4721  0.1198
   68MOL0     H 9175   7.247   7.733  10.948  1.8307  0.8651  0.9827
   68MOL0     H 9176   7.494   7.803  10.906  1.0669 -0.7517  0.2994
   68MOL0     H 9177   7.509   7.664  10.808  0.1975 -0.2685 -0.4290
   68MOL0     H 9178   7.535   7.468  11.172  0.3481  0.0020 -0.5105
   68MOL0     H 9179   6.969   8.015  10.881 -1.7649  1.2691 -0.2881
   68MOL0     H 9180   6.739   8.069  10.898  0.2768  0.2290  1.0399
   69MOL0     O 9181   5.484   3.426   3.803  0.2122  0.1175  0.2349
   69MOL0     C 9182   5.581   3.405   3.875  0.3370  0.8000 -0.0538
   69MOL0     O 9183   5.572   3.426   4.018 -0.5213 -0.4109  0.4639
   69MOL0     C 9184   5.455   3.470   4.085 -0.3587  0.3758 -0.1607
   69MOL0     C 9185   5.392   3.384   4.176 -0.2039  1.0232 -0.2774
   69MOL0     C 9186   5.264   3.414   4.229 -0.3881  0.4348  0.3574
   69MOL0     C 9187   5.194   3.525   4.194  0.2869 -0.7130  0.4142
   69MOL0     O 9188   5.061   3.542   4.231  0.5349  0.5107  0.1649
   69MOL0     C 9189   5.022   3.682   4.264 -0.5185  0.3341 -0.1219
   69MOL0     C 9190   4.880   3.687   4.316 -0.4432 -0.2007  0.2379
   69MOL0     C 9191   4.779   3.632   4.221  0.4163 -0.2220  0.6344
   69MOL0     C 9192   4.637   3.659   4.262  0.0073  0.6019 -0.4396
   69MOL0     C 9193   4.532   3.621   4.147  0.0562 -0.7714  0.5635
   69MOL0     C 9194   4.401   3.575   4.214  0.2335 -0.1436  1.0023
   69MOL0     C 9195   4.306   3.535   4.105 -0.0207 -0.2185 -0.2338
   69MOL0     C 9196   4.184   3.474   4.179 -0.6498 -0.6700 -0.8333
   69MOL0     N 9197   4.074   3.460   4.081  0.4173 -0.1736 -0.6532
   69MOL0     C 9198   4.055   3.352   3.999 -0.5001 -0.2165 -0.6822
   69MOL0     C 9199   3.967   3.391   3.906 -0.3214 -0.0059 -0.0991
   69MOL0     C 9200   3.886   3.301   3.815  0.2606 -0.6811 -0.1932
   69MOL0     C 9201   3.736   3.312   3.832 -1.5176  0.5283  0.0129
   69MOL0     C 9202   3.664   3.222   3.732 -0.1555 -0.0681 -0.0858
   69MOL0     C 9203   3.516   3.247   3.731 -0.3027  0.2019 -0.0797
   69MOL0     O 9204   3.468   3.212   3.862  0.6287  0.8689  0.0910
   69MOL0     C 9205   3.337   3.233   3.896  0.2520  0.0533  0.0536
   69MOL0     C 9206   3.236   3.294   3.814 -0.6986 -0.6238  0.1552
   69MOL0     C 9207   3.100   3.289   3.843 -0.1422 -0.3575 -0.8103
   69MOL0     C 9208   3.004   3.351   3.745 -0.5236  0.6358  0.1122
   69MOL0     C 9209   3.057   3.216   3.965 -0.3258  0.5310  0.4524
   69MOL0     C 9210   2.912   3.193   3.998 -0.0525 -1.5174  0.1080
   69MOL0     O 9211   2.898   3.114   4.115 -0.0032 -0.3716  0.5472
   69MOL0     C 9212   2.768   3.085   4.148  0.3131 -0.2506 -0.2041
   69MOL0     C 9213   2.725   2.954   4.122 -0.2216  0.3416  0.0662
   69MOL0     C 9214   2.595   2.918   4.159  0.2681  0.6906 -0.0861
   69MOL0     C 9215   2.506   3.008   4.214  0.1372 -1.4436 -0.5201
   69MOL0     O 9216   2.380   2.967   4.230 -0.4629  0.2184  0.1983
   69MOL0     C 9217   2.290   3.071   4.191  0.6317 -0.2253 -0.7595
   69MOL0     C 9218   2.149   3.015   4.202 -0.0578  0.7829  0.1824
   69MOL0     C 9219   2.054   3.130   4.173 -0.9563  0.2660  0.1802
   69MOL0     C 9220   1.902   3.098   4.180  0.0870  0.2273 -0.3394
   69MOL0     C 9221   1.836   3.170   4.066 -0.3484  0.2238 -0.4825
   69MOL0     C 9222   1.681   3.188   4.103  0.1704  0.1209 -0.5083
   69MOL0     C 9223   1.610   3.056   4.067  0.7220  0.8762  0.1062
   69MOL0     C 9224   1.466   3.056   4.113  0.6047  0.6351 -0.3123
   69MOL0    Cl 9225   1.464   3.002   4.284 -0.2350 -0.0736 -0.2339
   69MOL0     C 9226   2.554   3.132   4.262  0.4877  0.9074 -0.1541
   69MOL0     C 9227   2.685   3.174   4.222 -0.2858 -0.1063  0.1211
   69MOL0     O 9228   2.817   3.253   3.940  0.4969  0.3791  0.5490
   69MOL0     C 9229   3.160   3.162   4.046  0.1429  0.7377  0.4170
   69MOL0     C 9230   3.299   3.159   4.011  0.2550 -0.6724 -0.4258
   69MOL0     N 9231   3.931   3.520   3.937  1.1494 -0.6198  0.0526
   69MOL0     N 9232   3.996   3.561   4.046  0.2697 -0.8725  0.3534
   69MOL0     C 9233   5.270   3.614   4.102  1.0742 -0.4330 -0.4859
   69MOL0     C 9234   5.394   3.592   4.045 -0.2934  1.1026 -1.1143
   69MOL0     C 9235   5.703   3.349   3.816  0.3242  0.0563  0.2363
   69MOL0     C 9236   5.724   3.345   3.676 -0.9965  0.1562 -0.0221
   69MOL0     C 9237   5.848   3.290   3.616  1.1113 -0.8387  0.1200
   69MOL0     C 9238   5.949   3.250   3.697 -0.3370  0.2792  0.8581
   69MOL0     O 9239   6.065   3.204   3.633  0.2029 -0.1750 -0.6217
   69MOL0     C 9240   6.045   3.119   3.516 -0.1936  0.0767  0.6754
   69MOL0     C 9241   6.173   3.032   3.477  0.3156 -0.4230 -0.4607
   69MOL0     C 9242   6.290   3.127   3.450 -0.6730 -0.3567 -0.3351
   69MOL0     C 9243   6.415   3.050   3.409 -0.1830 -0.3071  0.4124
   69MOL0     C 9244   6.528   3.127   3.357  0.0469 -0.4486  0.6396
   69MOL0     C 9245   6.626   3.191   3.316  0.3147  0.4633  0.3222
   69MOL0     C 9246   5.926   3.252   3.836  0.2622  0.4575  0.1463
   69MOL0     C 9247   5.805   3.297   3.890 -0.6929  0.0919  0.0598
   69MOL0     H 9248   5.443   3.294   4.206 -1.0122  1.0621  1.3300
   69MOL0     H 9249   5.211   3.341   4.290 -3.9227  1.9877 -0.6086
   69MOL0     H 9250   5.089   3.704   4.348 -1.2654 -0.9186  0.8309
   69MOL0     H 9251   5.048   3.748   4.181  2.0395 -0.8040 -0.3496
   69MOL0     H 9252   4.881   3.638   4.414  4.1024 -0.6656  0.1537
   69MOL0     H 9253   4.839   3.788   4.321 -0.6704 -0.1919 -1.4487
   69MOL0     H 9254   4.787   3.681   4.123 -2.3823 -1.5240 -0.3813
   69MOL0     H 9255   4.792   3.526   4.199  0.6002  0.1623 -1.2972
   69MOL0     H 9256   4.625   3.622   4.364  0.2422 -0.0195 -0.6333
   69MOL0     H 9257   4.621   3.766   4.277 -0.0150  0.5694 -0.2411
   69MOL0     H 9258   4.512   3.712   4.091 -3.7059 -0.6504  1.8002
   69MOL0     H 9259   4.565   3.540   4.081  2.2567 -1.4266  2.3402
   69MOL0     H 9260   4.424   3.492   4.282  1.5747  0.2620  1.0639
   69MOL0     H 9261   4.362   3.654   4.279 -0.3415  1.7275 -1.4584
   69MOL0     H 9262   4.260   3.613   4.044 -3.1185 -2.3425 -0.8489
   69MOL0     H 9263   4.360   3.471   4.035  1.3067  2.3370 -1.6963
   69MOL0     H 9264   4.147   3.546   4.252 -0.2440  0.5477 -1.7943
   69MOL0     H 9265   4.206   3.373   4.214  1.6786 -1.4464 -4.0320
   69MOL0     H 9266   4.101   3.254   4.010 -1.6394 -0.6665  0.3978
   69MOL0     H 9267   3.918   3.330   3.715  0.6598  1.1661  0.4331
   69MOL0     H 9268   3.911   3.196   3.832 -0.3647 -0.8990 -0.6018
   69MOL0     H 9269   3.710   3.415   3.806  1.4557  1.3215 -0.2284
   69MOL0     H 9270   3.709   3.281   3.934 -1.4142  0.7532  0.1105
   69MOL0     H 9271   3.672   3.123   3.777  1.5623  0.4206  0.7378
   69MOL0     H 9272   3.713   3.214   3.634  4.2589  0.6289  1.8301
   69MOL0     H 9273   3.473   3.174   3.662  3.1268 -1.8310 -0.3179
   69MOL0     H 9274   3.494   3.350   3.700 -0.9335 -0.2996 -1.3615
   69MOL0     H 9275   3.264   3.340   3.720 -0.5235 -0.2842  0.3715
   69MOL0     H 9276   2.970   3.447   3.785 -1.2265  0.8674 -1.0076
   69MOL0     H 9277   3.057   3.369   3.651  3.5044  0.4878  2.1245
   69MOL0     H 9278   2.929   3.277   3.715  0.7627 -1.2070  1.2173
   69MOL0     H 9279   2.793   2.890   4.066  0.8226  1.8718 -0.4734
   69MOL0     H 9280   2.549   2.822   4.137  0.6398 -0.1226  2.3916
   69MOL0     H 9281   2.299   3.159   4.255  1.4402  0.6840 -2.0557
   69MOL0     H 9282   2.310   3.086   4.084 -1.1904 -1.3489 -1.2865
   69MOL0     H 9283   2.136   2.936   4.127 -2.1323  2.8210 -1.7793
   69MOL0     H 9284   2.132   2.979   4.303  1.1342  1.0495  0.4949
   69MOL0     H 9285   2.090   3.168   4.077  1.5737 -1.6837  0.2440
   69MOL0     H 9286   2.078   3.203   4.251  0.5226  0.2113 -0.1823
   69MOL0     H 9287   1.887   2.989   4.182 -2.0091  0.4717 -0.4712
   69MOL0     H 9288   1.872   3.144   4.275  1.0634  1.0029 -0.3904
   69MOL0     H 9289   1.837   3.120   3.969  1.1340  2.1303 -1.5106
   69MOL0     H 9290   1.887   3.266   4.056  0.3595 -0.0922  0.0094
   69MOL0     H 9291   1.665   3.214   4.209  0.8820 -0.3078 -0.2915
   69MOL0     H 9292   1.631   3.267   4.046  0.5972 -0.6110 -1.9340
   69MOL0     H 9293   1.664   2.971   4.110  2.2338  1.9824  0.4633
   69MOL0     H 9294   1.609   3.045   3.958  1.3170  2.1776 -0.0442
   69MOL0     H 9295   1.399   2.992   4.055  1.0346 -0.8685  0.8014
   69MOL0     H 9296   1.423   3.157   4.105 -0.6183  0.1752  0.1194
   69MOL0     H 9297   2.494   3.193   4.328 -0.2498  0.4651 -0.3986
   69MOL0     H 9298   2.714   3.272   4.256 -3.5043  0.6893  0.9786
   69MOL0     H 9299   3.139   3.099   4.132 -0.9480  2.1370  1.2085
   69MOL0     H 9300   3.378   3.106   4.064  0.5955 -0.3910 -0.6492
   69MOL0     H 9301   5.212   3.698   4.064  2.4267  1.0269  0.5255
   69MOL0     H 9302   5.455   3.649   3.976  2.3936 -1.9158 -1.4312
   69MOL0     H 9303   5.639   3.372   3.614 -0.8863 -1.5119 -0.9487
   69MOL0     H 9304   5.836   3.290   3.508 -0.5722  1.1304  0.2581
   69MOL0     H 9305   5.960   3.052   3.533 -3.9217  3.7432 -1.7546
   69MOL0     H 9306   6.014   3.174   3.427  0.5688 -1.0009 -0.2829
   69MOL0     H 9307   6.149   2.977   3.385 -2.4902 -2.0698  1.1297
   69MOL0     H 9308   6.192   2.963   3.559  0.2143  1.6586  1.4094
   69MOL0     H 9309   6.307   3.197   3.532  3.1874 -0.8221 -0.5443
   69MOL0     H 9310   6.259   3.188   3.364  0.3684 -0.2506 -0.6537
   69MOL0     H 9311   6.383   2.983   3.329 -2.0121  1.1869 -0.1844
   69MOL0     H 9312   6.445   2.981   3.488  3.8047  0.7183 -0.0143
   69MOL0     H 9313   6.710   3.249   3.284  0.7051 -0.4629 -0.3709
   69MOL0     H 9314   6.001   3.226   3.911  1.2460 -4.3699 -2.1319
   69MOL0     H 9315   5.805   3.295   3.998  1.2245  0.5435  0.1021
   70MOL0     O 9316   8.968   4.351   0.833  0.2500  0.1652  0.5413
   70MOL0     C 9317   8.909   4.403   0.927  0.4880  0.0437 -0.9251
   70MOL0     O 9318   8.766   4.403   0.949  0.0508  0.2676 -0.2144
   70MOL0     C 9319   8.688   4.312   0.881 -0.6081  0.9335  0.0943
   70MOL0     C 9320   8.555   4.328   0.895 -0.0956 -0.1961  0.1654
   70MOL0     C 9321   8.461   4.255   0.828 -0.3871  0.3682 -0.0522
   70MOL0     C 9322   8.507   4.158   0.732  0.4310 -0.5639 -0.3951
   70MOL0     O 9323   8.407   4.117   0.651 -0.3605  0.0679  0.5305
   70MOL0     C 9324   8.456   4.071   0.525  0.2237  0.4164 -0.6091
   70MOL0     C 9325   8.344   4.061   0.416  0.2164 -0.0294 -0.4753
   70MOL0     C 9326   8.271   4.196   0.391 -0.4879 -0.5611  0.0403
   70MOL0     C 9327   8.120   4.187   0.420 -0.3092 -0.0597 -0.4726
   70MOL0     C 9328   8.057   4.327   0.442  0.1061 -0.6132  0.0758
   70MOL0     C 9329   7.906   4.336   0.431 -0.1310  0.0150  0.1341
   70MOL0     C 9330   7.856   4.482   0.451 -0.1678 -0.1298 -0.1901
   70MOL0     C 9331   7.702   4.489   0.459 -0.0720  0.4108  0.6106
   70MOL0     N 9332   7.640   4.610   0.410 -0.5344  0.7251  0.2776
   70MOL0     C 9333   7.511   4.651   0.430  0.2981 -0.5654  0.9342
   70MOL0     C 9334   7.487   4.746   0.333 -0.3619 -0.5493 -0.6020
   70MOL0     C 9335   7.365   4.838   0.321 -0.3249  0.0558 -0.4061
   70MOL0     C 9336   7.239   4.756   0.277  1.1230 -0.8003  0.1216
   70MOL0     C 9337   7.112   4.795   0.358 -0.0633  0.3451 -0.3474
   70MOL0     C 9338   6.980   4.736   0.316  0.2300 -0.6060  0.3913
   70MOL0     O 9339   6.942   4.763   0.182 -0.3166  0.2314 -0.2254
   70MOL0     C 9340   6.805   4.759   0.166  0.8803  0.0079 -0.4505
   70MOL0     C 9341   6.758   4.816   0.050  0.1131 -0.0084 -0.0658
   70MOL0     C 9342   6.620   4.822   0.024 -0.0371  0.0160 -0.4810
   70MOL0     C 9343   6.571   4.894  -0.095  0.8808 -0.1114  0.0331
   70MOL0     C 9344   6.528   4.768   0.122  0.4559  0.0201 -0.3905
   70MOL0     C 9345   6.380   4.788   0.107  0.9574  0.7307 -0.0670
   70MOL0     O 9346   6.327   4.820   0.222  0.4396  0.2871  0.0757
   70MOL0     C 9347   6.191   4.848   0.216  0.1095  0.1713  0.0142
   70MOL0     C 9348   6.124   4.908   0.108  0.0793 -0.2045  0.3409
   70MOL0     C 9349   5.980   4.938   0.113 -0.3484 -0.6702  0.1683
   70MOL0     C 9350   5.906   4.891   0.217 -1.0119  0.4448 -0.6142
   70MOL0     O 9351   5.775   4.904   0.233 -0.3842  0.0200  0.7552
   70MOL0     C 9352   5.685   4.979   0.138 -0.2074 -0.3393  0.4994
   70MOL0     C 9353   5.543   4.937   0.181  0.4186  0.3609 -0.5603
   70MOL0     C 9354   5.493   4.995   0.324  0.6469 -0.3226  0.5389
   70MOL0     C 9355   5.348   5.049   0.315  0.1940  0.1152  0.7323
   70MOL0     C 9356   5.279   5.084   0.445 -0.4004  0.2238  0.2637
   70MOL0     C 9357   5.158   5.177   0.426  0.1364  0.2337 -0.1254
   70MOL0     C 9358   5.207   5.319   0.417  0.2970  1.0411  0.2117
   70MOL0     C 9359   5.094   5.403   0.351  0.1623 -0.0191  0.4039
   70MOL0    Cl 9360   5.084   5.364   0.177  0.2182  0.0217 -0.3520
   70MOL0     C 9361   5.971   4.842   0.334 -0.5416  0.9345  0.5263
   70MOL0     C 9362   6.114   4.815   0.332 -0.1840 -0.1000  1.0731
   70MOL0     O 9363   6.324   4.750   0.004 -0.3579  0.5469 -0.4648
   70MOL0     C 9364   6.573   4.702   0.238 -0.7935 -0.7322  0.3937
   70MOL0     C 9365   6.710   4.692   0.264  0.3180  0.4921  0.5749
   70MOL0     N 9366   7.603   4.761   0.259 -1.0007 -0.0228  0.3259
   70MOL0     N 9367   7.693   4.684   0.310 -1.1787  0.5886 -0.1664
   70MOL0     C 9368   8.649   4.126   0.726 -0.6899 -0.2152 -0.3670
   70MOL0     C 9369   8.733   4.205   0.797  0.6832  0.2712  0.1699
   70MOL0     C 9370   8.990   4.471   1.028 -0.3501 -0.3389 -1.2113
   70MOL0     C 9371   9.130   4.480   1.017 -0.0849  0.3829 -0.6438
   70MOL0     C 9372   9.193   4.569   1.101  0.5441 -0.1472 -1.0428
   70MOL0     C 9373   9.133   4.660   1.185  0.0011  0.5626  1.0324
   70MOL0     O 9374   9.205   4.763   1.246  0.2486  0.9314  0.0885
   70MOL0     C 9375   9.145   4.848   1.348  0.3902 -0.4287 -0.6862
   70MOL0     C 9376   9.264   4.915   1.409 -1.0779  0.3625 -0.5241
   70MOL0     C 9377   9.360   4.826   1.488  0.7791 -0.4366 -0.0528
   70MOL0     C 9378   9.296   4.744   1.607  0.2250 -1.1517  0.5094
   70MOL0     C 9379   9.228   4.816   1.718  0.4551 -0.6291 -0.3998
   70MOL0     C 9380   9.166   4.888   1.793 -0.4380 -1.1886 -0.0029
   70MOL0     C 9381   8.989   4.654   1.187 -0.5858 -0.1994  0.2574
   70MOL0     C 9382   8.922   4.557   1.119  0.1888 -0.5737  0.4263
   70MOL0     H 9383   8.533   4.406   0.968  3.9867  0.6939  0.7210
   70MOL0     H 9384   8.358   4.276   0.855 -0.7486 -1.9087  0.6072
   70MOL0     H 9385   8.532   4.141   0.490  0.8048 -0.3281 -0.8580
   70MOL0     H 9386   8.497   3.970   0.537 -1.7870 -0.2971  0.9356
   70MOL0     H 9387   8.382   4.030   0.318 -0.6561  1.2860 -1.2632
   70MOL0     H 9388   8.267   3.988   0.443  0.0192  0.5040  0.4096
   70MOL0     H 9389   8.318   4.279   0.443  2.7982 -1.7545 -0.8114
   70MOL0     H 9390   8.299   4.215   0.287  3.7093  1.6767  1.3765
   70MOL0     H 9391   8.071   4.135   0.337 -1.4644 -0.0496  0.1734
   70MOL0     H 9392   8.096   4.126   0.507 -0.1679 -0.8270 -0.9635
   70MOL0     H 9393   8.103   4.372   0.531  0.1595  2.6474 -1.4510
   70MOL0     H 9394   8.096   4.395   0.365  0.2466  1.8867  2.2133
   70MOL0     H 9395   7.871   4.297   0.335  1.1256  0.0262 -0.3415
   70MOL0     H 9396   7.853   4.267   0.498  0.1989 -0.0932  0.2871
   70MOL0     H 9397   7.892   4.534   0.540  0.8603  3.0226 -2.2636
   70MOL0     H 9398   7.902   4.531   0.364  0.3962  1.1919  0.8165
   70MOL0     H 9399   7.670   4.464   0.560  1.3264 -1.3398  0.6676
   70MOL0     H 9400   7.670   4.401   0.402  1.1834  0.4945 -0.2903
   70MOL0     H 9401   7.444   4.614   0.507 -1.5905  0.4477 -0.1434
   70MOL0     H 9402   7.344   4.886   0.417 -1.5742 -1.2705  0.0180
   70MOL0     H 9403   7.377   4.912   0.241 -0.0104 -0.8486 -1.2078
   70MOL0     H 9404   7.261   4.649   0.279 -2.0766 -1.5856 -0.6433
   70MOL0     H 9405   7.218   4.777   0.171 -0.4819 -1.0483  0.3637
   70MOL0     H 9406   7.116   4.904   0.351 -0.1722  0.3955  0.3469
   70MOL0     H 9407   7.134   4.777   0.463 -2.4404  0.2513  0.1967
   70MOL0     H 9408   6.910   4.779   0.388 -1.0172 -0.4018 -0.9127
   70MOL0     H 9409   6.984   4.627   0.328  0.5836 -0.9973 -2.5565
   70MOL0     H 9410   6.826   4.881  -0.005  1.1553 -1.8531 -1.0548
   70MOL0     H 9411   6.595   4.836  -0.185 -2.7340  0.5490 -1.5010
   70MOL0     H 9412   6.464   4.912  -0.098  0.9144  0.4115  1.2764
   70MOL0     H 9413   6.617   4.993  -0.091  1.4762 -0.3884  0.1726
   70MOL0     H 9414   6.190   4.955   0.036 -0.9374  0.5239 -0.1455
   70MOL0     H 9415   5.938   4.986   0.025 -0.5365 -0.7315  0.2250
   70MOL0     H 9416   5.700   5.087   0.144  1.3657 -0.5909  2.2248
   70MOL0     H 9417   5.705   4.955   0.033 -0.5304 -1.3305  0.6529
   70MOL0     H 9418   5.475   4.967   0.101  1.7514  1.6300 -1.2795
   70MOL0     H 9419   5.538   4.828   0.181 -1.1799  0.4104 -1.5352
   70MOL0     H 9420   5.561   5.068   0.368 -1.2476  0.3257  2.5393
   70MOL0     H 9421   5.494   4.912   0.395 -0.3211  0.0061  0.9552
   70MOL0     H 9422   5.353   5.139   0.252 -0.6689 -0.4778 -0.2181
   70MOL0     H 9423   5.287   4.974   0.263  1.0432  0.5482 -0.9573
   70MOL0     H 9424   5.352   5.137   0.508  4.9294 -3.1517 -2.2790
   70MOL0     H 9425   5.234   4.999   0.497 -0.5919 -0.7317 -1.4200
   70MOL0     H 9426   5.082   5.146   0.354  0.1194 -0.1661  0.0657
   70MOL0     H 9427   5.111   5.180   0.525  2.7746  1.3529  1.1936
   70MOL0     H 9428   5.289   5.317   0.344 -0.7445  0.2950 -0.9819
   70MOL0     H 9429   5.231   5.363   0.514  0.5828 -1.1349  1.1874
   70MOL0     H 9430   5.123   5.508   0.355 -0.5230  0.1922  0.0313
   70MOL0     H 9431   4.999   5.390   0.403 -0.0294 -1.5654 -0.2427
   70MOL0     H 9432   5.921   4.817   0.427  0.7367  0.6452  1.1620
   70MOL0     H 9433   6.166   4.785   0.422 -0.5721 -0.3363  1.2196
   70MOL0     H 9434   6.505   4.639   0.295  0.5641 -1.6268  1.0913
   70MOL0     H 9435   6.740   4.631   0.349 -1.3423 -0.8959  0.2158
   70MOL0     H 9436   8.701   4.051   0.666  0.9823  0.1829  0.5145
   70MOL0     H 9437   8.835   4.168   0.796  0.6326  0.1346  0.1248
   70MOL0     H 9438   9.178   4.419   0.942 -2.0878 -0.9686 -0.9100
   70MOL0     H 9439   9.299   4.591   1.092  0.9357 -0.8088  1.2563
   70MOL0     H 9440   9.073   4.922   1.312  0.5260 -0.0924 -0.2808
   70MOL0     H 9441   9.096   4.792   1.429 -1.6790 -0.4271 -1.8663
   70MOL0     H 9442   9.226   4.997   1.471  2.6336  0.7986  1.4619
   70MOL0     H 9443   9.323   4.962   1.330  3.6764 -0.9357  1.8525
   70MOL0     H 9444   9.436   4.890   1.534  0.1740 -0.8284  1.5554
   70MOL0     H 9445   9.403   4.761   1.412  0.0404 -2.4889  1.1888
   70MOL0     H 9446   9.369   4.680   1.657  0.2439 -2.0364 -0.5895
   70MOL0     H 9447   9.230   4.671   1.558  2.5757 -2.1590 -1.3581
   70MOL0     H 9448   9.123   4.951   1.868  1.8288  0.5982 -0.0799
   70MOL0     H 9449   8.931   4.723   1.248 -2.7351 -0.2322 -1.6137
   70MOL0     H 9450   8.814   4.567   1.118  0.0512 -0.9692  3.3730
   71MOL0     O 9451   1.492   1.805   8.851  0.7174  0.1742 -0.1280
   71MOL0     C 9452   1.450   1.692   8.827 -0.2078  0.1817  0.5805
   71MOL0     O 9453   1.321   1.650   8.829  0.0036  0.1256 -0.7895
   71MOL0     C 9454   1.213   1.724   8.854 -0.1103 -0.5714  0.3497
   71MOL0     C 9455   1.095   1.680   8.798  0.2544 -0.3566  1.1589
   71MOL0     C 9456   0.976   1.747   8.818 -0.3912  0.2089  0.8369
   71MOL0     C 9457   0.967   1.859   8.905  0.3357 -0.2760 -0.6231
   71MOL0     O 9458   0.850   1.930   8.913 -0.2788 -0.0039  0.1336
   71MOL0     C 9459   0.840   2.035   9.008  1.0292  0.3948 -0.3815
   71MOL0     C 9460   0.704   2.099   8.986  0.1909 -0.6552  0.9521
   71MOL0     C 9461   0.697   2.159   8.848  1.1525  0.2860 -0.2162
   71MOL0     C 9462   0.569   2.251   8.830 -0.1553  0.4743 -0.0755
   71MOL0     C 9463   0.425   2.195   8.867 -0.0825 -0.2110  0.0662
   71MOL0     C 9464   0.388   2.060   8.805  0.6784 -0.2844 -0.4453
   71MOL0     C 9465   0.382   2.040   8.651  0.6832  0.5591  0.3355
   71MOL0     C 9466   0.276   2.136   8.588  0.0974 -0.2262 -0.9707
   71MOL0     N 9467   0.132   2.109   8.615  0.5621 -0.2869  0.4718
   71MOL0     C 9468   0.074   1.985   8.620  0.4486  0.2202 -0.7200
   71MOL0     C 9469  -0.052   2.023   8.661  0.4917 -0.6135  0.0276
   71MOL0     C 9470  -0.171   1.930   8.684  0.1858 -0.7091 -0.1540
   71MOL0     C 9471  -0.261   1.945   8.564  0.0816 -0.1555 -0.5286
   71MOL0     C 9472  -0.307   2.091   8.531  0.1540  0.8174  0.1618
   71MOL0     C 9473  -0.423   2.108   8.429  0.7628  0.1979 -0.0744
   71MOL0     O 9474  -0.542   2.038   8.482  0.5476  0.2402 -0.2718
   71MOL0     C 9475  -0.645   2.005   8.399 -1.2106  0.0150  0.5974
   71MOL0     C 9476  -0.663   2.054   8.263 -0.3049  0.0733 -1.3277
   71MOL0     C 9477  -0.778   2.027   8.189 -0.3311  0.0149 -0.8963
   71MOL0     C 9478  -0.783   2.084   8.050  0.8293 -0.3797 -0.1054
   71MOL0     C 9479  -0.882   1.954   8.255 -0.7034  1.2401  0.7296
   71MOL0     C 9480  -1.010   1.923   8.191 -0.2986  0.0407 -0.1308
   71MOL0     O 9481  -1.107   1.885   8.273  0.4755  0.9411  0.4437
   71MOL0     C 9482  -1.222   1.821   8.217  0.3278 -0.6721 -0.2379
   71MOL0     C 9483  -1.335   1.888   8.172 -0.2964 -0.2841 -0.4865
   71MOL0     C 9484  -1.443   1.817   8.113 -0.0778 -0.5013  1.1071
   71MOL0     C 9485  -1.436   1.678   8.102 -0.8321  1.1316  0.6279
   71MOL0     O 9486  -1.555   1.620   8.068  0.6011 -0.8592  0.3175
   71MOL0     C 9487  -1.537   1.493   7.989  0.7202 -0.3344 -1.1258
   71MOL0     C 9488  -1.672   1.432   7.968 -0.1810  0.4993 -0.1660
   71MOL0     C 9489  -1.765   1.529   7.890  1.2732  0.1268 -0.0301
   71MOL0     C 9490  -1.882   1.465   7.805 -0.0379  0.1033 -0.7216
   71MOL0     C 9491  -1.962   1.560   7.723  0.1440 -0.5803  0.6535
   71MOL0     C 9492  -2.023   1.502   7.593 -0.0128  0.6792  0.7639
   71MOL0     C 9493  -2.058   1.618   7.498 -0.4254  0.7220 -0.1305
   71MOL0     C 9494  -2.130   1.572   7.366 -0.1761  0.9123 -0.9575
   71MOL0    Cl 9495  -2.123   1.687   7.228 -0.4243 -0.2105 -0.2097
   71MOL0     C 9496  -1.315   1.615   8.136 -0.6726 -0.0726 -0.5764
   71MOL0     C 9497  -1.218   1.687   8.194 -0.1261  0.1473 -0.0432
   71MOL0     O 9498  -1.001   1.902   8.072 -0.1205 -0.4062  0.0137
   71MOL0     C 9499  -0.856   1.893   8.380 -0.2612  0.3192 -1.0439
   71MOL0     C 9500  -0.740   1.926   8.452 -0.2568 -0.0958  0.4085
   71MOL0     N 9501  -0.063   2.156   8.695  0.5496 -0.1281  1.0417
   71MOL0     N 9502   0.048   2.207   8.653 -0.1420 -0.7455  0.2405
   71MOL0     C 9503   1.088   1.898   8.962 -0.1423 -0.2642  0.2402
   71MOL0     C 9504   1.209   1.834   8.939 -0.8747 -0.3463  0.7299
   71MOL0     C 9505   1.550   1.592   8.802  0.1202  0.4601  0.7729
   71MOL0     C 9506   1.686   1.632   8.788 -0.2073  0.2864  1.3510
   71MOL0     C 9507   1.787   1.532   8.766 -0.1732  0.1443  0.5800
   71MOL0     C 9508   1.756   1.392   8.758 -0.4653 -0.8837  0.0409
   71MOL0     O 9509   1.842   1.286   8.749  0.2726  0.0213 -0.5036
   71MOL0     C 9510   1.986   1.305   8.748  0.8907 -0.1764  0.0355
   71MOL0     C 9511   2.029   1.318   8.597  0.0543 -0.3247 -0.8247
   71MOL0     C 9512   2.173   1.338   8.557 -1.1831  0.6433  0.4507
   71MOL0     C 9513   2.246   1.201   8.582 -0.1891 -0.1838 -0.7647
   71MOL0     C 9514   2.389   1.217   8.549  0.1539  0.6556 -0.4338
   71MOL0     C 9515   2.500   1.235   8.514 -0.2187 -0.1989 -0.1379
   71MOL0     C 9516   1.619   1.360   8.763  0.6707 -0.6583 -0.1055
   71MOL0     C 9517   1.513   1.458   8.780  0.0260 -1.0318  0.2897
   71MOL0     H 9518   1.095   1.593   8.734  2.4348  1.6687 -1.8341
   71MOL0     H 9519   0.884   1.720   8.767 -0.6229  1.3971  0.5791
   71MOL0     H 9520   0.848   1.994   9.110 -0.3808  0.4741 -0.2275
   71MOL0     H 9521   0.916   2.114   9.002  0.5712  0.8623 -0.1351
   71MOL0     H 9522   0.632   2.018   8.990  0.0284 -0.4895  1.5956
   71MOL0     H 9523   0.680   2.174   9.063  1.0521 -0.8909  1.4782
   71MOL0     H 9524   0.785   2.223   8.834  0.4131  1.8709  1.9220
   71MOL0     H 9525   0.689   2.076   8.777 -1.8252 -0.4249  0.8321
   71MOL0     H 9526   0.597   2.327   8.904  0.4882 -0.0138  0.1904
   71MOL0     H 9527   0.569   2.287   8.727 -1.5378 -0.1179 -0.3139
   71MOL0     H 9528   0.406   2.196   8.975 -0.5512  2.6757  0.0388
   71MOL0     H 9529   0.345   2.259   8.827  0.9062  0.9240 -0.1669
   71MOL0     H 9530   0.460   1.986   8.840  2.3359  0.2342 -2.5615
   71MOL0     H 9531   0.292   2.019   8.836  0.1935  0.1818 -1.3007
   71MOL0     H 9532   0.480   2.058   8.606  0.1576  4.4733  0.3766
   71MOL0     H 9533   0.343   1.943   8.618  0.9691  1.6509 -3.7056
   71MOL0     H 9534   0.294   2.130   8.480  2.5058 -0.9823 -0.5879
   71MOL0     H 9535   0.307   2.236   8.619 -0.9377 -0.3799  0.6381
   71MOL0     H 9536   0.115   1.889   8.592 -0.8960 -0.5945 -0.0031
   71MOL0     H 9537  -0.147   1.824   8.699 -2.7583 -1.1895  1.9492
   71MOL0     H 9538  -0.224   1.969   8.771  0.7164  0.4232 -0.3169
   71MOL0     H 9539  -0.353   1.890   8.584 -1.1710  1.3852 -1.7284
   71MOL0     H 9540  -0.220   1.896   8.475  0.2726 -3.1877  1.0996
   71MOL0     H 9541  -0.230   2.151   8.482 -1.7979  1.1198 -2.7900
   71MOL0     H 9542  -0.343   2.136   8.624 -2.3532  1.1543 -0.9064
   71MOL0     H 9543  -0.397   2.062   8.333 -0.0293  1.7998 -1.0908
   71MOL0     H 9544  -0.454   2.211   8.412  1.1550  0.7615  2.2524
   71MOL0     H 9545  -0.579   2.118   8.238  1.8496 -1.0811  2.1989
   71MOL0     H 9546  -0.688   2.133   8.024  1.9041 -1.9252  0.7132
   71MOL0     H 9547  -0.807   2.014   7.970  0.1097  1.5856 -1.6979
   71MOL0     H 9548  -0.863   2.158   8.051 -0.7334 -1.8053  4.3707
   71MOL0     H 9549  -1.342   1.996   8.170 -0.9317 -0.3157 -0.0661
   71MOL0     H 9550  -1.531   1.873   8.083  0.1984 -1.8433 -2.6876
   71MOL0     H 9551  -1.493   1.517   7.892 -3.3970  1.3308 -2.7923
   71MOL0     H 9552  -1.471   1.424   8.043  1.3047  1.2233  0.2407
   71MOL0     H 9553  -1.642   1.344   7.911  2.3679  1.3166 -0.2285
   71MOL0     H 9554  -1.703   1.399   8.068 -0.9338 -2.7145 -1.3410
   71MOL0     H 9555  -1.706   1.590   7.822 -1.5143  1.0405 -1.8124
   71MOL0     H 9556  -1.800   1.604   7.961 -0.0342 -0.6230  0.1542
   71MOL0     H 9557  -1.838   1.389   7.742  1.2405  0.7033 -0.5781
   71MOL0     H 9558  -1.944   1.409   7.876  0.2164  1.9067  1.0118
   71MOL0     H 9559  -1.896   1.639   7.685 -2.2877  2.1376  1.7250
   71MOL0     H 9560  -2.040   1.608   7.783 -1.8313  1.1492 -2.9313
   71MOL0     H 9561  -1.947   1.442   7.541 -2.1388 -0.6939 -0.9182
   71MOL0     H 9562  -2.113   1.444   7.614 -0.8670  1.0668 -1.5556
   71MOL0     H 9563  -1.969   1.673   7.464  0.4426 -1.1992 -1.1445
   71MOL0     H 9564  -2.123   1.689   7.551 -0.8935 -0.0130  0.2831
   71MOL0     H 9565  -2.235   1.546   7.381 -0.0436 -0.2381 -1.8118
   71MOL0     H 9566  -2.077   1.479   7.340  1.4025  1.6567 -0.4973
   71MOL0     H 9567  -1.309   1.508   8.120  0.5406  0.1605 -1.9403
   71MOL0     H 9568  -1.128   1.630   8.216 -1.4220 -1.6130  0.9521
   71MOL0     H 9569  -0.932   1.832   8.427  0.7493 -0.2297 -0.0637
   71MOL0     H 9570  -0.728   1.894   8.555  3.6734  0.3472  0.2216
   71MOL0     H 9571   1.093   1.983   9.029  2.3806  0.2472 -0.5204
   71MOL0     H 9572   1.307   1.852   8.981  0.4431 -0.4502 -2.1084
   71MOL0     H 9573   1.724   1.733   8.776 -2.1636  0.9392  0.2875
   71MOL0     H 9574   1.886   1.575   8.750 -0.5581  0.6414 -0.5838
   71MOL0     H 9575   2.016   1.397   8.798  0.8414 -1.0134  1.6549
   71MOL0     H 9576   2.030   1.217   8.794  0.1518 -1.4076 -1.5303
   71MOL0     H 9577   1.983   1.409   8.558 -1.3047 -1.6765 -2.4986
   71MOL0     H 9578   1.993   1.243   8.526 -2.7236  2.4165 -2.5701
   71MOL0     H 9579   2.208   1.419   8.622 -1.1316  0.4308  0.6917
   71MOL0     H 9580   2.175   1.369   8.452 -3.7440  1.5891  0.6054
   71MOL0     H 9581   2.203   1.121   8.521  2.8471 -1.6629 -1.1417
   71MOL0     H 9582   2.240   1.174   8.688 -0.6319  3.5677  0.3042
   71MOL0     H 9583   2.601   1.248   8.480  0.4955 -0.9682  1.5719
   71MOL0     H 9584   1.587   1.256   8.763 -1.7023 -0.0131 -1.0103
   71MOL0     H 9585   1.410   1.423   8.790  0.5660 -3.5725 -1.8209
   72MOL0     O 9586   1.629  10.313   3.371 -0.3959 -0.0591 -0.0760
   72MOL0     C 9587   1.633  10.204   3.422  1.1689 -0.1145  0.0397
   72MOL0     O 9588   1.518  10.120   3.440  0.0851 -0.4221 -0.2306
   72MOL0     C 9589   1.398  10.155   3.379 -0.9516 -0.1479 -0.0132
   72MOL0     C 9590   1.348  10.284   3.357 -1.0250 -0.0746 -0.6511
   72MOL0     C 9591   1.231  10.307   3.296  0.2192  1.1000  0.0125
   72MOL0     C 9592   1.158  10.199   3.246 -0.0267  0.3084 -0.0205
   72MOL0     O 9593   1.045  10.209   3.170  0.3830  0.0676  0.4008
   72MOL0     C 9594   0.976  10.340   3.163 -0.0366  0.3850 -0.5852
   72MOL0     C 9595   0.854  10.315   3.066 -0.7135  0.5334 -0.0124
   72MOL0     C 9596   0.760  10.210   3.136 -0.3444  0.0803 -0.2703
   72MOL0     C 9597   0.659  10.158   3.036  0.2109 -0.2080  0.0289
   72MOL0     C 9598   0.708  10.035   2.951 -0.1421  0.4939  0.5213
   72MOL0     C 9599   0.647  10.014   2.813  0.5883  0.5903 -0.0043
   72MOL0     C 9600   0.484  10.023   2.819  0.0657  0.4794 -0.1978
   72MOL0     C 9601   0.432   9.985   2.682 -0.6112 -0.6297  0.3750
   72MOL0     N 9602   0.282   9.989   2.674 -0.5880  0.6820 -0.2836
   72MOL0     C 9603   0.201  10.101   2.663  0.3574 -0.1695  0.0745
   72MOL0     C 9604   0.080  10.043   2.639  0.1188 -0.2693  0.1320
   72MOL0     C 9605  -0.043  10.122   2.622  0.5873  0.9687 -0.2870
   72MOL0     C 9606  -0.079  10.156   2.478 -0.4630 -0.9459 -0.2110
   72MOL0     C 9607  -0.222  10.203   2.463 -0.0979 -0.5582 -0.1772
   72MOL0     C 9608  -0.271  10.322   2.546  0.8988  0.3915 -0.0343
   72MOL0     O 9609  -0.189  10.437   2.522 -0.2711 -0.5615  0.0483
   72MOL0     C 9610  -0.209  10.539   2.615  0.1882 -0.4229  0.5135
   72MOL0     C 9611  -0.122  10.654   2.615  0.0191 -0.5428  0.1288
   72MOL0     C 9612  -0.127  10.753   2.721 -0.4237 -0.2741  0.1913
   72MOL0     C 9613  -0.014  10.853   2.714 -0.1488 -0.0768 -0.2444
   72MOL0     C 9614  -0.226  10.749   2.819 -0.0237  0.4785 -0.4831
   72MOL0     C 9615  -0.232  10.840   2.931  0.1254  0.7029 -0.0188
   72MOL0     O 9616  -0.302  10.794   3.036  1.2946  0.2826 -0.5013
   72MOL0     C 9617  -0.356  10.892   3.126 -0.4577  0.0593 -0.1269
   72MOL0     C 9618  -0.280  10.928   3.237  0.0038 -0.0619 -0.0111
   72MOL0     C 9619  -0.339  11.026   3.320 -0.4731  0.1739 -0.2989
   72MOL0     C 9620  -0.464  11.075   3.298 -0.4277 -0.6812 -0.3739
   72MOL0     O 9621  -0.526  11.149   3.395  0.1495  1.0673  0.2785
   72MOL0     C 9622  -0.548  11.077   3.519  0.1700 -0.0692  0.6812
   72MOL0     C 9623  -0.688  11.024   3.526  0.3179  0.5231  0.2731
   72MOL0     C 9624  -0.798  11.136   3.520 -0.8226  0.8402  0.9322
   72MOL0     C 9625  -0.932  11.098   3.585  1.2175 -0.6332  0.2675
   72MOL0     C 9626  -1.031  11.211   3.585 -0.0295  0.4006  0.1390
   72MOL0     C 9627  -1.167  11.161   3.644 -0.1165  0.3109 -0.5601
   72MOL0     C 9628  -1.172  11.116   3.796  0.7645 -1.0085  0.4997
   72MOL0     C 9629  -1.310  11.139   3.837 -0.4463  0.0346 -0.2350
   72MOL0    Cl 9630  -1.320  11.089   4.010 -0.3460  0.2340  0.2970
   72MOL0     C 9631  -0.538  11.038   3.195 -0.3663 -0.4766  0.1673
   72MOL0     C 9632  -0.479  10.949   3.099  0.3353  0.3372  0.1181
   72MOL0     O 9633  -0.184  10.953   2.922 -0.5983 -0.4036 -0.1866
   72MOL0     C 9634  -0.315  10.640   2.814 -0.4609  0.3905 -0.1701
   72MOL0     C 9635  -0.308  10.543   2.717  0.2725 -0.3895  0.1675
   72MOL0     N 9636   0.090   9.900   2.645 -0.2408 -0.3407 -0.2225
   72MOL0     N 9637   0.208   9.873   2.681  0.0622 -0.5246  0.1003
   72MOL0     C 9638   1.200  10.065   3.267 -0.0134  0.1172  0.0197
   72MOL0     C 9639   1.323  10.041   3.336 -0.0410 -0.0333  0.6278
   72MOL0     C 9640   1.760  10.156   3.464 -0.0645 -0.8669  0.3244
   72MOL0     C 9641   1.881  10.213   3.418  0.4710  0.0032  0.2348
   72MOL0     C 9642   2.009  10.163   3.476  0.5393 -0.4361 -0.7656
   72MOL0     C 9643   2.010  10.053   3.558  0.2261 -0.7565 -0.5650
   72MOL0     O 9644   2.131  10.009   3.604  0.7069 -0.4278 -0.1282
   72MOL0     C 9645   2.152   9.872   3.638  0.3424  0.2250  0.1562
   72MOL0     C 9646   2.300   9.855   3.683 -0.0885  0.1382 -0.2732
   72MOL0     C 9647   2.401   9.886   3.565 -0.8002  0.0383 -0.4542
   72MOL0     C 9648   2.543   9.868   3.598 -0.6696 -0.5511 -0.3400
   72MOL0     C 9649   2.588   9.987   3.677  0.1344  0.2298  0.4515
   72MOL0     C 9650   2.619  10.083   3.742 -0.0329 -0.0988  0.8239
   72MOL0     C 9651   1.889   9.988   3.587  0.5216 -1.0128  0.0115
   72MOL0     C 9652   1.764  10.038   3.541  0.4005  0.4883 -0.7576
   72MOL0     H 9653   1.392  10.381   3.379 -0.8430  0.0402 -1.4945
   72MOL0     H 9654   1.204  10.409   3.271 -1.6069  1.1203  1.8561
   72MOL0     H 9655   0.934  10.365   3.261  0.9249  0.2291 -0.1247
   72MOL0     H 9656   1.049  10.411   3.123  0.4594  0.7352  0.8772
   72MOL0     H 9657   0.813  10.415   3.050 -1.1828  0.5216  1.0008
   72MOL0     H 9658   0.891  10.270   2.974  1.6786 -0.3425  1.2831
   72MOL0     H 9659   0.818  10.126   3.175 -0.0567  0.8516  1.0207
   72MOL0     H 9660   0.710  10.265   3.216 -0.1015  1.6250 -1.1402
   72MOL0     H 9661   0.562  10.141   3.084 -0.3434 -1.6392 -1.5143
   72MOL0     H 9662   0.627  10.228   2.958 -1.1961 -1.3101 -0.4352
   72MOL0     H 9663   0.816  10.047   2.936 -0.3985  1.9205 -0.4423
   72MOL0     H 9664   0.682   9.948   3.012 -1.3992 -0.2798 -1.0302
   72MOL0     H 9665   0.678  10.090   2.740 -0.2399 -0.3170 -1.3358
   72MOL0     H 9666   0.682   9.917   2.778  2.2785  1.0830  0.2145
   72MOL0     H 9667   0.441   9.954   2.893 -0.1350  1.7694  0.9263
   72MOL0     H 9668   0.460  10.124   2.853  0.3250  0.8070 -0.9753
   72MOL0     H 9669   0.470   9.891   2.644  1.7424  0.4789 -0.1610
   72MOL0     H 9670   0.468  10.060   2.611 -0.0205 -0.6917  0.6034
   72MOL0     H 9671   0.211  10.209   2.668 -0.0222 -0.1323  0.0582
   72MOL0     H 9672  -0.121  10.051   2.651 -0.5927  1.1480 -2.7423
   72MOL0     H 9673  -0.039  10.204   2.695  2.0400  0.5851  0.0897
   72MOL0     H 9674  -0.053  10.067   2.420  1.6137 -0.8666  0.4853
   72MOL0     H 9675  -0.019  10.240   2.441  0.2197 -1.3171  0.0212
   72MOL0     H 9676  -0.280  10.111   2.479 -0.1991 -0.0754  2.6974
   72MOL0     H 9677  -0.231  10.241   2.361  1.5116 -2.3619 -1.0668
   72MOL0     H 9678  -0.271  10.293   2.651 -3.0146 -1.0722 -0.2839
   72MOL0     H 9679  -0.372  10.352   2.518  0.7309 -1.7524 -2.0742
   72MOL0     H 9680  -0.047  10.655   2.537 -1.0446 -0.0896 -0.9119
   72MOL0     H 9681  -0.043  10.954   2.683 -6.0644 -1.6519 -1.0024
   72MOL0     H 9682   0.023  10.861   2.817 -0.8402  0.3652 -0.0231
   72MOL0     H 9683   0.056  10.817   2.638 -0.2909  0.5105 -0.6554
   72MOL0     H 9684  -0.187  10.875   3.257 -1.7043 -3.0738  0.6384
   72MOL0     H 9685  -0.290  11.052   3.414 -2.0283 -2.1650  1.2734
   72MOL0     H 9686  -0.474  10.998   3.528 -1.8865 -2.0743  0.7416
   72MOL0     H 9687  -0.528  11.152   3.597  0.9354 -0.5305  0.9377
   72MOL0     H 9688  -0.729  10.948   3.458 -1.1667  2.4697 -1.1382
   72MOL0     H 9689  -0.690  10.972   3.622 -3.0676 -0.0030  0.0451
   72MOL0     H 9690  -0.819  11.167   3.418 -2.7484 -3.0895 -0.0394
   72MOL0     H 9691  -0.763  11.228   3.569  3.8653  0.2835 -0.8553
   72MOL0     H 9692  -0.982  11.014   3.535  0.1103 -0.8265  1.6176
   72MOL0     H 9693  -0.897  11.064   3.683  1.3130 -1.0178  0.1003
   72MOL0     H 9694  -1.055  11.247   3.484 -0.0669  3.6156  1.2115
   72MOL0     H 9695  -1.010  11.299   3.645 -3.2487  0.9050  0.7022
   72MOL0     H 9696  -1.240  11.237   3.614  0.8129  0.4994 -2.4941
   72MOL0     H 9697  -1.188  11.066   3.594  0.8091 -1.5210  2.3213
   72MOL0     H 9698  -1.093  11.169   3.850  2.0812 -2.3186 -0.0660
   72MOL0     H 9699  -1.143  11.011   3.798 -1.0792 -1.5938 -0.9470
   72MOL0     H 9700  -1.367  11.077   3.767  1.0727 -0.0775 -1.4134
   72MOL0     H 9701  -1.342  11.244   3.828 -2.5565 -0.6908 -2.2548
   72MOL0     H 9702  -0.640  11.075   3.191 -0.2542 -0.0347 -4.4183
   72MOL0     H 9703  -0.526  10.905   3.012  1.8902 -0.4810 -0.3524
   72MOL0     H 9704  -0.380  10.620   2.899  1.7239  1.6968  1.9392
   72MOL0     H 9705  -0.388  10.468   2.717  0.1787 -0.3751 -2.3748
   72MOL0     H 9706   1.135   9.991   3.221  0.6387 -0.2342 -0.3550
   72MOL0     H 9707   1.370   9.943   3.342  3.5653  1.3186 -2.1431
   72MOL0     H 9708   1.887  10.302   3.356 -1.8115  1.2157  1.5722
   72MOL0     H 9709   2.097  10.217   3.443 -1.3790  1.6889 -2.8475
   72MOL0     H 9710   2.087   9.834   3.718  1.7107 -2.3744  0.1253
   72MOL0     H 9711   2.130   9.811   3.550 -0.5251 -2.2677  1.9528
   72MOL0     H 9712   2.326   9.754   3.717 -1.9964 -0.7077 -1.2153
   72MOL0     H 9713   2.305   9.917   3.772 -1.2644 -1.4972  1.0031
   72MOL0     H 9714   2.385   9.984   3.519  0.2517  1.5253  2.1648
   72MOL0     H 9715   2.381   9.815   3.484  0.1820  0.7449 -1.3533
   72MOL0     H 9716   2.600   9.868   3.504 -1.2325  1.0627 -0.7255
   72MOL0     H 9717   2.559   9.782   3.663 -0.7096  0.7511  1.4744
   72MOL0     H 9718   2.656  10.165   3.801  2.4708 -1.6128  1.4918
   72MOL0     H 9719   1.897   9.908   3.660 -1.4172 -1.0109  0.2751
   72MOL0     H 9720   1.680   9.986   3.585  4.1036 -4.3141  1.6676
   73MOL0     O 9721   2.243   8.243   1.331 -0.2874  0.6364 -0.0576
   73MOL0     C 9722   2.315   8.306   1.405  0.7900 -0.3403 -0.4712
   73MOL0     O 9723   2.287   8.431   1.454  0.8589  0.5509 -0.3091
   73MOL0     C 9724   2.169   8.492   1.427  0.5158 -0.4635 -0.8982
   73MOL0     C 9725   2.183   8.626   1.390  0.1378  0.3116 -0.1917
   73MOL0     C 9726   2.068   8.709   1.363 -0.5473  0.9602 -0.4369
   73MOL0     C 9727   1.941   8.658   1.385  0.5827  0.1441  0.4942
   73MOL0     O 9728   1.828   8.737   1.358 -0.2789  0.1005 -0.1667
   73MOL0     C 9729   1.798   8.822   1.478 -0.5519  0.2428  0.1431
   73MOL0     C 9730   1.664   8.886   1.451  0.4784  0.3752  0.1552
   73MOL0     C 9731   1.550   8.786   1.463  0.5386  0.1839  0.0011
   73MOL0     C 9732   1.418   8.858   1.495  0.7803  1.0129 -0.1636
   73MOL0     C 9733   1.298   8.759   1.494 -0.7025  0.6787  0.5274
   73MOL0     C 9734   1.164   8.821   1.527  1.6627 -0.2937 -0.6892
   73MOL0     C 9735   1.067   8.707   1.565  0.2618  0.0325 -0.9457
   73MOL0     C 9736   0.940   8.769   1.629  0.2834  0.7632 -0.3266
   73MOL0     N 9737   0.861   8.662   1.679  0.1816  0.7060  0.8957
   73MOL0     C 9738   0.743   8.624   1.618 -0.5772 -0.0768  0.0505
   73MOL0     C 9739   0.709   8.505   1.671 -0.0064 -0.6779 -0.8822
   73MOL0     C 9740   0.581   8.426   1.656 -0.2667 -0.4500 -0.6525
   73MOL0     C 9741   0.563   8.303   1.750 -0.2104 -0.6154  0.0290
   73MOL0     C 9742   0.550   8.355   1.896 -0.3103  0.2327 -0.1989
   73MOL0     C 9743   0.404   8.349   1.943  0.3700 -0.1001 -0.8681
   73MOL0     O 9744   0.376   8.208   1.952  0.0874  0.1771 -0.1341
   73MOL0     C 9745   0.266   8.153   1.897 -0.2052  0.3512  0.0020
   73MOL0     C 9746   0.245   8.015   1.926  0.2946 -0.2964 -0.1448
   73MOL0     C 9747   0.148   7.939   1.865  0.4421 -1.0060  0.0135
   73MOL0     C 9748   0.136   7.797   1.905  0.1892 -0.2390 -0.3604
   73MOL0     C 9749   0.058   8.001   1.767  0.1110 -0.4875  0.3434
   73MOL0     C 9750  -0.024   7.929   1.667  0.0045 -0.3154 -0.7884
   73MOL0     O 9751  -0.129   7.997   1.605  0.2933  0.9079 -0.2241
   73MOL0     C 9752  -0.184   7.944   1.490  0.4404 -0.7539  0.1037
   73MOL0     C 9753  -0.310   8.004   1.458  0.3947 -0.2391 -0.3697
   73MOL0     C 9754  -0.385   7.971   1.344  0.8446  0.5775  0.0051
   73MOL0     C 9755  -0.333   7.878   1.249  0.2902  0.3460  0.4134
   73MOL0     O 9756  -0.396   7.814   1.144 -0.7682 -0.7140 -0.9031
   73MOL0     C 9757  -0.527   7.853   1.107  0.2508  0.2758 -0.6985
   73MOL0     C 9758  -0.565   7.784   0.975  0.7195 -0.6498  0.0894
   73MOL0     C 9759  -0.577   7.637   0.985 -0.7165 -0.0845 -0.3894
   73MOL0     C 9760  -0.633   7.575   0.852 -0.2633 -0.6485 -0.6827
   73MOL0     C 9761  -0.781   7.593   0.846  0.6666  0.2272 -0.6277
   73MOL0     C 9762  -0.842   7.511   0.742 -0.0450 -0.1463  0.1580
   73MOL0     C 9763  -0.988   7.559   0.711  0.3411 -0.1968  0.3326
   73MOL0     C 9764  -1.043   7.489   0.585  0.4397  0.1767  0.1813
   73MOL0    Cl 9765  -1.220   7.512   0.597 -0.3001 -0.0299 -0.0468
   73MOL0     C 9766  -0.199   7.832   1.269 -0.0361  0.6643 -0.1188
   73MOL0     C 9767  -0.122   7.865   1.383 -0.1127  0.4039 -0.1156
   73MOL0     O 9768   0.003   7.813   1.645 -0.4612  0.8149  0.0127
   73MOL0     C 9769   0.059   8.138   1.760 -0.1579  0.0391  0.0615
   73MOL0     C 9770   0.169   8.208   1.821 -0.5804 -0.2880  0.7336
   73MOL0     N 9771   0.808   8.471   1.762  0.3767 -0.0604  0.4831
   73MOL0     N 9772   0.892   8.564   1.776 -0.7386  0.5439 -0.1884
   73MOL0     C 9773   1.927   8.520   1.414 -1.0333  0.4631 -0.4335
   73MOL0     C 9774   2.041   8.439   1.431 -0.5241 -0.2880 -0.4891
   73MOL0     C 9775   2.454   8.257   1.431 -0.3433  0.5864 -0.4496
   73MOL0     C 9776   2.504   8.130   1.383 -0.0863 -0.0478 -0.3872
   73MOL0     C 9777   2.626   8.088   1.427 -0.5965  0.1051 -0.5602
   73MOL0     C 9778   2.717   8.167   1.510  0.2272 -0.5126 -0.0115
   73MOL0     O 9779   2.841   8.120   1.543 -0.3603  0.5001  0.0776
   73MOL0     C 9780   2.893   8.004   1.475  0.3733  0.5140  0.0540
   73MOL0     C 9781   3.040   7.978   1.515 -0.4427  0.3084 -0.6283
   73MOL0     C 9782   3.131   8.084   1.472 -0.2528 -0.5286  0.6462
   73MOL0     C 9783   3.281   8.052   1.480  0.9823 -0.1876 -0.2550
   73MOL0     C 9784   3.316   7.933   1.405 -0.1976  0.3694  0.6856
   73MOL0     C 9785   3.352   7.842   1.338  0.3847 -0.5252  1.0406
   73MOL0     C 9786   2.657   8.282   1.565 -0.4887  0.9557  0.3235
   73MOL0     C 9787   2.539   8.329   1.525 -0.9789  0.5267 -0.3932
   73MOL0     H 9788   2.283   8.666   1.376  0.1635  1.7748  3.0730
   73MOL0     H 9789   2.085   8.813   1.335 -1.0185  1.0677 -0.3377
   73MOL0     H 9790   1.802   8.761   1.569 -0.4557 -3.1365 -1.9685
   73MOL0     H 9791   1.872   8.903   1.484  0.2739 -0.3819 -1.1603
   73MOL0     H 9792   1.657   8.972   1.518  0.3718  0.0741  0.5271
   73MOL0     H 9793   1.667   8.941   1.356  1.8517  0.7325  0.3732
   73MOL0     H 9794   1.542   8.720   1.375  2.9523 -2.3772  1.5529
   73MOL0     H 9795   1.575   8.713   1.541  0.0904 -0.5121 -0.4883
   73MOL0     H 9796   1.433   8.913   1.588 -1.2109 -0.5684  1.1925
   73MOL0     H 9797   1.405   8.941   1.425 -0.2643  0.7382 -0.3107
   73MOL0     H 9798   1.291   8.716   1.393  0.6989  1.5786  0.0142
   73MOL0     H 9799   1.331   8.679   1.561  0.7985 -0.7660 -1.7920
   73MOL0     H 9800   1.192   8.881   1.614 -1.9094  0.6373 -0.0054
   73MOL0     H 9801   1.132   8.879   1.441  1.1735  1.8176  0.8297
   73MOL0     H 9802   1.045   8.642   1.480 -0.0665  0.5205 -1.2316
   73MOL0     H 9803   1.116   8.646   1.642 -0.2462  2.2873  1.3176
   73MOL0     H 9804   0.885   8.822   1.551 -0.4966  2.0725  1.0544
   73MOL0     H 9805   0.964   8.833   1.715 -1.2945  1.2746 -0.2384
   73MOL0     H 9806   0.685   8.670   1.538  0.9680  1.0415 -0.4661
   73MOL0     H 9807   0.503   8.502   1.668  0.1336 -0.2046  0.4861
   73MOL0     H 9808   0.578   8.388   1.553  0.1991  1.8383 -1.5830
   73MOL0     H 9809   0.656   8.248   1.732 -0.6958 -0.8932 -1.8237
   73MOL0     H 9810   0.470   8.248   1.732 -0.0858 -0.6660 -0.4593
   73MOL0     H 9811   0.575   8.462   1.900 -1.5012  0.5025  0.4198
   73MOL0     H 9812   0.630   8.309   1.955  1.2833  0.1923 -2.2925
   73MOL0     H 9813   0.341   8.397   1.868  0.8577  0.8000 -0.7149
   73MOL0     H 9814   0.388   8.397   2.040  0.4685  1.6578 -1.6883
   73MOL0     H 9815   0.316   7.975   1.997 -1.1580  1.1832  2.2734
   73MOL0     H 9816   0.175   7.772   2.004  1.2752 -0.2814 -0.7866
   73MOL0     H 9817   0.032   7.763   1.902  0.1195  0.0158 -1.8192
   73MOL0     H 9818   0.187   7.742   1.825 -1.1633  2.6814 -3.4921
   73MOL0     H 9819  -0.356   8.074   1.527 -0.2593  0.7756 -1.8021
   73MOL0     H 9820  -0.477   8.028   1.341  0.7757  0.5395  1.0323
   73MOL0     H 9821  -0.596   7.837   1.190  0.4178  0.2752 -0.5584
   73MOL0     H 9822  -0.532   7.960   1.088 -0.2095  0.1268 -1.4725
   73MOL0     H 9823  -0.659   7.829   0.943  0.3338 -0.1316  1.8418
   73MOL0     H 9824  -0.488   7.809   0.902  2.1307  0.9425  1.9929
   73MOL0     H 9825  -0.637   7.603   1.070  1.5601 -0.6248  1.0758
   73MOL0     H 9826  -0.479   7.594   1.004 -2.0213 -2.4922  1.6037
   73MOL0     H 9827  -0.588   7.630   0.769  0.8742  0.4155  0.5942
   73MOL0     H 9828  -0.608   7.469   0.841 -0.6057 -0.9279  0.9686
   73MOL0     H 9829  -0.806   7.699   0.831  0.9304  0.1578 -1.5757
   73MOL0     H 9830  -0.812   7.570   0.949  1.3260  0.6313 -0.3297
   73MOL0     H 9831  -0.788   7.501   0.647  0.1336  0.1818  0.2246
   73MOL0     H 9832  -0.842   7.408   0.778  0.5497  0.2375  1.2772
   73MOL0     H 9833  -1.008   7.666   0.701 -1.0968 -0.2366  2.2566
   73MOL0     H 9834  -1.044   7.542   0.803  0.1433 -0.1031  0.2285
   73MOL0     H 9835  -1.033   7.381   0.594 -4.8858 -0.5951  0.1749
   73MOL0     H 9836  -1.011   7.532   0.489 -0.6099 -2.3057 -1.3913
   73MOL0     H 9837  -0.137   7.791   1.190  1.8613 -0.3290  1.7770
   73MOL0     H 9838  -0.017   7.836   1.384 -0.5471 -1.6065 -2.2096
   73MOL0     H 9839  -0.014   8.202   1.712 -2.3347 -3.2672 -1.4041
   73MOL0     H 9840   0.165   8.315   1.798 -0.2940 -0.9607 -3.1760
   73MOL0     H 9841   1.835   8.464   1.428  1.7483 -4.7029 -0.1572
   73MOL0     H 9842   2.039   8.331   1.445  2.2931  0.0039  4.5446
   73MOL0     H 9843   2.433   8.064   1.335  0.1344 -2.1135  1.9147
   73MOL0     H 9844   2.648   7.990   1.385 -1.2597  0.1803 -1.1051
   73MOL0     H 9845   2.823   7.925   1.504  0.5567  0.4596  0.3478
   73MOL0     H 9846   2.886   8.010   1.366 -1.6849 -1.2259  0.0148
   73MOL0     H 9847   3.063   7.883   1.465 -0.9741 -0.1206 -0.0835
   73MOL0     H 9848   3.044   7.958   1.622 -1.6012  2.1221 -0.2025
   73MOL0     H 9849   3.111   8.171   1.535  0.8863 -0.5310  1.0207
   73MOL0     H 9850   3.110   8.103   1.366 -0.9138  0.0479  0.8680
   73MOL0     H 9851   3.311   8.040   1.585  0.5690 -0.1731 -0.1312
   73MOL0     H 9852   3.335   8.143   1.452  1.5052 -0.0306  1.1388
   73MOL0     H 9853   3.394   7.768   1.273 -0.4125  2.6836 -3.7041
   73MOL0     H 9854   2.706   8.332   1.648 -1.5139 -1.2752  2.3881
   73MOL0     H 9855   2.515   8.423   1.575  0.3935 -0.4029  2.2380
   74MOL0     O 9856   8.715  11.058  10.531  0.1844 -0.9157 -0.3330
   74MOL0     C 9857   8.686  11.157  10.602 -0.4138 -0.9729 -0.8607
   74MOL0     O 9858   8.567  11.186  10.667  0.1500  0.7211  0.4243
   74MOL0     C 9859   8.458  11.094  10.677 -0.9362 -0.6528 -0.6324
   74MOL0     C 9860   8.435  10.976  10.597 -0.2912  0.1174  0.3766
   74MOL0     C 9861   8.327  10.892  10.630 -0.6557 -0.0090 -0.6631
   74MOL0     C 9862   8.237  10.919  10.732  0.5200 -0.5373  0.2844
   74MOL0     O 9863   8.140  10.832  10.767  0.0482  0.2180  0.5087
   74MOL0     C 9864   8.043  10.828  10.663  0.3508 -0.1445 -0.4010
   74MOL0     C 9865   7.929  10.739  10.697  0.1650  0.0214 -0.1855
   74MOL0     C 9866   7.868  10.760  10.840 -0.6610  0.5314 -0.0103
   74MOL0     C 9867   7.856  10.903  10.881 -0.0927 -0.1245  0.0962
   74MOL0     C 9868   7.805  10.899  11.028  0.0856 -0.4614 -0.0121
   74MOL0     C 9869   7.742  11.018  11.092 -0.2719 -0.1640 -0.1827
   74MOL0     C 9870   7.601  11.034  11.039  0.6069 -0.2728  1.1879
   74MOL0     C 9871   7.518  11.157  11.098 -0.5506 -0.1233  0.0272
   74MOL0     N 9872   7.376  11.148  11.058 -0.0324  0.4107 -0.1588
   74MOL0     C 9873   7.299  11.036  11.069  0.5839  0.9410  0.2400
   74MOL0     C 9874   7.185  11.071  10.992 -0.5323  0.8099  0.0122
   74MOL0     C 9875   7.078  10.966  10.966 -0.2457  0.9093  0.2707
   74MOL0     C 9876   6.969  11.033  10.878 -0.2780 -0.1012  0.1706
   74MOL0     C 9877   6.856  10.936  10.836 -0.2186 -0.4712 -0.7213
   74MOL0     C 9878   6.738  11.028  10.815  0.3075  0.0033  0.4759
   74MOL0     O 9879   6.637  10.961  10.747 -0.2144  0.3634  0.0613
   74MOL0     C 9880   6.534  11.044  10.713  0.5080 -0.1951 -0.5391
   74MOL0     C 9881   6.415  10.988  10.672 -0.2504  0.5070 -0.3465
   74MOL0     C 9882   6.299  11.063  10.643  0.0684  0.3016  0.4814
   74MOL0     C 9883   6.167  10.985  10.610  1.0515  0.4382  0.0584
   74MOL0     C 9884   6.304  11.200  10.651 -2.0342 -0.0869 -0.0830
   74MOL0     C 9885   6.191  11.285  10.630  0.3458 -1.3093  0.1665
   74MOL0     O 9886   6.072  11.243  10.679  0.0821  0.0901  0.0641
   74MOL0     C 9887   5.960  11.319  10.664  0.8134  0.1591  0.2090
   74MOL0     C 9888   5.902  11.390  10.767  0.4567 -1.0870 -0.0792
   74MOL0     C 9889   5.773  11.458  10.750 -0.0757  1.2440  0.3355
   74MOL0     C 9890   5.703  11.443  10.628 -0.0572  0.1486 -0.1287
   74MOL0     O 9891   5.580  11.496  10.598 -0.2844  0.0850 -0.4735
   74MOL0     C 9892   5.518  11.590  10.701  0.2875 -0.0564 -0.2965
   74MOL0     C 9893   5.377  11.637  10.653 -0.2773 -0.4787 -0.0285
   74MOL0     C 9894   5.280  11.665  10.773 -0.1715  0.6289 -0.0454
   74MOL0     C 9895   5.148  11.740  10.745  0.7741 -0.4486 -0.3574
   74MOL0     C 9896   5.039  11.724  10.858  0.4173  0.5192  0.0470
   74MOL0     C 9897   4.903  11.790  10.805 -0.1492  0.1855 -0.0161
   74MOL0     C 9898   4.801  11.755  10.914  0.1337  0.3236 -0.2000
   74MOL0     C 9899   4.669  11.832  10.888  0.1979  0.0991  0.1845
   74MOL0    Cl 9900   4.673  12.010  10.898 -0.0209 -0.3060  0.3796
   74MOL0     C 9901   5.759  11.354  10.536 -0.4111 -0.0738 -0.6334
   74MOL0     C 9902   5.885  11.308  10.549 -0.4643  0.5193 -0.5430
   74MOL0     O 9903   6.204  11.393  10.571 -0.9322  0.2230  1.7061
   74MOL0     C 9904   6.423  11.261  10.682 -0.1727 -1.0129 -0.3391
   74MOL0     C 9905   6.532  11.189  10.713 -0.5238 -0.4284 -1.0508
   74MOL0     N 9906   7.189  11.206  10.952  0.2008  0.1931 -0.7484
   74MOL0     N 9907   7.302  11.245  10.997  0.2431 -0.0690 -0.1901
   74MOL0     C 9908   8.257  11.036  10.815  0.6359  0.6597  1.2160
   74MOL0     C 9909   8.365  11.124  10.783 -0.3204 -0.3155  0.3475
   74MOL0     C 9910   8.796  11.254  10.617 -0.1159 -0.1984  0.7323
   74MOL0     C 9911   8.915  11.235  10.536  0.2561  0.5281  0.0972
   74MOL0     C 9912   9.018  11.327  10.550  0.0162  1.5858  0.5784
   74MOL0     C 9913   9.009  11.442  10.631 -0.3945  0.1731 -1.2777
   74MOL0     O 9914   9.094  11.547  10.643  0.3407 -0.1359  0.8880
   74MOL0     C 9915   9.227  11.536  10.588 -0.4972 -0.7902  0.4296
   74MOL0     C 9916   9.292  11.672  10.580  0.1987  0.4766  0.1648
   74MOL0     C 9917   9.320  11.739  10.718  0.2660 -0.9150 -0.2883
   74MOL0     C 9918   9.449  11.811  10.735  0.2751  0.3119 -0.1583
   74MOL0     C 9919   9.566  11.718  10.738  0.7391  0.0873  0.1233
   74MOL0     C 9920   9.659  11.646  10.741 -0.3205 -0.0025 -0.3357
   74MOL0     C 9921   8.901  11.454  10.717  0.0081 -0.0142  0.6166
   74MOL0     C 9922   8.797  11.365  10.704 -0.4179 -0.7061 -0.5540
   74MOL0     H 9923   8.507  10.946  10.521  0.2940 -1.4238  1.4962
   74MOL0     H 9924   8.311  10.796  10.582 -2.0355  0.4521 -1.2087
   74MOL0     H 9925   8.000  10.926  10.644 -2.4043 -0.4990  3.1462
   74MOL0     H 9926   8.096  10.810  10.568  0.2075  0.3187 -0.5736
   74MOL0     H 9927   7.849  10.750  10.623 -0.0945  2.5804  0.3849
   74MOL0     H 9928   7.955  10.634  10.683  0.1146  0.0572 -0.5569
   74MOL0     H 9929   7.773  10.706  10.835  0.4760 -2.0099  2.7254
   74MOL0     H 9930   7.942  10.718  10.909 -0.3142  1.9525  0.5113
   74MOL0     H 9931   7.954  10.952  10.882 -0.8529  1.4494  0.5360
   74MOL0     H 9932   7.779  10.958  10.826 -1.8897 -1.8297  0.7824
   74MOL0     H 9933   7.737  10.813  11.036  2.3563 -2.2306  1.6472
   74MOL0     H 9934   7.897  10.880  11.084  0.0346  1.7718  0.9374
   74MOL0     H 9935   7.737  11.007  11.201  1.0550 -1.1057 -0.2004
   74MOL0     H 9936   7.787  11.114  11.066  2.0112 -0.4468  2.2760
   74MOL0     H 9937   7.613  11.052  10.932  2.7580 -0.7563  1.2989
   74MOL0     H 9938   7.551  10.939  11.059  2.9697 -1.9536 -0.3433
   74MOL0     H 9939   7.561  11.249  11.058 -1.9820  0.4304 -0.3003
   74MOL0     H 9940   7.527  11.154  11.207 -3.0391  1.6724  0.3441
   74MOL0     H 9941   7.310  10.939  11.117 -0.9192  0.6926  0.1342
   74MOL0     H 9942   7.116  10.884  10.904 -0.3682 -2.1624  3.9248
   74MOL0     H 9943   7.039  10.924  11.059 -0.0782  2.9247  1.2947
   74MOL0     H 9944   7.018  11.071  10.788  0.8911  0.7626  1.1377
   74MOL0     H 9945   6.922  11.119  10.927 -0.5262  1.5708 -2.7492
   74MOL0     H 9946   6.836  10.866  10.917 -1.0631 -2.1477 -2.2859
   74MOL0     H 9947   6.876  10.878  10.745  1.8931 -1.6986  0.4526
   74MOL0     H 9948   6.774  11.120  10.767  2.3188 -1.0530 -0.1674
   74MOL0     H 9949   6.702  11.065  10.911  0.5962  0.1115  0.5460
   74MOL0     H 9950   6.411  10.880  10.664  0.7564  0.3727  0.6249
   74MOL0     H 9951   6.129  11.025  10.516  3.5461 -0.8343 -1.6120
   74MOL0     H 9952   6.177  10.879  10.583 -0.8520 -0.3379  2.0890
   74MOL0     H 9953   6.089  10.987  10.686 -0.4736  1.6728 -1.4653
   74MOL0     H 9954   5.957  11.399  10.860 -1.7327  0.7249  1.1363
   74MOL0     H 9955   5.744  11.525  10.830 -2.0269  3.8775 -2.3366
   74MOL0     H 9956   5.512  11.549  10.803  2.9564  1.2754  0.5014
   74MOL0     H 9957   5.588  11.675  10.702  1.0972 -0.7147 -0.2998
   74MOL0     H 9958   5.384  11.734  10.603 -1.9639 -0.0712  0.4604
   74MOL0     H 9959   5.330  11.570  10.580 -1.1529 -0.5811  0.6173
   74MOL0     H 9960   5.338  11.719  10.848 -1.8140  1.8622  0.3814
   74MOL0     H 9961   5.263  11.569  10.822  2.0430  0.5075  0.5846
   74MOL0     H 9962   5.161  11.845  10.717  1.2886 -0.9422 -2.1173
   74MOL0     H 9963   5.103  11.703  10.653  0.8844 -0.7571 -0.2882
   74MOL0     H 9964   5.071  11.776  10.949 -2.9680  0.5083  1.3817
   74MOL0     H 9965   5.031  11.620  10.891  3.7985  0.9079  2.6244
   74MOL0     H 9966   4.908  11.898  10.786 -1.1274  0.0855 -0.9469
   74MOL0     H 9967   4.877  11.753  10.705  2.5013 -1.0373 -0.3583
   74MOL0     H 9968   4.830  11.785  11.015  0.5182 -1.3032  0.2000
   74MOL0     H 9969   4.783  11.647  10.917 -2.4481  0.6987  2.8481
   74MOL0     H 9970   4.585  11.785  10.940 -2.3821  0.5374 -3.2087
   74MOL0     H 9971   4.640  11.812  10.784  0.7819 -2.9622  0.5111
   74MOL0     H 9972   5.695  11.344  10.448 -1.4230  2.7612 -0.3120
   74MOL0     H 9973   5.917  11.246  10.465  1.0279  1.1656 -0.4834
   74MOL0     H 9974   6.416  11.370  10.684 -2.2911 -1.0988 -0.5308
   74MOL0     H 9975   6.615  11.257  10.732 -1.9599  0.8338  1.0917
   74MOL0     H 9976   8.180  11.067  10.885 -0.8639  0.3956 -0.2690
   74MOL0     H 9977   8.380  11.224  10.824  0.1842  0.4344 -1.5836
   74MOL0     H 9978   8.922  11.146  10.474 -1.0850 -0.3831  1.1932
   74MOL0     H 9979   9.093  11.312  10.473 -1.0058 -1.1270 -0.0153
   74MOL0     H 9980   9.300  11.475  10.641  2.7357  0.3062 -2.3963
   74MOL0     H 9981   9.228  11.496  10.486  0.9717 -2.6137  1.0959
   74MOL0     H 9982   9.235  11.739  10.515 -0.6561 -0.8086 -0.4442
   74MOL0     H 9983   9.390  11.648  10.537 -1.7982 -2.9572 -3.0039
   74MOL0     H 9984   9.312  11.667  10.800  2.3757  1.4810  2.2214
   74MOL0     H 9985   9.236  11.809  10.732  0.8040 -0.1038 -1.0126
   74MOL0     H 9986   9.450  11.865  10.830 -1.1921 -0.6932  0.4764
   74MOL0     H 9987   9.457  11.892  10.662 -1.4946  2.3233  1.7366
   74MOL0     H 9988   9.741  11.579  10.760 -0.9905 -0.2187  2.2672
   74MOL0     H 9989   8.898  11.534  10.790 -2.9194  1.5881 -1.0980
   74MOL0     H 9990   8.708  11.400  10.755  0.8833 -1.1423  2.2194
   75MOL0     O 9991   0.070   3.617   1.296  0.0280  0.5858 -0.6135
   75MOL0     C 9992   0.174   3.597   1.232 -0.6947  0.3047 -0.5102
   75MOL0     O 9993   0.225   3.679   1.132  0.0642 -0.4622 -0.4398
   75MOL0     C 9994   0.137   3.761   1.059 -0.3526  0.5724  0.2766
   75MOL0     C 9995   0.195   3.862   0.985  0.6405 -0.3229  0.2237
   75MOL0     C 9996   0.127   3.934   0.888 -0.1542  0.1008 -0.1491
   75MOL0     C 9997   0.003   3.897   0.846 -0.1015 -0.3043 -0.7725
   75MOL0     O 9998  -0.040   3.961   0.728 -1.1754  0.7322  0.0579
   75MOL0     C 9999  -0.174   3.978   0.715  0.5206 -0.1526  0.0086
   75MOL0     C10000  -0.215   4.074   0.603 -0.0545  0.0663  0.4449
   75MOL0     C10001  -0.364   4.104   0.590  0.5381 -0.1019  0.4544
   75MOL0     C10002  -0.445   3.976   0.569 -0.2975 -0.4990  0.7654
   75MOL0     C10003  -0.593   4.028   0.530  0.1746 -0.2054  0.0787
   75MOL0     C10004  -0.676   3.906   0.491 -0.1706  0.6890 -0.2459
   75MOL0     C10005  -0.823   3.946   0.484 -0.6764  0.6134 -0.0752
   75MOL0     C10006  -0.904   3.824   0.441 -0.0158  0.1806 -0.1955
   75MOL0     N10007  -1.048   3.849   0.430  0.5442 -0.5208 -0.8615
   75MOL0     C10008  -1.147   3.765   0.478 -0.9417 -0.9098 -0.5392
   75MOL0     C10009  -1.267   3.826   0.449 -0.7678  0.0680  0.4069
   75MOL0     C10010  -1.391   3.767   0.508  0.2091 -0.3334  0.5633
   75MOL0     C10011  -1.469   3.692   0.396 -0.4246 -0.4126 -0.0793
   75MOL0     C10012  -1.503   3.783   0.278 -0.1698 -0.3546 -0.0717
   75MOL0     C10013  -1.616   3.725   0.192 -0.0014 -0.1433 -0.2395
   75MOL0     O10014  -1.740   3.738   0.274 -0.1240  0.5095 -0.2496
   75MOL0     C10015  -1.837   3.821   0.231 -0.5631 -0.0856  0.7370
   75MOL0     C10016  -1.967   3.779   0.205 -0.0384 -0.1933 -0.5305
   75MOL0     C10017  -2.073   3.868   0.172 -0.0896  0.3450  0.2967
   75MOL0     C10018  -2.205   3.806   0.132  0.2877 -0.5169  0.6015
   75MOL0     C10019  -2.047   4.007   0.182  0.8315  0.2401  0.3606
   75MOL0     C10020  -2.153   4.105   0.145 -0.1725  0.3195 -0.2959
   75MOL0     O10021  -2.279   4.074   0.098 -0.3623  0.3655 -0.0806
   75MOL0     C10022  -2.384   4.154   0.103  1.3147 -1.0621 -0.5718
   75MOL0     C10023  -2.394   4.290   0.062 -0.5164 -0.1281  0.2350
   75MOL0     C10024  -2.500   4.373   0.090  0.4828  0.2460  0.5163
   75MOL0     C10025  -2.610   4.311   0.158 -0.7016 -0.8209 -0.4824
   75MOL0     O10026  -2.729   4.368   0.193  0.5584 -0.4510  0.2966
   75MOL0     C10027  -2.766   4.499   0.149 -0.7468  0.3225 -0.1767
   75MOL0     C10028  -2.898   4.533   0.210 -0.3495 -0.5274 -0.4026
   75MOL0     C10029  -2.970   4.631   0.121  0.1167 -0.0053  0.4417
   75MOL0     C10030  -3.104   4.674   0.179 -0.1265 -0.8245 -0.1021
   75MOL0     C10031  -3.184   4.766   0.091  0.5803 -0.6577  0.5864
   75MOL0     C10032  -3.213   4.695  -0.041 -0.4548 -0.9797  0.7579
   75MOL0     C10033  -3.349   4.735  -0.091 -0.0107 -0.1131 -0.8916
   75MOL0     C10034  -3.462   4.658  -0.030 -0.0684  0.5945  0.0624
   75MOL0    Cl10035  -3.605   4.695  -0.128  0.0784 -0.0148  0.2590
   75MOL0     C10036  -2.611   4.175   0.191 -0.1487  0.5986  0.2592
   75MOL0     C10037  -2.497   4.102   0.165  0.4160  0.5000 -0.5580
   75MOL0     O10038  -2.119   4.224   0.161 -0.2136 -0.5598 -0.3983
   75MOL0     C10039  -1.915   4.051   0.212 -0.3581 -0.1333  0.1686
   75MOL0     C10040  -1.808   3.957   0.236 -0.1787 -0.2326 -0.9458
   75MOL0     N10041  -1.241   3.946   0.376  0.2523  0.1353  0.5013
   75MOL0     N10042  -1.112   3.951   0.367 -0.1397 -0.0080 -0.7160
   75MOL0     C10043  -0.068   3.794   0.921 -0.7634  0.2006  0.5468
   75MOL0     C10044  -0.003   3.729   1.020  0.2857 -0.3268 -0.8358
   75MOL0     C10045   0.245   3.462   1.257 -0.2762 -0.0311  0.1208
   75MOL0     C10046   0.185   3.369   1.347  0.3321 -0.9311  0.0021
   75MOL0     C10047   0.249   3.244   1.366 -0.3552 -0.3463  0.2530
   75MOL0     C10048   0.375   3.215   1.313 -0.9615  0.8560  0.7019
   75MOL0     O10049   0.441   3.095   1.322 -0.1256  0.3863 -0.3866
   75MOL0     C10050   0.391   2.990   1.417  0.4391 -0.2317 -0.5235
   75MOL0     C10051   0.489   2.872   1.401 -0.0302  0.0666 -0.2565
   75MOL0     C10052   0.464   2.771   1.519  0.3231 -0.4273 -0.1319
   75MOL0     C10053   0.571   2.654   1.525  0.0989 -0.5277  0.4014
   75MOL0     C10054   0.603   2.590   1.398  0.8823 -0.0663 -0.6045
   75MOL0     C10055   0.632   2.531   1.301 -0.5968 -0.3644  0.1717
   75MOL0     C10056   0.447   3.315   1.238 -0.3997  0.0093 -1.1426
   75MOL0     C10057   0.376   3.430   1.213 -0.8523  0.0392  0.1817
   75MOL0     H10058   0.295   3.901   0.999  0.4468  0.4247 -0.4101
   75MOL0     H10059   0.185   4.013   0.841 -1.7497  1.2568 -0.2748
   75MOL0     H10060  -0.216   3.883   0.682 -0.9377  0.4361  0.0737
   75MOL0     H10061  -0.219   4.010   0.810 -0.3432  1.2084 -0.8228
   75MOL0     H10062  -0.177   4.173   0.629  0.9902  0.0115 -0.7463
   75MOL0     H10063  -0.176   4.039   0.507 -0.4771  0.8494 -0.0234
   75MOL0     H10064  -0.402   4.151   0.680 -1.0089  0.6887 -0.5660
   75MOL0     H10065  -0.387   4.171   0.506 -3.6275 -1.2254  0.4748
   75MOL0     H10066  -0.402   3.911   0.491  0.8370  0.2599  0.7459
   75MOL0     H10067  -0.435   3.915   0.659  2.3887 -0.0229  0.8607
   75MOL0     H10068  -0.648   4.085   0.605 -3.2242 -3.7666  0.5805
   75MOL0     H10069  -0.583   4.102   0.450 -1.1500  1.1644  1.1397
   75MOL0     H10070  -0.640   3.859   0.400  0.3100  1.8528 -0.6745
   75MOL0     H10071  -0.664   3.830   0.568 -0.7441  0.2269 -0.6058
   75MOL0     H10072  -0.856   3.979   0.583 -0.4102  0.0408  0.2063
   75MOL0     H10073  -0.844   4.022   0.408  1.0696  0.2040 -0.9948
   75MOL0     H10074  -0.882   3.743   0.511 -2.5720 -0.5783 -0.1828
   75MOL0     H10075  -0.877   3.803   0.337 -0.9980  1.7710 -0.8066
   75MOL0     H10076  -1.145   3.675   0.538 -0.8509 -1.0657 -0.7725
   75MOL0     H10077  -1.367   3.694   0.586  0.7082 -0.4266  0.3236
   75MOL0     H10078  -1.452   3.850   0.544  1.6498  1.7556 -1.5523
   75MOL0     H10079  -1.559   3.655   0.446  0.8031 -1.5556  1.3624
   75MOL0     H10080  -1.407   3.610   0.357 -0.4337 -0.7267  0.5453
   75MOL0     H10081  -1.416   3.798   0.213  0.8044  2.0047  1.6248
   75MOL0     H10082  -1.532   3.885   0.304 -1.1377  0.5743 -4.0369
   75MOL0     H10083  -1.594   3.621   0.165  0.6882  0.8236 -4.0296
   75MOL0     H10084  -1.621   3.784   0.100 -0.9535  0.3169  0.0963
   75MOL0     H10085  -1.988   3.674   0.223 -1.6236  0.2114  0.2210
   75MOL0     H10086  -2.283   3.815   0.208  3.8567 -2.9594  5.0305
   75MOL0     H10087  -2.238   3.848   0.036  2.1602  4.2971  1.8201
   75MOL0     H10088  -2.197   3.697   0.126  1.3987 -0.3603 -1.9286
   75MOL0     H10089  -2.308   4.330   0.009 -0.0896  0.3792  1.2858
   75MOL0     H10090  -2.501   4.474   0.052  0.9188  0.9394  2.2659
   75MOL0     H10091  -2.689   4.576   0.159  0.6255 -0.9425 -0.6602
   75MOL0     H10092  -2.788   4.488   0.042  0.2476 -0.4088 -0.3203
   75MOL0     H10093  -2.960   4.443   0.221  0.1847 -0.6792  1.7856
   75MOL0     H10094  -2.893   4.574   0.311 -0.1261 -1.2843 -0.0957
   75MOL0     H10095  -2.985   4.586   0.022 -0.3267 -1.5690  1.1914
   75MOL0     H10096  -2.905   4.719   0.113 -1.4656  1.3694  1.9766
   75MOL0     H10097  -3.162   4.586   0.210  0.5732 -1.6270 -0.9952
   75MOL0     H10098  -3.081   4.730   0.270  0.2739 -0.6739 -0.2923
   75MOL0     H10099  -3.138   4.863   0.074 -0.1712 -0.9900 -5.0888
   75MOL0     H10100  -3.270   4.785   0.156  1.0375 -0.0925  1.0372
   75MOL0     H10101  -3.140   4.740  -0.109 -2.1506 -0.2919 -0.6924
   75MOL0     H10102  -3.202   4.586  -0.042 -1.4166 -1.0980  1.4198
   75MOL0     H10103  -3.360   4.707  -0.196  0.2523 -0.5709 -0.7992
   75MOL0     H10104  -3.360   4.844  -0.088 -1.2440 -0.2342 -0.5492
   75MOL0     H10105  -3.473   4.696   0.072  0.8773 -1.3025  0.9273
   75MOL0     H10106  -3.429   4.554  -0.024  2.3865  1.3501  1.2110
   75MOL0     H10107  -2.690   4.126   0.247  0.8119 -0.9302  0.3389
   75MOL0     H10108  -2.491   3.995   0.181 -0.1431 -0.1691 -4.0038
   75MOL0     H10109  -1.889   4.156   0.216  2.6409 -0.7368 -0.9617
   75MOL0     H10110  -1.703   3.985   0.233 -0.2376 -0.0491 -1.4931
   75MOL0     H10111  -0.160   3.750   0.884 -0.2763 -0.2238 -0.1716
   75MOL0     H10112  -0.067   3.656   1.068 -0.2920  0.6729 -0.0389
   75MOL0     H10113   0.086   3.391   1.387  1.1256 -0.0557  1.5850
   75MOL0     H10114   0.199   3.161   1.414  1.5018 -0.6431  1.8118
   75MOL0     H10115   0.397   3.029   1.518 -2.4485 -0.1859 -0.2895
   75MOL0     H10116   0.289   2.951   1.408  0.1880 -0.4198  2.2814
   75MOL0     H10117   0.593   2.902   1.418  0.8192 -3.1590  1.0038
   75MOL0     H10118   0.497   2.818   1.306  0.5971 -2.6178  1.2357
   75MOL0     H10119   0.366   2.728   1.498  1.9374 -4.1387 -0.8320
   75MOL0     H10120   0.475   2.816   1.618  0.5694 -3.3029  1.2447
   75MOL0     H10121   0.538   2.588   1.605 -1.5717  1.5208  1.5146
   75MOL0     H10122   0.662   2.691   1.572 -0.6317  3.9624 -1.1134
   75MOL0     H10123   0.679   2.486   1.216  0.4063  0.7523  0.0963
   75MOL0     H10124   0.547   3.298   1.200 -0.5880 -2.8647 -0.5692
   75MOL0     H10125   0.441   3.498   1.158  0.3323 -1.0659  0.1848
   76MOL0     O10126   2.409   9.396   3.410 -0.1875  0.1091 -0.8528
   76MOL0     C10127   2.423   9.483   3.328 -1.0570 -0.1039 -0.5784
   76MOL0     O10128   2.321   9.538   3.265  0.6411 -0.0454  0.5755
   76MOL0     C10129   2.183   9.524   3.296 -0.3445 -0.6366  0.3486
   76MOL0     C10130   2.126   9.401   3.337 -0.0879  0.4715  0.5915
   76MOL0     C10131   1.986   9.396   3.336  0.8063 -0.4948  0.7107
   76MOL0     C10132   1.906   9.511   3.321 -0.0134  0.0932 -0.1361
   76MOL0     O10133   1.767   9.502   3.305 -0.4171  0.4441  0.3300
   76MOL0     C10134   1.688   9.610   3.257  0.4391 -0.0303 -0.2963
   76MOL0     C10135   1.544   9.542   3.242 -0.3462 -0.3949  0.2059
   76MOL0     C10136   1.458   9.638   3.166  0.8806 -0.2171  0.8895
   76MOL0     C10137   1.321   9.587   3.175 -0.1456 -0.6192  0.1779
   76MOL0     C10138   1.214   9.689   3.120  0.1257  0.3728 -0.8935
   76MOL0     C10139   1.077   9.658   3.160 -0.7371  0.3213 -0.0610
   76MOL0     C10140   0.982   9.747   3.103  0.2436  0.5915  0.3109
   76MOL0     C10141   0.973   9.763   2.951  0.0043  0.1443  0.2250
   76MOL0     N10142   0.967   9.637   2.874 -0.0577  0.3735  0.0434
   76MOL0     C10143   0.884   9.523   2.891  0.0048  0.1203  0.3413
   76MOL0     C10144   0.910   9.453   2.781  1.4539  0.4960  0.6361
   76MOL0     C10145   0.868   9.314   2.766  0.3473 -0.5528  0.0950
   76MOL0     C10146   0.712   9.293   2.782 -0.4427  0.3994  0.3588
   76MOL0     C10147   0.671   9.153   2.741  0.7511  0.2266  0.6720
   76MOL0     C10148   0.528   9.109   2.794 -0.3537  0.1106 -0.4318
   76MOL0     O10149   0.504   8.971   2.774  0.1623 -0.3436 -0.3204
   76MOL0     C10150   0.373   8.928   2.763 -0.0025 -0.7235  0.8468
   76MOL0     C10151   0.347   8.797   2.727 -0.3031 -0.2610 -0.2304
   76MOL0     C10152   0.214   8.744   2.711  0.0541  0.3671 -0.2021
   76MOL0     C10153   0.194   8.598   2.678 -0.2840 -0.4354 -0.0875
   76MOL0     C10154   0.099   8.832   2.732  0.7749  0.1950  0.8929
   76MOL0     C10155  -0.049   8.787   2.747 -0.3881  0.2590  0.3443
   76MOL0     O10156  -0.142   8.885   2.767 -0.0575  0.3298  0.2957
   76MOL0     C10157  -0.258   8.845   2.834 -0.5288 -0.6484  0.4812
   76MOL0     C10158  -0.246   8.799   2.966 -0.8614  0.5887  0.5629
   76MOL0     C10159  -0.356   8.756   3.029  0.4705  0.2964  0.2900
   76MOL0     C10160  -0.483   8.764   2.970  0.7049 -1.0168 -1.2603
   76MOL0     O10161  -0.596   8.727   3.026  0.0488  0.1581 -0.4197
   76MOL0     C10162  -0.607   8.642   3.143 -0.2196  0.0057 -0.1245
   76MOL0     C10163  -0.752   8.596   3.168 -0.1465  0.3848 -0.1277
   76MOL0     C10164  -0.758   8.527   3.306 -0.2298 -1.0150  0.6704
   76MOL0     C10165  -0.903   8.477   3.325 -0.2082  0.4032 -0.0967
   76MOL0     C10166  -0.920   8.360   3.426 -0.5571  0.1427  0.5923
   76MOL0     C10167  -1.070   8.342   3.458  0.0472  0.2082  1.0684
   76MOL0     C10168  -1.086   8.229   3.564 -0.4597 -0.3998  0.0990
   76MOL0     C10169  -1.063   8.089   3.510  0.9310 -0.1749 -0.4822
   76MOL0    Cl10170  -0.898   8.032   3.532  0.5799  0.2352  0.1829
   76MOL0     C10171  -0.499   8.812   2.840  0.3663  0.6450  0.6117
   76MOL0     C10172  -0.383   8.862   2.769  0.4374  1.2998 -0.1087
   76MOL0     O10173  -0.076   8.667   2.757 -0.2300  0.0822  0.0318
   76MOL0     C10174   0.130   8.962   2.756 -0.1536 -0.0578 -0.5337
   76MOL0     C10175   0.256   9.009   2.785  0.1750  0.2822  0.2034
   76MOL0     N10176   1.011   9.515   2.704  0.0912 -0.6086  0.0445
   76MOL0     N10177   1.036   9.628   2.752 -0.2015  0.4913 -0.2726
   76MOL0     C10178   1.970   9.634   3.285 -0.1484 -0.2809  0.2380
   76MOL0     C10179   2.108   9.634   3.274 -0.6404  0.3233 -0.5037
   76MOL0     C10180   2.563   9.546   3.299  0.3668  0.6254 -0.0291
   76MOL0     C10181   2.587   9.628   3.186 -0.6974 -0.2567 -0.0455
   76MOL0     C10182   2.716   9.691   3.170  0.6310  0.0006 -0.6148
   76MOL0     C10183   2.820   9.670   3.255  0.2926  0.7203 -0.3479
   76MOL0     O10184   2.949   9.717   3.253 -0.1499  0.1067  0.0987
   76MOL0     C10185   2.989   9.803   3.145  0.4565 -0.3191  0.3618
   76MOL0     C10186   3.140   9.790   3.129  0.1953  0.0343 -0.0699
   76MOL0     C10187   3.229   9.796   3.251 -0.1438 -0.3848  0.4460
   76MOL0     C10188   3.204   9.918   3.342 -0.2546 -0.5545 -0.3355
   76MOL0     C10189   3.105   9.906   3.448 -0.5046  0.3492 -0.7077
   76MOL0     C10190   3.037   9.882   3.545  0.4435 -0.1408 -0.8450
   76MOL0     C10191   2.790   9.587   3.369 -0.2096 -0.1840 -0.1647
   76MOL0     C10192   2.664   9.528   3.395 -0.2646 -0.2395  1.1686
   76MOL0     H10193   2.193   9.318   3.357  1.3472  1.3036 -0.5515
   76MOL0     H10194   1.922   9.310   3.351  0.7674 -0.7479 -0.7670
   76MOL0     H10195   1.684   9.700   3.320  0.3476  0.4097 -0.9180
   76MOL0     H10196   1.725   9.631   3.156 -4.0514 -0.0295 -2.1854
   76MOL0     H10197   1.546   9.444   3.194 -0.5743 -0.5230  0.4584
   76MOL0     H10198   1.518   9.532   3.347  2.9429 -2.2057  0.9908
   76MOL0     H10199   1.454   9.739   3.208  1.0903  0.8451 -1.4948
   76MOL0     H10200   1.491   9.647   3.062 -2.0162  2.2326  0.0424
   76MOL0     H10201   1.312   9.488   3.129  2.7601 -1.6353  1.5815
   76MOL0     H10202   1.278   9.573   3.275 -2.2206  1.0370 -0.3937
   76MOL0     H10203   1.232   9.790   3.158 -3.2259  0.6939  0.1119
   76MOL0     H10204   1.235   9.690   3.012  1.5322  0.2035 -0.6421
   76MOL0     H10205   1.058   9.553   3.134 -0.7666  0.2861  0.1039
   76MOL0     H10206   1.060   9.658   3.268  1.8962  0.0485  0.4276
   76MOL0     H10207   0.881   9.715   3.129  1.4005 -2.0160  2.1389
   76MOL0     H10208   1.006   9.849   3.135 -0.5120  0.9988 -0.4062
   76MOL0     H10209   1.062   9.821   2.924  0.9708 -1.3238  0.1333
   76MOL0     H10210   0.883   9.814   2.916 -1.0611 -3.8545 -3.9298
   76MOL0     H10211   0.813   9.508   2.972 -0.5016  4.0228  0.8177
   76MOL0     H10212   0.898   9.263   2.674  1.2412 -4.5837  2.3758
   76MOL0     H10213   0.933   9.260   2.836 -0.6047  0.0283  1.4722
   76MOL0     H10214   0.657   9.371   2.729 -1.5304  0.1477  1.0823
   76MOL0     H10215   0.693   9.302   2.889 -1.5281  0.5700  0.1654
   76MOL0     H10216   0.739   9.078   2.782  0.1456 -0.8335 -0.2295
   76MOL0     H10217   0.667   9.148   2.632 -0.6200 -1.6773  0.7725
   76MOL0     H10218   0.458   9.170   2.736 -0.0694  0.9011  0.0348
   76MOL0     H10219   0.506   9.128   2.900 -1.2176 -1.2411 -0.3508
   76MOL0     H10220   0.427   8.725   2.715 -0.4027 -0.5028  0.5027
   76MOL0     H10221   0.111   8.571   2.612  0.1834 -2.0589 -0.0578
   76MOL0     H10222   0.287   8.552   2.644  0.5871 -0.1281  1.7855
   76MOL0     H10223   0.174   8.550   2.774 -1.7755  1.7717  0.7752
   76MOL0     H10224  -0.147   8.796   3.010 -0.5521  1.4317 -0.0600
   76MOL0     H10225  -0.356   8.728   3.134  0.9921  0.2438  0.2799
   76MOL0     H10226  -0.543   8.554   3.129 -1.6861 -1.3269  1.1507
   76MOL0     H10227  -0.567   8.694   3.231  0.2901  0.8661 -0.8568
   76MOL0     H10228  -0.823   8.679   3.166  0.8823  1.3209  0.7439
   76MOL0     H10229  -0.774   8.522   3.091  0.7710 -0.9722  0.8623
   76MOL0     H10230  -0.733   8.600   3.383  0.6379  0.3841 -0.8879
   76MOL0     H10231  -0.687   8.444   3.310  1.7896  0.6360  0.3844
   76MOL0     H10232  -0.957   8.565   3.359 -1.0034  0.4634 -1.4362
   76MOL0     H10233  -0.942   8.443   3.229  0.2032  0.1552 -0.1837
   76MOL0     H10234  -0.876   8.381   3.524 -3.0315  1.5753  1.5022
   76MOL0     H10235  -0.875   8.266   3.393 -1.1995  0.7562 -2.2815
   76MOL0     H10236  -1.121   8.437   3.477 -1.5670 -0.5886  0.9512
   76MOL0     H10237  -1.123   8.307   3.369 -2.0529  1.0944  1.9045
   76MOL0     H10238  -1.187   8.239   3.606 -0.8711 -0.7703 -0.7610
   76MOL0     H10239  -1.012   8.243   3.643 -1.4803 -2.1468  1.4588
   76MOL0     H10240  -1.089   8.090   3.404  2.3434  3.5468 -0.9261
   76MOL0     H10241  -1.125   8.029   3.578 -1.2487  0.4140 -1.8665
   76MOL0     H10242  -0.592   8.814   2.784  1.7097 -0.4367 -1.7878
   76MOL0     H10243  -0.398   8.913   2.675 -3.1766 -1.0536 -1.0067
   76MOL0     H10244   0.046   9.031   2.758 -1.7132 -1.8605 -0.1987
   76MOL0     H10245   0.265   9.112   2.817 -2.0376  0.2628  1.0629
   76MOL0     H10246   1.919   9.727   3.262  0.4662 -0.1972 -0.9114
   76MOL0     H10247   2.164   9.720   3.238 -0.7142  1.3848  1.7564
   76MOL0     H10248   2.512   9.668   3.118  1.2993  1.8205 -1.1662
   76MOL0     H10249   2.729   9.755   3.084 -0.5064 -1.1651 -1.7028
   76MOL0     H10250   2.956   9.778   3.043  1.2249 -0.9762  0.2713
   76MOL0     H10251   2.957   9.907   3.161 -2.6187 -1.1933  0.5899
   76MOL0     H10252   3.168   9.867   3.057  0.0466 -0.3117 -0.5025
   76MOL0     H10253   3.160   9.697   3.075  1.5694 -0.5083  1.2973
   76MOL0     H10254   3.333   9.804   3.218 -0.1196  1.6838  0.8733
   76MOL0     H10255   3.224   9.705   3.311  1.0582 -0.6248  0.1999
   76MOL0     H10256   3.184  10.011   3.287  2.7918  0.5472  0.2092
   76MOL0     H10257   3.304   9.943   3.380 -0.1585 -0.6898 -0.4931
   76MOL0     H10258   2.982   9.870   3.635  1.4279  2.3929  0.1927
   76MOL0     H10259   2.882   9.575   3.425 -1.1098  0.6097  1.5912
   76MOL0     H10260   2.655   9.465   3.483 -0.8256 -1.7783  0.0582
   77MOL0     O10261  10.039  10.204   6.005 -0.0603 -0.1284 -0.2324
   77MOL0     C10262  10.076  10.148   5.904  0.8350 -0.8579  0.1159
   77MOL0     O10263   9.999  10.126   5.798  0.1350  0.1015 -0.5068
   77MOL0     C10264   9.867  10.164   5.800  0.8274 -0.1289  0.8335
   77MOL0     C10265   9.765  10.073   5.834  0.3572  0.2701  0.5500
   77MOL0     C10266   9.631  10.114   5.836 -0.2337  0.7972 -0.2463
   77MOL0     C10267   9.592  10.247   5.805 -0.8194  0.0374 -0.6663
   77MOL0     O10268   9.460  10.285   5.806  0.1911  0.2887  0.1371
   77MOL0     C10269   9.365  10.201   5.750  1.2027 -0.1458  0.0836
   77MOL0     C10270   9.242  10.290   5.760  0.0560  0.4618  0.3092
   77MOL0     C10271   9.115  10.236   5.699  0.6729  0.1143 -0.5432
   77MOL0     C10272   9.099  10.253   5.554 -0.0149 -0.8165  0.4573
   77MOL0     C10273   8.976  10.196   5.485  0.8324 -0.0320  0.0015
   77MOL0     C10274   8.842  10.263   5.521 -0.0727 -0.5965  0.3855
   77MOL0     C10275   8.827  10.411   5.475  0.1456  0.0497  0.4611
   77MOL0     C10276   8.714  10.469   5.557 -0.1078 -0.6725 -0.3090
   77MOL0     N10277   8.586  10.402   5.543  0.1171 -0.5868  0.3281
   77MOL0     C10278   8.498  10.390   5.435 -0.1010  0.2457  0.0508
   77MOL0     C10279   8.384  10.333   5.486  0.5543  0.1679 -0.3368
   77MOL0     C10280   8.264  10.271   5.411  0.3277 -0.3856  0.0421
   77MOL0     C10281   8.198  10.340   5.293 -0.2140 -0.0023  0.2712
   77MOL0     C10282   8.158  10.481   5.322 -0.2847  0.0879  0.9687
   77MOL0     C10283   8.104  10.544   5.194  0.4638  0.0894 -0.7218
   77MOL0     O10284   8.027  10.663   5.217  0.5219 -0.0977 -0.1757
   77MOL0     C10285   7.893  10.647   5.224 -0.2708 -0.0196 -0.0907
   77MOL0     C10286   7.823  10.547   5.294 -0.0231  0.4699  0.5756
   77MOL0     C10287   7.684  10.540   5.301  0.3663 -0.5477 -0.3359
   77MOL0     C10288   7.624  10.412   5.361  0.4377  0.7340  0.1911
   77MOL0     C10289   7.605  10.644   5.247  0.1495 -0.3163  0.0812
   77MOL0     C10290   7.458  10.638   5.233 -0.1812 -0.0229 -0.2161
   77MOL0     O10291   7.394  10.580   5.348  0.3218  0.4254  0.6494
   77MOL0     C10292   7.260  10.553   5.338  0.4378 -0.1926  0.0505
   77MOL0     C10293   7.173  10.610   5.423 -0.0142  0.5755 -0.0447
   77MOL0     C10294   7.039  10.576   5.432  0.2558  0.2890  0.1157
   77MOL0     C10295   6.987  10.475   5.360 -0.0609  0.6397  0.1580
   77MOL0     O10296   6.856  10.458   5.383  0.3531  1.1566 -0.0756
   77MOL0     C10297   6.788  10.347   5.332  0.1099 -0.1669 -0.5327
   77MOL0     C10298   6.643  10.381   5.355  0.7771 -0.2722 -0.0453
   77MOL0     C10299   6.526  10.279   5.312 -0.1519  0.9522  0.2190
   77MOL0     C10300   6.531  10.142   5.377 -0.1362  0.1147  0.5930
   77MOL0     C10301   6.429  10.036   5.315 -0.6909  0.0300 -0.1002
   77MOL0     C10302   6.284  10.084   5.339  0.3361 -0.0900  0.1774
   77MOL0     C10303   6.165  10.006   5.282  0.2049  0.7193  0.2344
   77MOL0     C10304   6.031  10.079   5.324 -0.0020  0.8256  0.9191
   77MOL0    Cl10305   6.032  10.251   5.278 -0.1277  0.4514  0.0265
   77MOL0     C10306   7.068  10.414   5.268 -0.3917 -0.7571  0.2981
   77MOL0     C10307   7.206  10.452   5.252 -0.0868 -0.0209 -0.7980
   77MOL0     O10308   7.399  10.701   5.147  0.5368  0.6300  1.2680
   77MOL0     C10309   7.679  10.756   5.188  0.2976  0.2425 -0.1587
   77MOL0     C10310   7.825  10.751   5.175  0.1914 -0.4662  0.0511
   77MOL0     N10311   8.409  10.298   5.620 -0.2371 -0.6222 -0.2319
   77MOL0     N10312   8.532  10.338   5.647  0.4607  0.0123 -0.6774
   77MOL0     C10313   9.694  10.341   5.774  0.6520 -0.6117 -0.2031
   77MOL0     C10314   9.825  10.298   5.774 -0.5310  0.9262  0.0151
   77MOL0     C10315  10.216  10.111   5.900  0.4745 -0.2785  0.4660
   77MOL0     C10316  10.295  10.134   6.008 -0.0414  0.1672  0.0446
   77MOL0     C10317  10.431  10.119   5.991 -0.5888 -0.0897 -0.0686
   77MOL0     C10318  10.494  10.083   5.871  0.4735 -0.8244  0.0578
   77MOL0     O10319  10.628  10.091   5.868  0.1644  0.0595 -0.2988
   77MOL0     C10320  10.699  10.079   5.742  1.6227 -0.1777 -0.1824
   77MOL0     C10321  10.841  10.049   5.773  0.0880 -0.0362 -0.7131
   77MOL0     C10322  10.858   9.914   5.856  0.2656 -0.0559  0.3739
   77MOL0     C10323  10.997   9.868   5.863 -0.5051 -0.7302  0.3149
   77MOL0     C10324  11.009   9.754   5.957 -0.5361  0.6562 -0.1755
   77MOL0     C10325  11.043   9.673   6.044  0.4586  0.1707  0.1786
   77MOL0     C10326  10.406  10.066   5.767  0.3803 -0.6337 -0.1383
   77MOL0     C10327  10.271  10.075   5.774  0.3416 -0.2080 -0.0728
   77MOL0     H10328   9.799   9.972   5.854  0.0226  0.0014 -0.2166
   77MOL0     H10329   9.562  10.031   5.851  0.5430 -0.1508 -1.6083
   77MOL0     H10330   9.384  10.190   5.643  0.0985 -0.7447 -0.0522
   77MOL0     H10331   9.348  10.104   5.796 -1.7011 -0.0978 -0.7262
   77MOL0     H10332   9.229  10.312   5.866  0.3815  2.9153 -0.1115
   77MOL0     H10333   9.263  10.380   5.702 -0.6278  0.9447  0.8014
   77MOL0     H10334   9.087  10.136   5.734 -2.0663  0.1548 -2.2530
   77MOL0     H10335   9.038  10.298   5.746  0.0448 -0.1962 -1.1360
   77MOL0     H10336   9.109  10.355   5.516  3.3037  1.0385  5.3027
   77MOL0     H10337   9.182  10.199   5.509  1.4913  1.6884  0.0337
   77MOL0     H10338   8.991  10.208   5.377 -1.8780  0.6139 -0.3839
   77MOL0     H10339   8.966  10.088   5.500 -0.5956  0.1282  0.3057
   77MOL0     H10340   8.758  10.205   5.481 -0.4134  0.2159 -0.1179
   77MOL0     H10341   8.822  10.252   5.628 -0.9075 -1.0215  0.1903
   77MOL0     H10342   8.905  10.485   5.499 -0.0796  0.9710 -1.4756
   77MOL0     H10343   8.800  10.414   5.369 -0.2639 -1.6628  0.4922
   77MOL0     H10344   8.704  10.573   5.524  0.4403 -1.0237 -1.6527
   77MOL0     H10345   8.729  10.472   5.665 -1.3991  0.0094 -0.1228
   77MOL0     H10346   8.516  10.415   5.331 -4.0951 -2.7158 -1.6232
   77MOL0     H10347   8.301  10.175   5.374  1.9442  0.4864 -0.6824
   77MOL0     H10348   8.197  10.240   5.492  2.8023 -0.7217  2.0816
   77MOL0     H10349   8.105  10.289   5.264  0.3046 -0.5730 -0.4544
   77MOL0     H10350   8.262  10.325   5.206 -1.4671 -0.0003 -0.6771
   77MOL0     H10351   8.236  10.547   5.362 -1.6776  1.9551  0.7535
   77MOL0     H10352   8.076  10.478   5.395 -0.6601 -0.3233  0.5369
   77MOL0     H10353   8.043  10.473   5.138 -2.3771  1.1445  0.8225
   77MOL0     H10354   8.181  10.578   5.125  0.6771  4.9482  1.4979
   77MOL0     H10355   7.868  10.465   5.350  0.9207  0.6568  0.0984
   77MOL0     H10356   7.530  10.382   5.314 -0.4181 -1.5132  3.0713
   77MOL0     H10357   7.698  10.331   5.357  0.1954  0.4642  1.0867
   77MOL0     H10358   7.611  10.427   5.468  2.7504 -0.9405  0.7793
   77MOL0     H10359   7.211  10.690   5.486 -0.1781  0.3681  0.3183
   77MOL0     H10360   6.964  10.625   5.493  0.1286 -0.0008  0.1954
   77MOL0     H10361   6.801  10.327   5.225  0.2753 -2.9932 -0.0648
   77MOL0     H10362   6.792  10.253   5.389  1.3903  0.6086  0.7169
   77MOL0     H10363   6.625  10.396   5.462  1.0272 -0.9700  0.1015
   77MOL0     H10364   6.614  10.473   5.304 -2.8569 -0.3295  1.5831
   77MOL0     H10365   6.521  10.274   5.203 -2.6967  1.3311  0.2405
   77MOL0     H10366   6.425  10.316   5.335 -1.6012 -2.6138  0.2644
   77MOL0     H10367   6.632  10.103   5.362  0.0574  0.1794  1.6676
   77MOL0     H10368   6.508  10.149   5.483 -0.6595 -1.9371  0.6653
   77MOL0     H10369   6.451   9.943   5.370  2.9612  0.9398  0.1947
   77MOL0     H10370   6.441  10.010   5.210 -1.9009 -2.1167  0.2165
   77MOL0     H10371   6.266  10.106   5.444  3.3588 -1.4249  1.1013
   77MOL0     H10372   6.280  10.180   5.288 -0.2439  0.2289  0.8097
   77MOL0     H10373   6.170   9.900   5.311 -0.4464  0.5938 -0.1070
   77MOL0     H10374   6.181  10.008   5.174  1.0870 -0.4583  0.3210
   77MOL0     H10375   6.011  10.072   5.432 -1.5752  3.1804  0.8473
   77MOL0     H10376   5.957  10.012   5.277  2.4656 -1.6026  0.2177
   77MOL0     H10377   7.026  10.329   5.215 -0.1315 -0.1848 -0.8808
   77MOL0     H10378   7.271  10.393   5.189 -1.3567 -0.2642 -1.9271
   77MOL0     H10379   7.630  10.842   5.144  2.0671 -0.5345 -4.0385
   77MOL0     H10380   7.885  10.827   5.125  0.7235  0.4132  1.9255
   77MOL0     H10381   9.664  10.442   5.750  0.5567 -0.0227  2.1929
   77MOL0     H10382   9.898  10.379   5.762 -0.3012  0.5752 -1.0438
   77MOL0     H10383  10.254  10.152   6.107  2.9113  0.5492  1.3045
   77MOL0     H10384  10.508  10.130   6.066  1.5460 -0.0604 -2.1515
   77MOL0     H10385  10.660   9.992   5.689  0.7233 -1.0089  1.7345
   77MOL0     H10386  10.692  10.167   5.677  1.5290 -2.2552 -3.1827
   77MOL0     H10387  10.890  10.135   5.818  0.3738  0.2156 -1.4892
   77MOL0     H10388  10.896  10.030   5.681  1.4601  0.7360 -0.0826
   77MOL0     H10389  10.808   9.828   5.811 -0.0688  0.4714 -0.2826
   77MOL0     H10390  10.818   9.930   5.956 -1.7946  1.3986 -0.6257
   77MOL0     H10391  11.062   9.951   5.892 -0.0357 -0.9803  0.0060
   77MOL0     H10392  11.033   9.834   5.765 -2.5852 -1.2069 -0.3353
   77MOL0     H10393  11.074   9.612   6.126  0.6248  1.6082  1.2301
   77MOL0     H10394  10.454  10.051   5.670  0.6722  0.0005 -0.0990
   77MOL0     H10395  10.225  10.068   5.676  0.3109 -3.5144  0.0749
   78MOL0     O10396   9.592   8.835   0.706  0.4339  0.5126  0.1548
   78MOL0     C10397   9.666   8.933   0.738 -0.1261 -0.1227 -0.3179
   78MOL0     O10398   9.620   9.052   0.793 -0.2877  0.6046  0.5572
   78MOL0     C10399   9.488   9.051   0.818  0.0424  0.1864  0.3786
   78MOL0     C10400   9.400   9.078   0.711  0.7624 -1.0004 -0.5346
   78MOL0     C10401   9.262   9.066   0.728  0.3480 -0.0590  0.2428
   78MOL0     C10402   9.203   9.043   0.847 -0.1369 -0.3914  0.0529
   78MOL0     O10403   9.073   9.015   0.872  0.5624  0.6916  0.5938
   78MOL0     C10404   8.989   8.990   0.758  0.5236  0.4649  0.3816
   78MOL0     C10405   8.863   8.905   0.798 -0.0809  0.2991  0.3235
   78MOL0     C10406   8.899   8.785   0.893  0.2120  0.2054  0.2758
   78MOL0     C10407   8.796   8.667   0.880  0.0150  0.3546 -1.6675
   78MOL0     C10408   8.786   8.595   1.022  0.4841  0.0569 -0.0612
   78MOL0     C10409   8.736   8.450   1.011 -0.6004  0.2310  0.1206
   78MOL0     C10410   8.722   8.385   1.148 -0.7273  0.2063 -0.5380
   78MOL0     C10411   8.585   8.415   1.189 -0.1141  0.1388  0.7890
   78MOL0     N10412   8.488   8.310   1.143  0.1198 -0.7329 -0.3863
   78MOL0     C10413   8.360   8.342   1.147 -0.0359 -0.7031  0.5706
   78MOL0     C10414   8.297   8.225   1.115  0.7362 -0.0121 -0.3707
   78MOL0     C10415   8.149   8.200   1.119 -0.0525 -0.0957  0.7633
   78MOL0     C10416   8.092   8.194   0.985  0.6862  1.0170  1.3648
   78MOL0     C10417   8.086   8.048   0.931  0.4950  0.8858 -0.3081
   78MOL0     C10418   8.002   7.948   1.009  0.2776 -0.2640 -0.1607
   78MOL0     O10419   7.867   7.985   1.009 -0.4481  0.4621  0.4620
   78MOL0     C10420   7.770   7.910   1.059 -0.6792  0.4467  0.4124
   78MOL0     C10421   7.646   7.971   1.076 -0.3266 -0.2810 -0.0241
   78MOL0     C10422   7.534   7.902   1.132 -0.3585  0.0601  0.7017
   78MOL0     C10423   7.405   7.973   1.148  0.3096 -0.7860 -0.5131
   78MOL0     C10424   7.556   7.768   1.167 -0.0769 -0.7143 -0.7965
   78MOL0     C10425   7.458   7.690   1.245 -0.5274  0.1725  0.7335
   78MOL0     O10426   7.328   7.725   1.247  0.8182 -0.3105  0.1797
   78MOL0     C10427   7.238   7.639   1.312 -0.0338 -0.0744 -0.5997
   78MOL0     C10428   7.185   7.704   1.421 -0.3586  0.2227 -0.3350
   78MOL0     C10429   7.089   7.639   1.494 -0.0969  0.1155 -0.2855
   78MOL0     C10430   7.044   7.513   1.439 -0.2314  0.0022 -0.3647
   78MOL0     O10431   6.933   7.444   1.490  0.5698  0.4019  0.7768
   78MOL0     C10432   6.818   7.527   1.527 -0.4198 -0.4243 -0.2217
   78MOL0     C10433   6.693   7.463   1.480  0.4968  0.3523 -1.5520
   78MOL0     C10434   6.563   7.489   1.554 -0.3560 -0.6161  0.7801
   78MOL0     C10435   6.580   7.513   1.699  0.1387  0.3658  0.1286
   78MOL0     C10436   6.453   7.505   1.783  0.0751  0.1015  0.3978
   78MOL0     C10437   6.471   7.564   1.921 -0.2560 -0.1483 -0.2294
   78MOL0     C10438   6.339   7.556   1.991  0.0200 -0.4354  0.3482
   78MOL0     C10439   6.351   7.603   2.134  0.2805 -0.4976 -0.1355
   78MOL0    Cl10440   6.445   7.758   2.150  0.1735 -0.0596  0.0616
   78MOL0     C10441   7.092   7.451   1.329 -0.0032 -0.1158 -0.3415
   78MOL0     C10442   7.193   7.516   1.259  0.6892  0.8625  0.5483
   78MOL0     O10443   7.503   7.588   1.309  0.5519 -0.2101 -0.0047
   78MOL0     C10444   7.687   7.706   1.152 -0.6112  0.8009 -0.2877
   78MOL0     C10445   7.793   7.779   1.105 -0.8235 -0.2729  0.5630
   78MOL0     N10446   8.390   8.120   1.098  0.1057 -0.9968 -0.4645
   78MOL0     N10447   8.506   8.175   1.116  0.6094 -0.5454  0.2776
   78MOL0     C10448   9.291   9.033   0.958  0.2678  0.2003  0.4106
   78MOL0     C10449   9.432   9.042   0.945 -0.7003  0.8394 -0.2697
   78MOL0     C10450   9.811   8.917   0.714 -0.7566 -0.5064 -0.7245
   78MOL0     C10451   9.904   9.013   0.764  0.0587 -0.1683  0.0491
   78MOL0     C10452  10.042   8.994   0.746  0.6602 -0.3240 -0.0886
   78MOL0     C10453  10.093   8.871   0.697 -0.6424  0.8520 -0.6995
   78MOL0     O10454  10.217   8.827   0.706 -0.2051 -0.2403 -0.9191
   78MOL0     C10455  10.316   8.925   0.733  0.6151  0.1586 -0.1759
   78MOL0     C10456  10.449   8.857   0.732  0.1176 -0.1857 -0.3989
   78MOL0     C10457  10.465   8.766   0.863 -0.0249  1.0887  0.2967
   78MOL0     C10458  10.596   8.682   0.850 -0.9619 -0.1796  1.2849
   78MOL0     C10459  10.605   8.619   0.977 -0.1383 -0.7643 -1.2704
   78MOL0     C10460  10.622   8.575   1.093  0.5200  0.6111  0.1014
   78MOL0     C10461   9.998   8.773   0.658  1.6880 -0.2584 -1.0053
   78MOL0     C10462   9.860   8.799   0.661 -1.0988 -0.1090  0.0930
   78MOL0     H10463   9.430   9.109   0.611 -2.7759  2.3563 -0.7681
   78MOL0     H10464   9.210   9.092   0.636  2.4538  1.3121 -0.6303
   78MOL0     H10465   8.957   9.089   0.723  2.9934  1.9886  2.1068
   78MOL0     H10466   9.029   8.938   0.670 -1.8219  1.0832 -1.1513
   78MOL0     H10467   8.775   8.958   0.835  0.9524  1.8419  0.6526
   78MOL0     H10468   8.834   8.847   0.711  2.0797  2.1507 -1.7850
   78MOL0     H10469   9.000   8.757   0.863 -0.2211 -0.2776 -0.8199
   78MOL0     H10470   8.913   8.818   0.996  1.5937  1.9820 -0.4143
   78MOL0     H10471   8.696   8.703   0.853 -1.4603 -1.9288  0.3847
   78MOL0     H10472   8.832   8.608   0.796 -0.1375  1.4801 -2.5571
   78MOL0     H10473   8.885   8.594   1.069  0.7501 -1.7553 -0.6009
   78MOL0     H10474   8.709   8.646   1.081 -0.3250 -0.2603 -0.8169
   78MOL0     H10475   8.643   8.440   0.955 -0.4205 -3.1321  0.2192
   78MOL0     H10476   8.809   8.397   0.949 -0.2791  2.9183 -1.9998
   78MOL0     H10477   8.761   8.283   1.142  0.5611  0.7302 -1.9846
   78MOL0     H10478   8.789   8.436   1.219  1.1480 -1.7818 -0.7578
   78MOL0     H10479   8.561   8.514   1.149 -1.9843 -0.4982  0.2402
   78MOL0     H10480   8.573   8.426   1.297  1.7176  0.9111  0.9660
   78MOL0     H10481   8.310   8.436   1.171 -1.1054 -1.5466  1.7981
   78MOL0     H10482   8.142   8.101   1.165  0.2460 -0.9799 -1.0107
   78MOL0     H10483   8.107   8.275   1.186  1.6591  1.8704 -0.2496
   78MOL0     H10484   8.147   8.256   0.913  1.0879 -0.8858 -0.0568
   78MOL0     H10485   7.991   8.235   0.988  0.8327  1.4367  0.8240
   78MOL0     H10486   8.187   8.009   0.917  0.4333  0.4829  0.3244
   78MOL0     H10487   8.031   8.066   0.838  0.2555 -1.5159 -0.7039
   78MOL0     H10488   8.031   7.932   1.113 -1.7922  2.0761  0.8546
   78MOL0     H10489   8.005   7.858   0.947 -1.9337  0.5161 -1.5186
   78MOL0     H10490   7.646   8.075   1.047 -2.7559 -0.0057  0.7672
   78MOL0     H10491   7.359   7.979   1.247  0.8365  1.5253 -0.3538
   78MOL0     H10492   7.413   8.080   1.123  0.9328 -0.6489  0.2483
   78MOL0     H10493   7.324   7.933   1.086 -0.8488 -1.0764  1.1175
   78MOL0     H10494   7.206   7.808   1.444  0.1376  0.0713 -0.0913
   78MOL0     H10495   7.046   7.694   1.578  2.6839  1.4825  0.3670
   78MOL0     H10496   6.821   7.538   1.636  2.2936 -3.9688  0.2384
   78MOL0     H10497   6.822   7.626   1.482 -0.7158  0.6656  2.0209
   78MOL0     H10498   6.680   7.490   1.375  1.0148  2.0913 -1.2130
   78MOL0     H10499   6.713   7.356   1.479 -2.1826 -0.2098 -1.9396
   78MOL0     H10500   6.487   7.411   1.543 -1.5299  0.6908 -0.9985
   78MOL0     H10501   6.528   7.579   1.501  0.4167 -1.2342 -0.8728
   78MOL0     H10502   6.649   7.439   1.741  2.9674  1.3686 -2.3367
   78MOL0     H10503   6.628   7.611   1.709 -1.1365  1.0631 -0.3701
   78MOL0     H10504   6.432   7.399   1.795  2.1389 -0.2068  1.7341
   78MOL0     H10505   6.369   7.557   1.736  0.7752  2.6738  1.7976
   78MOL0     H10506   6.541   7.501   1.976 -0.7301 -0.5021 -0.0311
   78MOL0     H10507   6.505   7.667   1.907  1.2811 -0.8241 -1.8627
   78MOL0     H10508   6.289   7.458   1.988 -0.9587  0.0735 -1.9948
   78MOL0     H10509   6.269   7.622   1.940  2.2839  0.6099 -1.6385
   78MOL0     H10510   6.394   7.525   2.197  0.0502 -2.1003 -1.8741
   78MOL0     H10511   6.258   7.634   2.183  0.8124  1.5005 -0.2872
   78MOL0     H10512   7.046   7.362   1.289 -0.0372  0.7143 -2.2516
   78MOL0     H10513   7.235   7.481   1.165  2.3156 -0.5875  1.7406
   78MOL0     H10514   7.714   7.603   1.175 -1.8259  0.1837 -1.4911
   78MOL0     H10515   7.892   7.736   1.097 -1.8861 -3.8710  3.7545
   78MOL0     H10516   9.263   8.997   1.057  0.9093 -1.6584 -0.0377
   78MOL0     H10517   9.491   9.030   1.036  0.0617  1.4860 -0.6630
   78MOL0     H10518   9.872   9.103   0.815 -1.3035  1.5396 -3.5244
   78MOL0     H10519  10.110   9.068   0.788 -0.6142  1.9041 -1.7014
   78MOL0     H10520  10.315   9.000   0.652  0.9138  0.5746  0.1979
   78MOL0     H10521  10.298   8.972   0.830 -0.4791 -2.8027  1.1608
   78MOL0     H10522  10.532   8.929   0.739  0.3496 -0.6194  2.0543
   78MOL0     H10523  10.456   8.798   0.640  0.5206 -1.4771  0.4344
   78MOL0     H10524  10.375   8.708   0.884 -0.3383  0.9774 -1.2695
   78MOL0     H10525  10.484   8.835   0.945 -0.7621  0.9172  0.6203
   78MOL0     H10526  10.682   8.745   0.826  1.4039 -3.5194  0.3037
   78MOL0     H10527  10.590   8.616   0.763  1.7494 -0.2205  1.0477
   78MOL0     H10528  10.641   8.524   1.185 -0.1140  0.2622  0.0482
   78MOL0     H10529  10.027   8.671   0.636 -1.3601 -1.3270 -0.4949
   78MOL0     H10530   9.783   8.724   0.646 -0.3389 -0.8152 -0.3145
   79MOL0     O10531   7.412   1.485   1.051 -0.1239  0.6102  1.3499
   79MOL0     C10532   7.525   1.465   1.010  0.1310 -0.8372 -0.1735
   79MOL0     O10533   7.548   1.399   0.893  0.8694 -0.0075 -0.2736
   79MOL0     C10534   7.445   1.343   0.830  1.5460  0.2027 -0.0913
   79MOL0     C10535   7.458   1.213   0.794 -0.2709 -0.3506  1.0344
   79MOL0     C10536   7.364   1.152   0.708  0.6204 -0.6053  0.4891
   79MOL0     C10537   7.251   1.219   0.668  0.4440  0.2682 -0.2393
   79MOL0     O10538   7.157   1.164   0.584  0.5377  0.6539 -0.3071
   79MOL0     C10539   7.067   1.067   0.644 -0.0153 -0.3908 -0.9772
   79MOL0     C10540   6.987   0.987   0.542 -0.1459 -0.3822 -0.5292
   79MOL0     C10541   6.870   1.067   0.473  0.6191  0.1014  0.2945
   79MOL0     C10542   6.763   0.982   0.411 -1.1082  0.4143  0.3742
   79MOL0     C10543   6.662   0.946   0.517  0.4368  0.0166 -0.0445
   79MOL0     C10544   6.568   0.833   0.456  1.1093 -0.1292 -0.2016
   79MOL0     C10545   6.474   0.783   0.566  0.0361  0.0921  0.7161
   79MOL0     C10546   6.372   0.680   0.509 -1.3313  0.4239  0.1785
   79MOL0     N10547   6.280   0.647   0.604  0.1165 -0.0051 -0.5522
   79MOL0     C10548   6.168   0.722   0.627  0.8363 -0.9701  0.9174
   79MOL0     C10549   6.106   0.663   0.734 -0.3210  0.0036  0.0029
   79MOL0     C10550   5.992   0.711   0.804 -1.1467 -0.3053  0.9292
   79MOL0     C10551   5.858   0.648   0.755 -0.8865 -0.6422  0.7116
   79MOL0     C10552   5.742   0.686   0.851 -0.0725  0.0575  0.2090
   79MOL0     C10553   5.606   0.649   0.810  0.3609  1.4565  0.9281
   79MOL0     O10554   5.511   0.695   0.901  0.3100  0.6300 -0.6573
   79MOL0     C10555   5.388   0.722   0.859 -0.3702 -0.4744 -0.0614
   79MOL0     C10556   5.320   0.635   0.774  0.1630  0.2625  0.1559
   79MOL0     C10557   5.183   0.672   0.733 -0.0110  0.1892 -0.7425
   79MOL0     C10558   5.104   0.571   0.662  0.5782  0.4630 -0.8002
   79MOL0     C10559   5.131   0.797   0.778  0.3726 -0.0187  0.1497
   79MOL0     C10560   4.988   0.841   0.749 -0.1082  0.1223 -0.8755
   79MOL0     O10561   4.962   0.977   0.781 -0.1151 -0.1859  0.3947
   79MOL0     C10562   4.832   1.033   0.773 -0.0018  0.7313 -0.2002
   79MOL0     C10563   4.806   1.119   0.674  0.1755 -0.2164 -0.4244
   79MOL0     C10564   4.684   1.183   0.665 -0.7256 -0.3477  0.3050
   79MOL0     C10565   4.582   1.152   0.754  0.5297  0.1660  0.0002
   79MOL0     O10566   4.460   1.209   0.728 -0.0882  0.6479  0.5469
   79MOL0     C10567   4.346   1.130   0.772  0.1355 -0.1964  0.2479
   79MOL0     C10568   4.214   1.203   0.733  0.7536 -1.2814  0.3712
   79MOL0     C10569   4.198   1.344   0.812 -0.2831  0.3328  0.9509
   79MOL0     C10570   4.056   1.407   0.759  0.0659 -0.1236 -0.4538
   79MOL0     C10571   4.054   1.556   0.801 -0.3368  0.0665 -0.2024
   79MOL0     C10572   3.929   1.636   0.748  0.1017 -0.5009  0.1116
   79MOL0     C10573   3.931   1.785   0.766 -0.5864  0.7438 -0.4514
   79MOL0     C10574   4.031   1.868   0.692  0.0528  0.1080  0.5689
   79MOL0    Cl10575   3.989   1.880   0.525  0.2633 -0.1507  0.0142
   79MOL0     C10576   4.610   1.055   0.855 -0.2622  0.1646  0.3060
   79MOL0     C10577   4.732   0.992   0.862 -0.6460  0.1613 -0.2405
   79MOL0     O10578   4.909   0.774   0.685  0.2593  0.4543 -0.4387
   79MOL0     C10579   5.210   0.882   0.858  0.5380 -0.2968  0.1916
   79MOL0     C10580   5.339   0.844   0.896  0.1251 -0.2050 -0.2341
   79MOL0     N10581   6.186   0.554   0.771  0.2713 -0.5399  0.2493
   79MOL0     N10582   6.285   0.539   0.692 -0.3497 -0.7126 -0.1919
   79MOL0     C10583   7.229   1.351   0.720  0.2525 -0.6493 -0.0659
   79MOL0     C10584   7.334   1.419   0.793 -0.2700 -0.7817 -0.4473
   79MOL0     C10585   7.642   1.509   1.085 -0.2882 -0.0251 -0.3985
   79MOL0     C10586   7.770   1.480   1.031  0.1760  0.1838 -0.1751
   79MOL0     C10587   7.884   1.534   1.090 -0.3475  0.4503  0.4314
   79MOL0     C10588   7.881   1.604   1.214 -0.4043  0.8905  0.2190
   79MOL0     O10589   7.994   1.635   1.273  0.6791  0.1281 -0.5416
   79MOL0     C10590   7.990   1.693   1.412 -0.0507 -0.0721  0.2996
   79MOL0     C10591   8.127   1.713   1.473  0.6934  0.1510 -0.0263
   79MOL0     C10592   8.226   1.769   1.373 -0.1190  0.8546 -0.1125
   79MOL0     C10593   8.339   1.834   1.448  0.3680  1.8809  0.6781
   79MOL0     C10594   8.432   1.742   1.504  0.0631  0.8354 -0.1888
   79MOL0     C10595   8.501   1.664   1.557 -0.1150  0.3426 -0.3211
   79MOL0     C10596   7.758   1.619   1.268 -0.3703  0.4110 -0.0239
   79MOL0     C10597   7.643   1.568   1.206  0.2565 -0.6172 -0.4444
   79MOL0     H10598   7.537   1.148   0.828 -0.5475 -1.1353  0.2224
   79MOL0     H10599   7.377   1.055   0.660  0.0261 -1.0764  1.2569
   79MOL0     H10600   7.120   1.001   0.714 -0.3056  2.2526  1.9363
   79MOL0     H10601   6.985   1.106   0.705 -2.0878  0.3784 -4.0707
   79MOL0     H10602   7.065   0.964   0.468  2.9790  3.2298  1.2933
   79MOL0     H10603   6.950   0.898   0.595 -0.3324  0.4480  0.7633
   79MOL0     H10604   6.818   1.136   0.541 -1.9884  0.3086 -1.7658
   79MOL0     H10605   6.912   1.133   0.396  1.2997 -0.5677  0.0868
   79MOL0     H10606   6.702   1.040   0.341 -1.9362  0.5076  1.1511
   79MOL0     H10607   6.806   0.889   0.373 -1.1879  0.0069  1.2412
   79MOL0     H10608   6.709   0.913   0.610 -0.5565  1.4331  1.0137
   79MOL0     H10609   6.598   1.030   0.548 -1.5635 -1.8480  1.1853
   79MOL0     H10610   6.505   0.869   0.374  0.1392 -2.9617 -0.8058
   79MOL0     H10611   6.624   0.750   0.412  1.5496 -0.5337  1.0876
   79MOL0     H10612   6.533   0.732   0.643 -1.9267  0.9458  2.9174
   79MOL0     H10613   6.419   0.873   0.595 -4.1735 -1.3939 -1.7183
   79MOL0     H10614   6.429   0.590   0.482 -2.1971 -1.5689  4.1489
   79MOL0     H10615   6.325   0.724   0.421 -1.2379  0.7105  0.2711
   79MOL0     H10616   6.139   0.812   0.573  1.8923 -0.8608  0.5175
   79MOL0     H10617   6.004   0.701   0.912 -3.0057  2.1087  1.4457
   79MOL0     H10618   5.983   0.819   0.795 -3.9005 -0.6187 -1.6834
   79MOL0     H10619   5.863   0.539   0.753 -1.2366 -0.6574  0.7000
   79MOL0     H10620   5.834   0.679   0.653  1.8839 -0.4027  0.0296
   79MOL0     H10621   5.750   0.794   0.867  4.3048  0.0140 -0.4560
   79MOL0     H10622   5.757   0.632   0.945 -2.2201 -2.1369 -0.5822
   79MOL0     H10623   5.602   0.540   0.809  2.8070  1.1810  4.0512
   79MOL0     H10624   5.589   0.688   0.709 -0.7259  0.9260  0.8962
   79MOL0     H10625   5.363   0.538   0.755 -1.3363 -0.2737 -0.6511
   79MOL0     H10626   5.023   0.543   0.731 -0.0689  3.8047 -0.0172
   79MOL0     H10627   5.054   0.610   0.573 -1.2467  0.5971  0.2174
   79MOL0     H10628   5.155   0.477   0.640 -0.4729 -0.7362  1.4998
   79MOL0     H10629   4.885   1.150   0.606  1.4842 -1.6057  0.3980
   79MOL0     H10630   4.671   1.250   0.581 -2.1011 -0.6052  0.2907
   79MOL0     H10631   4.341   1.030   0.726 -0.0501  0.6557 -1.6687
   79MOL0     H10632   4.353   1.120   0.881 -0.2207  1.7394  0.4734
   79MOL0     H10633   4.218   1.223   0.626 -0.6058 -2.0033  0.1670
   79MOL0     H10634   4.133   1.137   0.766 -1.1210  0.7588  0.0668
   79MOL0     H10635   4.282   1.405   0.778 -1.2697 -0.3127 -3.3073
   79MOL0     H10636   4.196   1.333   0.921  0.6743 -1.2522  0.8575
   79MOL0     H10637   4.053   1.414   0.650  0.3393  2.1363 -0.3700
   79MOL0     H10638   3.972   1.346   0.790 -1.0556  2.0949  1.1717
   79MOL0     H10639   4.144   1.593   0.752 -0.4014  1.8882  0.9505
   79MOL0     H10640   4.064   1.569   0.909 -0.3033 -0.7370 -0.1012
   79MOL0     H10641   3.919   1.616   0.641 -0.4859  2.3734 -0.4633
   79MOL0     H10642   3.835   1.600   0.791 -0.0762 -0.1276  0.0358
   79MOL0     H10643   3.940   1.814   0.871  3.0862  1.3746 -0.8081
   79MOL0     H10644   3.834   1.832   0.745 -1.5977  0.8975  3.7157
   79MOL0     H10645   4.129   1.819   0.706  0.5498  0.6381 -0.8709
   79MOL0     H10646   4.051   1.960   0.748 -2.3673  1.5394 -0.7941
   79MOL0     H10647   4.529   1.015   0.914 -1.8267 -1.2706 -2.5978
   79MOL0     H10648   4.745   0.919   0.942 -1.8388 -0.5357 -0.6606
   79MOL0     H10649   5.179   0.976   0.903 -0.3810  0.5597 -2.0849
   79MOL0     H10650   5.409   0.909   0.948  0.3808 -0.0888 -0.7148
   79MOL0     H10651   7.140   1.406   0.691  1.3933  2.3341  1.6902
   79MOL0     H10652   7.341   1.523   0.821  2.1326 -0.3528 -2.3202
   79MOL0     H10653   7.788   1.427   0.937 -1.6755 -2.7917  1.0167
   79MOL0     H10654   7.984   1.514   1.053  0.0086 -0.6267  1.9000
   79MOL0     H10655   7.959   1.798   1.407 -0.1862 -0.1444 -0.5389
   79MOL0     H10656   7.934   1.626   1.477  2.2514  0.9991  3.6708
   79MOL0     H10657   8.162   1.622   1.521  2.1912  1.6444  1.8834
   79MOL0     H10658   8.117   1.777   1.562  4.0862 -0.9631  1.3145
   79MOL0     H10659   8.196   1.857   1.315  0.5078  0.4575 -1.0686
   79MOL0     H10660   8.265   1.690   1.309  2.0117 -0.1342  2.2452
   79MOL0     H10661   8.308   1.902   1.528  2.4224 -1.5999  4.8981
   79MOL0     H10662   8.399   1.891   1.377  0.6549  0.1560 -0.5191
   79MOL0     H10663   8.569   1.601   1.611 -0.2953 -0.3742 -0.9095
   79MOL0     H10664   7.745   1.677   1.359 -1.6728  0.6078 -0.3160
   79MOL0     H10665   7.553   1.582   1.264  1.4603  2.9402  0.8384
   80MOL0     O10666   4.651   1.916   7.998 -0.6188 -0.3965 -0.0108
   80MOL0     C10667   4.686   2.015   7.933 -0.6245  0.0913 -0.0179
   80MOL0     O10668   4.610   2.126   7.924  0.0231 -0.1706  0.0958
   80MOL0     C10669   4.480   2.099   7.975  0.1986 -0.5452  0.3886
   80MOL0     C10670   4.448   2.153   8.104  0.6376 -0.3357  0.6412
   80MOL0     C10671   4.314   2.152   8.137 -0.0694 -0.1698  0.1859
   80MOL0     C10672   4.216   2.095   8.049 -0.3729  0.3163  0.2855
   80MOL0     O10673   4.080   2.095   8.072 -0.1226 -0.4209  0.6780
   80MOL0     C10674   4.029   2.157   8.193 -0.0164  0.4614  0.0320
   80MOL0     C10675   3.877   2.153   8.221 -0.0701  0.4782  0.6584
   80MOL0     C10676   3.806   2.229   8.107  0.6628 -0.1407 -0.2554
   80MOL0     C10677   3.652   2.217   8.113 -0.0455 -0.5486  0.3950
   80MOL0     C10678   3.577   2.262   8.244 -0.1046 -0.1262  0.2552
   80MOL0     C10679   3.428   2.247   8.221  0.6758  0.0067 -1.0491
   80MOL0     C10680   3.341   2.246   8.354  0.1078 -0.4136  0.5930
   80MOL0     C10681   3.401   2.332   8.465 -1.1225  0.3155 -0.2409
   80MOL0     N10682   3.319   2.324   8.593 -0.7670 -0.7585 -0.0029
   80MOL0     C10683   3.193   2.370   8.613  0.2189  0.3940 -0.1721
   80MOL0     C10684   3.168   2.345   8.745 -0.7424 -0.9172  0.6252
   80MOL0     C10685   3.047   2.379   8.824  0.3486  0.2263 -0.6811
   80MOL0     C10686   2.935   2.270   8.813  0.4934 -0.7992 -0.6352
   80MOL0     C10687   2.810   2.293   8.907  0.0728  0.0280  0.0932
   80MOL0     C10688   2.704   2.379   8.839 -0.7512  0.3166 -0.6930
   80MOL0     O10689   2.599   2.397   8.940  0.3432 -0.1306 -0.0204
   80MOL0     C10690   2.469   2.414   8.892 -0.1938 -0.0740 -0.3840
   80MOL0     C10691   2.427   2.487   8.781  0.4363 -0.5628 -0.2814
   80MOL0     C10692   2.289   2.499   8.736 -0.4814 -0.2945 -0.3824
   80MOL0     C10693   2.268   2.571   8.606 -0.2600 -0.4996 -1.3905
   80MOL0     C10694   2.190   2.435   8.816  0.1694 -0.1743  0.0393
   80MOL0     C10695   2.047   2.453   8.790 -0.6372  0.1832  1.1748
   80MOL0     O10696   1.995   2.565   8.724 -0.1246  0.6091 -0.1228
   80MOL0     C10697   1.866   2.557   8.681 -0.9723 -0.0521 -0.1763
   80MOL0     C10698   1.820   2.461   8.585 -0.1267  0.2762 -0.0638
   80MOL0     C10699   1.688   2.463   8.532 -0.7469  0.2989  0.5972
   80MOL0     C10700   1.603   2.559   8.581  0.4656 -0.4835  0.5193
   80MOL0     O10701   1.473   2.584   8.537  0.0595 -0.5973 -0.3072
   80MOL0     C10702   1.448   2.544   8.408 -1.3478 -0.1283 -0.3782
   80MOL0     C10703   1.307   2.585   8.356  0.3677 -0.6923  0.1465
   80MOL0     C10704   1.202   2.541   8.454  0.3112  0.4009  0.0120
   80MOL0     C10705   1.068   2.529   8.375  0.4288  0.1400  0.1621
   80MOL0     C10706   0.956   2.478   8.458  0.4214  0.7243  0.0337
   80MOL0     C10707   0.819   2.471   8.382  1.3813  0.3514  1.0164
   80MOL0     C10708   0.713   2.405   8.477 -1.0766 -0.5488  0.4477
   80MOL0     C10709   0.579   2.415   8.414  0.0079  0.5326 -0.4380
   80MOL0    Cl10710   0.553   2.586   8.382 -0.5078 -0.3858 -0.1317
   80MOL0     C10711   1.645   2.651   8.676 -0.8380 -0.6046  0.2945
   80MOL0     C10712   1.778   2.654   8.719  0.3468  0.0256 -0.2000
   80MOL0     O10713   1.976   2.358   8.835  0.3186 -0.6482 -0.2644
   80MOL0     C10714   2.231   2.347   8.920  0.3883 -0.1166 -0.0209
   80MOL0     C10715   2.369   2.340   8.952  0.4155 -0.1655 -0.6982
   80MOL0     N10716   3.285   2.299   8.804  0.7894  0.2727  0.1264
   80MOL0     N10717   3.377   2.289   8.713 -0.4717  0.1852 -0.2289
   80MOL0     C10718   4.254   2.037   7.924 -0.4000 -0.5960  0.2936
   80MOL0     C10719   4.384   2.052   7.880  0.9899  0.1882  0.5105
   80MOL0     C10720   4.800   2.002   7.843  0.2625  0.3645  0.3667
   80MOL0     C10721   4.884   2.119   7.821 -0.7392 -0.1003  0.4831
   80MOL0     C10722   4.998   2.122   7.733 -0.2113 -0.4546  0.1447
   80MOL0     C10723   5.021   2.002   7.659  1.0069  0.1172 -0.4630
   80MOL0     O10724   5.134   1.982   7.576 -0.5494  0.5931 -0.3089
   80MOL0     C10725   5.230   2.078   7.583  0.5708 -0.2952 -0.2719
   80MOL0     C10726   5.352   2.050   7.488  0.8806  0.3031  0.1742
   80MOL0     C10727   5.300   1.998   7.349 -0.6254 -1.1076  0.5145
   80MOL0     C10728   5.375   2.054   7.230  0.0039 -0.8930  0.4012
   80MOL0     C10729   5.511   1.994   7.203 -1.0359  0.6248  0.7766
   80MOL0     C10730   5.622   1.967   7.169 -0.1898 -0.0088  0.0358
   80MOL0     C10731   4.932   1.899   7.672 -0.5912  0.3899 -0.1934
   80MOL0     C10732   4.829   1.891   7.770  0.3235 -0.2949  0.5359
   80MOL0     H10733   4.516   2.189   8.181 -1.8048 -1.3603  3.4845
   80MOL0     H10734   4.289   2.198   8.232 -2.9344  1.6506 -1.3092
   80MOL0     H10735   4.084   2.121   8.280  0.1568  2.3058  0.7174
   80MOL0     H10736   4.058   2.262   8.183  3.5042 -0.2104  1.6462
   80MOL0     H10737   3.828   2.057   8.237  0.9477 -0.0755  0.4754
   80MOL0     H10738   3.860   2.207   8.315  0.3155  2.3260 -0.2863
   80MOL0     H10739   3.836   2.334   8.102  0.2950 -0.0246 -0.0701
   80MOL0     H10740   3.834   2.186   8.010  0.5656 -0.1027 -0.3010
   80MOL0     H10741   3.610   2.287   8.040  2.2159  2.6481  1.8950
   80MOL0     H10742   3.623   2.115   8.087  1.1554 -0.8161  0.0555
   80MOL0     H10743   3.611   2.202   8.328  0.9783 -0.7094 -0.5661
   80MOL0     H10744   3.605   2.365   8.270 -2.2765  0.8400 -0.9305
   80MOL0     H10745   3.398   2.324   8.150  1.4694  0.5797 -0.7900
   80MOL0     H10746   3.407   2.156   8.165  0.5522  0.1136 -1.1765
   80MOL0     H10747   3.241   2.282   8.330 -0.4118 -1.9559  0.3446
   80MOL0     H10748   3.332   2.146   8.397  0.0656 -0.6185  0.1148
   80MOL0     H10749   3.396   2.434   8.426  0.4728 -0.0495 -1.5005
   80MOL0     H10750   3.506   2.310   8.481 -0.8828  2.0338  0.8447
   80MOL0     H10751   3.128   2.425   8.545  2.3367 -0.9864 -3.5549
   80MOL0     H10752   3.070   2.370   8.930 -2.0409  0.9781 -0.0362
   80MOL0     H10753   3.012   2.478   8.794  1.8218  0.6279 -1.1710
   80MOL0     H10754   2.972   2.171   8.839  2.0455 -1.1254 -3.6591
   80MOL0     H10755   2.904   2.267   8.708  1.1042 -0.7261 -0.8208
   80MOL0     H10756   2.857   2.337   8.996  1.1485 -2.9543  1.1228
   80MOL0     H10757   2.770   2.195   8.932  3.4680 -1.0421  2.1176
   80MOL0     H10758   2.661   2.327   8.753 -2.9789  0.5632  0.2136
   80MOL0     H10759   2.749   2.472   8.804  0.5401 -0.7505 -1.9985
   80MOL0     H10760   2.495   2.547   8.722 -1.0722  1.8046  0.2207
   80MOL0     H10761   2.225   2.501   8.534 -3.5380 -0.3341  0.2162
   80MOL0     H10762   2.206   2.660   8.621  2.4964  1.3963 -0.4657
   80MOL0     H10763   2.364   2.612   8.576 -1.0622  1.7061 -1.1446
   80MOL0     H10764   1.885   2.391   8.533 -0.9135 -2.6097  2.4877
   80MOL0     H10765   1.667   2.387   8.457  2.4881 -0.3230  0.1467
   80MOL0     H10766   1.519   2.595   8.343 -0.7149 -0.0872  0.3388
   80MOL0     H10767   1.464   2.439   8.384 -0.1571 -0.1139  0.2984
   80MOL0     H10768   1.309   2.694   8.344  2.5784 -0.6100  0.7616
   80MOL0     H10769   1.286   2.545   8.257 -1.3822 -0.2625  0.3055
   80MOL0     H10770   1.197   2.607   8.541 -2.9599  0.2235  0.0858
   80MOL0     H10771   1.220   2.445   8.503 -0.2658  0.5099  0.4591
   80MOL0     H10772   1.033   2.625   8.333 -0.2354 -0.0215  0.3320
   80MOL0     H10773   1.073   2.462   8.289 -1.7702  0.0871  0.0267
   80MOL0     H10774   0.944   2.550   8.540 -3.2832  1.9644 -1.3613
   80MOL0     H10775   0.984   2.379   8.495  2.8926  1.7614  1.1493
   80MOL0     H10776   0.788   2.571   8.350 -2.4399 -0.3795  1.8952
   80MOL0     H10777   0.837   2.413   8.291  3.2984 -1.4359  2.4280
   80MOL0     H10778   0.712   2.430   8.583 -0.2346 -1.4678  0.6882
   80MOL0     H10779   0.732   2.298   8.470  2.0137  0.0060 -1.8450
   80MOL0     H10780   0.517   2.369   8.492 -0.7265 -2.2605 -2.4931
   80MOL0     H10781   0.574   2.345   8.330  0.8104 -3.3677  2.4555
   80MOL0     H10782   1.579   2.729   8.712  0.1600 -0.3899  1.7614
   80MOL0     H10783   1.806   2.737   8.784 -3.1551  1.6686 -0.5537
   80MOL0     H10784   2.163   2.291   8.984 -1.3395  2.8929  0.9617
   80MOL0     H10785   2.396   2.290   9.045  0.5120  0.9941 -0.0777
   80MOL0     H10786   4.175   1.987   7.867  0.9324 -2.4066 -0.0566
   80MOL0     H10787   4.412   2.032   7.777 -3.5117  1.0190 -1.1082
   80MOL0     H10788   4.854   2.211   7.871  1.9050  0.9200  0.3509
   80MOL0     H10789   5.061   2.210   7.722 -0.4842 -0.4651 -1.7093
   80MOL0     H10790   5.195   2.174   7.545  0.6764 -0.1663 -0.0485
   80MOL0     H10791   5.267   2.088   7.686 -1.2609 -0.6211  0.4581
   80MOL0     H10792   5.421   1.972   7.521 -0.3366 -0.7597  0.2894
   80MOL0     H10793   5.404   2.146   7.475 -1.6203  1.5855 -1.2289
   80MOL0     H10794   5.194   2.023   7.331 -0.3662 -0.0477  0.3908
   80MOL0     H10795   5.309   1.890   7.338 -0.8249 -0.9811 -1.2482
   80MOL0     H10796   5.388   2.161   7.247  1.3785 -0.5529 -2.3161
   80MOL0     H10797   5.313   2.055   7.140 -1.0813 -1.0400  1.1299
   80MOL0     H10798   5.722   1.929   7.161 -0.8646 -1.4916 -2.2212
   80MOL0     H10799   4.938   1.807   7.614 -1.2117  1.4075 -1.9643
   80MOL0     H10800   4.767   1.803   7.784 -2.1179  1.2960  0.2571
   81MOL0     O10801   9.595   6.306   4.005 -0.0421 -0.6182 -0.0330
   81MOL0     C10802   9.658   6.341   3.901 -0.4201  1.1086 -0.2738
   81MOL0     O10803   9.607   6.396   3.791 -0.1609 -0.7115  0.3213
   81MOL0     C10804   9.472   6.438   3.800  0.3934 -0.9644  0.9078
   81MOL0     C10805   9.445   6.573   3.782  0.4761  0.1659  0.3375
   81MOL0     C10806   9.309   6.620   3.789 -0.0656  0.2469  0.2406
   81MOL0     C10807   9.205   6.533   3.821  0.0367  0.1764 -0.1236
   81MOL0     O10808   9.082   6.583   3.833  0.1979  0.4521  0.0086
   81MOL0     C10809   8.974   6.500   3.867  0.8011  0.1720  0.4572
   81MOL0     C10810   8.925   6.422   3.744  0.1830  0.6438  0.4995
   81MOL0     C10811   8.793   6.341   3.777 -0.0884  0.8422 -0.0923
   81MOL0     C10812   8.781   6.226   3.682 -0.6151 -0.6304  0.1194
   81MOL0     C10813   8.651   6.142   3.695  0.9694 -0.0800 -1.2128
   81MOL0     C10814   8.668   6.022   3.606  0.8605  0.0138 -0.1837
   81MOL0     C10815   8.539   5.946   3.590 -0.7713 -0.1502  0.0819
   81MOL0     C10816   8.450   6.007   3.487  0.0574  0.0376 -0.0536
   81MOL0     N10817   8.305   5.964   3.520  0.5877  0.1017  0.2865
   81MOL0     C10818   8.193   6.042   3.509  0.3550  0.5601 -0.4051
   81MOL0     C10819   8.091   5.966   3.566  0.5959  0.0835  0.2111
   81MOL0     C10820   7.958   6.024   3.594 -0.3241 -0.2131  0.2544
   81MOL0     C10821   7.880   5.936   3.697 -0.0462  0.0642 -0.4103
   81MOL0     C10822   7.738   5.985   3.711 -0.6708 -0.4582  0.2170
   81MOL0     C10823   7.631   5.910   3.630  0.3766  0.2749 -0.1275
   81MOL0     O10824   7.508   5.982   3.629  0.7526  0.4747 -0.0898
   81MOL0     C10825   7.394   5.911   3.602  0.5611 -0.6742  0.5997
   81MOL0     C10826   7.375   5.773   3.586 -0.3017  1.5563 -0.3566
   81MOL0     C10827   7.254   5.713   3.552  0.2175  0.4613 -0.1826
   81MOL0     C10828   7.262   5.567   3.534 -0.0656  0.5629  0.1094
   81MOL0     C10829   7.137   5.792   3.539  0.8805 -1.0466 -0.2298
   81MOL0     C10830   6.997   5.738   3.504 -0.6911 -1.1032 -1.1148
   81MOL0     O10831   6.976   5.611   3.536 -0.1502  0.3267  0.1368
   81MOL0     C10832   6.855   5.557   3.537  0.2530  0.3652 -0.4997
   81MOL0     C10833   6.822   5.469   3.642  0.4332 -0.3603 -1.2669
   81MOL0     C10834   6.696   5.421   3.651 -0.0521 -0.4008 -0.2592
   81MOL0     C10835   6.602   5.449   3.558  1.0821 -0.3950  0.8985
   81MOL0     O10836   6.473   5.402   3.574  0.1099 -0.2131 -0.3959
   81MOL0     C10837   6.440   5.293   3.663 -0.2312 -0.0866  0.2939
   81MOL0     C10838   6.416   5.355   3.800  0.3833 -0.1104  0.1865
   81MOL0     C10839   6.306   5.461   3.796  1.0421 -0.2039 -0.1329
   81MOL0     C10840   6.176   5.417   3.874 -0.4947  0.3115  0.0508
   81MOL0     C10841   6.076   5.540   3.878 -0.2393 -0.7574  0.8934
   81MOL0     C10842   5.939   5.505   3.918  0.2332  0.9050 -0.0457
   81MOL0     C10843   5.851   5.615   3.966  0.1278  0.0734 -0.1788
   81MOL0     C10844   5.877   5.698   4.092  0.7760  0.2822 -0.4654
   81MOL0    Cl10845   5.742   5.813   4.102  0.1980  0.0159 -0.3705
   81MOL0     C10846   6.635   5.531   3.450 -0.1740  0.1470  0.1251
   81MOL0     C10847   6.755   5.589   3.444 -0.0643  0.0262 -0.0302
   81MOL0     O10848   6.924   5.821   3.451  0.3152 -0.2593 -0.2460
   81MOL0     C10849   7.143   5.930   3.555  0.1406 -0.6572  1.0830
   81MOL0     C10850   7.276   5.989   3.572 -0.1494  0.2729  0.1446
   81MOL0     N10851   8.140   5.848   3.602 -0.1078 -0.6620  0.4373
   81MOL0     N10852   8.269   5.849   3.580  0.7631  0.0412 -0.6637
   81MOL0     C10853   9.233   6.394   3.843 -0.2820  0.2040  0.5762
   81MOL0     C10854   9.364   6.352   3.832  0.4242 -0.1186 -0.2213
   81MOL0     C10855   9.795   6.295   3.879  0.0328  0.7940 -0.8964
   81MOL0     C10856   9.861   6.230   3.984  0.4512  0.5899 -0.0501
   81MOL0     C10857   9.999   6.192   3.974 -0.4241 -0.9510 -0.5793
   81MOL0     C10858  10.067   6.213   3.860 -0.1628 -0.0994  0.8310
   81MOL0     O10859  10.196   6.166   3.853  0.1101  0.2546 -0.2977
   81MOL0     C10860  10.269   6.172   3.733 -0.0630 -0.6971  0.4115
   81MOL0     C10861  10.410   6.154   3.773 -0.8353 -0.2992 -0.3426
   81MOL0     C10862  10.478   6.027   3.730 -0.0597 -0.4735  0.6218
   81MOL0     C10863  10.626   6.010   3.783  0.1515 -0.0245  0.1232
   81MOL0     C10864  10.713   6.118   3.719  0.8075  0.0011 -0.7246
   81MOL0     C10865  10.777   6.210   3.672  0.4816 -0.4104 -0.2923
   81MOL0     C10866  10.000   6.277   3.752  0.4561  0.7519  0.6870
   81MOL0     C10867   9.867   6.312   3.754  0.8117 -0.3326  0.6565
   81MOL0     H10868   9.520   6.649   3.759 -0.7755  0.9585 -1.3064
   81MOL0     H10869   9.281   6.723   3.771 -1.2804  0.3555  2.4170
   81MOL0     H10870   8.991   6.439   3.956 -0.0682  0.0464  0.5473
   81MOL0     H10871   8.896   6.568   3.902  0.4732 -0.0732  0.2020
   81MOL0     H10872   8.903   6.492   3.663 -2.0525  1.2182  1.5327
   81MOL0     H10873   9.005   6.353   3.714  0.3008  0.9053  0.2036
   81MOL0     H10874   8.813   6.296   3.875 -2.3146 -1.9346 -0.7704
   81MOL0     H10875   8.700   6.399   3.776 -1.3442 -1.0526  0.5154
   81MOL0     H10876   8.783   6.275   3.585  2.1006  0.9157  0.8261
   81MOL0     H10877   8.867   6.158   3.688 -0.1784 -0.0270  1.1594
   81MOL0     H10878   8.645   6.114   3.800 -3.0515 -2.0508 -1.8019
   81MOL0     H10879   8.559   6.200   3.684  0.4631  0.1352  2.6724
   81MOL0     H10880   8.708   6.048   3.507  0.1531 -1.0609 -0.7860
   81MOL0     H10881   8.735   5.953   3.658 -1.0616 -2.4647 -0.7307
   81MOL0     H10882   8.567   5.845   3.560  3.4417  0.6396  0.8358
   81MOL0     H10883   8.490   5.928   3.686 -0.3696 -0.4876  0.2212
   81MOL0     H10884   8.473   5.978   3.384  0.5310  0.2245 -0.0050
   81MOL0     H10885   8.455   6.116   3.496  0.8367 -0.0683  0.9734
   81MOL0     H10886   8.186   6.146   3.479  1.8442  0.3125 -1.7056
   81MOL0     H10887   7.965   6.122   3.642  0.3239  0.8365 -1.8361
   81MOL0     H10888   7.894   6.029   3.505 -1.8103 -2.4287  1.1130
   81MOL0     H10889   7.935   5.937   3.792  2.7960 -0.9169 -1.9384
   81MOL0     H10890   7.869   5.830   3.673  0.5222 -0.2798  0.7600
   81MOL0     H10891   7.732   6.093   3.696  2.2958 -0.4274 -1.5172
   81MOL0     H10892   7.701   5.953   3.809  1.5933 -0.4501  1.1234
   81MOL0     H10893   7.629   5.807   3.665 -0.5598 -0.0029 -0.9714
   81MOL0     H10894   7.671   5.901   3.529  1.5075 -0.6888  0.3813
   81MOL0     H10895   7.452   5.697   3.578 -2.4758 -0.7099 -1.0161
   81MOL0     H10896   7.252   5.521   3.633  3.5179 -1.1311 -0.1616
   81MOL0     H10897   7.191   5.528   3.461 -0.2698 -1.1502  1.1621
   81MOL0     H10898   7.359   5.533   3.498 -0.7276 -0.5801 -0.6446
   81MOL0     H10899   6.899   5.445   3.715  2.6006  0.7005 -3.0838
   81MOL0     H10900   6.684   5.352   3.735  0.2559 -1.4419 -1.0562
   81MOL0     H10901   6.355   5.227   3.644 -0.0969 -0.6410  1.5063
   81MOL0     H10902   6.521   5.219   3.669 -1.6327 -1.5782  2.2177
   81MOL0     H10903   6.391   5.275   3.871  1.0436  2.7732  4.0120
   81MOL0     H10904   6.505   5.401   3.843  2.0368 -0.9575 -2.1546
   81MOL0     H10905   6.283   5.483   3.691  0.3079 -0.2592  0.0140
   81MOL0     H10906   6.355   5.551   3.834  2.6661 -0.8913 -0.5073
   81MOL0     H10907   6.128   5.338   3.816 -2.0530  1.2996 -0.0647
   81MOL0     H10908   6.203   5.377   3.971  0.7173  2.8714  0.8666
   81MOL0     H10909   6.062   5.582   3.778 -1.6731 -0.9170  1.0139
   81MOL0     H10910   6.122   5.616   3.942 -0.2765 -0.4967  0.6104
   81MOL0     H10911   5.900   5.466   3.824  0.5438  0.6453 -0.0687
   81MOL0     H10912   5.951   5.428   3.996  1.0936  2.2197  1.1570
   81MOL0     H10913   5.755   5.564   3.979 -0.2455  0.8066  0.0218
   81MOL0     H10914   5.843   5.686   3.883  0.4283  0.5286  0.1733
   81MOL0     H10915   5.975   5.747   4.083  1.1758  0.0840  2.0369
   81MOL0     H10916   5.883   5.631   4.178  1.7116  0.7331 -0.1663
   81MOL0     H10917   6.545   5.552   3.395 -1.8702 -0.7293  2.3896
   81MOL0     H10918   6.766   5.664   3.366  3.0448  0.6392  0.8568
   81MOL0     H10919   7.056   5.994   3.540 -1.2994 -2.8761 -0.6593
   81MOL0     H10920   7.280   6.095   3.551 -1.6425  0.5637  1.1460
   81MOL0     H10921   9.161   6.316   3.865  0.4168 -1.7850 -3.2516
   81MOL0     H10922   9.394   6.248   3.842 -0.6692 -0.2752  1.8024
   81MOL0     H10923   9.818   6.198   4.078  2.0795 -1.1055  0.1698
   81MOL0     H10924  10.043   6.150   4.064 -0.4821 -1.5279 -0.8198
   81MOL0     H10925  10.251   6.101   3.652  2.9672 -0.1790 -0.8308
   81MOL0     H10926  10.254   6.270   3.686  2.5857 -0.0493  0.7974
   81MOL0     H10927  10.413   6.156   3.883  1.3008  4.0085 -0.2708
   81MOL0     H10928  10.470   6.240   3.741 -1.6247 -0.2812 -1.8776
   81MOL0     H10929  10.478   6.016   3.621 -0.5771 -0.8542  0.6550
   81MOL0     H10930  10.416   5.943   3.763 -4.1092  0.2660 -3.9172
   81MOL0     H10931  10.676   5.918   3.751 -0.7629 -0.5358  0.1360
   81MOL0     H10932  10.617   6.004   3.891 -0.6396 -0.8953  0.0257
   81MOL0     H10933  10.830   6.298   3.642  0.8561 -0.9106 -1.1198
   81MOL0     H10934  10.054   6.289   3.658 -1.1821  0.3873 -0.3534
   81MOL0     H10935   9.819   6.366   3.673  0.9894 -2.2988 -0.8244
   82MOL0     O10936   7.584   0.916   8.740 -0.2077 -0.5962 -0.0758
   82MOL0     C10937   7.670   0.990   8.692 -0.5657  0.9547  0.8644
   82MOL0     O10938   7.644   1.096   8.615 -0.8592 -0.5347 -0.0638
   82MOL0     C10939   7.516   1.126   8.573 -0.2346 -0.6335  0.2531
   82MOL0     C10940   7.430   1.180   8.668  0.7396 -0.8061 -0.0938
   82MOL0     C10941   7.291   1.189   8.643  0.1570 -0.2324 -0.5455
   82MOL0     C10942   7.238   1.141   8.519 -0.8047 -0.1181  0.3501
   82MOL0     O10943   7.109   1.142   8.476 -0.0507 -0.3707 -0.4636
   82MOL0     C10944   7.004   1.216   8.547  0.6180 -0.0253 -0.7795
   82MOL0     C10945   7.024   1.375   8.550 -0.3998 -0.3951 -0.2552
   82MOL0     C10946   6.998   1.433   8.411  0.2942 -0.1607 -0.4738
   82MOL0     C10947   6.860   1.497   8.397 -0.5990  0.1843  0.2678
   82MOL0     C10948   6.807   1.513   8.251  0.1069  0.2278 -1.0913
   82MOL0     C10949   6.672   1.586   8.264 -0.1475  0.2956 -0.2597
   82MOL0     C10950   6.610   1.607   8.124  0.3582  0.0960 -0.1163
   82MOL0     C10951   6.619   1.755   8.085  0.2568 -0.1912  0.6498
   82MOL0     N10952   6.542   1.784   7.969  0.5120 -1.5754  0.3685
   82MOL0     C10953   6.407   1.792   7.978 -0.3471 -0.5126  0.8157
   82MOL0     C10954   6.372   1.829   7.852 -0.5197 -0.7790 -0.3197
   82MOL0     C10955   6.228   1.849   7.796  0.3386  0.0087  0.2873
   82MOL0     C10956   6.189   1.731   7.699 -0.4909  0.3837  0.3608
   82MOL0     C10957   6.095   1.769   7.586  0.7524  0.6548  0.3103
   82MOL0     C10958   5.953   1.783   7.631  0.4253  0.1086  0.5388
   82MOL0     O10959   5.896   1.654   7.646 -0.2167 -0.3588  0.2029
   82MOL0     C10960   5.775   1.647   7.720 -0.1895 -0.5259 -0.4739
   82MOL0     C10961   5.750   1.533   7.800 -0.0327 -0.8029  0.5603
   82MOL0     C10962   5.638   1.521   7.881  0.0952 -1.1062  0.7153
   82MOL0     C10963   5.639   1.388   7.949 -0.2365 -0.0801 -0.0966
   82MOL0     C10964   5.544   1.629   7.881 -0.4104 -0.3798 -0.5717
   82MOL0     C10965   5.426   1.629   7.972 -0.3983 -0.1282 -0.7560
   82MOL0     O10966   5.359   1.742   7.987  0.3339  0.0242  0.5600
   82MOL0     C10967   5.250   1.752   8.075  0.2800 -0.2032  0.1752
   82MOL0     C10968   5.247   1.703   8.212 -0.5051  0.3994  0.6816
   82MOL0     C10969   5.137   1.710   8.298  0.0756  0.6388 -0.3656
   82MOL0     C10970   5.024   1.770   8.253  0.1672 -0.5844  0.1411
   82MOL0     O10971   4.914   1.781   8.335  0.4137 -0.3113 -0.7104
   82MOL0     C10972   4.801   1.867   8.300 -0.7867  0.5007  0.0428
   82MOL0     C10973   4.722   1.913   8.426 -0.8259  0.5231  0.0213
   82MOL0     C10974   4.573   1.917   8.388 -0.3680  0.0332 -0.2730
   82MOL0     C10975   4.488   1.966   8.492  0.0470  0.6240 -0.7651
   82MOL0     C10976   4.339   1.943   8.459  0.0566 -0.6147 -0.3443
   82MOL0     C10977   4.243   2.010   8.567 -0.9731 -0.3382 -0.0740
   82MOL0     C10978   4.100   1.956   8.554  0.1768 -0.1238  0.2684
   82MOL0     C10979   3.999   2.021   8.657  0.3436  0.3653 -0.0126
   82MOL0    Cl10980   4.061   2.001   8.825  0.2546  0.2117  0.0777
   82MOL0     C10981   5.017   1.818   8.117 -0.6760 -0.4692  0.0363
   82MOL0     C10982   5.127   1.815   8.036  0.5427  0.2514 -0.4572
   82MOL0     O10983   5.395   1.527   8.037  0.3881 -0.2319 -0.1111
   82MOL0     C10984   5.568   1.735   7.805  0.3711  0.2470  0.2319
   82MOL0     C10985   5.685   1.744   7.729  0.3317 -0.5023  0.4191
   82MOL0     N10986   6.490   1.853   7.780  0.2763 -0.4198 -0.6107
   82MOL0     N10987   6.592   1.823   7.851 -0.2184  0.0863  0.9173
   82MOL0     C10988   7.328   1.096   8.419 -0.0085 -0.3948  0.2217
   82MOL0     C10989   7.469   1.091   8.443  0.2273 -0.3752 -0.4973
   82MOL0     C10990   7.816   0.951   8.721 -0.6515 -0.4092  0.3915
   82MOL0     C10991   7.923   1.025   8.655  0.1364 -0.2539  0.7698
   82MOL0     C10992   8.051   0.996   8.685 -0.3228 -0.6315 -0.1895
   82MOL0     C10993   8.092   0.900   8.776  0.9267  0.2235 -0.3436
   82MOL0     O10994   8.220   0.876   8.822  0.3066 -0.8402 -0.8323
   82MOL0     C10995   8.312   0.892   8.714  0.0237  0.3631  0.6520
   82MOL0     C10996   8.442   0.883   8.776 -0.6922  0.0575 -0.4356
   82MOL0     C10997   8.556   0.864   8.677 -0.0688  0.1156 -1.0420
   82MOL0     C10998   8.695   0.871   8.738  0.1268 -0.1501 -0.2449
   82MOL0     C10999   8.735   1.004   8.780 -0.2766  0.1318 -0.0497
   82MOL0     C11000   8.779   1.118   8.801 -0.2818  0.7790 -0.4555
   82MOL0     C11001   7.991   0.822   8.831  0.0432  0.4473  0.2923
   82MOL0     C11002   7.850   0.847   8.817 -0.2821 -0.3890  1.3899
   82MOL0     H11003   7.465   1.223   8.762 -1.5798  1.5370 -0.2000
   82MOL0     H11004   7.223   1.238   8.712  0.7805 -0.5327  0.3077
   82MOL0     H11005   6.908   1.195   8.498  0.6729 -0.3882 -0.7324
   82MOL0     H11006   7.005   1.181   8.650  3.5480  0.4200 -0.5648
   82MOL0     H11007   6.958   1.426   8.621  0.3903 -1.1002  1.0316
   82MOL0     H11008   7.130   1.399   8.565 -0.3448 -1.3182  0.9097
   82MOL0     H11009   7.080   1.501   8.386  1.1526 -1.1591 -0.4585
   82MOL0     H11010   7.016   1.350   8.341  1.8088 -0.2530 -0.0081
   82MOL0     H11011   6.799   1.424   8.450  1.4562  0.0785  2.7063
   82MOL0     H11012   6.857   1.593   8.451 -0.2547 -0.1958  0.9782
   82MOL0     H11013   6.875   1.571   8.188  2.9891 -2.6366 -0.9385
   82MOL0     H11014   6.795   1.415   8.203 -2.4185  0.1912 -0.5013
   82MOL0     H11015   6.606   1.531   8.331 -0.1444  1.5543  0.8309
   82MOL0     H11016   6.693   1.687   8.302  0.3542  0.5712 -1.2428
   82MOL0     H11017   6.664   1.540   8.057  1.8773  0.8684  0.2974
   82MOL0     H11018   6.504   1.579   8.116  0.2477  0.5235 -0.1639
   82MOL0     H11019   6.723   1.783   8.066  0.6528 -1.1290  1.3672
   82MOL0     H11020   6.579   1.813   8.169 -2.0676 -0.6303 -0.0806
   82MOL0     H11021   6.343   1.758   8.058 -0.5630 -0.2742  0.7468
   82MOL0     H11022   6.148   1.852   7.871 -0.1560  0.1664 -0.2388
   82MOL0     H11023   6.235   1.949   7.752 -0.5722 -0.2925 -0.5901
   82MOL0     H11024   6.150   1.643   7.751 -0.0252 -1.2917 -1.9471
   82MOL0     H11025   6.286   1.700   7.660  0.8431  0.6183  3.2571
   82MOL0     H11026   6.085   1.688   7.513 -2.4531  0.4218  0.8263
   82MOL0     H11027   6.131   1.859   7.536 -2.0246  2.6572  1.6310
   82MOL0     H11028   5.889   1.843   7.566  1.9721  2.3189  0.9403
   82MOL0     H11029   5.946   1.837   7.726  0.7678 -0.2100  0.7474
   82MOL0     H11030   5.813   1.445   7.800  2.5447  0.9420  1.2394
   82MOL0     H11031   5.579   1.388   8.040  1.5573  1.1991  1.1564
   82MOL0     H11032   5.595   1.315   7.881 -1.5763  0.3603  0.2712
   82MOL0     H11033   5.734   1.343   7.980  0.3129  0.6337 -0.6787
   82MOL0     H11034   5.338   1.655   8.247  0.4451  0.9525 -0.9367
   82MOL0     H11035   5.131   1.679   8.402  2.1391  1.5865  0.0938
   82MOL0     H11036   4.825   1.964   8.256 -1.0185 -0.7769 -3.1456
   82MOL0     H11037   4.738   1.806   8.235  1.4993 -1.4632 -0.4502
   82MOL0     H11038   4.738   1.853   8.516  1.2361 -0.7152 -1.0942
   82MOL0     H11039   4.768   2.010   8.450  0.3361 -0.4235  1.8472
   82MOL0     H11040   4.545   1.821   8.343  1.2243 -2.2773  3.2435
   82MOL0     H11041   4.562   1.984   8.303 -1.4799 -0.9523 -0.9478
   82MOL0     H11042   4.512   1.920   8.588  0.0489  0.3684 -0.8864
   82MOL0     H11043   4.512   2.072   8.499 -2.6835  1.3921 -1.6882
   82MOL0     H11044   4.312   1.837   8.466 -0.9541 -0.3001  5.6181
   82MOL0     H11045   4.321   1.992   8.363  1.5310  2.6370  0.9109
   82MOL0     H11046   4.282   1.981   8.665 -0.6688  0.6713  0.1131
   82MOL0     H11047   4.234   2.118   8.558  0.6030 -0.2804 -1.1970
   82MOL0     H11048   4.102   1.847   8.563  0.7548 -0.3802 -2.1695
   82MOL0     H11049   4.060   1.976   8.454  0.2998 -3.0065 -0.4363
   82MOL0     H11050   3.901   1.975   8.649  0.1503  0.2802  2.1152
   82MOL0     H11051   3.986   2.126   8.631 -2.3917  0.2397  0.5517
   82MOL0     H11052   4.923   1.862   8.084 -1.6678 -1.2834  1.6442
   82MOL0     H11053   5.109   1.856   7.937  3.2876  2.3278 -0.2259
   82MOL0     H11054   5.493   1.813   7.799  1.2724  1.0414 -1.0594
   82MOL0     H11055   5.690   1.837   7.673 -1.4135  0.3001  1.5120
   82MOL0     H11056   7.275   1.075   8.327 -2.8277  0.8552  1.4287
   82MOL0     H11057   7.538   1.065   8.363  1.1505  1.7093 -0.4382
   82MOL0     H11058   7.901   1.103   8.582 -3.0260 -0.3627  1.4673
   82MOL0     H11059   8.124   1.055   8.630 -0.7400 -0.7288 -0.8537
   82MOL0     H11060   8.279   0.822   8.637 -1.3550  3.3485 -1.6867
   82MOL0     H11061   8.297   0.990   8.667 -0.7348 -0.2271 -0.3762
   82MOL0     H11062   8.451   0.807   8.854  4.8761 -0.1346 -0.8444
   82MOL0     H11063   8.466   0.982   8.815 -2.7145  0.6471 -0.5657
   82MOL0     H11064   8.546   0.941   8.600 -1.4573  2.0018  0.9143
   82MOL0     H11065   8.559   0.762   8.637 -0.3739 -1.0542  1.7222
   82MOL0     H11066   8.770   0.850   8.662  1.6262  0.7437  0.9413
   82MOL0     H11067   8.716   0.788   8.806  2.3217 -0.4452 -1.2095
   82MOL0     H11068   8.810   1.220   8.808 -1.8309  1.2193  0.9627
   82MOL0     H11069   8.012   0.736   8.895  0.2398 -0.8014 -1.3866
   82MOL0     H11070   7.769   0.797   8.869 -0.0549 -0.9869  1.1814
   83MOL0     O11071   8.851   2.290  10.547 -0.6988  0.3857  0.1411
   83MOL0     C11072   8.875   2.254  10.658 -0.2876 -0.5449 -0.3062
   83MOL0     O11073   8.977   2.308  10.734  0.2554 -0.1807 -0.2299
   83MOL0     C11074   9.078   2.365  10.656  0.4772  0.5819  0.3583
   83MOL0     C11075   9.167   2.284  10.588 -0.0120 -0.3333  0.6994
   83MOL0     C11076   9.271   2.343  10.502  0.5623  0.3440 -0.6613
   83MOL0     C11077   9.269   2.481  10.491 -0.4164  0.3173  0.1330
   83MOL0     O11078   9.352   2.525  10.387 -0.2751  0.3807 -0.5272
   83MOL0     C11079   9.396   2.663  10.383  0.3076 -1.3940  0.7642
   83MOL0     C11080   9.492   2.685  10.261  0.6419 -0.6525  0.4271
   83MOL0     C11081   9.439   2.620  10.135 -0.2402 -0.2498 -0.1512
   83MOL0     C11082   9.313   2.684  10.088  0.2364 -0.2507  0.0131
   83MOL0     C11083   9.336   2.805   9.991  0.0060 -0.3879  0.4860
   83MOL0     C11084   9.209   2.900   9.993  0.7898 -0.3233  0.1960
   83MOL0     C11085   9.215   3.005   9.884  0.4791  0.2254  0.0196
   83MOL0     C11086   9.098   3.105   9.880  1.2024 -1.1673 -1.6181
   83MOL0     N11087   8.969   3.038   9.869 -0.7058  0.7302 -0.0826
   83MOL0     C11088   8.936   2.942   9.784 -0.6689 -0.5849  0.8394
   83MOL0     C11089   8.809   2.915   9.824  0.2854 -0.4679 -0.0840
   83MOL0     C11090   8.731   2.809   9.750 -0.5774 -1.2088 -0.3227
   83MOL0     C11091   8.580   2.814   9.794 -0.6973 -0.3681 -0.0375
   83MOL0     C11092   8.492   2.719   9.711  0.6283 -0.1332  0.3732
   83MOL0     C11093   8.347   2.760   9.737  0.6214  0.4919  0.7454
   83MOL0     O11094   8.244   2.688   9.659  0.8821 -0.6321 -0.7165
   83MOL0     C11095   8.111   2.711   9.681 -0.0475  0.0748  0.1109
   83MOL0     C11096   8.052   2.785   9.780  0.0582  0.1394 -0.0931
   83MOL0     C11097   7.917   2.783   9.807 -0.0349 -0.2244 -0.7626
   83MOL0     C11098   7.872   2.898   9.905 -0.2137  1.0375 -0.1364
   83MOL0     C11099   7.832   2.712   9.724  1.2061  0.1294  0.2538
   83MOL0     C11100   7.683   2.715   9.743 -0.3312 -0.1418  0.3457
   83MOL0     O11101   7.598   2.673   9.643  0.3443 -0.0005  0.1610
   83MOL0     C11102   7.463   2.636   9.659 -0.2746 -0.1524 -0.0515
   83MOL0     C11103   7.384   2.634   9.542 -1.0318 -0.4232  0.1299
   83MOL0     C11104   7.252   2.600   9.539  0.3617  0.6307  0.1348
   83MOL0     C11105   7.185   2.580   9.663  0.1372 -0.3553 -0.0993
   83MOL0     O11106   7.061   2.543   9.654 -0.2341  0.6988  0.1570
   83MOL0     C11107   7.001   2.489   9.776  0.3188  0.1323  0.0722
   83MOL0     C11108   6.855   2.451   9.740  0.5957 -0.3026  0.0822
   83MOL0     C11109   6.839   2.326   9.642  0.0245 -0.3796 -0.4407
   83MOL0     C11110   6.689   2.294   9.614 -0.0492 -0.3583 -0.5088
   83MOL0     C11111   6.695   2.170   9.527 -0.7445  0.7589  0.1345
   83MOL0     C11112   6.553   2.111   9.525  0.2230 -0.5454  0.1683
   83MOL0     C11113   6.467   2.183   9.423  0.0866  0.7231  0.2325
   83MOL0     C11114   6.319   2.146   9.440 -0.7067  0.3477  0.4640
   83MOL0    Cl11115   6.221   2.271   9.349  0.5765 -0.2336  0.5887
   83MOL0     C11116   7.262   2.585   9.780 -0.4470  0.0776 -0.4915
   83MOL0     C11117   7.394   2.619   9.778 -0.6024  0.2006  0.1348
   83MOL0     O11118   7.651   2.719   9.862 -0.0563 -0.1604  0.1101
   83MOL0     C11119   7.890   2.629   9.625 -0.1020  0.7229 -0.3480
   83MOL0     C11120   8.027   2.639   9.595 -0.0912  0.0467  0.6726
   83MOL0     N11121   8.773   2.988   9.934 -0.0925 -0.0516 -0.5312
   83MOL0     N11122   8.878   3.052   9.968 -0.0660 -0.2973 -0.0182
   83MOL0     C11123   9.193   2.565  10.572  0.0809  0.3219 -0.4639
   83MOL0     C11124   9.103   2.504  10.661  0.1157 -0.0913  0.9066
   83MOL0     C11125   8.776   2.171  10.731 -0.7067 -1.0459  0.3340
   83MOL0     C11126   8.793   2.140  10.870  0.3203 -0.0158  0.2025
   83MOL0     C11127   8.707   2.053  10.932 -0.3479 -0.0266 -0.2945
   83MOL0     C11128   8.605   1.991  10.870  0.0257  0.6300  0.2907
   83MOL0     O11129   8.526   1.914  10.951  0.1233 -0.0166  0.4160
   83MOL0     C11130   8.389   1.902  10.926  0.0946 -0.8912  0.0979
   83MOL0     C11131   8.324   1.832  11.035  0.5630 -0.1270 -0.5890
   83MOL0     C11132   8.170   1.859  11.021 -0.7957  0.0386 -0.2102
   83MOL0     C11133   8.102   1.792  11.136 -0.5695 -0.5545  0.6933
   83MOL0     C11134   7.965   1.839  11.149 -0.1638 -0.5401  0.2889
   83MOL0     C11135   7.847   1.867  11.159  0.1980 -0.3795  0.4734
   83MOL0     C11136   8.585   2.014  10.734  0.7572 -0.8242  0.2064
   83MOL0     C11137   8.667   2.106  10.668  0.1736  0.5939 -0.6663
   83MOL0     H11138   9.159   2.176  10.583 -0.5220 -0.2543 -2.7039
   83MOL0     H11139   9.324   2.280  10.432 -0.3423  0.9754 -1.9459
   83MOL0     H11140   9.314   2.734  10.369  0.8074 -1.3947 -4.4116
   83MOL0     H11141   9.450   2.696  10.471  1.5626 -0.4494 -0.3168
   83MOL0     H11142   9.516   2.790  10.246  1.2815 -1.0295 -1.4650
   83MOL0     H11143   9.585   2.634  10.290 -0.2165 -0.6790  3.5143
   83MOL0     H11144   9.516   2.618  10.057 -0.6505 -3.1021 -0.5876
   83MOL0     H11145   9.415   2.515  10.150  1.4718 -1.1138 -2.8301
   83MOL0     H11146   9.244   2.611  10.044 -1.2605  0.0033  1.7923
   83MOL0     H11147   9.251   2.720  10.171  0.1969 -0.4789  0.0854
   83MOL0     H11148   9.427   2.856  10.024  0.4451 -0.6925 -0.2198
   83MOL0     H11149   9.352   2.763   9.891  0.2935 -2.7460  1.4528
   83MOL0     H11150   9.130   2.830   9.963  2.2132 -2.5013  1.2262
   83MOL0     H11151   9.184   2.944  10.090 -0.4412 -1.9208  0.6548
   83MOL0     H11152   9.309   3.059   9.900  0.3997  0.2082  0.5531
   83MOL0     H11153   9.223   2.964   9.783  2.6251  0.8467 -0.1178
   83MOL0     H11154   9.109   3.179   9.800 -0.2980 -0.4088 -1.1522
   83MOL0     H11155   9.109   3.163   9.972 -0.4627 -2.3497 -0.6154
   83MOL0     H11156   8.990   2.888   9.707 -3.5229 -3.2686  0.5469
   83MOL0     H11157   8.740   2.830   9.643 -0.9954 -0.1728 -0.1745
   83MOL0     H11158   8.768   2.709   9.774  1.7544  0.2073  2.6687
   83MOL0     H11159   8.550   2.918   9.781 -2.2340 -0.9534 -1.4795
   83MOL0     H11160   8.573   2.781   9.898 -2.0127 -1.3712 -0.4090
   83MOL0     H11161   8.491   2.619   9.756 -0.6005 -0.5910 -0.6076
   83MOL0     H11162   8.518   2.709   9.605 -0.2559  0.3280  0.1044
   83MOL0     H11163   8.334   2.865   9.710 -2.1618  0.4440  1.5517
   83MOL0     H11164   8.319   2.761   9.842 -5.2732 -1.4155 -0.3992
   83MOL0     H11165   8.116   2.846   9.843  0.1095 -1.0335  1.0103
   83MOL0     H11166   7.955   2.965   9.927  0.9578 -0.9062  1.6720
   83MOL0     H11167   7.796   2.960   9.856 -0.4843 -0.3582 -1.5562
   83MOL0     H11168   7.832   2.855   9.997  0.0411  1.0520 -0.0184
   83MOL0     H11169   7.441   2.641   9.450 -0.0583 -0.7111  0.7001
   83MOL0     H11170   7.196   2.581   9.448  0.4732 -1.4624  0.4617
   83MOL0     H11171   7.058   2.411   9.828  0.2778  0.8723  1.2548
   83MOL0     H11172   6.985   2.575   9.841 -3.2985 -0.4236  0.0940
   83MOL0     H11173   6.804   2.431   9.835 -0.8191  1.1729 -0.3298
   83MOL0     H11174   6.805   2.537   9.696 -0.8189 -0.4067  1.4106
   83MOL0     H11175   6.886   2.243   9.696  1.2038  0.6377  0.1601
   83MOL0     H11176   6.893   2.337   9.548 -1.6389  2.4232 -1.1947
   83MOL0     H11177   6.643   2.267   9.709 -0.4755 -0.7870 -0.8318
   83MOL0     H11178   6.637   2.378   9.565 -1.6167 -0.4649  0.8750
   83MOL0     H11179   6.771   2.108   9.575  0.8784  2.3000 -0.3396
   83MOL0     H11180   6.718   2.201   9.425 -0.4883  1.1260  0.3045
   83MOL0     H11181   6.564   2.010   9.485  2.3479  0.5278 -2.2640
   83MOL0     H11182   6.511   2.119   9.625  0.8618  1.9216  0.2966
   83MOL0     H11183   6.499   2.157   9.322  0.5173 -2.4801  1.0805
   83MOL0     H11184   6.469   2.289   9.452 -1.6010  1.3199 -1.5924
   83MOL0     H11185   6.308   2.140   9.548  1.8030 -0.0792  0.7706
   83MOL0     H11186   6.284   2.054   9.394 -0.6271  0.7144 -0.3443
   83MOL0     H11187   7.218   2.569   9.878 -0.4282  1.3613 -0.2628
   83MOL0     H11188   7.437   2.605   9.877 -3.5908  0.3226  1.5366
   83MOL0     H11189   7.824   2.572   9.560  0.6396 -0.6039  0.0216
   83MOL0     H11190   8.079   2.580   9.521  2.8702  2.1876  0.8680
   83MOL0     H11191   9.196   2.673  10.559 -2.6298  0.7479  1.5576
   83MOL0     H11192   9.038   2.570  10.717 -0.6375  0.8648 -0.9983
   83MOL0     H11193   8.866   2.197  10.927  2.0690 -1.1768 -0.7965
   83MOL0     H11194   8.732   2.036  11.036  1.6822  1.3176 -0.4931
   83MOL0     H11195   8.354   2.006  10.920 -2.0146 -1.4813  1.0622
   83MOL0     H11196   8.374   1.846  10.833  4.1730 -1.7986 -0.2038
   83MOL0     H11197   8.363   1.885  11.123  0.7178  2.8601 -2.3298
   83MOL0     H11198   8.351   1.725  11.037  0.5669 -0.2310  3.4025
   83MOL0     H11199   8.142   1.831  10.919 -0.3792  0.0277 -0.3217
   83MOL0     H11200   8.153   1.966  11.037  1.0894  0.6877 -2.1090
   83MOL0     H11201   8.153   1.814  11.230  0.5707 -0.6672  0.1190
   83MOL0     H11202   8.123   1.685  11.126  0.2486 -0.6414  2.8266
   83MOL0     H11203   7.747   1.899  11.137  0.4535 -1.1299 -2.0698
   83MOL0     H11204   8.512   1.969  10.668  2.7417  0.3586 -3.0149
   83MOL0     H11205   8.639   2.132  10.566 -0.9518 -0.7630 -0.7343
   84MOL0     O11206   4.915   1.436   0.643  0.1463  0.1526  0.2761
   84MOL0     C11207   5.002   1.514   0.612  0.1031 -0.0235  0.1457
   84MOL0     O11208   4.992   1.643   0.582  0.5498  0.3489 -1.1870
   84MOL0     C11209   4.873   1.712   0.571 -0.1015  0.3882  0.6597
   84MOL0     C11210   4.747   1.682   0.623 -0.2732  0.3248 -0.1018
   84MOL0     C11211   4.629   1.751   0.583 -0.7170  0.5645 -0.3223
   84MOL0     C11212   4.643   1.875   0.516 -0.2039 -1.3258  1.1710
   84MOL0     O11213   4.540   1.960   0.482 -0.1179 -0.0244 -0.1332
   84MOL0     C11214   4.417   1.923   0.544 -0.2303  0.4360 -0.4609
   84MOL0     C11215   4.316   2.028   0.498 -0.3736  0.3230 -0.2912
   84MOL0     C11216   4.334   2.165   0.562  0.6231 -0.8021 -0.0691
   84MOL0     C11217   4.216   2.257   0.522  0.2414 -0.2278 -0.3120
   84MOL0     C11218   4.221   2.306   0.378  0.4972  0.1721  0.1438
   84MOL0     C11219   4.098   2.371   0.342 -0.1855  0.2531 -0.0272
   84MOL0     C11220   4.018   2.265   0.265  0.1572  0.1826 -0.7192
   84MOL0     C11221   3.871   2.309   0.248  0.0180 -0.1846 -0.4412
   84MOL0     N11222   3.798   2.308   0.377  0.3828  0.0455  0.4798
   84MOL0     C11223   3.709   2.211   0.413  0.4342  0.7690 -0.4152
   84MOL0     C11224   3.645   2.263   0.520 -0.9793 -0.6767 -0.6586
   84MOL0     C11225   3.558   2.190   0.618 -0.3171 -0.3420  0.6731
   84MOL0     C11226   3.426   2.135   0.573 -0.6999  0.5485 -0.4604
   84MOL0     C11227   3.367   2.076   0.699  0.5456  0.7744  0.1608
   84MOL0     C11228   3.218   2.051   0.679 -0.4242  0.5299  0.2953
   84MOL0     O11229   3.143   2.173   0.698  0.1297  0.4478  0.6543
   84MOL0     C11230   3.021   2.176   0.623 -0.2402  0.1301 -0.3109
   84MOL0     C11231   2.971   2.299   0.610  0.1825 -0.1546  0.0035
   84MOL0     C11232   2.850   2.327   0.562  0.6078  0.1358  0.0016
   84MOL0     C11233   2.804   2.472   0.561 -0.3569  0.3010  0.1602
   84MOL0     C11234   2.768   2.224   0.516 -0.4207  0.2501 -0.1567
   84MOL0     C11235   2.623   2.237   0.482  0.3424  0.1802  0.0393
   84MOL0     O11236   2.570   2.146   0.395 -0.1383 -0.0353  0.2797
   84MOL0     C11237   2.445   2.165   0.340  0.4196  0.2761 -0.3398
   84MOL0     C11238   2.424   2.190   0.208  0.1788 -0.5926 -0.3922
   84MOL0     C11239   2.293   2.209   0.159 -0.2484 -0.2240  0.5516
   84MOL0     C11240   2.185   2.203   0.248 -0.0031 -1.5932 -0.0282
   84MOL0     O11241   2.053   2.224   0.220  0.2338 -0.7039  0.1295
   84MOL0     C11242   2.018   2.197   0.083  0.1533  0.4940  0.1160
   84MOL0     C11243   1.883   2.128   0.071  0.0116  0.6741  0.0366
   84MOL0     C11244   1.841   2.069  -0.063  0.4881 -0.7938 -1.3297
   84MOL0     C11245   1.852   2.175  -0.169 -0.7065  0.7656  0.1811
   84MOL0     C11246   1.800   2.125  -0.302 -1.0508  0.1755  0.6046
   84MOL0     C11247   1.861   1.999  -0.361 -0.0790  0.1506 -0.5866
   84MOL0     C11248   2.014   1.998  -0.356 -0.6167 -0.3450 -0.2210
   84MOL0     C11249   2.071   1.888  -0.448 -0.3104 -0.5488 -0.5196
   84MOL0    Cl11250   1.990   1.853  -0.610 -0.2477  0.3860  0.8023
   84MOL0     C11251   2.212   2.192   0.382  0.3021 -0.5894  0.2722
   84MOL0     C11252   2.333   2.157   0.424  0.0770 -0.8170 -0.4278
   84MOL0     O11253   2.556   2.309   0.556 -0.6356 -0.5215 -0.7610
   84MOL0     C11254   2.827   2.094   0.517  0.0783 -1.1260  0.5748
   84MOL0     C11255   2.950   2.069   0.575  0.2100  0.1400  0.2636
   84MOL0     N11256   3.692   2.386   0.547 -0.2645 -0.6375 -0.1404
   84MOL0     N11257   3.778   2.418   0.454 -0.2442  0.3103 -0.0652
   84MOL0     C11258   4.773   1.909   0.468  0.3067 -1.0296 -0.2076
   84MOL0     C11259   4.886   1.829   0.492 -0.8586  0.2652  0.1107
   84MOL0     C11260   5.144   1.474   0.607  0.4453  0.3746  0.1845
   84MOL0     C11261   5.183   1.365   0.689 -0.5585 -0.3155 -0.4545
   84MOL0     C11262   5.312   1.330   0.715  0.2736 -0.3473 -0.2157
   84MOL0     C11263   5.413   1.400   0.647 -0.6885  0.3633  0.8256
   84MOL0     O11264   5.541   1.354   0.661 -0.3036  0.0829 -0.2772
   84MOL0     C11265   5.660   1.431   0.631 -1.1004  0.8064 -0.3239
   84MOL0     C11266   5.713   1.383   0.495  0.1082 -0.0894  0.1736
   84MOL0     C11267   5.749   1.232   0.500  1.0009  0.0760  0.0493
   84MOL0     C11268   5.806   1.187   0.365 -0.4811  0.1573 -0.2883
   84MOL0     C11269   5.918   1.272   0.318  0.0032 -0.0668 -0.2863
   84MOL0     C11270   6.011   1.345   0.277  0.9404  0.6563 -0.6136
   84MOL0     C11271   5.381   1.503   0.554 -1.1983  0.0233  0.0725
   84MOL0     C11272   5.245   1.539   0.531 -0.1737  0.6380  0.8118
   84MOL0     H11273   4.740   1.582   0.665  2.9052 -2.5007 -5.2293
   84MOL0     H11274   4.531   1.715   0.611 -0.8056  1.5865  0.7606
   84MOL0     H11275   4.376   1.827   0.511 -2.3699  0.7360  1.1368
   84MOL0     H11276   4.428   1.920   0.653 -0.1819 -0.9660 -0.4834
   84MOL0     H11277   4.336   2.029   0.391 -0.1271  2.1177 -0.2602
   84MOL0     H11278   4.217   1.992   0.528 -0.3512  0.9702  0.6161
   84MOL0     H11279   4.337   2.158   0.672  0.9332  3.2331  0.3257
   84MOL0     H11280   4.427   2.211   0.529  0.1789  0.8352  0.8859
   84MOL0     H11281   4.121   2.205   0.528 -1.3303  2.3917 -0.8276
   84MOL0     H11282   4.209   2.346   0.586 -0.1188  1.7827 -2.9651
   84MOL0     H11283   4.299   2.382   0.394  1.2897 -0.9990  2.2545
   84MOL0     H11284   4.250   2.229   0.307 -0.6833  0.2986 -0.4971
   84MOL0     H11285   4.038   2.415   0.422 -1.0258 -0.5159 -0.2145
   84MOL0     H11286   4.110   2.451   0.268 -2.1828  1.4824  0.9130
   84MOL0     H11287   4.067   2.256   0.168  1.9252 -0.9296  0.2173
   84MOL0     H11288   4.009   2.176   0.328 -2.9951  1.3252  0.6581
   84MOL0     H11289   3.821   2.244   0.176  1.4007  0.7149 -2.3135
   84MOL0     H11290   3.873   2.410   0.206  1.9003  0.6995  1.5842
   84MOL0     H11291   3.683   2.115   0.371 -1.1447  0.4925  1.0784
   84MOL0     H11292   3.612   2.102   0.655 -1.8672 -1.2418  0.8599
   84MOL0     H11293   3.536   2.253   0.704 -1.7288 -2.4493  1.9399
   84MOL0     H11294   3.450   2.059   0.498  1.5397  1.5810 -0.8644
   84MOL0     H11295   3.363   2.214   0.530 -0.1316  2.9149  2.7065
   84MOL0     H11296   3.381   2.134   0.790 -1.3366  0.1302  0.9209
   84MOL0     H11297   3.415   1.982   0.726 -0.8930  0.3604  1.3817
   84MOL0     H11298   3.176   1.970   0.740 -3.5137  0.4927 -1.6370
   84MOL0     H11299   3.207   2.018   0.575  2.0379  0.2812  0.0702
   84MOL0     H11300   3.034   2.379   0.648  0.0345 -0.5211  1.0444
   84MOL0     H11301   2.884   2.540   0.591 -0.7593  0.3226  1.2127
   84MOL0     H11302   2.770   2.499   0.460 -1.1410  2.8001  1.0220
   84MOL0     H11303   2.724   2.491   0.633 -0.2330  2.4836 -0.2041
   84MOL0     H11304   2.517   2.196   0.153  2.5583  2.1574  3.4422
   84MOL0     H11305   2.282   2.227   0.053  1.6233 -0.0199  0.3576
   84MOL0     H11306   2.021   2.294   0.033 -1.5995  0.5094 -0.0247
   84MOL0     H11307   2.085   2.121   0.040 -0.8933  0.9941 -2.5840
   84MOL0     H11308   1.889   2.044   0.140  0.3461  1.3229  0.8115
   84MOL0     H11309   1.813   2.202   0.111 -1.3987 -0.8007  0.4019
   84MOL0     H11310   1.741   2.024  -0.057  0.6158 -1.1555  4.6193
   84MOL0     H11311   1.907   1.982  -0.072  1.8247  0.1815 -1.2962
   84MOL0     H11312   1.797   2.265  -0.141  1.6208  2.3158  0.1325
   84MOL0     H11313   1.955   2.212  -0.179 -0.6779  0.4817 -0.6679
   84MOL0     H11314   1.816   2.208  -0.371  0.3667 -0.1101  0.5622
   84MOL0     H11315   1.693   2.110  -0.284 -1.4825  2.1877 -0.0449
   84MOL0     H11316   1.810   1.909  -0.324  1.4790 -1.2620 -1.7082
   84MOL0     H11317   1.829   1.991  -0.465  0.5864  0.5207 -0.8252
   84MOL0     H11318   2.045   1.985  -0.252  1.3877 -0.0499 -0.7507
   84MOL0     H11319   2.042   2.099  -0.386 -0.1752 -1.1187 -2.5724
   84MOL0     H11320   2.079   1.796  -0.389  1.0470  2.5884  4.9082
   84MOL0     H11321   2.172   1.924  -0.470 -1.3946  2.5073 -0.9549
   84MOL0     H11322   2.134   2.203   0.458  0.9203  0.4213  0.7902
   84MOL0     H11323   2.345   2.140   0.531  0.1478  2.3328  0.1517
   84MOL0     H11324   2.771   2.010   0.475 -0.6886 -0.2397 -0.2405
   84MOL0     H11325   2.981   1.968   0.598 -0.8482  0.2691  2.5331
   84MOL0     H11326   4.772   1.991   0.398  0.3461 -1.4879 -0.7522
   84MOL0     H11327   4.982   1.843   0.443  0.1286 -0.1229  1.8268
   84MOL0     H11328   5.107   1.312   0.744 -1.3142 -0.1691 -1.3402
   84MOL0     H11329   5.327   1.245   0.780  0.7851  0.0055  0.1256
   84MOL0     H11330   5.649   1.539   0.644  1.0194  0.9878  0.3826
   84MOL0     H11331   5.733   1.408   0.710 -0.8837 -1.7373 -1.1676
   84MOL0     H11332   5.792   1.449   0.458 -0.8100  1.0327  0.1534
   84MOL0     H11333   5.631   1.395   0.424 -1.6295  0.6515  2.2018
   84MOL0     H11334   5.665   1.165   0.518  2.1004 -1.6772 -0.9978
   84MOL0     H11335   5.823   1.210   0.578  1.5262  3.2970  0.6049
   84MOL0     H11336   5.726   1.195   0.291 -0.3078  2.3511 -0.3026
   84MOL0     H11337   5.839   1.085   0.381 -0.7537  0.0727 -0.2523
   84MOL0     H11338   6.088   1.417   0.256 -0.3365  2.5637  0.8315
   84MOL0     H11339   5.454   1.564   0.502 -1.0690  0.6893  0.9959
   84MOL0     H11340   5.222   1.617   0.458  1.0270  0.1637 -0.0901
   85MOL0     O11341   2.128   1.759   3.224  0.1886  0.3073 -0.2578
   85MOL0     C11342   2.247   1.802   3.215  0.6917 -0.2539 -0.4929
   85MOL0     O11343   2.288   1.932   3.189 -0.3924 -0.5966 -0.2986
   85MOL0     C11344   2.189   2.032   3.186 -0.1923 -0.5495  0.2123
   85MOL0     C11345   2.157   2.098   3.062 -1.0290  0.7104  0.2308
   85MOL0     C11346   2.051   2.182   3.054  0.3730 -0.0588 -0.0528
   85MOL0     C11347   1.960   2.205   3.158  0.0285  1.2081 -0.5069
   85MOL0     O11348   1.846   2.276   3.123 -0.5546 -0.0735  0.4689
   85MOL0     C11349   1.726   2.264   3.193 -0.7071 -0.1519 -0.5029
   85MOL0     C11350   1.617   2.339   3.114  0.6001  0.1604  0.5333
   85MOL0     C11351   1.481   2.353   3.189 -0.2804  0.5034 -0.5225
   85MOL0     C11352   1.378   2.406   3.092 -0.2662 -0.2545  0.0691
   85MOL0     C11353   1.241   2.402   3.152  0.2359  0.3010 -0.2784
   85MOL0     C11354   1.129   2.397   3.046 -0.8993  0.7479 -0.3448
   85MOL0     C11355   0.992   2.402   3.108  0.7707 -0.1248  0.7319
   85MOL0     C11356   0.876   2.348   3.021  0.4674  0.4093 -0.7092
   85MOL0     N11357   0.844   2.435   2.909 -0.5200  0.2026  0.2205
   85MOL0     C11358   0.776   2.554   2.903  0.4919  0.1227  0.0071
   85MOL0     C11359   0.768   2.583   2.769  1.0218  0.9993 -0.7830
   85MOL0     C11360   0.710   2.702   2.711  0.3912  0.3068 -0.1634
   85MOL0     C11361   0.591   2.660   2.623  0.0191 -0.9202 -0.3383
   85MOL0     C11362   0.480   2.600   2.709 -0.6589 -0.3900  0.4719
   85MOL0     C11363   0.343   2.609   2.637 -0.8887 -0.0845 -0.1578
   85MOL0     O11364   0.323   2.733   2.574  0.3981  0.2493  0.0421
   85MOL0     C11365   0.215   2.752   2.489  0.0120 -0.4583  0.8500
   85MOL0     C11366   0.231   2.848   2.390 -0.4493  0.1630  0.0006
   85MOL0     C11367   0.141   2.866   2.290 -0.6416 -0.8653  0.9449
   85MOL0     C11368   0.172   2.970   2.182 -0.7370 -0.0951  0.3618
   85MOL0     C11369   0.017   2.789   2.287 -0.3773 -0.2456  0.2905
   85MOL0     C11370  -0.085   2.798   2.179  0.1316 -0.6922 -0.7476
   85MOL0     O11371  -0.151   2.680   2.160  1.1712  0.6656  0.8629
   85MOL0     C11372  -0.250   2.679   2.061  0.2885  0.1802 -0.1659
   85MOL0     C11373  -0.219   2.685   1.929  0.4584  0.2005 -0.6779
   85MOL0     C11374  -0.320   2.657   1.830 -0.4231 -0.2557  0.6416
   85MOL0     C11375  -0.453   2.624   1.868 -0.8473 -0.8498 -0.2138
   85MOL0     O11376  -0.552   2.593   1.785  0.1066  0.3829  0.4700
   85MOL0     C11377  -0.534   2.634   1.650  0.1905  0.7357 -1.2900
   85MOL0     C11378  -0.670   2.613   1.590  0.3442 -0.0701 -0.3245
   85MOL0     C11379  -0.685   2.681   1.453 -0.5383  0.1217  0.6825
   85MOL0     C11380  -0.823   2.640   1.388 -0.0460 -0.2091 -0.4893
   85MOL0     C11381  -0.822   2.660   1.232  0.0294 -0.1253 -0.3405
   85MOL0     C11382  -0.868   2.805   1.206 -0.4342  0.5601 -0.0323
   85MOL0     C11383  -0.892   2.831   1.055  0.7827  0.1431  0.0948
   85MOL0     C11384  -0.919   2.973   1.025  0.4002 -0.0673 -0.2561
   85MOL0    Cl11385  -0.776   3.074   1.056  0.1924 -0.0746 -0.1960
   85MOL0     C11386  -0.473   2.602   2.002  0.9807 -0.1811  0.4091
   85MOL0     C11387  -0.380   2.635   2.103 -0.4086  0.3358  0.2666
   85MOL0     O11388  -0.104   2.899   2.114  0.2870  0.1361 -0.2135
   85MOL0     C11389   0.002   2.697   2.390 -0.1317 -0.3754  0.0146
   85MOL0     C11390   0.098   2.673   2.481  0.4015 -0.3376  0.0106
   85MOL0     N11391   0.848   2.492   2.699  0.0757  0.4731 -0.2709
   85MOL0     N11392   0.888   2.404   2.784 -0.4128 -0.4994 -0.1185
   85MOL0     C11393   1.983   2.141   3.283 -0.3292  0.7988  0.2557
   85MOL0     C11394   2.102   2.060   3.294  0.2512  1.1860 -0.5906
   85MOL0     C11395   2.361   1.719   3.249  0.1555  0.0464  0.5407
   85MOL0     C11396   2.494   1.767   3.287 -0.1283  0.1228  0.1502
   85MOL0     C11397   2.597   1.690   3.325  1.3021 -0.7815  0.4200
   85MOL0     C11398   2.572   1.554   3.330  0.0391  0.0358  0.3082
   85MOL0     O11399   2.676   1.459   3.358  0.8653 -0.1730 -0.5892
   85MOL0     C11400   2.797   1.507   3.424 -0.5733 -0.8198 -0.3075
   85MOL0     C11401   2.783   1.563   3.564  0.0480 -0.3362 -0.4877
   85MOL0     C11402   2.917   1.579   3.641  0.2813 -0.1634 -0.2125
   85MOL0     C11403   2.892   1.643   3.777 -0.1017 -0.1597  0.4105
   85MOL0     C11404   3.008   1.691   3.839  0.4408 -0.4488  0.3244
   85MOL0     C11405   3.094   1.736   3.905 -0.7714 -0.4270  0.1354
   85MOL0     C11406   2.443   1.501   3.300  0.7881 -0.6266  0.2832
   85MOL0     C11407   2.336   1.582   3.259 -0.2200 -0.0552 -0.5343
   85MOL0     H11408   2.230   2.078   2.984  3.2248  2.9612  3.2387
   85MOL0     H11409   2.023   2.214   2.954 -1.0625  0.1661  0.3988
   85MOL0     H11410   1.694   2.161   3.216 -0.5716  0.2782  1.9598
   85MOL0     H11411   1.757   2.302   3.291 -1.1846 -0.5436 -0.1920
   85MOL0     H11412   1.656   2.437   3.086 -0.7967  0.2196 -1.3917
   85MOL0     H11413   1.585   2.283   3.026 -2.5410  2.4049  0.0919
   85MOL0     H11414   1.448   2.253   3.218  2.0228 -0.3265 -0.5724
   85MOL0     H11415   1.497   2.412   3.280 -0.3544 -0.7233  0.3048
   85MOL0     H11416   1.400   2.511   3.071 -0.6325  0.1038  1.3622
   85MOL0     H11417   1.389   2.358   2.994  2.0751 -0.3034  0.3119
   85MOL0     H11418   1.232   2.313   3.215  3.1793 -0.5496 -0.9001
   85MOL0     H11419   1.240   2.493   3.213  0.8073  1.1947 -1.5618
   85MOL0     H11420   1.140   2.473   2.967 -2.1291  0.7559 -0.5230
   85MOL0     H11421   1.136   2.304   2.989  1.6370 -0.1659  1.3203
   85MOL0     H11422   0.988   2.347   3.202 -3.3144  1.3989  1.6606
   85MOL0     H11423   0.973   2.509   3.123 -0.8867 -0.0297 -1.5149
   85MOL0     H11424   0.787   2.329   3.082  0.2844 -3.4598 -1.9091
   85MOL0     H11425   0.900   2.249   2.983  1.1584 -0.4806  1.8262
   85MOL0     H11426   0.717   2.601   2.981 -0.4750 -3.0979  1.3464
   85MOL0     H11427   0.692   2.776   2.790  0.1191 -0.1202  0.1854
   85MOL0     H11428   0.783   2.741   2.640 -0.0555  0.5449 -0.4934
   85MOL0     H11429   0.616   2.581   2.552  0.2357  0.6132 -2.0448
   85MOL0     H11430   0.549   2.739   2.560 -1.5700 -3.0549 -2.0846
   85MOL0     H11431   0.477   2.661   2.800 -0.4079  2.3176 -1.2011
   85MOL0     H11432   0.499   2.497   2.740  1.9018 -1.5947 -4.2047
   85MOL0     H11433   0.262   2.581   2.706 -0.6309 -0.6540 -0.0847
   85MOL0     H11434   0.358   2.533   2.560 -3.6247 -2.2348  1.2375
   85MOL0     H11435   0.321   2.907   2.387  0.2409 -0.5376  3.2532
   85MOL0     H11436   0.278   2.997   2.186 -1.0192  1.0860  0.2538
   85MOL0     H11437   0.156   2.925   2.084  0.2265 -1.8092  0.9576
   85MOL0     H11438   0.103   3.055   2.183  0.0495  0.5775 -0.7174
   85MOL0     H11439  -0.115   2.707   1.911  0.7379 -0.8963 -0.4740
   85MOL0     H11440  -0.281   2.657   1.729  1.0702 -0.6646  1.1994
   85MOL0     H11441  -0.504   2.739   1.646  0.6198  0.6487 -0.5451
   85MOL0     H11442  -0.454   2.589   1.590  1.8879  0.8582  0.7817
   85MOL0     H11443  -0.686   2.505   1.585  1.4009 -0.5492  3.4300
   85MOL0     H11444  -0.745   2.653   1.658 -1.1186 -0.0545 -1.8946
   85MOL0     H11445  -0.602   2.648   1.390  0.1098  2.0462  0.4652
   85MOL0     H11446  -0.676   2.790   1.457 -2.5857  0.3295  0.7289
   85MOL0     H11447  -0.834   2.533   1.407  3.6612 -1.3949 -3.7593
   85MOL0     H11448  -0.906   2.686   1.443 -1.1412 -1.8767 -0.6659
   85MOL0     H11449  -0.886   2.581   1.192 -1.0085 -0.5116  1.8690
   85MOL0     H11450  -0.719   2.648   1.197  0.0510  0.0074 -0.3231
   85MOL0     H11451  -0.955   2.826   1.270 -1.8691 -1.4719 -1.1962
   85MOL0     H11452  -0.789   2.868   1.246 -1.5656  1.1806  1.3353
   85MOL0     H11453  -0.983   2.782   1.018  0.0800  1.5309 -0.0940
   85MOL0     H11454  -0.807   2.791   0.999  0.8074 -0.2177  0.3873
   85MOL0     H11455  -0.993   3.021   1.090  1.1435  1.6294 -0.6012
   85MOL0     H11456  -0.961   2.986   0.925 -0.9702  3.6475  0.6328
   85MOL0     H11457  -0.577   2.578   2.024  0.1759  2.2642 -0.3663
   85MOL0     H11458  -0.404   2.614   2.207 -0.3772  0.6888  0.3451
   85MOL0     H11459  -0.086   2.633   2.389  0.2082 -0.9733 -2.9370
   85MOL0     H11460   0.076   2.595   2.554  0.1510 -0.1497  0.1391
   85MOL0     H11461   1.920   2.162   3.368 -1.7109  1.9873 -1.0316
   85MOL0     H11462   2.120   2.004   3.385 -4.1989 -1.4243 -1.0355
   85MOL0     H11463   2.521   1.871   3.266 -2.5577  1.0086  1.0557
   85MOL0     H11464   2.688   1.746   3.346  1.3592 -0.9082  0.5082
   85MOL0     H11465   2.872   1.428   3.410 -0.1988 -0.0410 -3.3187
   85MOL0     H11466   2.839   1.590   3.368  0.2802 -0.5123  0.7656
   85MOL0     H11467   2.723   1.489   3.617  1.5878 -0.4596  1.2007
   85MOL0     H11468   2.723   1.655   3.568 -0.3046 -0.5969  0.4761
   85MOL0     H11469   2.992   1.637   3.588  0.4058 -0.6501 -0.5797
   85MOL0     H11470   2.966   1.482   3.653  0.5030 -0.4198 -2.7227
   85MOL0     H11471   2.841   1.565   3.834 -1.3754  0.0893 -0.3212
   85MOL0     H11472   2.815   1.721   3.781 -0.3379 -0.2817 -1.0457
   85MOL0     H11473   3.182   1.764   3.961  0.0575 -0.6538 -1.0142
   85MOL0     H11474   2.432   1.394   3.314 -2.3160 -0.3315  0.9045
   85MOL0     H11475   2.237   1.545   3.234 -0.4501 -0.4194  0.8433
   86MOL0     O11476  10.913  10.093   8.712  0.7895 -0.2675  0.1332
   86MOL0     C11477  10.982  10.044   8.626  0.4503 -0.0147  0.5316
   86MOL0     O11478  10.932  10.004   8.507 -0.2179 -0.4783  0.3860
   86MOL0     C11479  10.811  10.040   8.467 -0.1611 -0.0108  0.9667
   86MOL0     C11480  10.798  10.063   8.327  0.0186  0.5858 -0.2007
   86MOL0     C11481  10.673  10.077   8.271 -0.5502 -0.4435 -0.4552
   86MOL0     C11482  10.564  10.108   8.346  0.6897 -0.2113 -0.7942
   86MOL0     O11483  10.460  10.155   8.267  0.4955 -0.2541  0.3441
   86MOL0     C11484  10.339  10.172   8.333  0.1807 -0.0201 -0.3742
   86MOL0     C11485  10.239  10.245   8.244  0.5965  0.1986  0.9820
   86MOL0     C11486  10.183  10.145   8.150  0.7684  0.0866  0.3390
   86MOL0     C11487  10.088  10.212   8.043 -0.2624 -0.1571 -0.5639
   86MOL0     C11488  10.127  10.175   7.895 -0.0044  1.0764 -0.4177
   86MOL0     C11489  10.029  10.230   7.795 -0.7218 -0.6109 -0.4640
   86MOL0     C11490  10.027  10.151   7.667 -0.2752  0.3764 -0.3213
   86MOL0     C11491   9.955  10.223   7.550  0.1907  0.0408  0.1294
   86MOL0     N11492   9.814  10.179   7.533 -0.0950  0.7091  0.5238
   86MOL0     C11493   9.777  10.066   7.463 -0.4059  0.5054 -0.0283
   86MOL0     C11494   9.642  10.074   7.447 -0.8188 -0.4472  0.0540
   86MOL0     C11495   9.569   9.966   7.380  0.3062  0.2464  0.0082
   86MOL0     C11496   9.567   9.839   7.462 -0.1237  0.9176 -0.3801
   86MOL0     C11497   9.455   9.748   7.428  0.3700 -0.3787 -0.0933
   86MOL0     C11498   9.445   9.620   7.518 -0.4650 -0.0070  0.2229
   86MOL0     O11499   9.351   9.532   7.467  0.6244  0.4820 -1.0300
   86MOL0     C11500   9.215   9.564   7.477  0.0900  0.4123  0.7595
   86MOL0     C11501   9.130   9.502   7.391  0.9824 -1.0644  0.9758
   86MOL0     C11502   8.991   9.502   7.393  0.7485 -0.0139 -0.4602
   86MOL0     C11503   8.909   9.433   7.285 -0.3646  0.7960  0.8503
   86MOL0     C11504   8.928   9.585   7.502  0.3698  0.2079  0.2891
   86MOL0     C11505   8.777   9.602   7.518 -0.0298  0.8444  1.0980
   86MOL0     O11506   8.693   9.569   7.409  0.2091  0.2355  0.5563
   86MOL0     C11507   8.562   9.571   7.442 -0.1206 -0.1178 -0.3990
   86MOL0     C11508   8.496   9.695   7.478 -0.2740 -0.4734 -0.9202
   86MOL0     C11509   8.363   9.696   7.507  0.7982 -0.2128 -0.3871
   86MOL0     C11510   8.278   9.578   7.495  0.2455  1.0144 -0.3237
   86MOL0     O11511   8.141   9.585   7.527  0.0966  0.0127 -0.3222
   86MOL0     C11512   8.078   9.710   7.570  0.1550 -0.0788  0.6676
   86MOL0     C11513   7.945   9.674   7.631 -0.3378 -0.2312  0.4415
   86MOL0     C11514   7.846   9.646   7.513 -0.6611  0.0677 -0.2050
   86MOL0     C11515   7.705   9.616   7.565 -0.3319 -0.2675  0.7382
   86MOL0     C11516   7.586   9.601   7.461 -0.4945 -0.1856 -0.1683
   86MOL0     C11517   7.622   9.518   7.338  0.0241  0.2499  0.1575
   86MOL0     C11518   7.500   9.461   7.268 -0.3209 -0.9438  0.8003
   86MOL0     C11519   7.546   9.411   7.130  0.8569 -0.1897  0.1009
   86MOL0    Cl11520   7.684   9.292   7.126 -0.0347 -0.3256 -0.5091
   86MOL0     C11521   8.346   9.460   7.468 -0.2490  0.4185 -0.0732
   86MOL0     C11522   8.486   9.454   7.443  0.1928 -1.2790 -0.0473
   86MOL0     O11523   8.748   9.650   7.626 -0.3359 -0.5819 -0.4752
   86MOL0     C11524   9.013   9.654   7.587 -0.2886 -0.6421  0.0520
   86MOL0     C11525   9.156   9.643   7.583 -0.4810  0.2135 -0.0078
   86MOL0     N11526   9.603  10.200   7.493  0.4104  1.2081  0.3372
   86MOL0     N11527   9.700  10.255   7.550 -0.8981 -0.6614 -0.4522
   86MOL0     C11528  10.569  10.081   8.484 -0.1277 -0.6442 -0.5876
   86MOL0     C11529  10.695  10.045   8.549  0.0017 -0.0219 -0.6156
   86MOL0     C11530  11.131  10.026   8.645  0.2123  0.9907 -0.0219
   86MOL0     C11531  11.220   9.998   8.538  0.9422  0.0816 -0.9909
   86MOL0     C11532  11.355   9.981   8.559 -0.7992 -0.0816 -0.0451
   86MOL0     C11533  11.410   9.990   8.692 -0.5522 -0.4866  0.4050
   86MOL0     O11534  11.550   9.993   8.722  0.4772 -0.1949 -0.3056
   86MOL0     C11535  11.646   9.997   8.627  0.6530  1.1242 -0.3154
   86MOL0     C11536  11.784  10.022   8.699 -0.0229 -0.0524  0.4056
   86MOL0     C11537  11.833   9.905   8.785  0.3136 -0.0860 -0.1426
   86MOL0     C11538  11.941   9.960   8.879  0.9280 -0.0632 -0.0511
   86MOL0     C11539  12.017   9.847   8.938  0.1103 -0.0086 -0.3123
   86MOL0     C11540  12.064   9.742   8.977 -0.6516 -0.0374 -0.0045
   86MOL0     C11541  11.324  10.006   8.798 -0.0279 -0.3461 -0.2556
   86MOL0     C11542  11.191  10.030   8.774  0.7100 -0.0944  0.2167
   86MOL0     H11543  10.880  10.039   8.260 -0.4323 -2.4506  0.2218
   86MOL0     H11544  10.675  10.086   8.163  2.0152 -1.3108 -0.5521
   86MOL0     H11545  10.297  10.077   8.367  1.3053 -0.4993 -0.2985
   86MOL0     H11546  10.348  10.239   8.420  2.4387 -0.6567 -0.0624
   86MOL0     H11547  10.156  10.283   8.304 -0.2941 -0.7634  0.3928
   86MOL0     H11548  10.302  10.324   8.201  1.0191  0.0145  1.2526
   86MOL0     H11549  10.264  10.086   8.107 -0.4479 -1.4690  0.0624
   86MOL0     H11550  10.127  10.075   8.214 -0.1306 -0.4670 -0.9993
   86MOL0     H11551   9.986  10.180   8.066  0.6386 -2.9494 -0.1218
   86MOL0     H11552  10.075  10.320   8.056 -1.7693 -0.3724 -0.0321
   86MOL0     H11553  10.226  10.219   7.876  1.4129 -1.7088 -0.0151
   86MOL0     H11554  10.138  10.067   7.882  2.0627  1.3136 -1.1523
   86MOL0     H11555   9.928  10.225   7.837 -0.1782  2.0829  1.3612
   86MOL0     H11556  10.060  10.331   7.770  1.3230 -1.0209  0.2438
   86MOL0     H11557  10.131  10.140   7.637 -1.1417 -2.1855 -2.8607
   86MOL0     H11558   9.983  10.051   7.675 -1.0167  0.5774 -1.4797
   86MOL0     H11559  10.010  10.215   7.456 -0.1959  1.6713 -0.2711
   86MOL0     H11560   9.956  10.331   7.564 -2.2995  0.5897 -2.7106
   86MOL0     H11561   9.839   9.984   7.429 -0.5286 -0.1284  1.2086
   86MOL0     H11562   9.465  10.000   7.373 -0.3526 -1.6100  0.3718
   86MOL0     H11563   9.605   9.950   7.278 -0.6946 -3.2032  0.0914
   86MOL0     H11564   9.557   9.874   7.565 -0.4889 -0.3252  0.0278
   86MOL0     H11565   9.659   9.781   7.453 -0.5537 -0.4482  2.6587
   86MOL0     H11566   9.479   9.716   7.326  1.0568  0.5305 -0.2342
   86MOL0     H11567   9.365   9.810   7.431 -0.8600 -2.0852  2.9855
   86MOL0     H11568   9.417   9.648   7.620 -1.7619 -0.3714 -0.0259
   86MOL0     H11569   9.541   9.566   7.520 -0.1083  0.2253 -3.5339
   86MOL0     H11570   9.169   9.442   7.309 -0.7595 -2.2057  0.9165
   86MOL0     H11571   8.844   9.358   7.331 -0.9881  1.2472  0.7043
   86MOL0     H11572   8.849   9.501   7.226 -1.9535 -0.9089  0.4087
   86MOL0     H11573   8.970   9.381   7.210 -2.2712  2.0321 -1.6751
   86MOL0     H11574   8.561   9.781   7.480 -0.4510 -0.3436 -0.7386
   86MOL0     H11575   8.309   9.789   7.519 -2.0006 -1.5524 -1.4258
   86MOL0     H11576   8.137   9.766   7.643  0.1657  0.3832  0.3038
   86MOL0     H11577   8.070   9.763   7.475  0.6864 -0.2333  0.5280
   86MOL0     H11578   7.957   9.582   7.688  1.2595  0.0854  0.6436
   86MOL0     H11579   7.905   9.744   7.705  0.3900 -1.1942  1.7960
   86MOL0     H11580   7.883   9.560   7.458 -0.3933  0.9294 -1.4198
   86MOL0     H11581   7.841   9.726   7.439  0.4563 -0.9747 -1.4353
   86MOL0     H11582   7.708   9.526   7.627  0.5948 -0.5425  0.3074
   86MOL0     H11583   7.677   9.696   7.634 -2.1517  1.0982 -1.4604
   86MOL0     H11584   7.556   9.701   7.430  1.3182  0.7860  1.0197
   86MOL0     H11585   7.502   9.548   7.505  0.4777  0.1677  2.2760
   86MOL0     H11586   7.657   9.601   7.277  0.4040  0.2445  0.3668
   86MOL0     H11587   7.696   9.437   7.342 -0.5429 -0.5640 -3.1038
   86MOL0     H11588   7.429   9.541   7.247  1.9656  1.1324  0.5975
   86MOL0     H11589   7.451   9.380   7.324 -0.3882  0.5694  3.0645
   86MOL0     H11590   7.579   9.498   7.073  1.6901 -1.6771 -1.8149
   86MOL0     H11591   7.455   9.371   7.085 -2.4663  4.3727  2.0294
   86MOL0     H11592   8.294   9.364   7.463 -0.0767  0.3517 -0.8802
   86MOL0     H11593   8.541   9.361   7.435  0.5341 -1.1967  1.1960
   86MOL0     H11594   8.975   9.716   7.668 -0.5998 -0.4077 -0.2672
   86MOL0     H11595   9.219   9.702   7.649  3.0290 -1.2838 -1.7315
   86MOL0     H11596  10.484  10.100   8.548 -0.5386  2.3657 -1.8542
   86MOL0     H11597  10.704  10.038   8.657 -0.2985  0.1215 -0.5821
   86MOL0     H11598  11.190   9.991   8.433 -1.3508 -1.6028 -0.3135
   86MOL0     H11599  11.419   9.957   8.475  1.7623 -0.4722  1.8800
   86MOL0     H11600  11.663   9.913   8.559  1.5905  0.8448  0.2381
   86MOL0     H11601  11.630  10.090   8.573 -0.2452  1.7480  0.9712
   86MOL0     H11602  11.778  10.113   8.760  1.3935  2.1673 -2.4817
   86MOL0     H11603  11.861  10.046   8.624  0.2296  0.2523  0.7557
   86MOL0     H11604  11.869   9.817   8.731  2.3875  0.4731  0.2268
   86MOL0     H11605  11.754   9.881   8.857 -0.3550  2.1127 -0.0592
   86MOL0     H11606  11.900  10.024   8.957 -0.6515 -1.2368  0.1321
   86MOL0     H11607  12.017  10.019   8.827  1.5179 -0.9977 -0.2906
   86MOL0     H11608  12.111   9.648   8.997  0.4992  1.0025  2.5323
   86MOL0     H11609  11.357   9.998   8.901  1.4207  0.1789 -0.6482
   86MOL0     H11610  11.135  10.061   8.861 -0.9430 -1.8356 -0.1582
   87MOL0     O11611  10.397   8.929   4.584  0.4989 -0.4422  0.3795
   87MOL0     C11612  10.419   8.810   4.566  0.0802  0.8832  0.2327
   87MOL0     O11613  10.385   8.710   4.658  0.0939  0.1328 -0.0530
   87MOL0     C11614  10.329   8.764   4.772  0.3290  0.7642  0.2634
   87MOL0     C11615  10.213   8.840   4.772 -0.5780  0.0372  0.3141
   87MOL0     C11616  10.165   8.898   4.887 -0.3471 -0.2305 -0.1674
   87MOL0     C11617  10.220   8.866   5.009  0.2308  0.2406  0.0433
   87MOL0     O11618  10.160   8.936   5.111 -0.4047 -0.0977  0.6852
   87MOL0     C11619  10.116   8.867   5.219 -0.2393  0.1114  0.6567
   87MOL0     C11620  10.062   8.962   5.323  0.4785  1.0118 -0.1283
   87MOL0     C11621   9.924   9.031   5.289  1.0808 -0.1388  0.5590
   87MOL0     C11622   9.801   8.936   5.289 -0.0862 -0.5626  0.4261
   87MOL0     C11623   9.669   9.013   5.252  0.4318  0.7503 -0.0482
   87MOL0     C11624   9.560   8.899   5.236  0.3051 -0.4279 -0.6057
   87MOL0     C11625   9.444   8.936   5.132 -0.5039  0.0425 -0.0937
   87MOL0     C11626   9.369   9.077   5.144 -0.1860  0.2254 -0.3122
   87MOL0     N11627   9.292   9.080   5.268  0.4234  0.0952  0.0258
   87MOL0     C11628   9.183   9.005   5.303  0.2727  0.3543  0.4512
   87MOL0     C11629   9.155   9.026   5.437 -0.5845 -0.1640 -0.7401
   87MOL0     C11630   9.046   8.984   5.530 -0.1049  0.0677 -0.0079
   87MOL0     C11631   8.909   8.994   5.467 -0.3988 -0.2480  0.4216
   87MOL0     C11632   8.806   8.954   5.572 -0.0280 -0.5267  0.7631
   87MOL0     C11633   8.662   8.980   5.527 -0.6240  0.6072  0.4744
   87MOL0     O11634   8.582   8.889   5.594  0.8597 -0.4315  0.7200
   87MOL0     C11635   8.448   8.882   5.566  0.7513 -0.1156 -0.0668
   87MOL0     C11636   8.382   8.790   5.644 -0.0057 -0.2605 -0.0383
   87MOL0     C11637   8.244   8.771   5.642  0.8785 -0.7871 -0.0473
   87MOL0     C11638   8.178   8.664   5.726  0.1151  0.0994 -0.3596
   87MOL0     C11639   8.162   8.854   5.549 -0.8806 -0.7047 -0.0901
   87MOL0     C11640   8.015   8.831   5.517  0.1824  0.3800 -0.1007
   87MOL0     O11641   7.924   8.842   5.617  0.2895  0.8073 -0.3320
   87MOL0     C11642   7.804   8.792   5.595  0.7882 -0.7767  0.4319
   87MOL0     C11643   7.693   8.881   5.592  0.0599  0.8834 -0.2345
   87MOL0     C11644   7.567   8.819   5.586  0.5907 -0.4513  0.6491
   87MOL0     C11645   7.546   8.679   5.587 -0.2304  0.3004  0.4254
   87MOL0     O11646   7.420   8.613   5.600 -0.8458 -0.2821 -0.3970
   87MOL0     C11647   7.307   8.697   5.585 -1.1024  0.1788 -1.6578
   87MOL0     C11648   7.183   8.623   5.622  0.5465  0.1312  0.2268
   87MOL0     C11649   7.060   8.720   5.615  0.1415  0.7912 -0.2528
   87MOL0     C11650   6.944   8.641   5.677 -0.1305 -0.6287  0.9516
   87MOL0     C11651   6.832   8.730   5.700 -0.6202 -0.1399 -0.4831
   87MOL0     C11652   6.710   8.632   5.729 -0.2242 -0.3548  0.0231
   87MOL0     C11653   6.612   8.724   5.782 -0.5280  0.2489  0.4696
   87MOL0     C11654   6.462   8.671   5.788 -0.3751 -0.2504  0.2692
   87MOL0    Cl11655   6.462   8.523   5.886  0.1508 -0.1271  0.0854
   87MOL0     C11656   7.660   8.602   5.587 -0.1815 -0.2681 -0.2641
   87MOL0     C11657   7.789   8.653   5.609 -0.5323  0.1958 -0.2963
   87MOL0     O11658   7.994   8.809   5.398  0.1999  0.4705  0.1889
   87MOL0     C11659   8.234   8.953   5.473  1.0062  0.3759 -0.1787
   87MOL0     C11660   8.375   8.964   5.482  0.8549 -0.6329 -0.6107
   87MOL0     N11661   9.258   9.109   5.477  0.4548 -0.1575 -0.8406
   87MOL0     N11662   9.332   9.147   5.380 -1.0871 -0.7722 -0.0165
   87MOL0     C11663  10.333   8.780   5.013  0.0284 -0.1347 -0.0800
   87MOL0     C11664  10.384   8.727   4.894 -0.0312 -0.1803 -0.1978
   87MOL0     C11665  10.465   8.758   4.429  0.0564  0.2468 -0.8536
   87MOL0     C11666  10.519   8.847   4.329  0.9451  0.1182 -0.1939
   87MOL0     C11667  10.572   8.795   4.214 -0.9206 -0.2113  0.8563
   87MOL0     C11668  10.594   8.654   4.201 -0.5033 -1.0233  0.1437
   87MOL0     O11669  10.652   8.584   4.096 -0.1997  0.1830 -0.0150
   87MOL0     C11670  10.695   8.646   3.978 -0.0913 -0.4933  0.9338
   87MOL0     C11671  10.572   8.647   3.886  0.5977  1.0574  0.4538
   87MOL0     C11672  10.600   8.707   3.746 -0.0916 -0.3155  0.3529
   87MOL0     C11673  10.677   8.616   3.648  0.4068  0.7128 -0.1578
   87MOL0     C11674  10.751   8.699   3.553  0.4017 -0.1172 -0.0364
   87MOL0     C11675  10.810   8.767   3.469  0.5559  0.3093  0.7619
   87MOL0     C11676  10.530   8.571   4.296  0.5452  0.1482  0.9266
   87MOL0     C11677  10.469   8.626   4.406  0.2194 -0.0033  1.3122
   87MOL0     H11678  10.164   8.852   4.676  1.3153 -1.2656 -0.8783
   87MOL0     H11679  10.079   8.963   4.875  0.5033  0.5034 -3.3277
   87MOL0     H11680  10.034   8.804   5.184 -1.2039  1.9635 -0.5605
   87MOL0     H11681  10.200   8.808   5.257 -0.2383 -0.5636 -0.3581
   87MOL0     H11682  10.039   8.898   5.409 -1.8735  0.6837 -0.9177
   87MOL0     H11683  10.125   9.050   5.338  1.6863  0.1354  0.0583
   87MOL0     H11684   9.900   9.119   5.350 -0.4882  1.4128 -2.0826
   87MOL0     H11685   9.933   9.061   5.184  1.4432  0.9095  0.8748
   87MOL0     H11686   9.820   8.858   5.215  3.2108 -0.6459  1.2249
   87MOL0     H11687   9.782   8.881   5.382  1.1304 -0.2542  0.8691
   87MOL0     H11688   9.620   9.079   5.325 -1.6441 -2.3931  1.6081
   87MOL0     H11689   9.677   9.058   5.152  1.0046 -1.8384 -1.2346
   87MOL0     H11690   9.607   8.808   5.199  1.0329 -0.5500  0.5645
   87MOL0     H11691   9.516   8.884   5.335 -1.4405  0.4477 -1.1948
   87MOL0     H11692   9.495   8.926   5.036 -0.5880  1.0524 -0.2531
   87MOL0     H11693   9.365   8.862   5.143 -1.4214  0.8462 -1.0819
   87MOL0     H11694   9.297   9.082   5.062  0.8774 -0.9770 -1.3733
   87MOL0     H11695   9.434   9.165   5.146 -2.2823  1.9143 -1.3750
   87MOL0     H11696   9.116   8.958   5.231  1.1080  1.3171 -1.0088
   87MOL0     H11697   9.062   8.883   5.569  0.9980  1.0756  2.2948
   87MOL0     H11698   9.045   9.055   5.613 -0.5308 -1.6646  1.5291
   87MOL0     H11699   8.903   8.941   5.372 -3.7401  4.3260 -2.3022
   87MOL0     H11700   8.894   9.099   5.440 -0.4550  0.6587  3.5704
   87MOL0     H11701   8.809   9.007   5.668 -2.3416 -0.9495  1.1291
   87MOL0     H11702   8.818   8.849   5.601 -0.0021 -0.4329  1.1012
   87MOL0     H11703   8.664   8.957   5.420  2.8172  0.2205  0.4947
   87MOL0     H11704   8.640   9.081   5.561  1.9219  1.9201 -1.4084
   87MOL0     H11705   8.451   8.725   5.696  1.0552 -0.1045 -1.1869
   87MOL0     H11706   8.161   8.575   5.665 -0.2993 -0.2521  0.2513
   87MOL0     H11707   8.243   8.640   5.811 -0.9260  0.6430  0.6336
   87MOL0     H11708   8.084   8.704   5.766  0.0028  2.7048 -2.9206
   87MOL0     H11709   7.696   8.989   5.604  0.3732  0.6174  3.2926
   87MOL0     H11710   7.485   8.889   5.585  1.1979  0.2702  0.5201
   87MOL0     H11711   7.318   8.787   5.647 -1.3009  0.3187 -1.8230
   87MOL0     H11712   7.301   8.725   5.480 -4.3621  0.3710 -1.5283
   87MOL0     H11713   7.164   8.542   5.552 -0.1910  1.3205 -1.0005
   87MOL0     H11714   7.201   8.579   5.721  1.8972 -1.5776 -0.7316
   87MOL0     H11715   7.038   8.753   5.513 -1.3500  2.6032  0.5918
   87MOL0     H11716   7.067   8.802   5.687 -5.9937  0.3843  1.3613
   87MOL0     H11717   6.911   8.568   5.603  0.2537  1.1375 -1.0641
   87MOL0     H11718   6.984   8.588   5.764 -0.3849 -1.0576  0.8080
   87MOL0     H11719   6.810   8.807   5.624  0.9615  0.5329 -0.2969
   87MOL0     H11720   6.844   8.770   5.801 -1.0593  0.7580 -0.7728
   87MOL0     H11721   6.677   8.591   5.633 -2.5668  1.3203  0.0291
   87MOL0     H11722   6.736   8.552   5.799  0.5229 -0.6176 -0.5376
   87MOL0     H11723   6.608   8.807   5.710  0.9815  2.4334  2.7312
   87MOL0     H11724   6.646   8.766   5.877 -0.1835 -2.0253  1.3895
   87MOL0     H11725   6.432   8.650   5.685  0.9307  0.1520 -0.2151
   87MOL0     H11726   6.399   8.742   5.843 -0.9370 -2.1240  2.1301
   87MOL0     H11727   7.657   8.495   5.573  1.7094 -0.0837 -2.7782
   87MOL0     H11728   7.873   8.584   5.598 -1.7936 -1.2661 -1.1108
   87MOL0     H11729   8.176   9.008   5.400 -2.6712 -1.6613  0.9421
   87MOL0     H11730   8.420   9.045   5.425 -0.7188  0.7974  0.0768
   87MOL0     H11731  10.389   8.771   5.105 -1.5390  0.7079  1.0086
   87MOL0     H11732  10.470   8.664   4.915  0.7121  1.7720  3.5529
   87MOL0     H11733  10.526   8.953   4.351  0.7667  0.1698 -0.3843
   87MOL0     H11734  10.616   8.857   4.136 -1.2538 -0.0483  0.7951
   87MOL0     H11735  10.744   8.743   3.991 -0.2798  0.0853 -1.9259
   87MOL0     H11736  10.772   8.584   3.932  0.7031 -1.1472  3.0603
   87MOL0     H11737  10.501   8.712   3.938  1.3337  2.0491  0.2467
   87MOL0     H11738  10.535   8.545   3.878 -2.9287  2.1829  0.8833
   87MOL0     H11739  10.644   8.807   3.751 -3.2605  1.2550 -0.7652
   87MOL0     H11740  10.506   8.734   3.697 -0.1154 -1.2538 -0.1450
   87MOL0     H11741  10.612   8.545   3.595 -1.2457  1.3916  0.8874
   87MOL0     H11742  10.750   8.559   3.707  1.1974  1.0034 -0.8248
   87MOL0     H11743  10.865   8.809   3.387  0.8340 -0.4432  0.5567
   87MOL0     H11744  10.531   8.463   4.300  1.5864  0.1048 -0.0864
   87MOL0     H11745  10.424   8.558   4.478  0.9911 -0.4317  1.4062
   88MOL0     O11746   3.839  10.594   9.039  0.0949 -0.6186  0.0198
   88MOL0     C11747   3.854  10.672   9.135  0.2537 -0.0863 -0.4075
   88MOL0     O11748   3.771  10.773   9.166  0.0805  0.2905  0.1028
   88MOL0     C11749   3.655  10.777   9.090 -0.3199 -0.7275  0.8580
   88MOL0     C11750   3.548  10.695   9.132  0.1686  0.2051 -0.1505
   88MOL0     C11751   3.437  10.695   9.052  0.6870  0.0665  0.0553
   88MOL0     C11752   3.425  10.777   8.936  0.0694 -1.0938  0.0220
   88MOL0     O11753   3.311  10.764   8.865  0.0499 -0.2753  0.0500
   88MOL0     C11754   3.276  10.877   8.774  0.5862  0.6380 -1.1939
   88MOL0     C11755   3.127  10.850   8.740  0.7063 -0.2157 -0.6491
   88MOL0     C11756   3.109  10.729   8.641 -0.2548  0.1721  0.1526
   88MOL0     C11757   3.074  10.786   8.504  0.3130  0.1220  0.2656
   88MOL0     C11758   3.062  10.676   8.394 -0.4536 -0.6440  0.1414
   88MOL0     C11759   2.960  10.567   8.424 -0.4165 -0.0782  0.5011
   88MOL0     C11760   2.933  10.479   8.308 -0.9887 -0.3527 -0.0243
   88MOL0     C11761   2.818  10.381   8.335  0.3010  0.8274 -0.2723
   88MOL0     N11762   2.684  10.431   8.319  0.1380  0.5440  0.0482
   88MOL0     C11763   2.589  10.423   8.423 -0.1732 -0.2782  0.0860
   88MOL0     C11764   2.490  10.509   8.388 -0.3387  0.0418 -0.4324
   88MOL0     C11765   2.373  10.545   8.476  0.4804  0.3856 -1.4674
   88MOL0     C11766   2.284  10.420   8.493 -0.2900  0.6350 -0.4187
   88MOL0     C11767   2.152  10.435   8.567 -0.3202 -0.7221  0.2440
   88MOL0     C11768   2.037  10.493   8.483  0.0161  0.1419  0.5946
   88MOL0     O11769   2.077  10.615   8.410 -0.0608 -0.1021 -0.0301
   88MOL0     C11770   1.979  10.705   8.383  0.2518 -0.9665 -0.4389
   88MOL0     C11771   2.003  10.819   8.318  0.3060 -0.0628  0.6724
   88MOL0     C11772   1.908  10.918   8.274  0.4407 -0.2619 -0.1413
   88MOL0     C11773   1.960  11.043   8.207  0.3810  0.4987  0.1869
   88MOL0     C11774   1.765  10.898   8.304 -0.3064 -0.1979 -0.5562
   88MOL0     C11775   1.662  10.993   8.278  0.7461 -0.2053 -0.8559
   88MOL0     O11776   1.546  10.968   8.346  0.1913 -0.0798  0.1061
   88MOL0     C11777   1.433  11.024   8.299  0.4306  0.4068 -0.4367
   88MOL0     C11778   1.346  10.943   8.221 -0.7994 -0.0323  0.4515
   88MOL0     C11779   1.221  10.988   8.179  0.1109 -0.0964  0.0113
   88MOL0     C11780   1.174  11.118   8.217 -0.9840 -0.0824 -0.0424
   88MOL0     O11781   1.046  11.146   8.178  0.3548 -0.0058 -0.3594
   88MOL0     C11782   0.963  11.237   8.261  0.0472  0.0931 -0.2840
   88MOL0     C11783   0.849  11.296   8.175 -0.0552  0.4724 -0.7881
   88MOL0     C11784   0.760  11.392   8.261  1.0920  0.2122 -0.7480
   88MOL0     C11785   0.842  11.505   8.336 -0.0751  0.1182 -1.1496
   88MOL0     C11786   0.902  11.612   8.243  0.4481 -0.3722 -0.6419
   88MOL0     C11787   1.007  11.698   8.326  0.6762  0.0252  0.5699
   88MOL0     C11788   1.142  11.635   8.351  0.8216  0.4946 -0.2318
   88MOL0     C11789   1.229  11.605   8.224  0.5151 -0.2820  0.3600
   88MOL0    Cl11790   1.393  11.552   8.269  0.3587 -0.2803  0.0871
   88MOL0     C11791   1.259  11.200   8.303 -0.4728  0.2332 -0.1825
   88MOL0     C11792   1.383  11.147   8.341 -0.3850  0.1401 -0.0337
   88MOL0     O11793   1.671  11.075   8.191  0.4264 -0.0684  0.2596
   88MOL0     C11794   1.738  10.787   8.387  0.1173  0.0294 -0.9162
   88MOL0     C11795   1.839  10.689   8.413 -0.6336 -0.2060  0.4031
   88MOL0     N11796   2.515  10.542   8.260  1.1934  0.8693 -0.1064
   88MOL0     N11797   2.630  10.502   8.217 -0.4888 -0.3821  0.1180
   88MOL0     C11798   3.526  10.872   8.906  0.9401  0.2258  0.5686
   88MOL0     C11799   3.643  10.864   8.980 -0.7212  0.0756 -0.2780
   88MOL0     C11800   3.982  10.651   9.222 -0.0647 -0.7444  0.4571
   88MOL0     C11801   4.021  10.735   9.329  0.0047 -1.0083 -0.5730
   88MOL0     C11802   4.134  10.702   9.407  0.1164 -0.5721 -0.1753
   88MOL0     C11803   4.212  10.589   9.372 -0.2333 -0.8506  0.5826
   88MOL0     O11804   4.329  10.553   9.439 -0.0286 -0.2974  0.5144
   88MOL0     C11805   4.369  10.637   9.545  0.2660 -0.1502  0.1166
   88MOL0     C11806   4.490  10.572   9.618 -0.3438 -0.8737  0.8709
   88MOL0     C11807   4.587  10.519   9.518  0.1988 -0.4659 -0.0482
   88MOL0     C11808   4.726  10.547   9.584  0.4127  0.2570 -0.0437
   88MOL0     C11809   4.853  10.494   9.518  0.4709  0.3965 -0.3377
   88MOL0     C11810   4.948  10.450   9.461 -0.1321  0.1225 -0.4215
   88MOL0     C11811   4.174  10.512   9.265 -0.1531 -0.6450  1.0940
   88MOL0     C11812   4.066  10.541   9.185 -0.2840 -0.2471  0.4177
   88MOL0     H11813   3.562  10.641   9.225  1.8068  0.8409  0.0006
   88MOL0     H11814   3.356  10.629   9.083 -1.2026  2.5611  0.7877
   88MOL0     H11815   3.281  10.974   8.824  1.6669  1.1049 -2.1698
   88MOL0     H11816   3.340  10.885   8.686  2.9625 -0.6357  0.3253
   88MOL0     H11817   3.079  10.821   8.834  1.8153 -2.9162 -0.8205
   88MOL0     H11818   3.083  10.946   8.711  0.7461  1.3185  3.6983
   88MOL0     H11819   3.202  10.676   8.618  0.4045  1.9170 -1.5651
   88MOL0     H11820   3.031  10.656   8.663  1.2525 -1.9478 -1.0720
   88MOL0     H11821   2.977  10.837   8.511 -0.1059 -0.3082 -1.7254
   88MOL0     H11822   3.154  10.853   8.470  1.6638 -0.5823  1.9260
   88MOL0     H11823   3.028  10.719   8.299 -3.8571 -0.2817  1.3779
   88MOL0     H11824   3.161  10.632   8.379  0.7213  1.7711  0.3021
   88MOL0     H11825   2.990  10.505   8.509  0.1810  0.0422  0.3851
   88MOL0     H11826   2.863  10.612   8.447  0.5340  2.0457  0.6364
   88MOL0     H11827   2.895  10.541   8.226  0.6511 -0.6145 -1.0290
   88MOL0     H11828   3.020  10.418   8.285  0.8185  0.8705  3.0065
   88MOL0     H11829   2.824  10.338   8.435  0.8781 -1.1870 -1.1132
   88MOL0     H11830   2.836  10.304   8.259 -1.3291  0.8655 -0.7367
   88MOL0     H11831   2.604  10.382   8.522  3.6086 -0.0621 -0.2567
   88MOL0     H11832   2.406  10.571   8.577 -2.3824  0.2412 -0.3986
   88MOL0     H11833   2.308  10.624   8.436  0.5399  0.9532 -0.4863
   88MOL0     H11834   2.346  10.352   8.553 -0.0281  0.3632 -0.9821
   88MOL0     H11835   2.270  10.369   8.397 -1.7591  0.9524 -0.3941
   88MOL0     H11836   2.170  10.497   8.655 -2.1285 -0.0063  0.1456
   88MOL0     H11837   2.116  10.341   8.610  3.0338 -1.6653  1.3076
   88MOL0     H11838   1.959  10.507   8.558 -0.2091 -1.9751  0.8216
   88MOL0     H11839   2.002  10.421   8.408 -0.1901  2.0975 -1.2760
   88MOL0     H11840   2.109  10.838   8.302  0.0050  1.8831  0.7172
   88MOL0     H11841   1.902  11.067   8.117 -0.0260 -2.1057 -0.3281
   88MOL0     H11842   1.953  11.119   8.285 -1.0799  1.1214 -0.5135
   88MOL0     H11843   2.063  11.027   8.171 -0.3095  1.8948 -2.8147
   88MOL0     H11844   1.385  10.850   8.182 -0.8078  0.1577 -0.0110
   88MOL0     H11845   1.156  10.926   8.118 -1.7936  0.0926  1.7454
   88MOL0     H11846   0.922  11.188   8.350  0.5253  0.3525  0.0807
   88MOL0     H11847   1.022  11.326   8.285 -0.8445  0.6868 -0.2508
   88MOL0     H11848   0.900  11.355   8.099 -1.2892  2.7224  0.0516
   88MOL0     H11849   0.786  11.214   8.139 -0.4119  0.0708  0.6782
   88MOL0     H11850   0.699  11.332   8.329 -1.1326  3.1002 -0.0333
   88MOL0     H11851   0.685  11.440   8.197 -0.0672 -1.1509 -0.4652
   88MOL0     H11852   0.765  11.555   8.396 -1.2974 -0.6822 -2.0377
   88MOL0     H11853   0.920  11.474   8.407 -2.5604 -0.8428  1.3091
   88MOL0     H11854   0.820  11.678   8.212  0.3689  0.1262  0.5686
   88MOL0     H11855   0.950  11.575   8.152  2.7553 -0.1751  0.4205
   88MOL0     H11856   1.024  11.791   8.272  2.8371 -2.3575 -3.3492
   88MOL0     H11857   0.956  11.723   8.420  0.0979  1.5922 -0.1256
   88MOL0     H11858   1.139  11.544   8.411 -2.8221 -0.9782 -2.3154
   88MOL0     H11859   1.203  11.703   8.411  1.0386 -1.5730  2.0162
   88MOL0     H11860   1.235  11.701   8.173 -2.1469 -0.4671 -0.4570
   88MOL0     H11861   1.175  11.537   8.157 -1.5113  0.6053  1.0214
   88MOL0     H11862   1.227  11.295   8.346 -0.3455  0.4045 -0.4661
   88MOL0     H11863   1.442  11.203   8.413 -2.2921  0.3554  1.4465
   88MOL0     H11864   1.643  10.771   8.437  1.2546 -0.2893  1.2662
   88MOL0     H11865   1.797  10.601   8.459 -1.9563  0.4767  0.5440
   88MOL0     H11866   3.521  10.942   8.823 -2.1646  0.5235  0.9067
   88MOL0     H11867   3.723  10.932   8.955  1.8552 -2.5463  0.2691
   88MOL0     H11868   3.971  10.831   9.337  0.8209 -0.6291  0.1655
   88MOL0     H11869   4.170  10.767   9.486  3.9326 -1.2038 -1.2254
   88MOL0     H11870   4.387  10.737   9.504 -2.1613  0.1217 -0.4316
   88MOL0     H11871   4.287  10.630   9.617  0.9183  0.0711  0.8959
   88MOL0     H11872   4.447  10.489   9.675 -2.6450 -0.3531 -0.0100
   88MOL0     H11873   4.533  10.656   9.674 -0.1485 -0.1762 -0.3098
   88MOL0     H11874   4.572  10.571   9.423 -0.9825  0.6097  0.6948
   88MOL0     H11875   4.574  10.410   9.518 -1.3012 -0.4068  3.2085
   88MOL0     H11876   4.732  10.505   9.684  0.3795 -0.8715 -0.4997
   88MOL0     H11877   4.722  10.653   9.610 -0.2266 -0.4144  2.8797
   88MOL0     H11878   5.036  10.401   9.424 -1.5325 -2.0654 -1.0809
   88MOL0     H11879   4.231  10.422   9.244  0.5663 -0.4382  2.1294
   88MOL0     H11880   4.042  10.474   9.104 -0.3933  1.7697 -1.3160
   89MOL0     O11881   4.237   3.751   4.531 -0.1314 -0.2846 -0.2325
   89MOL0     C11882   4.320   3.662   4.560  0.0016  0.0450  0.3233
   89MOL0     O11883   4.295   3.527   4.570 -0.5461  0.3916 -0.1731
   89MOL0     C11884   4.174   3.475   4.534 -0.5962  0.2763 -0.1662
   89MOL0     C11885   4.175   3.343   4.496 -0.7220  0.2288  0.7078
   89MOL0     C11886   4.059   3.274   4.449  0.2559  0.0141  0.4992
   89MOL0     C11887   3.936   3.340   4.451 -0.4324 -0.1506  0.0770
   89MOL0     O11888   3.826   3.264   4.411 -0.1152 -0.3663 -0.1433
   89MOL0     C11889   3.774   3.303   4.282  0.2485  0.3243 -0.1174
   89MOL0     C11890   3.625   3.269   4.255  0.2391  0.0079  0.2690
   89MOL0     C11891   3.532   3.355   4.338  0.3900  0.3995  0.9277
   89MOL0     C11892   3.388   3.314   4.302  0.1511 -0.5677 -0.1127
   89MOL0     C11893   3.296   3.418   4.376 -0.4010 -0.4764 -0.0408
   89MOL0     C11894   3.149   3.380   4.359 -0.0545 -0.0690 -0.0854
   89MOL0     C11895   3.066   3.469   4.450  0.2418 -0.6593 -0.5015
   89MOL0     C11896   2.916   3.466   4.435  0.8005  0.3066 -0.9284
   89MOL0     N11897   2.856   3.551   4.543  0.6071  1.0942  0.1579
   89MOL0     C11898   2.833   3.688   4.556 -0.2224  0.3012 -0.2087
   89MOL0     C11899   2.754   3.710   4.666  0.4419  0.1784  0.2689
   89MOL0     C11900   2.700   3.845   4.709  0.0682 -1.2458 -0.3954
   89MOL0     C11901   2.602   3.903   4.604 -0.3372 -0.3569 -0.7751
   89MOL0     C11902   2.490   3.814   4.551  1.1150 -0.4015  0.7774
   89MOL0     C11903   2.409   3.751   4.665  0.2519  0.3125  0.6486
   89MOL0     O11904   2.341   3.860   4.728  0.7262  0.2463  0.7413
   89MOL0     C11905   2.207   3.844   4.760 -0.6017  0.3363  0.4565
   89MOL0     C11906   2.175   3.835   4.895 -0.5548 -0.3352  0.0305
   89MOL0     C11907   2.042   3.820   4.937 -0.4725 -0.9126  1.0262
   89MOL0     C11908   2.033   3.824   5.084  0.9665  0.6380 -0.3618
   89MOL0     C11909   1.934   3.798   4.848 -0.3899 -0.1629 -0.2332
   89MOL0     C11910   1.789   3.779   4.875  0.1509  0.0384  0.1278
   89MOL0     O11911   1.706   3.760   4.769  0.2962 -0.1079 -0.3656
   89MOL0     C11912   1.572   3.725   4.796 -0.3309  0.5049  0.7166
   89MOL0     C11913   1.490   3.813   4.862  0.0922  0.2637 -0.3911
   89MOL0     C11914   1.353   3.767   4.886  0.3780 -0.7800  0.0578
   89MOL0     C11915   1.312   3.639   4.856  0.9422  0.1414  1.1712
   89MOL0     O11916   1.184   3.607   4.895 -0.1546  0.8817 -0.1702
   89MOL0     C11917   1.113   3.488   4.858  0.5736  0.4748 -0.8605
   89MOL0     C11918   1.105   3.388   4.976 -0.2958  0.9535 -0.2016
   89MOL0     C11919   1.010   3.274   4.966 -0.2998 -0.5586 -1.0562
   89MOL0     C11920   0.864   3.331   4.948  1.0076  0.3079 -0.3059
   89MOL0     C11921   0.755   3.228   4.998 -0.1363 -0.1723  0.4423
   89MOL0     C11922   0.736   3.093   4.911 -0.8318 -0.4353  0.7345
   89MOL0     C11923   0.654   2.982   4.980  0.1893 -0.1598  0.1390
   89MOL0     C11924   0.642   2.862   4.886  0.0944 -0.4392 -0.6509
   89MOL0    Cl11925   0.506   2.905   4.778  0.3355 -0.3581 -0.3177
   89MOL0     C11926   1.402   3.554   4.782  0.9732 -0.2493  0.8791
   89MOL0     C11927   1.532   3.599   4.764  0.0743  0.0562 -0.4488
   89MOL0     O11928   1.757   3.780   4.992 -0.3884  0.3874 -0.2845
   89MOL0     C11929   1.973   3.803   4.708  0.1909  0.2683  0.2618
   89MOL0     C11930   2.104   3.845   4.670 -0.3545 -0.6688 -0.4849
   89MOL0     N11931   2.720   3.591   4.720 -0.8378 -0.3561 -0.4897
   89MOL0     N11932   2.784   3.496   4.649 -0.0219  0.5120 -0.2041
   89MOL0     C11933   3.931   3.476   4.481  0.1734 -0.5829  0.7810
   89MOL0     C11934   4.046   3.544   4.533 -0.3498 -1.0155  0.2054
   89MOL0     C11935   4.462   3.717   4.578  1.2033 -0.5984 -0.1123
   89MOL0     C11936   4.497   3.849   4.550  0.0096  0.2384 -0.1277
   89MOL0     C11937   4.616   3.902   4.594 -0.6574 -0.1717 -0.0630
   89MOL0     C11938   4.704   3.816   4.666  0.4049 -0.4172  0.1086
   89MOL0     O11939   4.814   3.884   4.713 -0.1984  0.1111 -0.0325
   89MOL0     C11940   4.863   3.873   4.850  0.1002  0.1620  0.0123
   89MOL0     C11941   4.997   3.947   4.854  0.4167  0.7647  0.9753
   89MOL0     C11942   5.129   3.892   4.797 -0.7017  0.5684 -0.5503
   89MOL0     C11943   5.250   3.989   4.827  0.6368 -0.3149 -0.4225
   89MOL0     C11944   5.391   3.937   4.827 -0.4461  0.7128  0.9696
   89MOL0     C11945   5.510   3.907   4.822  0.2335  0.0550 -0.5150
   89MOL0     C11946   4.671   3.685   4.689 -0.6855 -0.3865  0.7187
   89MOL0     C11947   4.552   3.634   4.641  0.8107  1.2293  0.0249
   89MOL0     H11948   4.261   3.277   4.507 -0.9663 -0.2189  0.0085
   89MOL0     H11949   4.064   3.169   4.425  0.4056  0.1897 -0.2715
   89MOL0     H11950   3.788   3.411   4.274  0.8723  0.1246 -2.4852
   89MOL0     H11951   3.834   3.260   4.201  0.9821  0.3400  0.4187
   89MOL0     H11952   3.609   3.308   4.154  4.5874  1.9079  0.1003
   89MOL0     H11953   3.595   3.164   4.259 -1.1316  0.2764 -1.4543
   89MOL0     H11954   3.553   3.332   4.443  0.5795  0.2081  0.8498
   89MOL0     H11955   3.552   3.462   4.328  0.5512  0.2652 -0.2503
   89MOL0     H11956   3.377   3.329   4.194  0.8267  2.1715  0.1176
   89MOL0     H11957   3.367   3.208   4.320  1.2770 -0.9452 -0.8511
   89MOL0     H11958   3.320   3.415   4.483 -2.8356  0.4848  0.5858
   89MOL0     H11959   3.313   3.521   4.342  0.5347  0.3630  2.6755
   89MOL0     H11960   3.129   3.389   4.252  0.7354 -0.3968 -0.2672
   89MOL0     H11961   3.126   3.276   4.385  0.3667  0.2674  1.8387
   89MOL0     H11962   3.089   3.442   4.554 -0.4847 -0.0133 -0.1582
   89MOL0     H11963   3.093   3.573   4.428 -1.7930  0.1204  0.3597
   89MOL0     H11964   2.875   3.365   4.441  1.3347  0.1525  0.9680
   89MOL0     H11965   2.884   3.509   4.340 -0.5471  3.6985  0.8568
   89MOL0     H11966   2.880   3.767   4.497 -3.6613  3.1900  0.5772
   89MOL0     H11967   2.654   3.837   4.808 -0.1554  0.4965 -0.3173
   89MOL0     H11968   2.789   3.908   4.718 -0.4061  0.0406 -3.4981
   89MOL0     H11969   2.660   3.936   4.518 -1.2651  1.4297 -0.7541
   89MOL0     H11970   2.550   3.991   4.643  0.3100 -0.5008  0.4922
   89MOL0     H11971   2.523   3.738   4.480  2.4516  2.2771 -1.6709
   89MOL0     H11972   2.428   3.874   4.485  0.9966 -3.3211 -1.9620
   89MOL0     H11973   2.482   3.702   4.730  1.6125  1.3372 -0.0409
   89MOL0     H11974   2.343   3.675   4.622  1.8196 -0.3931 -0.6082
   89MOL0     H11975   2.259   3.834   4.964  0.6228 -1.4952 -1.3691
   89MOL0     H11976   2.114   3.889   5.119  1.2878  1.0448 -1.7800
   89MOL0     H11977   1.941   3.866   5.125  0.2090 -1.8543  0.6990
   89MOL0     H11978   2.030   3.724   5.128 -2.1347  0.6209 -0.4366
   89MOL0     H11979   1.521   3.916   4.875 -1.5193  0.7527 -0.0915
   89MOL0     H11980   1.292   3.846   4.927  0.3735 -0.3005 -0.8523
   89MOL0     H11981   1.019   3.529   4.817  1.9335  4.5976 -0.3362
   89MOL0     H11982   1.156   3.440   4.770 -3.5920  1.0156 -3.4886
   89MOL0     H11983   1.204   3.343   4.989 -0.6929 -0.0242 -0.4519
   89MOL0     H11984   1.084   3.457   5.058  2.1282 -0.3490  1.6350
   89MOL0     H11985   1.020   3.218   5.059  3.1405 -1.0530 -1.6220
   89MOL0     H11986   1.033   3.203   4.886  4.1292 -1.2367  0.5742
   89MOL0     H11987   0.857   3.421   5.010 -1.6877 -0.3388  0.4512
   89MOL0     H11988   0.837   3.347   4.843 -3.9216 -0.5068  0.6024
   89MOL0     H11989   0.657   3.277   5.007 -0.4973 -0.8886  0.4958
   89MOL0     H11990   0.785   3.196   5.098  0.9839  0.2001  0.2312
   89MOL0     H11991   0.696   3.116   4.812 -1.8672  1.7130  1.5881
   89MOL0     H11992   0.836   3.049   4.898 -1.3071 -1.5955  0.8769
   89MOL0     H11993   0.555   3.013   5.012 -0.4450 -2.7189  0.9516
   89MOL0     H11994   0.700   2.947   5.073  1.8098 -0.2483 -0.6459
   89MOL0     H11995   0.641   2.769   4.944  1.8836 -0.0848  0.0145
   89MOL0     H11996   0.735   2.859   4.829  1.5462  0.5686  1.5394
   89MOL0     H11997   1.376   3.454   4.747 -1.5431  0.1793  1.3147
   89MOL0     H11998   1.605   3.530   4.724 -0.1274  0.3269 -1.3108
   89MOL0     H11999   1.895   3.782   4.636 -0.7355 -1.1846  1.6268
   89MOL0     H12000   2.126   3.850   4.564 -0.4272  1.4235 -0.4370
   89MOL0     H12001   3.834   3.525   4.478  0.9323  0.8813 -0.9598
   89MOL0     H12002   4.029   3.645   4.570  2.1649 -1.1086  1.9394
   89MOL0     H12003   4.430   3.920   4.502 -0.9753  0.0246  0.8711
   89MOL0     H12004   4.633   4.006   4.565  1.2398 -0.2108  0.7686
   89MOL0     H12005   4.798   3.917   4.926 -1.3991 -1.7230 -0.0993
   89MOL0     H12006   4.868   3.770   4.888  1.3096  0.2000  0.0130
   89MOL0     H12007   5.015   3.955   4.962  0.4024  1.2624  0.9436
   89MOL0     H12008   4.986   4.047   4.810  0.2496 -0.3420 -1.6054
   89MOL0     H12009   5.117   3.861   4.693  0.5050  1.3145 -0.9469
   89MOL0     H12010   5.162   3.803   4.851 -0.1551  0.1252 -1.5931
   89MOL0     H12011   5.238   4.065   4.904  2.0249  3.2862 -3.4366
   89MOL0     H12012   5.246   4.064   4.747  1.6228  3.0890  2.4883
   89MOL0     H12013   5.614   3.883   4.822 -0.3888 -3.0797  0.1895
   89MOL0     H12014   4.745   3.627   4.743  0.1315  0.7573  0.8887
   89MOL0     H12015   4.523   3.532   4.663 -0.5366  2.0008  2.0279
   90MOL0     O12016   2.003   8.740  10.350 -0.3185  0.0119 -0.6136
   90MOL0     C12017   2.085   8.825  10.400  0.2769  0.4245  0.6638
   90MOL0     O12018   2.051   8.954  10.442  0.1094  0.2207 -0.0071
   90MOL0     C12019   1.924   9.002  10.405 -0.2581  0.3537 -0.5856
   90MOL0     C12020   1.897   9.039  10.279  0.4544 -0.8788  0.4559
   90MOL0     C12021   1.774   9.092  10.229 -0.2744  0.3342 -0.1479
   90MOL0     C12022   1.666   9.118  10.323  0.2759 -0.9036  0.3798
   90MOL0     O12023   1.552   9.195  10.289  0.5492 -0.2221 -0.2282
   90MOL0     C12024   1.466   9.136  10.190 -0.6601  0.3439 -0.0866
   90MOL0     C12025   1.354   9.230  10.160 -0.0812  0.2270  0.5096
   90MOL0     C12026   1.394   9.371  10.100 -0.5367 -0.2125 -0.2767
   90MOL0     C12027   1.380   9.487  10.196 -0.0900  0.0318 -0.3646
   90MOL0     C12028   1.433   9.623  10.156  0.7119 -0.8716  0.9301
   90MOL0     C12029   1.426   9.647  10.002  0.8197  0.4110 -0.3182
   90MOL0     C12030   1.470   9.790   9.957 -0.7903  0.5364  0.7601
   90MOL0     C12031   1.355   9.888   9.976  0.2116  0.3517  0.1431
   90MOL0     N12032   1.250   9.889   9.876 -0.3422  0.7516 -0.1069
   90MOL0     C12033   1.262   9.865   9.744  0.6843 -0.3299 -0.3249
   90MOL0     C12034   1.141   9.880   9.690 -0.8564  0.9164  0.9260
   90MOL0     C12035   1.100   9.867   9.547  0.4787  0.2344 -0.4990
   90MOL0     C12036   0.944   9.878   9.526 -0.1961  0.3676  0.4087
   90MOL0     C12037   0.925   9.844   9.374 -0.7056 -0.8857 -0.5657
   90MOL0     C12038   0.781   9.866   9.335 -0.0443 -0.7691  0.5949
   90MOL0     O12039   0.682   9.795   9.412 -0.6541  0.0694 -0.2476
   90MOL0     C12040   0.554   9.832   9.385 -0.6924 -0.0764 -0.3388
   90MOL0     C12041   0.496   9.832   9.262  0.7821 -0.1227  0.3182
   90MOL0     C12042   0.356   9.856   9.250  0.2065  0.6747 -0.0355
   90MOL0     C12043   0.309   9.831   9.106 -0.1727 -0.8947  0.6629
   90MOL0     C12044   0.279   9.899   9.364  0.7055 -1.0218  0.2677
   90MOL0     C12045   0.136   9.925   9.362  0.7194 -0.4112 -0.5685
   90MOL0     O12046   0.080   9.974   9.249 -0.1568 -0.1400  0.1348
   90MOL0     C12047  -0.057   9.980   9.234  0.4533  0.9568 -0.8911
   90MOL0     C12048  -0.104   9.910   9.125  0.8974 -0.3445 -0.7185
   90MOL0     C12049  -0.246   9.911   9.100 -0.6685 -0.0786  0.1667
   90MOL0     C12050  -0.333   9.974   9.180 -0.5194  0.1479 -0.2551
   90MOL0     O12051  -0.466   9.968   9.149  0.0104  0.1432  0.5839
   90MOL0     C12052  -0.552  10.077   9.191 -0.1615 -0.0978 -0.3278
   90MOL0     C12053  -0.690  10.041   9.145 -0.5686  0.1012  0.5648
   90MOL0     C12054  -0.794  10.148   9.176 -0.1672  0.1151 -0.6649
   90MOL0     C12055  -0.918  10.091   9.115  0.3626 -0.3881 -0.5736
   90MOL0     C12056  -1.025  10.201   9.098 -0.4923  0.3091 -0.1892
   90MOL0     C12057  -1.149  10.142   9.043  0.0074  0.2376 -0.6870
   90MOL0     C12058  -1.258  10.249   9.011  0.1290  0.5503 -0.2661
   90MOL0     C12059  -1.398  10.181   9.020  0.3351 -0.0877 -0.6579
   90MOL0    Cl12060  -1.525  10.284   8.979 -0.0618  0.1742 -0.0487
   90MOL0     C12061  -0.287  10.053   9.283  0.4504 -0.5186  0.8108
   90MOL0     C12062  -0.146  10.060   9.307  0.3079 -0.4510 -0.7747
   90MOL0     O12063   0.085   9.916   9.472  0.0957  0.2791 -0.4368
   90MOL0     C12064   0.351   9.912   9.486  0.0689  0.8516 -1.0433
   90MOL0     C12065   0.484   9.872   9.495  0.7562 -0.5559 -0.2494
   90MOL0     N12066   1.055   9.910   9.797 -0.3469  0.3971  0.1709
   90MOL0     N12067   1.120   9.914   9.909 -0.2230  0.4029 -0.3825
   90MOL0     C12068   1.692   9.085  10.456  0.3787 -0.1917  0.5959
   90MOL0     C12069   1.816   9.025  10.488 -0.5516  0.2295 -0.0823
   90MOL0     C12070   2.217   8.785  10.447 -0.0350 -0.1893 -0.2374
   90MOL0     C12071   2.259   8.652  10.456  0.8452  0.8644 -0.6485
   90MOL0     C12072   2.383   8.615  10.509 -0.5675 -0.6526 -0.8565
   90MOL0     C12073   2.477   8.722  10.547  0.7139  0.3585 -0.0650
   90MOL0     O12074   2.599   8.692  10.599  0.1149  0.5296  0.1426
   90MOL0     C12075   2.675   8.582  10.540 -0.5115 -0.2020 -0.6945
   90MOL0     C12076   2.784   8.622  10.448  0.7332 -0.1500 -0.1538
   90MOL0     C12077   2.849   8.760  10.487  0.3580 -0.2605 -0.0124
   90MOL0     C12078   2.925   8.817  10.368  0.7411  0.4127  0.0662
   90MOL0     C12079   3.038   8.727  10.326  0.2693  0.1047  0.6875
   90MOL0     C12080   3.128   8.655  10.275  1.0788  0.2073  0.1281
   90MOL0     C12081   2.444   8.848  10.528  0.0219 -0.6876 -0.6102
   90MOL0     C12082   2.312   8.886  10.478 -0.1356 -0.2769 -0.5682
   90MOL0     H12083   1.981   9.036  10.211  0.0864 -4.4189 -0.0251
   90MOL0     H12084   1.756   9.116  10.125 -1.1793 -0.7332 -0.2616
   90MOL0     H12085   1.523   9.094  10.106  1.3579 -2.2903  2.4273
   90MOL0     H12086   1.424   9.043  10.227 -1.8785  0.4956 -1.0117
   90MOL0     H12087   1.288   9.187  10.085 -0.7423 -0.8848  1.6920
   90MOL0     H12088   1.294   9.223  10.251 -0.0965 -1.2916  0.3971
   90MOL0     H12089   1.495   9.361  10.060 -0.9974  0.0875 -1.5680
   90MOL0     H12090   1.329   9.406  10.019  0.1968  2.3265  0.1316
   90MOL0     H12091   1.277   9.493  10.232 -0.2885 -2.2036 -0.3854
   90MOL0     H12092   1.431   9.450  10.287  0.7464 -1.4675 -1.3941
   90MOL0     H12093   1.386   9.709  10.204  4.1101  0.8597  1.4095
   90MOL0     H12094   1.535   9.613  10.193  1.6284 -3.1598 -1.8251
   90MOL0     H12095   1.488   9.568   9.958  0.3941 -1.3583  2.0194
   90MOL0     H12096   1.322   9.633   9.971  0.5920 -0.2917  0.6972
   90MOL0     H12097   1.552   9.827  10.019 -0.4254  1.3163 -0.1726
   90MOL0     H12098   1.499   9.783   9.852 -0.0616  1.0175  0.9261
   90MOL0     H12099   1.396   9.990   9.976  0.6524  0.1918  1.4852
   90MOL0     H12100   1.313   9.861  10.073 -2.9107 -2.1581 -1.7151
   90MOL0     H12101   1.354   9.837   9.694  2.4236  0.3598  2.3435
   90MOL0     H12102   1.153   9.944   9.490  1.4125  0.7952  1.0832
   90MOL0     H12103   1.138   9.773   9.507  0.3183  0.1936 -0.5556
   90MOL0     H12104   0.909   9.979   9.550  0.8437  0.9177 -0.3117
   90MOL0     H12105   0.897   9.808   9.595  0.2636  1.4791  1.8931
   90MOL0     H12106   0.951   9.739   9.358  0.4478 -0.2186 -3.8216
   90MOL0     H12107   0.982   9.905   9.303 -3.8886  0.4962 -2.1703
   90MOL0     H12108   0.771   9.842   9.229  1.2263  2.2703 -0.3383
   90MOL0     H12109   0.761   9.973   9.347  0.3311 -0.7122  0.7113
   90MOL0     H12110   0.552   9.815   9.171 -0.3957 -0.9715 -0.2694
   90MOL0     H12111   0.268   9.916   9.052  1.6892  0.4869  1.3245
   90MOL0     H12112   0.388   9.795   9.040  0.4916  1.5930  0.0099
   90MOL0     H12113   0.222   9.765   9.115 -1.3341  0.6061  0.8481
   90MOL0     H12114  -0.051   9.845   9.056  0.4559 -0.1735 -1.2300
   90MOL0     H12115  -0.275   9.844   9.019 -0.1406 -2.2668  1.6851
   90MOL0     H12116  -0.549  10.072   9.300  0.1197  0.6382 -0.2960
   90MOL0     H12117  -0.526  10.178   9.157  1.3793 -0.1857  0.5346
   90MOL0     H12118  -0.672  10.018   9.040  1.9879  1.6997  0.5637
   90MOL0     H12119  -0.729   9.956   9.201 -2.5159 -0.1301 -1.0396
   90MOL0     H12120  -0.754  10.240   9.134  1.2300  0.2786  0.9106
   90MOL0     H12121  -0.815  10.167   9.281  0.0793  0.5330 -0.6914
   90MOL0     H12122  -0.908  10.048   9.016  2.2709  2.6335 -1.8493
   90MOL0     H12123  -0.966  10.025   9.188 -1.8535  2.6235  0.9348
   90MOL0     H12124  -0.989  10.269   9.020 -2.8510  0.0613 -1.5588
   90MOL0     H12125  -1.034  10.247   9.197  2.4237  1.4938 -0.3517
   90MOL0     H12126  -1.126  10.090   8.950 -0.9421 -1.1368 -0.1864
   90MOL0     H12127  -1.194  10.066   9.108 -4.4307  0.8178 -2.6632
   90MOL0     H12128  -1.252  10.286   8.908  0.8831  0.0304 -0.4206
   90MOL0     H12129  -1.251  10.339   9.072 -3.4769  2.5283 -2.4427
   90MOL0     H12130  -1.423  10.145   9.121  0.3555  2.8660  0.4808
   90MOL0     H12131  -1.396  10.091   8.957 -0.9749 -1.6642  1.3909
   90MOL0     H12132  -0.353  10.103   9.353  1.6785 -0.4409  1.9456
   90MOL0     H12133  -0.110  10.127   9.385 -0.2925  0.8521 -1.5743
   90MOL0     H12134   0.300   9.942   9.577  1.9016  0.4049  0.1937
   90MOL0     H12135   0.521   9.863   9.597  0.7848 -2.5507 -0.4008
   90MOL0     H12136   1.618   9.100  10.534  0.7877 -1.0745  1.1687
   90MOL0     H12137   1.832   9.000  10.592 -2.0044  1.4593  0.4682
   90MOL0     H12138   2.190   8.573  10.429  0.6754 -1.0903  4.4596
   90MOL0     H12139   2.392   8.507  10.514 -0.9298 -0.6307  1.1479
   90MOL0     H12140   2.717   8.528  10.626 -0.8366  0.1942 -0.2782
   90MOL0     H12141   2.599   8.519  10.493 -1.9067  1.4644 -0.7568
   90MOL0     H12142   2.738   8.644  10.351 -0.1985  0.7595  0.4845
   90MOL0     H12143   2.850   8.535  10.432 -0.8053 -1.4002  0.0917
   90MOL0     H12144   2.917   8.735  10.569  1.0688 -1.0406 -0.8164
   90MOL0     H12145   2.771   8.831  10.516  1.5068  1.7445 -1.5988
   90MOL0     H12146   2.971   8.912  10.396  0.2990 -0.2710  3.5127
   90MOL0     H12147   2.854   8.835  10.287 -0.5401  1.0233  1.2787
   90MOL0     H12148   3.211   8.593  10.246  0.1247 -0.9376 -0.2476
   90MOL0     H12149   2.516   8.927  10.549 -0.3434 -0.7622  1.0462
   90MOL0     H12150   2.272   8.987  10.479 -2.5976 -1.1701 -0.6871
   91MOL0     O12151   7.691   6.766   1.036 -0.1933  0.0371  0.2466
   91MOL0     C12152   7.733   6.868   1.092  0.3227  0.4690 -0.3495
   91MOL0     O12153   7.685   6.923   1.201  0.2300 -0.6114  0.5711
   91MOL0     C12154   7.578   6.869   1.269 -0.3927  0.2503 -1.0496
   91MOL0     C12155   7.603   6.855   1.406  0.3746 -0.4830 -0.2232
   91MOL0     C12156   7.510   6.788   1.487  1.1912  0.2623 -0.8114
   91MOL0     C12157   7.400   6.724   1.430  0.5700 -0.1063  0.0149
   91MOL0     O12158   7.322   6.634   1.502 -0.5226  0.4969 -0.5063
   91MOL0     C12159   7.200   6.692   1.535 -0.1344 -0.6952 -1.0716
   91MOL0     C12160   7.125   6.594   1.627  0.6323 -0.2723  0.3335
   91MOL0     C12161   7.004   6.669   1.674  0.4650 -0.6507 -0.7229
   91MOL0     C12162   6.936   6.587   1.786  0.1541  0.3591 -0.2724
   91MOL0     C12163   6.818   6.654   1.849 -0.5963 -0.0777  0.3189
   91MOL0     C12164   6.689   6.624   1.786  0.0648  0.9739  0.3816
   91MOL0     C12165   6.572   6.674   1.866 -0.9235  0.8627  0.2701
   91MOL0     C12166   6.450   6.634   1.805  0.8686  0.0880  0.0183
   91MOL0     N12167   6.330   6.668   1.890 -0.1411 -0.8009  0.1369
   91MOL0     C12168   6.224   6.745   1.873  0.0781 -0.3969  0.6468
   91MOL0     C12169   6.136   6.721   1.972 -1.2536  0.5047  0.2726
   91MOL0     C12170   6.001   6.783   1.959  0.2313  0.3968  0.6662
   91MOL0     C12171   5.902   6.675   1.955  0.0006  0.0785 -0.2938
   91MOL0     C12172   5.754   6.718   1.975 -0.6724  0.1585 -0.5487
   91MOL0     C12173   5.656   6.617   1.922  0.3307 -0.3810 -0.1312
   91MOL0     O12174   5.530   6.691   1.908  0.5415 -0.2261 -0.1805
   91MOL0     C12175   5.415   6.620   1.890  0.6935 -0.5792 -0.4965
   91MOL0     C12176   5.405   6.476   1.899  0.6511 -0.6300  0.5700
   91MOL0     C12177   5.285   6.409   1.897  0.0956 -0.1002 -0.9377
   91MOL0     C12178   5.298   6.256   1.889 -0.1068  0.7116 -0.1735
   91MOL0     C12179   5.164   6.485   1.884  0.3799  0.4672 -0.1986
   91MOL0     C12180   5.017   6.431   1.885  0.1897 -0.3509  0.0038
   91MOL0     O12181   4.916   6.521   1.862  0.5840 -0.4847  0.1743
   91MOL0     C12182   4.796   6.469   1.832 -0.1657 -0.0408 -1.0930
   91MOL0     C12183   4.774   6.401   1.712 -0.1860 -0.6375 -0.0761
   91MOL0     C12184   4.645   6.353   1.683 -0.3950 -0.0946 -0.0431
   91MOL0     C12185   4.536   6.368   1.783 -0.9025  0.6099  0.6143
   91MOL0     O12186   4.419   6.309   1.750  0.0830  0.0103 -0.0856
   91MOL0     C12187   4.332   6.270   1.854 -0.3377 -0.3068  0.0347
   91MOL0     C12188   4.208   6.219   1.781  0.1717 -0.1727  0.5118
   91MOL0     C12189   4.112   6.151   1.882 -0.2905  0.0464 -0.7296
   91MOL0     C12190   4.183   6.054   1.978 -1.0037 -0.9551 -0.6048
   91MOL0     C12191   4.263   5.947   1.909  0.6146  0.9836 -0.5254
   91MOL0     C12192   4.316   5.840   2.002 -0.0440  0.6038  0.5137
   91MOL0     C12193   4.386   5.886   2.135  0.3729 -0.3527  0.2279
   91MOL0     C12194   4.436   5.754   2.207  0.1283 -0.0288 -0.2383
   91MOL0    Cl12195   4.508   5.803   2.363 -0.3876  0.1710  0.1805
   91MOL0     C12196   4.569   6.431   1.901  0.1195  0.4011  0.2814
   91MOL0     C12197   4.688   6.493   1.923 -1.1183  0.5332 -0.1621
   91MOL0     O12198   5.004   6.310   1.906  0.1201  0.2206  0.3909
   91MOL0     C12199   5.173   6.624   1.872  0.4397  0.1223  0.2456
   91MOL0     C12200   5.294   6.691   1.879 -0.2729  0.3881  0.2521
   91MOL0     N12201   6.197   6.624   2.054  0.1848  0.1289  0.9297
   91MOL0     N12202   6.313   6.602   2.011 -0.0068  0.6590 -1.3809
   91MOL0     C12203   7.376   6.735   1.288  0.0282 -0.4073 -0.7061
   91MOL0     C12204   7.463   6.815   1.214  0.0335  0.2833 -0.1539
   91MOL0     C12205   7.860   6.922   1.046  0.4526 -0.8551  1.0027
   91MOL0     C12206   7.920   7.031   1.108  1.0165 -0.2356 -0.4681
   91MOL0     C12207   8.041   7.087   1.057  0.5885  0.4713 -0.7268
   91MOL0     C12208   8.102   7.036   0.948 -0.3864 -0.1303 -0.0895
   91MOL0     O12209   8.218   7.080   0.888 -0.3603 -0.2772 -0.6351
   91MOL0     C12210   8.254   7.220   0.903 -0.4505  0.7309  0.6930
   91MOL0     C12211   8.330   7.262   0.781 -0.4380 -0.5871  0.6292
   91MOL0     C12212   8.247   7.286   0.651 -0.4097  0.0517  0.2840
   91MOL0     C12213   8.289   7.197   0.530 -0.0345  0.2816 -0.0905
   91MOL0     C12214   8.420   7.232   0.478  0.5074 -0.2033 -0.2693
   91MOL0     C12215   8.521   7.266   0.425  0.3440 -0.1267  0.3515
   91MOL0     C12216   8.046   6.916   0.891 -0.1139 -0.3550  0.2706
   91MOL0     C12217   7.923   6.870   0.930  0.6189 -0.2960  0.1401
   91MOL0     H12218   7.686   6.892   1.465 -2.3206  1.3868  2.7227
   91MOL0     H12219   7.547   6.777   1.588  2.0601 -1.2367 -1.2622
   91MOL0     H12220   7.220   6.784   1.590 -1.4417 -1.1621  0.2571
   91MOL0     H12221   7.133   6.717   1.452 -1.2312  1.5315  0.3967
   91MOL0     H12222   7.098   6.510   1.562 -1.9549 -0.7111  1.8253
   91MOL0     H12223   7.184   6.564   1.714  1.9220  2.1449  0.3643
   91MOL0     H12224   7.025   6.769   1.713  2.2481 -0.7556 -1.3184
   91MOL0     H12225   6.929   6.685   1.596 -2.0261  3.3949  2.1305
   91MOL0     H12226   6.906   6.495   1.734  0.5146  0.3593 -0.4823
   91MOL0     H12227   6.999   6.554   1.869 -1.7633 -3.4099 -0.0660
   91MOL0     H12228   6.803   6.617   1.951 -2.3244 -1.0360 -0.2272
   91MOL0     H12229   6.845   6.759   1.856  2.2742 -0.7810  1.0742
   91MOL0     H12230   6.681   6.669   1.687 -1.1700  0.2026  0.0969
   91MOL0     H12231   6.684   6.515   1.777 -0.0695  0.9697  0.5063
   91MOL0     H12232   6.568   6.629   1.966 -2.8636  3.4462  1.5132
   91MOL0     H12233   6.580   6.783   1.876 -1.2622  0.9795 -0.6424
   91MOL0     H12234   6.450   6.525   1.810  1.9064  0.1121  0.8873
   91MOL0     H12235   6.429   6.662   1.702 -0.9776 -2.2673 -0.3430
   91MOL0     H12236   6.208   6.809   1.787 -1.9809 -0.9798  0.5423
   91MOL0     H12237   5.978   6.847   2.045 -1.1670 -2.1942  2.3284
   91MOL0     H12238   5.999   6.850   1.872  3.8185 -1.6483 -1.2132
   91MOL0     H12239   5.931   6.598   2.027 -2.9938 -0.0333  0.9428
   91MOL0     H12240   5.906   6.617   1.862  1.4518  2.4829 -1.8353
   91MOL0     H12241   5.746   6.811   1.918 -0.3753 -1.6202 -3.7296
   91MOL0     H12242   5.746   6.732   2.084  2.4034  1.1304 -0.3285
   91MOL0     H12243   5.665   6.529   1.988  1.6820  0.2316  0.5351
   91MOL0     H12244   5.695   6.586   1.825 -0.1224 -1.7354  0.0944
   91MOL0     H12245   5.500   6.423   1.900  0.3014 -1.2800  2.2695
   91MOL0     H12246   5.246   6.208   1.972  1.3822  0.1675  0.4948
   91MOL0     H12247   5.251   6.218   1.798 -2.4769  0.8416  0.9350
   91MOL0     H12248   5.401   6.218   1.887 -0.9063 -1.6707  0.1785
   91MOL0     H12249   4.860   6.390   1.647 -0.4317  0.5685 -0.6366
   91MOL0     H12250   4.622   6.306   1.588  0.1523  0.0044 -0.2293
   91MOL0     H12251   4.391   6.203   1.917  1.6632  2.4769  1.3411
   91MOL0     H12252   4.313   6.364   1.907 -0.7572  0.9642 -2.2362
   91MOL0     H12253   4.152   6.293   1.722  0.9160 -0.0202 -0.0089
   91MOL0     H12254   4.238   6.151   1.701 -0.7684  0.9670 -0.8715
   91MOL0     H12255   4.036   6.097   1.824 -0.4390 -0.1151 -0.3867
   91MOL0     H12256   4.064   6.227   1.944  2.1455  2.3730 -1.5615
   91MOL0     H12257   4.238   6.121   2.045 -1.8656 -0.7309 -0.1084
   91MOL0     H12258   4.107   6.014   2.045  0.8161 -0.1339  2.1194
   91MOL0     H12259   4.342   5.979   1.841  3.2517 -2.3442  0.6999
   91MOL0     H12260   4.194   5.888   1.848  2.1106 -1.5278  0.0533
   91MOL0     H12261   4.228   5.785   2.036 -1.0942  2.0694  0.2340
   91MOL0     H12262   4.386   5.770   1.954 -1.0062 -2.3513  3.0686
   91MOL0     H12263   4.315   5.940   2.198 -2.4490 -2.4334 -0.9165
   91MOL0     H12264   4.476   5.946   2.124  1.8844 -2.0642  2.5502
   91MOL0     H12265   4.499   5.695   2.140 -1.5725  1.4875 -3.3472
   91MOL0     H12266   4.352   5.697   2.248  1.4305 -1.4752  0.5267
   91MOL0     H12267   4.484   6.443   1.967  0.1300 -2.0265  0.8480
   91MOL0     H12268   4.715   6.536   2.019 -1.8226  0.5106  0.0574
   91MOL0     H12269   5.078   6.675   1.866 -0.7471 -0.9053  5.4972
   91MOL0     H12270   5.302   6.799   1.882 -3.3441  0.7777 -1.0171
   91MOL0     H12271   7.300   6.684   1.231 -1.0489  0.7488 -0.3445
   91MOL0     H12272   7.445   6.831   1.108 -2.3449  3.2427  0.5829
   91MOL0     H12273   7.872   7.072   1.197  0.6855 -1.5498 -0.0155
   91MOL0     H12274   8.091   7.166   1.113  0.3375 -1.2318  2.0666
   91MOL0     H12275   8.168   7.287   0.915  0.3838  1.7632  1.1063
   91MOL0     H12276   8.312   7.229   0.996 -1.4104 -3.2563  1.8621
   91MOL0     H12277   8.410   7.189   0.768 -2.4300 -2.8598  0.4300
   91MOL0     H12278   8.382   7.358   0.790 -2.2512  0.4858  0.1552
   91MOL0     H12279   8.255   7.390   0.619  0.6021 -0.9599 -3.1082
   91MOL0     H12280   8.147   7.253   0.680 -0.7651  0.0213 -0.9322
   91MOL0     H12281   8.215   7.209   0.450 -2.6792 -1.3967  1.9260
   91MOL0     H12282   8.290   7.093   0.565  2.9746  1.5672  4.6223
   91MOL0     H12283   8.610   7.316   0.392  0.8441  0.3996  2.3356
   91MOL0     H12284   8.093   6.868   0.806 -0.4452  1.1315 -0.8074
   91MOL0     H12285   7.881   6.786   0.876 -2.2612  1.9424 -1.3996
   92MOL0     O12286  10.502   2.975   8.650 -0.3208  0.0662 -0.2912
   92MOL0     C12287  10.505   2.849   8.653 -0.0970  0.0037  0.9835
   92MOL0     O12288  10.427   2.773   8.580  0.6552 -0.1366  0.6836
   92MOL0     C12289  10.350   2.831   8.473 -0.0906 -0.1750 -0.0230
   92MOL0     C12290  10.209   2.800   8.477 -0.3356 -0.5611  0.0279
   92MOL0     C12291  10.127   2.832   8.375  0.0010 -0.4284  0.3669
   92MOL0     C12292  10.174   2.897   8.261  0.3485 -0.7313 -0.4813
   92MOL0     O12293  10.073   2.923   8.168 -0.4709 -0.0036 -0.0037
   92MOL0     C12294  10.086   3.032   8.077 -0.6922 -0.5989 -0.9057
   92MOL0     C12295   9.963   3.039   7.993  0.4221  0.1570 -0.3635
   92MOL0     C12296   9.827   2.997   8.066  0.4705  0.2061 -0.0016
   92MOL0     C12297   9.696   3.032   7.988  0.1907  1.0823 -0.0173
   92MOL0     C12298   9.563   3.024   8.063 -0.2691 -0.1225 -0.2529
   92MOL0     C12299   9.449   3.019   7.953  0.1373 -0.1308 -0.1046
   92MOL0     C12300   9.312   3.004   8.028 -0.2619 -0.8375 -0.2189
   92MOL0     C12301   9.211   2.990   7.928 -0.9944 -0.8777 -0.2221
   92MOL0     N12302   9.083   3.005   8.000 -0.0384  0.1582  0.3651
   92MOL0     C12303   9.013   3.130   8.015  0.3235 -0.1981 -0.3796
   92MOL0     C12304   8.883   3.082   8.033 -0.6052  0.3090 -0.2481
   92MOL0     C12305   8.770   3.174   8.069  0.7544 -0.4082  0.3745
   92MOL0     C12306   8.745   3.291   7.976  0.3366  0.4969 -0.1766
   92MOL0     C12307   8.736   3.249   7.825 -0.9035 -0.1386 -0.6947
   92MOL0     C12308   8.606   3.178   7.790  1.0472  0.4112 -0.0767
   92MOL0     O12309   8.495   3.262   7.796  0.6689  0.2994  0.1172
   92MOL0     C12310   8.375   3.218   7.737 -0.0034 -0.4744 -0.0058
   92MOL0     C12311   8.349   3.091   7.689 -0.6151 -0.0733  0.3394
   92MOL0     C12312   8.221   3.043   7.646 -0.0474 -0.9636 -0.0396
   92MOL0     C12313   8.212   2.897   7.604 -0.7696 -0.1859  0.4323
   92MOL0     C12314   8.115   3.132   7.632  0.4751  0.7772  0.0796
   92MOL0     C12315   7.984   3.112   7.565  0.4471  0.2437 -0.0347
   92MOL0     O12316   7.879   3.180   7.626 -0.0225 -0.5197 -0.1396
   92MOL0     C12317   7.752   3.169   7.572 -0.3990  0.1398 -0.1367
   92MOL0     C12318   7.674   3.285   7.566 -0.1359 -0.2469  0.4576
   92MOL0     C12319   7.538   3.274   7.527 -0.3646 -0.3078  0.0505
   92MOL0     C12320   7.480   3.152   7.498  0.3043  0.5588 -0.5396
   92MOL0     O12321   7.343   3.145   7.459 -0.1655 -0.4131 -0.5570
   92MOL0     C12322   7.260   3.064   7.551 -0.1224 -1.4079  0.3220
   92MOL0     C12323   7.176   2.971   7.465 -0.4703  0.0236  0.7793
   92MOL0     C12324   7.087   3.061   7.367  0.6988  0.3873 -0.7949
   92MOL0     C12325   6.979   2.972   7.304 -0.1521 -0.7050  0.2066
   92MOL0     C12326   6.895   3.039   7.203  0.2107 -0.1440  1.0659
   92MOL0     C12327   6.783   2.945   7.160  0.5562 -0.5589  1.0740
   92MOL0     C12328   6.709   3.006   7.047  0.5447 -0.5748  0.0385
   92MOL0     C12329   6.586   2.921   7.006 -0.3295  0.4636  0.3430
   92MOL0    Cl12330   6.491   2.989   6.867 -0.0545 -0.5100  0.3498
   92MOL0     C12331   7.553   3.034   7.505  0.4329  0.0197  0.0886
   92MOL0     C12332   7.690   3.043   7.536 -0.2367 -0.1810  0.7176
   92MOL0     O12333   7.974   3.045   7.458  0.6952  0.8038  0.1410
   92MOL0     C12334   8.145   3.258   7.677  0.3674  0.1412 -0.4759
   92MOL0     C12335   8.266   3.296   7.730  0.0985 -0.1621  0.9851
   92MOL0     N12336   8.874   2.945   8.045  0.1144 -0.1676 -0.3975
   92MOL0     N12337   8.993   2.897   8.026  0.0357 -0.5255  0.2535
   92MOL0     C12338  10.307   2.939   8.259  0.2358  1.0479 -0.6339
   92MOL0     C12339  10.400   2.907   8.366 -0.0285  0.0914 -0.2018
   92MOL0     C12340  10.585   2.801   8.762  0.4664  0.0765  0.0302
   92MOL0     C12341  10.650   2.892   8.848 -0.0220 -0.0141  0.8626
   92MOL0     C12342  10.745   2.848   8.941 -0.8849  0.0100  0.1992
   92MOL0     C12343  10.762   2.714   8.963  0.3479 -0.5181  0.7481
   92MOL0     O12344  10.840   2.665   9.068 -0.3029 -0.0232 -0.5815
   92MOL0     C12345  10.980   2.674   9.063 -0.5989 -0.6184  0.2299
   92MOL0     C12346  11.028   2.543   9.017 -0.7819  0.6821  1.0407
   92MOL0     C12347  11.186   2.539   9.026 -0.0603 -0.7955 -0.5029
   92MOL0     C12348  11.261   2.401   9.024  0.1961 -0.6087  0.9067
   92MOL0     C12349  11.402   2.402   9.043 -0.2512  0.0847  0.3765
   92MOL0     C12350  11.520   2.397   9.063  0.3398 -0.5262 -1.2558
   92MOL0     C12351  10.681   2.619   8.897 -0.3109 -0.5621 -0.5096
   92MOL0     C12352  10.597   2.663   8.793 -0.7976  0.4253  0.3416
   92MOL0     H12353  10.168   2.733   8.551  1.2136 -1.3536  0.2262
   92MOL0     H12354  10.025   2.795   8.383  0.0330 -0.7552 -0.6170
   92MOL0     H12355  10.097   3.125   8.134  1.2769 -0.9412 -0.6449
   92MOL0     H12356  10.177   3.027   8.015  0.9009  3.3444  0.7379
   92MOL0     H12357   9.964   3.140   7.952  0.5723 -0.8658 -3.1612
   92MOL0     H12358   9.968   2.981   7.900 -2.5296 -1.3631  0.3195
   92MOL0     H12359   9.841   2.893   8.095  0.7919  0.3683  0.4246
   92MOL0     H12360   9.812   3.052   8.159  0.6068 -1.3420  0.9693
   92MOL0     H12361   9.698   3.138   7.963 -1.2930  1.4659  1.3119
   92MOL0     H12362   9.693   2.968   7.899 -0.5857  0.4712  0.4337
   92MOL0     H12363   9.561   2.931   8.121  4.9801  0.5118  1.4668
   92MOL0     H12364   9.546   3.113   8.124  0.7340 -0.3765  0.4298
   92MOL0     H12365   9.454   3.115   7.900  1.5940  0.5871  1.2335
   92MOL0     H12366   9.464   2.939   7.881 -1.5242 -1.3046  0.7911
   92MOL0     H12367   9.322   2.920   8.097  0.9768 -0.9319 -0.4793
   92MOL0     H12368   9.289   3.094   8.086 -2.1686 -2.3408  1.4790
   92MOL0     H12369   9.196   2.891   7.884 -1.7804 -0.3061 -1.3020
   92MOL0     H12370   9.222   3.069   7.854  0.2515 -0.1538  0.6990
   92MOL0     H12371   9.062   3.226   8.016  1.0676 -0.5747  0.3527
   92MOL0     H12372   8.679   3.114   8.081  0.3227  0.3273  0.9110
   92MOL0     H12373   8.791   3.219   8.166 -2.5373 -0.3892  1.2197
   92MOL0     H12374   8.834   3.354   7.983 -0.5788  1.9409 -1.0221
   92MOL0     H12375   8.655   3.346   8.007  0.5336  2.8020 -3.2199
   92MOL0     H12376   8.823   3.187   7.802 -1.1917 -0.6409 -0.4355
   92MOL0     H12377   8.748   3.339   7.764  0.2585  1.3550  1.6108
   92MOL0     H12378   8.603   3.089   7.853 -1.2009 -1.7299 -2.8977
   92MOL0     H12379   8.612   3.131   7.691 -1.1721 -1.8468  0.7423
   92MOL0     H12380   8.431   3.020   7.692 -0.4226  0.0899 -0.7567
   92MOL0     H12381   8.311   2.854   7.588 -0.3161  0.1408  2.1333
   92MOL0     H12382   8.175   2.835   7.686 -1.7355  1.3953  1.2405
   92MOL0     H12383   8.146   2.884   7.519  2.4049 -0.9272 -2.1191
   92MOL0     H12384   7.725   3.373   7.602  2.5772 -1.2792 -0.6125
   92MOL0     H12385   7.480   3.366   7.523 -1.3299 -0.9298 -2.5300
   92MOL0     H12386   7.317   3.016   7.631  1.0850  0.1949  0.4733
   92MOL0     H12387   7.191   3.133   7.601  2.5351  3.2789 -1.7756
   92MOL0     H12388   7.237   2.899   7.411 -1.3260  0.1399 -0.3721
   92MOL0     H12389   7.113   2.923   7.541 -1.1730  1.2466  1.0040
   92MOL0     H12390   7.151   3.093   7.284  1.4583 -2.5951 -1.4814
   92MOL0     H12391   7.049   3.152   7.416 -0.1226  1.7648 -3.7265
   92MOL0     H12392   7.031   2.883   7.267  1.9780 -0.0907  1.5320
   92MOL0     H12393   6.916   2.927   7.382 -0.4047  0.6025  0.7842
   92MOL0     H12394   6.961   3.065   7.119 -0.4078 -2.5092 -0.2332
   92MOL0     H12395   6.859   3.139   7.230  0.6893 -0.1372  1.6957
   92MOL0     H12396   6.835   2.853   7.131 -0.2274 -0.5348 -0.4801
   92MOL0     H12397   6.721   2.910   7.244 -0.2720 -2.2527 -0.1845
   92MOL0     H12398   6.783   3.031   6.971  0.1868 -1.6679 -0.6896
   92MOL0     H12399   6.669   3.102   7.082 -0.3024 -1.4014  1.4538
   92MOL0     H12400   6.513   2.915   7.088  0.2464  0.7734  0.8909
   92MOL0     H12401   6.621   2.819   6.984 -0.3620  0.3462  0.8029
   92MOL0     H12402   7.515   2.935   7.480 -0.3409  0.6293 -1.2658
   92MOL0     H12403   7.734   2.944   7.537 -0.9077 -0.4914  1.6487
   92MOL0     H12404   8.071   3.337   7.676 -0.3904 -0.5475  0.1490
   92MOL0     H12405   8.288   3.399   7.755  0.9521 -0.6780  2.5134
   92MOL0     H12406  10.338   3.006   8.180 -0.7947  0.0772 -1.9213
   92MOL0     H12407  10.504   2.937   8.356  1.0441 -2.9505  0.6808
   92MOL0     H12408  10.650   3.000   8.846 -1.9666  0.0243 -0.1389
   92MOL0     H12409  10.799   2.932   8.985  1.7596  0.4749 -3.4709
   92MOL0     H12410  11.023   2.745   8.992 -0.8850 -0.8219 -0.1565
   92MOL0     H12411  11.011   2.688   9.167 -0.3350 -0.2824  0.1085
   92MOL0     H12412  10.996   2.515   8.916 -0.9568  0.4837  1.1488
   92MOL0     H12413  10.990   2.469   9.088 -1.0245  0.3972  0.6170
   92MOL0     H12414  11.217   2.601   9.111  0.0978  0.6534 -1.5915
   92MOL0     H12415  11.220   2.600   8.942  2.2279 -0.7034  0.3952
   92MOL0     H12416  11.234   2.351   8.930  3.8177 -1.5021  0.2089
   92MOL0     H12417  11.216   2.337   9.101  0.3891  0.8570  2.2715
   92MOL0     H12418  11.624   2.391   9.088  0.4477  1.1499 -1.1439
   92MOL0     H12419  10.697   2.515   8.926 -1.5578 -0.5803  0.2182
   92MOL0     H12420  10.538   2.594   8.733  0.6323  0.5634 -1.2913
   93MOL0     O12421   9.183  11.059  10.403 -0.0443 -0.0314  0.3131
   93MOL0     C12422   9.237  11.135  10.323  0.6722  0.8124 -1.2144
   93MOL0     O12423   9.207  11.139  10.190  0.0702 -0.7284  0.6396
   93MOL0     C12424   9.088  11.079  10.160 -0.2487 -0.3217 -0.1208
   93MOL0     C12425   9.088  10.947  10.117 -0.2184 -0.1570 -0.5419
   93MOL0     C12426   8.964  10.885  10.087  0.3020  0.4721 -0.0523
   93MOL0     C12427   8.845  10.944  10.118 -0.1894 -0.5623  0.5128
   93MOL0     O12428   8.737  10.870  10.100 -0.4060  0.4566  0.3487
   93MOL0     C12429   8.612  10.902  10.159  0.0899  0.9764  0.5758
   93MOL0     C12430   8.514  10.791  10.121 -0.0641 -0.9599 -0.1235
   93MOL0     C12431   8.395  10.802  10.212  0.4375 -0.1062 -0.2983
   93MOL0     C12432   8.300  10.696  10.187  0.3622  0.1966  0.7467
   93MOL0     C12433   8.193  10.677  10.292 -1.4687 -0.1000  0.2482
   93MOL0     C12434   8.108  10.557  10.259  0.1747 -0.3794 -0.2463
   93MOL0     C12435   7.986  10.534  10.358 -1.0079 -0.1832  0.3297
   93MOL0     C12436   7.894  10.430  10.294 -0.0183  0.3740  0.2696
   93MOL0     N12437   7.777  10.392  10.379 -0.1894 -0.5773  0.4720
   93MOL0     C12438   7.725  10.270  10.395 -0.7981  0.5048  0.5434
   93MOL0     C12439   7.608  10.289  10.461 -0.0087  0.4551 -0.0567
   93MOL0     C12440   7.508  10.180  10.509 -0.4256 -0.0736  1.3614
   93MOL0     C12441   7.431  10.211  10.630  0.6460  0.5863 -0.0465
   93MOL0     C12442   7.335  10.092  10.663  0.4820  0.1847 -0.6625
   93MOL0     C12443   7.289  10.077  10.807 -0.4162  0.2330 -0.1033
   93MOL0     O12444   7.216  10.186  10.857  0.2546 -0.0113  0.2970
   93MOL0     C12445   7.075  10.176  10.875 -0.4122 -0.4254  0.4300
   93MOL0     C12446   7.017  10.235  10.987  0.2590 -0.9584  0.0706
   93MOL0     C12447   6.885  10.225  11.017  0.8331  0.2764 -0.0083
   93MOL0     C12448   6.830  10.306  11.132 -0.2529 -0.0178  0.0935
   93MOL0     C12449   6.797  10.147  10.934  0.5258 -0.0881  0.1029
   93MOL0     C12450   6.650  10.128  10.962  0.0844  0.3943  0.1272
   93MOL0     O12451   6.570  10.087  10.854  0.1442  0.1712  0.1622
   93MOL0     C12452   6.435  10.057  10.873  0.3080 -0.1088 -0.4514
   93MOL0     C12453   6.389   9.985  10.986 -0.1248 -0.3276 -0.2294
   93MOL0     C12454   6.253   9.954  10.992 -0.4659 -1.0194  0.8355
   93MOL0     C12455   6.163   9.993  10.895  0.9752 -0.3801 -0.1767
   93MOL0     O12456   6.027   9.960  10.896 -0.7703 -0.2208 -0.0419
   93MOL0     C12457   5.969   9.884  11.007 -0.4414  0.1492 -0.3884
   93MOL0     C12458   5.853   9.808  10.946 -0.2859  0.6040 -0.6642
   93MOL0     C12459   5.742   9.874  10.875 -0.2130 -0.0355  0.3991
   93MOL0     C12460   5.615   9.789  10.880  0.0783  0.7678 -0.6202
   93MOL0     C12461   5.492   9.818  10.791 -0.5780 -0.7326 -0.2319
   93MOL0     C12462   5.384   9.710  10.804 -0.4705 -0.5589 -0.3180
   93MOL0     C12463   5.263   9.734  10.708  0.5725 -0.8014 -0.9149
   93MOL0     C12464   5.136   9.657  10.743  0.6307  0.1303 -0.6832
   93MOL0    Cl12465   5.168   9.479  10.728  0.3770  0.1238  0.5063
   93MOL0     C12466   6.207  10.070  10.782  0.0938  0.1896  0.3917
   93MOL0     C12467   6.346  10.100  10.769 -0.0360 -0.0697  0.0097
   93MOL0     O12468   6.609  10.146  11.080 -0.7350  0.0190  1.1781
   93MOL0     C12469   6.851  10.087  10.821  0.0249  0.1133  0.5746
   93MOL0     C12470   6.993  10.102  10.793  0.4843 -0.0404  0.0197
   93MOL0     N12471   7.591  10.425  10.485  0.1245  0.4487  0.0472
   93MOL0     N12472   7.696  10.479  10.444 -0.2668  0.2233  0.5823
   93MOL0     C12473   8.846  11.079  10.167 -0.1757 -0.3039  0.0987
   93MOL0     C12474   8.967  11.148  10.178  0.3105  0.7473  0.0404
   93MOL0     C12475   9.346  11.216  10.376  0.4612 -0.2149  0.4299
   93MOL0     C12476   9.375  11.244  10.511 -1.1058  0.7432 -0.0763
   93MOL0     C12477   9.492  11.317  10.548 -0.0279  0.0485  0.3088
   93MOL0     C12478   9.584  11.372  10.454  0.1487  0.0559  0.7102
   93MOL0     O12479   9.694  11.440  10.498 -0.3441 -0.5067 -0.2495
   93MOL0     C12480   9.796  11.466  10.401 -0.2422  0.5888 -1.0636
   93MOL0     C12481   9.905  11.556  10.462  0.1335 -0.5245  0.6036
   93MOL0     C12482   9.982  11.474  10.570 -0.0650  0.5578  0.1958
   93MOL0     C12483  10.061  11.563  10.659 -0.7031  0.1782 -0.0658
   93MOL0     C12484  10.175  11.605  10.588 -0.1428 -0.7295 -0.0700
   93MOL0     C12485  10.275  11.625  10.522 -0.3873 -0.4909 -0.2951
   93MOL0     C12486   9.551  11.349  10.317  0.0930 -0.3930 -0.5775
   93MOL0     C12487   9.439  11.274  10.280 -0.1999  0.5028  0.3410
   93MOL0     H12488   9.177  10.889  10.096  0.6694 -0.8602  4.1920
   93MOL0     H12489   8.968  10.793  10.029  1.6754  0.2935  0.2817
   93MOL0     H12490   8.628  10.903  10.267  0.9285 -2.0984  0.5886
   93MOL0     H12491   8.576  10.996  10.118 -1.1889 -0.2081 -1.1743
   93MOL0     H12492   8.494  10.800  10.014 -0.8651  1.9809  0.1636
   93MOL0     H12493   8.558  10.694  10.147  1.0252  0.0656  2.1624
   93MOL0     H12494   8.420  10.797  10.318 -2.6488 -0.7011  0.5164
   93MOL0     H12495   8.352  10.902  10.197  0.0306  0.0099  1.3818
   93MOL0     H12496   8.251  10.726  10.094 -0.3036  0.4778  1.1872
   93MOL0     H12497   8.356  10.603  10.167  0.7763  0.5503  0.2107
   93MOL0     H12498   8.251  10.667  10.384 -2.3259  0.3116  0.8534
   93MOL0     H12499   8.132  10.767  10.304 -1.8238 -0.1826 -0.8285
   93MOL0     H12500   8.065  10.567  10.159 -0.3996  1.3864  0.1385
   93MOL0     H12501   8.169  10.467  10.263 -0.7304 -0.9689  2.3277
   93MOL0     H12502   8.027  10.502  10.455  2.7057 -0.1990 -1.0998
   93MOL0     H12503   7.934  10.630  10.370  2.6204  2.1978 -1.1558
   93MOL0     H12504   7.945  10.337  10.269 -2.6034 -0.6766 -1.4976
   93MOL0     H12505   7.856  10.466  10.198 -3.1037 -2.7297  0.1656
   93MOL0     H12506   7.745  10.175  10.348 -2.4720  0.7210 -0.6617
   93MOL0     H12507   7.441  10.163  10.425 -0.9816  1.0741  1.5599
   93MOL0     H12508   7.566  10.087  10.517 -0.9485 -0.6154 -0.6189
   93MOL0     H12509   7.381  10.308  10.621 -0.7073  0.3919  3.6418
   93MOL0     H12510   7.509  10.213  10.707  0.2550 -1.4095  0.4622
   93MOL0     H12511   7.388   9.997  10.649  0.7113  0.1893  0.1612
   93MOL0     H12512   7.261  10.094  10.582 -0.3767  3.1643  0.0702
   93MOL0     H12513   7.376  10.062  10.871 -0.9738  1.3209  0.9532
   93MOL0     H12514   7.233   9.984  10.819  1.9097 -1.3989 -1.0183
   93MOL0     H12515   7.087  10.287  11.051  0.1680 -1.0402  0.2372
   93MOL0     H12516   6.901  10.381  11.167 -0.6728 -0.3018  1.6640
   93MOL0     H12517   6.736  10.355  11.105  0.0615  0.8130  0.4569
   93MOL0     H12518   6.807  10.241  11.217 -2.1315  1.1319  0.5462
   93MOL0     H12519   6.451   9.956  11.070 -1.3406 -1.6193  0.2568
   93MOL0     H12520   6.221   9.909  11.086  1.2748 -0.4828  1.7307
   93MOL0     H12521   6.037   9.813  11.054 -0.4013  0.1895 -0.3855
   93MOL0     H12522   5.943   9.959  11.082  0.2798 -0.1393  0.1570
   93MOL0     H12523   5.890   9.733  10.876  0.5579 -0.2833  0.6818
   93MOL0     H12524   5.800   9.763  11.031  0.3711  1.7349  0.3746
   93MOL0     H12525   5.771   9.889  10.771  1.6523 -0.6460  0.8033
   93MOL0     H12526   5.720   9.970  10.921 -2.1609  1.0957 -2.5470
   93MOL0     H12527   5.643   9.687  10.853  1.8466 -0.0144  3.5134
   93MOL0     H12528   5.581   9.785  10.984 -1.5839  0.0040 -1.1470
   93MOL0     H12529   5.529   9.831  10.689 -1.1193 -1.3169 -0.5126
   93MOL0     H12530   5.449   9.906  10.838 -1.6112 -2.0223  1.3424
   93MOL0     H12531   5.441   9.625  10.765  3.2503  0.8090  1.6558
   93MOL0     H12532   5.356   9.698  10.909  0.0858 -0.7773 -0.1930
   93MOL0     H12533   5.295   9.707  10.607 -2.5676 -0.7103 -2.0475
   93MOL0     H12534   5.243   9.841  10.707 -0.4109 -0.9369  0.6998
   93MOL0     H12535   5.048   9.691  10.688  0.2381 -0.6421 -0.5365
   93MOL0     H12536   5.113   9.678  10.848 -0.2640 -2.2690 -0.3625
   93MOL0     H12537   6.128  10.091  10.711  0.5044  1.1139  0.1933
   93MOL0     H12538   6.379  10.157  10.683 -0.2986 -1.5223 -1.0954
   93MOL0     H12539   6.789  10.040  10.745  1.8711  1.3990 -1.8581
   93MOL0     H12540   7.038  10.060  10.704  0.4118 -0.3348  0.1196
   93MOL0     H12541   8.758  11.138  10.190 -2.0459 -2.6357 -0.5681
   93MOL0     H12542   8.976  11.248  10.219  0.3840  1.5585 -1.8859
   93MOL0     H12543   9.318  11.206  10.594  0.3227 -0.8052  0.2680
   93MOL0     H12544   9.523  11.314  10.652 -1.7797 -0.9039  0.8627
   93MOL0     H12545   9.841  11.375  10.359 -0.0564  0.8768 -1.4948
   93MOL0     H12546   9.742  11.520  10.323 -1.7595 -2.2468 -2.1337
   93MOL0     H12547   9.864  11.649  10.502  0.8141  0.0472  0.0121
   93MOL0     H12548   9.969  11.587  10.379  0.0079  2.1538  1.4165
   93MOL0     H12549  10.038  11.390  10.528 -2.9701 -0.5149 -1.8508
   93MOL0     H12550   9.910  11.426  10.637  1.0430  0.6971  1.5490
   93MOL0     H12551  10.090  11.513  10.752  2.2989  2.0154  0.0872
   93MOL0     H12552  10.002  11.651  10.685 -2.2643 -1.2308  1.4539
   93MOL0     H12553  10.364  11.646  10.466  0.1532 -1.4726  0.1696
   93MOL0     H12554   9.609  11.398  10.239  0.9754  0.7411  0.7435
   93MOL0     H12555   9.417  11.261  10.174 -0.7324 -1.4635  0.6603
   94MOL0     O12556   9.460   6.737   5.692 -0.3780 -0.0142  0.4667
   94MOL0     C12557   9.519   6.660   5.754 -0.4847 -0.6337  0.2028
   94MOL0     O12558   9.468   6.540   5.804 -0.0958  0.7906 -0.4610
   94MOL0     C12559   9.334   6.523   5.785 -0.0678  0.3718 -0.8140
   94MOL0     C12560   9.266   6.531   5.658 -0.4031  0.1696  0.0706
   94MOL0     C12561   9.135   6.485   5.646  0.9792  0.0701 -0.8157
   94MOL0     C12562   9.060   6.439   5.759 -0.6545  0.2655 -0.8876
   94MOL0     O12563   8.934   6.411   5.761  0.7416 -0.2788 -0.1253
   94MOL0     C12564   8.884   6.324   5.657  0.1235 -0.1828 -0.6043
   94MOL0     C12565   8.734   6.324   5.674  0.3225  0.5320  0.2605
   94MOL0     C12566   8.697   6.258   5.810  0.8202 -0.2382 -0.5560
   94MOL0     C12567   8.552   6.210   5.801 -0.3005  0.1050 -0.1092
   94MOL0     C12568   8.507   6.154   5.931 -0.2810 -0.1000 -0.3013
   94MOL0     C12569   8.359   6.120   5.934  0.5013 -0.0511  0.1520
   94MOL0     C12570   8.273   6.241   5.923  0.7074  0.3273 -0.1397
   94MOL0     C12571   8.121   6.215   5.955 -0.6563  0.2954  0.1688
   94MOL0     N12572   8.056   6.096   5.884 -0.4259 -0.5262  1.5721
   94MOL0     C12573   8.078   6.058   5.755  0.4493  0.6031  0.0690
   94MOL0     C12574   8.022   5.930   5.752  0.0929  0.0667 -0.7750
   94MOL0     C12575   7.990   5.853   5.632  0.1546 -0.9171  0.0050
   94MOL0     C12576   7.842   5.881   5.606  0.0469 -0.5566  0.1544
   94MOL0     C12577   7.803   5.822   5.467  0.1995  0.7575 -0.4115
   94MOL0     C12578   7.655   5.855   5.416 -0.5055 -0.1237  0.0419
   94MOL0     O12579   7.545   5.837   5.504  0.1341 -0.0659 -0.5419
   94MOL0     C12580   7.420   5.893   5.469  0.6203 -0.6083  0.2690
   94MOL0     C12581   7.393   5.973   5.358 -0.6663  0.5237  0.0074
   94MOL0     C12582   7.272   6.023   5.315 -0.4850 -0.3926  0.7751
   94MOL0     C12583   7.262   6.117   5.202 -0.7135 -0.2032 -0.2814
   94MOL0     C12584   7.154   5.995   5.387  0.2215 -0.2694 -0.3587
   94MOL0     C12585   7.011   6.032   5.353 -0.7329 -0.4832  0.1146
   94MOL0     O12586   6.909   5.960   5.414 -0.2395  0.2385  0.3833
   94MOL0     C12587   6.795   6.017   5.463 -0.2221  0.3727  0.6462
   94MOL0     C12588   6.685   6.021   5.379  0.5971 -0.2597 -0.1772
   94MOL0     C12589   6.563   6.067   5.420  0.2968 -0.0141 -0.1956
   94MOL0     C12590   6.550   6.116   5.553  0.2008 -0.4928 -0.0969
   94MOL0     O12591   6.441   6.166   5.627 -0.2544  0.0748 -0.1466
   94MOL0     C12592   6.309   6.120   5.577 -0.7760 -0.4007  0.1149
   94MOL0     C12593   6.204   6.165   5.677  0.3475  0.2273  0.0165
   94MOL0     C12594   6.207   6.073   5.800 -0.6593  0.0863 -0.0565
   94MOL0     C12595   6.111   6.149   5.893 -0.4437  0.2047 -0.3661
   94MOL0     C12596   6.079   6.066   6.016  1.0975 -0.0102  0.5590
   94MOL0     C12597   5.969   5.953   5.988 -0.2792 -0.1359  0.0932
   94MOL0     C12598   5.963   5.851   6.102  0.1266  0.0495 -0.1176
   94MOL0     C12599   5.825   5.771   6.100 -0.1654  0.2394  0.0071
   94MOL0    Cl12600   5.680   5.862   6.141 -0.2764 -0.2702 -0.0738
   94MOL0     C12601   6.667   6.120   5.630 -0.7072  0.6430 -0.6444
   94MOL0     C12602   6.789   6.067   5.588 -0.6178 -0.3582  0.0718
   94MOL0     O12603   6.987   6.118   5.270  0.2814  0.5009  0.0719
   94MOL0     C12604   7.172   5.915   5.502  0.3757  0.1002 -0.7944
   94MOL0     C12605   7.302   5.861   5.537  0.6842  0.5822 -0.0797
   94MOL0     N12606   7.994   5.897   5.880 -0.2312 -0.2675 -1.5499
   94MOL0     N12607   8.009   5.996   5.964 -0.1495 -1.0601 -0.3252
   94MOL0     C12608   9.137   6.435   5.879  0.4741  0.1442 -0.3516
   94MOL0     C12609   9.265   6.473   5.896 -0.1405 -0.3637  0.1671
   94MOL0     C12610   9.664   6.666   5.781 -0.5744 -0.0325  0.7570
   94MOL0     C12611   9.742   6.768   5.715  0.7722  0.7816 -0.8234
   94MOL0     C12612   9.881   6.763   5.716 -0.8717  0.4545  0.0204
   94MOL0     C12613   9.949   6.659   5.786  0.4713 -0.5853  0.6050
   94MOL0     O12614  10.081   6.643   5.798 -0.2245  0.0095  0.0377
   94MOL0     C12615  10.171   6.744   5.754  0.5580  0.2518 -0.5453
   94MOL0     C12616  10.245   6.719   5.623 -0.1855 -0.0250  0.2253
   94MOL0     C12617  10.156   6.766   5.507 -0.1114  0.2211 -0.0970
   94MOL0     C12618  10.223   6.752   5.377  0.1901  0.2343  0.5690
   94MOL0     C12619  10.126   6.723   5.272  0.1847 -0.2046  0.1777
   94MOL0     C12620  10.040   6.700   5.196  0.7085 -0.3452  1.1584
   94MOL0     C12621   9.873   6.558   5.848  0.8633  0.5628  0.1119
   94MOL0     C12622   9.735   6.567   5.848 -0.1723 -0.3509 -0.2262
   94MOL0     H12623   9.319   6.563   5.568  1.8281  0.4099  1.4080
   94MOL0     H12624   9.077   6.497   5.555 -0.3656  0.2013  0.0366
   94MOL0     H12625   8.910   6.358   5.556 -2.2479 -0.0387 -1.2280
   94MOL0     H12626   8.922   6.223   5.675 -1.2260 -0.6598 -0.3443
   94MOL0     H12627   8.705   6.429   5.677  0.1416  0.5741 -1.6606
   94MOL0     H12628   8.694   6.269   5.589  0.2959 -0.3955  0.8490
   94MOL0     H12629   8.761   6.172   5.834  0.5589 -0.1249  0.6238
   94MOL0     H12630   8.699   6.331   5.892 -6.5313  2.1542 -1.7654
   94MOL0     H12631   8.502   6.304   5.778 -2.8379 -0.4420  2.5857
   94MOL0     H12632   8.535   6.131   5.727  1.4932 -1.9167  1.4977
   94MOL0     H12633   8.561   6.061   5.951 -1.1701 -0.5445  0.0683
   94MOL0     H12634   8.539   6.222   6.010 -0.6585  0.1050 -0.3205
   94MOL0     H12635   8.329   6.047   5.857 -1.4806  1.5304 -0.6689
   94MOL0     H12636   8.331   6.077   6.030 -1.4840 -1.6258 -1.0482
   94MOL0     H12637   8.312   6.324   5.982  3.0816  0.8568 -2.2677
   94MOL0     H12638   8.271   6.274   5.818  1.0969 -0.2829 -0.3489
   94MOL0     H12639   8.075   6.309   5.921  0.2723  0.0045 -2.1085
   94MOL0     H12640   8.091   6.218   6.060 -1.4525 -0.4550 -0.0274
   94MOL0     H12641   8.116   6.116   5.672 -0.5261  1.4735  0.2117
   94MOL0     H12642   8.052   5.893   5.552  3.0162 -1.8365  1.6442
   94MOL0     H12643   8.012   5.747   5.647 -0.3842 -0.7852  2.1120
   94MOL0     H12644   7.821   5.988   5.598 -1.3703 -0.5505  2.7814
   94MOL0     H12645   7.771   5.846   5.682  0.8804 -0.9060  0.7763
   94MOL0     H12646   7.825   5.715   5.473  0.6488  0.8506 -0.3545
   94MOL0     H12647   7.863   5.846   5.378 -0.4601 -0.1957 -1.1367
   94MOL0     H12648   7.648   5.789   5.329  1.3607 -0.8618  0.4028
   94MOL0     H12649   7.660   5.961   5.392 -1.8471 -0.1697 -0.5366
   94MOL0     H12650   7.479   6.001   5.298 -1.5427 -0.9950 -2.1174
   94MOL0     H12651   7.196   6.078   5.123  0.0495 -1.4416 -0.3359
   94MOL0     H12652   7.215   6.210   5.234 -2.7401 -1.3968  0.3959
   94MOL0     H12653   7.366   6.119   5.168 -0.3374 -4.0310  0.1196
   94MOL0     H12654   6.686   5.979   5.280 -1.7247  0.4798 -0.5842
   94MOL0     H12655   6.481   6.068   5.349  0.6645  6.6961 -1.1983
   94MOL0     H12656   6.299   6.163   5.477 -3.1478 -1.4432 -0.1692
   94MOL0     H12657   6.308   6.011   5.579  1.4674 -0.5002  2.5587
   94MOL0     H12658   6.219   6.271   5.703 -0.1568  0.3511 -0.1944
   94MOL0     H12659   6.103   6.170   5.635  0.4067 -0.9208 -0.2796
   94MOL0     H12660   6.304   6.057   5.847 -0.5476 -0.0243 -0.3256
   94MOL0     H12661   6.170   5.975   5.769  1.2745 -1.5777  2.4813
   94MOL0     H12662   6.159   6.242   5.925 -0.0096  0.4961 -1.7974
   94MOL0     H12663   6.016   6.167   5.843 -2.4947 -0.1445  3.1006
   94MOL0     H12664   6.041   6.123   6.102 -0.8856 -0.2440 -0.1094
   94MOL0     H12665   6.166   6.013   6.056  1.1412 -0.0320  0.4358
   94MOL0     H12666   5.870   5.999   5.976 -0.3808  0.2201  1.9313
   94MOL0     H12667   5.997   5.901   5.897  0.9101  0.5849  0.0250
   94MOL0     H12668   5.971   5.906   6.196 -0.1480  1.9768 -1.1742
   94MOL0     H12669   6.051   5.786   6.103  1.1561  1.3751  1.7225
   94MOL0     H12670   5.827   5.679   6.159 -2.3948  0.4690  0.5211
   94MOL0     H12671   5.802   5.735   5.999 -0.3308  0.2293  0.0469
   94MOL0     H12672   6.668   6.173   5.725  1.9886 -2.8423  1.5621
   94MOL0     H12673   6.872   6.062   5.658  0.8306  0.3580 -1.5207
   94MOL0     H12674   7.086   5.881   5.559  0.7852  3.0300  1.8237
   94MOL0     H12675   7.314   5.797   5.624  1.8297 -1.2725 -1.5447
   94MOL0     H12676   9.087   6.404   5.970  0.5604  1.4301  0.1646
   94MOL0     H12677   9.321   6.474   5.989 -0.2941 -1.4432  0.2867
   94MOL0     H12678   9.694   6.837   5.647 -0.1480 -0.1239 -1.1224
   94MOL0     H12679   9.931   6.841   5.661 -0.4576  0.2154  0.0555
   94MOL0     H12680  10.121   6.841   5.744  1.1142  0.8726  1.9832
   94MOL0     H12681  10.241   6.755   5.838 -0.2316 -1.0085  0.3127
   94MOL0     H12682  10.269   6.613   5.608  0.0780  0.2277 -1.3443
   94MOL0     H12683  10.338   6.777   5.617 -1.0561  1.4231  0.2834
   94MOL0     H12684  10.118   6.867   5.519 -1.2319 -0.3071  1.0320
   94MOL0     H12685  10.070   6.698   5.514  0.2553 -0.2025  0.3263
   94MOL0     H12686  10.300   6.674   5.375  0.4039  0.3740 -2.7941
   94MOL0     H12687  10.279   6.845   5.366 -2.1969  1.7516  0.6461
   94MOL0     H12688   9.954   6.715   5.133  2.2694 -0.3043 -1.0702
   94MOL0     H12689   9.928   6.486   5.908 -0.3249  0.4112  1.0775
   94MOL0     H12690   9.669   6.498   5.899 -2.7352  1.3256 -1.0735
   95MOL0     O12691   1.495   1.099   4.340  0.0110 -0.2322  0.4545
   95MOL0     C12692   1.447   1.214   4.344 -0.3437 -0.6247 -1.0393
   95MOL0     O12693   1.320   1.243   4.337  0.6528 -0.2755 -0.0463
   95MOL0     C12694   1.231   1.138   4.321  0.5356  0.7319  0.1563
   95MOL0     C12695   1.188   1.049   4.420  0.7734  0.3949 -0.3753
   95MOL0     C12696   1.107   0.943   4.392 -0.7395  0.5493 -0.3298
   95MOL0     C12697   1.040   0.926   4.271  0.1307 -0.2147 -0.2489
   95MOL0     O12698   0.951   0.830   4.228  0.5630  0.0823  0.5699
   95MOL0     C12699   0.912   0.730   4.319 -0.4115 -0.1631 -0.7888
   95MOL0     C12700   0.828   0.616   4.260 -0.0489  0.5248  0.1224
   95MOL0     C12701   0.711   0.659   4.177 -0.1517  0.0783 -0.5085
   95MOL0     C12702   0.652   0.538   4.102 -0.6906  0.1113 -0.0304
   95MOL0     C12703   0.513   0.562   4.055  0.0059  0.6511  0.4359
   95MOL0     C12704   0.497   0.689   3.965  0.5189 -0.2340  0.2572
   95MOL0     C12705   0.347   0.715   3.936 -0.7720 -0.6219  0.1244
   95MOL0     C12706   0.332   0.820   3.823  0.5206 -0.1662  0.3122
   95MOL0     N12707   0.186   0.845   3.792  0.5923 -0.0252 -0.8899
   95MOL0     C12708   0.113   0.965   3.788  0.0769  0.7056 -0.1618
   95MOL0     C12709  -0.026   0.934   3.769 -0.6281  0.1536  0.0902
   95MOL0     C12710  -0.150   1.018   3.752 -0.8390  0.6073  0.0518
   95MOL0     C12711  -0.126   1.136   3.664 -0.2474  0.1374 -0.1127
   95MOL0     C12712  -0.077   1.248   3.764 -0.1636  0.4951  1.5599
   95MOL0     C12713  -0.025   1.374   3.693  0.0545 -1.0629  0.2596
   95MOL0     O12714  -0.123   1.435   3.604 -0.6325 -0.5042  0.5145
   95MOL0     C12715  -0.219   1.522   3.651  0.0189 -0.1267  0.1073
   95MOL0     C12716  -0.285   1.585   3.547  0.2955  0.5073  0.0441
   95MOL0     C12717  -0.408   1.662   3.577 -0.2589  0.0646  0.3036
   95MOL0     C12718  -0.467   1.729   3.455  0.2725 -0.0109 -0.6161
   95MOL0     C12719  -0.454   1.671   3.706 -0.0358  0.1824  0.4881
   95MOL0     C12720  -0.588   1.734   3.751 -1.0318 -0.3709  1.2042
   95MOL0     O12721  -0.650   1.812   3.659 -0.2917 -0.8737  0.9032
   95MOL0     C12722  -0.780   1.851   3.695 -0.5377  0.2182 -0.6691
   95MOL0     C12723  -0.812   1.983   3.668 -0.0841  1.0441  0.0473
   95MOL0     C12724  -0.953   2.018   3.684  0.3518 -0.4012  0.1579
   95MOL0     C12725  -1.051   1.932   3.730 -0.3701 -0.8944  0.1906
   95MOL0     O12726  -1.173   1.976   3.749  0.2551 -0.0686  0.6775
   95MOL0     C12727  -1.262   1.955   3.641  0.4363 -0.0590  0.0843
   95MOL0     C12728  -1.411   1.938   3.698  0.0450  0.0904  0.3261
   95MOL0     C12729  -1.512   1.897   3.597 -0.0718 -0.0742 -0.2954
   95MOL0     C12730  -1.649   1.907   3.656 -0.7544  0.2802 -0.1668
   95MOL0     C12731  -1.762   1.859   3.558 -0.0184 -0.6763  0.3052
   95MOL0     C12732  -1.902   1.856   3.634  0.1670 -0.0431 -0.2963
   95MOL0     C12733  -1.971   1.996   3.616 -0.0764  0.4567 -0.2196
   95MOL0     C12734  -1.972   2.076   3.745 -0.5851  0.1330 -0.7781
   95MOL0    Cl12735  -2.031   1.981   3.877  0.0902 -0.5022 -0.0458
   95MOL0     C12736  -1.006   1.798   3.760  0.6400 -0.3013 -0.0371
   95MOL0     C12737  -0.877   1.757   3.729 -0.4061 -0.2865 -0.4950
   95MOL0     O12738  -0.627   1.708   3.864 -0.0387  0.1731  0.4366
   95MOL0     C12739  -0.377   1.620   3.807 -0.0545 -0.8134  0.2135
   95MOL0     C12740  -0.257   1.552   3.787 -0.2198  0.1029  1.0507
   95MOL0     N12741  -0.032   0.797   3.755  0.3154  0.6367  0.0050
   95MOL0     N12742   0.090   0.746   3.778  0.4580 -0.3807 -0.1566
   95MOL0     C12743   1.082   1.020   4.169 -0.3831  0.4929 -0.0571
   95MOL0     C12744   1.170   1.121   4.196 -1.0206  0.6341  0.0569
   95MOL0     C12745   1.540   1.323   4.363  0.6425  0.2490  0.6128
   95MOL0     C12746   1.492   1.442   4.420  0.0647 -0.5048  0.0889
   95MOL0     C12747   1.574   1.547   4.457 -0.5708 -0.5520  0.3841
   95MOL0     C12748   1.709   1.537   4.431 -0.1962 -0.8687  0.0832
   95MOL0     O12749   1.787   1.643   4.474  0.4691  0.1908  0.7495
   95MOL0     C12750   1.924   1.651   4.456 -0.4897  0.3052 -0.0517
   95MOL0     C12751   1.961   1.674   4.309 -1.0565 -0.4776  0.3984
   95MOL0     C12752   1.928   1.814   4.268 -0.5240 -0.2735  0.0139
   95MOL0     C12753   1.880   1.825   4.121 -0.4979  0.1316 -0.0630
   95MOL0     C12754   1.991   1.770   4.037 -0.0642 -0.6220 -0.2811
   95MOL0     C12755   2.080   1.715   3.972 -0.2467 -0.5237 -0.3058
   95MOL0     C12756   1.760   1.423   4.374  0.9765  0.1809  0.1631
   95MOL0     C12757   1.676   1.315   4.335  0.5636  0.4793 -0.4715
   95MOL0     H12758   1.225   1.070   4.520 -2.6991 -1.8267  1.5674
   95MOL0     H12759   1.075   0.881   4.475  0.4702 -1.0168 -0.9887
   95MOL0     H12760   1.007   0.693   4.359 -0.9085  1.1081  1.8583
   95MOL0     H12761   0.868   0.779   4.407  2.5481  0.0524  0.7020
   95MOL0     H12762   0.898   0.556   4.202  0.9982  0.3749  1.4829
   95MOL0     H12763   0.801   0.553   4.346  1.4202 -0.5225 -0.1514
   95MOL0     H12764   0.634   0.696   4.246 -1.1516 -1.3640 -0.8113
   95MOL0     H12765   0.739   0.742   4.111 -2.4840  0.4327 -1.1428
   95MOL0     H12766   0.721   0.516   4.021  2.2263  0.1553  2.2499
   95MOL0     H12767   0.661   0.460   4.179  0.4452 -0.7010 -0.9588
   95MOL0     H12768   0.486   0.472   4.000  4.9665 -1.9954  1.7805
   95MOL0     H12769   0.449   0.560   4.144  0.6262 -1.9115  0.8906
   95MOL0     H12770   0.544   0.777   4.010  1.1974 -0.3803 -0.1595
   95MOL0     H12771   0.538   0.670   3.865 -2.3475  0.0860 -1.1118
   95MOL0     H12772   0.308   0.623   3.891 -1.8714  0.6457 -1.6669
   95MOL0     H12773   0.298   0.743   4.030 -0.7892  2.1203 -0.6229
   95MOL0     H12774   0.379   0.789   3.729  0.5064 -0.3336  0.3592
   95MOL0     H12775   0.380   0.914   3.851 -1.2784 -0.2144  4.1406
   95MOL0     H12776   0.150   1.067   3.793 -0.6325  0.9432  0.4475
   95MOL0     H12777  -0.228   0.953   3.711 -0.0637 -1.3132  1.4518
   95MOL0     H12778  -0.191   1.043   3.850  1.4379 -2.8679  2.1176
   95MOL0     H12779  -0.222   1.168   3.622 -0.6555 -0.7514  0.1102
   95MOL0     H12780  -0.042   1.115   3.597  1.1972  0.9077  1.3918
   95MOL0     H12781   0.014   1.213   3.814  0.7639 -0.1796 -0.5044
   95MOL0     H12782  -0.159   1.276   3.831 -0.3255  3.4338  0.3047
   95MOL0     H12783   0.066   1.353   3.637  0.6527 -0.4804  0.9987
   95MOL0     H12784  -0.007   1.455   3.764 -0.7761 -0.2788 -0.3969
   95MOL0     H12785  -0.232   1.585   3.452  1.3632 -0.9353  0.5913
   95MOL0     H12786  -0.404   1.708   3.368 -2.3175 -1.3976 -2.2696
   95MOL0     H12787  -0.568   1.698   3.428 -0.7758  2.1545  0.6254
   95MOL0     H12788  -0.468   1.837   3.470 -2.3236  0.5489 -3.7145
   95MOL0     H12789  -0.727   2.043   3.639  3.9802 -3.1776  1.9120
   95MOL0     H12790  -0.986   2.120   3.666 -1.0061 -0.5342  1.6941
   95MOL0     H12791  -1.263   2.039   3.570  1.7200  1.6713  1.9955
   95MOL0     H12792  -1.230   1.867   3.585 -0.1201  0.7446 -1.5714
   95MOL0     H12793  -1.407   1.858   3.773  0.2642  2.3713  2.9306
   95MOL0     H12794  -1.448   2.028   3.748  0.4332  1.8440 -2.3890
   95MOL0     H12795  -1.492   1.791   3.580  3.5590  0.4193  0.0598
   95MOL0     H12796  -1.507   1.952   3.502 -1.9771 -1.3525 -1.1883
   95MOL0     H12797  -1.656   1.842   3.744 -1.7719 -0.3445 -0.6916
   95MOL0     H12798  -1.671   2.008   3.693 -0.7143 -0.1131  0.9580
   95MOL0     H12799  -1.737   1.756   3.534  0.7364 -0.5837  0.6600
   95MOL0     H12800  -1.767   1.922   3.468  1.3420 -2.3705 -1.0143
   95MOL0     H12801  -1.955   1.769   3.593  0.6226 -0.9782  1.0150
   95MOL0     H12802  -1.871   1.835   3.737 -0.6347 -1.7958 -0.3748
   95MOL0     H12803  -2.075   1.981   3.586  0.2428 -1.8879 -0.3630
   95MOL0     H12804  -1.919   2.051   3.537  0.8170  0.9569  0.6831
   95MOL0     H12805  -2.033   2.167   3.742  0.6324  0.9932 -0.5724
   95MOL0     H12806  -1.871   2.110   3.770 -0.4567  2.1395 -3.5042
   95MOL0     H12807  -1.076   1.726   3.801  0.2377  1.4130  2.4765
   95MOL0     H12808  -0.850   1.652   3.734 -0.1999 -0.2715 -1.1481
   95MOL0     H12809  -0.407   1.649   3.908  0.5978  3.6968 -0.6850
   95MOL0     H12810  -0.188   1.512   3.860  3.7329  0.8224 -1.9681
   95MOL0     H12811   1.048   1.013   4.066  0.3646  0.4057 -0.3030
   95MOL0     H12812   1.199   1.185   4.114  0.6266  1.4255  1.1971
   95MOL0     H12813   1.385   1.459   4.431  0.1855  1.0245 -0.7580
   95MOL0     H12814   1.530   1.630   4.512 -0.0004 -0.6181  0.9468
   95MOL0     H12815   1.966   1.735   4.511 -0.3805  1.1312 -1.3560
   95MOL0     H12816   1.971   1.558   4.489 -0.2093  0.7209  0.7412
   95MOL0     H12817   1.922   1.606   4.233 -0.3551  1.0413 -1.3992
   95MOL0     H12818   2.068   1.654   4.300  0.0520  4.1073  0.7115
   95MOL0     H12819   2.010   1.885   4.282  0.2911 -1.3568  0.9705
   95MOL0     H12820   1.847   1.857   4.328 -1.7285 -1.3219 -0.8004
   95MOL0     H12821   1.876   1.928   4.083  0.7820  0.4067  0.4837
   95MOL0     H12822   1.787   1.776   4.093 -0.7294  0.4088  0.2220
   95MOL0     H12823   2.141   1.665   3.900 -3.3553 -0.0988 -3.5006
   95MOL0     H12824   1.868   1.407   4.368  0.6770 -1.5916 -1.0380
   95MOL0     H12825   1.720   1.226   4.291  1.0786  1.9333 -3.0944
   96MOL0     O12826   4.401  10.005  10.350  1.1675 -0.4251  0.0611
   96MOL0     C12827   4.446   9.904  10.294 -0.5922  0.3603  0.1736
   96MOL0     O12828   4.374   9.794  10.240 -0.5824  0.8355  0.3037
   96MOL0     C12829   4.235   9.774  10.255 -0.2792 -0.2286  0.4630
   96MOL0     C12830   4.158   9.831  10.358 -0.2067 -0.0055  0.4448
   96MOL0     C12831   4.018   9.807  10.367  0.1418  0.1216  0.4565
   96MOL0     C12832   3.951   9.726  10.280 -0.3675 -0.3629  0.3643
   96MOL0     O12833   3.821   9.690  10.283 -0.5229 -0.0069 -0.4598
   96MOL0     C12834   3.722   9.769  10.346  0.7524  0.5172  0.7025
   96MOL0     C12835   3.581   9.705  10.333 -0.3050 -0.2034  0.8764
   96MOL0     C12836   3.474   9.800  10.386  0.1607  0.2958 -0.9569
   96MOL0     C12837   3.336   9.744  10.342  0.4649 -0.3436  0.3536
   96MOL0     C12838   3.230   9.853  10.354  0.0145  0.2291  0.1315
   96MOL0     C12839   3.101   9.783  10.294  0.9810 -0.3843  0.0227
   96MOL0     C12840   2.992   9.892  10.298  0.0234 -0.9152  0.1076
   96MOL0     C12841   2.858   9.854  10.245 -0.4778  0.2214 -0.4959
   96MOL0     N12842   2.777   9.980  10.238  0.2293 -0.6351  0.2502
   96MOL0     C12843   2.709  10.027  10.351 -0.9936  0.2134 -0.5611
   96MOL0     C12844   2.623  10.111  10.297 -0.1244 -0.2923 -0.2455
   96MOL0     C12845   2.523  10.200  10.366  0.0533  0.1859 -0.2699
   96MOL0     C12846   2.379  10.191  10.314  0.7934  0.3377 -0.1253
   96MOL0     C12847   2.290  10.277  10.403  0.3563 -0.1710 -0.2522
   96MOL0     C12848   2.147  10.278  10.351 -0.2578  0.5955 -0.6458
   96MOL0     O12849   2.138  10.379  10.244 -0.1124  0.2678  0.1765
   96MOL0     C12850   2.026  10.438  10.219 -0.1406  0.9525  0.4139
   96MOL0     C12851   2.025  10.532  10.121 -0.4481 -0.0369  0.3894
   96MOL0     C12852   1.918  10.620  10.094  1.1238  0.8114 -0.3443
   96MOL0     C12853   1.935  10.724   9.991  0.1991 -1.1393  0.5369
   96MOL0     C12854   1.792  10.587  10.153 -0.4477 -0.1217  0.0830
   96MOL0     C12855   1.666  10.660  10.130 -0.6041 -0.5048 -0.3576
   96MOL0     O12856   1.549  10.603  10.189 -0.1614  0.6757  0.4863
   96MOL0     C12857   1.440  10.679  10.148 -0.4026  0.2882  0.0036
   96MOL0     C12858   1.363  10.642  10.039  0.0384 -0.6145  1.0079
   96MOL0     C12859   1.246  10.716  10.006  0.0066  0.1640  0.0976
   96MOL0     C12860   1.217  10.829  10.080  0.0169 -0.1919 -0.1858
   96MOL0     O12861   1.115  10.916  10.048  1.0023 -0.1447  0.4294
   96MOL0     C12862   0.986  10.864  10.011  0.1272  0.8658  0.7150
   96MOL0     C12863   0.887  10.968   9.969 -0.3801  0.4594 -0.6578
   96MOL0     C12864   0.851  11.063  10.086 -0.6038  1.1822  0.4552
   96MOL0     C12865   0.762  11.176  10.026 -0.2192  0.8733  0.5274
   96MOL0     C12866   0.726  11.285  10.122  0.0753 -0.6173 -0.3703
   96MOL0     C12867   0.637  11.392  10.064  0.7641  0.1686  1.0551
   96MOL0     C12868   0.596  11.491  10.178 -0.0543  0.3933 -0.0318
   96MOL0     C12869   0.479  11.581  10.145  0.6409  0.3198  0.6036
   96MOL0    Cl12870   0.442  11.720  10.257 -0.2511 -0.2630 -0.1629
   96MOL0     C12871   1.286  10.862  10.191  0.4247 -0.1964  0.2944
   96MOL0     C12872   1.398  10.784  10.232 -0.2814 -0.1228  0.6385
   96MOL0     O12873   1.675  10.768  10.077 -0.2035 -0.9040  0.3086
   96MOL0     C12874   1.790  10.477  10.248 -0.1643 -0.2231 -0.1519
   96MOL0     C12875   1.901  10.414  10.283  0.4806 -0.1344  0.1966
   96MOL0     N12876   2.654  10.122  10.158  0.4137 -0.2043  0.0149
   96MOL0     N12877   2.746  10.041  10.124  0.1082  0.1523 -0.4581
   96MOL0     C12878   4.031   9.668  10.175  1.1185  0.8289  0.0787
   96MOL0     C12879   4.163   9.700  10.157  0.0672  0.7138  0.2797
   96MOL0     C12880   4.594   9.877  10.303  0.2021  0.8422  0.0209
   96MOL0     C12881   4.644   9.756  10.248 -0.7617  1.2202  0.1035
   96MOL0     C12882   4.781   9.721  10.248  0.1833  0.1756 -0.0460
   96MOL0     C12883   4.876   9.799  10.311  0.6479  0.5926  0.5997
   96MOL0     O12884   5.007   9.765  10.331 -0.3875 -0.3265  0.0826
   96MOL0     C12885   5.059   9.638  10.281 -0.8780  0.3608  0.2377
   96MOL0     C12886   5.208   9.607  10.299 -0.1021 -0.9641  0.2678
   96MOL0     C12887   5.305   9.701  10.225  0.1920 -0.5015  0.1506
   96MOL0     C12888   5.447   9.645  10.232 -0.8614 -0.1618  0.1731
   96MOL0     C12889   5.506   9.644  10.368 -0.9587  0.2868  0.3935
   96MOL0     C12890   5.552   9.648  10.486  0.3153 -0.3126  0.6133
   96MOL0     C12891   4.835   9.920  10.361  0.6590  0.7736 -0.8597
   96MOL0     C12892   4.697   9.960  10.363  0.0184  0.9620 -0.2773
   96MOL0     H12893   4.206   9.883  10.440 -0.6377 -0.9385  1.3036
   96MOL0     H12894   3.969   9.864  10.445 -0.5306 -1.0871  0.9335
   96MOL0     H12895   3.747   9.772  10.453 -0.7707 -0.0519  1.0939
   96MOL0     H12896   3.724   9.869  10.303  4.5956 -0.6883 -2.6168
   96MOL0     H12897   3.568   9.687  10.226  2.2847 -1.6598  0.7093
   96MOL0     H12898   3.578   9.613  10.392  1.7606 -2.3785 -2.1305
   96MOL0     H12899   3.482   9.815  10.494  0.7571 -0.7562 -0.8362
   96MOL0     H12900   3.483   9.901  10.345  2.4055  0.9098  0.8230
   96MOL0     H12901   3.342   9.714  10.237 -1.7195 -2.1282  0.6647
   96MOL0     H12902   3.314   9.658  10.405 -1.6531  0.4663  0.8077
   96MOL0     H12903   3.205   9.887  10.455  1.8286  0.4109  0.5590
   96MOL0     H12904   3.264   9.936  10.292  1.2138 -2.0342 -2.4642
   96MOL0     H12905   3.114   9.752  10.190  2.2922 -1.7472  0.5630
   96MOL0     H12906   3.074   9.696  10.355 -0.1603 -1.9772 -2.6140
   96MOL0     H12907   2.981   9.922  10.403  1.1013 -1.0014  0.2618
   96MOL0     H12908   3.033   9.975  10.239  0.7412 -0.5420  1.0974
   96MOL0     H12909   2.814   9.780  10.313 -1.8159  0.7393 -0.7662
   96MOL0     H12910   2.868   9.803  10.149  1.2516 -0.2353 -0.1098
   96MOL0     H12911   2.730  10.001  10.454 -1.1579  1.8340 -0.0924
   96MOL0     H12912   2.539  10.179  10.472 -0.6470  2.4897  0.3532
   96MOL0     H12913   2.553  10.304  10.347 -2.6572  1.0067 -0.5256
   96MOL0     H12914   2.351  10.086  10.327  1.5413  0.2949  1.2632
   96MOL0     H12915   2.367  10.211  10.207 -0.6722  0.8873  0.1114
   96MOL0     H12916   2.322  10.381  10.414  2.0861 -0.6774 -0.1562
   96MOL0     H12917   2.286  10.239  10.506  0.6024 -0.6049 -0.4003
   96MOL0     H12918   2.082  10.294  10.438  0.7813  1.0698  0.0640
   96MOL0     H12919   2.124  10.178  10.312  1.8163 -0.5737  0.9434
   96MOL0     H12920   2.122  10.550  10.077 -1.7001  0.3345 -2.4269
   96MOL0     H12921   1.941  10.829  10.019  1.7098 -0.7010 -1.2539
   96MOL0     H12922   2.035  10.704   9.951 -1.3668 -4.2088 -2.3443
   96MOL0     H12923   1.865  10.710   9.909  2.3107  1.3330 -1.8720
   96MOL0     H12924   1.405  10.556   9.988  0.8208 -0.1734  0.9032
   96MOL0     H12925   1.188  10.684   9.920  0.4732 -0.7646  0.1145
   96MOL0     H12926   1.005  10.806   9.920  2.1946  2.7960 -0.1869
   96MOL0     H12927   0.954  10.801  10.095  1.2497  0.5686  0.9297
   96MOL0     H12928   0.926  11.028   9.887 -0.0788  1.2341  0.0339
   96MOL0     H12929   0.798  10.924   9.924  1.0519 -1.7020 -1.5206
   96MOL0     H12930   0.950  11.099  10.118 -0.5620  0.6761  0.9077
   96MOL0     H12931   0.816  11.001  10.168  0.7880  0.5222  0.5791
   96MOL0     H12932   0.811  11.221   9.939 -2.9252 -1.4717 -2.4557
   96MOL0     H12933   0.669  11.139   9.984  0.2879  1.2872 -1.0213
   96MOL0     H12934   0.819  11.329  10.159 -0.5678 -0.7081  1.5036
   96MOL0     H12935   0.669  11.233  10.200 -2.1329 -0.7883 -2.0155
   96MOL0     H12936   0.700  11.446   9.993 -0.1270 -1.6426 -1.2635
   96MOL0     H12937   0.545  11.357  10.015 -0.5240  1.0936  2.6958
   96MOL0     H12938   0.682  11.554  10.203 -0.0135  0.2351  0.2363
   96MOL0     H12939   0.578  11.427  10.265  0.6657 -2.4309 -1.8507
   96MOL0     H12940   0.393  11.514  10.130  1.3015 -0.0755 -2.0431
   96MOL0     H12941   0.492  11.630  10.048  1.3432 -1.3500 -0.1905
   96MOL0     H12942   1.252  10.942  10.256 -1.5263 -0.8710  0.1690
   96MOL0     H12943   1.443  10.806  10.328 -3.7977 -0.0046  2.3970
   96MOL0     H12944   1.695  10.450  10.293  0.3058 -0.0720  0.9734
   96MOL0     H12945   1.885  10.328  10.348 -2.1374  0.2911  0.2353
   96MOL0     H12946   3.991   9.603  10.097  0.4953  1.3450 -0.0381
   96MOL0     H12947   4.218   9.656  10.075 -1.0636 -0.6737  0.2229
   96MOL0     H12948   4.583   9.691  10.186  1.4071  0.6995 -1.6046
   96MOL0     H12949   4.804   9.624  10.205 -2.5586 -0.0548 -1.2196
   96MOL0     H12950   4.991   9.565  10.325  0.9042 -1.1054  0.6794
   96MOL0     H12951   5.042   9.634  10.173  0.6571  2.4296 -0.1487
   96MOL0     H12952   5.231   9.505  10.266  0.8586 -0.8409  0.5343
   96MOL0     H12953   5.230   9.612  10.406 -1.5571  2.3949  0.5391
   96MOL0     H12954   5.311   9.797  10.278 -2.0612  0.4025 -1.0695
   96MOL0     H12955   5.265   9.716  10.124 -0.5728  1.9192  0.7460
   96MOL0     H12956   5.510   9.711  10.173 -0.1035 -1.9787 -1.1332
   96MOL0     H12957   5.457   9.544  10.191  1.5074 -0.4600  1.3388
   96MOL0     H12958   5.605   9.636  10.578  0.9873  0.0448  0.2855
   96MOL0     H12959   4.906   9.984  10.411 -0.2711 -0.2386  1.9458
   96MOL0     H12960   4.668  10.058  10.398 -1.3268  0.9589 -1.2905
   97MOL0     O12961   5.009   3.659   5.047 -0.0030 -0.4700 -0.4163
   97MOL0     C12962   4.991   3.705   5.163 -0.1032 -0.5614  0.1137
   97MOL0     O12963   4.871   3.720   5.231  0.4636 -0.2616  0.5444
   97MOL0     C12964   4.744   3.680   5.176 -0.0311 -0.0824  0.4866
   97MOL0     C12965   4.638   3.724   5.253  0.1890 -0.3482  0.2399
   97MOL0     C12966   4.504   3.712   5.212  1.2305 -1.2432  0.0223
   97MOL0     C12967   4.473   3.643   5.093  1.2097 -0.0057  0.0352
   97MOL0     O12968   4.344   3.641   5.051 -0.4170  0.1352 -0.1491
   97MOL0     C12969   4.313   3.579   4.927 -0.0658 -0.1646 -0.1550
   97MOL0     C12970   4.173   3.626   4.896 -0.0985  0.0796 -0.3626
   97MOL0     C12971   4.070   3.518   4.936  0.9204 -0.3390  0.0672
   97MOL0     C12972   3.925   3.558   4.930  0.4541 -0.1253 -0.1827
   97MOL0     C12973   3.823   3.438   4.954  0.2806  0.2050 -0.0138
   97MOL0     C12974   3.783   3.369   4.828  0.7268  0.3131  0.0039
   97MOL0     C12975   3.740   3.227   4.860 -1.4616 -0.5500 -0.0615
   97MOL0     C12976   3.642   3.178   4.751 -0.7614  0.3241 -0.4846
   97MOL0     N12977   3.506   3.232   4.773  0.1019  0.3349  0.4857
   97MOL0     C12978   3.417   3.165   4.852  0.0306 -0.7572  0.3886
   97MOL0     C12979   3.300   3.233   4.822  0.4874  0.3541 -0.2455
   97MOL0     C12980   3.170   3.178   4.864 -0.0295  0.3268 -0.7476
   97MOL0     C12981   3.113   3.077   4.754  0.3220  0.3608 -0.2343
   97MOL0     C12982   3.015   3.125   4.651  0.4823 -0.5675 -0.1482
   97MOL0     C12983   2.895   3.202   4.717 -0.3933  0.1116 -0.2897
   97MOL0     O12984   2.787   3.185   4.628 -0.1651 -0.4299  0.3386
   97MOL0     C12985   2.663   3.192   4.686  0.8720 -0.2743  1.1611
   97MOL0     C12986   2.555   3.125   4.616 -0.3965 -0.2614 -0.0821
   97MOL0     C12987   2.425   3.121   4.663 -0.5821 -0.2782  0.6270
   97MOL0     C12988   2.334   3.034   4.585  0.5500 -0.7281  0.3978
   97MOL0     C12989   2.391   3.184   4.782 -0.1849 -0.7491  0.4412
   97MOL0     C12990   2.254   3.204   4.830 -0.4756 -0.6901 -0.4465
   97MOL0     O12991   2.238   3.291   4.931  0.6409 -0.3955 -0.4294
   97MOL0     C12992   2.109   3.299   4.994  0.0442 -0.6421  0.1362
   97MOL0     C12993   2.043   3.197   5.073  0.2310  0.2526  0.4021
   97MOL0     C12994   1.924   3.233   5.134 -0.1344  0.1708  0.4053
   97MOL0     C12995   1.861   3.357   5.114 -0.1499  0.9848  0.5983
   97MOL0     O12996   1.740   3.376   5.176 -0.0589 -0.1646  0.1644
   97MOL0     C12997   1.669   3.489   5.134  0.2255 -0.2700  0.1376
   97MOL0     C12998   1.529   3.487   5.190 -0.4956 -0.6952 -0.2881
   97MOL0     C12999   1.529   3.473   5.341  0.3800  1.0156  0.8637
   97MOL0     C13000   1.386   3.494   5.388 -0.2498  0.2781  1.3131
   97MOL0     C13001   1.396   3.510   5.536 -1.2073 -0.8330  0.0776
   97MOL0     C13002   1.269   3.562   5.604 -0.6925 -0.3770  0.1660
   97MOL0     C13003   1.143   3.482   5.579 -0.1547  0.3499 -0.2649
   97MOL0     C13004   1.022   3.556   5.643  0.2636 -0.0415 -0.5501
   97MOL0    Cl13005   0.871   3.478   5.636 -0.5497 -0.0849 -0.1708
   97MOL0     C13006   1.922   3.447   5.021 -0.2008  0.8448 -0.5560
   97MOL0     C13007   2.045   3.416   4.964 -0.0989  0.8690 -0.4921
   97MOL0     O13008   2.163   3.141   4.784  0.6018 -0.1687 -0.4731
   97MOL0     C13009   2.497   3.254   4.845  0.2139 -0.3895 -0.1338
   97MOL0     C13010   2.630   3.253   4.802 -0.5677 -0.2230 -0.1372
   97MOL0     N13011   3.322   3.349   4.749 -0.3715  0.3007 -0.4761
   97MOL0     N13012   3.445   3.342   4.709  0.1489 -0.3708 -0.5398
   97MOL0     C13013   4.576   3.591   5.018 -0.0971 -0.6364 -0.5284
   97MOL0     C13014   4.712   3.612   5.059  0.4975  0.0811  0.6591
   97MOL0     C13015   5.110   3.760   5.232  0.6052  0.2555  0.0844
   97MOL0     C13016   5.096   3.834   5.347 -0.5062  0.0344 -0.3440
   97MOL0     C13017   5.203   3.892   5.412 -0.2156 -0.9500  0.0819
   97MOL0     C13018   5.332   3.871   5.369  0.3006  0.0684 -0.0927
   97MOL0     O13019   5.432   3.911   5.452 -0.7687  0.0585  0.2225
   97MOL0     C13020   5.551   3.840   5.472 -0.9107 -0.7528 -0.4421
   97MOL0     C13021   5.650   3.929   5.563  0.0699 -0.4389 -0.0191
   97MOL0     C13022   5.733   4.018   5.468 -0.3364  0.3340 -0.8424
   97MOL0     C13023   5.862   4.077   5.524  0.2815 -1.2350  0.4527
   97MOL0     C13024   5.975   3.980   5.520 -0.6016  0.1783  0.0603
   97MOL0     C13025   6.066   3.907   5.502 -0.3421  0.1058  0.6023
   97MOL0     C13026   5.352   3.791   5.256  0.5197 -0.1887  0.1077
   97MOL0     C13027   5.243   3.736   5.191 -0.2441 -0.5226 -0.3676
   97MOL0     H13028   4.670   3.781   5.339 -2.2778 -1.6469  2.1189
   97MOL0     H13029   4.427   3.758   5.273  1.1113 -1.8139  0.2992
   97MOL0     H13030   4.381   3.620   4.852 -0.0234  0.5407  0.2675
   97MOL0     H13031   4.316   3.469   4.922  0.9377 -0.1226 -0.9491
   97MOL0     H13032   4.159   3.718   4.955 -1.5176  1.0732 -2.1606
   97MOL0     H13033   4.154   3.643   4.790 -2.7377  0.3138  0.0884
   97MOL0     H13034   4.072   3.438   4.861 -0.4332  0.6273 -1.0592
   97MOL0     H13035   4.115   3.477   5.027  0.3112 -0.1600  0.4519
   97MOL0     H13036   3.912   3.628   5.013  2.1816  0.5813 -0.4561
   97MOL0     H13037   3.901   3.598   4.832  3.0945  2.6414  0.1680
   97MOL0     H13038   3.874   3.368   5.021  0.3781  0.2307 -0.0611
   97MOL0     H13039   3.739   3.484   5.007  0.1702  0.3303 -0.3009
   97MOL0     H13040   3.701   3.420   4.777  0.6058 -2.0158 -2.3917
   97MOL0     H13041   3.863   3.363   4.753  2.1476  0.4602  1.4489
   97MOL0     H13042   3.832   3.168   4.863 -1.7289 -1.0217  3.6030
   97MOL0     H13043   3.698   3.225   4.961  1.4762  0.6215  1.3094
   97MOL0     H13044   3.647   3.070   4.766  0.0137  0.4466  0.1612
   97MOL0     H13045   3.672   3.197   4.647  0.4303 -1.6926 -0.5590
   97MOL0     H13046   3.426   3.068   4.899  2.7118 -0.4707  0.6420
   97MOL0     H13047   3.200   3.134   4.959  1.9665  4.0569  0.5789
   97MOL0     H13048   3.100   3.262   4.878  0.6298  1.1592 -2.2442
   97MOL0     H13049   3.065   2.994   4.807 -1.4286  2.6915  2.0916
   97MOL0     H13050   3.200   3.031   4.705 -0.8269 -0.4528 -1.5863
   97MOL0     H13051   2.980   3.035   4.599 -1.0305  0.2760 -0.6679
   97MOL0     H13052   3.068   3.179   4.572  0.3664 -1.5113 -0.9029
   97MOL0     H13053   2.923   3.307   4.734 -2.3459  0.7840 -0.9701
   97MOL0     H13054   2.866   3.161   4.814  1.4130  0.7264  0.5551
   97MOL0     H13055   2.589   3.070   4.528  2.3616 -4.0334  2.9951
   97MOL0     H13056   2.394   2.975   4.515  0.9955  0.4435 -0.2251
   97MOL0     H13057   2.275   2.967   4.649  0.1337 -2.1219 -1.3573
   97MOL0     H13058   2.275   3.102   4.523  4.3804  2.0756 -0.5086
   97MOL0     H13059   2.086   3.098   5.083  1.1061  0.8712  5.4941
   97MOL0     H13060   1.879   3.167   5.207  1.7551 -0.4003  1.1209
   97MOL0     H13061   1.722   3.580   5.165  1.0952 -0.0717 -1.7923
   97MOL0     H13062   1.667   3.496   5.024  2.5212  0.8907  0.1064
   97MOL0     H13063   1.471   3.578   5.177 -0.4740 -0.4724  1.0390
   97MOL0     H13064   1.473   3.408   5.138 -0.4586 -1.5017  0.8605
   97MOL0     H13065   1.598   3.542   5.391 -1.7767  2.1309  2.4836
   97MOL0     H13066   1.574   3.376   5.365 -3.5209 -1.6238 -1.3888
   97MOL0     H13067   1.340   3.585   5.346  3.8476  0.3587 -4.1044
   97MOL0     H13068   1.323   3.411   5.355 -1.7597  1.2984  1.4674
   97MOL0     H13069   1.477   3.575   5.567 -1.5827  0.3975 -1.4327
   97MOL0     H13070   1.415   3.408   5.573 -0.6925 -0.8608 -0.2501
   97MOL0     H13071   1.290   3.566   5.711  2.9253 -0.3197 -0.4174
   97MOL0     H13072   1.260   3.667   5.574  3.0208 -1.0974 -4.8984
   97MOL0     H13073   1.165   3.381   5.615  0.9710  1.2515  1.7540
   97MOL0     H13074   1.125   3.477   5.472  0.5602 -1.3203 -0.3289
   97MOL0     H13075   1.004   3.650   5.591  1.5510  0.7567  0.3944
   97MOL0     H13076   1.046   3.575   5.748  1.3690 -0.6741 -0.6720
   97MOL0     H13077   1.868   3.535   4.987  1.5576  2.2945  0.2595
   97MOL0     H13078   2.085   3.479   4.885 -1.2042  1.0474 -0.9218
   97MOL0     H13079   2.476   3.322   4.928 -3.1057  2.0411 -2.7081
   97MOL0     H13080   2.711   3.316   4.836  2.7842 -2.9255 -2.3763
   97MOL0     H13081   4.579   3.540   4.922  0.9345  0.6169 -1.1963
   97MOL0     H13082   4.792   3.567   5.001  0.4987  1.6632 -0.6376
   97MOL0     H13083   4.999   3.859   5.388 -0.1985 -0.9785  1.1087
   97MOL0     H13084   5.185   3.965   5.491 -1.7636  1.9026 -2.6991
   97MOL0     H13085   5.514   3.755   5.532  0.7455 -0.3627  1.2087
   97MOL0     H13086   5.597   3.803   5.380  1.0460 -0.7806  0.5069
   97MOL0     H13087   5.723   3.854   5.596 -0.2070  0.8565  4.1907
   97MOL0     H13088   5.600   3.979   5.646 -0.6186 -1.5273  0.2383
   97MOL0     H13089   5.668   4.099   5.435 -0.3265  0.4745 -0.5249
   97MOL0     H13090   5.768   3.959   5.383  0.3642  0.7932 -0.8812
   97MOL0     H13091   5.840   4.098   5.629  4.5962 -1.2871  1.5304
   97MOL0     H13092   5.880   4.170   5.470 -0.8567 -1.7001 -0.7942
   97MOL0     H13093   6.154   3.849   5.484  1.0589  1.4578  2.6292
   97MOL0     H13094   5.452   3.772   5.219  0.8878  0.5281  0.7188
   97MOL0     H13095   5.260   3.685   5.097 -1.0110 -1.9699  0.2434
   98MOL0     O13096   5.748   3.752   7.330 -0.1087  0.2417 -0.8898
   98MOL0     C13097   5.842   3.698   7.386  0.5709 -0.0251 -0.2403
   98MOL0     O13098   5.833   3.646   7.513  0.5856 -0.4078 -1.2914
   98MOL0     C13099   5.716   3.632   7.573 -0.2118  0.5981 -0.6294
   98MOL0     C13100   5.676   3.717   7.681 -0.2991  0.6137 -0.5267
   98MOL0     C13101   5.561   3.678   7.760 -0.5389 -0.0663 -0.0451
   98MOL0     C13102   5.478   3.568   7.721 -0.3967 -0.1857 -0.5675
   98MOL0     O13103   5.357   3.531   7.783  0.1330  0.1823  0.4197
   98MOL0     C13104   5.338   3.569   7.912  0.9327 -0.4993 -0.6597
   98MOL0     C13105   5.211   3.501   7.967 -0.7630  0.3065  0.0206
   98MOL0     C13106   5.088   3.558   7.897  0.2856  0.4602  0.0848
   98MOL0     C13107   4.952   3.517   7.960 -0.3139 -0.8667 -0.6683
   98MOL0     C13108   4.825   3.574   7.894  0.6628  0.9413 -0.9084
   98MOL0     C13109   4.785   3.511   7.767  0.1747 -0.1420 -0.2603
   98MOL0     C13110   4.628   3.535   7.740 -0.2297 -0.3492 -0.3638
   98MOL0     C13111   4.587   3.687   7.720 -0.0905 -0.2282  0.6408
   98MOL0     N13112   4.443   3.695   7.672 -0.2524 -0.0667 -0.0070
   98MOL0     C13113   4.401   3.629   7.561  0.1490 -0.2760  0.6440
   98MOL0     C13114   4.273   3.668   7.537 -0.4805 -0.4886  0.5048
   98MOL0     C13115   4.194   3.630   7.415 -0.1047 -0.2272 -0.1259
   98MOL0     C13116   4.135   3.490   7.429 -0.0023  0.9995 -0.0124
   98MOL0     C13117   4.041   3.474   7.558 -0.3728  0.1379 -0.6739
   98MOL0     C13118   3.995   3.336   7.585 -0.1015  0.7853 -0.0882
   98MOL0     O13119   3.875   3.315   7.507 -0.3724  0.3462 -0.0514
   98MOL0     C13120   3.770   3.246   7.559  0.3213  0.2361 -0.1362
   98MOL0     C13121   3.778   3.169   7.674 -0.4655  0.7974 -1.1806
   98MOL0     C13122   3.665   3.103   7.726  0.1396 -0.3211 -0.0785
   98MOL0     C13123   3.694   3.004   7.842 -0.4633 -0.5769 -0.3758
   98MOL0     C13124   3.541   3.117   7.661  0.7190 -0.4122  0.3290
   98MOL0     C13125   3.411   3.063   7.713  0.6144  0.5170 -0.3619
   98MOL0     O13126   3.301   3.063   7.624 -0.8457  0.7120  0.1953
   98MOL0     C13127   3.169   3.063   7.678 -0.2596 -0.3272  0.1704
   98MOL0     C13128   3.059   2.991   7.613 -0.5190  0.4470  0.3676
   98MOL0     C13129   2.932   2.985   7.679 -0.4814 -1.0486 -0.7538
   98MOL0     C13130   2.905   3.054   7.800 -1.0845 -0.7429  0.8301
   98MOL0     O13131   2.783   3.040   7.847 -0.1483 -0.4413 -0.5933
   98MOL0     C13132   2.778   3.072   7.990  0.7560 -0.2438  0.4180
   98MOL0     C13133   2.631   3.032   8.030 -0.5144 -0.0620 -0.3080
   98MOL0     C13134   2.609   2.948   8.149 -0.0918 -0.9066  0.6704
   98MOL0     C13135   2.658   3.033   8.272  0.5287 -0.3323  0.7281
   98MOL0     C13136   2.667   2.928   8.384 -0.4313 -0.0224  0.6936
   98MOL0     C13137   2.716   2.974   8.527  0.6008 -0.8069  0.4932
   98MOL0     C13138   2.623   3.082   8.605  0.3187 -0.0714  0.2433
   98MOL0     C13139   2.485   3.026   8.639 -0.0143 -1.0305  0.3094
   98MOL0    Cl13140   2.495   2.879   8.747  0.1701  0.3587 -0.3004
   98MOL0     C13141   3.010   3.128   7.859 -0.9234  1.1120  0.7460
   98MOL0     C13142   3.139   3.127   7.803  0.1152 -0.1175  0.5698
   98MOL0     O13143   3.406   3.023   7.834  0.1655  0.2130 -0.2341
   98MOL0     C13144   3.535   3.193   7.541  0.2084  0.6286 -0.4203
   98MOL0     C13145   3.648   3.252   7.487 -0.1251  0.1614 -0.5200
   98MOL0     N13146   4.239   3.758   7.634  0.7708  0.0302 -0.0101
   98MOL0     N13147   4.341   3.773   7.716  0.2126  0.0147  0.4777
   98MOL0     C13148   5.513   3.497   7.607 -0.6544  0.4193  0.8722
   98MOL0     C13149   5.631   3.526   7.537 -0.9202  0.2817  0.2262
   98MOL0     C13150   5.961   3.669   7.297  0.7907 -1.2828 -0.0714
   98MOL0     C13151   5.976   3.711   7.167 -0.1696  0.5860 -0.3429
   98MOL0     C13152   6.088   3.681   7.092  0.0407 -0.9425 -0.2910
   98MOL0     C13153   6.192   3.604   7.139  0.6182 -0.1242 -0.5939
   98MOL0     O13154   6.301   3.562   7.069 -0.2662  0.3528  0.5488
   98MOL0     C13155   6.331   3.600   6.934  0.0344  0.4245  0.0812
   98MOL0     C13156   6.399   3.735   6.927 -0.2441  0.2601 -0.2812
   98MOL0     C13157   6.535   3.732   7.002 -0.0150  0.5589  0.2005
   98MOL0     C13158   6.604   3.865   7.032  0.7678 -0.3249 -0.5892
   98MOL0     C13159   6.617   3.939   6.904 -0.4527 -1.4464  0.0807
   98MOL0     C13160   6.642   4.000   6.800 -0.6975 -1.2978 -0.5350
   98MOL0     C13161   6.172   3.554   7.273  0.0208  0.2595  0.9803
   98MOL0     C13162   6.061   3.584   7.354  0.6231  0.7476  1.1278
   98MOL0     H13163   5.727   3.809   7.707  0.5099  0.1364 -0.3971
   98MOL0     H13164   5.538   3.736   7.849  0.4111 -1.8762  1.4647
   98MOL0     H13165   5.423   3.557   7.980 -0.5742  0.8621  1.5693
   98MOL0     H13166   5.312   3.675   7.910  0.8805 -0.5099 -0.4889
   98MOL0     H13167   5.231   3.394   7.956  1.2693  0.7175 -0.7246
   98MOL0     H13168   5.199   3.526   8.073 -1.3836 -0.6249  0.1766
   98MOL0     H13169   5.094   3.667   7.910  2.1145  0.6137 -1.7439
   98MOL0     H13170   5.087   3.539   7.790 -2.0652  0.7969 -0.0023
   98MOL0     H13171   4.944   3.409   7.973  1.2966 -1.0848 -1.3209
   98MOL0     H13172   4.961   3.560   8.060 -1.7617 -0.3486 -0.7332
   98MOL0     H13173   4.742   3.553   7.963  0.3906 -0.3136 -1.5826
   98MOL0     H13174   4.844   3.681   7.894  1.6721  0.8272  1.7539
   98MOL0     H13175   4.847   3.550   7.686  1.5106 -0.7990  0.4243
   98MOL0     H13176   4.808   3.405   7.779  0.7089 -0.0115 -0.1289
   98MOL0     H13177   4.601   3.473   7.654 -0.7073 -2.9984  1.5732
   98MOL0     H13178   4.576   3.490   7.824  0.5105  1.0601  0.9030
   98MOL0     H13179   4.651   3.742   7.650  2.4656 -0.1882  2.8652
   98MOL0     H13180   4.591   3.742   7.814 -0.0477  1.3654 -0.2641
   98MOL0     H13181   4.458   3.553   7.508  0.9974 -0.5449  1.8760
   98MOL0     H13182   4.110   3.700   7.409 -0.7916 -0.8885  1.2463
   98MOL0     H13183   4.265   3.627   7.332  0.9230  1.0691  0.6752
   98MOL0     H13184   4.218   3.419   7.443 -0.7740 -0.4608 -2.3987
   98MOL0     H13185   4.078   3.473   7.337 -2.8625  4.6218  0.8681
   98MOL0     H13186   3.960   3.547   7.556 -1.8976 -1.5147 -1.4187
   98MOL0     H13187   4.103   3.490   7.647 -2.8730  0.3417  1.1196
   98MOL0     H13188   3.977   3.323   7.693  2.4275  3.1951  0.7558
   98MOL0     H13189   4.078   3.268   7.562  1.6943  2.0183  2.2254
   98MOL0     H13190   3.874   3.144   7.718  0.1744  4.2791 -0.2828
   98MOL0     H13191   3.795   3.029   7.878 -0.7694 -0.1766  0.2308
   98MOL0     H13192   3.626   3.015   7.927  1.4344 -2.3048  1.4811
   98MOL0     H13193   3.702   2.900   7.809 -2.4152 -1.0146  0.3888
   98MOL0     H13194   3.065   2.959   7.509 -2.0902 -0.6414  0.5876
   98MOL0     H13195   2.839   2.943   7.641 -2.2945  1.7808  0.2485
   98MOL0     H13196   2.842   3.002   8.043  1.1374 -1.5376 -1.6169
   98MOL0     H13197   2.803   3.172   8.026 -1.0688  0.4501 -0.1217
   98MOL0     H13198   2.574   3.125   8.038 -0.6389 -0.2670  2.3966
   98MOL0     H13199   2.588   2.982   7.944  0.6624  2.5706 -2.5964
   98MOL0     H13200   2.674   2.860   8.142  0.6983 -0.3994  1.4007
   98MOL0     H13201   2.510   2.905   8.164 -0.2260 -0.0988  2.2191
   98MOL0     H13202   2.751   3.087   8.251 -0.4203  0.9855 -0.2099
   98MOL0     H13203   2.578   3.098   8.306  0.2286 -0.9167  1.1601
   98MOL0     H13204   2.736   2.848   8.357 -0.1800 -0.1612  1.6934
   98MOL0     H13205   2.575   2.870   8.393 -0.5689  0.3926  2.4310
   98MOL0     H13206   2.749   2.891   8.589  0.5676 -1.0178  0.2333
   98MOL0     H13207   2.812   3.024   8.514 -0.9968  1.6857 -4.2239
   98MOL0     H13208   2.605   3.158   8.529  3.9068  0.2620 -0.4410
   98MOL0     H13209   2.678   3.127   8.689 -1.0523  1.9360  0.1370
   98MOL0     H13210   2.426   2.998   8.551  0.8143 -0.2566 -0.5130
   98MOL0     H13211   2.430   3.104   8.693 -0.0191 -0.9185  0.1452
   98MOL0     H13212   2.999   3.170   7.958 -0.0913 -0.5807  1.5927
   98MOL0     H13213   3.212   3.186   7.856 -0.2333 -0.5777  1.5868
   98MOL0     H13214   3.443   3.197   7.484  0.2144 -2.5846 -0.8194
   98MOL0     H13215   3.642   3.312   7.397  4.0043  0.7608 -0.6217
   98MOL0     H13216   5.451   3.415   7.572  0.2331 -0.2257  0.7868
   98MOL0     H13217   5.658   3.474   7.446  1.8203  2.9983 -0.6877
   98MOL0     H13218   5.891   3.759   7.121 -1.3207  0.6371  1.6898
   98MOL0     H13219   6.093   3.715   6.989  1.9685  1.6250  0.5436
   98MOL0     H13220   6.396   3.523   6.891  0.7633  2.0588 -1.9602
   98MOL0     H13221   6.234   3.598   6.883 -0.3611  1.4155  0.7559
   98MOL0     H13222   6.334   3.802   6.985  0.7766 -0.9868  2.5053
   98MOL0     H13223   6.420   3.775   6.828  1.4202  2.2949  0.7897
   98MOL0     H13224   6.605   3.674   6.942 -0.0143  1.0235 -0.2528
   98MOL0     H13225   6.517   3.688   7.100  4.4121  0.3474  1.1180
   98MOL0     H13226   6.698   3.855   7.087 -0.1110  0.5084  1.1479
   98MOL0     H13227   6.543   3.935   7.090  2.0632  1.3399 -1.1699
   98MOL0     H13228   6.664   4.058   6.713  1.0206 -1.3533 -0.1754
   98MOL0     H13229   6.258   3.493   7.301 -0.4005  0.0262  1.8256
   98MOL0     H13230   6.060   3.534   7.450 -0.8340  1.7885  1.6943
   99MOL0     O13231   9.506   8.481  10.621 -0.4182 -0.6390  0.2698
   99MOL0     C13232   9.460   8.368  10.636  0.4646 -0.5467 -0.0496
   99MOL0     O13233   9.328   8.350  10.667 -0.4029  0.6694 -0.0143
   99MOL0     C13234   9.266   8.447  10.735 -0.7432  0.6500  0.9143
   99MOL0     C13235   9.128   8.470  10.710 -0.3443  0.8751 -0.5013
   99MOL0     C13236   9.060   8.573  10.776  0.3460  0.3909  0.0822
   99MOL0     C13237   9.131   8.659  10.865  0.5217  0.8928  1.0340
   99MOL0     O13238   9.067   8.762  10.913 -0.7172 -0.4353 -0.2232
   99MOL0     C13239   9.078   8.774  11.056  1.1005  0.6728 -0.3685
   99MOL0     C13240   8.992   8.890  11.116 -0.5533 -0.4372 -0.3864
   99MOL0     C13241   8.852   8.901  11.057  0.1660  0.5091  0.1097
   99MOL0     C13242   8.796   9.043  11.097  0.5664 -0.1066  0.1566
   99MOL0     C13243   8.688   9.085  10.993 -0.7398 -0.4038  0.1522
   99MOL0     C13244   8.558   9.001  10.991  0.0327 -0.1973 -0.1569
   99MOL0     C13245   8.463   9.030  11.111  0.4255 -0.8834 -0.2226
   99MOL0     C13246   8.356   8.921  11.108 -0.4380 -0.0815  0.3555
   99MOL0     N13247   8.242   8.935  11.201 -0.1926 -0.4523 -0.6945
   99MOL0     C13248   8.156   9.044  11.216 -0.0269  0.4805  0.0646
   99MOL0     C13249   8.055   8.990  11.296  0.0015 -0.5563  0.5265
   99MOL0     C13250   7.941   9.070  11.359 -0.9787 -0.2228  0.2835
   99MOL0     C13251   7.823   8.986  11.385  0.0274  0.0336 -0.7968
   99MOL0     C13252   7.710   9.087  11.432  0.5337 -0.9534  0.6209
   99MOL0     C13253   7.703   9.092  11.590  0.0239 -0.3566  0.1180
   99MOL0     O13254   7.674   8.964  11.645 -0.2337 -0.1014 -0.4878
   99MOL0     C13255   7.541   8.909  11.647 -0.3187 -0.3159  0.0925
   99MOL0     C13256   7.522   8.773  11.684 -0.4611  0.0205  0.2032
   99MOL0     C13257   7.404   8.703  11.687 -1.0488  0.1073 -0.3045
   99MOL0     C13258   7.408   8.570  11.753 -0.3412 -0.4839  0.2093
   99MOL0     C13259   7.285   8.773  11.650 -0.1318 -0.7555 -0.0628
   99MOL0     C13260   7.144   8.716  11.651  0.1450  0.1026 -0.4444
   99MOL0     O13261   7.043   8.798  11.602 -0.3235 -0.0367  0.5617
   99MOL0     C13262   6.912   8.762  11.600 -0.9903 -0.5528  0.5519
   99MOL0     C13263   6.849   8.689  11.703  0.7900  0.7953 -0.4962
   99MOL0     C13264   6.718   8.650  11.700 -0.2730 -0.9740  0.1487
   99MOL0     C13265   6.641   8.681  11.595  0.4098 -0.0228 -1.0925
   99MOL0     O13266   6.511   8.645  11.604  0.1046  0.0243  0.1797
   99MOL0     C13267   6.448   8.632  11.479  1.0043  0.2784  0.2272
   99MOL0     C13268   6.318   8.554  11.520  0.1284 -0.2396  0.4783
   99MOL0     C13269   6.227   8.638  11.607 -0.0339 -0.0297  0.3468
   99MOL0     C13270   6.088   8.567  11.627 -0.6860 -0.3749  0.6912
   99MOL0     C13271   6.004   8.646  11.720  0.0983  0.4442  1.5425
   99MOL0     C13272   5.883   8.570  11.769  0.2799 -0.2391 -0.5120
   99MOL0     C13273   5.805   8.640  11.885  0.0612  0.2039  0.4196
   99MOL0     C13274   5.650   8.633  11.866  0.4310  0.1831  0.7730
   99MOL0    Cl13275   5.609   8.712  11.707  0.1459  0.1934  0.0225
   99MOL0     C13276   6.689   8.765  11.492 -0.4460 -0.3293  0.6105
   99MOL0     C13277   6.827   8.795  11.489  0.4643 -0.0685 -0.4895
   99MOL0     O13278   7.129   8.594  11.677 -1.6483  0.1038  1.1135
   99MOL0     C13279   7.295   8.914  11.612  0.6599  0.9959  0.2037
   99MOL0     C13280   7.423   8.979  11.603 -0.0569  0.8263 -0.8270
   99MOL0     N13281   8.093   8.864  11.345 -0.0157  0.6176  1.1143
   99MOL0     N13282   8.201   8.829  11.278 -0.0066 -0.3876  0.1183
   99MOL0     C13283   9.264   8.637  10.890  0.1693  0.4702  0.2008
   99MOL0     C13284   9.325   8.530  10.826  0.1711 -0.2421  0.5957
   99MOL0     C13285   9.549   8.246  10.631 -0.1868 -0.2815  0.4128
   99MOL0     C13286   9.502   8.116  10.656 -0.7383  1.0943  0.0479
   99MOL0     C13287   9.591   8.002  10.628  0.2670 -0.1894  0.1064
   99MOL0     C13288   9.725   8.021  10.580  0.2288 -0.6151  0.6207
   99MOL0     O13289   9.791   7.906  10.555  0.3960  0.4554  0.4047
   99MOL0     C13290   9.913   7.911  10.489 -0.9954  0.4349 -0.1751
   99MOL0     C13291  10.036   7.930  10.584  0.4915  0.0191 -0.1560
   99MOL0     C13292  10.173   7.912  10.516 -0.5222 -0.1767 -0.6328
   99MOL0     C13293  10.284   7.973  10.610  0.2399  0.6075 -0.1053
   99MOL0     C13294  10.422   7.936  10.575  0.2624  1.0845 -0.2181
   99MOL0     C13295  10.532   7.901  10.538  0.0159 -0.7158  0.1793
   99MOL0     C13296   9.770   8.149  10.562 -0.3827  0.2549 -0.3210
   99MOL0     C13297   9.685   8.262  10.585  0.0286 -0.0951  0.3111
   99MOL0     H13298   9.092   8.409  10.628 -0.6693  1.9854 -1.2083
   99MOL0     H13299   8.952   8.581  10.767  0.1272 -1.7719  0.3746
   99MOL0     H13300   9.032   8.688  11.105 -2.0737  1.4607 -1.7013
   99MOL0     H13301   9.173   8.766  11.110 -0.1818  1.4569  2.1583
   99MOL0     H13302   8.969   8.869  11.221 -0.5905  1.7303  0.0768
   99MOL0     H13303   9.047   8.984  11.110  0.1579 -0.7538  0.9329
   99MOL0     H13304   8.861   8.900  10.948 -1.1906  1.2448 -0.0304
   99MOL0     H13305   8.796   8.811  11.085  2.4926 -1.7514 -1.9969
   99MOL0     H13306   8.756   9.029  11.198 -2.5958 -1.7728 -1.1914
   99MOL0     H13307   8.875   9.119  11.097 -1.2426  1.9427 -2.1979
   99MOL0     H13308   8.673   9.191  11.017  1.6146  0.1079 -0.3533
   99MOL0     H13309   8.735   9.084  10.894 -0.2347 -1.0170  0.3957
   99MOL0     H13310   8.506   9.010  10.895 -0.2472 -0.5768 -0.0447
   99MOL0     H13311   8.589   8.896  10.997 -2.2080 -0.9177 -0.1625
   99MOL0     H13312   8.527   9.031  11.200  0.1179 -2.4289  0.0606
   99MOL0     H13313   8.420   9.127  11.084  1.4213 -1.1680 -3.1717
   99MOL0     H13314   8.405   8.826  11.129  1.8389  1.3373  1.9943
   99MOL0     H13315   8.314   8.928  11.007 -0.3120 -0.4130  0.2795
   99MOL0     H13316   8.154   9.129  11.148 -1.3024 -0.2133 -0.8183
   99MOL0     H13317   7.966   9.110  11.457 -0.7003 -1.6279  0.8019
   99MOL0     H13318   7.905   9.151  11.295 -3.1092 -0.7022  0.7750
   99MOL0     H13319   7.836   8.916  11.468 -1.6680  1.4125  0.7573
   99MOL0     H13320   7.802   8.941  11.288  1.2903  3.5770 -2.9217
   99MOL0     H13321   7.617   9.054  11.384  1.8038  1.5277 -4.2227
   99MOL0     H13322   7.727   9.189  11.398  2.6964 -0.9878  1.4489
   99MOL0     H13323   7.630   9.161  11.633  0.3649 -0.6597  1.1982
   99MOL0     H13324   7.797   9.127  11.633  0.0541  0.2401 -0.4074
   99MOL0     H13325   7.620   8.730  11.702  0.1282  1.2999  0.1741
   99MOL0     H13326   7.347   8.566  11.844  1.5168  1.7192  1.6671
   99MOL0     H13327   7.367   8.499  11.680  1.0848  0.2541 -1.3712
   99MOL0     H13328   7.509   8.543  11.784  0.8776  2.3331 -1.0061
   99MOL0     H13329   6.901   8.651  11.790 -1.5458 -1.4391  0.0563
   99MOL0     H13330   6.673   8.590  11.780 -0.3070  1.2897  1.9337
   99MOL0     H13331   6.423   8.723  11.422  0.2353 -1.8156 -3.0483
   99MOL0     H13332   6.515   8.559  11.434 -1.0672 -1.3399 -0.4018
   99MOL0     H13333   6.274   8.513  11.428 -0.6205 -2.6331  1.8268
   99MOL0     H13334   6.342   8.467  11.581 -0.3801  0.7343  2.1204
   99MOL0     H13335   6.205   8.740  11.574  1.5836  1.1670  2.7009
   99MOL0     H13336   6.290   8.652  11.695 -0.6653 -1.9947  1.1878
   99MOL0     H13337   6.048   8.566  11.525  0.6490  2.8582  0.0266
   99MOL0     H13338   6.101   8.463  11.657  0.1440 -0.0398  1.5419
   99MOL0     H13339   5.972   8.730  11.658 -1.7992 -0.1472  1.6495
   99MOL0     H13340   6.059   8.682  11.807  2.3233  1.6131 -0.2365
   99MOL0     H13341   5.819   8.545  11.684 -0.5907 -0.1221  0.0914
   99MOL0     H13342   5.926   8.478  11.811  0.5811  0.0226 -0.2348
   99MOL0     H13343   5.824   8.747  11.882 -3.0457  0.8725 -3.5203
   99MOL0     H13344   5.835   8.606  11.985  2.3057  1.6357  0.3023
   99MOL0     H13345   5.594   8.674  11.951 -1.0309  0.0183 -0.0803
   99MOL0     H13346   5.625   8.527  11.875 -2.1722  0.5894 -0.8136
   99MOL0     H13347   6.625   8.799  11.412 -1.9447  0.1114  1.9492
   99MOL0     H13348   6.862   8.848  11.401 -0.9925  2.0104  0.1077
   99MOL0     H13349   7.205   8.971  11.590  0.0158  0.4457  1.3550
   99MOL0     H13350   7.437   9.081  11.568 -1.9083  2.2729  2.2032
   99MOL0     H13351   9.318   8.693  10.966 -0.0200  2.3660 -0.9794
   99MOL0     H13352   9.430   8.520  10.850  0.5346  0.6976 -0.5271
   99MOL0     H13353   9.402   8.096  10.692  0.7245 -1.4433  3.3000
   99MOL0     H13354   9.565   7.898  10.638 -2.5866  0.3931 -0.4334
   99MOL0     H13355   9.935   7.818  10.435 -0.1913  1.2394 -1.3034
   99MOL0     H13356   9.910   7.987  10.410 -0.4877  1.2505  0.5728
   99MOL0     H13357  10.039   7.852  10.661 -0.3694  2.0270  2.0419
   99MOL0     H13358  10.041   8.027  10.635  1.9184 -0.7326  1.2357
   99MOL0     H13359  10.184   7.965  10.421  1.2701 -0.9967 -0.9313
   99MOL0     H13360  10.189   7.804  10.506 -1.4513 -0.7346  2.6444
   99MOL0     H13361  10.266   7.942  10.714  2.6474 -1.6625 -0.2556
   99MOL0     H13362  10.277   8.082  10.599 -2.0765  0.6591  1.1901
   99MOL0     H13363  10.633   7.890  10.504  1.4870  2.8480  2.7500
   99MOL0     H13364   9.875   8.170  10.543 -0.7698  2.0179 -0.7189
   99MOL0     H13365   9.727   8.360  10.566  0.6932  0.0726  2.3782
  100MOL0     O13366   7.481   2.261  10.252 -0.3052  0.1849 -0.0386
  100MOL0     C13367   7.524   2.341  10.167  0.2270  0.2020  0.2289
  100MOL0     O13368   7.455   2.424  10.087  0.7331  0.4337 -0.3681
  100MOL0     C13369   7.315   2.436  10.107 -0.3272  0.3932 -0.6334
  100MOL0     C13370   7.260   2.556  10.159  0.0263  0.4502 -0.5195
  100MOL0     C13371   7.123   2.578  10.162 -0.4158  0.0204 -0.2511
  100MOL0     C13372   7.030   2.473  10.137  0.5357  0.8338 -0.0726
  100MOL0     O13373   6.893   2.488  10.127 -0.4718 -0.1473 -0.1787
  100MOL0     C13374   6.831   2.594  10.201  0.0455  0.5914 -0.2939
  100MOL0     C13375   6.835   2.558  10.353 -1.2394  0.1799 -0.1675
  100MOL0     C13376   6.761   2.656  10.443 -0.7732 -0.1797 -0.4368
  100MOL0     C13377   6.766   2.602  10.584 -0.4082  0.1294 -0.5708
  100MOL0     C13378   6.671   2.670  10.682  0.0111 -0.1329 -0.5775
  100MOL0     C13379   6.517   2.681  10.642  0.4585 -0.0947 -1.0602
  100MOL0     C13380   6.418   2.666  10.759 -0.5597  0.4645  0.1564
  100MOL0     C13381   6.284   2.718  10.730 -0.1352  0.1267 -0.7215
  100MOL0     N13382   6.194   2.716  10.847  0.5261  0.1873  0.5733
  100MOL0     C13383   6.203   2.800  10.963 -0.9806  0.5247  0.2612
  100MOL0     C13384   6.093   2.773  11.033  0.6777  0.6464  0.9002
  100MOL0     C13385   6.046   2.831  11.159  0.2500 -0.1680 -0.5889
  100MOL0     C13386   6.150   2.849  11.269  0.4025  0.3605  0.3134
  100MOL0     C13387   6.088   2.871  11.402 -0.1367  0.5559  0.0377
  100MOL0     C13388   6.038   3.009  11.426 -0.1278 -0.4111 -0.0546
  100MOL0     O13389   5.919   3.021  11.361 -0.1544 -0.1315 -0.2849
  100MOL0     C13390   5.837   3.133  11.374  0.7653 -0.1210  0.3280
  100MOL0     C13391   5.711   3.122  11.321  0.5871  0.2174  1.2921
  100MOL0     C13392   5.610   3.219  11.329  0.6767 -0.0882  0.4249
  100MOL0     C13393   5.481   3.193  11.251 -0.4020  0.3896 -0.1127
  100MOL0     C13394   5.644   3.334  11.406  0.0602  0.0854  0.0433
  100MOL0     C13395   5.542   3.430  11.422  0.1442 -0.0164 -0.1302
  100MOL0     O13396   5.528   3.529  11.323  0.7538  0.2922 -0.5049
  100MOL0     C13397   5.423   3.615  11.336 -0.2936 -0.2271 -0.7666
  100MOL0     C13398   5.303   3.593  11.267  0.7350 -0.3112 -0.2140
  100MOL0     C13399   5.199   3.684  11.284  0.3762  0.3619 -0.0979
  100MOL0     C13400   5.209   3.791  11.367 -0.6479  0.5396 -0.1192
  100MOL0     O13401   5.097   3.866  11.388 -0.9383 -0.4351 -0.4786
  100MOL0     C13402   5.080   3.940  11.511  0.0620  0.0496 -0.4655
  100MOL0     C13403   4.940   3.979  11.553  0.1277 -0.1160  0.1852
  100MOL0     C13404   4.907   4.093  11.455 -0.0627 -0.0634 -0.0241
  100MOL0     C13405   4.780   4.172  11.499  0.5691  0.0976 -0.1760
  100MOL0     C13406   4.684   4.171  11.375  0.1532  0.1029 -0.8400
  100MOL0     C13407   4.739   4.262  11.269  0.0445  0.4443  0.2408
  100MOL0     C13408   4.649   4.253  11.143 -0.7082  0.3133 -0.1639
  100MOL0     C13409   4.666   4.381  11.060  1.2378  1.1527  0.2555
  100MOL0    Cl13410   4.611   4.347  10.892 -0.1233 -0.0169 -0.3533
  100MOL0     C13411   5.329   3.812  11.428  0.4895  0.2502 -0.0208
  100MOL0     C13412   5.435   3.723  11.413 -0.1694  0.1696  0.1127
  100MOL0     O13413   5.481   3.422  11.530  0.3686 -0.0337  0.3618
  100MOL0     C13414   5.777   3.353  11.461 -0.1925  0.4465 -0.6089
  100MOL0     C13415   5.869   3.257  11.436 -0.5762 -0.3823  0.0362
  100MOL0     N13416   6.020   2.682  10.959 -0.1825 -0.4684 -0.4510
  100MOL0     N13417   6.074   2.651  10.845  0.1769 -0.1327 -0.4648
  100MOL0     C13418   7.083   2.347  10.103 -0.0858  0.3699  0.0198
  100MOL0     C13419   7.223   2.330  10.083  0.6554 -0.6087 -1.0895
  100MOL0     C13420   7.676   2.344  10.148  0.2629 -0.2371 -0.2129
  100MOL0     C13421   7.731   2.433  10.057 -0.5331  0.3909 -0.7822
  100MOL0     C13422   7.877   2.444  10.045  0.6394 -0.3819 -0.6551
  100MOL0     C13423   7.956   2.361  10.119 -0.2105 -1.0314 -0.1093
  100MOL0     O13424   8.092   2.337  10.105 -0.1765 -0.8863 -0.4302
  100MOL0     C13425   8.171   2.415  10.018 -0.7591 -0.1314  0.9369
  100MOL0     C13426   8.190   2.562  10.077  0.1374 -0.3821  0.5009
  100MOL0     C13427   8.211   2.576  10.230  0.6605  1.0189 -0.1172
  100MOL0     C13428   8.229   2.722  10.282  0.2093  0.0391  0.0388
  100MOL0     C13429   8.357   2.776  10.250 -0.0839  0.4169  0.7088
  100MOL0     C13430   8.464   2.827  10.215  0.8552 -0.2294 -0.0127
  100MOL0     C13431   7.898   2.268  10.208 -0.3128  0.1831 -0.3666
  100MOL0     C13432   7.756   2.261  10.222  0.4279  0.4711 -0.5609
  100MOL0     H13433   7.318   2.647  10.171 -2.8857  2.6915 -1.9919
  100MOL0     H13434   7.091   2.681  10.178 -1.2750 -0.3726  0.7051
  100MOL0     H13435   6.877   2.691  10.181  1.9685  0.2068  1.8539
  100MOL0     H13436   6.725   2.606  10.176  0.2759  1.5382 -0.8741
  100MOL0     H13437   6.775   2.467  10.368 -1.5500  0.6417  1.6208
  100MOL0     H13438   6.938   2.545  10.386 -1.6547 -1.2732  0.6474
  100MOL0     H13439   6.807   2.756  10.442  1.9641 -1.3477 -0.1010
  100MOL0     H13440   6.657   2.676  10.419 -1.1250  0.7957  1.5993
  100MOL0     H13441   6.737   2.498  10.567 -0.2428  0.0988 -0.6734
  100MOL0     H13442   6.869   2.598  10.621 -0.3116 -0.8012 -0.9133
  100MOL0     H13443   6.684   2.609  10.773  1.3956 -0.9236 -1.2700
  100MOL0     H13444   6.716   2.767  10.702  1.0800 -0.6857 -0.1847
  100MOL0     H13445   6.494   2.776  10.592  2.9055  1.7470  1.0104
  100MOL0     H13446   6.493   2.594  10.581 -2.1231 -0.0555 -0.2092
  100MOL0     H13447   6.411   2.565  10.800  1.1207  0.4195  0.3949
  100MOL0     H13448   6.460   2.727  10.840 -3.5068  2.4597  0.3755
  100MOL0     H13449   6.246   2.663  10.643 -0.6480 -0.2200 -0.2859
  100MOL0     H13450   6.295   2.821  10.695  2.4264 -0.1796 -0.9624
  100MOL0     H13451   6.265   2.883  10.995 -0.4425 -0.8105  3.0360
  100MOL0     H13452   6.011   2.930  11.128  1.2815 -0.0698 -1.5088
  100MOL0     H13453   5.970   2.760  11.192  2.8855 -3.6230 -1.2690
  100MOL0     H13454   6.208   2.938  11.246  0.2790 -0.4277 -4.0101
  100MOL0     H13455   6.216   2.761  11.273 -0.5630 -0.6578 -2.9171
  100MOL0     H13456   6.168   2.854  11.474  2.3323 -2.1457 -3.0528
  100MOL0     H13457   6.010   2.796  11.416  0.0023 -0.4329 -3.4684
  100MOL0     H13458   6.105   3.085  11.384  0.5122 -1.1001 -0.2964
  100MOL0     H13459   6.019   3.033  11.532 -4.1051  2.1782 -1.1280
  100MOL0     H13460   5.701   3.030  11.264 -0.5401 -0.2065  2.1295
  100MOL0     H13461   5.419   3.118  11.300  1.3091  0.8818  3.0347
  100MOL0     H13462   5.413   3.279  11.247  1.6433  2.3174  2.5952
  100MOL0     H13463   5.513   3.154  11.154  1.4550  0.2758  0.5055
  100MOL0     H13464   5.285   3.502  11.210 -2.9847  0.0887  0.0919
  100MOL0     H13465   5.112   3.662  11.223  0.8718 -0.0132 -0.6731
  100MOL0     H13466   5.101   3.878  11.599  1.3660  0.8977 -0.1606
  100MOL0     H13467   5.148   4.025  11.506  0.4749 -0.3468 -3.1672
  100MOL0     H13468   4.873   3.896  11.533 -0.1374  0.0200  0.5057
  100MOL0     H13469   4.932   4.012  11.657  3.2301 -0.7318  0.7263
  100MOL0     H13470   4.905   4.049  11.354  0.9400 -1.1483  0.4094
  100MOL0     H13471   4.989   4.165  11.449 -1.5054  1.5935 -1.1056
  100MOL0     H13472   4.727   4.135  11.587  1.1997 -1.7986 -0.5422
  100MOL0     H13473   4.798   4.280  11.509 -0.5452  0.3294 -0.5175
  100MOL0     H13474   4.589   4.212  11.409  0.4040  0.3682 -0.4566
  100MOL0     H13475   4.668   4.064  11.356  0.3028 -0.0640 -0.0917
  100MOL0     H13476   4.744   4.366  11.302 -2.2704  1.3736 -2.0131
  100MOL0     H13477   4.836   4.218  11.242 -0.4204  0.7455 -2.1689
  100MOL0     H13478   4.543   4.237  11.166 -0.3090 -0.7699  1.0502
  100MOL0     H13479   4.670   4.164  11.083  0.5306  0.5903 -0.1633
  100MOL0     H13480   4.773   4.405  11.059  1.6121 -0.3898 -1.4145
  100MOL0     H13481   4.598   4.456  11.103  0.2903  0.8463 -0.6688
  100MOL0     H13482   5.330   3.899  11.492 -1.6492  1.1786 -1.1445
  100MOL0     H13483   5.531   3.725  11.465 -0.9885 -2.2718  1.9436
  100MOL0     H13484   5.797   3.436  11.529  2.2085 -0.6082  0.0761
  100MOL0     H13485   5.970   3.271  11.474 -0.6335  0.6359 -0.1520
  100MOL0     H13486   7.015   2.264  10.089  1.9288 -1.5021  0.7144
  100MOL0     H13487   7.252   2.232  10.048 -1.2826 -0.7123 -2.5604
  100MOL0     H13488   7.662   2.485   9.991 -2.7937 -1.5308 -0.0793
  100MOL0     H13489   7.918   2.521   9.981 -1.2649 -1.0911 -2.8715
  100MOL0     H13490   8.268   2.366  10.008 -0.9476 -0.1051 -1.7331
  100MOL0     H13491   8.138   2.412   9.913  1.6223 -0.7790  0.1479
  100MOL0     H13492   8.102   2.621  10.049  2.0789  1.5226 -2.1512
  100MOL0     H13493   8.271   2.607  10.020 -0.6970  0.3852 -0.1106
  100MOL0     H13494   8.297   2.518  10.266  0.2089  1.6339  2.1008
  100MOL0     H13495   8.118   2.535  10.270  1.0790 -1.0918 -1.1416
  100MOL0     H13496   8.228   2.722  10.391  1.3317 -1.0086  0.0746
  100MOL0     H13497   8.142   2.779  10.247 -0.5761 -1.4841 -0.5560
  100MOL0     H13498   8.549   2.889  10.194 -0.2871  0.6138 -2.6115
  100MOL0     H13499   7.953   2.198  10.270  2.3143  2.9848  0.7402
  100MOL0     H13500   7.704   2.191  10.286 -0.1923  0.3839 -1.1496
  101MOL0     O13501   5.915   1.583   0.639  0.8853  0.1023 -0.0568
  101MOL0     C13502   5.994   1.622   0.725 -0.0187 -0.3131 -0.3136
  101MOL0     O13503   5.965   1.677   0.844  0.7349 -0.1814  0.2189
  101MOL0     C13504   5.837   1.724   0.854  0.0396 -0.7996 -0.5691
  101MOL0     C13505   5.738   1.651   0.906  0.5161 -0.0245  0.2015
  101MOL0     C13506   5.604   1.685   0.892  0.5237  0.0687  1.1023
  101MOL0     C13507   5.569   1.814   0.836 -0.9563 -0.0828 -0.3999
  101MOL0     O13508   5.439   1.864   0.807  0.0103  0.3109  0.3272
  101MOL0     C13509   5.335   1.785   0.866  0.2785  0.2477  0.1084
  101MOL0     C13510   5.206   1.848   0.845 -0.6100  0.1504  0.5583
  101MOL0     C13511   5.082   1.785   0.912 -0.0188 -0.7487 -0.0945
  101MOL0     C13512   4.966   1.886   0.926  0.1935  0.1946 -0.7534
  101MOL0     C13513   4.855   1.818   1.000  0.6947 -0.1408  0.5403
  101MOL0     C13514   4.763   1.928   1.058  0.4425  0.1870  0.1446
  101MOL0     C13515   4.615   1.886   1.072 -0.0408 -0.1574  0.6039
  101MOL0     C13516   4.521   1.926   0.967  0.0377 -0.4875  0.4151
  101MOL0     N13517   4.381   1.919   1.016 -0.0486 -0.4142 -0.7013
  101MOL0     C13518   4.328   1.970   1.138  0.4785  0.1620  0.5667
  101MOL0     C13519   4.201   1.920   1.138  0.4245 -0.1409  0.7736
  101MOL0     C13520   4.094   1.929   1.246  0.5951  0.4263 -0.5276
  101MOL0     C13521   3.968   2.020   1.222  0.1138  0.7385  0.0810
  101MOL0     C13522   3.888   1.952   1.118  0.8721 -0.5778  1.0638
  101MOL0     C13523   3.747   2.016   1.142 -0.1660 -0.4978 -0.0959
  101MOL0     O13524   3.682   2.003   1.019 -0.0252 -0.4589  0.4151
  101MOL0     C13525   3.547   2.028   1.029  0.0028 -0.0116 -0.3095
  101MOL0     C13526   3.454   1.921   1.023  0.1148 -0.6749  0.6176
  101MOL0     C13527   3.318   1.938   1.037  0.2011 -0.4622  0.4834
  101MOL0     C13528   3.229   1.811   1.030 -0.0683  0.4647 -0.3169
  101MOL0     C13529   3.267   2.072   1.068  0.6075  0.4460  0.5051
  101MOL0     C13530   3.125   2.104   1.069 -0.0182  0.1868 -0.3402
  101MOL0     O13531   3.098   2.214   1.143 -0.8550  0.3690 -0.7105
  101MOL0     C13532   2.987   2.274   1.112 -0.1155  0.1191  0.8061
  101MOL0     C13533   2.894   2.319   1.207 -0.5891  0.5873  0.5113
  101MOL0     C13534   2.774   2.384   1.164  1.0250  0.4804  0.3263
  101MOL0     C13535   2.752   2.402   1.029  0.2093  0.6551 -0.1107
  101MOL0     O13536   2.648   2.478   0.989 -0.2884 -0.3204 -0.0436
  101MOL0     C13537   2.551   2.419   0.894 -0.3812 -0.3354  0.5365
  101MOL0     C13538   2.404   2.463   0.911  0.5350  1.3415  0.1792
  101MOL0     C13539   2.321   2.420   0.788  0.2751 -0.0114 -0.2136
  101MOL0     C13540   2.175   2.473   0.804 -0.5983 -0.1267  0.1054
  101MOL0     C13541   2.092   2.424   0.685  0.7245 -0.4560 -1.2835
  101MOL0     C13542   2.107   2.515   0.559 -0.1120  0.1979 -0.4226
  101MOL0     C13543   1.997   2.496   0.462  0.2158 -0.0767  0.0481
  101MOL0     C13544   2.033   2.560   0.331  0.0363 -0.3844 -0.2489
  101MOL0    Cl13545   1.913   2.489   0.223  0.1982 -0.4500  0.0557
  101MOL0     C13546   2.851   2.370   0.939  0.4948 -0.2759  0.2107
  101MOL0     C13547   2.961   2.308   0.978  0.6546 -0.6309 -0.5269
  101MOL0     O13548   3.049   2.034   1.002  0.3411 -0.4472  0.3746
  101MOL0     C13549   3.362   2.168   1.089 -0.1419  0.3039  0.6394
  101MOL0     C13550   3.494   2.145   1.052 -0.2738 -0.7888  0.6212
  101MOL0     N13551   4.184   1.838   1.024 -0.1745 -0.4692 -0.3788
  101MOL0     N13552   4.288   1.844   0.949 -0.1103 -0.1311  0.3553
  101MOL0     C13553   5.672   1.897   0.793 -0.5881 -0.1168 -0.5432
  101MOL0     C13554   5.803   1.855   0.804  0.1180  0.7224  1.0211
  101MOL0     C13555   6.136   1.586   0.708 -0.2087  0.3838  1.2345
  101MOL0     C13556   6.244   1.625   0.799  0.5104  0.9441  0.3843
  101MOL0     C13557   6.375   1.595   0.766 -0.8032  0.7400  0.4800
  101MOL0     C13558   6.412   1.528   0.649  0.3222 -0.5016 -0.0819
  101MOL0     O13559   6.543   1.508   0.609 -0.0794 -0.0487 -0.6387
  101MOL0     C13560   6.598   1.376   0.657 -0.7878  0.0767 -0.2629
  101MOL0     C13561   6.752   1.386   0.670  0.5180  0.3626 -0.0591
  101MOL0     C13562   6.831   1.403   0.537  0.3467 -0.0185  0.4648
  101MOL0     C13563   6.839   1.543   0.477  0.1778  0.0187 -0.5227
  101MOL0     C13564   6.936   1.617   0.567  0.2730 -0.0300  0.0104
  101MOL0     C13565   7.023   1.667   0.635  0.1853  0.5518  0.7573
  101MOL0     C13566   6.314   1.511   0.553  0.1534  0.4428  0.9700
  101MOL0     C13567   6.179   1.526   0.584 -0.4663 -0.3922 -0.1851
  101MOL0     H13568   5.754   1.548   0.938  1.4663 -0.3252 -1.1217
  101MOL0     H13569   5.536   1.615   0.937  0.8318 -1.5868 -0.8773
  101MOL0     H13570   5.326   1.684   0.823  1.2287  0.0856  0.2603
  101MOL0     H13571   5.362   1.778   0.972 -0.7049 -3.3191  0.2719
  101MOL0     H13572   5.222   1.949   0.885  1.4870 -0.2684  0.9155
  101MOL0     H13573   5.194   1.866   0.738 -2.2506  1.2307  0.8915
  101MOL0     H13574   5.053   1.695   0.857  3.4668 -1.7436 -0.5024
  101MOL0     H13575   5.109   1.749   1.012  1.5492 -1.7939 -0.8649
  101MOL0     H13576   4.999   1.965   0.994 -2.5478 -1.6005  3.0083
  101MOL0     H13577   4.932   1.934   0.833  0.4007  1.8782 -0.0061
  101MOL0     H13578   4.801   1.752   0.931  1.2157 -0.3140  0.2966
  101MOL0     H13579   4.885   1.756   1.085 -0.8834  0.5123  1.6241
  101MOL0     H13580   4.800   1.959   1.156  1.3075  1.7096 -0.6321
  101MOL0     H13581   4.764   2.021   0.999 -0.5765 -0.1514 -0.4379
  101MOL0     H13582   4.613   1.778   1.089 -1.7264 -0.2326  0.0998
  101MOL0     H13583   4.576   1.937   1.160 -0.2174  2.0002 -0.6585
  101MOL0     H13584   4.533   1.854   0.885 -2.7832  0.4543 -0.9462
  101MOL0     H13585   4.539   2.025   0.925  2.7814 -0.0028  2.4789
  101MOL0     H13586   4.357   2.041   1.215 -1.2499  1.9185 -0.3127
  101MOL0     H13587   4.065   1.825   1.265  3.7363 -0.3493  0.6593
  101MOL0     H13588   4.144   1.954   1.340  0.6495  0.7539 -0.6426
  101MOL0     H13589   4.000   2.121   1.193 -1.4011  1.0519 -0.5993
  101MOL0     H13590   3.920   2.026   1.319  1.4992 -2.0576  1.0476
  101MOL0     H13591   3.880   1.845   1.134 -0.0537 -0.4639  1.4342
  101MOL0     H13592   3.927   1.982   1.020  0.6255  0.3735  1.2458
  101MOL0     H13593   3.764   2.122   1.164 -3.0590 -0.1892  1.0650
  101MOL0     H13594   3.685   1.968   1.218 -1.4152 -0.5266 -1.1058
  101MOL0     H13595   3.488   1.818   1.008 -0.2466 -0.6981 -0.1209
  101MOL0     H13596   3.199   1.797   0.926  2.0247 -2.3265 -0.6747
  101MOL0     H13597   3.282   1.719   1.058 -2.4070 -1.5338 -2.0326
  101MOL0     H13598   3.142   1.810   1.095  0.1302 -3.2064  0.1135
  101MOL0     H13599   2.925   2.298   1.309  0.1790  1.6409  0.5012
  101MOL0     H13600   2.705   2.427   1.236  2.2781  1.1125  1.1951
  101MOL0     H13601   2.590   2.454   0.798  0.0065  0.3829  0.9492
  101MOL0     H13602   2.553   2.309   0.891 -0.8470 -0.3398  0.4011
  101MOL0     H13603   2.366   2.415   1.002  2.6727  0.7313  0.8029
  101MOL0     H13604   2.393   2.570   0.933  1.4020  1.1673  1.5773
  101MOL0     H13605   2.313   2.311   0.783  0.2446 -0.0103 -0.1940
  101MOL0     H13606   2.367   2.446   0.693 -0.8085 -2.5144 -1.5279
  101MOL0     H13607   2.139   2.430   0.898  1.0554  0.3790  1.0064
  101MOL0     H13608   2.176   2.582   0.815 -0.7747 -0.1933  0.8775
  101MOL0     H13609   1.990   2.416   0.724  1.2204  0.2093  0.2257
  101MOL0     H13610   2.129   2.324   0.663  0.3370 -1.1241  0.8626
  101MOL0     H13611   2.095   2.619   0.591 -4.4069  0.2379 -1.5813
  101MOL0     H13612   2.208   2.519   0.517  0.0366  2.2494  0.0084
  101MOL0     H13613   1.900   2.526   0.503 -1.9823  0.9131 -5.1655
  101MOL0     H13614   1.988   2.388   0.452 -0.4967  0.0707 -0.9685
  101MOL0     H13615   2.133   2.541   0.290  0.1507 -0.3334  0.0077
  101MOL0     H13616   2.024   2.667   0.348  0.9606 -0.4830  0.9089
  101MOL0     H13617   2.838   2.394   0.834  1.1675 -2.2722 -0.3683
  101MOL0     H13618   3.030   2.289   0.897 -1.0371 -2.7868 -1.5660
  101MOL0     H13619   3.341   2.270   1.119 -1.0013  0.3009  0.0950
  101MOL0     H13620   3.561   2.230   1.053  1.9138 -2.4364 -0.0452
  101MOL0     H13621   5.660   1.998   0.754  2.9103  0.2293 -1.0518
  101MOL0     H13622   5.885   1.922   0.784  1.3121 -1.1350 -0.7346
  101MOL0     H13623   6.224   1.678   0.891  2.0234 -0.8116  1.8051
  101MOL0     H13624   6.447   1.632   0.838  0.2580 -2.6950  1.4172
  101MOL0     H13625   6.563   1.349   0.757  1.1984 -0.1968  0.4045
  101MOL0     H13626   6.572   1.294   0.589  0.0889 -1.6915  1.4366
  101MOL0     H13627   6.771   1.300   0.734 -4.0787 -0.2574  0.8032
  101MOL0     H13628   6.778   1.467   0.739  0.8311 -0.8116  1.2558
  101MOL0     H13629   6.797   1.339   0.456 -0.7558 -0.0410  0.9193
  101MOL0     H13630   6.933   1.367   0.552 -0.6023 -3.3787 -0.2790
  101MOL0     H13631   6.741   1.590   0.478 -1.5024 -2.7106 -4.8975
  101MOL0     H13632   6.867   1.539   0.371 -0.4741 -1.6529 -0.6626
  101MOL0     H13633   7.103   1.720   0.683  1.6350 -0.5278 -0.3950
  101MOL0     H13634   6.333   1.472   0.454 -1.9109  1.8603 -0.0679
  101MOL0     H13635   6.110   1.493   0.507 -1.5684 -1.9332  1.3793
  102MOL0     O13636   4.100   7.460   4.916  0.3317  0.3626  0.3072
  102MOL0     C13637   4.093   7.528   4.813 -0.9628 -1.3196 -1.1645
  102MOL0     O13638   3.980   7.569   4.742  0.9092  0.4181  0.2627
  102MOL0     C13639   3.853   7.554   4.793  1.0280  0.3777 -0.1446
  102MOL0     C13640   3.814   7.602   4.916 -0.1677 -0.4488 -0.0111
  102MOL0     C13641   3.680   7.592   4.954 -0.5371  0.4240  0.4069
  102MOL0     C13642   3.585   7.524   4.883  0.2750 -0.8563  0.4897
  102MOL0     O13643   3.457   7.540   4.923  0.0031 -0.0482 -0.2483
  102MOL0     C13644   3.367   7.585   4.820 -0.0381 -0.3173 -0.1433
  102MOL0     C13645   3.228   7.587   4.879 -0.4600 -0.3346 -0.1074
  102MOL0     C13646   3.161   7.723   4.856 -0.7558  0.2017 -0.4805
  102MOL0     C13647   3.029   7.726   4.935 -0.7383  0.0205  0.1717
  102MOL0     C13648   2.960   7.859   4.915 -0.1401 -0.4335 -0.2919
  102MOL0     C13649   2.919   7.898   4.769 -0.2452 -0.2996 -0.7583
  102MOL0     C13650   2.817   8.018   4.779  0.3977  0.1045  0.1870
  102MOL0     C13651   2.760   8.031   4.637  0.6421  0.7234 -0.5639
  102MOL0     N13652   2.645   8.122   4.644 -0.2770  0.3905  0.1944
  102MOL0     C13653   2.542   8.127   4.553  1.0686 -0.3959 -1.1175
  102MOL0     C13654   2.454   8.221   4.600 -0.3648  0.3372 -0.0429
  102MOL0     C13655   2.328   8.276   4.549 -0.0583  0.1809  0.1478
  102MOL0     C13656   2.320   8.291   4.392  0.1830 -0.6991  0.0610
  102MOL0     C13657   2.449   8.359   4.331 -0.3019 -0.5317 -0.1557
  102MOL0     C13658   2.449   8.380   4.181 -0.3588  0.3832 -0.2291
  102MOL0     O13659   2.463   8.248   4.113  0.1305  0.1039  0.8355
  102MOL0     C13660   2.549   8.153   4.154  0.8661 -0.2117  0.4762
  102MOL0     C13661   2.680   8.166   4.120 -0.6711  0.2947 -0.2237
  102MOL0     C13662   2.772   8.066   4.144 -0.4002  0.7802 -0.5102
  102MOL0     C13663   2.910   8.083   4.076 -0.0856  0.4451  0.1328
  102MOL0     C13664   2.733   7.956   4.221  0.5552  0.1493  0.3831
  102MOL0     C13665   2.824   7.851   4.272  0.0721  0.1183 -0.5478
  102MOL0     O13666   2.953   7.882   4.310 -0.2091 -0.7234 -0.1302
  102MOL0     C13667   3.021   7.788   4.378  0.2408 -0.0816  1.0368
  102MOL0     C13668   3.155   7.782   4.349  0.3130 -0.7605  0.5338
  102MOL0     C13669   3.239   7.682   4.390  0.3322  0.3393  0.1429
  102MOL0     C13670   3.184   7.591   4.484 -0.7894 -0.4220  0.1374
  102MOL0     O13671   3.241   7.477   4.534  0.4448  0.2501 -0.3618
  102MOL0     C13672   3.354   7.421   4.467  0.7958 -0.1825 -0.9054
  102MOL0     C13673   3.376   7.279   4.526 -0.6505  0.1140 -0.4015
  102MOL0     C13674   3.516   7.230   4.487 -0.6233 -0.3425 -0.1973
  102MOL0     C13675   3.516   7.077   4.513 -0.6556  0.4612  0.2447
  102MOL0     C13676   3.649   7.022   4.477  1.2967 -0.4230 -0.2188
  102MOL0     C13677   3.637   6.864   4.465  0.5914  0.3581  1.0291
  102MOL0     C13678   3.767   6.785   4.453 -0.4163 -0.5030  0.3465
  102MOL0     C13679   3.820   6.764   4.306 -0.9183 -0.6621  0.6802
  102MOL0    Cl13680   3.727   6.641   4.219  0.0534  0.1416 -0.3052
  102MOL0     C13681   3.058   7.600   4.518  0.0140  1.1098  0.1933
  102MOL0     C13682   2.970   7.697   4.471  0.1877  0.4062  0.0092
  102MOL0     O13683   2.773   7.738   4.272 -0.0049  0.4484  0.5931
  102MOL0     C13684   2.595   7.942   4.257 -0.4006  0.2928 -0.2034
  102MOL0     C13685   2.504   8.045   4.213  0.1714 -0.5081 -0.9374
  102MOL0     N13686   2.507   8.270   4.722 -0.2852 -0.1061 -0.1782
  102MOL0     N13687   2.627   8.217   4.740  0.7216 -0.1360  0.2764
  102MOL0     C13688   3.623   7.476   4.756 -0.3602  0.5305 -0.2647
  102MOL0     C13689   3.752   7.484   4.713  0.0012 -0.2562  0.2134
  102MOL0     C13690   4.224   7.559   4.757  0.0344  0.0182  0.5036
  102MOL0     C13691   4.232   7.626   4.635 -0.4276 -0.5340 -0.3255
  102MOL0     C13692   4.357   7.647   4.574 -0.7052 -0.4257  0.1911
  102MOL0     C13693   4.477   7.608   4.633 -0.5623 -0.4279 -0.3475
  102MOL0     O13694   4.592   7.637   4.577 -0.4735 -0.6770  0.1685
  102MOL0     C13695   4.628   7.561   4.465  0.1804 -0.1395 -0.2020
  102MOL0     C13696   4.779   7.539   4.479  0.6811 -0.2629  0.4648
  102MOL0     C13697   4.823   7.443   4.585  0.8109  0.1010 -0.2118
  102MOL0     C13698   4.972   7.416   4.577  0.4311 -0.6653  0.3553
  102MOL0     C13699   5.009   7.299   4.661 -0.5003  0.0184 -0.3804
  102MOL0     C13700   5.045   7.201   4.719 -0.6143 -0.1728  1.2581
  102MOL0     C13701   4.470   7.549   4.757 -0.2938 -0.2019  0.4122
  102MOL0     C13702   4.345   7.516   4.815 -0.0395  0.2655 -0.1949
  102MOL0     H13703   3.874   7.664   4.982  0.3379 -2.1681  1.2207
  102MOL0     H13704   3.650   7.643   5.045  0.4393 -1.2016  1.6826
  102MOL0     H13705   3.394   7.687   4.792 -2.7886  0.8647  1.1756
  102MOL0     H13706   3.364   7.524   4.729  2.6630  1.1963 -1.3694
  102MOL0     H13707   3.163   7.515   4.829  1.6690 -1.9322 -0.7040
  102MOL0     H13708   3.221   7.570   4.987  1.1091  2.3386  0.5156
  102MOL0     H13709   3.227   7.804   4.889  1.4379 -2.1394  1.3463
  102MOL0     H13710   3.148   7.731   4.748 -0.2123  2.5000 -0.4397
  102MOL0     H13711   2.964   7.639   4.919  0.2402 -0.6790 -0.0870
  102MOL0     H13712   3.062   7.722   5.040  2.8758  3.3645 -0.6239
  102MOL0     H13713   2.865   7.852   4.967 -0.1897 -0.0078 -0.3198
  102MOL0     H13714   3.008   7.941   4.970  0.6204 -0.7642 -0.4406
  102MOL0     H13715   2.999   7.938   4.706 -0.2104  0.5801 -0.1673
  102MOL0     H13716   2.875   7.809   4.721  4.1915 -4.5095  2.0097
  102MOL0     H13717   2.751   7.999   4.864  0.4927 -0.7083  0.0874
  102MOL0     H13718   2.883   8.100   4.807  2.3184 -0.9453 -1.0303
  102MOL0     H13719   2.736   7.930   4.604  1.4406  0.7718 -1.3245
  102MOL0     H13720   2.838   8.066   4.570 -0.0097  1.5555 -0.9178
  102MOL0     H13721   2.535   8.078   4.457  3.6350 -2.7170 -0.2515
  102MOL0     H13722   2.250   8.208   4.584 -0.6706 -0.3839 -2.0954
  102MOL0     H13723   2.290   8.369   4.592 -2.5167 -0.1354 -1.1463
  102MOL0     H13724   2.227   8.347   4.376 -0.6611 -2.2617 -0.7629
  102MOL0     H13725   2.314   8.190   4.351  2.1797 -1.1355  0.7472
  102MOL0     H13726   2.543   8.315   4.366  0.4591  0.0105 -1.4690
  102MOL0     H13727   2.452   8.457   4.380  0.3421 -0.2712 -0.7100
  102MOL0     H13728   2.531   8.443   4.145 -1.2122  2.3793  1.2001
  102MOL0     H13729   2.355   8.430   4.157 -0.5673  2.1030  3.5246
  102MOL0     H13730   2.713   8.258   4.073 -2.7950  1.1502 -0.1457
  102MOL0     H13731   2.981   8.106   4.157 -0.7012 -1.1998  1.1964
  102MOL0     H13732   2.928   7.987   4.027 -1.4118  1.2004 -1.9528
  102MOL0     H13733   2.913   8.157   3.995 -0.0140 -0.7136 -0.9452
  102MOL0     H13734   3.194   7.857   4.281 -1.7853 -0.4089 -0.3677
  102MOL0     H13735   3.344   7.685   4.365  0.1198  2.3750 -0.7276
  102MOL0     H13736   3.332   7.411   4.361 -0.6034  4.3337 -1.2439
  102MOL0     H13737   3.442   7.484   4.478 -0.4339  1.1758  2.6065
  102MOL0     H13738   3.368   7.269   4.634  1.9688 -0.8982 -0.2568
  102MOL0     H13739   3.300   7.213   4.483 -0.5341  0.1933 -0.7349
  102MOL0     H13740   3.595   7.282   4.542 -0.7531 -0.8749  0.4999
  102MOL0     H13741   3.536   7.257   4.383 -0.5806 -1.0737 -0.3840
  102MOL0     H13742   3.484   7.072   4.618  1.5885  0.1478  0.9661
  102MOL0     H13743   3.443   7.033   4.445 -0.7001  0.0666  0.5452
  102MOL0     H13744   3.726   7.036   4.554 -0.8237 -1.2706  2.1806
  102MOL0     H13745   3.679   7.069   4.384 -2.6461  2.9365 -0.0616
  102MOL0     H13746   3.572   6.824   4.544 -2.1214 -2.0124 -2.1089
  102MOL0     H13747   3.585   6.846   4.370  2.2409 -2.5812  0.5761
  102MOL0     H13748   3.756   6.685   4.496 -0.1894 -0.8752 -0.4356
  102MOL0     H13749   3.841   6.837   4.515  0.4447 -0.7660 -0.4398
  102MOL0     H13750   3.927   6.744   4.299 -0.9852 -0.4113 -2.0932
  102MOL0     H13751   3.792   6.858   4.257 -2.5901 -0.8066  1.2762
  102MOL0     H13752   3.011   7.519   4.572  0.5318  0.0387 -0.9194
  102MOL0     H13753   2.865   7.691   4.496  0.0329  1.1468 -0.4257
  102MOL0     H13754   2.566   7.858   4.318 -0.0200 -0.0137 -0.4437
  102MOL0     H13755   2.398   8.027   4.228  0.5026 -0.8151  1.4350
  102MOL0     H13756   3.549   7.431   4.691  0.7698  0.9175 -1.9098
  102MOL0     H13757   3.775   7.442   4.615 -3.5591  4.3994 -3.1163
  102MOL0     H13758   4.145   7.651   4.574 -0.4562 -0.6411 -0.3279
  102MOL0     H13759   4.378   7.690   4.476 -1.4574  1.0497  0.6396
  102MOL0     H13760   4.585   7.462   4.449 -1.3452  0.1448  1.7735
  102MOL0     H13761   4.613   7.626   4.378 -2.2969 -0.5363 -0.1415
  102MOL0     H13762   4.833   7.632   4.497  0.4339  0.0947 -0.5369
  102MOL0     H13763   4.809   7.497   4.382  0.4292 -1.3248  0.8337
  102MOL0     H13764   4.769   7.349   4.571 -1.6333  1.4114 -0.0126
  102MOL0     H13765   4.788   7.481   4.681 -2.7655 -0.7705 -1.0126
  102MOL0     H13766   5.026   7.502   4.618  1.9821 -1.1397 -0.6093
  102MOL0     H13767   5.006   7.402   4.474  4.6826  2.6229  1.0021
  102MOL0     H13768   5.083   7.113   4.767 -0.2779 -0.2537  0.8551
  102MOL0     H13769   4.557   7.505   4.804 -0.4835 -1.9449 -0.7856
  102MOL0     H13770   4.341   7.462   4.909  0.9572  0.1359 -0.2118
  103MOL0     O13771   0.836   8.027   6.719  0.2604  0.0027 -0.4167
  103MOL0     C13772   0.894   8.123   6.768  0.0593  1.0874  1.2336
  103MOL0     O13773   0.842   8.252   6.777  0.2315 -0.0583  0.2391
  103MOL0     C13774   0.725   8.270   6.703  0.0728 -0.6661 -0.2031
  103MOL0     C13775   0.609   8.310   6.763  0.8271  0.1507 -0.1242
  103MOL0     C13776   0.494   8.328   6.686  0.5442 -1.6874  0.1624
  103MOL0     C13777   0.495   8.318   6.548 -0.1246 -0.3280 -0.8669
  103MOL0     O13778   0.368   8.342   6.488 -0.4175  0.0834  0.5905
  103MOL0     C13779   0.372   8.364   6.350 -0.2525 -0.8205  0.2430
  103MOL0     C13780   0.230   8.411   6.309  0.1928 -0.4450 -0.8488
  103MOL0     C13781   0.175   8.389   6.167  1.0107  0.4481 -0.4784
  103MOL0     C13782   0.029   8.442   6.156  0.0380 -0.4645  0.2003
  103MOL0     C13783  -0.011   8.418   6.009 -0.8138 -0.5119 -0.0083
  103MOL0     C13784  -0.164   8.449   5.972 -0.0177  0.4976  0.5504
  103MOL0     C13785  -0.209   8.461   5.830  0.9324 -0.0411  0.1442
  103MOL0     C13786  -0.353   8.521   5.811  0.2216 -0.7094  0.0699
  103MOL0     N13787  -0.414   8.508   5.678 -0.9896  0.2531  0.8843
  103MOL0     C13788  -0.442   8.393   5.607  0.4012 -0.0247  0.7498
  103MOL0     C13789  -0.503   8.433   5.493 -0.4780 -0.2694  0.1678
  103MOL0     C13790  -0.557   8.339   5.394  0.0889  0.1844  0.6050
  103MOL0     C13791  -0.699   8.344   5.348 -0.0002 -0.8540 -0.6780
  103MOL0     C13792  -0.756   8.479   5.323  0.3038  0.3834  0.2075
  103MOL0     C13793  -0.898   8.458   5.268 -0.0446  0.1066  0.4158
  103MOL0     O13794  -0.969   8.586   5.297  0.0962 -0.0571 -0.3911
  103MOL0     C13795  -1.103   8.575   5.300  0.5305  0.7795 -0.8339
  103MOL0     C13796  -1.168   8.615   5.418  0.6133  0.8743  0.3177
  103MOL0     C13797  -1.301   8.601   5.442  0.2871 -0.7790 -0.4217
  103MOL0     C13798  -1.347   8.633   5.581  0.9740 -0.1501  0.1837
  103MOL0     C13799  -1.385   8.551   5.339 -0.5927  0.0276 -0.6568
  103MOL0     C13800  -1.533   8.541   5.349  0.4508 -0.4531 -0.3088
  103MOL0     O13801  -1.598   8.638   5.413 -0.1888 -0.5886  0.4103
  103MOL0     C13802  -1.728   8.625   5.453 -0.4889  1.2410 -0.0563
  103MOL0     C13803  -1.823   8.602   5.354  0.1293 -0.3379 -0.2875
  103MOL0     C13804  -1.964   8.609   5.379  0.2957  0.8673  0.7338
  103MOL0     C13805  -2.006   8.620   5.509 -0.2583  0.7716  0.6225
  103MOL0     O13806  -2.139   8.604   5.525 -0.1426  0.0995 -0.0931
  103MOL0     C13807  -2.188   8.528   5.643 -0.0778 -0.1388 -0.8651
  103MOL0     C13808  -2.337   8.500   5.630 -0.0281 -0.3477  0.3353
  103MOL0     C13809  -2.412   8.467   5.757  0.4839 -0.2530 -0.4631
  103MOL0     C13810  -2.568   8.478   5.736  0.1693 -0.0624  0.1255
  103MOL0     C13811  -2.639   8.395   5.846 -0.9756  0.1505  0.1323
  103MOL0     C13812  -2.782   8.444   5.850  0.3422 -0.3232 -0.1142
  103MOL0     C13813  -2.852   8.352   5.961  0.2270  0.2814 -0.1635
  103MOL0     C13814  -3.003   8.346   5.935  0.4494 -0.1964 -0.3621
  103MOL0    Cl13815  -3.088   8.242   6.056  0.0169  0.3201  0.0155
  103MOL0     C13816  -1.909   8.647   5.607  0.9906  0.2682 -0.5964
  103MOL0     C13817  -1.771   8.654   5.583 -0.4724 -0.4725  0.0464
  103MOL0     O13818  -1.583   8.447   5.293 -0.1237  0.0356 -0.9129
  103MOL0     C13819  -1.319   8.507   5.220  0.8741  0.0737 -0.5569
  103MOL0     C13820  -1.186   8.526   5.197  0.4884 -0.1125  0.1452
  103MOL0     N13821  -0.513   8.571   5.498 -0.5244  0.4244  1.0487
  103MOL0     N13822  -0.445   8.619   5.602  0.5824 -0.5623 -0.1011
  103MOL0     C13823   0.615   8.289   6.487  0.2330 -0.0804 -0.1477
  103MOL0     C13824   0.719   8.261   6.565 -0.0984  0.7220 -0.1232
  103MOL0     C13825   1.021   8.096   6.840 -0.2569  0.0864 -0.3837
  103MOL0     C13826   1.052   7.962   6.879 -0.6588  0.5021  0.1340
  103MOL0     C13827   1.186   7.939   6.933  0.4378  1.1490 -0.5405
  103MOL0     C13828   1.275   8.047   6.949  0.9161 -1.2316 -0.0663
  103MOL0     O13829   1.387   8.006   7.002  0.4153 -1.1159  0.2298
  103MOL0     C13830   1.491   8.106   7.005 -0.2067 -0.1446 -0.0905
  103MOL0     C13831   1.613   8.035   7.063  0.1461 -0.3493 -0.1276
  103MOL0     C13832   1.747   8.121   7.087 -0.0366 -0.4208 -0.2774
  103MOL0     C13833   1.844   8.068   7.195  0.0086  1.2055 -0.4420
  103MOL0     C13834   1.896   7.944   7.137  0.6839 -0.0054 -0.7028
  103MOL0     C13835   1.955   7.844   7.091  0.0102 -0.3307  0.2236
  103MOL0     C13836   1.229   8.178   6.920 -0.9508  0.3113 -0.6366
  103MOL0     C13837   1.104   8.201   6.867 -0.4043  0.1183  0.0240
  103MOL0     H13838   0.618   8.326   6.869 -2.1128 -0.6516  0.3456
  103MOL0     H13839   0.399   8.355   6.732  0.3949 -0.7688 -0.6443
  103MOL0     H13840   0.443   8.443   6.324 -1.5644  0.0476 -0.8192
  103MOL0     H13841   0.396   8.271   6.298 -2.9804 -1.5792  0.2155
  103MOL0     H13842   0.159   8.357   6.372 -0.5384 -1.3186 -2.3564
  103MOL0     H13843   0.222   8.518   6.333  0.2090 -0.4272 -0.9246
  103MOL0     H13844   0.229   8.450   6.095 -0.4929 -0.0166 -2.0657
  103MOL0     H13845   0.188   8.283   6.142  1.6125  0.1205  1.1039
  103MOL0     H13846  -0.029   8.393   6.234  1.3490 -0.1941  1.3966
  103MOL0     H13847   0.038   8.548   6.182 -1.9842  0.0594 -1.0174
  103MOL0     H13848   0.048   8.477   5.938 -0.6256 -1.5937 -0.7675
  103MOL0     H13849  -0.005   8.313   5.981 -0.8076 -0.2159 -1.1380
  103MOL0     H13850  -0.223   8.371   6.022  1.4410 -1.2533 -0.3247
  103MOL0     H13851  -0.186   8.548   6.011 -1.3615  1.4551 -2.3234
  103MOL0     H13852  -0.141   8.536   5.788 -1.7107  2.5440  0.2075
  103MOL0     H13853  -0.198   8.369   5.771 -1.3427  1.3435 -2.6492
  103MOL0     H13854  -0.350   8.626   5.842 -1.6040 -0.3900 -0.7425
  103MOL0     H13855  -0.421   8.474   5.883 -0.7413  0.1699 -0.2391
  103MOL0     H13856  -0.429   8.290   5.640  1.1703  0.2134  1.2250
  103MOL0     H13857  -0.508   8.348   5.296 -1.3409 -0.9550 -0.2606
  103MOL0     H13858  -0.534   8.237   5.427  0.1460 -0.8815 -2.3961
  103MOL0     H13859  -0.764   8.288   5.416 -1.6233  1.2071 -0.4260
  103MOL0     H13860  -0.703   8.285   5.256  2.6537  0.2313 -1.5945
  103MOL0     H13861  -0.704   8.535   5.246 -0.2032  1.0461  0.3352
  103MOL0     H13862  -0.760   8.533   5.418  0.2221  3.6944 -1.5191
  103MOL0     H13863  -0.938   8.368   5.316 -0.6480 -0.0216 -0.3073
  103MOL0     H13864  -0.888   8.443   5.160  0.9975  0.8379  0.4011
  103MOL0     H13865  -1.095   8.649   5.491  0.3939 -0.1356  1.0201
  103MOL0     H13866  -1.412   8.555   5.622 -0.1061  0.2558 -0.7253
  103MOL0     H13867  -1.260   8.657   5.643  2.1770  0.1301 -1.5322
  103MOL0     H13868  -1.400   8.728   5.582  1.6288  0.2583 -1.3501
  103MOL0     H13869  -1.794   8.576   5.252  2.4286 -4.3160  1.1678
  103MOL0     H13870  -2.031   8.582   5.298  0.3032  1.1155  0.6449
  103MOL0     H13871  -2.127   8.438   5.652 -0.3837 -0.2419  0.2359
  103MOL0     H13872  -2.168   8.586   5.733 -0.9122  0.4256 -1.0352
  103MOL0     H13873  -2.375   8.591   5.582  1.3303 -0.4757 -1.0564
  103MOL0     H13874  -2.352   8.417   5.561 -0.3587  0.8543 -1.0995
  103MOL0     H13875  -2.384   8.535   5.838 -0.5425  1.7031 -1.6796
  103MOL0     H13876  -2.389   8.363   5.781  0.4532 -0.2576 -0.4515
  103MOL0     H13877  -2.601   8.582   5.736 -0.0488 -0.1274  0.8449
  103MOL0     H13878  -2.600   8.443   5.638  5.8198  0.3935 -2.2428
  103MOL0     H13879  -2.591   8.413   5.942  1.4374  3.6404 -1.5442
  103MOL0     H13880  -2.625   8.290   5.819 -0.3009  0.2691  0.0056
  103MOL0     H13881  -2.781   8.550   5.879 -0.7586 -0.0273 -1.0823
  103MOL0     H13882  -2.830   8.425   5.754  2.2907 -1.5189 -0.9171
  103MOL0     H13883  -2.839   8.397   6.060 -2.2768 -1.1576  0.8892
  103MOL0     H13884  -2.809   8.252   5.952 -2.9359 -1.0276 -2.7131
  103MOL0     H13885  -3.017   8.316   5.831 -0.7866  0.8783 -0.5344
  103MOL0     H13886  -3.032   8.451   5.942  1.8939  0.1336  1.3985
  103MOL0     H13887  -1.946   8.675   5.705 -3.6261 -0.9127 -1.7428
  103MOL0     H13888  -1.702   8.672   5.664  3.4583 -0.1091 -3.0663
  103MOL0     H13889  -1.384   8.468   5.142 -1.2237  2.8070 -0.3344
  103MOL0     H13890  -1.151   8.498   5.099 -2.3117  1.6105 -1.4763
  103MOL0     H13891   0.611   8.278   6.379  0.1160 -1.7113  0.0024
  103MOL0     H13892   0.803   8.214   6.516  1.2144  2.6159  0.2038
  103MOL0     H13893   0.988   7.875   6.863 -0.2473 -0.5607  3.4719
  103MOL0     H13894   1.217   7.835   6.946 -2.7685 -0.1745 -2.2529
  103MOL0     H13895   1.520   8.161   6.915 -0.9840  1.0681  0.3625
  103MOL0     H13896   1.450   8.185   7.069 -0.5933  0.5991 -1.2124
  103MOL0     H13897   1.639   7.952   6.998 -0.0216 -0.1592 -0.4369
  103MOL0     H13898   1.583   7.992   7.159  0.1626  3.4356  1.7767
  103MOL0     H13899   1.727   8.219   7.132 -0.9944 -2.7737  5.1597
  103MOL0     H13900   1.796   8.129   6.989 -0.0666 -1.3154 -0.3687
  103MOL0     H13901   1.779   8.052   7.282  1.2110 -2.9776 -0.0943
  103MOL0     H13902   1.924   8.139   7.215  3.2563 -2.5823  1.3500
  103MOL0     H13903   2.011   7.764   7.049 -0.0065 -1.7401  2.6871
  103MOL0     H13904   1.291   8.263   6.950  1.2965 -1.6632  0.6844
  103MOL0     H13905   1.085   8.303   6.836  1.4057  0.1011 -1.3504
  104MOL0     O13906   4.530   0.678   8.632  0.6556  0.0950  0.4235
  104MOL0     C13907   4.539   0.604   8.725 -0.2272 -0.7557  0.6175
  104MOL0     O13908   4.484   0.616   8.852 -0.6349 -0.4581  1.0990
  104MOL0     C13909   4.391   0.713   8.861  0.5081 -0.5922  0.1732
  104MOL0     C13910   4.422   0.817   8.948  0.7223  0.4203 -0.4687
  104MOL0     C13911   4.331   0.922   8.968  0.6087 -0.1029  0.0341
  104MOL0     C13912   4.200   0.914   8.914 -0.4083  1.1476 -0.9589
  104MOL0     O13913   4.116   1.027   8.902 -0.4729  0.2821  0.5103
  104MOL0     C13914   4.160   1.150   8.971 -0.6926 -0.3298 -0.0831
  104MOL0     C13915   4.042   1.244   8.954 -0.1030  0.1771 -0.3790
  104MOL0     C13916   3.907   1.178   9.004  0.9726 -0.3878  0.4621
  104MOL0     C13917   3.784   1.282   8.998 -0.5748  0.1669 -1.0152
  104MOL0     C13918   3.675   1.227   9.080  0.1256  1.0096 -0.1443
  104MOL0     C13919   3.566   1.327   9.108  0.1285 -0.5635 -0.9258
  104MOL0     C13920   3.442   1.255   9.154 -0.6390  0.4336  1.0487
  104MOL0     C13921   3.340   1.233   9.040  0.6055 -0.1631  0.2799
  104MOL0     N13922   3.304   1.098   9.034  0.4516 -0.2097 -0.2590
  104MOL0     C13923   3.225   1.031   9.138 -0.2815  0.1336  0.1654
  104MOL0     C13924   3.211   0.905   9.094 -0.3570 -0.4373  0.2483
  104MOL0     C13925   3.140   0.784   9.151 -0.1778 -0.1321  0.4354
  104MOL0     C13926   3.004   0.750   9.088 -0.4730 -0.5441  0.2232
  104MOL0     C13927   2.908   0.863   9.104  0.1723  0.2288  0.1153
  104MOL0     C13928   2.775   0.859   9.022 -0.4381  0.5551  0.0156
  104MOL0     O13929   2.804   0.882   8.885 -0.5499  0.6191 -0.1787
  104MOL0     C13930   2.707   0.859   8.791 -0.6448 -0.5699 -0.1444
  104MOL0     C13931   2.734   0.892   8.652 -0.7894 -0.2407 -0.6508
  104MOL0     C13932   2.642   0.882   8.554  0.5668 -0.7950  0.0443
  104MOL0     C13933   2.684   0.924   8.414  0.3366  0.7250 -0.8639
  104MOL0     C13934   2.508   0.839   8.584  0.8316  0.5176 -0.2907
  104MOL0     C13935   2.403   0.819   8.473  0.3419  0.9080 -0.5819
  104MOL0     O13936   2.303   0.722   8.505  0.4253 -0.1312  0.7224
  104MOL0     C13937   2.194   0.719   8.422 -0.5414 -0.4465  0.4190
  104MOL0     C13938   2.169   0.599   8.347  0.2026 -0.1879  0.0058
  104MOL0     C13939   2.047   0.583   8.277  0.7982  0.1158  0.6396
  104MOL0     C13940   1.949   0.690   8.271 -0.6451 -0.6750 -0.2721
  104MOL0     O13941   1.824   0.678   8.218  0.4539  0.0285 -0.5101
  104MOL0     C13942   1.719   0.774   8.254 -0.6121  0.3547  0.0488
  104MOL0     C13943   1.586   0.722   8.193  0.3603 -0.0340 -1.1967
  104MOL0     C13944   1.473   0.829   8.210  0.0269  0.3630  0.4051
  104MOL0     C13945   1.331   0.771   8.196 -0.2068  0.6685 -0.3501
  104MOL0     C13946   1.226   0.887   8.199 -0.5139  0.2232 -0.0700
  104MOL0     C13947   1.087   0.839   8.161  0.4371 -0.7783 -0.3347
  104MOL0     C13948   0.979   0.934   8.200  0.1283  0.1469 -0.7472
  104MOL0     C13949   0.837   0.891   8.155 -0.6061  0.3269 -0.4326
  104MOL0    Cl13950   0.716   1.004   8.218 -0.0857  0.2868  0.0679
  104MOL0     C13951   1.989   0.809   8.331  1.7559  0.0174 -0.3061
  104MOL0     C13952   2.109   0.826   8.404 -0.3279  0.3818 -0.4208
  104MOL0     O13953   2.402   0.893   8.372  0.2409  0.3529 -0.2067
  104MOL0     C13954   2.476   0.806   8.718  0.7202 -0.1725 -0.6651
  104MOL0     C13955   2.572   0.814   8.820 -0.7372 -0.1619 -0.8769
  104MOL0     N13956   3.290   0.892   8.980  0.0039  0.4310  1.1998
  104MOL0     N13957   3.329   1.011   8.933 -1.1028 -1.6177  0.0866
  104MOL0     C13958   4.165   0.802   8.842  0.4160  0.1804 -0.5455
  104MOL0     C13959   4.265   0.707   8.804  0.2206 -0.1735 -0.4765
  104MOL0     C13960   4.628   0.493   8.710  0.3886 -0.5049  0.4532
  104MOL0     C13961   4.645   0.427   8.589  0.0810  0.0662  0.5895
  104MOL0     C13962   4.720   0.313   8.578  0.0950 -0.0876 -0.2402
  104MOL0     C13963   4.791   0.265   8.683  0.0417 -0.9067 -0.8154
  104MOL0     O13964   4.865   0.152   8.673  0.2235  0.8703 -0.4546
  104MOL0     C13965   4.890   0.087   8.541 -0.0775 -0.9131  0.1982
  104MOL0     C13966   4.959  -0.049   8.558 -0.2496 -0.8995  0.2978
  104MOL0     C13967   5.105  -0.016   8.601  0.2762 -0.2029 -0.0096
  104MOL0     C13968   5.188  -0.140   8.611 -0.0859 -0.8917  0.2498
  104MOL0     C13969   5.156  -0.250   8.707  1.0027 -0.4690  0.7873
  104MOL0     C13970   5.134  -0.337   8.790  0.0531 -0.2594  0.4438
  104MOL0     C13971   4.779   0.326   8.811 -0.3756  0.0027  0.2201
  104MOL0     C13972   4.690   0.430   8.824 -0.1980  0.7617  0.2396
  104MOL0     H13973   4.523   0.819   8.989  0.8372 -3.7331 -0.0754
  104MOL0     H13974   4.372   0.999   9.033 -1.9721  0.3610  1.2510
  104MOL0     H13975   4.174   1.134   9.078  0.2329 -0.2147 -0.1821
  104MOL0     H13976   4.246   1.200   8.925 -0.4764 -1.1758 -0.6344
  104MOL0     H13977   4.067   1.338   9.003 -0.9805  0.1663  0.1179
  104MOL0     H13978   4.035   1.265   8.847  0.6715  0.1250 -0.4477
  104MOL0     H13979   3.875   1.087   8.952 -2.8878  0.3174  1.2601
  104MOL0     H13980   3.912   1.151   9.109 -0.2974 -1.4663  0.2697
  104MOL0     H13981   3.821   1.372   9.048 -1.2321 -0.3672  0.4975
  104MOL0     H13982   3.745   1.303   8.898 -0.2562 -2.2007 -1.6977
  104MOL0     H13983   3.625   1.154   9.016 -2.2475  0.4019  2.2003
  104MOL0     H13984   3.713   1.185   9.174 -0.3239  1.3480  0.1953
  104MOL0     H13985   3.599   1.386   9.194 -1.5247 -0.8318 -0.0711
  104MOL0     H13986   3.531   1.387   9.023 -2.2874  1.6029  1.4290
  104MOL0     H13987   3.469   1.156   9.193 -1.7497 -1.1658 -1.9242
  104MOL0     H13988   3.397   1.313   9.235 -3.7180  1.4134 -1.1750
  104MOL0     H13989   3.375   1.267   8.942  1.6544  1.2393  1.1016
  104MOL0     H13990   3.251   1.293   9.061 -1.9358 -3.3360 -0.6900
  104MOL0     H13991   3.190   1.074   9.231 -0.2884 -1.7509  1.0984
  104MOL0     H13992   3.210   0.701   9.139  0.8229  1.0500 -2.7875
  104MOL0     H13993   3.120   0.812   9.255  0.1051  2.6614 -0.1966
  104MOL0     H13994   2.964   0.657   9.131 -1.6151  0.0508  0.4830
  104MOL0     H13995   3.021   0.739   8.980  2.5616 -0.7966  0.6273
  104MOL0     H13996   2.955   0.961   9.087 -2.2839  1.2738 -1.2833
  104MOL0     H13997   2.879   0.853   9.208 -0.4231  0.5024 -0.0217
  104MOL0     H13998   2.716   0.937   9.069  0.0566  1.4004 -0.7317
  104MOL0     H13999   2.728   0.762   9.039  2.0876 -0.8309 -0.3471
  104MOL0     H14000   2.829   0.929   8.617  0.2419 -2.2983 -0.1696
  104MOL0     H14001   2.644   1.024   8.391 -3.0760 -0.6209 -1.3207
  104MOL0     H14002   2.792   0.916   8.396  0.7652 -1.4554  2.0551
  104MOL0     H14003   2.641   0.860   8.337  1.3361  0.0841 -0.8969
  104MOL0     H14004   2.234   0.512   8.359 -1.3013 -1.2476  0.9050
  104MOL0     H14005   2.032   0.486   8.229 -0.7907 -0.0845  1.4768
  104MOL0     H14006   1.711   0.786   8.363  1.5351  0.3159  0.2599
  104MOL0     H14007   1.739   0.872   8.211 -1.3704  0.5435  0.1143
  104MOL0     H14008   1.604   0.692   8.089  0.7406 -2.1826 -0.5629
  104MOL0     H14009   1.562   0.631   8.248  0.3461  0.4933 -0.3146
  104MOL0     H14010   1.491   0.899   8.129 -0.0861  1.1611  1.0584
  104MOL0     H14011   1.490   0.869   8.310  0.6063  0.1934  0.3752
  104MOL0     H14012   1.326   0.710   8.106  0.2492 -2.4447  1.5946
  104MOL0     H14013   1.319   0.706   8.283 -0.0975  0.4740 -0.4804
  104MOL0     H14014   1.261   0.966   8.132 -0.7440  0.4215  0.0423
  104MOL0     H14015   1.226   0.935   8.297 -4.2724  0.4295 -0.0083
  104MOL0     H14016   1.092   0.806   8.056 -2.2893 -0.2449 -0.7083
  104MOL0     H14017   1.062   0.748   8.217 -1.3661  0.7561  1.4718
  104MOL0     H14018   0.997   1.035   8.163 -1.3532  0.8579  0.4023
  104MOL0     H14019   0.986   0.938   8.309 -2.6865  2.6687 -0.5527
  104MOL0     H14020   0.815   0.793   8.198 -1.1560  1.2118  1.3965
  104MOL0     H14021   0.832   0.886   8.046  2.2607 -0.1642 -0.6274
  104MOL0     H14022   1.922   0.894   8.339  0.4329 -0.8470 -1.8035
  104MOL0     H14023   2.137   0.921   8.448 -0.6059  1.2676 -2.0768
  104MOL0     H14024   2.379   0.768   8.749  0.8837 -0.1319 -0.1016
  104MOL0     H14025   2.535   0.797   8.920 -0.7188 -1.7980 -1.1329
  104MOL0     H14026   4.060   0.792   8.816 -0.0876 -2.5767  1.9965
  104MOL0     H14027   4.243   0.627   8.733 -0.0773  1.1207 -1.9006
  104MOL0     H14028   4.590   0.472   8.507  1.9895 -1.0434 -1.4010
  104MOL0     H14029   4.723   0.266   8.480  0.7453 -1.4810  0.4166
  104MOL0     H14030   4.799   0.083   8.480 -0.8153  0.3157  1.1597
  104MOL0     H14031   4.959   0.152   8.486  2.1856 -3.1589  0.1704
  104MOL0     H14032   4.968  -0.110   8.468 -0.7057  1.7113 -1.6287
  104MOL0     H14033   4.914  -0.100   8.643 -2.4575 -1.6354 -1.2296
  104MOL0     H14034   5.107   0.024   8.703 -1.6157 -0.2779  0.0842
  104MOL0     H14035   5.147   0.047   8.522  2.0755 -1.1359  0.1545
  104MOL0     H14036   5.290  -0.102   8.622  0.8081 -2.1592 -2.5619
  104MOL0     H14037   5.190  -0.189   8.512  0.0699 -1.2215  0.4134
  104MOL0     H14038   5.111  -0.417   8.857  0.4206 -2.3585 -1.8046
  104MOL0     H14039   4.820   0.269   8.894  0.7724  0.4247 -0.0401
  104MOL0     H14040   4.670   0.472   8.922  0.4072  1.1390  0.2066
  105MOL0     O14041   5.323   0.054  10.145 -0.2321 -0.8020  0.1497
  105MOL0     C14042   5.364   0.146  10.071  0.5041  1.0197  0.0623
  105MOL0     O14043   5.288   0.243  10.013  0.7726 -0.6570 -0.5349
  105MOL0     C14044   5.151   0.230  10.011 -0.4762  1.0196 -0.3367
  105MOL0     C14045   5.096   0.139   9.924  0.2996 -0.0824  0.8163
  105MOL0     C14046   4.960   0.124   9.915  0.3487  0.9517 -0.3664
  105MOL0     C14047   4.879   0.199  10.007 -0.3479 -0.4879  0.4970
  105MOL0     O14048   4.746   0.159  10.015  0.3838 -0.0144  0.4906
  105MOL0     C14049   4.640   0.251  10.049 -0.9215 -0.0373  0.9768
  105MOL0     C14050   4.509   0.179  10.017  0.1321  0.4793 -0.1915
  105MOL0     C14051   4.388   0.247  10.086 -1.2088 -0.5513  0.4934
  105MOL0     C14052   4.373   0.390  10.015 -0.1327 -0.3483 -0.5825
  105MOL0     C14053   4.242   0.464  10.046  0.2153  0.1868 -0.2131
  105MOL0     C14054   4.133   0.385   9.989  0.3204 -0.1548 -0.1333
  105MOL0     C14055   3.995   0.421  10.065 -0.3124  0.0359  0.1365
  105MOL0     C14056   3.881   0.425   9.956  0.3371  0.1627  0.6061
  105MOL0     N14057   3.754   0.467  10.009  1.0432  0.2711 -0.0106
  105MOL0     C14058   3.721   0.593  10.034 -0.0507 -0.2066 -0.4957
  105MOL0     C14059   3.606   0.586  10.104  0.2602  0.0311  0.2806
  105MOL0     C14060   3.551   0.714  10.171  0.6417  0.0310  0.5478
  105MOL0     C14061   3.433   0.771  10.098 -0.0174 -0.2317 -0.4036
  105MOL0     C14062   3.307   0.690  10.120  0.2406  0.3583 -0.3704
  105MOL0     C14063   3.185   0.758  10.071  0.8283 -0.5045 -0.2715
  105MOL0     O14064   3.176   0.765   9.921 -0.5445 -0.0723  0.3480
  105MOL0     C14065   3.061   0.817   9.867  0.6843 -0.0796  0.1017
  105MOL0     C14066   2.937   0.845   9.933  0.2264 -0.4082 -0.3143
  105MOL0     C14067   2.823   0.892   9.867  0.1112 -0.0386  0.5966
  105MOL0     C14068   2.699   0.917   9.955 -1.0451  0.1554 -0.3495
  105MOL0     C14069   2.839   0.921   9.721  0.0965 -0.3349  0.2799
  105MOL0     C14070   2.731   0.969   9.627  0.5219  0.2259 -0.6328
  105MOL0     O14071   2.730   0.917   9.498 -0.2650  0.3185 -0.1633
  105MOL0     C14072   2.612   0.929   9.431  1.1249 -0.1944 -0.4544
  105MOL0     C14073   2.495   0.868   9.481  0.1398 -0.2438  1.1579
  105MOL0     C14074   2.374   0.896   9.425  0.1774 -0.0199 -0.3957
  105MOL0     C14075   2.364   0.989   9.321 -0.2584  0.1969  0.3175
  105MOL0     O14076   2.241   1.000   9.254 -0.2368  0.2012 -0.2379
  105MOL0     C14077   2.161   1.113   9.284  0.6023  0.6167  0.0578
  105MOL0     C14078   2.042   1.125   9.189 -0.3651 -0.2060 -0.0685
  105MOL0     C14079   1.920   1.051   9.234  0.1990 -0.1668  0.4371
  105MOL0     C14080   1.792   1.081   9.144 -0.2638  0.2878  0.3504
  105MOL0     C14081   1.665   1.047   9.219 -0.0905 -0.7773 -0.1716
  105MOL0     C14082   1.544   1.069   9.120  0.6155  0.2264  0.5434
  105MOL0     C14083   1.416   1.010   9.172  0.7208 -0.0544 -0.2072
  105MOL0     C14084   1.316   0.960   9.071 -0.4557 -0.3233  0.1298
  105MOL0    Cl14085   1.163   0.937   9.151 -0.1548  0.1773 -0.3351
  105MOL0     C14086   2.473   1.054   9.275 -0.4385 -0.1586 -0.0893
  105MOL0     C14087   2.598   1.029   9.332 -0.2283  0.3585 -0.5584
  105MOL0     O14088   2.646   1.046   9.677  0.1411  0.1764  0.1144
  105MOL0     C14089   2.968   0.898   9.659 -0.3232  0.4737 -0.2166
  105MOL0     C14090   3.071   0.847   9.729 -0.6104  0.6063 -0.1693
  105MOL0     N14091   3.568   0.455  10.125  0.7999 -0.5610 -0.4765
  105MOL0     N14092   3.651   0.386  10.052  0.0861  0.5973 -0.0315
  105MOL0     C14093   4.943   0.292  10.094  0.8872  0.5386 -0.0539
  105MOL0     C14094   5.079   0.308  10.099 -0.1230  0.2116  0.1166
  105MOL0     C14095   5.513   0.137  10.024  1.2507  0.0247 -0.7281
  105MOL0     C14096   5.589   0.026  10.065  1.4337 -0.0418 -0.1477
  105MOL0     C14097   5.720   0.019  10.019 -0.0335 -0.3077 -1.0406
  105MOL0     C14098   5.778   0.124   9.960 -0.2546 -0.2716 -0.2403
  105MOL0     O14099   5.912   0.111   9.930 -0.7541  1.0840 -0.3371
  105MOL0     C14100   5.968   0.200   9.838  0.3149 -0.0871  0.8691
  105MOL0     C14101   6.118   0.155   9.839 -0.1530  0.0062  0.0438
  105MOL0     C14102   6.123   0.017   9.772  0.4499  1.0093 -0.3608
  105MOL0     C14103   6.260  -0.029   9.734 -0.2381 -0.9298 -0.4616
  105MOL0     C14104   6.314   0.045   9.627 -0.5673 -0.4079 -0.4645
  105MOL0     C14105   6.347   0.107   9.532  0.9994 -0.2553  0.0022
  105MOL0     C14106   5.699   0.237   9.919 -0.0566 -0.5739  0.0966
  105MOL0     C14107   5.569   0.245   9.953  0.9372 -0.4641  0.0414
  105MOL0     H14108   5.156   0.076   9.859  1.5804  1.8276  0.0660
  105MOL0     H14109   4.922   0.049   9.847  0.9314  1.0268 -0.7845
  105MOL0     H14110   4.649   0.263  10.158 -1.3050 -1.3635  1.1844
  105MOL0     H14111   4.654   0.349  10.004 -0.2687 -0.0336  1.1837
  105MOL0     H14112   4.491   0.171   9.909 -0.8143 -1.9497  0.0847
  105MOL0     H14113   4.517   0.074  10.048  0.2556  0.5879  0.1520
  105MOL0     H14114   4.301   0.184  10.066  0.5648 -2.1634 -2.9913
  105MOL0     H14115   4.400   0.264  10.193 -0.0780 -0.8325  0.4215
  105MOL0     H14116   4.459   0.450  10.045 -0.7841  0.5191 -0.3766
  105MOL0     H14117   4.391   0.379   9.908 -0.5228  1.3712 -0.8613
  105MOL0     H14118   4.228   0.451  10.154  0.8728  1.8871  0.1113
  105MOL0     H14119   4.240   0.568  10.013 -1.2807 -0.0582 -0.9544
  105MOL0     H14120   4.114   0.410   9.884 -3.5815 -0.2010  0.4041
  105MOL0     H14121   4.133   0.277   9.999 -1.1888  0.0134  2.7015
  105MOL0     H14122   3.966   0.338  10.130 -0.4246  0.5102  0.6913
  105MOL0     H14123   3.999   0.517  10.116  1.8816 -0.0431  0.1902
  105MOL0     H14124   3.855   0.321   9.934 -0.1872  0.8869 -2.6525
  105MOL0     H14125   3.915   0.484   9.871 -0.0362  1.1519  1.1242
  105MOL0     H14126   3.780   0.680  10.006 -1.6809  0.4937 -1.9330
  105MOL0     H14127   3.531   0.697  10.277 -1.9806 -3.3348 -0.3148
  105MOL0     H14128   3.623   0.795  10.161 -0.5459  1.3568  2.1657
  105MOL0     H14129   3.459   0.770   9.991  0.1672 -1.5713 -0.3594
  105MOL0     H14130   3.417   0.875  10.129  2.0302  0.0219 -0.0490
  105MOL0     H14131   3.307   0.676  10.229  2.8497  0.8268 -0.2362
  105MOL0     H14132   3.307   0.587  10.085  0.2558  0.1772  0.1483
  105MOL0     H14133   3.184   0.860  10.110  1.0265 -1.0595  1.2573
  105MOL0     H14134   3.108   0.698  10.120  0.3364  0.4462  0.1392
  105MOL0     H14135   2.919   0.825  10.038  0.1732  0.5412 -0.1383
  105MOL0     H14136   2.726   0.887  10.057 -1.5527 -0.1269 -0.2988
  105MOL0     H14137   2.667   1.022   9.948 -0.4761  0.5743  2.2390
  105MOL0     H14138   2.616   0.850   9.932 -0.9740 -0.0167 -0.1115
  105MOL0     H14139   2.495   0.799   9.566  1.6390  0.0823  1.4425
  105MOL0     H14140   2.290   0.851   9.477  1.3777 -1.5199  0.3310
  105MOL0     H14141   2.126   1.123   9.387 -1.6468  1.5830 -0.7281
  105MOL0     H14142   2.221   1.204   9.276  1.3839  0.2138  1.2385
  105MOL0     H14143   2.019   1.232   9.185 -1.0740 -0.3336  0.3573
  105MOL0     H14144   2.063   1.090   9.087 -1.8296 -0.0487 -0.4501
  105MOL0     H14145   1.902   1.088   9.335  0.9778 -1.4525  1.0765
  105MOL0     H14146   1.939   0.944   9.245 -1.2306 -0.6583 -1.4072
  105MOL0     H14147   1.780   1.187   9.121 -2.3868  0.2566  1.1471
  105MOL0     H14148   1.797   1.015   9.056  0.6863 -0.6323  1.0594
  105MOL0     H14149   1.667   1.115   9.305 -0.2606 -0.2526 -0.5802
  105MOL0     H14150   1.676   0.943   9.250 -0.1852 -0.8294 -0.3104
  105MOL0     H14151   1.533   1.174   9.091 -0.1229  0.0513  0.1636
  105MOL0     H14152   1.559   1.007   9.031 -3.2223  1.7801 -1.4525
  105MOL0     H14153   1.371   1.091   9.231  2.6750  0.4404  0.6761
  105MOL0     H14154   1.437   0.925   9.237  2.1214 -0.6780 -1.4258
  105MOL0     H14155   1.346   0.867   9.020  0.0118  0.1215 -0.4201
  105MOL0     H14156   1.315   1.039   8.995  1.0381  1.2541  1.6784
  105MOL0     H14157   2.465   1.120   9.189 -0.1051  1.0564  0.7781
  105MOL0     H14158   2.692   1.074   9.302  0.4697 -1.5409 -1.3820
  105MOL0     H14159   2.988   0.943   9.562 -0.4654 -0.3169 -0.6170
  105MOL0     H14160   3.155   0.820   9.665 -0.1714 -2.4528  1.4945
  105MOL0     H14161   4.888   0.343  10.173 -2.4828 -0.6419 -1.4700
  105MOL0     H14162   5.127   0.375  10.171 -2.5693  2.1217  0.1274
  105MOL0     H14163   5.547  -0.048  10.132  2.9815 -0.6412  0.2092
  105MOL0     H14164   5.777  -0.068  10.047 -0.3481 -0.3540 -0.5212
  105MOL0     H14165   5.913   0.183   9.744 -1.2730 -0.7444  1.8794
  105MOL0     H14166   5.967   0.305   9.866  2.6078 -0.1479  1.3801
  105MOL0     H14167   6.151   0.152   9.943 -2.1057 -0.7118  0.6998
  105MOL0     H14168   6.163   0.228   9.771 -0.3447 -0.8027 -0.9713
  105MOL0     H14169   6.047   0.002   9.694  0.2377 -0.6067  0.1042
  105MOL0     H14170   6.097  -0.058   9.847  2.0438  1.5090  0.7367
  105MOL0     H14171   6.265  -0.135   9.707 -0.3077 -0.7976 -1.0114
  105MOL0     H14172   6.331  -0.012   9.815 -1.0952  1.2609 -0.1100
  105MOL0     H14173   6.368   0.160   9.441 -1.0633  0.7208  0.0353
  105MOL0     H14174   5.736   0.326   9.869  1.6097 -2.6979 -2.7316
  105MOL0     H14175   5.507   0.330   9.928  1.4280 -0.3543 -0.8472
  106MOL0     O14176   5.715   8.707  10.587  0.3922 -0.9096  0.1116
  106MOL0     C14177   5.810   8.630  10.612 -0.3829 -0.1744 -0.4364
  106MOL0     O14178   5.808   8.492  10.620 -0.0493 -0.2569 -0.7325
  106MOL0     C14179   5.705   8.419  10.569 -0.2467  0.3399  0.3242
  106MOL0     C14180   5.629   8.348  10.659  0.8573 -0.2453 -0.2529
  106MOL0     C14181   5.529   8.271  10.613  0.3847  0.2556 -0.4851
  106MOL0     C14182   5.497   8.245  10.480 -0.4459  0.0458 -0.7919
  106MOL0     O14183   5.393   8.166  10.435  0.3124  0.0534  0.1428
  106MOL0     C14184   5.275   8.154  10.524  0.5039  0.4877  0.9984
  106MOL0     C14185   5.171   8.048  10.480  0.2139  0.5498 -0.4385
  106MOL0     C14186   5.054   8.030  10.586  0.0050 -0.8310  0.0046
  106MOL0     C14187   4.915   8.026  10.511  0.8161 -0.4512 -1.4220
  106MOL0     C14188   4.807   8.003  10.613  0.2455 -1.4762 -0.0689
  106MOL0     C14189   4.669   8.003  10.544  0.2957 -0.4294 -0.2105
  106MOL0     C14190   4.557   7.967  10.639  0.4009 -0.1494  0.4976
  106MOL0     C14191   4.430   7.943  10.553 -0.9424  0.0545  1.0347
  106MOL0     N14192   4.317   7.911  10.636  0.5623 -0.7350 -0.0613
  106MOL0     C14193   4.235   7.999  10.706 -0.3680  0.1698  0.5104
  106MOL0     C14194   4.163   7.931  10.798 -0.3444 -0.2262 -0.4388
  106MOL0     C14195   4.059   7.976  10.898 -0.2457  0.2257  0.1991
  106MOL0     C14196   3.938   8.045  10.837 -0.2397  0.6890 -0.0426
  106MOL0     C14197   3.854   7.944  10.755 -1.0394 -0.0894 -0.2118
  106MOL0     C14198   3.814   7.803  10.805  0.0943 -0.0840 -0.6023
  106MOL0     O14199   3.693   7.822  10.880 -0.0698 -0.4659  0.1012
  106MOL0     C14200   3.568   7.786  10.832 -0.1165  0.1453  0.3752
  106MOL0     C14201   3.540   7.655  10.781 -1.3825 -0.1121  0.0451
  106MOL0     C14202   3.413   7.618  10.732 -0.2866 -0.1000  0.5380
  106MOL0     C14203   3.405   7.486  10.663  1.4658 -0.6559  0.6226
  106MOL0     C14204   3.310   7.710  10.734 -0.4753 -0.0620 -0.7363
  106MOL0     C14205   3.171   7.711  10.671  0.1503  0.2581 -0.1195
  106MOL0     O14206   3.095   7.824  10.669  0.4699 -0.2471  0.2501
  106MOL0     C14207   2.959   7.801  10.640  0.0952 -0.1547 -0.1998
  106MOL0     C14208   2.875   7.733  10.733  1.0552  0.1752  0.6005
  106MOL0     C14209   2.735   7.731  10.730  0.0738  0.1448  0.0146
  106MOL0     C14210   2.671   7.795  10.626  0.1975  0.8387 -0.0076
  106MOL0     O14211   2.532   7.791  10.625 -0.1911 -1.0668  0.2082
  106MOL0     C14212   2.465   7.850  10.500 -0.2816 -1.1509  0.6659
  106MOL0     C14213   2.326   7.783  10.470 -0.5959 -0.0519  0.5425
  106MOL0     C14214   2.207   7.869  10.499 -0.6410 -0.3510  0.1863
  106MOL0     C14215   2.075   7.798  10.466 -1.0748 -0.5788  1.4902
  106MOL0     C14216   1.962   7.892  10.446  0.0438  0.6646  0.8440
  106MOL0     C14217   1.839   7.807  10.390  0.5679 -0.4539  0.1155
  106MOL0     C14218   1.712   7.902  10.387 -0.3821  0.0013  0.0606
  106MOL0     C14219   1.602   7.853  10.295  0.6565 -0.4013  0.4648
  106MOL0    Cl14220   1.541   7.688  10.345 -0.0094  0.1157 -0.0251
  106MOL0     C14221   2.747   7.848  10.525 -1.4702 -0.6823  0.3435
  106MOL0     C14222   2.889   7.853  10.527 -0.0333 -0.0636 -0.0336
  106MOL0     O14223   3.133   7.602  10.639 -0.3649 -0.2678  0.5023
  106MOL0     C14224   3.342   7.831  10.798 -0.5186  0.1285 -0.9910
  106MOL0     C14225   3.467   7.872  10.841  0.1715 -0.0175  0.4695
  106MOL0     N14226   4.202   7.803  10.775  0.9142 -0.0629  0.6766
  106MOL0     N14227   4.285   7.790  10.677 -0.0267  0.7327 -0.3962
  106MOL0     C14228   5.580   8.319  10.392 -0.9473  1.5702 -0.2725
  106MOL0     C14229   5.683   8.401  10.428 -0.2302 -0.1652 -0.4636
  106MOL0     C14230   5.944   8.690  10.645 -0.6884  0.7454 -0.1487
  106MOL0     C14231   6.061   8.607  10.650 -0.6310 -0.3860  0.6366
  106MOL0     C14232   6.183   8.669  10.687 -0.2027 -0.2025 -0.4513
  106MOL0     C14233   6.196   8.807  10.715  0.4725  0.6462 -0.1713
  106MOL0     O14234   6.313   8.872  10.760  0.6654  0.1606  0.5843
  106MOL0     C14235   6.434   8.798  10.738  0.4185  0.4019 -0.8405
  106MOL0     C14236   6.560   8.874  10.743  0.0002  0.3285  0.5907
  106MOL0     C14237   6.552   8.996  10.651 -0.2282  0.0812 -0.2665
  106MOL0     C14238   6.694   9.051  10.638  0.7923  0.1246 -0.2809
  106MOL0     C14239   6.787   8.948  10.587 -0.7292 -0.4289 -0.0816
  106MOL0     C14240   6.866   8.868  10.535  0.1143  0.0144 -0.5184
  106MOL0     C14241   6.078   8.885  10.727  0.8591 -0.5558  0.6153
  106MOL0     C14242   5.956   8.826  10.688  0.8610  0.5442 -0.2417
  106MOL0     H14243   5.646   8.357  10.766 -1.8820  1.3377  0.1607
  106MOL0     H14244   5.485   8.212  10.694 -0.0681  1.4126  0.1298
  106MOL0     H14245   5.302   8.139  10.629 -0.2786 -0.3381  1.0950
  106MOL0     H14246   5.225   8.252  10.526  1.8566  1.3311 -1.5253
  106MOL0     H14247   5.133   8.078  10.382  0.4070 -0.1581 -0.7400
  106MOL0     H14248   5.212   7.949  10.457 -1.8785 -0.8176  1.3741
  106MOL0     H14249   5.084   7.941  10.641  1.3057 -1.1424 -1.1653
  106MOL0     H14250   5.046   8.108  10.663  4.0033 -1.6366  1.4611
  106MOL0     H14251   4.887   8.117  10.455 -0.5111  1.8739  2.5937
  106MOL0     H14252   4.920   7.934  10.453  1.2284 -0.9747 -0.5709
  106MOL0     H14253   4.819   7.900  10.648  2.0266 -0.9701  0.9265
  106MOL0     H14254   4.806   8.069  10.700 -1.6318 -3.6622  1.6796
  106MOL0     H14255   4.658   8.104  10.503 -0.2152 -0.6933 -0.7508
  106MOL0     H14256   4.681   7.932  10.461  3.8506 -1.5200  1.0892
  106MOL0     H14257   4.587   7.868  10.676  0.1679 -0.9484 -1.3211
  106MOL0     H14258   4.539   8.044  10.714  1.4600  0.7793 -0.1672
  106MOL0     H14259   4.443   7.866  10.476 -2.0412 -0.5788  1.4508
  106MOL0     H14260   4.401   8.035  10.501  0.6880 -0.7653 -1.5472
  106MOL0     H14261   4.230   8.107  10.703  0.6554  0.2080 -0.8704
  106MOL0     H14262   4.020   7.889  10.951 -0.1209  0.3532  0.4976
  106MOL0     H14263   4.109   8.035  10.974  0.8858 -0.4770  0.0286
  106MOL0     H14264   3.976   8.125  10.773  0.7134  2.6561  2.7931
  106MOL0     H14265   3.880   8.082  10.922  3.2484  1.4731  2.1928
  106MOL0     H14266   3.899   7.929  10.657 -1.4654  1.1798 -0.6090
  106MOL0     H14267   3.754   7.985  10.739 -2.0362 -1.7591  1.2849
  106MOL0     H14268   3.893   7.750  10.859  0.0168  1.1378  0.7576
  106MOL0     H14269   3.794   7.744  10.715 -0.4040 -0.7858 -0.0438
  106MOL0     H14270   3.625   7.588  10.770 -1.1184  0.1171  0.6603
  106MOL0     H14271   3.345   7.416  10.722 -1.5796  1.4928  0.3301
  106MOL0     H14272   3.340   7.496  10.575 -0.6503  1.5518  2.3020
  106MOL0     H14273   3.505   7.449  10.640  1.7202 -0.3986  1.2858
  106MOL0     H14274   2.920   7.696  10.825  0.2127 -2.9286 -0.1200
  106MOL0     H14275   2.665   7.685  10.799 -0.6207  0.1047 -0.7023
  106MOL0     H14276   2.461   7.959  10.498  2.5146 -0.9121  2.8053
  106MOL0     H14277   2.528   7.817  10.417 -1.6695 -4.7751  0.8881
  106MOL0     H14278   2.321   7.745  10.367 -1.9579 -1.7902  1.1906
  106MOL0     H14279   2.327   7.693  10.532  2.1244 -2.1413 -2.1914
  106MOL0     H14280   2.216   7.956  10.433 -2.0285 -1.5765 -1.7230
  106MOL0     H14281   2.207   7.909  10.601 -1.8881  1.1651 -0.3690
  106MOL0     H14282   2.099   7.756  10.368 -1.1500 -0.0001  1.2199
  106MOL0     H14283   2.044   7.718  10.533 -0.8186 -1.6624  0.3610
  106MOL0     H14284   1.989   7.974  10.379 -1.1064 -0.3721 -0.9988
  106MOL0     H14285   1.938   7.932  10.545 -0.9339  0.2659  0.7815
  106MOL0     H14286   1.867   7.766  10.293  2.2133 -0.9378  0.7569
  106MOL0     H14287   1.815   7.727  10.461  0.0011 -1.8029 -1.5266
  106MOL0     H14288   1.739   8.003  10.358  0.8272 -0.6216 -1.0849
  106MOL0     H14289   1.692   7.893  10.494  0.5246  1.6343  0.3852
  106MOL0     H14290   1.632   7.838  10.192  0.9132 -2.3706  0.7975
  106MOL0     H14291   1.529   7.935  10.296  0.8268 -0.2479  0.8611
  106MOL0     H14292   2.705   7.892  10.434 -0.2433  1.2213  0.6423
  106MOL0     H14293   2.950   7.894  10.446 -0.9086  1.9598  0.3013
  106MOL0     H14294   3.268   7.908  10.814 -2.3179 -1.8315  0.9161
  106MOL0     H14295   3.486   7.963  10.896  3.1470  0.9654 -1.9028
  106MOL0     H14296   5.567   8.293  10.287  2.7876  1.3898 -0.8222
  106MOL0     H14297   5.744   8.449  10.352  0.7422 -0.3833  0.1732
  106MOL0     H14298   6.062   8.502  10.624 -0.5735 -0.2102 -0.1261
  106MOL0     H14299   6.270   8.605  10.685  0.4534  0.5840  1.5364
  106MOL0     H14300   6.435   8.730  10.824 -3.4484 -0.7765 -1.5544
  106MOL0     H14301   6.433   8.734  10.650  0.4668 -1.6187  0.5627
  106MOL0     H14302   6.633   8.797  10.715 -0.8404  0.3508 -1.9534
  106MOL0     H14303   6.564   8.912  10.845 -0.3389  0.2993  0.6147
  106MOL0     H14304   6.474   9.067  10.680 -0.9482 -0.9230  0.3584
  106MOL0     H14305   6.518   8.973  10.549 -1.3344  1.6357 -0.2839
  106MOL0     H14306   6.728   9.084  10.737 -1.7751  1.8643  0.1343
  106MOL0     H14307   6.692   9.143  10.578  1.0774 -1.2131 -2.4308
  106MOL0     H14308   6.935   8.798  10.491 -0.1024  0.7956 -2.2038
  106MOL0     H14309   6.087   8.986  10.766 -1.1276 -0.5204  1.1129
  106MOL0     H14310   5.863   8.879  10.705 -0.2764 -1.6958  0.8893
  107MOL0     O14311   1.518   8.747   8.053  0.4613 -0.2178  0.0769
  107MOL0     C14312   1.462   8.851   8.093 -0.7050 -0.2842 -0.0681
  107MOL0     O14313   1.449   8.891   8.218  0.1646  0.1419 -0.2414
  107MOL0     C14314   1.513   8.824   8.321 -0.1614 -0.4280 -0.2293
  107MOL0     C14315   1.631   8.759   8.310 -0.6071  0.8037  0.3389
  107MOL0     C14316   1.692   8.698   8.416  0.7155  0.6614 -0.1043
  107MOL0     C14317   1.638   8.713   8.547  0.7000 -0.6082  0.3576
  107MOL0     O14318   1.703   8.650   8.647  0.8396  0.5404  0.2788
  107MOL0     C14319   1.630   8.562   8.727  0.2829 -0.4716  0.3724
  107MOL0     C14320   1.547   8.456   8.643 -0.1609 -0.2996  0.3308
  107MOL0     C14321   1.454   8.380   8.738  0.1171 -0.0627 -0.8356
  107MOL0     C14322   1.343   8.302   8.666  0.2573 -0.6972 -0.0033
  107MOL0     C14323   1.399   8.194   8.582  0.5634 -0.2136 -0.0478
  107MOL0     C14324   1.288   8.111   8.510 -0.1608  0.1913 -0.5261
  107MOL0     C14325   1.329   7.969   8.466  1.1063 -0.5397 -0.3383
  107MOL0     C14326   1.215   7.910   8.383 -0.4390  0.2744 -0.3697
  107MOL0     N14327   1.079   7.919   8.437 -0.5004  0.1440  0.4659
  107MOL0     C14328   1.027   7.834   8.531  0.0762 -0.8447 -0.0931
  107MOL0     C14329   0.889   7.868   8.543 -0.2266 -0.2171  0.2449
  107MOL0     C14330   0.783   7.813   8.643 -0.2082 -1.0696 -0.5988
  107MOL0     C14331   0.698   7.709   8.573 -0.4271  0.1229 -0.5680
  107MOL0     C14332   0.642   7.600   8.668 -0.5281 -0.3130 -0.8694
  107MOL0     C14333   0.541   7.503   8.611 -0.6260  0.1821  0.6344
  107MOL0     O14334   0.411   7.577   8.605 -0.0580  0.1300 -0.7304
  107MOL0     C14335   0.299   7.522   8.542 -0.2311 -1.3490 -0.8409
  107MOL0     C14336   0.183   7.598   8.571  0.1577  1.1996  0.4725
  107MOL0     C14337   0.071   7.583   8.497  0.5186 -0.1259 -0.2209
  107MOL0     C14338  -0.055   7.672   8.529 -0.4308 -0.4329  0.3305
  107MOL0     C14339   0.066   7.480   8.401 -1.0089 -0.0142 -0.0247
  107MOL0     C14340  -0.050   7.441   8.317 -0.8150 -0.4625  0.3390
  107MOL0     O14341  -0.170   7.511   8.335  0.9565  0.1852  0.5768
  107MOL0     C14342  -0.285   7.500   8.252 -0.0222  0.1025 -0.0604
  107MOL0     C14343  -0.408   7.538   8.304 -0.2555 -0.0873 -0.5968
  107MOL0     C14344  -0.523   7.540   8.233  0.3512 -0.4625 -0.5329
  107MOL0     C14345  -0.515   7.505   8.100  0.0596 -0.4189  0.4930
  107MOL0     O14346  -0.636   7.514   8.047 -0.1313  0.3185 -0.0758
  107MOL0     C14347  -0.643   7.547   7.912  1.0331 -1.0334  0.2654
  107MOL0     C14348  -0.767   7.633   7.879  0.4493  0.1200 -0.4886
  107MOL0     C14349  -0.791   7.625   7.728  0.0630 -0.1616 -0.1831
  107MOL0     C14350  -0.908   7.714   7.675 -0.3279  0.7298 -0.7016
  107MOL0     C14351  -0.927   7.697   7.521  0.3356 -0.4134 -0.6208
  107MOL0     C14352  -1.053   7.765   7.459  0.2785  0.3521 -0.2341
  107MOL0     C14353  -1.178   7.716   7.529  0.3454  0.2535  0.4122
  107MOL0     C14354  -1.304   7.774   7.470 -0.2720 -0.6733  0.2724
  107MOL0    Cl14355  -1.309   7.739   7.294 -0.1469  0.2903  0.4053
  107MOL0     C14356  -0.398   7.459   8.040  0.1465  0.2212  0.3366
  107MOL0     C14357  -0.284   7.454   8.113 -0.3257  0.1533 -0.9295
  107MOL0     O14358  -0.028   7.346   8.237 -0.3905 -0.0371 -0.3962
  107MOL0     C14359   0.187   7.405   8.377  0.0758  1.3424  0.2580
  107MOL0     C14360   0.304   7.431   8.439  0.4867 -0.3620  0.1262
  107MOL0     N14361   0.866   7.965   8.439 -0.5721  0.3742 -0.4136
  107MOL0     N14362   0.978   7.993   8.388 -0.1621  0.5396 -0.6437
  107MOL0     C14363   1.513   8.778   8.563  0.2798 -0.3951  0.1379
  107MOL0     C14364   1.452   8.839   8.450  0.2873  0.3789 -0.5304
  107MOL0     C14365   1.372   8.913   7.993 -0.6731 -0.1601 -0.2525
  107MOL0     C14366   1.379   8.874   7.858  0.3898  0.1884 -0.4744
  107MOL0     C14367   1.277   8.918   7.767 -0.5187  0.4053 -0.3820
  107MOL0     C14368   1.177   9.009   7.809  0.8607  0.3247  0.0046
  107MOL0     O14369   1.088   9.069   7.730 -0.1779  0.3193  0.1597
  107MOL0     C14370   1.097   9.043   7.587 -0.2346 -0.1657 -0.7788
  107MOL0     C14371   1.024   8.913   7.559  0.0984  0.5488  0.6328
  107MOL0     C14372   1.008   8.889   7.407  0.2383 -0.4831 -0.6340
  107MOL0     C14373   0.958   8.747   7.393  0.2273  0.3081 -0.6481
  107MOL0     C14374   1.054   8.628   7.414  0.8276 -0.0699  0.8647
  107MOL0     C14375   1.141   8.545   7.425 -0.9694 -0.0127 -0.0464
  107MOL0     C14376   1.171   9.052   7.939 -1.3707 -0.2546 -0.4163
  107MOL0     C14377   1.278   9.009   8.029  1.6079  0.0158 -0.1616
  107MOL0     H14378   1.677   8.746   8.213 -0.3010  2.3707  0.2600
  107MOL0     H14379   1.774   8.628   8.406 -1.4520 -2.2437  1.1850
  107MOL0     H14380   1.706   8.505   8.781  0.0615 -2.1922 -1.0390
  107MOL0     H14381   1.559   8.624   8.782  0.6729 -1.6408  2.2603
  107MOL0     H14382   1.482   8.501   8.567  0.0123 -0.1939  0.2444
  107MOL0     H14383   1.622   8.393   8.594  1.4271  1.4747  0.3762
  107MOL0     H14384   1.513   8.304   8.790  0.1885  0.7879  0.3759
  107MOL0     H14385   1.417   8.450   8.814 -0.9571 -0.8672 -0.6062
  107MOL0     H14386   1.278   8.259   8.743  0.0945 -0.0797  0.2164
  107MOL0     H14387   1.287   8.372   8.603 -2.6883 -0.3704  2.6629
  107MOL0     H14388   1.466   8.240   8.509  0.2554  0.7831  0.2781
  107MOL0     H14389   1.457   8.127   8.648  0.0542  0.2964  0.9473
  107MOL0     H14390   1.214   8.096   8.590  0.2745 -0.6263 -0.2679
  107MOL0     H14391   1.238   8.172   8.434 -0.2664  1.0652  0.2352
  107MOL0     H14392   1.417   7.979   8.401  0.8834  3.6079 -0.2945
  107MOL0     H14393   1.355   7.905   8.550  1.4363  1.7180  1.3672
  107MOL0     H14394   1.239   7.806   8.359 -1.9665  0.0070 -0.8428
  107MOL0     H14395   1.229   7.976   8.297  2.5873  1.3479  0.8165
  107MOL0     H14396   1.079   7.764   8.595  1.5807  0.1510 -0.1683
  107MOL0     H14397   0.830   7.776   8.734  1.8232 -0.4733 -1.3473
  107MOL0     H14398   0.707   7.887   8.667  0.6519 -0.3293 -0.0833
  107MOL0     H14399   0.750   7.665   8.487 -1.2920 -0.4759 -0.8038
  107MOL0     H14400   0.613   7.763   8.530  0.4970  1.8359 -0.2948
  107MOL0     H14401   0.598   7.644   8.757  0.9479  0.2421 -0.3915
  107MOL0     H14402   0.738   7.551   8.689  0.0009 -1.0078 -4.2795
  107MOL0     H14403   0.536   7.408   8.665 -2.5867  0.2020  0.5695
  107MOL0     H14404   0.582   7.475   8.514 -0.6019 -0.4306  0.8176
  107MOL0     H14405   0.176   7.678   8.644  0.3559 -0.6886  2.6641
  107MOL0     H14406  -0.126   7.598   8.569 -1.0776  0.0939  0.1638
  107MOL0     H14407  -0.030   7.736   8.614 -0.7381 -2.8754  2.3829
  107MOL0     H14408  -0.093   7.727   8.443  0.5002  0.2423  0.3337
  107MOL0     H14409  -0.399   7.579   8.404  1.2931 -0.7712 -0.4303
  107MOL0     H14410  -0.622   7.573   8.265  2.1370  3.3275  1.8444
  107MOL0     H14411  -0.560   7.609   7.877  0.8145 -0.1680  1.2223
  107MOL0     H14412  -0.641   7.453   7.857  0.6835  0.1889 -1.9431
  107MOL0     H14413  -0.855   7.611   7.940 -0.0193  3.9981  0.5121
  107MOL0     H14414  -0.739   7.737   7.895  3.0312 -0.7586  1.4292
  107MOL0     H14415  -0.823   7.522   7.711 -0.2279  0.0174 -0.7267
  107MOL0     H14416  -0.699   7.654   7.676 -0.9768  0.5970 -1.6791
  107MOL0     H14417  -0.992   7.688   7.742  1.5257  0.2084  1.5607
  107MOL0     H14418  -0.891   7.820   7.695  0.0288  0.3572  1.1984
  107MOL0     H14419  -0.934   7.590   7.503  1.8596 -0.9373  1.4794
  107MOL0     H14420  -0.832   7.736   7.483  0.9047  1.4019  2.2745
  107MOL0     H14421  -1.042   7.874   7.456  0.6853  0.4793  2.6315
  107MOL0     H14422  -1.048   7.728   7.356  2.9889  1.8355 -0.7137
  107MOL0     H14423  -1.173   7.738   7.636  1.9424  0.0207  0.4056
  107MOL0     H14424  -1.189   7.608   7.517  0.5183  0.2534  0.2697
  107MOL0     H14425  -1.300   7.883   7.466  0.7896 -0.7261 -1.9210
  107MOL0     H14426  -1.393   7.740   7.524 -1.4303 -0.6335 -1.5350
  107MOL0     H14427  -0.396   7.424   7.937 -1.4924 -0.2547  0.4260
  107MOL0     H14428  -0.190   7.414   8.075  0.2001 -0.3147  0.7282
  107MOL0     H14429   0.189   7.314   8.317  0.2192  1.8380 -0.5049
  107MOL0     H14430   0.389   7.363   8.431 -0.0346 -0.9923 -0.2702
  107MOL0     H14431   1.458   8.777   8.657  0.7757  1.1219  0.4735
  107MOL0     H14432   1.360   8.896   8.460  2.0960  3.2801  0.9675
  107MOL0     H14433   1.455   8.803   7.828  1.3909  0.9170  0.2789
  107MOL0     H14434   1.303   8.890   7.666  3.8287  3.8309 -0.4890
  107MOL0     H14435   1.044   9.129   7.546  1.2164  0.3334 -1.7049
  107MOL0     H14436   1.199   9.049   7.547  0.9839  1.9175  2.2424
  107MOL0     H14437   0.926   8.903   7.606  0.0295  1.0989  0.6138
  107MOL0     H14438   1.092   8.835   7.593 -1.5808 -0.4135  1.8894
  107MOL0     H14439   1.108   8.884   7.365  0.8217 -2.6108  0.8456
  107MOL0     H14440   0.943   8.955   7.350 -0.2802 -3.2292 -3.5219
  107MOL0     H14441   0.923   8.738   7.290  1.0646  1.6022 -1.0631
  107MOL0     H14442   0.874   8.722   7.459  1.1506 -2.9590 -0.5206
  107MOL0     H14443   1.218   8.471   7.413 -0.6862  0.4946 -1.6080
  107MOL0     H14444   1.107   9.130   7.977 -1.4419  1.9556 -4.4460
  107MOL0     H14445   1.253   9.045   8.129 -2.8075 -1.9216 -0.3370
  108MOL0     O14446   5.580   6.904   7.609 -0.3248  0.8748  0.1733
  108MOL0     C14447   5.589   7.021   7.575 -0.0843 -0.2865 -0.2743
  108MOL0     O14448   5.499   7.119   7.609  0.4068 -0.0028  0.0856
  108MOL0     C14449   5.392   7.079   7.686 -0.3211 -0.5468  0.1481
  108MOL0     C14450   5.276   7.033   7.616 -0.0391  0.2309 -0.0933
  108MOL0     C14451   5.163   6.997   7.689  0.1217  0.6640 -0.0021
  108MOL0     C14452   5.160   7.001   7.832 -0.2397  0.4353  1.4431
  108MOL0     O14453   5.048   6.956   7.895 -1.3078 -0.0080 -0.7043
  108MOL0     C14454   5.039   7.007   8.029  0.1086 -0.2662  0.2456
  108MOL0     C14455   4.892   6.973   8.071 -0.6872  0.3700  0.3487
  108MOL0     C14456   4.787   7.077   8.037  0.1161 -0.3684 -0.0996
  108MOL0     C14457   4.662   7.059   8.124 -0.1132 -0.7155  0.9254
  108MOL0     C14458   4.554   7.165   8.098 -0.6424  1.1954  0.4434
  108MOL0     C14459   4.454   7.149   8.201  0.3154  0.2056 -0.1998
  108MOL0     C14460   4.371   7.022   8.185  0.1113  0.4201  0.5576
  108MOL0     C14461   4.217   7.027   8.171  0.3986 -0.1115  0.4307
  108MOL0     N14462   4.157   7.114   8.268  0.4366  0.2988 -0.5621
  108MOL0     C14463   4.102   7.077   8.393 -0.0389 -0.9097 -0.2246
  108MOL0     C14464   4.039   7.186   8.439  0.3896 -0.6114  0.0060
  108MOL0     C14465   3.954   7.205   8.552 -0.2897  0.8816  0.1804
  108MOL0     C14466   3.828   7.123   8.532  0.1249 -0.4596  0.5356
  108MOL0     C14467   3.719   7.160   8.633  0.0075 -0.2294  0.4562
  108MOL0     C14468   3.582   7.109   8.602  0.7665  0.3858  0.0003
  108MOL0     O14469   3.496   7.096   8.716 -0.6583 -0.2737  0.0865
  108MOL0     C14470   3.363   7.121   8.697 -0.0463  0.5765 -0.3939
  108MOL0     C14471   3.291   7.165   8.806  0.3214  0.7098 -0.1546
  108MOL0     C14472   3.153   7.167   8.804 -0.0541  0.1923  0.1672
  108MOL0     C14473   3.078   7.194   8.931  0.1667 -0.4560 -0.9838
  108MOL0     C14474   3.086   7.120   8.690  1.0059 -0.6689  0.0466
  108MOL0     C14475   2.937   7.118   8.669  0.0497  0.5411 -0.5595
  108MOL0     O14476   2.858   7.073   8.767 -0.1623 -0.3670 -0.1231
  108MOL0     C14477   2.724   7.102   8.756  0.1091  0.5537 -0.5293
  108MOL0     C14478   2.626   7.003   8.774  0.1418 -0.2852  0.0421
  108MOL0     C14479   2.488   7.039   8.766  0.0619  0.9994  0.7143
  108MOL0     C14480   2.445   7.169   8.759 -0.6231 -0.7687  0.0059
  108MOL0     O14481   2.317   7.201   8.762  0.0260  0.1122  0.9339
  108MOL0     C14482   2.209   7.104   8.762 -0.2121 -0.2133 -0.2037
  108MOL0     C14483   2.082   7.186   8.771 -0.4579  0.1648  0.0127
  108MOL0     C14484   1.963   7.087   8.755 -0.3024 -0.2947  0.7530
  108MOL0     C14485   1.836   7.160   8.771  0.2771  0.5410  0.3380
  108MOL0     C14486   1.713   7.089   8.701 -0.2260  0.2605  0.0955
  108MOL0     C14487   1.579   7.142   8.739  0.3220 -0.1517  0.2732
  108MOL0     C14488   1.476   7.080   8.649  0.2819 -0.6085  0.0892
  108MOL0     C14489   1.341   7.110   8.708 -0.3331 -0.3682 -0.1252
  108MOL0    Cl14490   1.316   7.004   8.858  0.2228 -0.5206  0.1276
  108MOL0     C14491   2.542   7.267   8.735  0.7362  0.0917  0.1291
  108MOL0     C14492   2.677   7.232   8.748 -0.0127  0.0784  0.5322
  108MOL0     O14493   2.900   7.153   8.557  0.6126  0.3489 -0.1666
  108MOL0     C14494   3.162   7.075   8.577 -0.3541  0.2543 -0.3134
  108MOL0     C14495   3.302   7.077   8.586 -0.6299  0.7785  0.2065
  108MOL0     N14496   4.039   7.281   8.339 -0.1360 -0.6360  0.2299
  108MOL0     N14497   4.107   7.238   8.235 -0.5138 -0.0832 -0.4546
  108MOL0     C14498   5.277   7.050   7.894 -0.0991  0.6142 -0.1203
  108MOL0     C14499   5.385   7.085   7.823  0.1747 -0.1505 -0.2964
  108MOL0     C14500   5.722   7.064   7.513 -1.0295 -0.0479  0.7380
  108MOL0     C14501   5.764   7.196   7.495 -0.6364 -0.3950  0.1386
  108MOL0     C14502   5.888   7.229   7.442 -0.3436  0.7583  0.2150
  108MOL0     C14503   5.980   7.128   7.397  0.6359 -0.1996 -0.5433
  108MOL0     O14504   6.110   7.158   7.355  0.5122 -0.0125  0.1223
  108MOL0     C14505   6.215   7.059   7.351  0.3524 -0.2480  0.4131
  108MOL0     C14506   6.237   7.003   7.214  0.0774  0.1269  0.2035
  108MOL0     C14507   6.377   6.957   7.177 -0.3680  0.1308 -0.0129
  108MOL0     C14508   6.430   6.840   7.265 -0.0048  0.1944  0.3058
  108MOL0     C14509   6.518   6.764   7.180 -0.5089  0.4876 -0.2500
  108MOL0     C14510   6.576   6.674   7.119 -0.6198  0.7188 -0.0050
  108MOL0     C14511   5.933   6.995   7.408  0.1142  0.0951  0.1864
  108MOL0     C14512   5.812   6.960   7.470 -0.4020  0.1971 -0.4885
  108MOL0     H14513   5.276   7.028   7.508  0.7168 -0.1780 -0.0824
  108MOL0     H14514   5.065   6.981   7.646 -0.7524  1.0228  1.7954
  108MOL0     H14515   5.111   6.950   8.089  0.1852  1.3055  1.7290
  108MOL0     H14516   5.082   7.106   8.044  2.0478 -0.6866 -2.0814
  108MOL0     H14517   4.869   6.874   8.031  0.7343 -0.1118  0.6541
  108MOL0     H14518   4.899   6.971   8.180  0.4631 -0.0437  0.2853
  108MOL0     H14519   4.828   7.178   8.035 -0.0928 -0.2065  1.9231
  108MOL0     H14520   4.759   7.062   7.932  1.4261 -1.7154 -0.2978
  108MOL0     H14521   4.615   6.963   8.102 -0.4200 -1.0699  2.9548
  108MOL0     H14522   4.693   7.067   8.229 -0.3342 -0.7948  0.9968
  108MOL0     H14523   4.598   7.265   8.097  1.3741  0.4769 -4.0437
  108MOL0     H14524   4.510   7.159   7.999  3.5938 -0.2768 -1.5892
  108MOL0     H14525   4.496   7.156   8.302 -1.3260  2.4734  0.4122
  108MOL0     H14526   4.387   7.235   8.193 -0.5859 -0.6309 -2.8439
  108MOL0     H14527   4.401   6.961   8.100 -1.2613 -1.2499  1.2069
  108MOL0     H14528   4.388   6.949   8.264 -1.5748 -1.3461 -0.6140
  108MOL0     H14529   4.171   6.929   8.167  1.6255 -0.7466  1.1863
  108MOL0     H14530   4.202   7.055   8.066  0.9484 -3.3857 -0.6185
  108MOL0     H14531   4.111   6.986   8.451 -2.5092  0.2884  2.2493
  108MOL0     H14532   3.984   7.166   8.650 -0.6894 -0.9996 -0.4074
  108MOL0     H14533   3.926   7.309   8.571 -2.1774  0.0245  2.5778
  108MOL0     H14534   3.847   7.016   8.545 -2.2934 -0.9913  0.1376
  108MOL0     H14535   3.801   7.140   8.428  0.5801 -1.0435  0.3203
  108MOL0     H14536   3.707   7.269   8.636  2.1855  0.3065 -3.4732
  108MOL0     H14537   3.760   7.128   8.729 -0.1525 -4.0427 -0.5997
  108MOL0     H14538   3.587   7.010   8.555 -2.0346 -1.0347  2.3739
  108MOL0     H14539   3.539   7.188   8.540  1.5807 -0.1191 -1.2532
  108MOL0     H14540   3.347   7.177   8.899  1.8273  0.4293 -1.0000
  108MOL0     H14541   3.126   7.266   8.998 -0.0532 -1.6214  0.5080
  108MOL0     H14542   2.981   7.238   8.908  1.1865  2.2196 -0.5079
  108MOL0     H14543   3.069   7.102   8.991  1.6822 -0.9881 -1.5231
  108MOL0     H14544   2.650   6.900   8.798  1.2474 -0.0854 -0.1561
  108MOL0     H14545   2.411   6.966   8.790  2.3961 -1.9996 -0.2534
  108MOL0     H14546   2.210   7.048   8.668 -0.2947 -2.7196  1.1942
  108MOL0     H14547   2.225   7.044   8.852  2.0487  2.1866  1.1289
  108MOL0     H14548   2.071   7.240   8.866  0.4863 -1.2362  0.9578
  108MOL0     H14549   2.084   7.264   8.695  2.6520 -1.6926 -2.0351
  108MOL0     H14550   1.965   7.004   8.825 -1.6314 -1.8376 -0.9365
  108MOL0     H14551   1.960   7.049   8.652 -2.6179  1.1977  0.2113
  108MOL0     H14552   1.813   7.170   8.878 -2.5156  0.5867 -0.1984
  108MOL0     H14553   1.846   7.260   8.728  1.0977  0.2430 -0.1873
  108MOL0     H14554   1.711   6.981   8.720 -0.8285  0.1312 -0.6682
  108MOL0     H14555   1.717   7.098   8.592 -2.7786 -0.6882 -0.1249
  108MOL0     H14556   1.559   7.127   8.845  0.0686 -1.2043  0.0837
  108MOL0     H14557   1.592   7.247   8.710  1.0915  0.8053  3.6507
  108MOL0     H14558   1.491   6.972   8.644  0.0355 -0.6067 -0.8461
  108MOL0     H14559   1.480   7.136   8.555  0.9235  2.0482  1.5774
  108MOL0     H14560   1.254   7.085   8.646 -1.5090 -1.0565  1.7159
  108MOL0     H14561   1.332   7.213   8.744  0.3858 -0.6618  0.9272
  108MOL0     H14562   2.510   7.370   8.738 -0.4221 -0.2693  2.2630
  108MOL0     H14563   2.749   7.312   8.752  3.4673 -2.8531  1.1864
  108MOL0     H14564   3.120   7.038   8.484 -1.7021 -1.6564  0.9752
  108MOL0     H14565   3.357   7.040   8.500 -1.6489 -2.0379  0.6871
  108MOL0     H14566   5.294   7.045   8.001  3.3646  1.1060 -0.5332
  108MOL0     H14567   5.471   7.112   7.884 -2.0651  0.9723  2.5821
  108MOL0     H14568   5.699   7.277   7.528  1.0617  0.7117  0.9198
  108MOL0     H14569   5.913   7.334   7.440  2.0306  0.3096  1.6394
  108MOL0     H14570   6.304   7.119   7.372 -0.1385  1.9808 -3.0159
  108MOL0     H14571   6.206   6.975   7.421 -2.9459  1.5987  2.5009
  108MOL0     H14572   6.213   7.078   7.138  2.5182  0.4599 -0.3289
  108MOL0     H14573   6.162   6.927   7.191 -0.8853  1.3962 -1.0094
  108MOL0     H14574   6.439   7.047   7.180  1.2981 -0.7995 -2.8784
  108MOL0     H14575   6.370   6.937   7.070 -0.7889 -0.4372  0.1140
  108MOL0     H14576   6.352   6.777   7.309  2.0835 -2.3096  0.6251
  108MOL0     H14577   6.494   6.885   7.342  1.8572 -1.6560 -0.0717
  108MOL0     H14578   6.606   6.578   7.084 -1.8569  0.2291  0.2270
  108MOL0     H14579   6.001   6.912   7.388  1.0614  1.5398 -3.2824
  108MOL0     H14580   5.794   6.853   7.475  0.6179 -0.0157 -1.1523
  109MOL0     O14581  10.329   0.428   0.924 -0.1828  0.1910 -0.5526
  109MOL0     C14582  10.399   0.444   1.021  0.5186 -0.4643  0.5375
  109MOL0     O14583  10.353   0.423   1.154 -0.4286 -0.2119 -0.1988
  109MOL0     C14584  10.226   0.375   1.166 -1.0266  0.6270 -0.2647
  109MOL0     C14585  10.127   0.459   1.219 -0.7518 -0.0676 -0.0423
  109MOL0     C14586   9.997   0.416   1.229 -0.3476 -0.7378  0.8049
  109MOL0     C14587   9.965   0.282   1.212  0.2528 -0.3967  0.7896
  109MOL0     O14588   9.837   0.233   1.233  0.1055  0.1346 -0.0066
  109MOL0     C14589   9.779   0.274   1.359 -0.1719  0.4074 -0.3325
  109MOL0     C14590   9.703   0.146   1.418  0.2898 -0.3833 -0.5396
  109MOL0     C14591   9.581   0.096   1.331 -0.5613 -0.0065  0.1417
  109MOL0     C14592   9.544  -0.036   1.384 -0.3933  0.5982  0.5682
  109MOL0     C14593   9.450  -0.107   1.287  0.3801  0.5212  0.3476
  109MOL0     C14594   9.403  -0.224   1.364 -1.0378  0.0466 -0.4808
  109MOL0     C14595   9.282  -0.292   1.305  0.6418  0.1225  0.0330
  109MOL0     C14596   9.224  -0.399   1.401  0.3346 -0.4622 -0.3032
  109MOL0     N14597   9.135  -0.490   1.328 -0.3281 -0.2430 -0.1298
  109MOL0     C14598   9.007  -0.475   1.296 -0.4340  0.4965  0.6484
  109MOL0     C14599   8.976  -0.600   1.247  0.8105 -0.4369  0.1770
  109MOL0     C14600   8.841  -0.650   1.214  0.2376 -0.0532  0.3904
  109MOL0     C14601   8.854  -0.779   1.123  0.6172 -0.8130  0.2304
  109MOL0     C14602   8.722  -0.805   1.046  0.4832 -0.4216 -0.3781
  109MOL0     C14603   8.596  -0.846   1.129 -0.2610 -0.6898  0.9795
  109MOL0     O14604   8.607  -0.972   1.191  0.3685  0.1959 -0.7250
  109MOL0     C14605   8.484  -1.035   1.219 -0.8864 -0.4059  0.2389
  109MOL0     C14606   8.492  -1.167   1.255  1.2073  0.4192  0.2322
  109MOL0     C14607   8.379  -1.256   1.268 -0.8975  0.0249  0.3429
  109MOL0     C14608   8.413  -1.393   1.305 -0.4024  1.0533 -0.2843
  109MOL0     C14609   8.249  -1.198   1.262 -0.2104 -0.3825  0.7010
  109MOL0     C14610   8.123  -1.286   1.271 -0.6635 -0.5696 -0.4706
  109MOL0     O14611   8.013  -1.214   1.323 -0.5429 -0.1233  0.2548
  109MOL0     C14612   7.895  -1.285   1.344 -0.0584 -0.0484 -0.0801
  109MOL0     C14613   7.809  -1.339   1.236  0.0893 -0.2241  0.5346
  109MOL0     C14614   7.693  -1.405   1.274 -1.6688 -0.5084  1.1491
  109MOL0     C14615   7.660  -1.428   1.409  0.7740 -0.4377  0.1234
  109MOL0     O14616   7.537  -1.475   1.430 -0.2542  0.5694 -0.1214
  109MOL0     C14617   7.499  -1.525   1.565  0.5696 -0.6239  0.6560
  109MOL0     C14618   7.350  -1.556   1.567 -0.3295  0.1074  0.5344
  109MOL0     C14619   7.326  -1.687   1.483 -0.3695  0.3056 -0.2505
  109MOL0     C14620   7.183  -1.696   1.441  0.6244 -0.5250  0.0461
  109MOL0     C14621   7.155  -1.825   1.361  0.3362 -0.1856 -0.4862
  109MOL0     C14622   7.044  -1.814   1.261 -1.3098 -0.0969  0.7145
  109MOL0     C14623   6.999  -1.946   1.201  0.2849  0.1389 -0.4615
  109MOL0     C14624   6.898  -1.925   1.087 -1.0396  0.2246  0.1115
  109MOL0    Cl14625   6.824  -2.080   1.037 -0.0884  0.0448 -0.2869
  109MOL0     C14626   7.747  -1.386   1.507  0.6490  0.0797  0.3109
  109MOL0     C14627   7.863  -1.320   1.481 -0.4243  0.1969  0.6340
  109MOL0     O14628   8.117  -1.397   1.223 -0.7985 -0.1846  0.0052
  109MOL0     C14629   8.236  -1.060   1.239 -0.5903 -0.0075  0.2382
  109MOL0     C14630   8.350  -0.979   1.219 -0.4810 -0.1816  0.5079
  109MOL0     N14631   9.093  -0.675   1.235 -0.4804 -0.2350  0.1345
  109MOL0     N14632   9.192  -0.604   1.280 -0.7382  0.3924  0.2042
  109MOL0     C14633  10.066   0.197   1.180  0.5579  0.6166  0.5459
  109MOL0     C14634  10.195   0.241   1.151  0.4482 -0.1882 -0.2122
  109MOL0     C14635  10.539   0.485   0.990  0.2277  0.1349  0.1182
  109MOL0     C14636  10.647   0.440   1.068  0.4579  0.2570  0.1334
  109MOL0     C14637  10.780   0.469   1.041 -1.1744 -0.1361 -0.2127
  109MOL0     C14638  10.809   0.560   0.936  0.6306  0.4345 -0.3900
  109MOL0     O14639  10.939   0.590   0.924  0.2893 -0.6309 -0.1471
  109MOL0     C14640  10.976   0.690   0.831 -0.7125 -1.5561 -0.0125
  109MOL0     C14641  11.120   0.750   0.843 -0.7301  0.2538 -0.7177
  109MOL0     C14642  11.234   0.643   0.831  0.0395  0.1745  0.2763
  109MOL0     C14643  11.359   0.691   0.758  0.2559 -0.7448  0.2433
  109MOL0     C14644  11.455   0.578   0.760  0.5429  0.2421  0.6541
  109MOL0     C14645  11.538   0.497   0.770  0.1832  0.8429  0.2426
  109MOL0     C14646  10.705   0.606   0.855  0.7601 -0.0475 -0.4672
  109MOL0     C14647  10.574   0.564   0.872  0.2557  1.0406  0.2487
  109MOL0     H14648  10.158   0.559   1.248 -2.5598  0.1276  1.3370
  109MOL0     H14649   9.925   0.493   1.254 -0.8908 -0.1547 -2.1709
  109MOL0     H14650   9.861   0.304   1.425 -1.2606  0.3294  1.1138
  109MOL0     H14651   9.705   0.355   1.352 -1.4109 -0.7665 -1.3394
  109MOL0     H14652   9.783   0.072   1.427  0.8762  0.2645 -0.4305
  109MOL0     H14653   9.671   0.175   1.518 -1.5270  1.5685 -1.5962
  109MOL0     H14654   9.497   0.165   1.347 -0.7552  0.0685 -1.0460
  109MOL0     H14655   9.617   0.100   1.228  3.1285  0.1668  1.3162
  109MOL0     H14656   9.626  -0.101   1.413 -0.5283  0.3134  0.3143
  109MOL0     H14657   9.493  -0.024   1.480  0.0694 -0.3512  0.9359
  109MOL0     H14658   9.372  -0.035   1.258 -0.5111  0.5065  2.5524
  109MOL0     H14659   9.512  -0.136   1.201 -1.0409  2.4039 -1.4298
  109MOL0     H14660   9.479  -0.302   1.371 -1.5751 -0.4351  0.1295
  109MOL0     H14661   9.377  -0.194   1.466  3.7342 -2.8928  1.9633
  109MOL0     H14662   9.202  -0.218   1.295  0.3902 -0.0634  0.6265
  109MOL0     H14663   9.308  -0.343   1.212  2.1860 -2.8162  1.9019
  109MOL0     H14664   9.164  -0.341   1.472  0.0233  1.9145 -2.3591
  109MOL0     H14665   9.311  -0.447   1.447  2.1676  0.7216 -2.3148
  109MOL0     H14666   8.945  -0.387   1.310  0.2526  0.6041  3.8440
  109MOL0     H14667   8.768  -0.661   1.295 -0.1539  2.1135  0.3930
  109MOL0     H14668   8.792  -0.571   1.156 -0.5611  2.6980  4.3874
  109MOL0     H14669   8.893  -0.866   1.176 -3.0616 -0.9490  3.1501
  109MOL0     H14670   8.933  -0.761   1.050 -0.4066  2.3509 -0.2631
  109MOL0     H14671   8.740  -0.886   0.974 -0.1241  0.1940 -1.2476
  109MOL0     H14672   8.699  -0.718   0.983  0.7634 -0.0694  0.0021
  109MOL0     H14673   8.513  -0.838   1.059  0.4709 -0.7340  0.0918
  109MOL0     H14674   8.580  -0.761   1.196  0.9316  0.9132 -0.6841
  109MOL0     H14675   8.592  -1.210   1.249  0.1666 -2.0102 -1.9191
  109MOL0     H14676   8.501  -1.395   1.370 -0.7486 -1.8113  0.2480
  109MOL0     H14677   8.336  -1.435   1.370 -0.5070 -0.4721 -1.3246
  109MOL0     H14678   8.412  -1.465   1.223  0.0680  0.9853 -0.2342
  109MOL0     H14679   7.829  -1.318   1.132 -0.5448  1.6889  0.7531
  109MOL0     H14680   7.632  -1.435   1.189  0.7963 -0.2990 -0.8100
  109MOL0     H14681   7.561  -1.613   1.588  0.4499 -0.6965  0.7000
  109MOL0     H14682   7.520  -1.463   1.652  0.7787 -0.4015  0.4476
  109MOL0     H14683   7.317  -1.567   1.671 -3.3391 -0.1642 -0.3448
  109MOL0     H14684   7.289  -1.472   1.530  0.4599  1.8162  2.9065
  109MOL0     H14685   7.363  -1.770   1.543 -1.0849 -0.0191 -0.2397
  109MOL0     H14686   7.390  -1.691   1.395 -0.5055 -2.4094 -0.2863
  109MOL0     H14687   7.114  -1.695   1.525  0.3489 -1.9303 -0.1462
  109MOL0     H14688   7.164  -1.611   1.375 -0.4897  0.0963  1.1373
  109MOL0     H14689   7.140  -1.909   1.428  0.4525  0.3342  0.1998
  109MOL0     H14690   7.245  -1.853   1.304 -0.9075 -3.9692 -0.8891
  109MOL0     H14691   6.961  -1.763   1.310 -1.0692  0.6835  0.3292
  109MOL0     H14692   7.071  -1.742   1.183  0.4517 -1.2504  0.1805
  109MOL0     H14693   6.950  -2.009   1.275  0.4949  1.0439  0.4670
  109MOL0     H14694   7.078  -1.999   1.146 -0.8302 -0.4023 -1.5937
  109MOL0     H14695   6.947  -1.886   0.998  1.2903 -1.7097  0.4591
  109MOL0     H14696   6.813  -1.862   1.115 -0.7812 -0.2693  2.1575
  109MOL0     H14697   7.725  -1.406   1.611  4.0461 -0.5319  1.0244
  109MOL0     H14698   7.937  -1.304   1.560 -1.5883 -0.8971  2.0101
  109MOL0     H14699   8.136  -1.017   1.233 -3.0604 -5.0585  0.2938
  109MOL0     H14700   8.345  -0.872   1.203 -2.5259 -0.4382 -1.0057
  109MOL0     H14701  10.036   0.092   1.173  1.7724  0.3501 -1.0899
  109MOL0     H14702  10.266   0.165   1.121 -0.7328 -1.9679  1.2701
  109MOL0     H14703  10.622   0.376   1.152  0.0241 -2.9652 -2.2190
  109MOL0     H14704  10.853   0.416   1.101  1.5512  2.2694 -1.1356
  109MOL0     H14705  10.964   0.664   0.726 -2.6743  3.7316 -1.4253
  109MOL0     H14706  10.911   0.778   0.835 -0.7179 -1.4625 -1.5269
  109MOL0     H14707  11.120   0.795   0.943 -1.6212 -1.1973 -0.0223
  109MOL0     H14708  11.133   0.831   0.771 -0.0756  0.7155 -0.0907
  109MOL0     H14709  11.199   0.556   0.776  0.5036 -0.0793  0.3758
  109MOL0     H14710  11.250   0.592   0.927 -2.6880 -1.7471 -0.2024
  109MOL0     H14711  11.415   0.768   0.810  1.3122 -0.5309 -1.1633
  109MOL0     H14712  11.341   0.715   0.653  0.2418 -2.1230 -0.0978
  109MOL0     H14713  11.618   0.425   0.772  0.2415  0.7521 -2.3446
  109MOL0     H14714  10.723   0.683   0.780  2.1384 -0.0177 -0.1370
  109MOL0     H14715  10.491   0.590   0.806 -1.8070 -1.0028  1.8683
  110MOL0     O14716   4.781   9.486   7.889 -0.0531 -0.3521  0.3521
  110MOL0     C14717   4.867   9.392   7.888  0.2616  0.1695  0.9904
  110MOL0     O14718   4.851   9.261   7.842  1.1678 -0.2972 -0.0975
  110MOL0     C14719   4.730   9.228   7.782 -0.2179 -0.1952 -0.3985
  110MOL0     C14720   4.730   9.157   7.661  0.2775 -0.2366  0.3495
  110MOL0     C14721   4.628   9.099   7.596  0.8612 -0.5834  1.0054
  110MOL0     C14722   4.501   9.127   7.648  0.4967 -0.1251 -0.2668
  110MOL0     O14723   4.388   9.079   7.587  0.4830 -0.0013 -0.5295
  110MOL0     C14724   4.375   9.079   7.448  0.0070  0.1835  0.8932
  110MOL0     C14725   4.229   9.040   7.407 -0.1259 -0.3565 -0.1041
  110MOL0     C14726   4.207   8.969   7.270  0.6218  0.5083  0.4902
  110MOL0     C14727   4.225   9.074   7.151 -0.5459  0.7029  0.2876
  110MOL0     C14728   4.228   9.023   7.006 -0.8844 -0.7802  0.4005
  110MOL0     C14729   4.136   8.904   6.975 -0.0291  0.3315  0.0701
  110MOL0     C14730   3.986   8.950   6.985 -0.5449  0.0563 -0.5529
  110MOL0     C14731   3.891   8.827   6.973 -0.4391  0.3407 -0.1049
  110MOL0     N14732   3.759   8.874   7.026 -0.2360  0.4814 -0.0588
  110MOL0     C14733   3.654   8.933   6.960 -0.5357 -0.0406 -0.0785
  110MOL0     C14734   3.581   8.978   7.061  0.2194  0.1628 -0.8171
  110MOL0     C14735   3.458   9.059   7.053  0.3433  0.0268 -0.0130
  110MOL0     C14736   3.330   8.962   7.071 -0.0418  0.5369  0.1396
  110MOL0     C14737   3.204   9.044   7.030  0.0449  0.0423 -0.0829
  110MOL0     C14738   3.162   9.177   7.105 -0.0884  0.2273  0.8783
  110MOL0     O14739   3.110   9.137   7.233  0.0394  0.3701  0.3068
  110MOL0     C14740   2.968   9.127   7.245  0.0267  0.6678 -0.0700
  110MOL0     C14741   2.916   9.042   7.346 -0.4548  0.5857 -0.0167
  110MOL0     C14742   2.782   9.007   7.365 -0.1329 -0.3014 -0.2582
  110MOL0     C14743   2.746   8.902   7.465 -0.5557  0.0960 -0.5826
  110MOL0     C14744   2.683   9.078   7.291  0.2310  0.6940  1.1395
  110MOL0     C14745   2.543   9.057   7.296  0.0259 -0.6234 -0.3658
  110MOL0     O14746   2.493   8.948   7.354  0.2553 -0.4729 -0.2136
  110MOL0     C14747   2.366   8.943   7.401 -0.0050  0.3926 -0.9072
  110MOL0     C14748   2.296   9.056   7.439  0.3851  0.2843 -0.8585
  110MOL0     C14749   2.158   9.046   7.490  0.6107  0.5426 -0.3954
  110MOL0     C14750   2.094   8.921   7.482  0.5696 -0.0239  0.0427
  110MOL0     O14751   1.970   8.916   7.529 -0.0281  0.3412  0.2262
  110MOL0     C14752   1.898   8.787   7.540 -0.0745 -0.3877  0.6328
  110MOL0     C14753   1.774   8.788   7.642 -0.4450 -0.1246 -0.6279
  110MOL0     C14754   1.645   8.848   7.571 -0.2990  0.8668 -0.5160
  110MOL0     C14755   1.641   8.999   7.597 -0.0140  0.6155 -0.0283
  110MOL0     C14756   1.523   9.072   7.535  0.2474  0.4872  0.4128
  110MOL0     C14757   1.498   9.203   7.589 -0.0019 -0.9395  0.4502
  110MOL0     C14758   1.615   9.299   7.565  0.1441 -0.0273 -0.5007
  110MOL0     C14759   1.555   9.444   7.553 -0.1188  0.4102 -0.0315
  110MOL0    Cl14760   1.490   9.495   7.717  0.2013  0.1855 -0.0091
  110MOL0     C14761   2.161   8.805   7.430  0.0969  0.2820  0.0421
  110MOL0     C14762   2.302   8.815   7.402  0.5209 -0.0549  0.1435
  110MOL0     O14763   2.480   9.148   7.238 -0.2677  0.4495 -0.0280
  110MOL0     C14764   2.736   9.162   7.184 -0.0180 -0.9414 -0.1450
  110MOL0     C14765   2.871   9.188   7.162 -0.0642  0.2083  0.1416
  110MOL0     N14766   3.628   8.928   7.183 -0.8645  0.8150  0.4108
  110MOL0     N14767   3.736   8.862   7.159  0.8658 -0.8292 -0.3009
  110MOL0     C14768   4.483   9.190   7.772  0.2616 -0.9394 -0.2937
  110MOL0     C14769   4.603   9.242   7.835  0.3094 -0.2944  0.1392
  110MOL0     C14770   5.004   9.418   7.939 -0.0308 -0.3313 -0.5020
  110MOL0     C14771   5.047   9.548   7.979  0.1108 -0.7875 -0.6108
  110MOL0     C14772   5.177   9.573   8.021 -0.8036 -0.1814  0.2189
  110MOL0     C14773   5.274   9.476   8.032 -0.9309  0.2915  0.4489
  110MOL0     O14774   5.404   9.492   8.080  0.0606  0.3623  0.6412
  110MOL0     C14775   5.460   9.627   8.093  0.1296 -0.6652  0.0090
  110MOL0     C14776   5.590   9.605   8.173 -0.9687 -0.3043  0.0965
  110MOL0     C14777   5.695   9.715   8.150 -0.4584  0.3125  0.1603
  110MOL0     C14778   5.662   9.853   8.228 -0.6928 -0.8686  0.6045
  110MOL0     C14779   5.766   9.953   8.194  0.1876  0.3727 -0.0520
  110MOL0     C14780   5.848  10.038   8.172  0.4906 -0.1340 -0.0701
  110MOL0     C14781   5.233   9.342   8.002 -0.6824  0.5496 -0.1259
  110MOL0     C14782   5.104   9.313   7.959 -0.3781 -0.8603 -0.2820
  110MOL0     H14783   4.825   9.139   7.613 -0.0308  1.6822 -1.0938
  110MOL0     H14784   4.644   9.048   7.502 -0.4104  2.3157 -0.9424
  110MOL0     H14785   4.398   9.179   7.410  2.3407 -0.5267  0.2747
  110MOL0     H14786   4.440   8.997   7.417 -4.2405 -4.5191  2.8370
  110MOL0     H14787   4.189   8.978   7.487  0.5634 -0.3459  0.2510
  110MOL0     H14788   4.177   9.136   7.411 -0.0812 -0.1898 -2.0988
  110MOL0     H14789   4.286   8.894   7.259  1.1380  1.0049  0.7302
  110MOL0     H14790   4.109   8.921   7.268  1.0740 -0.4500  0.9635
  110MOL0     H14791   4.144   9.148   7.163 -0.5166  1.1367 -1.7634
  110MOL0     H14792   4.320   9.126   7.163 -0.0502 -0.5162  2.0362
  110MOL0     H14793   4.205   9.102   6.935  0.5915 -0.7852 -0.1207
  110MOL0     H14794   4.332   8.992   6.993 -1.5764 -2.9116 -0.5430
  110MOL0     H14795   4.167   8.870   6.875  1.0652  0.6686  0.2815
  110MOL0     H14796   4.151   8.817   7.039  2.1288  0.7686  0.2233
  110MOL0     H14797   3.968   9.002   7.080  1.9833  0.6436 -0.3221
  110MOL0     H14798   3.947   9.022   6.913 -2.0090 -2.4380 -2.4294
  110MOL0     H14799   3.931   8.744   7.033 -1.9415  1.5048  2.6915
  110MOL0     H14800   3.890   8.795   6.869  1.3625 -1.1856  0.2960
  110MOL0     H14801   3.644   8.948   6.853  0.0101 -2.4534 -0.5320
  110MOL0     H14802   3.450   9.127   7.139 -2.8622  0.1655 -0.3240
  110MOL0     H14803   3.456   9.111   6.956  1.4210 -0.9594 -0.5871
  110MOL0     H14804   3.326   8.933   7.176  1.6217 -0.8860 -0.1478
  110MOL0     H14805   3.337   8.867   7.018  0.6696 -0.5110  2.0367
  110MOL0     H14806   3.121   8.972   7.037  1.2472 -1.2600  1.6908
  110MOL0     H14807   3.216   9.069   6.924 -0.9468 -0.9887 -0.4586
  110MOL0     H14808   3.089   9.238   7.051 -0.4263 -1.2468 -0.3624
  110MOL0     H14809   3.255   9.234   7.117  0.9672 -1.0894 -0.7361
  110MOL0     H14810   2.997   8.987   7.392 -0.3026 -1.8578 -2.9029
  110MOL0     H14811   2.734   8.802   7.422  0.5852 -1.0589  1.6189
  110MOL0     H14812   2.823   8.895   7.543 -0.7213 -2.3162 -0.5612
  110MOL0     H14813   2.654   8.926   7.518  0.7158 -1.5887  2.6699
  110MOL0     H14814   2.344   9.153   7.450 -1.8572  1.2350  1.8019
  110MOL0     H14815   2.122   9.131   7.547 -1.3230 -1.1149  1.0290
  110MOL0     H14816   1.867   8.762   7.438  0.9303 -0.4167  0.3265
  110MOL0     H14817   1.968   8.710   7.571  2.7629  0.9888 -1.9107
  110MOL0     H14818   1.753   8.688   7.679  0.5505 -0.6569 -1.4615
  110MOL0     H14819   1.798   8.852   7.728  0.9202 -0.5244 -0.6910
  110MOL0     H14820   1.556   8.799   7.612 -1.3404  3.1357  0.0975
  110MOL0     H14821   1.659   8.826   7.465 -0.1125 -0.4070 -0.2444
  110MOL0     H14822   1.642   9.021   7.704 -0.4204  3.5001 -0.5345
  110MOL0     H14823   1.732   9.050   7.564 -0.8946  1.3931 -1.3479
  110MOL0     H14824   1.437   9.008   7.555 -0.5356  0.7141 -1.9713
  110MOL0     H14825   1.530   9.075   7.426  0.4816  0.7441  0.4340
  110MOL0     H14826   1.408   9.233   7.534  0.6099  1.2236  0.5438
  110MOL0     H14827   1.478   9.206   7.696  1.3519  0.2651  0.7014
  110MOL0     H14828   1.666   9.273   7.471  1.1217 -3.5195  0.8671
  110MOL0     H14829   1.692   9.291   7.642 -2.1393 -0.9169  1.8028
  110MOL0     H14830   1.480   9.434   7.474  0.2752 -1.8151 -0.1853
  110MOL0     H14831   1.639   9.505   7.519  1.1433 -1.2947 -0.0944
  110MOL0     H14832   2.110   8.709   7.419  1.3105 -0.2607 -1.0436
  110MOL0     H14833   2.348   8.721   7.376  2.0732  0.2966  1.4631
  110MOL0     H14834   2.672   9.213   7.113  1.4354  0.0034 -0.8310
  110MOL0     H14835   2.904   9.267   7.095  3.2583  2.3160  3.8262
  110MOL0     H14836   4.387   9.187   7.822 -0.0498 -0.0450 -0.8202
  110MOL0     H14837   4.588   9.285   7.934 -1.9808 -0.6357 -0.0118
  110MOL0     H14838   4.973   9.626   7.969 -0.0200 -0.9981 -1.3690
  110MOL0     H14839   5.201   9.676   8.048  0.8355 -0.5480  0.2292
  110MOL0     H14840   5.480   9.663   7.992 -1.0386 -0.4648 -0.1678
  110MOL0     H14841   5.391   9.699   8.138 -0.4428  0.0007 -1.8536
  110MOL0     H14842   5.621   9.503   8.148 -3.8511 -1.2873  0.1314
  110MOL0     H14843   5.564   9.608   8.280  1.6924 -1.8874  0.8829
  110MOL0     H14844   5.698   9.729   8.042 -1.6880  0.9001  0.1908
  110MOL0     H14845   5.784   9.667   8.193 -1.4087  0.2472  2.1529
  110MOL0     H14846   5.652   9.837   8.336 -2.1819 -0.3108  0.5713
  110MOL0     H14847   5.566   9.892   8.194  0.4824  1.4701 -0.2649
  110MOL0     H14848   5.927  10.103   8.141  0.8598 -1.3213 -1.8163
  110MOL0     H14849   5.299   9.256   8.007 -0.3121  0.8514  0.2755
  110MOL0     H14850   5.082   9.211   7.932  0.1515 -1.2572  0.7348
  111MOL0     O14851   8.375   2.792   0.291 -0.0727  0.0626  0.3516
  111MOL0     C14852   8.444   2.743   0.200 -0.6668 -0.5744 -0.5034
  111MOL0     O14853   8.401   2.647   0.115 -0.5055  0.3333 -0.1731
  111MOL0     C14854   8.288   2.573   0.159  0.7090 -0.4616  0.8242
  111MOL0     C14855   8.185   2.569   0.059 -0.5626 -0.1326  0.2871
  111MOL0     C14856   8.071   2.498   0.094  1.1719  0.6514 -0.0894
  111MOL0     C14857   8.050   2.449   0.227  0.5864  0.5059 -0.0563
  111MOL0     O14858   7.930   2.380   0.233  0.8199  0.3626 -0.1343
  111MOL0     C14859   7.870   2.384   0.365 -0.9585 -0.4977  0.1986
  111MOL0     C14860   7.719   2.374   0.363 -0.0679 -0.3326  0.3980
  111MOL0     C14861   7.660   2.494   0.284 -0.4059 -0.7591  0.2300
  111MOL0     C14862   7.508   2.473   0.271 -0.0149  0.5204  0.3573
  111MOL0     C14863   7.428   2.596   0.232 -0.8072  0.4963 -0.2780
  111MOL0     C14864   7.299   2.546   0.177 -0.8454  0.3606 -0.2685
  111MOL0     C14865   7.226   2.677   0.116 -0.1998 -0.3054 -0.0804
  111MOL0     C14866   7.084   2.646   0.063  0.0878 -0.3663  0.3888
  111MOL0     N14867   6.998   2.581   0.158 -0.4224  0.6997  0.2120
  111MOL0     C14868   6.959   2.451   0.148  0.4987  0.7277  0.5910
  111MOL0     C14869   6.852   2.438   0.231  0.5701 -0.8011 -0.3318
  111MOL0     C14870   6.777   2.305   0.252  0.3325  0.3138  0.4026
  111MOL0     C14871   6.632   2.321   0.237  0.2997 -0.0283  0.6337
  111MOL0     C14872   6.563   2.194   0.281  0.8198 -0.2242 -0.2549
  111MOL0     C14873   6.414   2.208   0.254  0.0418  0.2921 -0.4407
  111MOL0     O14874   6.330   2.116   0.328  0.0651  0.7044  0.5247
  111MOL0     C14875   6.211   2.153   0.389 -0.6239  0.2433 -0.1050
  111MOL0     C14876   6.117   2.058   0.404 -0.4299  0.1977 -0.7283
  111MOL0     C14877   6.006   2.085   0.487  0.5165  0.7878  0.4564
  111MOL0     C14878   5.901   1.970   0.499  0.2130 -0.3738 -0.0262
  111MOL0     C14879   5.978   2.216   0.542 -0.5985  0.3022 -0.2355
  111MOL0     C14880   5.862   2.251   0.619 -0.0020  0.5890  1.0281
  111MOL0     O14881   5.799   2.364   0.578  0.0432 -0.1780  0.6627
  111MOL0     C14882   5.686   2.412   0.636  0.2147  0.0652  0.5297
  111MOL0     C14883   5.676   2.551   0.647  0.2479 -0.4829 -0.3658
  111MOL0     C14884   5.579   2.610   0.721  0.4379  0.4144 -0.0125
  111MOL0     C14885   5.480   2.542   0.793 -1.4625  0.1312 -0.0137
  111MOL0     O14886   5.393   2.617   0.862  0.5403  0.5439 -0.0820
  111MOL0     C14887   5.330   2.556   0.974  0.0887  0.7334  0.4062
  111MOL0     C14888   5.256   2.658   1.045  0.6557  0.4582 -0.2322
  111MOL0     C14889   5.157   2.730   0.947  0.3056 -0.4414  0.5825
  111MOL0     C14890   5.030   2.790   1.018  0.8818 -0.3245  0.5107
  111MOL0     C14891   4.933   2.696   1.079  0.7556  0.2628 -0.9674
  111MOL0     C14892   4.787   2.762   1.096  0.5996  0.7091  0.1539
  111MOL0     C14893   4.722   2.697   1.228 -0.0278 -0.0090  0.4483
  111MOL0     C14894   4.583   2.752   1.233 -0.4003 -0.4403 -0.0342
  111MOL0    Cl14895   4.474   2.684   1.113  0.1066 -0.2457  0.1360
  111MOL0     C14896   5.479   2.399   0.779  0.0498  0.0311  0.0137
  111MOL0     C14897   5.580   2.341   0.701 -0.9580  0.3149 -0.6697
  111MOL0     O14898   5.832   2.185   0.710 -0.5608  0.9965 -0.0889
  111MOL0     C14899   6.067   2.314   0.508 -1.0469 -0.3905 -0.0287
  111MOL0     C14900   6.192   2.280   0.452 -0.6027  0.0894  1.4484
  111MOL0     N14901   6.831   2.564   0.289 -1.0549 -0.6025 -0.1831
  111MOL0     N14902   6.923   2.644   0.252 -0.5034 -0.3652  0.0944
  111MOL0     C14903   8.157   2.449   0.321 -0.0256 -0.3985 -0.5905
  111MOL0     C14904   8.270   2.519   0.290 -0.4389  0.4950 -0.1482
  111MOL0     C14905   8.588   2.806   0.191 -0.2516  0.3410 -0.4825
  111MOL0     C14906   8.615   2.923   0.264 -0.0427  0.7669 -0.0297
  111MOL0     C14907   8.736   2.985   0.254 -0.8294  0.4238  0.2155
  111MOL0     C14908   8.842   2.924   0.182 -0.0108 -0.3643 -0.2065
  111MOL0     O14909   8.969   2.980   0.169  0.3329  1.2835 -0.5529
  111MOL0     C14910   9.071   2.940   0.071 -0.3439  0.2724 -0.9087
  111MOL0     C14911   9.032   2.980  -0.079 -0.7508 -0.4661 -0.4951
  111MOL0     C14912   9.057   3.134  -0.089 -0.1002  0.3393 -0.0634
  111MOL0     C14913   9.207   3.159  -0.139  0.9949  0.0634 -0.1321
  111MOL0     C14914   9.261   3.278  -0.083  1.0012 -0.2091  0.0550
  111MOL0     C14915   9.310   3.379  -0.036  0.9253  0.6415  0.1687
  111MOL0     C14916   8.811   2.806   0.113 -0.1041  0.2274 -0.0940
  111MOL0     C14917   8.688   2.743   0.113 -0.3965 -0.0789  0.2001
  111MOL0     H14918   8.205   2.624  -0.033 -1.4349  0.9059  0.6950
  111MOL0     H14919   7.995   2.466   0.023 -0.9735 -2.0029  3.0605
  111MOL0     H14920   7.902   2.304   0.433  1.2951  0.6452  0.5691
  111MOL0     H14921   7.895   2.480   0.412  2.1777 -0.9592 -0.3250
  111MOL0     H14922   7.688   2.288   0.303  0.8247 -0.6694  0.3913
  111MOL0     H14923   7.677   2.383   0.463  0.7759  2.2166  0.5890
  111MOL0     H14924   7.674   2.589   0.337  0.5559  0.4877 -2.1258
  111MOL0     H14925   7.706   2.515   0.187 -1.0080  1.1720  0.3294
  111MOL0     H14926   7.494   2.393   0.198  1.6345  0.4315  0.1154
  111MOL0     H14927   7.473   2.436   0.367  1.0867 -1.2392  0.1136
  111MOL0     H14928   7.416   2.657   0.322 -1.0899  0.8287 -0.5393
  111MOL0     H14929   7.484   2.654   0.158 -0.8272  1.2505  0.2844
  111MOL0     H14930   7.311   2.472   0.097 -1.4942 -0.1483  0.0911
  111MOL0     H14931   7.241   2.492   0.253  2.1998 -3.6543 -0.4520
  111MOL0     H14932   7.219   2.752   0.195  3.9856  2.0709 -1.6968
  111MOL0     H14933   7.289   2.723   0.040  2.1727  1.9078  2.9798
  111MOL0     H14934   7.084   2.578  -0.022 -1.5170  0.6967 -0.5076
  111MOL0     H14935   7.052   2.741   0.020  1.3930  0.7775  1.8140
  111MOL0     H14936   6.991   2.382   0.071 -3.3413  0.4159 -0.9791
  111MOL0     H14937   6.813   2.225   0.187 -0.3303 -0.6458  1.1900
  111MOL0     H14938   6.788   2.280   0.358 -0.5349 -2.1459 -0.0161
  111MOL0     H14939   6.613   2.337   0.131  0.0295 -2.3726  0.2862
  111MOL0     H14940   6.600   2.413   0.287 -1.1803 -0.4627  0.5213
  111MOL0     H14941   6.576   2.189   0.389  1.0126  1.6052 -0.1489
  111MOL0     H14942   6.602   2.112   0.221  0.4948 -0.6407  0.1026
  111MOL0     H14943   6.397   2.204   0.146 -0.2488 -2.7842 -0.3748
  111MOL0     H14944   6.385   2.309   0.286  1.9781  0.8558 -0.3485
  111MOL0     H14945   6.129   1.954   0.374  0.7598  0.0342  0.2420
  111MOL0     H14946   5.815   2.006   0.557 -0.6748 -0.2262 -1.3963
  111MOL0     H14947   5.868   1.946   0.397 -1.1333 -1.6174  0.6621
  111MOL0     H14948   5.941   1.875   0.535  0.9028 -0.1814 -0.2704
  111MOL0     H14949   5.760   2.602   0.602  1.4084 -3.0804 -1.3047
  111MOL0     H14950   5.593   2.718   0.720  1.1117  0.3313 -0.8567
  111MOL0     H14951   5.260   2.473   0.960 -0.1846  0.2739  3.7333
  111MOL0     H14952   5.402   2.505   1.039  0.1871 -0.7256 -0.7896
  111MOL0     H14953   5.203   2.598   1.121 -1.9223  0.9213 -1.5515
  111MOL0     H14954   5.321   2.729   1.097  0.8344 -2.1657  3.5282
  111MOL0     H14955   5.122   2.665   0.866 -1.8822  2.1094 -0.6902
  111MOL0     H14956   5.205   2.815   0.898  1.6948 -1.7956 -0.4888
  111MOL0     H14957   5.052   2.865   1.095  1.3439 -0.2843  0.3461
  111MOL0     H14958   4.976   2.845   0.942  1.8705 -1.1110 -0.8092
  111MOL0     H14959   4.974   2.655   1.172 -3.9604 -3.5286 -0.1870
  111MOL0     H14960   4.923   2.602   1.025  1.7357  0.9678 -2.4660
  111MOL0     H14961   4.802   2.870   1.102 -0.1475  0.9283 -1.5641
  111MOL0     H14962   4.716   2.747   1.014  0.5475  1.3681  0.0723
  111MOL0     H14963   4.783   2.720   1.315  1.4617  0.2692 -0.6269
  111MOL0     H14964   4.719   2.588   1.220  3.3280 -0.1413 -0.5062
  111MOL0     H14965   4.584   2.861   1.226 -0.2767 -0.4008  0.5456
  111MOL0     H14966   4.534   2.733   1.329  1.8612  1.3096  1.5548
  111MOL0     H14967   5.403   2.339   0.828  1.0320 -0.8232  0.5275
  111MOL0     H14968   5.587   2.233   0.701 -1.0913  0.2803  0.9763
  111MOL0     H14969   6.061   2.418   0.539  1.6228  0.1263 -1.0060
  111MOL0     H14970   6.271   2.353   0.435  1.1595 -2.0901 -0.4506
  111MOL0     H14971   8.150   2.401   0.418  2.3033  1.6520  0.6873
  111MOL0     H14972   8.351   2.515   0.362  0.6451 -3.3584 -1.3453
  111MOL0     H14973   8.536   2.982   0.311  0.5555  1.8660 -0.3599
  111MOL0     H14974   8.765   3.079   0.300 -0.6951  2.4228 -3.5385
  111MOL0     H14975   9.171   2.977   0.095 -0.6504  1.0960 -0.8781
  111MOL0     H14976   9.082   2.831   0.064 -0.8832 -0.1381  2.8793
  111MOL0     H14977   8.929   2.951  -0.103 -0.6285 -1.0732 -0.2828
  111MOL0     H14978   9.098   2.928  -0.148 -0.0730 -0.5294  0.1869
  111MOL0     H14979   9.028   3.196  -0.003  1.8634 -0.4612  1.2435
  111MOL0     H14980   8.994   3.169  -0.171  0.0632 -1.3572 -0.9611
  111MOL0     H14981   9.210   3.166  -0.248  1.1500 -0.1403 -0.1417
  111MOL0     H14982   9.269   3.074  -0.110 -1.0866 -1.0743  1.2857
  111MOL0     H14983   9.336   3.465   0.023  3.4751  0.8634 -1.1211
  111MOL0     H14984   8.886   2.749   0.058 -0.6042 -0.1380 -0.4050
  111MOL0     H14985   8.661   2.662   0.046  0.0171 -0.8368  0.9353
  112MOL0     O14986   4.512   3.404   2.835  0.4785  0.2518  0.2177
  112MOL0     C14987   4.537   3.412   2.955 -0.1513  0.1377  0.2903
  112MOL0     O14988   4.436   3.416   3.052 -0.2873 -0.5356  0.5887
  112MOL0     C14989   4.310   3.451   3.008 -0.4148  0.2793  0.5303
  112MOL0     C14990   4.273   3.568   2.951  0.0756 -0.4867  0.3142
  112MOL0     C14991   4.140   3.595   2.931  0.0349 -0.3070  0.2994
  112MOL0     C14992   4.044   3.499   2.942  0.6218 -0.0824 -0.0710
  112MOL0     O14993   3.920   3.538   2.903  0.6419 -0.4064  0.4277
  112MOL0     C14994   3.826   3.434   2.865 -0.1752  0.6024 -0.2055
  112MOL0     C14995   3.742   3.381   2.978 -0.9593  0.0369 -0.3423
  112MOL0     C14996   3.647   3.479   3.037  0.6178 -0.2836 -1.0999
  112MOL0     C14997   3.525   3.502   2.948  0.1991 -0.0686 -0.5071
  112MOL0     C14998   3.412   3.581   3.009 -0.6154 -0.6271  0.6490
  112MOL0     C14999   3.280   3.562   2.933 -0.3916  0.5151  0.4888
  112MOL0     C15000   3.157   3.621   3.004  0.2576  0.5103  0.3986
  112MOL0     C15001   3.031   3.558   2.937  0.5838 -0.8275  0.0404
  112MOL0     N15002   2.908   3.614   2.995  0.8453  0.7230  0.2807
  112MOL0     C15003   2.914   3.719   3.082 -0.4838  0.0910 -0.0004
  112MOL0     C15004   2.783   3.751   3.104 -0.0180  0.1088 -0.1500
  112MOL0     C15005   2.733   3.865   3.192  0.6820 -0.3701 -0.0277
  112MOL0     C15006   2.773   3.844   3.337 -0.8496  0.4917  0.4551
  112MOL0     C15007   2.735   3.715   3.411  0.7100  0.5857 -0.6523
  112MOL0     C15008   2.789   3.714   3.556 -1.0231  0.1791 -0.2000
  112MOL0     O15009   2.751   3.606   3.628  0.0607 -0.5711  0.4630
  112MOL0     C15010   2.633   3.613   3.696  0.9799 -0.3457 -0.7952
  112MOL0     C15011   2.615   3.509   3.791 -0.2363  0.2407 -0.0725
  112MOL0     C15012   2.503   3.495   3.865  0.6200 -0.1017  0.6855
  112MOL0     C15013   2.497   3.384   3.967  0.4175  0.2558 -0.2227
  112MOL0     C15014   2.384   3.575   3.839 -0.4133  0.1561  0.0502
  112MOL0     C15015   2.244   3.554   3.903 -0.4792 -0.6107 -0.4983
  112MOL0     O15016   2.143   3.622   3.848 -0.0911  0.5744  0.2128
  112MOL0     C15017   2.022   3.600   3.908  0.2639 -0.5497  0.1847
  112MOL0     C15018   1.922   3.526   3.839 -0.4437  0.2494  0.9826
  112MOL0     C15019   1.789   3.516   3.889  0.3497  0.3101 -0.0903
  112MOL0     C15020   1.754   3.565   4.011  0.5307 -0.0637  0.4897
  112MOL0     O15021   1.630   3.530   4.058 -0.2126  0.2985 -0.3437
  112MOL0     C15022   1.584   3.593   4.177  0.2611 -1.3138  0.0675
  112MOL0     C15023   1.448   3.539   4.208  0.4084  0.2200  1.0183
  112MOL0     C15024   1.438   3.425   4.310  0.2165 -0.2415 -0.6626
  112MOL0     C15025   1.297   3.377   4.307  0.4366  0.1536 -0.4965
  112MOL0     C15026   1.267   3.310   4.443 -0.6783 -0.7516 -0.8929
  112MOL0     C15027   1.129   3.243   4.450 -0.3882 -0.2002  0.0091
  112MOL0     C15028   1.098   3.174   4.592 -0.0444  0.2401 -0.2647
  112MOL0     C15029   0.973   3.095   4.583 -0.3661 -0.2198  0.3040
  112MOL0    Cl15030   0.840   3.193   4.523 -0.0739  0.1276  0.1078
  112MOL0     C15031   1.850   3.632   4.086 -0.3201  0.2231 -0.4596
  112MOL0     C15032   1.979   3.649   4.036 -0.1708 -0.2191  0.6146
  112MOL0     O15033   2.242   3.486   4.004  0.1928  0.1963 -0.6736
  112MOL0     C15034   2.394   3.676   3.746 -0.1591 -0.0479  0.1209
  112MOL0     C15035   2.524   3.702   3.688 -0.1657  0.2141  0.1822
  112MOL0     N15036   2.708   3.657   3.037 -0.1987  0.1806  0.1249
  112MOL0     N15037   2.783   3.574   2.976 -0.2956  0.7037 -0.3347
  112MOL0     C15038   4.083   3.373   2.999  0.0399  0.5374 -0.0626
  112MOL0     C15039   4.214   3.358   3.041 -0.8878  0.2533  0.0831
  112MOL0     C15040   4.681   3.415   2.995 -0.3647 -0.1690 -0.2710
  112MOL0     C15041   4.783   3.364   2.905  0.2948  0.6822  0.6538
  112MOL0     C15042   4.914   3.358   2.955 -0.4173 -0.1835  0.3062
  112MOL0     C15043   4.946   3.408   3.078  0.6940  0.0535 -0.7301
  112MOL0     O15044   5.078   3.395   3.120 -0.3982 -0.1842 -0.2569
  112MOL0     C15045   5.112   3.289   3.210  0.4903 -0.0816  0.2170
  112MOL0     C15046   5.259   3.246   3.191 -0.4044  0.7575  0.8365
  112MOL0     C15047   5.268   3.137   3.069 -0.3935  0.9083 -0.6572
  112MOL0     C15048   5.407   3.080   3.076  0.6140  0.5026  0.0774
  112MOL0     C15049   5.422   2.979   2.972 -0.2345 -0.2093  0.8704
  112MOL0     C15050   5.442   2.904   2.874 -0.1092  0.7513 -0.1085
  112MOL0     C15051   4.843   3.454   3.163  0.0276  0.7093 -0.2315
  112MOL0     C15052   4.716   3.467   3.120  0.5203  0.5032 -0.0203
  112MOL0     H15053   4.351   3.641   2.933 -0.3396 -0.2976 -0.7885
  112MOL0     H15054   4.114   3.691   2.888 -0.8109  0.3842  2.2026
  112MOL0     H15055   3.756   3.483   2.797 -2.2798 -0.7494  0.8719
  112MOL0     H15056   3.880   3.350   2.819 -0.6636 -1.9446  3.4161
  112MOL0     H15057   3.682   3.295   2.950 -1.3228  0.6121 -1.3786
  112MOL0     H15058   3.806   3.362   3.065 -2.5711  2.5278  1.5168
  112MOL0     H15059   3.623   3.448   3.139  1.1482  2.4333 -0.0716
  112MOL0     H15060   3.701   3.573   3.049  1.4571 -0.9848  0.9106
  112MOL0     H15061   3.545   3.550   2.852  0.7859 -0.3464 -0.5309
  112MOL0     H15062   3.486   3.400   2.936 -1.2178  0.0818  2.1490
  112MOL0     H15063   3.406   3.552   3.114 -1.3609 -0.4598  0.6599
  112MOL0     H15064   3.435   3.688   3.009  0.0410 -0.7653  0.1784
  112MOL0     H15065   3.294   3.606   2.834  0.3814  1.3779  0.9633
  112MOL0     H15066   3.268   3.457   2.907  0.2394  1.0362 -2.1880
  112MOL0     H15067   3.155   3.586   3.108  1.4957 -1.4132 -0.1762
  112MOL0     H15068   3.157   3.730   2.994  0.5782  0.5173  0.4628
  112MOL0     H15069   3.023   3.449   2.948 -2.5966 -0.6042  0.9830
  112MOL0     H15070   3.033   3.579   2.830 -2.9303  0.4394  0.0716
  112MOL0     H15071   3.003   3.765   3.123 -0.7673  2.0366 -1.4110
  112MOL0     H15072   2.778   3.956   3.152  1.6279 -1.1396 -0.7813
  112MOL0     H15073   2.625   3.867   3.178  0.4807 -1.4411  1.2221
  112MOL0     H15074   2.750   3.937   3.390  1.0219  0.2858  1.7390
  112MOL0     H15075   2.881   3.826   3.337 -0.3494  3.0889  0.3005
  112MOL0     H15076   2.775   3.628   3.359  1.7288 -0.8611  2.3065
  112MOL0     H15077   2.627   3.702   3.422  1.1303 -1.0540  3.2716
  112MOL0     H15078   2.758   3.801   3.615  0.6726  0.1346  0.8172
  112MOL0     H15079   2.899   3.718   3.551 -0.8026 -1.2126  2.0862
  112MOL0     H15080   2.695   3.439   3.816  2.2771  2.2246 -1.9419
  112MOL0     H15081   2.459   3.424   4.062  1.5060 -1.3811  0.9410
  112MOL0     H15082   2.428   3.305   3.937  1.0787 -1.8568  3.2448
  112MOL0     H15083   2.597   3.344   3.988  0.4820 -1.0326 -2.6214
  112MOL0     H15084   1.954   3.477   3.748 -1.9835  1.2781 -0.1689
  112MOL0     H15085   1.723   3.449   3.835  1.9107 -1.8159  0.4659
  112MOL0     H15086   1.649   3.598   4.266 -1.0473  0.8660  0.9642
  112MOL0     H15087   1.553   3.692   4.145 -3.7039 -2.3029  0.4048
  112MOL0     H15088   1.395   3.631   4.234 -0.7189  0.5381 -2.0740
  112MOL0     H15089   1.408   3.510   4.111  1.0151 -1.0585  1.1265
  112MOL0     H15090   1.471   3.467   4.405  2.2519 -0.1762 -1.3546
  112MOL0     H15091   1.510   3.347   4.286  1.3553 -0.0562  1.8903
  112MOL0     H15092   1.225   3.456   4.284 -0.6229 -1.5342 -3.4529
  112MOL0     H15093   1.285   3.300   4.231 -2.1596 -1.4620  1.3449
  112MOL0     H15094   1.275   3.382   4.525  2.8274 -0.8099 -1.0170
  112MOL0     H15095   1.346   3.236   4.460 -0.5842 -0.5027 -0.2253
  112MOL0     H15096   1.046   3.312   4.436 -1.4978 -1.6329 -0.7724
  112MOL0     H15097   1.126   3.161   4.377  2.0455 -0.1961 -0.1951
  112MOL0     H15098   1.092   3.257   4.663  5.2518  0.1061  0.7447
  112MOL0     H15099   1.188   3.121   4.624 -0.5937 -1.0127 -0.7457
  112MOL0     H15100   0.942   3.066   4.684 -0.5671  2.1746  0.9831
  112MOL0     H15101   0.994   3.006   4.523  1.9138  0.7520 -0.4589
  112MOL0     H15102   1.827   3.664   4.186 -0.2125  0.2624 -0.4474
  112MOL0     H15103   2.057   3.697   4.096 -0.6477  0.1193  0.9689
  112MOL0     H15104   2.318   3.748   3.720 -0.1310 -0.4148 -1.0588
  112MOL0     H15105   2.533   3.794   3.631 -0.8790  1.3107  1.7742
  112MOL0     H15106   4.010   3.294   3.012 -0.0714  0.6718  0.1233
  112MOL0     H15107   4.240   3.268   3.096  1.3958  1.3416  0.9220
  112MOL0     H15108   4.759   3.310   2.813 -2.2446  0.0675  1.6050
  112MOL0     H15109   4.998   3.315   2.901  0.9415  0.5299  1.7427
  112MOL0     H15110   5.092   3.326   3.311 -2.1980  2.2956 -1.0539
  112MOL0     H15111   5.051   3.202   3.182 -1.6800  0.4897  2.7316
  112MOL0     H15112   5.299   3.188   3.275  4.3768  0.4515 -1.3327
  112MOL0     H15113   5.322   3.330   3.162  0.1998 -0.7969 -3.0113
  112MOL0     H15114   5.245   3.188   2.974 -2.3206 -0.0475 -0.7481
  112MOL0     H15115   5.201   3.052   3.083 -1.5855  1.6093 -1.8027
  112MOL0     H15116   5.412   3.025   3.171 -0.0544 -2.1317 -1.3039
  112MOL0     H15117   5.476   3.164   3.073  1.6688 -0.1423  2.8199
  112MOL0     H15118   5.437   2.844   2.786 -0.4291 -0.7885  0.9309
  112MOL0     H15119   4.862   3.481   3.267 -0.2193 -1.1513  0.3348
  112MOL0     H15120   4.638   3.505   3.185  0.4736  1.6714 -0.7267
  113MOL0     O15121   7.725   1.072   5.749  0.0527 -0.3598 -0.2035
  113MOL0     C15122   7.742   0.956   5.717  0.4729  0.2322 -0.5873
  113MOL0     O15123   7.643   0.863   5.699  0.0182 -0.3023 -0.0120
  113MOL0     C15124   7.516   0.898   5.663 -0.8406 -1.0402 -0.4887
  113MOL0     C15125   7.481   1.032   5.604 -0.3204  0.0596 -1.3173
  113MOL0     C15126   7.357   1.049   5.551  0.2607 -0.7861  0.2850
  113MOL0     C15127   7.260   0.953   5.557 -0.4915  0.7765 -0.1600
  113MOL0     O15128   7.136   0.971   5.503  1.0740  0.2942 -0.6341
  113MOL0     C15129   7.016   0.939   5.576  0.3793 -0.0018 -0.1214
  113MOL0     C15130   6.947   0.828   5.503  0.5387  0.3538 -0.2495
  113MOL0     C15131   6.819   0.771   5.569 -0.1179 -0.3999  0.2708
  113MOL0     C15132   6.696   0.861   5.548 -0.2263  0.0776  0.4111
  113MOL0     C15133   6.572   0.777   5.535  0.4494 -0.0750 -1.0347
  113MOL0     C15134   6.442   0.867   5.553  0.3093  0.4259  0.1533
  113MOL0     C15135   6.323   0.775   5.526 -0.5049  1.4784  0.0744
  113MOL0     C15136   6.296   0.672   5.644  0.6496  0.4636  0.3096
  113MOL0     N15137   6.175   0.593   5.619 -0.0835  0.7651 -0.4840
  113MOL0     C15138   6.116   0.552   5.505 -0.2387  0.0036  0.7831
  113MOL0     C15139   5.985   0.552   5.534 -0.1442  0.5154 -0.0092
  113MOL0     C15140   5.874   0.503   5.451 -0.5928  0.3293  1.0151
  113MOL0     C15141   5.729   0.499   5.507 -0.2213 -0.4769  0.8200
  113MOL0     C15142   5.632   0.453   5.402  0.5104  0.6321 -0.0938
  113MOL0     C15143   5.489   0.466   5.443 -0.2649  0.8023  0.6040
  113MOL0     O15144   5.411   0.447   5.324  0.1854  0.2143  0.1320
  113MOL0     C15145   5.271   0.414   5.338  0.8267 -0.0917  0.5177
  113MOL0     C15146   5.201   0.379   5.455 -0.3718 -0.0315 -0.3947
  113MOL0     C15147   5.068   0.335   5.464  0.3958 -0.5119 -0.1768
  113MOL0     C15148   5.005   0.271   5.587  0.5691 -0.0484 -0.0667
  113MOL0     C15149   4.999   0.325   5.344 -0.1395  0.4014 -0.4560
  113MOL0     C15150   4.853   0.291   5.336  0.0431  0.4830 -0.0282
  113MOL0     O15151   4.819   0.198   5.237  0.4866 -0.6155  0.2567
  113MOL0     C15152   4.695   0.146   5.229  0.0489 -0.3454  0.7798
  113MOL0     C15153   4.620   0.091   5.339 -0.7840  0.4666 -0.1315
  113MOL0     C15154   4.507   0.016   5.301  0.3234  0.4059  0.3985
  113MOL0     C15155   4.465   0.001   5.172  0.0200  1.1855 -0.6623
  113MOL0     O15156   4.341  -0.064   5.151 -0.5937 -0.8630  0.6419
  113MOL0     C15157   4.316  -0.125   5.022 -0.8756 -0.1264  0.1528
  113MOL0     C15158   4.191  -0.211   5.023 -0.3118 -1.0814  1.1925
  113MOL0     C15159   4.147  -0.249   4.882 -0.4108 -0.0586  0.1683
  113MOL0     C15160   3.995  -0.285   4.875  0.3914  0.6324  0.4241
  113MOL0     C15161   3.949  -0.415   4.950 -0.4194  0.5862  0.6121
  113MOL0     C15162   3.800  -0.444   4.912 -0.1784  0.4074 -0.0103
  113MOL0     C15163   3.743  -0.557   4.989  0.9117 -0.1301  0.1510
  113MOL0     C15164   3.628  -0.640   4.916 -0.2679 -0.2488  0.3194
  113MOL0    Cl15165   3.701  -0.760   4.798  0.0695 -0.0394  0.2524
  113MOL0     C15166   4.539   0.056   5.068 -0.6687  0.1598 -0.8618
  113MOL0     C15167   4.655   0.123   5.097 -0.0578 -0.0033 -0.0570
  113MOL0     O15168   4.773   0.343   5.411  0.0648 -0.1053 -1.2119
  113MOL0     C15169   5.057   0.371   5.226 -1.0096 -0.3766  0.4579
  113MOL0     C15170   5.191   0.412   5.221  0.5317  0.9315  0.9780
  113MOL0     N15171   5.968   0.606   5.654 -0.2376  0.0547 -0.4773
  113MOL0     N15172   6.075   0.618   5.708 -0.9700 -0.2948  0.2937
  113MOL0     C15173   7.291   0.827   5.617 -0.0192 -0.0121 -1.0248
  113MOL0     C15174   7.421   0.797   5.666  0.8294  0.0206 -0.3731
  113MOL0     C15175   7.878   0.912   5.740  0.3761  0.6973  0.1453
  113MOL0     C15176   7.984   1.010   5.754  0.3377 -0.2497  0.3426
  113MOL0     C15177   8.109   0.960   5.780  0.1523 -0.0512 -0.8303
  113MOL0     C15178   8.139   0.820   5.772 -0.0935  0.0778  1.0236
  113MOL0     O15179   8.265   0.767   5.791 -0.1316 -0.6012 -0.2972
  113MOL0     C15180   8.383   0.845   5.824  0.6298  0.2203  0.4226
  113MOL0     C15181   8.382   0.861   5.978 -0.9944 -0.3676 -0.1757
  113MOL0     C15182   8.518   0.925   6.033  0.3290 -0.3148  1.1753
  113MOL0     C15183   8.640   0.836   6.028  0.0876 -0.4553 -0.3852
  113MOL0     C15184   8.752   0.925   6.070 -0.3520  0.3966  0.2037
  113MOL0     C15185   8.854   0.991   6.086  0.1871 -0.3967 -0.0790
  113MOL0     C15186   8.041   0.729   5.746  0.8406  0.1042 -0.6445
  113MOL0     C15187   7.912   0.773   5.725  0.6590 -0.1954 -0.4726
  113MOL0     H15188   7.565   1.097   5.583 -0.0958  0.5293  0.8656
  113MOL0     H15189   7.322   1.138   5.500 -2.6648 -0.4474  2.5927
  113MOL0     H15190   7.031   0.907   5.680  1.9417  0.7116 -0.1038
  113MOL0     H15191   6.953   1.028   5.580  0.5856  0.1192  0.5059
  113MOL0     H15192   6.920   0.868   5.405 -0.5543 -0.1888 -0.1912
  113MOL0     H15193   7.018   0.747   5.481  1.9702  1.4200  0.3226
  113MOL0     H15194   6.795   0.671   5.531  1.3968 -0.7811  0.2456
  113MOL0     H15195   6.835   0.754   5.675 -1.2697 -1.7754  0.2436
  113MOL0     H15196   6.687   0.923   5.638 -2.8494 -0.7096  0.7924
  113MOL0     H15197   6.709   0.930   5.464 -2.6755 -0.9756 -0.9328
  113MOL0     H15198   6.572   0.718   5.443  1.0757  0.4276 -1.3671
  113MOL0     H15199   6.586   0.706   5.617  0.3668 -0.5006 -1.3845
  113MOL0     H15200   6.419   0.912   5.650 -0.2218  1.1872 -0.3173
  113MOL0     H15201   6.439   0.946   5.477  2.2757 -1.2761 -1.8327
  113MOL0     H15202   6.236   0.840   5.514 -1.4749  0.2646  0.2832
  113MOL0     H15203   6.331   0.721   5.432 -1.9927 -0.4005  0.9393
  113MOL0     H15204   6.285   0.727   5.738 -1.5141 -0.3968  0.6115
  113MOL0     H15205   6.376   0.597   5.651 -2.1668 -2.8674 -0.4302
  113MOL0     H15206   6.174   0.513   5.422 -2.6198 -2.2448  0.0184
  113MOL0     H15207   5.873   0.547   5.351 -1.0069 -0.0955  0.8307
  113MOL0     H15208   5.903   0.398   5.442 -0.9145  0.0364  2.9663
  113MOL0     H15209   5.702   0.601   5.536 -0.2769  0.0128 -0.8793
  113MOL0     H15210   5.738   0.425   5.588  1.7316  0.0753  1.1502
  113MOL0     H15211   5.648   0.347   5.376 -2.0938 -0.0567  0.8209
  113MOL0     H15212   5.645   0.516   5.314 -0.2407  0.9017 -0.0170
  113MOL0     H15213   5.461   0.559   5.493 -1.2099 -0.2765  2.1707
  113MOL0     H15214   5.457   0.394   5.519 -0.1147  0.1606  0.0661
  113MOL0     H15215   5.269   0.359   5.538 -1.0903 -2.3450 -0.2942
  113MOL0     H15216   4.962   0.174   5.560 -1.8057  1.7696 -3.5980
  113MOL0     H15217   5.076   0.262   5.670  1.0098 -0.2160 -0.4585
  113MOL0     H15218   4.916   0.330   5.611  0.2950 -0.3132 -0.4345
  113MOL0     H15219   4.653   0.099   5.443 -0.8588  1.2708 -0.1641
  113MOL0     H15220   4.439  -0.020   5.378 -0.4063  1.4721  0.2723
  113MOL0     H15221   4.310  -0.044   4.949  0.4223 -0.0610  0.0986
  113MOL0     H15222   4.394  -0.199   5.004 -1.0990  0.0952 -1.9116
  113MOL0     H15223   4.221  -0.293   5.090 -1.8231  0.4059  3.9012
  113MOL0     H15224   4.113  -0.151   5.070 -0.7857  0.5006 -1.4413
  113MOL0     H15225   4.215  -0.325   4.844 -1.0740 -0.4050 -0.3517
  113MOL0     H15226   4.156  -0.159   4.820 -2.2292  0.3608  0.4379
  113MOL0     H15227   3.940  -0.203   4.923  0.6585  1.2214 -0.2493
  113MOL0     H15228   3.978  -0.278   4.767  2.6438  1.9816  0.0780
  113MOL0     H15229   3.980  -0.406   5.054  2.7488  0.7692 -0.2198
  113MOL0     H15230   4.020  -0.489   4.912 -0.1355  0.6983  0.9152
  113MOL0     H15231   3.752  -0.349   4.938  0.9203  1.0886 -0.3911
  113MOL0     H15232   3.790  -0.460   4.804  1.4085  0.4329 -0.1896
  113MOL0     H15233   3.697  -0.512   5.077  1.0416 -0.1223  0.2149
  113MOL0     H15234   3.816  -0.632   5.019 -0.7069 -1.8299  0.0168
  113MOL0     H15235   3.560  -0.567   4.871  1.3996 -0.1429 -2.2360
  113MOL0     H15236   3.570  -0.706   4.982 -0.7386 -0.9550 -0.7535
  113MOL0     H15237   4.511   0.056   4.963  1.4791  0.9604 -1.4762
  113MOL0     H15238   4.730   0.167   5.032  1.1467  2.6494  2.9044
  113MOL0     H15239   5.005   0.356   5.131  1.6065  0.1686 -1.1584
  113MOL0     H15240   5.235   0.443   5.127 -1.3399  1.3512  0.1924
  113MOL0     H15241   7.211   0.761   5.649 -0.3719  1.9907  2.8623
  113MOL0     H15242   7.443   0.698   5.705  1.7147  0.2074 -0.3718
  113MOL0     H15243   7.961   1.115   5.760  1.2267  0.2880 -3.1954
  113MOL0     H15244   8.189   1.024   5.817  0.1167 -1.2459  1.5239
  113MOL0     H15245   8.473   0.792   5.791  1.0675 -0.0631  1.9660
  113MOL0     H15246   8.388   0.941   5.772  0.3222 -0.0728 -0.1564
  113MOL0     H15247   8.365   0.766   6.031  1.4095 -0.5828  0.3230
  113MOL0     H15248   8.307   0.937   6.001 -0.0726  2.8871 -6.0013
  113MOL0     H15249   8.507   0.949   6.139  0.0596  1.0018  0.8724
  113MOL0     H15250   8.534   1.013   5.970  2.1242 -1.5729 -0.2128
  113MOL0     H15251   8.656   0.796   5.927 -0.5975 -1.7130 -0.0221
  113MOL0     H15252   8.631   0.762   6.108  1.7359  1.1118  1.3504
  113MOL0     H15253   8.942   1.052   6.098 -1.4340  1.6365  2.6167
  113MOL0     H15254   8.068   0.628   5.717 -0.0901  0.1642 -1.8539
  113MOL0     H15255   7.836   0.698   5.701  0.8825 -0.2069 -1.1873
  114MOL0     O15256  10.065   6.690   2.835 -0.4973  0.4377 -0.4888
  114MOL0     C15257  10.109   6.597   2.901  0.1143 -0.1744  0.3209
  114MOL0     O15258  10.041   6.486   2.952  0.6959  0.5103  0.0223
  114MOL0     C15259   9.908   6.471   2.944  0.5337 -1.0420  0.7426
  114MOL0     C15260   9.810   6.575   2.928 -0.4306  0.6436  1.2851
  114MOL0     C15261   9.671   6.550   2.920  0.4579 -0.4063 -0.4555
  114MOL0     C15262   9.627   6.416   2.938 -0.1914 -0.9919 -0.3768
  114MOL0     O15263   9.494   6.404   2.941  0.0528 -0.3354  0.0301
  114MOL0     C15264   9.439   6.271   2.920 -0.1536 -0.3459 -0.5910
  114MOL0     C15265   9.288   6.268   2.913  0.4619 -0.6863  0.5398
  114MOL0     C15266   9.230   6.285   3.049  0.0368  0.8321 -0.1403
  114MOL0     C15267   9.071   6.289   3.042  0.5082  0.5768  0.5808
  114MOL0     C15268   9.019   6.356   3.163 -0.7041  0.0384  0.4086
  114MOL0     C15269   8.869   6.378   3.159 -0.4236 -0.1922 -0.5291
  114MOL0     C15270   8.807   6.379   3.303  0.1914 -0.0279  0.4303
  114MOL0     C15271   8.666   6.441   3.303  0.8786 -0.4476 -0.5617
  114MOL0     N15272   8.549   6.347   3.289 -0.7341  0.0106  0.3177
  114MOL0     C15273   8.517   6.259   3.193 -0.2927 -0.3117 -0.2028
  114MOL0     C15274   8.394   6.214   3.221 -0.9005  0.0104 -0.6766
  114MOL0     C15275   8.301   6.131   3.141  0.0258  0.0415  0.6332
  114MOL0     C15276   8.222   6.190   3.023  0.9233 -0.0456 -0.1699
  114MOL0     C15277   8.107   6.105   2.976  0.3824  0.1889  0.4868
  114MOL0     C15278   7.972   6.128   3.036 -0.3678 -0.3256 -0.4596
  114MOL0     O15279   7.979   6.095   3.183 -0.3867  0.4757  0.2844
  114MOL0     C15280   7.908   6.169   3.274 -1.0885  0.0634 -0.1059
  114MOL0     C15281   7.964   6.260   3.358  0.0239  0.3732  0.3831
  114MOL0     C15282   7.890   6.345   3.447  0.2563 -0.0241  0.3614
  114MOL0     C15283   7.972   6.445   3.523  0.1355  0.4804 -0.4508
  114MOL0     C15284   7.753   6.320   3.470 -0.6587  0.9908 -0.0978
  114MOL0     C15285   7.666   6.377   3.575  0.1271  0.7583  0.0575
  114MOL0     O15286   7.549   6.301   3.605  0.0434 -0.1231  0.3406
  114MOL0     C15287   7.472   6.350   3.698  0.7208  0.0078 -0.6902
  114MOL0     C15288   7.452   6.273   3.811  0.1873  0.3884 -0.5031
  114MOL0     C15289   7.362   6.314   3.907 -0.2178 -0.5509 -0.6789
  114MOL0     C15290   7.292   6.435   3.894  0.1987  0.0195  0.6020
  114MOL0     O15291   7.197   6.468   3.998  0.3609  0.0489  0.2196
  114MOL0     C15292   7.095   6.566   3.958  0.6043  0.2130 -0.0374
  114MOL0     C15293   6.986   6.551   4.050 -0.4870 -0.2702  0.7893
  114MOL0     C15294   6.864   6.633   3.999  0.5443 -0.4319  1.3408
  114MOL0     C15295   6.894   6.780   3.971  0.2326 -0.0020  0.5555
  114MOL0     C15296   6.767   6.865   3.921  0.2987  0.0175  1.0692
  114MOL0     C15297   6.634   6.868   4.008 -0.6110 -0.2002 -0.2124
  114MOL0     C15298   6.525   6.949   3.936 -0.1349 -0.2184  0.1188
  114MOL0     C15299   6.389   6.951   4.004  1.2577 -0.7878  1.0158
  114MOL0    Cl15300   6.282   7.069   3.932 -0.1591  0.2143  0.0301
  114MOL0     C15301   7.314   6.513   3.779  0.2441  0.1044 -0.0620
  114MOL0     C15302   7.402   6.470   3.683  0.4655 -0.5156 -0.0304
  114MOL0     O15303   7.699   6.474   3.642 -0.1429 -0.1344  0.8536
  114MOL0     C15304   7.699   6.212   3.391 -0.6771 -0.4687 -0.2636
  114MOL0     C15305   7.771   6.144   3.297 -0.6101  0.0839 -0.2603
  114MOL0     N15306   8.352   6.267   3.338 -0.7233  0.2763 -0.2208
  114MOL0     N15307   8.444   6.349   3.374 -0.3910 -0.0890  0.5291
  114MOL0     C15308   9.718   6.312   2.966 -0.4677 -0.9106  0.1851
  114MOL0     C15309   9.856   6.344   2.966 -0.1326  0.3680 -0.5215
  114MOL0     C15310  10.254   6.595   2.918  0.1226 -0.3300 -0.1387
  114MOL0     C15311  10.309   6.482   2.984  0.1962  0.0276 -0.9818
  114MOL0     C15312  10.443   6.484   3.025  0.9666  0.6517 -0.0648
  114MOL0     C15313  10.537   6.582   2.985 -0.1097  0.0959  0.9089
  114MOL0     O15314  10.667   6.561   3.014 -0.3834 -0.4252 -0.8031
  114MOL0     C15315  10.768   6.654   2.960  0.0686 -0.6447  0.3706
  114MOL0     C15316  10.901   6.639   3.032 -0.3281  0.0446 -0.2514
  114MOL0     C15317  11.000   6.745   2.990  0.3816  0.1709 -0.4977
  114MOL0     C15318  11.124   6.742   3.076  0.1924  0.5192 -0.3357
  114MOL0     C15319  11.098   6.832   3.194 -0.2205 -0.5875  0.0381
  114MOL0     C15320  11.100   6.915   3.278 -0.9449  0.2507  0.9400
  114MOL0     C15321  10.487   6.685   2.908  0.6562  0.5887 -0.2267
  114MOL0     C15322  10.349   6.703   2.887 -0.4618  0.1201  0.3957
  114MOL0     H15323   9.847   6.677   2.932  1.4795 -0.0430  2.2356
  114MOL0     H15324   9.604   6.633   2.903  0.5263 -0.5351 -1.4534
  114MOL0     H15325   9.463   6.237   2.818 -0.5243 -0.5143 -0.6240
  114MOL0     H15326   9.485   6.197   2.985 -0.7964 -1.2351 -1.1258
  114MOL0     H15327   9.254   6.352   2.852  2.2823 -1.2017 -1.3012
  114MOL0     H15328   9.263   6.168   2.875 -0.7100 -0.9826  2.0203
  114MOL0     H15329   9.258   6.199   3.110  0.1249  2.0577  1.6245
  114MOL0     H15330   9.262   6.376   3.101 -2.4802 -0.2026  3.6527
  114MOL0     H15331   9.045   6.358   2.961 -2.0451  1.5308  2.0742
  114MOL0     H15332   9.022   6.191   3.034  0.5183  0.6362 -0.2934
  114MOL0     H15333   9.053   6.298   3.249 -0.8619  0.8098  1.0029
  114MOL0     H15334   9.065   6.455   3.169  1.6267 -0.8446 -1.1635
  114MOL0     H15335   8.842   6.471   3.109  1.4749  0.0891 -1.0879
  114MOL0     H15336   8.829   6.295   3.101 -1.3879  0.5658 -0.9720
  114MOL0     H15337   8.807   6.277   3.342  0.0494 -0.1384  0.1391
  114MOL0     H15338   8.878   6.440   3.360  3.8123 -2.8396 -0.6914
  114MOL0     H15339   8.666   6.524   3.231  0.2147 -0.1387 -0.2140
  114MOL0     H15340   8.656   6.494   3.398 -0.1719  0.1704 -0.9893
  114MOL0     H15341   8.577   6.240   3.104 -0.5268  2.2340 -0.9944
  114MOL0     H15342   8.345   6.036   3.110  2.4854  1.2505  0.1045
  114MOL0     H15343   8.225   6.099   3.213 -0.0388  1.3066  1.1486
  114MOL0     H15344   8.283   6.215   2.935 -0.0001  1.3011 -0.4523
  114MOL0     H15345   8.179   6.284   3.058  2.1560 -0.0528  1.5396
  114MOL0     H15346   8.138   6.001   2.994  2.7547 -0.0008 -3.4950
  114MOL0     H15347   8.099   6.117   2.867 -0.5816  1.0715  0.6435
  114MOL0     H15348   7.894   6.070   2.985 -1.3679  1.0015 -0.5011
  114MOL0     H15349   7.951   6.234   3.021  1.5101  0.1672  0.1475
  114MOL0     H15350   8.069   6.272   3.334  0.5438 -1.0809  1.7746
  114MOL0     H15351   8.071   6.459   3.479  0.6150 -1.5433 -0.1190
  114MOL0     H15352   7.931   6.546   3.534  1.6314  1.1820 -1.0228
  114MOL0     H15353   7.989   6.402   3.623  1.4839 -0.6832 -1.1371
  114MOL0     H15354   7.500   6.177   3.820 -1.2335 -0.4144 -1.1057
  114MOL0     H15355   7.339   6.265   4.002 -3.1559 -0.8933 -1.4640
  114MOL0     H15356   7.123   6.670   3.980  1.5261 -0.2788  1.3143
  114MOL0     H15357   7.065   6.548   3.855 -1.8824  0.1260  0.6430
  114MOL0     H15358   6.964   6.446   4.031 -0.5931  0.1938 -2.0864
  114MOL0     H15359   7.009   6.569   4.155  2.0300  1.1671  0.0888
  114MOL0     H15360   6.785   6.613   4.072 -1.2122  0.3298 -0.2751
  114MOL0     H15361   6.822   6.587   3.909 -0.6236  2.1923  0.4513
  114MOL0     H15362   6.924   6.819   4.069 -0.6645 -0.2256  0.9217
  114MOL0     H15363   6.978   6.800   3.903  1.8180 -2.1785  1.7357
  114MOL0     H15364   6.729   6.833   3.824 -0.7696 -1.0042  1.7927
  114MOL0     H15365   6.803   6.966   3.902 -0.5190 -0.2218 -2.4086
  114MOL0     H15366   6.604   6.764   4.023 -1.6359  0.0724 -0.3083
  114MOL0     H15367   6.657   6.919   4.102  1.4989  2.1838 -1.8809
  114MOL0     H15368   6.531   6.923   3.830  1.3534  0.5006 -0.0008
  114MOL0     H15369   6.555   7.053   3.949  2.5855 -0.8096 -0.8368
  114MOL0     H15370   6.399   6.977   4.110 -0.0703  0.3515  0.8865
  114MOL0     H15371   6.341   6.853   4.002 -1.7301  0.5871 -1.0442
  114MOL0     H15372   7.247   6.590   3.743  0.3176 -0.3881 -1.2844
  114MOL0     H15373   7.404   6.534   3.595 -1.9633  2.4634  1.8516
  114MOL0     H15374   7.599   6.175   3.411 -1.1512  0.1718 -1.3573
  114MOL0     H15375   7.728   6.059   3.244 -0.1389  0.7324 -1.7512
  114MOL0     H15376   9.693   6.206   2.965 -0.9601 -0.8113  1.3991
  114MOL0     H15377   9.931   6.265   2.975 -0.3606 -0.1877 -2.9500
  114MOL0     H15378  10.247   6.398   3.016 -3.8188  2.8504 -0.6585
  114MOL0     H15379  10.485   6.404   3.086  0.2066  1.3713  1.4385
  114MOL0     H15380  10.761   6.640   2.852  1.3114  1.1982  0.0056
  114MOL0     H15381  10.739   6.758   2.974  0.4784 -0.7877  2.6084
  114MOL0     H15382  10.934   6.538   3.008 -0.0166 -0.9112  3.4829
  114MOL0     H15383  10.883   6.639   3.140 -1.5679 -0.7942 -0.4449
  114MOL0     H15384  10.952   6.844   2.988  1.8793  1.0143  1.7204
  114MOL0     H15385  11.022   6.721   2.886 -1.2999  0.1640 -0.8831
  114MOL0     H15386  11.212   6.764   3.016  1.0554  0.2250  0.7842
  114MOL0     H15387  11.137   6.639   3.112 -1.5086 -0.4454 -2.2337
  114MOL0     H15388  11.091   6.992   3.352 -1.8111 -0.9467  2.1157
  114MOL0     H15389  10.554   6.761   2.869  0.4942  1.3907  0.9812
  114MOL0     H15390  10.306   6.788   2.836 -0.5440 -0.8299 -1.1545
  115MOL0     O15391  10.067   7.558   3.443  0.0246 -0.1819  0.2864
  115MOL0     C15392  10.151   7.476   3.479  0.4538 -0.9022 -0.0936
  115MOL0     O15393  10.122   7.353   3.513  0.0775  0.3933 -0.0527
  115MOL0     C15394   9.994   7.301   3.511 -0.0033  0.4091 -0.0942
  115MOL0     C15395   9.957   7.182   3.438 -0.5058 -0.2857 -1.0354
  115MOL0     C15396   9.830   7.126   3.457  0.2575 -0.6871  0.2891
  115MOL0     C15397   9.731   7.187   3.532 -0.3331  1.1320  0.6286
  115MOL0     O15398   9.606   7.129   3.530  0.4706 -0.5349  0.1110
  115MOL0     C15399   9.486   7.208   3.560 -0.1613 -0.1765  0.3939
  115MOL0     C15400   9.366   7.121   3.546 -0.9355 -0.0273 -0.2967
  115MOL0     C15401   9.233   7.183   3.597 -0.2399 -0.1037  0.1040
  115MOL0     C15402   9.127   7.077   3.609 -0.0539  0.2375 -1.3807
  115MOL0     C15403   8.986   7.129   3.652  0.3291 -0.3166  0.8517
  115MOL0     C15404   8.903   7.179   3.546 -0.3963  0.1912  0.4005
  115MOL0     C15405   8.760   7.228   3.587  0.0182  0.2812 -0.3960
  115MOL0     C15406   8.686   7.296   3.460  0.0831  0.3053 -0.7183
  115MOL0     N15407   8.567   7.370   3.502  0.2808 -0.0812  0.2569
  115MOL0     C15408   8.523   7.391   3.628 -0.3453 -1.2333 -0.1374
  115MOL0     C15409   8.422   7.479   3.613 -0.4393 -0.2317 -0.4129
  115MOL0     C15410   8.342   7.545   3.723 -0.9747  0.1055  0.8902
  115MOL0     C15411   8.346   7.480   3.855  0.0254  0.1512  0.4365
  115MOL0     C15412   8.275   7.558   3.971  0.7096  0.2797 -0.0098
  115MOL0     C15413   8.117   7.555   3.945 -0.6727  0.0157  0.1793
  115MOL0     O15414   8.076   7.417   3.975  0.3469 -0.1751 -0.1694
  115MOL0     C15415   7.943   7.391   3.936 -0.5974 -0.5307 -0.2452
  115MOL0     C15416   7.838   7.440   4.010 -0.0111  0.9147  0.5811
  115MOL0     C15417   7.711   7.398   3.967 -0.1446 -0.8604  0.4622
  115MOL0     C15418   7.605   7.458   4.061 -0.3663 -0.2090  0.3949
  115MOL0     C15419   7.681   7.326   3.855 -0.5324  0.5792  0.3014
  115MOL0     C15420   7.542   7.300   3.812  0.4378 -0.3165 -0.0464
  115MOL0     O15421   7.528   7.210   3.714  0.3002 -0.1152  0.2283
  115MOL0     C15422   7.410   7.213   3.642  0.4660  0.1207  1.4030
  115MOL0     C15423   7.299   7.134   3.671  0.2443  0.0870  1.3781
  115MOL0     C15424   7.182   7.144   3.607  0.9011  0.0453  0.7190
  115MOL0     C15425   7.177   7.229   3.491  0.3913  0.8323 -0.5481
  115MOL0     O15426   7.073   7.223   3.401 -0.6839 -0.4176  0.3583
  115MOL0     C15427   6.956   7.144   3.427 -0.4315 -0.1544  0.1806
  115MOL0     C15428   6.843   7.170   3.328  0.0125  0.8518 -0.3071
  115MOL0     C15429   6.725   7.076   3.332 -0.0566  0.0852 -0.5410
  115MOL0     C15430   6.628   7.090   3.217 -1.0885 -0.2062 -0.7767
  115MOL0     C15431   6.519   6.982   3.221 -0.1535  0.2558 -0.0429
  115MOL0     C15432   6.381   7.025   3.282  0.2795  0.0691  0.1250
  115MOL0     C15433   6.276   7.060   3.178  0.5367 -0.2293  0.0512
  115MOL0     C15434   6.157   7.140   3.234 -0.2578 -0.8310  0.3917
  115MOL0    Cl15435   6.033   7.139   3.104 -0.7720 -0.0674  0.3439
  115MOL0     C15436   7.286   7.312   3.455 -0.3674 -0.5418 -0.1439
  115MOL0     C15437   7.403   7.305   3.537  1.0225  0.1351  0.4837
  115MOL0     O15438   7.446   7.362   3.851  0.2643  0.4891  0.5551
  115MOL0     C15439   7.790   7.274   3.781 -0.4346  1.0848 -0.5031
  115MOL0     C15440   7.923   7.307   3.824 -0.2175 -0.0676 -0.5512
  115MOL0     N15441   8.400   7.497   3.480 -0.3884 -0.0462  0.4560
  115MOL0     N15442   8.474   7.421   3.415  0.4580  0.3321 -0.2423
  115MOL0     C15443   9.765   7.299   3.604  0.0923  0.2297 -0.8144
  115MOL0     C15444   9.895   7.353   3.595  0.6123  0.6339  0.0108
  115MOL0     C15445  10.291   7.520   3.486 -0.0014  0.0564 -0.5584
  115MOL0     C15446  10.327   7.660   3.498  0.9824 -0.2716  0.2616
  115MOL0     C15447  10.459   7.701   3.502 -0.7299  0.4664 -0.2667
  115MOL0     C15448  10.567   7.606   3.492 -0.0211 -0.3734  0.9967
  115MOL0     O15449  10.699   7.636   3.483 -0.3064 -0.3447  0.4875
  115MOL0     C15450  10.757   7.756   3.536 -0.3721 -0.7523  0.9076
  115MOL0     C15451  10.845   7.823   3.433  0.1736  0.4810 -0.4695
  115MOL0     C15452  10.893   7.953   3.486  0.0610 -0.4507 -1.1841
  115MOL0     C15453  10.786   8.063   3.470 -0.4161  0.3030  0.8417
  115MOL0     C15454  10.828   8.200   3.503 -0.3477  0.4374 -0.0343
  115MOL0     C15455  10.863   8.318   3.511  0.1024  0.4230 -0.1641
  115MOL0     C15456  10.528   7.476   3.466 -0.3722 -0.4496 -0.0227
  115MOL0     C15457  10.400   7.430   3.468 -0.4209 -1.0256  0.0502
  115MOL0     H15458  10.031   7.146   3.368  1.4821  1.1438  0.2143
  115MOL0     H15459   9.806   7.034   3.404 -0.9384 -0.0972 -0.2362
  115MOL0     H15460   9.492   7.246   3.663 -0.6292  2.9960 -0.6537
  115MOL0     H15461   9.472   7.289   3.489  0.4325 -0.2579  0.1863
  115MOL0     H15462   9.366   7.100   3.438  3.5745 -0.8133 -0.3405
  115MOL0     H15463   9.379   7.031   3.607  1.2789  0.9145  0.7378
  115MOL0     H15464   9.237   7.237   3.692  1.6568 -1.2995  0.7716
  115MOL0     H15465   9.194   7.260   3.530 -1.5261 -0.1012  0.8266
  115MOL0     H15466   9.106   7.026   3.515 -0.4054  0.7209 -1.5731
  115MOL0     H15467   9.173   7.012   3.683  0.9819 -1.4225 -3.3747
  115MOL0     H15468   8.935   7.045   3.700  2.0842 -1.4527  0.8326
  115MOL0     H15469   8.991   7.213   3.723 -4.1536  1.7452 -0.9176
  115MOL0     H15470   8.956   7.266   3.506 -1.5323  0.4369 -0.6404
  115MOL0     H15471   8.909   7.100   3.469 -0.4703 -0.6952  1.2864
  115MOL0     H15472   8.712   7.136   3.622  0.6538 -0.1015 -0.5156
  115MOL0     H15473   8.767   7.298   3.670 -0.7020 -0.1061 -0.0008
  115MOL0     H15474   8.650   7.217   3.393 -2.5670  0.1537  0.7573
  115MOL0     H15475   8.765   7.351   3.408  0.8830 -0.4022 -0.2881
  115MOL0     H15476   8.569   7.362   3.722  0.1645 -0.3402 -0.0964
  115MOL0     H15477   8.381   7.647   3.733 -1.6578  0.5120 -0.3680
  115MOL0     H15478   8.239   7.562   3.688 -1.4628 -0.2351  2.0878
  115MOL0     H15479   8.451   7.471   3.884  1.5744  1.6683 -3.8469
  115MOL0     H15480   8.298   7.382   3.851 -3.1688  1.6541 -0.8054
  115MOL0     H15481   8.322   7.656   3.969  3.0121 -0.6509  2.2618
  115MOL0     H15482   8.298   7.514   4.069 -0.0754 -0.0652  0.0345
  115MOL0     H15483   8.099   7.586   3.841  0.3614 -0.8484 -0.2868
  115MOL0     H15484   8.067   7.625   4.011 -0.1116  0.7137 -0.1270
  115MOL0     H15485   7.842   7.505   4.097 -1.9448  1.2754  0.4443
  115MOL0     H15486   7.646   7.502   4.152 -2.3657  0.8216  0.8488
  115MOL0     H15487   7.555   7.542   4.011  2.2654  0.7075 -0.9148
  115MOL0     H15488   7.542   7.376   4.095  0.3448 -1.1750 -0.5573
  115MOL0     H15489   7.311   7.056   3.745  0.8403 -1.0138  0.1584
  115MOL0     H15490   7.100   7.077   3.633  0.5870 -0.0110 -0.3594
  115MOL0     H15491   6.980   7.037   3.426 -1.0815 -0.3357  1.5124
  115MOL0     H15492   6.916   7.172   3.525  0.3037  0.4405  0.3213
  115MOL0     H15493   6.809   7.273   3.341 -1.4002  0.2086  1.4367
  115MOL0     H15494   6.884   7.163   3.227 -3.1264  2.9492 -1.8746
  115MOL0     H15495   6.668   7.094   3.423 -3.2376 -1.5021 -2.0728
  115MOL0     H15496   6.768   6.975   3.337  1.7663  0.7436 -1.7914
  115MOL0     H15497   6.580   7.189   3.207 -2.1261 -0.9094 -3.8375
  115MOL0     H15498   6.678   7.087   3.120 -1.5786  0.7613 -1.0806
  115MOL0     H15499   6.559   6.887   3.258 -1.1669  0.2655  1.1790
  115MOL0     H15500   6.492   6.972   3.115 -0.9993  0.8932  0.0963
  115MOL0     H15501   6.347   6.952   3.356 -0.2958  0.1604 -0.0421
  115MOL0     H15502   6.397   7.111   3.347  1.5761 -0.9331  1.1773
  115MOL0     H15503   6.231   6.970   3.136 -1.3325  0.3952  0.6369
  115MOL0     H15504   6.320   7.111   3.092 -1.4900  2.2800  0.3923
  115MOL0     H15505   6.167   7.246   3.260 -1.4950 -0.4464 -0.6072
  115MOL0     H15506   6.119   7.097   3.326 -2.0000  2.5779  1.4180
  115MOL0     H15507   7.276   7.382   3.372 -0.4588 -1.8233 -1.2446
  115MOL0     H15508   7.498   7.357   3.526  0.6587  0.7272  0.0904
  115MOL0     H15509   7.772   7.222   3.688  1.0813  0.6926 -0.5977
  115MOL0     H15510   8.007   7.275   3.764 -1.1821  2.1172 -3.3113
  115MOL0     H15511   9.697   7.353   3.669  0.8202  0.8400 -0.5368
  115MOL0     H15512   9.922   7.433   3.663 -0.8355 -0.4008  1.8984
  115MOL0     H15513  10.254   7.739   3.507 -1.1393 -2.1068  0.0035
  115MOL0     H15514  10.485   7.806   3.514 -0.6330  0.3168  1.0343
  115MOL0     H15515  10.686   7.830   3.574  1.6648  1.4872  0.5929
  115MOL0     H15516  10.818   7.727   3.623  0.6558 -1.0519  0.1050
  115MOL0     H15517  10.790   7.843   3.340  0.6956  2.0422 -0.4712
  115MOL0     H15518  10.929   7.759   3.403  1.7668  2.5427 -0.6227
  115MOL0     H15519  10.986   7.975   3.432 -0.9292  5.2902 -1.2013
  115MOL0     H15520  10.926   7.946   3.590 -1.7972  1.3072 -0.3951
  115MOL0     H15521  10.708   8.034   3.541 -0.4461  1.8506  1.4715
  115MOL0     H15522  10.740   8.070   3.371  1.4554  2.5923  0.0249
  115MOL0     H15523  10.873   8.425   3.521 -1.0721  0.4685  0.7457
  115MOL0     H15524  10.598   7.395   3.449 -0.6108 -1.0051  1.4972
  115MOL0     H15525  10.382   7.326   3.443  2.4832 -1.2697 -1.4272
  116MOL0     O15526   9.388   8.602   1.528  0.5441 -0.2070 -0.0942
  116MOL0     C15527   9.407   8.554   1.418  0.9826 -0.6283  0.1621
  116MOL0     O15528   9.311   8.533   1.324  0.2549  0.6868  1.1472
  116MOL0     C15529   9.180   8.559   1.357 -0.3631  0.1323 -0.1865
  116MOL0     C15530   9.102   8.632   1.267  0.1679  0.5177 -0.1028
  116MOL0     C15531   8.975   8.672   1.310 -1.1835 -0.3181 -0.1146
  116MOL0     C15532   8.914   8.611   1.423  0.2236  0.0131 -0.4948
  116MOL0     O15533   8.778   8.630   1.433  0.3772 -0.0937  0.5853
  116MOL0     C15534   8.700   8.562   1.536 -1.1627 -0.4289 -0.3926
  116MOL0     C15535   8.561   8.605   1.540 -0.4883 -0.4546 -0.1427
  116MOL0     C15536   8.479   8.525   1.651 -0.5230  0.2947  0.3083
  116MOL0     C15537   8.339   8.477   1.594  0.1363 -0.2365 -0.0852
  116MOL0     C15538   8.250   8.440   1.707  0.2395  0.6066 -0.7702
  116MOL0     C15539   8.116   8.386   1.649 -0.0953 -0.5233  0.4252
  116MOL0     C15540   8.034   8.331   1.768  0.1888 -0.0505 -0.3898
  116MOL0     C15541   7.902   8.274   1.720 -0.0940 -0.4991  0.3996
  116MOL0     N15542   7.819   8.222   1.832 -0.9124 -0.3095 -0.9032
  116MOL0     C15543   7.761   8.096   1.838  0.2816  0.6892  0.6818
  116MOL0     C15544   7.707   8.096   1.958  0.7572  0.1931  0.2118
  116MOL0     C15545   7.613   7.983   2.016 -0.6156  0.2516  0.5892
  116MOL0     C15546   7.480   7.988   1.944  0.8019  0.2800 -0.0633
  116MOL0     C15547   7.373   7.893   2.001  0.0758 -0.4924  0.1939
  116MOL0     C15548   7.328   7.943   2.138  0.9133 -1.0723  0.2065
  116MOL0     O15549   7.254   8.069   2.108 -0.3836  0.6518  0.1970
  116MOL0     C15550   7.116   8.068   2.079  0.4361  0.0143 -0.0754
  116MOL0     C15551   7.035   7.952   2.087  0.3982 -0.6334  0.0098
  116MOL0     C15552   6.894   7.953   2.057 -0.1284  0.0702 -0.6567
  116MOL0     C15553   6.811   7.825   2.087 -0.1482 -0.1015  0.4458
  116MOL0     C15554   6.836   8.071   2.011 -0.1140 -1.1019  0.1439
  116MOL0     C15555   6.685   8.098   2.002 -0.2859  0.1717  0.1057
  116MOL0     O15556   6.644   8.221   2.030 -0.2098 -0.4156 -0.2920
  116MOL0     C15557   6.509   8.236   2.029 -0.5037 -0.6743  0.5153
  116MOL0     C15558   6.444   8.279   2.146 -0.0878  0.2684 -0.2981
  116MOL0     C15559   6.310   8.305   2.146 -0.2095  0.6859 -0.9217
  116MOL0     C15560   6.230   8.290   2.035  0.5133 -0.2524 -0.3308
  116MOL0     O15561   6.099   8.306   2.056  0.9048 -0.7595 -0.2051
  116MOL0     C15562   6.009   8.298   1.941 -0.3396 -0.4564 -0.3181
  116MOL0     C15563   5.914   8.403   1.977  1.8357 -0.0959 -0.2868
  116MOL0     C15564   5.780   8.367   1.898  0.4120 -0.2869  0.0334
  116MOL0     C15565   5.695   8.499   1.874 -0.7080 -0.4209  0.4309
  116MOL0     C15566   5.575   8.478   1.784 -0.7519 -0.2542 -0.1466
  116MOL0     C15567   5.486   8.611   1.776 -0.3334  0.1089  1.3232
  116MOL0     C15568   5.379   8.613   1.878  0.4840 -0.2075  0.8526
  116MOL0     C15569   5.279   8.715   1.828 -0.3905 -0.0413  0.6487
  116MOL0    Cl15570   5.168   8.621   1.726  0.1750  0.1528 -0.2262
  116MOL0     C15571   6.295   8.257   1.915  0.2832 -0.1235 -0.0169
  116MOL0     C15572   6.432   8.229   1.907 -0.6884 -0.4128 -0.5806
  116MOL0     O15573   6.618   8.004   1.955  0.1763 -0.6810 -0.5190
  116MOL0     C15574   6.920   8.181   1.988  0.8022  0.9974  0.2481
  116MOL0     C15575   7.055   8.186   2.029 -0.4290  0.1889  1.0278
  116MOL0     N15576   7.733   8.210   2.028  0.5902 -0.5096  0.4284
  116MOL0     N15577   7.807   8.280   1.949 -0.6439  0.2022 -0.4211
  116MOL0     C15578   8.982   8.518   1.494 -0.6998  0.0212 -0.3083
  116MOL0     C15579   9.119   8.501   1.472 -0.2602  0.2479  0.0184
  116MOL0     C15580   9.531   8.497   1.389  0.0504  0.1709 -0.3411
  116MOL0     C15581   9.547   8.404   1.275 -0.3539  0.6941 -0.6306
  116MOL0     C15582   9.672   8.368   1.240  0.3192  0.0984  0.4954
  116MOL0     C15583   9.785   8.406   1.312  0.8323  0.1142 -0.0749
  116MOL0     O15584   9.910   8.362   1.279 -0.3960  0.0496  0.4212
  116MOL0     C15585   9.931   8.236   1.221 -0.0592 -0.6801 -0.4472
  116MOL0     C15586   9.874   8.127   1.312  0.0427 -0.0743  0.3342
  116MOL0     C15587   9.858   7.989   1.246  0.0588 -0.2511 -0.9253
  116MOL0     C15588   9.720   7.964   1.176 -0.8695  0.4309  0.0132
  116MOL0     C15589   9.709   8.037   1.053 -0.1739 -0.0531 -0.3279
  116MOL0     C15590   9.708   8.099   0.949  0.0225  0.6834 -0.1640
  116MOL0     C15591   9.773   8.494   1.419  0.2360  0.2545  0.4054
  116MOL0     C15592   9.645   8.546   1.453  0.3504  0.2807  0.4308
  116MOL0     H15593   9.144   8.660   1.171 -1.9423  0.0933 -1.2239
  116MOL0     H15594   8.926   8.744   1.245  0.4909 -1.1634 -2.5008
  116MOL0     H15595   8.707   8.453   1.524 -0.5898 -0.7480  2.2293
  116MOL0     H15596   8.760   8.590   1.623  0.2076 -2.5415 -0.5715
  116MOL0     H15597   8.558   8.715   1.541 -1.2556 -0.4654  0.9986
  116MOL0     H15598   8.527   8.572   1.442  1.5569 -2.2176 -0.3131
  116MOL0     H15599   8.534   8.433   1.670  0.9467  0.8367 -1.0330
  116MOL0     H15600   8.475   8.582   1.744  0.4451 -0.0392  0.5544
  116MOL0     H15601   8.294   8.558   1.535 -0.9363  0.2959  1.4128
  116MOL0     H15602   8.358   8.388   1.534 -0.9165  0.4451 -1.4998
  116MOL0     H15603   8.296   8.357   1.761 -0.3095  0.0325 -1.1743
  116MOL0     H15604   8.235   8.526   1.772 -1.5367  0.1086 -0.4598
  116MOL0     H15605   8.055   8.464   1.603 -0.4678  0.6372  2.7098
  116MOL0     H15606   8.135   8.304   1.579 -0.2146  1.3706 -1.9471
  116MOL0     H15607   8.087   8.255   1.827 -2.4111 -0.3623  1.7677
  116MOL0     H15608   8.010   8.419   1.829  1.6444  0.2454 -0.2110
  116MOL0     H15609   7.921   8.193   1.649  2.5043 -0.4685  0.9725
  116MOL0     H15610   7.847   8.352   1.667 -0.6103 -1.8243 -1.1031
  116MOL0     H15611   7.748   8.016   1.766 -2.8135  0.0009  1.8283
  116MOL0     H15612   7.653   7.882   2.004 -0.3207  0.7046 -3.7400
  116MOL0     H15613   7.602   8.001   2.124  0.9995  0.8855  0.6765
  116MOL0     H15614   7.503   7.964   1.840  0.4509 -1.0533  0.1430
  116MOL0     H15615   7.447   8.092   1.953 -0.8046 -0.0483 -1.6956
  116MOL0     H15616   7.417   7.793   2.012 -0.3613 -0.5158  1.9550
  116MOL0     H15617   7.286   7.885   1.934  0.3577  0.1651 -0.2671
  116MOL0     H15618   7.408   7.978   2.203 -0.0926  1.6957  0.1035
  116MOL0     H15619   7.258   7.877   2.189 -0.1634  0.5878  0.9850
  116MOL0     H15620   7.082   7.855   2.099  3.1504 -0.1029 -4.2161
  116MOL0     H15621   6.817   7.753   2.005 -1.1001 -1.1865  1.3036
  116MOL0     H15622   6.862   7.776   2.170  3.0658 -1.3661 -2.0731
  116MOL0     H15623   6.704   7.843   2.100 -0.6994 -0.0751 -3.0675
  116MOL0     H15624   6.492   8.296   2.242  2.6381  0.4177 -1.5887
  116MOL0     H15625   6.259   8.340   2.235  0.1551  1.3563 -0.9716
  116MOL0     H15626   6.054   8.329   1.847  1.7231 -0.9394  0.4657
  116MOL0     H15627   5.968   8.197   1.938 -3.7783  0.6662  1.8219
  116MOL0     H15628   5.885   8.404   2.083 -1.7993  0.1179 -1.1314
  116MOL0     H15629   5.952   8.500   1.944  3.1738 -0.4999  0.0261
  116MOL0     H15630   5.718   8.290   1.947  0.9479  0.0154  1.2286
  116MOL0     H15631   5.811   8.329   1.801  1.7476 -1.3176  0.8324
  116MOL0     H15632   5.662   8.544   1.968 -0.0722  3.7491 -1.1174
  116MOL0     H15633   5.768   8.569   1.831 -1.0213 -0.0759  0.4520
  116MOL0     H15634   5.528   8.389   1.825  1.9701 -1.2907  0.8897
  116MOL0     H15635   5.597   8.447   1.681  2.5786  2.1937 -0.3398
  116MOL0     H15636   5.551   8.699   1.773  0.2085 -0.3101 -1.4820
  116MOL0     H15637   5.448   8.608   1.674 -1.3078 -1.8362  1.6963
  116MOL0     H15638   5.419   8.654   1.971  0.4995 -0.4830  0.9657
  116MOL0     H15639   5.330   8.520   1.909 -0.1237  0.4373  1.8889
  116MOL0     H15640   5.327   8.798   1.775 -1.7564 -0.8955 -2.0904
  116MOL0     H15641   5.222   8.762   1.909 -2.5269  0.0390 -0.8380
  116MOL0     H15642   6.245   8.252   1.819 -0.9794 -1.3216  0.6714
  116MOL0     H15643   6.491   8.228   1.816 -0.7780  1.3532 -0.6944
  116MOL0     H15644   6.875   8.265   1.936  2.7457  1.0542 -1.4758
  116MOL0     H15645   7.113   8.275   2.005 -0.2960  0.1759  1.3039
  116MOL0     H15646   8.949   8.472   1.587  0.4407  0.0085  0.1106
  116MOL0     H15647   9.169   8.438   1.544 -1.5378 -0.4357  0.3273
  116MOL0     H15648   9.485   8.390   1.188 -1.8033 -0.2427  0.5026
  116MOL0     H15649   9.677   8.299   1.157  0.2502 -0.5379  1.0127
  116MOL0     H15650   9.883   8.245   1.123 -0.0175  2.8964 -0.2780
  116MOL0     H15651  10.034   8.228   1.185  0.1399 -0.5008  0.0682
  116MOL0     H15652   9.778   8.158   1.354 -0.4050  1.1149 -1.4772
  116MOL0     H15653   9.939   8.126   1.400 -0.1971 -1.0556  0.5199
  116MOL0     H15654   9.851   7.919   1.330 -1.7625  0.1217 -0.7275
  116MOL0     H15655   9.951   7.970   1.191 -0.6058  0.0487 -2.1933
  116MOL0     H15656   9.638   7.990   1.245 -0.3822 -1.2574  1.2844
  116MOL0     H15657   9.703   7.859   1.152 -2.9154  0.8482 -0.5865
  116MOL0     H15658   9.710   8.141   0.850 -2.0785  1.2221 -0.0344
  116MOL0     H15659   9.864   8.516   1.474  0.0180  0.7784  0.5626
  116MOL0     H15660   9.658   8.622   1.530  1.0248  1.5651 -0.8882
  117MOL0     O15661   8.960   7.460   4.152 -0.2647 -0.5524  0.0801
  117MOL0     C15662   9.000   7.442   4.037 -0.2111 -0.0161  0.1963
  117MOL0     O15663   8.927   7.369   3.943 -0.1927  0.2599  0.1114
  117MOL0     C15664   8.813   7.304   3.989  0.5635  0.0468 -0.3927
  117MOL0     C15665   8.777   7.174   3.951 -1.4049 -0.0716  0.8834
  117MOL0     C15666   8.667   7.102   3.996  0.2370  0.0235  0.9705
  117MOL0     C15667   8.573   7.166   4.084  0.2559 -0.9038  0.6886
  117MOL0     O15668   8.469   7.100   4.148  0.1832 -0.6061  0.3199
  117MOL0     C15669   8.336   7.153   4.136  1.0984  1.0062  0.4790
  117MOL0     C15670   8.230   7.065   4.199  0.6970  0.4568  0.0367
  117MOL0     C15671   8.108   7.142   4.243 -0.3113 -0.7625 -0.4838
  117MOL0     C15672   7.990   7.042   4.257 -0.3702  0.6278  0.6959
  117MOL0     C15673   7.864   7.116   4.278  0.8881  0.0594 -0.3564
  117MOL0     C15674   7.846   7.167   4.421  0.5235  0.1055  0.4025
  117MOL0     C15675   7.701   7.216   4.439 -0.1345 -0.0383 -0.1059
  117MOL0     C15676   7.673   7.257   4.592 -0.5106 -0.3722  0.9566
  117MOL0     N15677   7.531   7.295   4.615  0.5492  0.1672  0.0927
  117MOL0     C15678   7.419   7.257   4.541 -0.3727 -0.5394 -0.8710
  117MOL0     C15679   7.306   7.315   4.600 -0.8817 -0.2504  0.6880
  117MOL0     C15680   7.168   7.311   4.545 -0.0106 -0.9066 -0.4508
  117MOL0     C15681   7.134   7.196   4.451 -0.1440  0.3010 -0.3952
  117MOL0     C15682   6.994   7.209   4.382 -0.5404 -0.5268  1.3828
  117MOL0     C15683   6.876   7.175   4.475 -0.2074 -0.6236 -0.1621
  117MOL0     O15684   6.878   7.036   4.491  0.2496  0.4669  0.7431
  117MOL0     C15685   6.757   6.972   4.485  0.2803  0.8334  0.2962
  117MOL0     C15686   6.644   6.994   4.570  0.7794 -0.0692  0.0363
  117MOL0     C15687   6.526   6.922   4.549 -0.0933 -0.8842  1.0210
  117MOL0     C15688   6.414   6.955   4.632  0.7587 -0.0438 -0.9504
  117MOL0     C15689   6.512   6.832   4.439  1.0220 -0.5372 -0.0160
  117MOL0     C15690   6.390   6.747   4.410 -0.9078 -0.1367 -0.1026
  117MOL0     O15691   6.327   6.678   4.510  0.2761 -0.2793 -0.4721
  117MOL0     C15692   6.203   6.617   4.491 -0.6388 -0.6115  0.4835
  117MOL0     C15693   6.194   6.483   4.451 -0.2421 -0.7399  0.4132
  117MOL0     C15694   6.068   6.418   4.435 -0.1509 -0.7213  0.4303
  117MOL0     C15695   5.948   6.489   4.442 -0.9981 -0.2275  0.4656
  117MOL0     O15696   5.821   6.444   4.421 -0.1729 -0.2479  0.6180
  117MOL0     C15697   5.812   6.346   4.322  0.6095 -0.0396 -0.0419
  117MOL0     C15698   5.692   6.265   4.352  0.1461 -0.2958  0.6050
  117MOL0     C15699   5.565   6.349   4.342  0.3776  0.6775  0.5401
  117MOL0     C15700   5.440   6.266   4.378  0.0728  0.7165 -0.1179
  117MOL0     C15701   5.307   6.330   4.353 -0.2079 -0.9228  0.9499
  117MOL0     C15702   5.188   6.250   4.422  0.3765  0.9516 -0.0969
  117MOL0     C15703   5.045   6.292   4.370 -0.6807 -0.3404 -0.1634
  117MOL0     C15704   5.008   6.220   4.238 -0.2807 -0.0142  0.2495
  117MOL0    Cl15705   4.865   6.295   4.169 -0.0910  0.4285  0.1507
  117MOL0     C15706   5.963   6.613   4.490  0.1908 -1.0067  0.3331
  117MOL0     C15707   6.082   6.683   4.511  0.0388  0.1315 -0.5017
  117MOL0     O15708   6.356   6.744   4.292  0.2963  0.6053  0.1952
  117MOL0     C15709   6.628   6.799   4.361 -0.5421  0.2002  0.1865
  117MOL0     C15710   6.744   6.877   4.379 -0.0509  0.2856  0.5971
  117MOL0     N15711   7.357   7.395   4.703 -1.1643 -0.0002  0.0198
  117MOL0     N15712   7.484   7.380   4.704  0.5765  0.5919 -0.4438
  117MOL0     C15713   8.590   7.304   4.099  0.6672  0.1975 -0.0707
  117MOL0     C15714   8.712   7.376   4.067  0.4144 -0.5854  0.5419
  117MOL0     C15715   9.127   7.500   3.997 -0.3703  0.1231  0.1498
  117MOL0     C15716   9.161   7.509   3.856  0.3562 -0.0259 -0.0855
  117MOL0     C15717   9.289   7.554   3.818  0.3832 -0.2234  0.4988
  117MOL0     C15718   9.380   7.616   3.912  0.3980 -0.4150 -0.2132
  117MOL0     O15719   9.497   7.662   3.859  0.0585 -0.2677  0.7583
  117MOL0     C15720   9.608   7.638   3.942 -0.2884 -0.8001  0.2491
  117MOL0     C15721   9.734   7.618   3.853 -0.4602 -0.2185  0.2925
  117MOL0     C15722   9.784   7.754   3.808  0.0041  0.7738 -0.2365
  117MOL0     C15723   9.900   7.737   3.711  0.5237 -0.1129  0.0817
  117MOL0     C15724  10.025   7.684   3.774 -0.5264 -0.0539 -1.0060
  117MOL0     C15725  10.125   7.631   3.826 -0.9179 -0.2074 -0.1435
  117MOL0     C15726   9.347   7.608   4.046 -0.0051 -0.5301 -0.0214
  117MOL0     C15727   9.224   7.551   4.088  0.3936  0.9584  0.2896
  117MOL0     H15728   8.846   7.116   3.890  0.2404 -0.0960  2.6824
  117MOL0     H15729   8.661   6.998   3.966 -1.5645  0.1274  0.8738
  117MOL0     H15730   8.331   7.249   4.188 -1.4313  1.2889 -0.1375
  117MOL0     H15731   8.306   7.180   4.034  0.4460  1.3764  0.7615
  117MOL0     H15732   8.208   6.986   4.126  1.3732  1.1012 -0.8877
  117MOL0     H15733   8.279   7.018   4.285 -1.3037 -2.4178 -0.2501
  117MOL0     H15734   8.135   7.188   4.339  3.9216 -1.0812 -1.2961
  117MOL0     H15735   8.082   7.227   4.179 -1.5346  0.1306  1.1372
  117MOL0     H15736   7.982   6.984   4.165  0.3612  1.2472  0.2291
  117MOL0     H15737   8.011   6.967   4.333 -0.2821  1.1144  1.1586
  117MOL0     H15738   7.845   7.198   4.209  0.5125 -1.1678 -1.7622
  117MOL0     H15739   7.783   7.044   4.263 -0.6215  1.7907 -0.8351
  117MOL0     H15740   7.860   7.081   4.487  1.1993 -0.1920 -0.1156
  117MOL0     H15741   7.921   7.241   4.452 -0.0512  1.3973 -1.1450
  117MOL0     H15742   7.674   7.306   4.384 -1.9641  0.3141  1.2692
  117MOL0     H15743   7.624   7.142   4.416 -1.1391  1.2342 -0.9455
  117MOL0     H15744   7.744   7.336   4.619  1.2958 -1.8888  0.8331
  117MOL0     H15745   7.701   7.177   4.661  0.0006  1.2531  2.7124
  117MOL0     H15746   7.414   7.187   4.458 -0.2762 -0.9758 -0.5103
  117MOL0     H15747   7.094   7.321   4.626  0.0038 -0.1164 -0.5265
  117MOL0     H15748   7.155   7.404   4.489 -0.4418 -0.1666  0.8276
  117MOL0     H15749   7.135   7.096   4.497 -1.2888 -0.2870 -1.5684
  117MOL0     H15750   7.215   7.190   4.378  3.3836  3.8728  2.7501
  117MOL0     H15751   6.983   7.145   4.294  0.0446  1.2300 -0.0354
  117MOL0     H15752   6.985   7.312   4.345 -0.8648 -0.3101  2.0527
  117MOL0     H15753   6.776   7.199   4.438 -1.2124 -3.0435  0.7236
  117MOL0     H15754   6.893   7.222   4.573  0.0054 -0.4547 -0.2804
  117MOL0     H15755   6.642   7.069   4.648 -1.6344  0.3066 -0.2868
  117MOL0     H15756   6.401   6.860   4.685 -0.2748  1.4712  1.7028
  117MOL0     H15757   6.433   7.027   4.713  0.9544 -1.2778  0.1327
  117MOL0     H15758   6.327   6.975   4.569 -0.8517 -0.5139  1.0120
  117MOL0     H15759   6.278   6.425   4.413 -2.0240 -1.0455 -3.6218
  117MOL0     H15760   6.075   6.311   4.419  1.2164 -0.6254  0.3317
  117MOL0     H15761   5.794   6.390   4.224  0.0435 -1.3833 -0.5648
  117MOL0     H15762   5.897   6.278   4.322  0.5886 -0.0646 -0.4620
  117MOL0     H15763   5.688   6.189   4.273 -1.1626  0.1577  0.2097
  117MOL0     H15764   5.704   6.228   4.454 -1.6866 -2.7644  0.0345
  117MOL0     H15765   5.555   6.385   4.240 -1.8888  1.4356  0.9751
  117MOL0     H15766   5.573   6.429   4.417  0.4118  1.9752 -0.8000
  117MOL0     H15767   5.442   6.165   4.337 -1.8634  0.1592  1.0277
  117MOL0     H15768   5.443   6.258   4.487 -1.0540  0.0061 -0.1224
  117MOL0     H15769   5.279   6.336   4.247 -0.2995 -1.0488  0.9661
  117MOL0     H15770   5.301   6.435   4.385 -2.2779 -0.6927 -0.0284
  117MOL0     H15771   5.205   6.144   4.404 -2.0432  0.4725  0.1328
  117MOL0     H15772   5.191   6.269   4.530 -1.0816  3.4118 -0.4031
  117MOL0     H15773   5.032   6.401   4.365 -1.5645 -0.2967  2.0940
  117MOL0     H15774   4.966   6.270   4.442 -0.5359  2.8238  1.1090
  117MOL0     H15775   5.007   6.112   4.250 -0.0603  0.1448  1.8446
  117MOL0     H15776   5.093   6.236   4.171  0.4474  0.0514  1.1730
  117MOL0     H15777   5.871   6.667   4.512  2.1188  2.0852  1.4298
  117MOL0     H15778   6.078   6.781   4.556  3.6917 -0.4698  1.5235
  117MOL0     H15779   6.640   6.724   4.284  4.1078  0.4893  0.3900
  117MOL0     H15780   6.827   6.854   4.314  0.5676  2.7933  0.4149
  117MOL0     H15781   8.516   7.373   4.138  1.6901  1.7515 -0.8111
  117MOL0     H15782   8.716   7.481   4.096 -0.3745 -0.7575  1.3461
  117MOL0     H15783   9.096   7.473   3.776  0.6276 -3.0666  0.9169
  117MOL0     H15784   9.308   7.540   3.712 -0.3176  0.4044  0.2851
  117MOL0     H15785   9.621   7.716   4.018 -3.0079  1.9293 -1.8582
  117MOL0     H15786   9.596   7.550   4.006 -1.5385 -0.5505  0.3758
  117MOL0     H15787   9.704   7.555   3.769  1.9318 -0.2202 -0.6205
  117MOL0     H15788   9.816   7.575   3.912  0.9503  1.5870 -0.2588
  117MOL0     H15789   9.788   7.819   3.896  0.7055  0.9855 -0.4170
  117MOL0     H15790   9.697   7.800   3.760 -1.9044 -0.3218  2.0444
  117MOL0     H15791   9.928   7.838   3.680 -2.2260  0.6436 -0.1882
  117MOL0     H15792   9.877   7.680   3.621  4.0230  2.6430 -2.8565
  117MOL0     H15793  10.219   7.580   3.830  0.1486  1.3726 -2.5169
  117MOL0     H15794   9.406   7.654   4.123 -0.0704 -0.2322 -0.1494
  117MOL0     H15795   9.198   7.544   4.194 -1.1660 -0.0818 -0.1242
  118MOL0     O15796   8.827  10.133   6.091 -0.0289  0.4801  0.3891
  118MOL0     C15797   8.865  10.105   6.204 -0.9466  0.1262 -0.2666
  118MOL0     O15798   8.789  10.086   6.315  0.0639  0.5982  0.2936
  118MOL0     C15799   8.659  10.061   6.294  0.4817 -0.8612  0.9540
  118MOL0     C15800   8.614   9.962   6.208 -0.8672 -0.4679 -0.4339
  118MOL0     C15801   8.484   9.936   6.184  0.0765  0.6493  0.5316
  118MOL0     C15802   8.386  10.008   6.257 -0.6102 -0.5750  0.3765
  118MOL0     O15803   8.256   9.993   6.217  0.0188  0.0085  0.5115
  118MOL0     C15804   8.167   9.940   6.308 -0.0317  0.4754 -0.2322
  118MOL0     C15805   8.040   9.910   6.227 -0.7373 -0.0069  0.2335
  118MOL0     C15806   7.946   9.835   6.320 -0.3233  0.0932  0.4268
  118MOL0     C15807   7.817   9.809   6.239  0.4134  0.3850 -0.5871
  118MOL0     C15808   7.732   9.712   6.319 -0.2127  0.0552  0.7316
  118MOL0     C15809   7.589   9.713   6.258 -0.8319  0.4480 -0.1892
  118MOL0     C15810   7.504   9.620   6.334 -0.1174  0.0956 -0.6290
  118MOL0     C15811   7.352   9.653   6.306  0.1482  0.7088  0.3697
  118MOL0     N15812   7.258   9.539   6.314  0.0201  0.2728 -0.3076
  118MOL0     C15813   7.165   9.489   6.226  0.0174  0.0605 -0.4167
  118MOL0     C15814   7.097   9.385   6.289 -0.8988  0.0358  0.8974
  118MOL0     C15815   6.985   9.311   6.227  0.1575  0.2331  0.1730
  118MOL0     C15816   6.863   9.390   6.232  0.5272 -0.0002 -0.2469
  118MOL0     C15817   6.797   9.408   6.376  0.2522  0.4235  0.4818
  118MOL0     C15818   6.658   9.463   6.363 -0.3327 -0.0035 -0.1059
  118MOL0     O15819   6.576   9.367   6.290  0.6469 -0.0368  0.2097
  118MOL0     C15820   6.445   9.400   6.263 -0.4062  0.2152 -0.1653
  118MOL0     C15821   6.379   9.528   6.290  0.2215  1.0608  0.2856
  118MOL0     C15822   6.249   9.555   6.265 -0.5862 -0.3173  0.2464
  118MOL0     C15823   6.202   9.693   6.307  0.3112 -0.2008 -0.3548
  118MOL0     C15824   6.167   9.450   6.210  0.5475  0.9932 -0.6576
  118MOL0     C15825   6.019   9.463   6.173  0.5380  1.1072  0.7746
  118MOL0     O15826   5.952   9.574   6.215 -0.9667 -0.5154 -0.1922
  118MOL0     C15827   5.820   9.604   6.186  0.7399 -0.6504  0.0925
  118MOL0     C15828   5.734   9.539   6.083  0.5306 -0.1014  0.4990
  118MOL0     C15829   5.601   9.572   6.080  0.1682 -0.6275  0.1536
  118MOL0     C15830   5.552   9.688   6.144  0.3681 -0.1803  0.2916
  118MOL0     O15831   5.421   9.710   6.115 -0.1032  0.0677  0.5946
  118MOL0     C15832   5.332   9.779   6.209  0.2028 -0.0772  0.2339
  118MOL0     C15833   5.193   9.739   6.147 -0.5742  0.1760 -0.3435
  118MOL0     C15834   5.082   9.770   6.244 -0.6084 -0.3503  0.3267
  118MOL0     C15835   4.958   9.769   6.166  0.1933 -0.3114 -1.1573
  118MOL0     C15836   4.820   9.798   6.245  0.1638  0.3518  0.1043
  118MOL0     C15837   4.714   9.715   6.178  0.5386 -0.2783 -0.0313
  118MOL0     C15838   4.577   9.714   6.247 -1.0693  0.7548 -0.6088
  118MOL0     C15839   4.509   9.859   6.253  0.1648  0.0836  0.2889
  118MOL0    Cl15840   4.373   9.866   6.122 -0.3487 -0.2777 -0.2067
  118MOL0     C15841   5.630   9.749   6.246 -0.1164  0.2599  0.2712
  118MOL0     C15842   5.764   9.712   6.253 -0.3857  0.5967  0.0651
  118MOL0     O15843   5.961   9.361   6.130  0.1007 -0.3760  0.7497
  118MOL0     C15844   6.232   9.325   6.192  0.6198  0.3646  0.1845
  118MOL0     C15845   6.364   9.301   6.211 -0.3706  0.6169 -0.0551
  118MOL0     N15846   7.166   9.352   6.401  0.0104 -0.0318 -0.0249
  118MOL0     N15847   7.247   9.449   6.414  0.6469  1.4332 -0.4983
  118MOL0     C15848   8.424  10.109   6.346 -0.0618  0.3991 -0.1026
  118MOL0     C15849   8.565  10.129   6.361 -0.4386 -0.2325  0.2833
  118MOL0     C15850   9.012  10.121   6.222  0.8952 -0.3426 -0.2457
  118MOL0     C15851   9.108  10.118   6.126  1.0159  0.0207 -0.0817
  118MOL0     C15852   9.243  10.141   6.155 -0.0296  0.1556  0.0892
  118MOL0     C15853   9.292  10.158   6.289 -0.8771 -0.4507 -0.5084
  118MOL0     O15854   9.419  10.154   6.329 -0.3892 -0.8021  0.0382
  118MOL0     C15855   9.529  10.144   6.228 -0.0888  0.4378 -0.1821
  118MOL0     C15856   9.659  10.174   6.301  0.2976 -0.1601  1.1397
  118MOL0     C15857   9.783  10.123   6.225 -0.0717  0.5799  0.6033
  118MOL0     C15858   9.917  10.145   6.306 -0.0830  0.4809  0.3275
  118MOL0     C15859   9.952  10.284   6.312 -0.8575  0.3117  0.4560
  118MOL0     C15860   9.996  10.396   6.325  0.0397 -0.6700 -0.3668
  118MOL0     C15861   9.196  10.162   6.389 -0.1281 -0.8984  0.0211
  118MOL0     C15862   9.060  10.138   6.359 -0.1933  0.0726 -0.3590
  118MOL0     H15863   8.699   9.920   6.154  0.7556  0.5294  1.2308
  118MOL0     H15864   8.452   9.852   6.123  1.7526  0.1126  0.3220
  118MOL0     H15865   8.207   9.852   6.360 -2.1119  0.4533  1.4681
  118MOL0     H15866   8.147  10.018   6.382  1.0527  1.5482 -1.0317
  118MOL0     H15867   7.991  10.002   6.192  0.3234 -0.0608 -1.4789
  118MOL0     H15868   8.064   9.858   6.134 -0.2053 -2.7363  1.8085
  118MOL0     H15869   7.987   9.744   6.363 -0.2654 -0.5725 -0.9696
  118MOL0     H15870   7.929   9.896   6.409  0.4501 -0.2106  0.7943
  118MOL0     H15871   7.770   9.908   6.234 -2.4206 -0.7414  1.2692
  118MOL0     H15872   7.839   9.767   6.140  5.3737 -3.6833  1.7694
  118MOL0     H15873   7.778   9.613   6.332  0.6452  0.5586  1.7053
  118MOL0     H15874   7.717   9.749   6.421  1.8175  0.5608  0.8884
  118MOL0     H15875   7.549   9.814   6.240  0.5572  0.6108 -2.8429
  118MOL0     H15876   7.593   9.683   6.153  0.5350 -0.6163  0.1406
  118MOL0     H15877   7.517   9.513   6.315 -0.4087 -0.5349  2.2547
  118MOL0     H15878   7.524   9.631   6.441 -1.4287 -1.1239 -0.2159
  118MOL0     H15879   7.346   9.700   6.208 -0.1736  0.0218  0.0465
  118MOL0     H15880   7.309   9.725   6.376  1.6064  3.3803 -1.3304
  118MOL0     H15881   7.152   9.526   6.125 -3.3903  2.2294  0.6617
  118MOL0     H15882   7.009   9.308   6.120 -1.5150  2.6581 -0.3556
  118MOL0     H15883   6.967   9.216   6.278 -1.9916  0.2647 -0.4617
  118MOL0     H15884   6.783   9.354   6.166  0.4120  0.8604 -0.5807
  118MOL0     H15885   6.882   9.492   6.199  0.2358 -0.1588 -0.9290
  118MOL0     H15886   6.853   9.481   6.435  2.0208 -1.2019  0.9219
  118MOL0     H15887   6.794   9.317   6.436  0.3855 -1.7530 -2.5955
  118MOL0     H15888   6.670   9.552   6.301 -0.6660  0.0078 -0.1568
  118MOL0     H15889   6.616   9.484   6.462 -2.4569 -1.6162 -0.5974
  118MOL0     H15890   6.438   9.602   6.344 -2.1760  3.2740  0.0843
  118MOL0     H15891   6.170   9.738   6.212 -0.4110 -0.9691 -0.4797
  118MOL0     H15892   6.116   9.697   6.374 -2.2365 -3.1328 -3.1313
  118MOL0     H15893   6.282   9.759   6.343  0.4592 -0.1636 -0.7402
  118MOL0     H15894   5.763   9.458   6.017 -1.0303 -1.0750  0.9551
  118MOL0     H15895   5.545   9.518   6.005  2.4385 -0.1045 -2.0704
  118MOL0     H15896   5.339   9.738   6.310  1.4804 -0.8046 -0.1168
  118MOL0     H15897   5.341   9.888   6.211 -1.3073  0.1073 -1.3205
  118MOL0     H15898   5.177   9.784   6.049 -3.9076 -2.7387 -1.3338
  118MOL0     H15899   5.201   9.630   6.135 -1.5401 -0.9705  5.7081
  118MOL0     H15900   5.101   9.869   6.288  2.4542 -0.4242 -0.5730
  118MOL0     H15901   5.084   9.694   6.322  2.9347 -0.3527  0.4203
  118MOL0     H15902   4.957   9.847   6.089 -1.1837  1.5907  0.6553
  118MOL0     H15903   4.950   9.669   6.122  0.5114 -1.5050  1.3330
  118MOL0     H15904   4.784   9.901   6.237 -3.1717 -0.5540  1.8281
  118MOL0     H15905   4.837   9.775   6.350 -1.0599 -0.5898  0.1191
  118MOL0     H15906   4.688   9.741   6.075 -3.4984 -1.8672  0.3811
  118MOL0     H15907   4.750   9.612   6.166 -2.4124 -1.2108 -1.9965
  118MOL0     H15908   4.593   9.673   6.347 -0.8252 -0.4610 -1.1287
  118MOL0     H15909   4.503   9.647   6.202 -1.6470  1.3706 -0.5859
  118MOL0     H15910   4.572   9.944   6.229 -0.5436  0.4700 -0.2656
  118MOL0     H15911   4.462   9.856   6.351 -3.2314 -2.4756 -1.1934
  118MOL0     H15912   5.593   9.830   6.309 -0.3365  0.0945  0.3555
  118MOL0     H15913   5.818   9.774   6.325  1.9600  1.0002 -1.9131
  118MOL0     H15914   6.183   9.235   6.156  0.1036 -1.4373  4.7694
  118MOL0     H15915   6.394   9.198   6.198  1.5879  1.2969 -1.4338
  118MOL0     H15916   8.356  10.161   6.413 -0.7860 -0.6560  0.0007
  118MOL0     H15917   8.599  10.202   6.434  3.6464 -0.3639 -1.2338
  118MOL0     H15918   9.070  10.098   6.026  0.5990  2.1100 -0.3830
  118MOL0     H15919   9.307  10.130   6.069  0.7726 -1.2028  0.8105
  118MOL0     H15920   9.517  10.043   6.189  1.2676 -0.2520  1.1228
  118MOL0     H15921   9.508  10.222   6.154 -1.7486  2.4884  2.2588
  118MOL0     H15922   9.653  10.144   6.406 -3.8051 -0.3668  1.0038
  118MOL0     H15923   9.662  10.283   6.294 -1.5029 -0.1701 -0.8525
  118MOL0     H15924   9.782  10.160   6.122  0.0628 -0.9393  0.0319
  118MOL0     H15925   9.758  10.018   6.206 -1.0020  1.1117 -1.4336
  118MOL0     H15926  10.005  10.100   6.259  0.8083  0.0667  2.2880
  118MOL0     H15927   9.901  10.093   6.401  2.2792 -1.4061 -0.2229
  118MOL0     H15928  10.058  10.480   6.349 -1.4840  0.3410  0.1912
  118MOL0     H15929   9.228  10.187   6.490  1.1847 -0.6388 -0.4445
  118MOL0     H15930   8.998  10.152   6.447  1.6405  1.2891  0.7991
  119MOL0     O15931   8.802   5.117   1.055  0.0894  0.0694 -0.1973
  119MOL0     C15932   8.850   5.201   0.974 -0.1566  0.0741  0.5022
  119MOL0     O15933   8.777   5.279   0.888 -0.4982 -0.7779  0.4725
  119MOL0     C15934   8.649   5.251   0.848 -0.1211 -0.9863 -0.3072
  119MOL0     C15935   8.570   5.359   0.790 -0.6494  0.2000  0.1422
  119MOL0     C15936   8.445   5.322   0.728  1.1483 -0.3709 -0.0180
  119MOL0     C15937   8.394   5.195   0.717 -0.4640 -0.8797  0.1398
  119MOL0     O15938   8.278   5.156   0.654  0.5966 -0.4581  0.2317
  119MOL0     C15939   8.175   5.258   0.623 -0.1580  0.6562  0.5813
  119MOL0     C15940   8.057   5.173   0.559  0.0414  0.1667 -0.8433
  119MOL0     C15941   7.931   5.260   0.531  0.4074 -0.3650 -0.0900
  119MOL0     C15942   7.811   5.161   0.546  0.4667  0.4936  0.1513
  119MOL0     C15943   7.682   5.225   0.522 -0.0337  0.4139  0.0697
  119MOL0     C15944   7.559   5.149   0.560  0.7147  0.3669  0.4837
  119MOL0     C15945   7.437   5.225   0.508 -0.0863 -0.2793 -0.3601
  119MOL0     C15946   7.375   5.336   0.597 -0.2671 -0.0587 -0.1766
  119MOL0     N15947   7.329   5.277   0.724 -0.3606 -0.3435 -0.6132
  119MOL0     C15948   7.327   5.339   0.848  0.2460  0.0775 -0.1207
  119MOL0     C15949   7.271   5.251   0.938 -0.3603 -0.1138 -0.4559
  119MOL0     C15950   7.248   5.269   1.089  0.6150 -0.5274  0.0739
  119MOL0     C15951   7.145   5.372   1.113 -0.1795  0.5198 -0.1702
  119MOL0     C15952   7.005   5.345   1.050  0.5257 -0.2087 -0.3641
  119MOL0     C15953   6.941   5.210   1.103  0.0315 -0.5218 -0.2012
  119MOL0     O15954   6.824   5.167   1.030 -0.2247  0.1260  0.0034
  119MOL0     C15955   6.704   5.239   1.035 -0.6538 -0.0952  0.0415
  119MOL0     C15956   6.679   5.345   1.116 -0.4238 -0.1543  0.6947
  119MOL0     C15957   6.549   5.396   1.127 -0.2403 -0.5684  0.4751
  119MOL0     C15958   6.533   5.529   1.206 -0.0878  0.5253  0.1538
  119MOL0     C15959   6.436   5.324   1.078 -0.3459  0.8184  0.6808
  119MOL0     C15960   6.294   5.350   1.095  1.0206  0.6677 -0.1106
  119MOL0     O15961   6.202   5.267   1.028  0.5643  0.7213  0.1898
  119MOL0     C15962   6.070   5.303   1.030 -0.1821  0.3846  0.4054
  119MOL0     C15963   6.016   5.376   0.921 -0.8211 -0.7873 -0.5410
  119MOL0     C15964   5.876   5.404   0.919  0.0339  0.8035 -0.1726
  119MOL0     C15965   5.793   5.368   1.022 -0.1576 -0.6141 -0.3457
  119MOL0     O15966   5.665   5.410   1.006  0.3339 -0.4891  0.1005
  119MOL0     C15967   5.569   5.404   1.113 -0.1448  1.0184  0.2379
  119MOL0     C15968   5.453   5.496   1.089  0.3820 -0.2462  0.2137
  119MOL0     C15969   5.321   5.444   1.152 -0.5031  0.2663 -0.4566
  119MOL0     C15970   5.204   5.540   1.134  0.0525  0.3803  0.2776
  119MOL0     C15971   5.064   5.475   1.163  0.1066  0.1645 -0.3897
  119MOL0     C15972   4.945   5.560   1.139  1.4826  0.3417 -0.6453
  119MOL0     C15973   4.808   5.490   1.172 -0.5037  0.3292  0.4773
  119MOL0     C15974   4.687   5.571   1.119  0.5270  0.3795  0.0767
  119MOL0    Cl15975   4.657   5.695   1.235  0.0609 -0.5567  0.2228
  119MOL0     C15976   5.852   5.294   1.136 -0.0892 -0.4774  0.0201
  119MOL0     C15977   5.985   5.253   1.129  0.3992 -0.3288  0.6447
  119MOL0     O15978   6.264   5.446   1.161  0.0946  0.2598 -0.4543
  119MOL0     C15979   6.467   5.209   0.998 -0.1513 -0.1435 -0.5626
  119MOL0     C15980   6.599   5.176   0.975  0.9600 -0.5290  0.6166
  119MOL0     N15981   7.238   5.137   0.878 -1.0431 -0.2288  0.8029
  119MOL0     N15982   7.277   5.153   0.749 -0.6061 -1.1209 -0.3095
  119MOL0     C15983   8.471   5.095   0.775  0.3335 -0.7934 -0.2986
  119MOL0     C15984   8.595   5.120   0.839  0.5677 -0.1461 -0.0386
  119MOL0     C15985   8.996   5.227   0.984 -0.1087  0.0076 -0.9950
  119MOL0     C15986   9.076   5.169   1.093 -0.7623 -0.1888  0.3614
  119MOL0     C15987   9.214   5.185   1.090 -0.1428  0.0606 -0.2874
  119MOL0     C15988   9.279   5.270   0.998  0.2119  0.3575 -0.4024
  119MOL0     O15989   9.419   5.299   0.981 -0.1702 -0.1258  0.6666
  119MOL0     C15990   9.502   5.200   1.040  0.3595 -0.5056  0.0223
  119MOL0     C15991   9.648   5.221   1.009  0.5159 -0.2179  0.3349
  119MOL0     C15992   9.744   5.105   1.058 -0.4000 -0.5593  0.0471
  119MOL0     C15993   9.721   5.050   1.192 -0.2944  0.7537  0.1590
  119MOL0     C15994   9.825   4.977   1.269  0.0693 -0.5263 -0.0652
  119MOL0     C15995   9.918   4.926   1.327  0.0019 -0.5891  0.4056
  119MOL0     C15996   9.199   5.317   0.895 -0.0198  0.2872  0.0202
  119MOL0     C15997   9.067   5.297   0.889 -0.6300  0.3090  0.5325
  119MOL0     H15998   8.597   5.464   0.796 -3.1101  0.9350 -0.4919
  119MOL0     H15999   8.394   5.404   0.679  1.3257 -0.3837 -0.2240
  119MOL0     H16000   8.141   5.312   0.712  0.2727  0.0222  1.1333
  119MOL0     H16001   8.210   5.326   0.544  0.8459 -1.8339 -1.2306
  119MOL0     H16002   8.100   5.132   0.468  2.1644  1.3914 -0.4587
  119MOL0     H16003   8.020   5.096   0.627 -1.1267  1.4256  0.0017
  119MOL0     H16004   7.928   5.337   0.609 -1.1643  0.5667 -1.0341
  119MOL0     H16005   7.939   5.298   0.429 -3.4352 -0.7806 -0.7047
  119MOL0     H16006   7.829   5.073   0.483  0.2375 -0.4830  1.3970
  119MOL0     H16007   7.807   5.131   0.651 -1.6049  1.9806  0.5424
  119MOL0     H16008   7.672   5.317   0.581  1.1255  1.1545 -0.8303
  119MOL0     H16009   7.688   5.259   0.418  2.8459  1.7063  0.5454
  119MOL0     H16010   7.557   5.057   0.501 -0.9982 -0.6804  2.0432
  119MOL0     H16011   7.560   5.113   0.663  3.6243 -2.3366 -0.3177
  119MOL0     H16012   7.462   5.295   0.428  1.3568  3.8321  3.2951
  119MOL0     H16013   7.357   5.158   0.476  0.6623 -0.4276 -2.0336
  119MOL0     H16014   7.291   5.384   0.545 -2.3604 -0.5034  2.5155
  119MOL0     H16015   7.450   5.414   0.614  0.1292 -0.3850 -0.4343
  119MOL0     H16016   7.354   5.441   0.872 -4.1506  1.5980 -0.8656
  119MOL0     H16017   7.217   5.175   1.137 -1.4448  0.0671 -0.0304
  119MOL0     H16018   7.339   5.301   1.140  0.5864  2.0738 -1.3377
  119MOL0     H16019   7.181   5.466   1.070  3.1574  0.3859  2.0025
  119MOL0     H16020   7.144   5.389   1.221  0.9151  1.3032 -0.2664
  119MOL0     H16021   7.027   5.340   0.943  2.4890 -1.7510  0.0501
  119MOL0     H16022   6.947   5.430   1.086  0.1266  0.5296 -2.6475
  119MOL0     H16023   6.908   5.223   1.206 -1.9640 -0.3019 -0.8199
  119MOL0     H16024   7.015   5.131   1.085  0.3256  0.1974 -2.4943
  119MOL0     H16025   6.759   5.381   1.180 -1.6829 -0.4056  2.4584
  119MOL0     H16026   6.511   5.612   1.138  2.2135  2.4859  1.6305
  119MOL0     H16027   6.469   5.504   1.291  2.3021 -0.8688  1.6380
  119MOL0     H16028   6.626   5.557   1.257 -0.4047  1.9550 -0.0032
  119MOL0     H16029   6.090   5.412   0.850  1.1827 -3.7009 -0.1072
  119MOL0     H16030   5.848   5.453   0.825 -0.1912  2.3109  0.6480
  119MOL0     H16031   5.533   5.301   1.116 -1.7316  1.5242 -0.4389
  119MOL0     H16032   5.606   5.425   1.215 -1.0894 -0.4458  0.9043
  119MOL0     H16033   5.462   5.594   1.136  2.7914 -0.6635  0.7437
  119MOL0     H16034   5.439   5.501   0.981 -0.2941 -2.2240  0.1735
  119MOL0     H16035   5.343   5.424   1.258 -0.5582 -2.3190 -0.8653
  119MOL0     H16036   5.294   5.351   1.103 -0.2091 -0.4287  0.6577
  119MOL0     H16037   5.226   5.629   1.194  2.4134 -1.2320  1.9405
  119MOL0     H16038   5.202   5.584   1.034  0.3845 -2.0547 -0.8647
  119MOL0     H16039   5.070   5.440   1.267  3.9342  1.5042 -0.0015
  119MOL0     H16040   5.051   5.382   1.106 -0.5360 -0.2084  0.3400
  119MOL0     H16041   4.956   5.661   1.181 -1.2533  0.2376  0.5373
  119MOL0     H16042   4.935   5.586   1.033 -1.1035  1.2910 -0.2445
  119MOL0     H16043   4.807   5.463   1.278 -0.3893 -3.6185 -0.3811
  119MOL0     H16044   4.814   5.394   1.121 -2.3456  1.0725 -1.2778
  119MOL0     H16045   4.603   5.501   1.116  0.2885  0.5349  1.9306
  119MOL0     H16046   4.705   5.608   1.018 -1.2246 -0.6661 -0.6665
  119MOL0     H16047   5.795   5.265   1.224 -0.2101  1.0252  0.4521
  119MOL0     H16048   6.033   5.186   1.200  0.8188 -2.9194 -1.9367
  119MOL0     H16049   6.394   5.146   0.949 -2.2656 -0.0108  2.1830
  119MOL0     H16050   6.619   5.089   0.913  0.8487  0.2854 -0.6106
  119MOL0     H16051   8.424   4.997   0.768 -1.7662  0.2573 -2.2182
  119MOL0     H16052   8.642   5.035   0.888 -1.7179  0.3590  3.3377
  119MOL0     H16053   9.030   5.112   1.173 -1.3306  0.9021  0.8333
  119MOL0     H16054   9.271   5.144   1.173  1.2174  0.1180 -1.1644
  119MOL0     H16055   9.495   5.214   1.149 -0.6903  1.5306 -0.2504
  119MOL0     H16056   9.474   5.097   1.019 -0.0298 -0.7416  1.5196
  119MOL0     H16057   9.680   5.321   1.042 -2.0238  1.0544 -0.7503
  119MOL0     H16058   9.671   5.237   0.903  1.1505 -0.8636  0.3623
  119MOL0     H16059   9.840   5.153   1.079  0.3576 -2.5046  1.2199
  119MOL0     H16060   9.753   5.023   0.985 -1.1123 -0.6238  0.0252
  119MOL0     H16061   9.640   4.978   1.180  2.5823 -2.6517 -0.4065
  119MOL0     H16062   9.700   5.139   1.251 -3.0686  1.1319 -1.2428
  119MOL0     H16063   9.999   4.896   1.390  0.5805  0.6234  0.2694
  119MOL0     H16064   9.248   5.378   0.820  0.8417  2.0257  1.9108
  119MOL0     H16065   9.020   5.346   0.804 -0.6893  0.3364  0.5809
  120MOL0     O16066  10.005  10.932   9.369  0.6860  1.2959 -0.1867
  120MOL0     C16067  10.096  11.012   9.375 -0.5179 -0.5840 -0.7732
  120MOL0     O16068  10.100  11.138   9.319 -0.0829  0.3451 -0.3297
  120MOL0     C16069  10.002  11.184   9.230 -0.1904  0.3174 -0.0567
  120MOL0     C16070   9.915  11.111   9.149 -0.0664  0.0313 -0.2257
  120MOL0     C16071   9.815  11.166   9.071 -0.4440  0.2176 -0.9823
  120MOL0     C16072   9.797  11.303   9.083 -0.5855 -0.4386  0.6255
  120MOL0     O16073   9.705  11.367   9.001  0.1510 -0.3074 -1.0078
  120MOL0     C16074   9.595  11.301   8.944 -0.2302  0.0755 -0.3034
  120MOL0     C16075   9.484  11.397   8.950 -0.2777 -0.1022  0.2711
  120MOL0     C16076   9.400  11.382   9.081 -0.2277  0.0159 -0.6117
  120MOL0     C16077   9.283  11.483   9.076 -0.2675  0.0979  0.2852
  120MOL0     C16078   9.210  11.485   9.209  1.3492  0.1667  0.0745
  120MOL0     C16079   9.284  11.485   9.337 -0.9178  0.0138  0.4009
  120MOL0     C16080   9.203  11.448   9.458 -0.0988  0.2462  0.4701
  120MOL0     C16081   9.076  11.534   9.470  0.0550  0.2451  0.1125
  120MOL0     N16082   9.027  11.510   9.608  0.1886  0.4404  0.0162
  120MOL0     C16083   8.914  11.446   9.635  0.3351  0.5762  0.7025
  120MOL0     C16084   8.898  11.455   9.769 -0.6117 -0.0523  0.2812
  120MOL0     C16085   8.790  11.379   9.841  0.0564 -0.1667 -0.7054
  120MOL0     C16086   8.710  11.471   9.930 -0.9230  0.1569 -0.5880
  120MOL0     C16087   8.630  11.414  10.053 -0.8656  0.5119  0.6095
  120MOL0     C16088   8.515  11.320  10.024 -0.2453  0.5538  0.4830
  120MOL0     O16089   8.485  11.277  10.156 -0.3500  0.4775  0.2014
  120MOL0     C16090   8.355  11.246  10.196 -0.1001  0.9228 -0.6899
  120MOL0     C16091   8.236  11.299  10.148  0.0475  0.2349  0.0767
  120MOL0     C16092   8.115  11.250  10.186 -1.0937 -0.2078 -0.1513
  120MOL0     C16093   8.004  11.310  10.110 -0.3643 -0.6389  0.2513
  120MOL0     C16094   8.107  11.162  10.294  0.6809  0.0738  0.9336
  120MOL0     C16095   7.983  11.127  10.357  0.3623 -0.0903 -0.2094
  120MOL0     O16096   7.872  11.125  10.278  0.2698 -0.2410  0.0239
  120MOL0     C16097   7.770  11.040  10.291 -0.2170  0.0355  0.1660
  120MOL0     C16098   7.655  11.064  10.216 -0.2538 -0.6917 -0.0582
  120MOL0     C16099   7.544  10.984  10.226 -0.0277  0.2853  0.8026
  120MOL0     C16100   7.542  10.870  10.303  0.6479  0.0186 -0.2112
  120MOL0     O16101   7.423  10.797  10.309  0.1751  0.6192  0.3365
  120MOL0     C16102   7.423  10.668  10.361  0.5453  0.0762  0.2569
  120MOL0     C16103   7.279  10.613  10.353  0.4053 -0.4200  0.1422
  120MOL0     C16104   7.211  10.581  10.488 -0.1456 -0.6107  0.0926
  120MOL0     C16105   7.070  10.520  10.465  0.2758 -0.2444  0.0391
  120MOL0     C16106   7.065  10.369  10.471 -0.7366  0.3905 -0.1325
  120MOL0     C16107   6.927  10.314  10.437 -0.1995  0.2562  0.2054
  120MOL0     C16108   6.817  10.352  10.539  0.6893  0.8904 -0.2090
  120MOL0     C16109   6.676  10.291  10.505 -0.2529  0.6893 -0.4107
  120MOL0    Cl16110   6.688  10.125  10.441  0.0245  0.5401 -0.2267
  120MOL0     C16111   7.664  10.844  10.374  0.9898  0.5919 -0.2338
  120MOL0     C16112   7.780  10.913  10.357  0.1807 -0.0728  0.2921
  120MOL0     O16113   7.978  11.118  10.480  0.3789 -0.0945 -0.8356
  120MOL0     C16114   8.226  11.118  10.355 -0.2954  0.2915 -0.3370
  120MOL0     C16115   8.350  11.153  10.299 -0.1217  0.4862 -0.0956
  120MOL0     N16116   9.006  11.524   9.819 -0.0400  0.0317  0.4304
  120MOL0     N16117   9.077  11.572   9.722 -0.2695  0.2642  0.1092
  120MOL0     C16118   9.880  11.383   9.157 -0.1479 -0.0338  0.2711
  120MOL0     C16119   9.987  11.329   9.228 -0.1903 -0.2176  0.6228
  120MOL0     C16120  10.215  10.968   9.453 -0.0552 -0.7360  0.1708
  120MOL0     C16121  10.250  10.831   9.473 -0.1124  0.4057 -0.2449
  120MOL0     C16122  10.360  10.788   9.539 -0.0774 -0.3266  0.2403
  120MOL0     C16123  10.449  10.893   9.588 -0.1415  0.2122 -0.1775
  120MOL0     O16124  10.571  10.865   9.649 -0.8126  0.1859 -0.3934
  120MOL0     C16125  10.652  10.778   9.566  0.9043  0.4865 -0.2858
  120MOL0     C16126  10.806  10.798   9.597 -0.3721 -0.1342 -0.8925
  120MOL0     C16127  10.832  10.828   9.748  0.3210 -0.5130 -0.3547
  120MOL0     C16128  10.983  10.841   9.772  0.8263 -0.2650  0.3725
  120MOL0     C16129  11.018  10.984   9.745  0.2167  0.4094 -0.1283
  120MOL0     C16130  11.044  11.104   9.734  0.8919  0.3097 -0.3353
  120MOL0     C16131  10.419  11.033   9.569  0.4083  0.7350 -0.2717
  120MOL0     C16132  10.298  11.072   9.502 -0.1256 -0.6573 -1.0322
  120MOL0     H16133   9.925  11.004   9.133  1.4970  0.3849 -2.1268
  120MOL0     H16134   9.760  11.096   9.009 -0.5676 -1.2919  0.7565
  120MOL0     H16135   9.616  11.288   8.837 -0.9635 -2.5539 -0.1886
  120MOL0     H16136   9.560  11.205   8.982  0.1408 -1.0084 -2.5461
  120MOL0     H16137   9.515  11.502   8.944  0.1109 -0.2886 -1.6762
  120MOL0     H16138   9.418  11.390   8.863 -0.8690  3.1616  0.3195
  120MOL0     H16139   9.367  11.278   9.085 -1.5250  0.1732 -4.1883
  120MOL0     H16140   9.465  11.406   9.166 -1.5363  0.6802  0.2509
  120MOL0     H16141   9.316  11.582   9.045  2.2968 -0.4302  1.0792
  120MOL0     H16142   9.213  11.461   8.995 -2.1328  1.3545  1.4622
  120MOL0     H16143   9.145  11.572   9.194 -0.3095 -1.0783 -0.2965
  120MOL0     H16144   9.143  11.398   9.214  1.2192  0.2445 -0.3200
  120MOL0     H16145   9.365  11.412   9.335 -1.0444 -0.1415  0.8970
  120MOL0     H16146   9.334  11.581   9.358  0.0987 -0.0050 -1.6902
  120MOL0     H16147   9.179  11.341   9.457 -1.2171  0.4883  0.6445
  120MOL0     H16148   9.262  11.471   9.547  0.4699  4.2130 -0.7591
  120MOL0     H16149   9.003  11.510   9.392  0.4764 -2.6012  0.4942
  120MOL0     H16150   9.099  11.638   9.446  0.2885  0.3438  0.7544
  120MOL0     H16151   8.843  11.389   9.577  0.6023  2.5468 -1.7496
  120MOL0     H16152   8.721  11.345   9.763  1.5675  1.9133 -3.0645
  120MOL0     H16153   8.831  11.300   9.905 -0.1713 -1.4500 -2.0933
  120MOL0     H16154   8.647  11.534   9.866 -0.7313  2.4469  1.3040
  120MOL0     H16155   8.782  11.544   9.970 -0.1371 -1.0836  0.3549
  120MOL0     H16156   8.577  11.497  10.102 -2.0763  0.8036 -1.0853
  120MOL0     H16157   8.696  11.363  10.124 -0.1999  0.5620  0.0359
  120MOL0     H16158   8.545  11.237   9.960 -2.4452 -0.2811  0.4524
  120MOL0     H16159   8.428  11.363   9.974 -2.1551 -2.1050  1.2778
  120MOL0     H16160   8.240  11.370  10.067  3.2798  0.4206  0.2643
  120MOL0     H16161   8.037  11.352  10.014  1.5046  2.4588  2.1159
  120MOL0     H16162   7.918  11.246  10.090 -0.6043 -0.0877 -0.5395
  120MOL0     H16163   7.965  11.391  10.171 -0.0099 -1.3653  1.4893
  120MOL0     H16164   7.657  11.158  10.162  1.2608 -0.5524  0.2059
  120MOL0     H16165   7.457  11.016  10.169  0.0341 -2.8096 -1.2793
  120MOL0     H16166   7.497  10.612  10.304  1.3322  1.2915  0.0645
  120MOL0     H16167   7.453  10.666  10.466  1.8338  0.4121 -0.0862
  120MOL0     H16168   7.210  10.687  10.312  1.0385  0.3131  0.3642
  120MOL0     H16169   7.272  10.518  10.299 -0.0050 -1.4540  1.9540
  120MOL0     H16170   7.204  10.675  10.545 -0.7009  0.3642 -1.5306
  120MOL0     H16171   7.274  10.515  10.549  2.3610  0.2624 -1.3750
  120MOL0     H16172   7.010  10.559  10.547 -0.3349 -1.3577  0.1472
  120MOL0     H16173   7.023  10.549  10.371  2.6278 -0.7016 -1.3787
  120MOL0     H16174   7.097  10.325  10.566  0.3716  2.4312  0.4952
  120MOL0     H16175   7.133  10.337  10.392 -1.2313  0.8264 -0.7486
  120MOL0     H16176   6.900  10.345  10.335 -0.2755  0.3707  0.2603
  120MOL0     H16177   6.944  10.206  10.438  0.7384  0.3868 -0.0665
  120MOL0     H16178   6.803  10.461  10.548 -0.8916  0.6721  0.3181
  120MOL0     H16179   6.844  10.319  10.640 -1.1371  3.9977  1.4715
  120MOL0     H16180   6.623  10.356  10.434 -0.8781  0.2400 -0.3597
  120MOL0     H16181   6.631  10.278  10.604  3.5041  2.6075  1.7905
  120MOL0     H16182   7.675  10.758  10.440  2.9317  1.1751  0.2456
  120MOL0     H16183   7.868  10.875  10.408 -0.0269 -1.5236 -0.3894
  120MOL0     H16184   8.218  11.051  10.440 -0.0527  0.1455 -0.4282
  120MOL0     H16185   8.450  11.132  10.336  0.0904  1.9936  0.2778
  120MOL0     H16186   9.853  11.488   9.165 -2.5010 -0.7362  3.3768
  120MOL0     H16187  10.046  11.396   9.291 -2.1420  0.6307  1.6170
  120MOL0     H16188  10.178  10.757   9.441 -1.7867  2.2335 -0.9111
  120MOL0     H16189  10.382  10.682   9.546  1.1694 -0.0121  1.7583
  120MOL0     H16190  10.631  10.678   9.606  3.0662  0.8685  2.0677
  120MOL0     H16191  10.638  10.775   9.457 -0.6764 -0.1667 -0.0964
  120MOL0     H16192  10.845  10.884   9.542  2.5010 -0.9416 -0.2873
  120MOL0     H16193  10.865  10.713   9.562  1.5196  1.0481 -0.7451
  120MOL0     H16194  10.803  10.743   9.809 -3.0251  1.3225  0.8450
  120MOL0     H16195  10.779  10.913   9.791  1.0665 -0.5243  0.6158
  120MOL0     H16196  11.035  10.764   9.714 -2.0217 -1.0338 -1.3193
  120MOL0     H16197  11.010  10.831   9.878  2.9321  0.2622 -0.0584
  120MOL0     H16198  11.080  11.202   9.709 -1.0461  0.7276 -1.6975
  120MOL0     H16199  10.499  11.102   9.595  0.6688  1.5338 -2.8291
  120MOL0     H16200  10.273  11.177   9.490 -1.8355 -0.7104  1.4183
  121MOL0     O16201   3.725   1.895   9.754 -0.3285  0.1245  0.7150
  121MOL0     C16202   3.671   1.903   9.643  0.2161 -0.4982  0.0445
  121MOL0     O16203   3.551   1.958   9.616  0.7836 -0.0486  0.8906
  121MOL0     C16204   3.478   2.037   9.700  0.8572  0.4577  0.2403
  121MOL0     C16205   3.352   2.080   9.651 -0.0734  0.5944  0.3252
  121MOL0     C16206   3.269   2.165   9.736 -0.0136  0.8209  0.3516
  121MOL0     C16207   3.308   2.215   9.860 -0.3101  0.5615 -0.4159
  121MOL0     O16208   3.228   2.288   9.942 -0.9709  0.2943 -0.4167
  121MOL0     C16209   3.288   2.363  10.050  0.1394  0.1161  0.8090
  121MOL0     C16210   3.173   2.454  10.089 -0.6705 -0.0340 -1.0105
  121MOL0     C16211   3.075   2.389  10.180  0.0074 -0.2490  0.1433
  121MOL0     C16212   2.967   2.481  10.216  0.9048  0.2682  0.2740
  121MOL0     C16213   2.850   2.413  10.292 -0.0239 -0.2051 -0.6288
  121MOL0     C16214   2.722   2.489  10.313 -0.1115 -0.3983 -0.1160
  121MOL0     C16215   2.638   2.410  10.418 -0.5960  0.2451  0.3897
  121MOL0     C16216   2.485   2.440  10.399 -0.2133 -0.2229  1.0234
  121MOL0     N16217   2.444   2.576  10.434  0.6505  0.5187  0.6159
  121MOL0     C16218   2.426   2.627  10.556  0.2918  0.4235  0.2721
  121MOL0     C16219   2.425   2.759  10.541  1.0220  0.1649  0.2038
  121MOL0     C16220   2.406   2.862  10.649  0.5149  0.0650  0.5834
  121MOL0     C16221   2.269   2.928  10.640  0.1578 -0.3338  0.3244
  121MOL0     C16222   2.266   3.060  10.716 -0.4630 -0.0072  0.4710
  121MOL0     C16223   2.130   3.133  10.706 -0.2036 -0.8219 -0.3074
  121MOL0     O16224   2.045   3.045  10.769  0.2415  0.3893  0.2611
  121MOL0     C16225   1.909   3.061  10.777 -0.1351  0.5467  0.8964
  121MOL0     C16226   1.839   2.952  10.830 -0.5562 -0.2593 -0.1762
  121MOL0     C16227   1.700   2.954  10.836  0.6331 -0.9248 -1.2371
  121MOL0     C16228   1.635   2.836  10.898  0.2523 -0.0702  1.0796
  121MOL0     C16229   1.630   3.075  10.794 -0.2277  0.0039 -0.0377
  121MOL0     C16230   1.485   3.105  10.796 -0.0936  0.9849  0.2313
  121MOL0     O16231   1.435   3.203  10.712  0.3285 -0.0162  0.2495
  121MOL0     C16232   1.297   3.224  10.720 -0.7432  0.4331 -0.2210
  121MOL0     C16233   1.250   3.350  10.758 -0.2719  0.1274  0.2763
  121MOL0     C16234   1.115   3.374  10.755  0.0232  0.4899 -0.0826
  121MOL0     C16235   1.021   3.274  10.716 -0.5414 -0.3162  0.0644
  121MOL0     O16236   0.884   3.271  10.717  0.2090 -0.4187 -0.2387
  121MOL0     C16237   0.814   3.366  10.799  0.4311 -0.1486 -0.3727
  121MOL0     C16238   0.670   3.367  10.768  1.0289  0.0295  0.3433
  121MOL0     C16239   0.615   3.246  10.829 -0.7612 -0.0351 -0.1468
  121MOL0     C16240   0.468   3.226  10.820  0.8242  0.0126  0.0201
  121MOL0     C16241   0.403   3.139  10.933 -0.3808  0.2083 -1.0907
  121MOL0     C16242   0.253   3.118  10.910  0.0539  0.4973 -0.0134
  121MOL0     C16243   0.160   3.233  10.962 -0.1818 -0.4390  0.3562
  121MOL0     C16244   0.014   3.188  10.992  1.1661 -0.3324 -0.2214
  121MOL0    Cl16245  -0.072   3.144  10.849 -0.1589  0.2000 -0.1552
  121MOL0     C16246   1.074   3.155  10.671 -0.6693  1.2919 -1.2310
  121MOL0     C16247   1.208   3.126  10.681 -0.5113 -0.2068 -0.0986
  121MOL0     O16248   1.419   3.035  10.881 -1.0203  0.3542  0.6943
  121MOL0     C16249   1.707   3.179  10.743 -0.3883 -0.2569  0.0693
  121MOL0     C16250   1.842   3.170  10.725 -0.4622 -0.0360  0.2479
  121MOL0     N16251   2.463   2.789  10.410  0.3116 -0.1528 -0.2461
  121MOL0     N16252   2.467   2.675  10.345  0.5400 -0.0872 -0.1826
  121MOL0     C16253   3.442   2.173   9.893 -0.3842 -0.3352  0.1914
  121MOL0     C16254   3.525   2.090   9.819 -0.6929 -0.8126  0.0153
  121MOL0     C16255   3.753   1.854   9.530 -0.1998 -0.0305 -0.4291
  121MOL0     C16256   3.714   1.884   9.400 -0.3979  0.6167  0.5194
  121MOL0     C16257   3.775   1.828   9.287 -0.6751  0.4814 -0.7910
  121MOL0     C16258   3.890   1.747   9.308  0.4954  0.5723 -0.8699
  121MOL0     O16259   3.955   1.680   9.211 -0.1946  0.0073 -0.0493
  121MOL0     C16260   3.962   1.760   9.092  0.4531  0.3694 -1.1129
  121MOL0     C16261   4.068   1.704   8.996  0.1989  0.0989  0.4854
  121MOL0     C16262   3.991   1.633   8.885  0.8470  0.1532  0.1594
  121MOL0     C16263   4.086   1.561   8.788 -0.2480 -0.6227  0.0628
  121MOL0     C16264   4.006   1.474   8.698  0.3748 -0.1489  0.1471
  121MOL0     C16265   3.938   1.409   8.629  0.0164  0.5457  0.4634
  121MOL0     C16266   3.927   1.719   9.446 -0.4834  0.1259  0.8165
  121MOL0     C16267   3.863   1.768   9.561 -0.6736 -0.2210  1.0018
  121MOL0     H16268   3.309   2.048   9.556 -2.7439  1.4049  1.1852
  121MOL0     H16269   3.173   2.199   9.698 -0.6497 -0.2926  0.9386
  121MOL0     H16270   3.324   2.299  10.131  0.1671  0.2820  0.9272
  121MOL0     H16271   3.371   2.419  10.007  0.6874 -1.2549 -0.0018
  121MOL0     H16272   3.207   2.541  10.145 -0.3416 -2.0819  2.2777
  121MOL0     H16273   3.123   2.492  10.000 -1.9929 -0.5561 -0.5244
  121MOL0     H16274   3.036   2.304  10.124 -1.6119 -0.4252  1.4379
  121MOL0     H16275   3.124   2.355  10.272  1.0557  1.3144  0.2115
  121MOL0     H16276   3.002   2.561  10.283 -1.5004  2.7316 -1.2218
  121MOL0     H16277   2.930   2.518  10.120 -0.2239 -1.7864 -0.1436
  121MOL0     H16278   2.818   2.337  10.220  0.2382  1.0034 -2.0651
  121MOL0     H16279   2.884   2.376  10.389 -0.4125 -0.5698 -0.6317
  121MOL0     H16280   2.744   2.586  10.358 -1.8501 -0.6738  1.4955
  121MOL0     H16281   2.678   2.507  10.215 -0.4755  2.9143  0.5222
  121MOL0     H16282   2.663   2.304  10.408 -0.4649 -0.0160  2.8442
  121MOL0     H16283   2.665   2.444  10.518 -0.9364 -0.3485  0.6912
  121MOL0     H16284   2.433   2.365  10.460  0.3096 -1.1045  0.4157
  121MOL0     H16285   2.451   2.417  10.298 -0.8415 -1.3807  1.4761
  121MOL0     H16286   2.415   2.576  10.650  3.5577  1.2923  1.2648
  121MOL0     H16287   2.429   2.813  10.744 -1.4054  0.9694  1.5699
  121MOL0     H16288   2.484   2.938  10.647  0.6045 -0.0290  0.4897
  121MOL0     H16289   2.195   2.861  10.682 -0.9816  0.8665  0.2880
  121MOL0     H16290   2.240   2.948  10.536  3.0711 -0.5266 -0.6331
  121MOL0     H16291   2.340   3.136  10.691  0.9468 -0.5183  2.8019
  121MOL0     H16292   2.288   3.040  10.821 -2.1085 -2.2649  0.4692
  121MOL0     H16293   2.095   3.159  10.606  2.7929  0.5776 -1.1151
  121MOL0     H16294   2.137   3.229  10.759  1.1460 -2.6778  3.2088
  121MOL0     H16295   1.897   2.866  10.858 -0.7964 -0.5968 -0.6957
  121MOL0     H16296   1.710   2.774  10.947  1.1170  0.4807  0.4853
  121MOL0     H16297   1.578   2.871  10.985 -0.5525 -3.5298  2.1033
  121MOL0     H16298   1.584   2.772  10.826  0.4786  1.2389 -0.2946
  121MOL0     H16299   1.317   3.431  10.780  0.1151 -0.4652  1.3129
  121MOL0     H16300   1.078   3.467  10.796 -1.4773  2.1094 -4.4968
  121MOL0     H16301   0.834   3.361  10.907 -2.8102  3.1238  0.5895
  121MOL0     H16302   0.845   3.467  10.768  0.9582  0.1489  1.0496
  121MOL0     H16303   0.621   3.453  10.815 -0.8499 -0.9447  0.2545
  121MOL0     H16304   0.653   3.368  10.660 -1.2630  2.4220  0.6430
  121MOL0     H16305   0.639   3.247  10.936  0.3136  3.2859 -0.3121
  121MOL0     H16306   0.666   3.162  10.781  0.2819  1.8295 -2.5251
  121MOL0     H16307   0.428   3.325  10.842  1.1119  0.1545 -0.0991
  121MOL0     H16308   0.417   3.193  10.730 -2.9666  0.1713  1.9090
  121MOL0     H16309   0.438   3.168  11.033  0.3570 -1.8671 -0.7016
  121MOL0     H16310   0.454   3.043  10.922  2.2844  1.0069  2.4568
  121MOL0     H16311   0.237   3.114  10.801  1.5175 -3.9037 -0.2913
  121MOL0     H16312   0.217   3.029  10.963 -0.1965  0.4114 -0.3218
  121MOL0     H16313   0.169   3.324  10.903 -0.9785  0.0926  1.0179
  121MOL0     H16314   0.204   3.252  11.061 -0.9060  0.3235  0.5458
  121MOL0     H16315  -0.031   3.280  11.028  0.3371 -0.8824  0.1790
  121MOL0     H16316   0.003   3.111  11.069  2.3088 -0.8851 -0.5749
  121MOL0     H16317   1.008   3.076  10.638  0.8162 -0.3687 -0.3882
  121MOL0     H16318   1.244   3.028  10.650 -0.4749 -0.6243  1.1660
  121MOL0     H16319   1.661   3.270  10.705 -0.1308 -0.2841 -0.3153
  121MOL0     H16320   1.899   3.248  10.675  2.1894 -2.1771 -0.3187
  121MOL0     H16321   3.478   2.198   9.992  0.3558 -2.0880  0.4024
  121MOL0     H16322   3.619   2.066   9.867 -1.3348 -0.5725  1.4603
  121MOL0     H16323   3.640   1.961   9.380  0.9550  1.3268 -2.3234
  121MOL0     H16324   3.733   1.864   9.194 -2.1173  0.3472 -0.2224
  121MOL0     H16325   3.861   1.747   9.053 -0.1615  0.3497  0.3849
  121MOL0     H16326   3.981   1.866   9.112 -0.9726  0.5628 -0.6296
  121MOL0     H16327   4.131   1.632   9.048 -1.4018 -1.9365 -0.2657
  121MOL0     H16328   4.127   1.792   8.970 -0.0257 -0.2186 -1.2062
  121MOL0     H16329   3.936   1.713   8.835 -0.8886 -2.3817 -2.2836
  121MOL0     H16330   3.912   1.563   8.914 -1.1026  0.2506 -4.0942
  121MOL0     H16331   4.163   1.500   8.837 -0.4012 -0.5046  0.4532
  121MOL0     H16332   4.140   1.637   8.731  3.1898 -1.5368  1.7763
  121MOL0     H16333   3.878   1.351   8.561 -0.1116  1.6223 -0.3776
  121MOL0     H16334   4.008   1.647   9.453  1.5518  2.3086  0.8628
  121MOL0     H16335   3.886   1.735   9.662  0.5458 -1.0017  0.4941
  122MOL0     O16336   3.438  10.225   2.770 -0.2697  0.3896 -0.8165
  122MOL0     C16337   3.503  10.264   2.676 -0.4324 -0.4074  0.0797
  122MOL0     O16338   3.499  10.381   2.618  0.8431 -0.1281  0.1328
  122MOL0     C16339   3.378  10.455   2.636  0.0769 -0.0457 -0.3670
  122MOL0     C16340   3.246  10.407   2.649 -0.4800 -0.0627  0.4673
  122MOL0     C16341   3.140  10.493   2.665 -0.3167 -0.3873  0.4457
  122MOL0     C16342   3.159  10.630   2.677 -0.1360 -0.1647  0.3752
  122MOL0     O16343   3.048  10.711   2.679  0.0047  0.1830 -0.2266
  122MOL0     C16344   3.026  10.762   2.550 -0.2416 -0.1075  0.2740
  122MOL0     C16345   2.886  10.758   2.501 -0.4393 -0.5138  0.6624
  122MOL0     C16346   2.826  10.624   2.475  0.7998 -0.0702 -1.2787
  122MOL0     C16347   2.696  10.634   2.399 -0.4880 -0.3000 -0.4215
  122MOL0     C16348   2.597  10.712   2.496 -0.5920 -0.3320 -0.0755
  122MOL0     C16349   2.459  10.700   2.439  0.4669  0.4279  0.2348
  122MOL0     C16350   2.355  10.796   2.516  0.7465  0.5573  0.0989
  122MOL0     C16351   2.239  10.831   2.415  0.3544  0.2912 -0.3243
  122MOL0     N16352   2.126  10.909   2.474  0.5607 -0.4592 -0.0697
  122MOL0     C16353   2.131  11.041   2.514 -0.3931 -0.0956  0.4488
  122MOL0     C16354   2.009  11.067   2.545  0.0459 -0.5935 -0.1006
  122MOL0     C16355   1.959  11.195   2.601 -0.4578  0.6961 -0.2169
  122MOL0     C16356   1.951  11.192   2.754  0.3675 -0.3925 -0.0911
  122MOL0     C16357   1.916  11.328   2.818 -0.0482  0.2917 -0.7854
  122MOL0     C16358   1.786  11.379   2.769  0.4465 -0.2316 -0.3332
  122MOL0     O16359   1.774  11.511   2.820 -0.0542  0.1456 -0.2088
  122MOL0     C16360   1.648  11.572   2.816 -0.5308  0.2276 -0.3051
  122MOL0     C16361   1.598  11.620   2.939  0.0974 -0.5071  0.3066
  122MOL0     C16362   1.465  11.682   2.942 -0.4447  0.0814 -0.5628
  122MOL0     C16363   1.430  11.756   3.074 -0.0447  0.1744 -0.5266
  122MOL0     C16364   1.389  11.685   2.821 -0.3461  0.0836 -0.0903
  122MOL0     C16365   1.257  11.745   2.818 -0.0100  0.0015 -0.3716
  122MOL0     O16366   1.216  11.818   2.711 -0.7803  0.3694 -0.2078
  122MOL0     C16367   1.100  11.892   2.707  0.0785  0.0261 -0.2283
  122MOL0     C16368   1.051  11.967   2.815 -1.2382  0.0738  0.5458
  122MOL0     C16369   0.936  12.040   2.807  0.2892  0.0760 -0.4301
  122MOL0     C16370   0.873  12.050   2.689  0.4697 -0.2615  0.8002
  122MOL0     O16371   0.759  12.131   2.677  0.1816  0.0165  0.4103
  122MOL0     C16372   0.635  12.068   2.645  1.1622 -0.4205  0.0822
  122MOL0     C16373   0.517  12.138   2.718  0.0413 -0.7094  0.5812
  122MOL0     C16374   0.513  12.092   2.865 -0.0674  0.3248  0.3929
  122MOL0     C16375   0.486  12.204   2.962 -0.4114 -0.0868  0.4311
  122MOL0     C16376   0.336  12.230   2.984 -0.4385 -0.5873 -0.2952
  122MOL0     C16377   0.281  12.301   2.867  0.0862 -0.5034 -0.1691
  122MOL0     C16378   0.139  12.333   2.911 -0.3355  0.2092  0.4310
  122MOL0     C16379   0.073  12.398   2.779  0.2429 -0.0509  0.1752
  122MOL0    Cl16380  -0.111  12.403   2.786 -0.5311  0.1119  0.1655
  122MOL0     C16381   0.916  11.982   2.577  0.4155 -0.0148 -0.4901
  122MOL0     C16382   1.025  11.892   2.591  0.0916  0.5286 -0.1754
  122MOL0     O16383   1.191  11.723   2.923 -0.0578 -0.2088 -0.5162
  122MOL0     C16384   1.450  11.631   2.709  0.2561 -0.2331  0.5090
  122MOL0     C16385   1.573  11.576   2.706  0.3896 -0.5679 -0.1509
  122MOL0     N16386   1.935  10.955   2.526  0.9080 -0.2244  0.0299
  122MOL0     N16387   1.997  10.860   2.476 -0.8214 -0.1222 -0.0500
  122MOL0     C16388   3.292  10.678   2.674 -0.5192 -0.0940  0.2122
  122MOL0     C16389   3.398  10.588   2.646 -0.9226 -0.2128 -0.5910
  122MOL0     C16390   3.610  10.171   2.624  0.2525 -0.9059  0.6600
  122MOL0     C16391   3.686  10.206   2.519  0.0441  0.1843  0.5701
  122MOL0     C16392   3.782  10.115   2.465  0.7156 -1.2739 -0.0007
  122MOL0     C16393   3.800   9.995   2.522  0.4649  0.4562 -0.4351
  122MOL0     O16394   3.894   9.919   2.463  0.7393 -0.4719 -0.1244
  122MOL0     C16395   3.919   9.786   2.499  0.1707  0.4405 -0.8591
  122MOL0     C16396   4.051   9.753   2.436 -0.9314 -0.1315 -0.0731
  122MOL0     C16397   4.037   9.637   2.325  0.8667 -0.9900  0.0408
  122MOL0     C16398   4.180   9.594   2.278  0.3627  0.2220 -0.5494
  122MOL0     C16399   4.157   9.498   2.170 -0.8421 -0.3209 -0.9413
  122MOL0     C16400   4.148   9.415   2.080  0.1905  0.7546  0.3805
  122MOL0     C16401   3.718   9.957   2.630  0.0646  0.0471  0.2413
  122MOL0     C16402   3.624  10.045   2.680 -0.2721 -0.2584  0.0692
  122MOL0     H16403   3.237  10.300   2.632  1.3535  0.0455 -1.7720
  122MOL0     H16404   3.047  10.437   2.665 -0.5460 -0.0304 -0.8154
  122MOL0     H16405   3.067  10.864   2.543 -0.0816 -0.2457 -0.9370
  122MOL0     H16406   3.077  10.702   2.474  0.1626 -0.3369  0.7196
  122MOL0     H16407   2.827  10.817   2.571  0.4622 -0.0134  1.0182
  122MOL0     H16408   2.889  10.810   2.405  0.2650 -2.6629 -0.5688
  122MOL0     H16409   2.898  10.567   2.415  0.2735 -2.1463 -0.0204
  122MOL0     H16410   2.811  10.573   2.570 -1.2861  0.6197 -1.1745
  122MOL0     H16411   2.699  10.681   2.300 -2.1402 -1.8782 -1.2916
  122MOL0     H16412   2.664  10.529   2.387  0.7486 -1.0928  2.4163
  122MOL0     H16413   2.602  10.670   2.597 -1.5142 -0.5086 -0.0897
  122MOL0     H16414   2.625  10.817   2.493  0.0943 -0.5237 -0.5892
  122MOL0     H16415   2.457  10.730   2.334 -1.2458 -0.8839 -0.1636
  122MOL0     H16416   2.429  10.594   2.439  0.9171  0.2965  1.0463
  122MOL0     H16417   2.329  10.754   2.613 -1.9706 -0.0902 -0.8076
  122MOL0     H16418   2.401  10.892   2.538 -0.1288  2.3741 -4.7731
  122MOL0     H16419   2.191  10.746   2.368  0.6824  0.1732 -0.4501
  122MOL0     H16420   2.286  10.891   2.336  1.1760  0.0698 -0.0187
  122MOL0     H16421   2.215  11.109   2.512 -0.2833 -0.1981 -1.8614
  122MOL0     H16422   2.022  11.282   2.576  0.2257  0.3988  0.4278
  122MOL0     H16423   1.859  11.206   2.558 -0.1008  0.8665 -1.0240
  122MOL0     H16424   2.053  11.167   2.785 -0.4070 -2.2905  1.1831
  122MOL0     H16425   1.890  11.112   2.798  2.7522 -0.9486  2.4923
  122MOL0     H16426   1.992  11.405   2.800  1.1584 -0.6677  0.0684
  122MOL0     H16427   1.897  11.307   2.923  1.1414 -1.8258 -0.9335
  122MOL0     H16428   1.702  11.323   2.812  0.7873  1.9012  3.5981
  122MOL0     H16429   1.787  11.383   2.660 -2.2344 -1.1384 -0.4703
  122MOL0     H16430   1.654  11.624   3.032 -1.2710  3.5778  1.1933
  122MOL0     H16431   1.366  11.692   3.135 -0.6809  0.9823 -0.3276
  122MOL0     H16432   1.519  11.782   3.133 -0.8204  1.8370 -0.0391
  122MOL0     H16433   1.368  11.843   3.054 -0.5972 -0.2040 -0.4714
  122MOL0     H16434   1.091  11.975   2.916 -2.4498 -1.4584  1.1890
  122MOL0     H16435   0.892  12.086   2.895  1.7915 -0.5897  0.7221
  122MOL0     H16436   0.614  12.065   2.537 -2.2339 -0.4210  0.6191
  122MOL0     H16437   0.647  11.970   2.691  5.1806  0.7290  1.8983
  122MOL0     H16438   0.525  12.247   2.711 -0.7793 -0.6204  0.9112
  122MOL0     H16439   0.428  12.097   2.669  1.2391 -2.1090 -0.5256
  122MOL0     H16440   0.606  12.044   2.898  0.4507  1.5372  0.7551
  122MOL0     H16441   0.429  12.023   2.872  0.0981  0.1109  0.2884
  122MOL0     H16442   0.525  12.169   3.058 -1.0609 -0.7899  0.4494
  122MOL0     H16443   0.546  12.289   2.927  2.0129 -1.8405  0.0772
  122MOL0     H16444   0.344  12.289   3.076 -1.5795 -2.2219  0.8990
  122MOL0     H16445   0.275  12.143   3.011 -0.4483  0.2369  2.7019
  122MOL0     H16446   0.334  12.395   2.846 -1.1218  0.5620  1.3725
  122MOL0     H16447   0.278  12.243   2.774 -0.7086 -0.1173 -0.3899
  122MOL0     H16448   0.134  12.407   2.992  1.2842  1.7188 -0.7683
  122MOL0     H16449   0.076  12.245   2.926  0.5064 -0.6253 -0.7751
  122MOL0     H16450   0.107  12.333   2.698  1.8991 -2.3224  2.5297
  122MOL0     H16451   0.112  12.500   2.777  1.4524 -0.4151  2.1465
  122MOL0     H16452   0.871  11.987   2.479  1.3752 -5.1718 -1.4699
  122MOL0     H16453   1.074  11.832   2.515  1.8958 -2.4587  3.0930
  122MOL0     H16454   1.388  11.618   2.621  1.0870  0.3111 -0.1667
  122MOL0     H16455   1.604  11.536   2.609 -0.8150 -1.6186 -0.1182
  122MOL0     H16456   3.314  10.782   2.695  0.2004 -0.6367  2.4692
  122MOL0     H16457   3.501  10.621   2.653 -0.4414 -1.7808  0.1692
  122MOL0     H16458   3.679  10.306   2.477  3.7156 -0.5421 -2.3137
  122MOL0     H16459   3.835  10.130   2.372  3.9259 -1.3661  1.6930
  122MOL0     H16460   3.921   9.759   2.606 -0.0590  1.3920 -0.6047
  122MOL0     H16461   3.839   9.728   2.454 -0.0449 -0.9332  1.1490
  122MOL0     H16462   4.118   9.714   2.513 -0.5787 -1.4811 -1.0226
  122MOL0     H16463   4.108   9.834   2.390 -1.2863 -1.2807 -2.7597
  122MOL0     H16464   3.967   9.670   2.248  2.1169 -0.7237 -1.0176
  122MOL0     H16465   3.989   9.553   2.377  0.1426 -2.2866 -2.5541
  122MOL0     H16466   4.235   9.542   2.357  1.4235 -1.1392 -2.1032
  122MOL0     H16467   4.248   9.676   2.255  1.5951 -0.6185  0.0286
  122MOL0     H16468   4.145   9.336   2.007 -0.0307 -1.1428  2.3429
  122MOL0     H16469   3.739   9.859   2.671 -1.8554  0.3321  2.0443
  122MOL0     H16470   3.571  10.007   2.766  0.7554 -1.6635  0.1210
  123MOL0     O16471   2.694   0.161   8.855 -0.0384 -0.6725 -0.1954
  123MOL0     C16472   2.634   0.272   8.846  0.1668  0.5523  0.0776
  123MOL0     O16473   2.698   0.390   8.833  0.3196  0.3194  1.3544
  123MOL0     C16474   2.833   0.405   8.814  0.1385 -0.6751  0.2332
  123MOL0     C16475   2.889   0.503   8.731 -0.4141 -0.7530 -0.5972
  123MOL0     C16476   3.025   0.531   8.744 -0.4872 -0.1828  0.1053
  123MOL0     C16477   3.113   0.459   8.831 -0.9305  0.7239 -0.4051
  123MOL0     O16478   3.247   0.480   8.849  0.7301  0.1296 -0.3258
  123MOL0     C16479   3.300   0.602   8.802  0.2760  0.1572 -0.0250
  123MOL0     C16480   3.451   0.633   8.839  0.2911  1.3234 -0.8045
  123MOL0     C16481   3.504   0.743   8.744 -0.3517 -0.0189  0.1462
  123MOL0     C16482   3.612   0.817   8.819  0.0812  0.2215 -0.5332
  123MOL0     C16483   3.693   0.915   8.739  0.3122  0.2172  0.2249
  123MOL0     C16484   3.603   1.027   8.685  0.6387 -0.0908 -0.1057
  123MOL0     C16485   3.686   1.136   8.615 -0.1428  0.0961  0.2434
  123MOL0     C16486   3.606   1.235   8.522 -0.3229 -0.3960 -0.3653
  123MOL0     N16487   3.501   1.300   8.598  0.0928  0.2135  0.3245
  123MOL0     C16488   3.370   1.263   8.593  0.1841 -0.3001 -0.5207
  123MOL0     C16489   3.305   1.355   8.669  0.2063 -0.9160 -0.0393
  123MOL0     C16490   3.155   1.356   8.718  0.1610 -0.0876 -0.6486
  123MOL0     C16491   3.080   1.229   8.704 -0.0589  0.8781 -0.4161
  123MOL0     C16492   2.938   1.243   8.770  1.0412  0.4919  0.2904
  123MOL0     C16493   2.944   1.267   8.924  0.6198 -0.0283 -0.7663
  123MOL0     O16494   2.822   1.239   8.992  0.5622  0.2050 -0.1876
  123MOL0     C16495   2.708   1.309   8.955 -0.4111  0.1164  0.5619
  123MOL0     C16496   2.592   1.241   8.977  1.1390 -1.0477 -0.1488
  123MOL0     C16497   2.469   1.302   8.953 -0.4619 -0.6661  0.3180
  123MOL0     C16498   2.352   1.217   8.975  0.0120  0.0971 -0.7887
  123MOL0     C16499   2.457   1.441   8.897  0.6999  0.4257  0.1437
  123MOL0     C16500   2.327   1.515   8.885 -0.2999  0.5582  0.1690
  123MOL0     O16501   2.344   1.637   8.834  0.0474  0.3276 -0.1664
  123MOL0     C16502   2.229   1.703   8.798  0.3805  0.4388  0.1687
  123MOL0     C16503   2.199   1.730   8.661 -0.5506  0.1593 -0.0093
  123MOL0     C16504   2.087   1.808   8.632 -0.5397 -0.3070 -0.2976
  123MOL0     C16505   2.010   1.852   8.739  0.4987 -0.8332 -0.0775
  123MOL0     O16506   1.893   1.918   8.701  0.3957  0.1237 -0.9817
  123MOL0     C16507   1.864   2.043   8.764  0.1532 -0.1630 -0.3720
  123MOL0     C16508   1.760   2.127   8.694  0.0569  0.3347 -0.6366
  123MOL0     C16509   1.623   2.059   8.652 -0.9003 -0.2397  0.2068
  123MOL0     C16510   1.515   2.144   8.596  0.2327 -0.1180  0.3414
  123MOL0     C16511   1.382   2.062   8.593  0.1702  0.7751  0.2623
  123MOL0     C16512   1.381   1.968   8.473 -0.1707  0.0791  0.6243
  123MOL0     C16513   1.288   1.846   8.496 -0.1996 -0.2959 -0.1308
  123MOL0     C16514   1.243   1.773   8.364 -0.1688 -0.0972  0.0424
  123MOL0    Cl16515   1.136   1.626   8.384  0.3036 -0.2433  0.2149
  123MOL0     C16516   2.037   1.828   8.873  0.7169  0.6944 -0.1084
  123MOL0     C16517   2.146   1.747   8.902 -0.6199 -0.4496  0.6468
  123MOL0     O16518   2.221   1.463   8.919 -0.1006  0.0034  0.2539
  123MOL0     C16519   2.576   1.497   8.871 -0.4293 -0.3268  1.0202
  123MOL0     C16520   2.699   1.436   8.902 -0.5111 -0.8012 -0.5014
  123MOL0     N16521   3.404   1.437   8.736  0.3709 -0.0133 -0.3106
  123MOL0     N16522   3.517   1.394   8.693  0.0069 -0.1063  0.5445
  123MOL0     C16523   3.058   0.361   8.907 -0.3925  0.1833 -0.0144
  123MOL0     C16524   2.919   0.341   8.905 -0.1599  0.2758 -0.1439
  123MOL0     C16525   2.481   0.266   8.857  0.0361 -0.1977  0.1386
  123MOL0     C16526   2.416   0.142   8.894 -0.1972 -0.7453  0.8422
  123MOL0     C16527   2.278   0.144   8.910 -0.3199  0.4084 -0.6485
  123MOL0     C16528   2.204   0.259   8.907 -0.0447  0.0578 -0.1213
  123MOL0     O16529   2.069   0.263   8.938 -0.5921 -0.2673  0.7187
  123MOL0     C16530   2.016   0.166   9.028  0.0822 -0.2647 -0.2860
  123MOL0     C16531   1.879   0.203   9.064  0.1573  0.1645 -1.0149
  123MOL0     C16532   1.787   0.213   8.944 -0.4245 -0.6665  0.6048
  123MOL0     C16533   1.658   0.290   8.985  0.3479  0.2142 -0.5945
  123MOL0     C16534   1.583   0.238   9.098  0.1681  0.2129  0.0297
  123MOL0     C16535   1.512   0.196   9.190  0.1606  0.1064  0.0191
  123MOL0     C16536   2.266   0.377   8.864  0.5597 -0.0400  0.0767
  123MOL0     C16537   2.402   0.380   8.831 -0.5621  0.5515 -0.5439
  123MOL0     H16538   2.816   0.558   8.671  2.6183  2.6792 -1.5198
  123MOL0     H16539   3.064   0.607   8.677  1.5131 -0.1740  1.1731
  123MOL0     H16540   3.293   0.610   8.693 -1.2463  2.5917  0.1795
  123MOL0     H16541   3.247   0.688   8.843  0.6911  1.3032 -1.7687
  123MOL0     H16542   3.438   0.666   8.942 -0.1726  0.9116 -0.7298
  123MOL0     H16543   3.515   0.544   8.842  0.9900  1.8380  1.1817
  123MOL0     H16544   3.540   0.704   8.648  0.9882  1.1944  0.1276
  123MOL0     H16545   3.426   0.813   8.711 -1.3673 -0.9671  0.4971
  123MOL0     H16546   3.567   0.875   8.900 -0.0685  2.3831 -2.1071
  123MOL0     H16547   3.683   0.743   8.857  0.4855  0.4669 -0.8097
  123MOL0     H16548   3.772   0.961   8.798  0.9984  0.2705 -0.7078
  123MOL0     H16549   3.734   0.867   8.650 -1.3985  2.5338 -1.9797
  123MOL0     H16550   3.534   0.986   8.610  1.2930 -2.7926  0.6444
  123MOL0     H16551   3.542   1.075   8.763  0.9054  0.5315 -0.2753
  123MOL0     H16552   3.731   1.187   8.701  1.7667 -0.5045 -0.3314
  123MOL0     H16553   3.772   1.090   8.564  0.1610  1.9559 -1.0160
  123MOL0     H16554   3.570   1.179   8.435 -3.4053  2.1596 -0.9115
  123MOL0     H16555   3.670   1.312   8.477 -0.6998  0.5507  0.6717
  123MOL0     H16556   3.323   1.185   8.533  0.0018 -1.8304  1.5190
  123MOL0     H16557   3.151   1.386   8.823 -1.7158 -1.0400 -0.3995
  123MOL0     H16558   3.091   1.426   8.662 -0.3215  0.3596  0.4321
  123MOL0     H16559   3.125   1.144   8.757 -1.9886 -0.8172 -1.3878
  123MOL0     H16560   3.071   1.201   8.599 -2.3671  0.0693 -0.0476
  123MOL0     H16561   2.879   1.153   8.749 -0.0763  1.4058 -0.5794
  123MOL0     H16562   2.881   1.323   8.724  0.8630  1.2492  1.7597
  123MOL0     H16563   2.972   1.370   8.947  0.8354 -0.5354  1.5053
  123MOL0     H16564   3.023   1.207   8.972 -0.3691 -0.7580 -0.0060
  123MOL0     H16565   2.594   1.134   8.998  2.1863 -0.9451  0.3213
  123MOL0     H16566   2.305   1.254   9.066  1.4004 -1.2523  0.5385
  123MOL0     H16567   2.272   1.222   8.900  0.2248 -1.2262 -1.1247
  123MOL0     H16568   2.385   1.114   8.963  0.9006  0.1943  0.6175
  123MOL0     H16569   2.268   1.687   8.589  1.2512 -0.3598  1.9164
  123MOL0     H16570   2.067   1.855   8.537  2.5299  1.6978 -0.0805
  123MOL0     H16571   1.823   2.034   8.865  1.3437  1.4632  0.2900
  123MOL0     H16572   1.947   2.113   8.756  0.5468 -0.7107 -1.1657
  123MOL0     H16573   1.730   2.211   8.758  1.3859  0.4871 -0.1814
  123MOL0     H16574   1.819   2.168   8.612 -2.3961  0.8903 -2.2575
  123MOL0     H16575   1.583   2.007   8.740  0.8880  0.0346  1.2346
  123MOL0     H16576   1.648   1.981   8.580 -0.8509 -1.5969  1.6344
  123MOL0     H16577   1.502   2.234   8.657  0.0232 -0.3284  0.6101
  123MOL0     H16578   1.528   2.187   8.497  1.9707  0.3583  0.7440
  123MOL0     H16579   1.294   2.127   8.584 -0.8167 -0.6627 -1.2050
  123MOL0     H16580   1.380   1.999   8.682  0.0302 -1.6121 -1.3205
  123MOL0     H16581   1.369   2.030   8.384  0.4697  0.3778  0.7406
  123MOL0     H16582   1.482   1.928   8.467  1.3647  3.6890 -0.1724
  123MOL0     H16583   1.195   1.880   8.543  0.0566  1.2271 -0.6841
  123MOL0     H16584   1.344   1.780   8.562  1.2461  0.3097 -0.7158
  123MOL0     H16585   1.333   1.739   8.312 -2.0313 -0.2882 -3.3484
  123MOL0     H16586   1.192   1.855   8.314 -0.4446  0.5710  1.3780
  123MOL0     H16587   1.970   1.856   8.954 -0.0633  1.0614 -0.8649
  123MOL0     H16588   2.172   1.737   9.007  2.9520  0.7819  0.0391
  123MOL0     H16589   2.585   1.595   8.826  0.7356 -1.3474 -1.1584
  123MOL0     H16590   2.788   1.492   8.876 -0.7140 -0.7064 -0.9984
  123MOL0     H16591   3.124   0.297   8.966 -1.2281 -0.5329  0.1600
  123MOL0     H16592   2.888   0.263   8.974  2.7341 -1.7025 -0.8696
  123MOL0     H16593   2.461   0.045   8.917 -1.2056 -1.7031 -1.0039
  123MOL0     H16594   2.229   0.054   8.945  1.5690 -0.6775 -0.6663
  123MOL0     H16595   2.011   0.067   8.982  0.7838 -0.7711  0.6648
  123MOL0     H16596   2.063   0.140   9.124  0.6749  1.7775  0.0139
  123MOL0     H16597   1.881   0.303   9.107 -1.6978 -0.0875 -0.2614
  123MOL0     H16598   1.845   0.142   9.148 -0.5702  0.7190 -0.8997
  123MOL0     H16599   1.761   0.114   8.908  0.3522 -1.3144  1.7471
  123MOL0     H16600   1.827   0.280   8.868 -0.6565 -0.8331  0.3368
  123MOL0     H16601   1.601   0.296   8.892  0.8347  0.7272 -0.8738
  123MOL0     H16602   1.685   0.392   9.015 -1.1723  0.2410  0.8121
  123MOL0     H16603   1.445   0.175   9.270 -0.5270  0.1245 -0.5450
  123MOL0     H16604   2.209   0.469   8.865 -0.0977 -0.4390  1.3389
  123MOL0     H16605   2.448   0.473   8.799 -1.1075  0.5539 -1.3551
  124MOL0     O16606   7.159   5.295   9.723  0.4551 -0.5158  0.1173
  124MOL0     C16607   7.150   5.169   9.697  0.8113  0.1251 -0.3028
  124MOL0     O16608   7.038   5.100   9.677 -0.0909  0.0900  0.2256
  124MOL0     C16609   6.912   5.151   9.695 -0.2194  1.2910 -0.5456
  124MOL0     C16610   6.871   5.245   9.793  0.8110 -0.2227  0.5806
  124MOL0     C16611   6.734   5.267   9.813 -1.2486  0.6586 -0.5708
  124MOL0     C16612   6.635   5.208   9.737  0.0112 -0.4930  0.2444
  124MOL0     O16613   6.510   5.258   9.761 -0.2215 -0.6684 -0.0610
  124MOL0     C16614   6.409   5.158   9.757  0.3213  0.3099  0.5461
  124MOL0     C16615   6.286   5.203   9.839 -0.4678  0.8222 -0.1890
  124MOL0     C16616   6.321   5.182   9.984 -0.2994  0.8531 -0.2684
  124MOL0     C16617   6.231   5.266  10.076 -0.4209 -0.2976  0.0722
  124MOL0     C16618   6.274   5.237  10.216  0.1472  0.9852 -1.0712
  124MOL0     C16619   6.183   5.326  10.313 -0.1588 -0.1560  0.2591
  124MOL0     C16620   6.233   5.318  10.454 -0.5762 -0.4837 -0.2975
  124MOL0     C16621   6.181   5.194  10.527 -0.1315 -0.7115  0.2058
  124MOL0     N16622   6.037   5.212  10.552  0.7778 -0.4098 -0.3677
  124MOL0     C16623   5.979   5.289  10.657  0.2173  0.0382 -0.0001
  124MOL0     C16624   5.850   5.291  10.624  0.4368  0.1489  0.6375
  124MOL0     C16625   5.737   5.367  10.690 -0.1235 -0.1825  0.5588
  124MOL0     C16626   5.699   5.500  10.619  0.0577  0.5833  0.6821
  124MOL0     C16627   5.820   5.591  10.604 -0.4377 -0.5928  0.8309
  124MOL0     C16628   5.781   5.726  10.549  0.2162  0.4176 -0.4282
  124MOL0     O16629   5.710   5.804  10.652  0.2909  0.5698  0.9730
  124MOL0     C16630   5.595   5.862  10.617  0.2387 -0.1114  0.3027
  124MOL0     C16631   5.607   5.971  10.524 -0.0037  0.0866 -0.9878
  124MOL0     C16632   5.499   6.065  10.497  0.1746 -0.2453 -0.3943
  124MOL0     C16633   5.527   6.192  10.420 -0.5610  0.5561  0.2529
  124MOL0     C16634   5.363   6.027  10.537  0.1450 -0.1403 -0.2992
  124MOL0     C16635   5.236   6.099  10.508 -0.7274 -0.4765  0.4196
  124MOL0     O16636   5.122   6.052  10.573 -0.2088  0.3958 -0.6115
  124MOL0     C16637   5.001   6.113  10.542  0.1521  0.2596  0.4653
  124MOL0     C16638   4.949   6.111  10.418  0.5957  0.2847  0.2416
  124MOL0     C16639   4.823   6.159  10.396 -0.2647 -0.0425  0.2638
  124MOL0     C16640   4.745   6.214  10.499  0.1629  0.1647 -0.5279
  124MOL0     O16641   4.619   6.265  10.474  0.5655  0.0246  0.0918
  124MOL0     C16642   4.513   6.179  10.534  0.2296 -0.1818  0.0320
  124MOL0     C16643   4.368   6.229  10.511 -0.4387  0.1203 -0.4664
  124MOL0     C16644   4.254   6.132  10.536 -0.7838  0.6185  0.1975
  124MOL0     C16645   4.123   6.216  10.535  0.6576 -0.1020  0.2965
  124MOL0     C16646   3.999   6.123  10.548 -0.1297 -0.2393 -0.2061
  124MOL0     C16647   3.864   6.204  10.556 -0.3287 -0.3524 -0.6028
  124MOL0     C16648   3.849   6.272  10.692  0.7379 -0.7797 -0.3458
  124MOL0     C16649   3.734   6.370  10.702  0.1615 -0.4954 -0.1070
  124MOL0    Cl16650   3.704   6.422  10.867  0.7820 -0.0840 -0.0830
  124MOL0     C16651   4.797   6.224  10.625 -0.2753  0.6486 -0.3805
  124MOL0     C16652   4.927   6.181  10.648 -0.0203  0.9109  0.1997
  124MOL0     O16653   5.241   6.199  10.438 -0.4301 -0.2976 -0.1770
  124MOL0     C16654   5.362   5.911  10.619  0.3672 -0.2770  0.1904
  124MOL0     C16655   5.471   5.832  10.659  0.4505 -0.0297  0.6567
  124MOL0     N16656   5.833   5.210  10.510 -0.1850 -0.0887 -0.8675
  124MOL0     N16657   5.940   5.158  10.478 -0.0603  0.3686  0.1826
  124MOL0     C16658   6.670   5.110   9.639 -0.7641 -0.3082 -0.5009
  124MOL0     C16659   6.809   5.090   9.624 -1.3467  0.6371 -0.6590
  124MOL0     C16660   7.274   5.085   9.699  0.1851  0.2534  0.1060
  124MOL0     C16661   7.402   5.144   9.720 -0.4752  0.2095  0.5134
  124MOL0     C16662   7.523   5.072   9.718  0.6610  0.3180 -0.1191
  124MOL0     C16663   7.519   4.937   9.699 -1.0085  0.5497 -0.3330
  124MOL0     O16664   7.622   4.848   9.699  0.3563 -0.4281 -0.0515
  124MOL0     C16665   7.759   4.888   9.703 -0.2393  0.1304 -0.3015
  124MOL0     C16666   7.838   4.763   9.664  0.4820  0.6058 -0.2848
  124MOL0     C16667   7.811   4.650   9.771 -0.8154  0.8840  0.3789
  124MOL0     C16668   7.940   4.617   9.850 -0.2427  0.2812  0.4069
  124MOL0     C16669   8.035   4.538   9.777  0.3206  0.7380 -0.6159
  124MOL0     C16670   8.109   4.475   9.707 -0.5652  0.0469 -0.9515
  124MOL0     C16671   7.390   4.877   9.674 -0.2230 -0.1446  0.4384
  124MOL0     C16672   7.266   4.947   9.678  0.2575  0.1776 -0.2371
  124MOL0     H16673   6.948   5.290   9.854  0.9331  1.7117 -0.9073
  124MOL0     H16674   6.696   5.345   9.878 -2.0074 -0.2069  0.0464
  124MOL0     H16675   6.367   5.145   9.657 -0.8919  2.5044  0.7155
  124MOL0     H16676   6.447   5.062   9.795  0.5252  0.6753  1.2870
  124MOL0     H16677   6.264   5.309   9.819  1.9567  1.5189  0.4420
  124MOL0     H16678   6.198   5.148   9.806 -2.0541  1.0372  3.3007
  124MOL0     H16679   6.316   5.074  10.002  0.3435  0.4246 -2.3885
  124MOL0     H16680   6.422   5.216  10.006 -0.3301  0.0433  1.3529
  124MOL0     H16681   6.237   5.371  10.047  0.9060 -0.2974  0.3012
  124MOL0     H16682   6.124   5.249  10.058 -0.3975 -0.6736  0.2779
  124MOL0     H16683   6.268   5.129  10.233  1.5042  1.2803  1.7609
  124MOL0     H16684   6.379   5.263  10.232 -0.0525  1.2039 -0.0572
  124MOL0     H16685   6.178   5.430  10.280 -0.7286 -0.7030 -1.4701
  124MOL0     H16686   6.082   5.284  10.304  0.0690 -1.1606  1.9333
  124MOL0     H16687   6.343   5.318  10.453 -0.5389 -0.7114  1.4791
  124MOL0     H16688   6.207   5.405  10.514 -1.6222 -0.2978 -0.9885
  124MOL0     H16689   6.239   5.166  10.615  1.7005 -1.0404 -1.0427
  124MOL0     H16690   6.193   5.111  10.457  0.0457 -0.9288  0.4904
  124MOL0     H16691   6.030   5.338  10.739  2.1700 -0.7584 -0.6867
  124MOL0     H16692   5.647   5.305  10.683  1.3121 -2.4208  0.9716
  124MOL0     H16693   5.755   5.374  10.798 -1.2692  1.0245  0.6909
  124MOL0     H16694   5.614   5.556  10.661 -1.9371 -1.1400 -0.8548
  124MOL0     H16695   5.658   5.486  10.519 -3.1060  2.5307  1.5628
  124MOL0     H16696   5.884   5.537  10.534 -1.8542 -2.4019  0.8533
  124MOL0     H16697   5.874   5.599  10.699 -0.8517  3.5983  0.9023
  124MOL0     H16698   5.718   5.705  10.462 -1.0648  1.2794  0.2594
  124MOL0     H16699   5.874   5.777  10.523  0.5337  0.2716  0.3933
  124MOL0     H16700   5.702   5.993  10.476 -0.3819  1.6213 -1.0922
  124MOL0     H16701   5.505   6.178  10.314  1.2877  0.7233 -0.1845
  124MOL0     H16702   5.469   6.274  10.462  0.4629  1.3219  0.2137
  124MOL0     H16703   5.631   6.224  10.432 -0.8982  1.2523  1.5677
  124MOL0     H16704   4.991   6.071  10.326  0.3427  0.0469  0.2260
  124MOL0     H16705   4.785   6.152  10.295  1.9237  0.1140 -0.5981
  124MOL0     H16706   4.527   6.076  10.498 -1.3959 -0.8644  1.2115
  124MOL0     H16707   4.543   6.180  10.639  4.0693  0.6348 -0.8918
  124MOL0     H16708   4.349   6.310  10.581 -0.2628  3.6180 -4.1154
  124MOL0     H16709   4.364   6.276  10.412  0.2935  0.9717 -0.1092
  124MOL0     H16710   4.269   6.092  10.637  0.3834 -1.1779 -0.6437
  124MOL0     H16711   4.257   6.046  10.469 -1.4124  1.7484 -1.3445
  124MOL0     H16712   4.128   6.281  10.623  1.1771 -0.4193  0.5102
  124MOL0     H16713   4.111   6.265  10.439  1.6901  1.3231  0.8593
  124MOL0     H16714   4.013   6.063  10.638  1.9629  1.8612  0.9812
  124MOL0     H16715   4.003   6.050  10.467 -0.2789 -0.6609  0.1606
  124MOL0     H16716   3.865   6.282  10.479  3.2978  0.9054  0.5093
  124MOL0     H16717   3.778   6.138  10.544  0.4797 -1.5313 -0.0755
  124MOL0     H16718   3.932   6.340  10.714 -0.9208  1.4093 -0.5150
  124MOL0     H16719   3.839   6.203  10.776 -0.7932  1.0317  1.0481
  124MOL0     H16720   3.645   6.320  10.664 -0.2062 -1.5636  1.9955
  124MOL0     H16721   3.741   6.460  10.641 -1.1037  1.0658  1.9267
  124MOL0     H16722   4.755   6.267  10.715 -0.2805  0.2760 -0.2056
  124MOL0     H16723   4.966   6.191  10.748  2.8096 -0.3046 -0.6858
  124MOL0     H16724   5.263   5.895  10.660  0.6406 -1.0128  0.5904
  124MOL0     H16725   5.457   5.746  10.723  3.7658 -1.0686  0.1738
  124MOL0     H16726   6.607   5.045   9.580  2.7451 -3.0337 -1.6405
  124MOL0     H16727   6.850   5.007   9.566  1.2621  0.5277  1.1711
  124MOL0     H16728   7.408   5.251   9.738 -1.1798  0.3982 -0.3377
  124MOL0     H16729   7.612   5.134   9.726 -0.9646  3.2751 -2.4757
  124MOL0     H16730   7.786   4.968   9.633  0.9995 -2.7017 -3.3140
  124MOL0     H16731   7.789   4.917   9.804  0.4707  1.8647 -0.9744
  124MOL0     H16732   7.945   4.785   9.654  1.2304 -1.2004  2.6074
  124MOL0     H16733   7.808   4.741   9.561  2.2925 -3.2060 -0.1495
  124MOL0     H16734   7.776   4.561   9.717 -0.7092  0.8884  0.3050
  124MOL0     H16735   7.728   4.684   9.834 -1.8847  1.1532 -1.1009
  124MOL0     H16736   7.895   4.556   9.929  0.8175 -1.7868 -0.4915
  124MOL0     H16737   7.990   4.705   9.891  2.0750  0.5126 -2.5946
  124MOL0     H16738   8.176   4.415   9.650  3.6238  0.5687  2.8768
  124MOL0     H16739   7.375   4.769   9.673 -5.0332  0.2889  0.0790
  124MOL0     H16740   7.168   4.903   9.667 -0.2499  0.9528  0.9435
  125MOL0     O16741   2.457   3.894   2.015  0.3401  0.2389  0.3148
  125MOL0     C16742   2.482   4.009   2.048  0.0531 -0.5901 -0.3417
  125MOL0     O16743   2.396   4.099   2.108  0.7365 -0.2102 -0.5055
  125MOL0     C16744   2.261   4.081   2.120 -0.3603 -0.4447  0.8969
  125MOL0     C16745   2.182   4.016   2.023  1.3070 -1.0603  1.4533
  125MOL0     C16746   2.045   4.015   2.042  0.3941 -0.5841 -0.2037
  125MOL0     C16747   1.982   4.072   2.151 -0.1780 -0.4271  0.4808
  125MOL0     O16748   1.841   4.066   2.174 -0.2208  0.6772  0.5777
  125MOL0     C16749   1.785   3.945   2.229  0.2032  0.1004 -1.2724
  125MOL0     C16750   1.710   3.867   2.113  0.3954 -0.7459 -0.8479
  125MOL0     C16751   1.589   3.948   2.070 -0.2578 -0.0979 -0.7821
  125MOL0     C16752   1.523   3.901   1.942 -0.8595  0.2494  0.2982
  125MOL0     C16753   1.403   3.985   1.883 -1.0440  0.4127 -0.2546
  125MOL0     C16754   1.319   3.895   1.793 -0.2257 -0.9441 -0.3583
  125MOL0     C16755   1.207   3.981   1.735  0.2751  0.6073 -0.6477
  125MOL0     C16756   1.116   3.903   1.628 -0.7734  0.1992 -0.3117
  125MOL0     N16757   0.997   3.842   1.701  0.9606 -0.3906  0.0255
  125MOL0     C16758   1.001   3.772   1.818 -0.1927  0.2397  0.6714
  125MOL0     C16759   0.875   3.766   1.850  0.3450  0.4181 -0.8627
  125MOL0     C16760   0.828   3.702   1.974  0.5925 -0.3425 -0.9199
  125MOL0     C16761   0.746   3.561   1.948  0.3193 -0.8627 -0.1267
  125MOL0     C16762   0.831   3.446   1.890  0.4946  0.0492  0.0336
  125MOL0     C16763   0.937   3.403   1.991 -0.2554  0.6948  0.4741
  125MOL0     O16764   1.000   3.287   1.935 -0.0338 -0.1702  0.4876
  125MOL0     C16765   1.116   3.237   1.984  0.0054 -0.0085 -1.3627
  125MOL0     C16766   1.152   3.109   1.950  0.5362 -0.1656  0.4494
  125MOL0     C16767   1.258   3.035   2.006  0.4997  0.7420  0.0903
  125MOL0     C16768   1.268   2.898   1.944 -0.4465 -0.0802 -0.8158
  125MOL0     C16769   1.346   3.091   2.110  1.0132 -1.0360  0.5879
  125MOL0     C16770   1.462   3.026   2.159 -0.5860 -0.3218  0.4016
  125MOL0     O16771   1.545   3.095   2.245  0.9150 -0.0849 -0.7881
  125MOL0     C16772   1.647   3.026   2.304  0.2331  0.6513 -0.0475
  125MOL0     C16773   1.643   2.964   2.432 -0.7714  0.4055  1.0090
  125MOL0     C16774   1.759   2.901   2.475  0.5854  0.0386 -0.3517
  125MOL0     C16775   1.870   2.878   2.395 -0.4660 -0.1320  0.1471
  125MOL0     O16776   1.981   2.802   2.430  0.2536  0.1668 -0.0681
  125MOL0     C16777   1.948   2.696   2.523  0.4666  0.3627 -0.0179
  125MOL0     C16778   2.072   2.604   2.545 -0.0019  0.4103  0.4559
  125MOL0     C16779   2.043   2.481   2.623  0.2129  0.3672 -0.2591
  125MOL0     C16780   2.161   2.393   2.660  0.0765 -0.4257  0.6430
  125MOL0     C16781   2.237   2.309   2.555  0.0341 -0.2507 -0.2051
  125MOL0     C16782   2.368   2.255   2.614  0.6898  0.3283  0.2064
  125MOL0     C16783   2.411   2.144   2.518 -0.2240  0.6941 -0.0114
  125MOL0     C16784   2.568   2.118   2.510 -0.2712  0.2842  0.2469
  125MOL0    Cl16785   2.598   1.972   2.403  0.1544 -0.1318 -0.0748
  125MOL0     C16786   1.878   2.942   2.266  0.0019  0.0142 -1.1334
  125MOL0     C16787   1.758   3.012   2.225 -0.4448 -0.8427 -0.0127
  125MOL0     O16788   1.476   2.908   2.132 -0.3872 -0.0918  0.0450
  125MOL0     C16789   1.315   3.227   2.144 -0.2868 -0.1295  0.1373
  125MOL0     C16790   1.204   3.295   2.083 -0.1187  0.3310 -0.6555
  125MOL0     N16791   0.790   3.828   1.764  0.1435 -0.5404  0.3711
  125MOL0     N16792   0.868   3.868   1.671  0.6335 -0.3132  0.0756
  125MOL0     C16793   2.054   4.138   2.244  0.0702  0.4586 -0.4646
  125MOL0     C16794   2.194   4.143   2.229 -0.7127 -0.3410  0.3347
  125MOL0     C16795   2.624   4.052   2.031 -0.1772  0.3897 -0.2787
  125MOL0     C16796   2.711   3.978   1.953  0.1943  0.4783 -0.1559
  125MOL0     C16797   2.843   4.018   1.931 -0.1354  0.0089 -0.1440
  125MOL0     C16798   2.892   4.135   1.989 -0.7145 -0.3983 -0.6961
  125MOL0     O16799   3.022   4.167   1.977 -0.9896  0.0559  0.2702
  125MOL0     C16800   3.115   4.104   1.894  0.5407 -0.0826 -0.2104
  125MOL0     C16801   3.253   4.172   1.920  0.2841 -0.1240  0.1975
  125MOL0     C16802   3.378   4.095   1.865  0.3281  0.8722 -0.5948
  125MOL0     C16803   3.500   4.186   1.899  0.5847  0.0483 -0.0973
  125MOL0     C16804   3.627   4.129   1.860  0.1333  0.3939 -0.1104
  125MOL0     C16805   3.736   4.088   1.834  0.0648 -0.5303  0.0357
  125MOL0     C16806   2.806   4.192   2.089 -0.9233  0.9498  0.2080
  125MOL0     C16807   2.673   4.159   2.105  0.0439  0.1649  0.2102
  125MOL0     H16808   2.217   3.971   1.931 -0.2110 -1.7956  1.2036
  125MOL0     H16809   1.986   3.974   1.961  0.4908  0.3972 -0.7871
  125MOL0     H16810   1.868   3.892   2.277  1.7538  1.6004 -2.1681
  125MOL0     H16811   1.705   3.971   2.299  0.3374  0.7243 -1.3485
  125MOL0     H16812   1.784   3.858   2.033  1.0678  1.0406 -0.4533
  125MOL0     H16813   1.680   3.770   2.154  0.1396 -0.4062 -0.2239
  125MOL0     H16814   1.514   3.944   2.149  0.9980  1.6685  0.5745
  125MOL0     H16815   1.632   4.045   2.045 -3.0284  1.8410  1.3222
  125MOL0     H16816   1.599   3.905   1.863 -2.4349  3.3087 -1.2669
  125MOL0     H16817   1.491   3.797   1.957  1.4380 -0.3463  1.5023
  125MOL0     H16818   1.347   4.036   1.962 -0.1417 -0.3574  0.9165
  125MOL0     H16819   1.446   4.064   1.821  1.8325 -0.8093  0.0192
  125MOL0     H16820   1.377   3.866   1.705 -1.9150 -1.7461 -1.2565
  125MOL0     H16821   1.291   3.806   1.849 -1.1783 -0.3783  0.0977
  125MOL0     H16822   1.138   4.029   1.806 -1.3181 -2.0946 -0.2376
  125MOL0     H16823   1.259   4.067   1.691  5.9197  0.4188  4.3857
  125MOL0     H16824   1.183   3.831   1.578 -0.3154 -0.2138  0.8683
  125MOL0     H16825   1.081   3.970   1.548  1.7104  1.2139 -0.6459
  125MOL0     H16826   1.081   3.736   1.881  0.3291 -0.4360 -0.3411
  125MOL0     H16827   0.903   3.697   2.054  0.3317  0.8309 -0.5827
  125MOL0     H16828   0.757   3.772   2.020  0.4813 -1.0127 -0.0364
  125MOL0     H16829   0.670   3.588   1.874  1.2454  0.6166 -0.5894
  125MOL0     H16830   0.709   3.523   2.043 -0.0503 -0.3080 -0.0436
  125MOL0     H16831   0.882   3.484   1.801 -1.4917 -0.4323 -1.3862
  125MOL0     H16832   0.767   3.363   1.859 -1.1555  1.4631 -0.5137
  125MOL0     H16833   0.885   3.387   2.086 -1.0409  1.9569  0.2700
  125MOL0     H16834   1.010   3.484   1.999 -0.9422  1.4328 -0.5862
  125MOL0     H16835   1.082   3.067   1.878 -1.8367  2.0128  1.3095
  125MOL0     H16836   1.369   2.888   1.903  0.5363 -1.0132  1.6396
  125MOL0     H16837   1.246   2.826   2.023 -1.5273 -2.6384 -3.2912
  125MOL0     H16838   1.195   2.873   1.866 -1.2870  2.5999 -0.9859
  125MOL0     H16839   1.551   2.968   2.490 -1.1455  1.0998  0.3852
  125MOL0     H16840   1.748   2.858   2.574 -1.4422  1.5055  0.1292
  125MOL0     H16841   1.915   2.730   2.621  1.2341 -0.8115  0.6872
  125MOL0     H16842   1.870   2.633   2.478  0.9580 -2.4712  2.7255
  125MOL0     H16843   2.110   2.575   2.447 -0.3861 -0.5758  0.5813
  125MOL0     H16844   2.157   2.656   2.588  1.5660 -1.5053 -0.1772
  125MOL0     H16845   1.976   2.420   2.561 -0.6104  1.6304 -0.6479
  125MOL0     H16846   1.990   2.521   2.710 -2.1107  2.6770 -2.5470
  125MOL0     H16847   2.224   2.472   2.701  1.2017  0.7360 -2.9396
  125MOL0     H16848   2.129   2.326   2.740 -3.7437  1.4742  0.9713
  125MOL0     H16849   2.252   2.376   2.470  0.4903  2.0149  1.5368
  125MOL0     H16850   2.172   2.225   2.531 -0.2933 -0.4083  1.1505
  125MOL0     H16851   2.442   2.334   2.631 -1.8639  2.9298  0.0737
  125MOL0     H16852   2.358   2.207   2.712  2.5164  0.7341  0.6498
  125MOL0     H16853   2.372   2.155   2.417 -1.7179  1.7933  0.6424
  125MOL0     H16854   2.376   2.051   2.564  1.9245  0.0285  0.4151
  125MOL0     H16855   2.601   2.108   2.613  2.7536  1.4841 -0.4973
  125MOL0     H16856   2.623   2.202   2.467  0.1743  0.4715  1.1676
  125MOL0     H16857   1.962   2.923   2.199  1.2115 -1.0368  0.5820
  125MOL0     H16858   1.755   3.063   2.129  0.3192  1.1980  1.0087
  125MOL0     H16859   1.366   3.280   2.224  1.3934  0.4547 -1.2600
  125MOL0     H16860   1.180   3.394   2.121  3.9500  0.6882  1.4851
  125MOL0     H16861   2.006   4.187   2.329  0.7738  1.1638 -0.4626
  125MOL0     H16862   2.257   4.188   2.304  0.1852 -0.1649 -0.5032
  125MOL0     H16863   2.684   3.898   1.885 -1.1114  0.6685  0.1193
  125MOL0     H16864   2.898   3.948   1.867  0.4756  1.5224 -1.3312
  125MOL0     H16865   3.124   3.999   1.922 -0.0969 -0.4035 -1.1510
  125MOL0     H16866   3.073   4.103   1.793 -1.9580  1.5111  0.7066
  125MOL0     H16867   3.261   4.191   2.027 -1.7341  1.6392  0.1105
  125MOL0     H16868   3.244   4.268   1.870 -4.7111  0.0937  0.9650
  125MOL0     H16869   3.351   4.084   1.760 -1.3234  0.3478 -0.1519
  125MOL0     H16870   3.382   3.994   1.909  3.4158  0.4991 -1.5021
  125MOL0     H16871   3.504   4.198   2.008 -0.0268 -0.3938 -0.0225
  125MOL0     H16872   3.472   4.282   1.854 -1.4401 -0.3852  0.1319
  125MOL0     H16873   3.831   4.054   1.797  0.7612  2.2177 -0.9411
  125MOL0     H16874   2.848   4.275   2.145  0.1782 -0.5985  1.7757
  125MOL0     H16875   2.603   4.217   2.165 -0.5539 -1.6795  1.3716
  126MOL0     O16876   4.514   3.224   1.650  0.0383  0.5264  0.0200
  126MOL0     C16877   4.629   3.261   1.670 -0.9313  0.0983 -0.8877
  126MOL0     O16878   4.663   3.331   1.769 -0.4158  0.0692 -0.0355
  126MOL0     C16879   4.565   3.361   1.859 -0.7496 -0.6229 -0.7205
  126MOL0     C16880   4.551   3.494   1.894 -0.1911 -0.6828  0.0164
  126MOL0     C16881   4.434   3.527   1.964  0.0011  0.2169 -0.8135
  126MOL0     C16882   4.345   3.437   2.014 -0.3227 -0.0916  0.4786
  126MOL0     O16883   4.230   3.489   2.073  0.2678 -0.0204  0.0934
  126MOL0     C16884   4.107   3.424   2.027 -0.8492 -0.3500 -0.7606
  126MOL0     C16885   3.986   3.500   2.074  0.6376 -0.1712  0.9383
  126MOL0     C16886   3.994   3.652   2.069 -0.0607  0.2048 -0.3897
  126MOL0     C16887   3.862   3.716   2.125  0.3387  0.4720 -0.3960
  126MOL0     C16888   3.882   3.869   2.138  0.3200  0.1857  0.1222
  126MOL0     C16889   3.764   3.938   2.201  0.2177 -1.0849  0.0976
  126MOL0     C16890   3.759   3.899   2.358  0.5778 -1.8938  1.0777
  126MOL0     C16891   3.675   4.011   2.429  0.0346  0.2841  0.6092
  126MOL0     N16892   3.547   4.046   2.360  0.0615  0.4094 -0.2893
  126MOL0     C16893   3.439   3.956   2.342 -0.0819  0.4382 -0.2243
  126MOL0     C16894   3.350   4.019   2.258  0.2464  0.7655  0.3512
  126MOL0     C16895   3.222   3.959   2.203 -0.9115 -0.0265  0.3390
  126MOL0     C16896   3.170   3.850   2.286 -0.6776  0.3105  0.0416
  126MOL0     C16897   3.044   3.793   2.228  0.3439 -0.1401  0.5299
  126MOL0     C16898   2.925   3.871   2.268 -0.0645 -0.5644 -0.3471
  126MOL0     O16899   2.882   3.834   2.402 -0.7782  0.0987 -0.4953
  126MOL0     C16900   2.754   3.857   2.444 -0.6177  0.7669 -0.3141
  126MOL0     C16901   2.727   3.831   2.573 -0.4250  0.0100  0.0868
  126MOL0     C16902   2.602   3.855   2.632  0.2111 -0.2779 -1.1838
  126MOL0     C16903   2.597   3.818   2.786  0.3774  0.2070 -0.5215
  126MOL0     C16904   2.494   3.898   2.550 -0.7520 -0.3776 -0.5006
  126MOL0     C16905   2.358   3.926   2.598 -0.3516 -0.6866  0.3489
  126MOL0     O16906   2.288   4.023   2.522 -0.7294  0.3107 -0.3406
  126MOL0     C16907   2.180   4.073   2.590 -0.3075 -0.5312  0.1837
  126MOL0     C16908   2.056   4.018   2.559 -0.3059 -1.0756  0.3919
  126MOL0     C16909   1.949   4.079   2.611  0.3770  0.6445 -0.6666
  126MOL0     C16910   1.957   4.174   2.712  0.7128 -1.1790 -0.3162
  126MOL0     O16911   1.851   4.221   2.777  0.9072  0.2265 -0.3933
  126MOL0     C16912   1.777   4.322   2.717 -1.2631 -0.1555 -0.1806
  126MOL0     C16913   1.633   4.297   2.675  0.0784 -0.1012 -0.3556
  126MOL0     C16914   1.549   4.264   2.798  0.1366 -0.3246 -0.8543
  126MOL0     C16915   1.392   4.266   2.774  0.3641  0.5489 -0.0814
  126MOL0     C16916   1.316   4.239   2.895 -0.0067  0.6377  0.1488
  126MOL0     C16917   1.329   4.360   2.993 -0.0067  0.3848 -0.2768
  126MOL0     C16918   1.248   4.350   3.131 -0.0050 -0.3299 -0.2028
  126MOL0     C16919   1.273   4.477   3.213 -0.0884  0.5121 -0.4550
  126MOL0    Cl16920   1.205   4.621   3.145 -0.0941 -0.2742 -0.0328
  126MOL0     C16921   2.079   4.226   2.744  0.1790 -0.2715 -0.0578
  126MOL0     C16922   2.198   4.175   2.686  0.5245  1.1798  0.1337
  126MOL0     O16923   2.322   3.875   2.702 -0.2725 -0.4759  0.3495
  126MOL0     C16924   2.520   3.921   2.416 -1.0512  0.1616 -0.2055
  126MOL0     C16925   2.646   3.893   2.359 -0.7758  0.8580 -0.1669
  126MOL0     N16926   3.394   4.149   2.239  0.4920  0.4796 -0.6695
  126MOL0     N16927   3.510   4.155   2.298  0.5657 -0.1600 -0.1115
  126MOL0     C16928   4.378   3.304   2.001 -0.8780 -0.3494  0.3655
  126MOL0     C16929   4.479   3.269   1.918  0.1863  0.4650 -0.1912
  126MOL0     C16930   4.739   3.202   1.589 -0.1040 -0.7240 -0.4140
  126MOL0     C16931   4.873   3.249   1.594 -0.1974  0.2429  0.2213
  126MOL0     C16932   4.977   3.188   1.520 -0.5577  0.2383 -0.0174
  126MOL0     C16933   4.945   3.091   1.426 -0.2682  0.1175  0.1107
  126MOL0     O16934   5.036   3.047   1.331  0.0042 -0.2724  0.0602
  126MOL0     C16935   5.071   3.142   1.230 -0.2360  0.2926  0.4881
  126MOL0     C16936   5.219   3.154   1.202  0.1135  1.2448 -0.6880
  126MOL0     C16937   5.294   3.022   1.214  1.2551 -0.1673 -0.4828
  126MOL0     C16938   5.431   3.034   1.156 -0.7089  0.3973 -0.1714
  126MOL0     C16939   5.437   3.026   1.013 -0.2163 -0.3245  0.2163
  126MOL0     C16940   5.435   3.024   0.894  0.0206 -0.4798  0.0102
  126MOL0     C16941   4.818   3.040   1.417 -0.3201  0.0775  0.3193
  126MOL0     C16942   4.716   3.096   1.496 -0.7170  0.4475  0.1360
  126MOL0     H16943   4.618   3.562   1.841  1.0258  0.6023  2.9867
  126MOL0     H16944   4.411   3.632   1.979  0.4942  0.2782 -0.4909
  126MOL0     H16945   4.118   3.426   1.918 -2.1896  2.2715 -0.9061
  126MOL0     H16946   4.099   3.320   2.061  0.6673 -0.8879 -1.9308
  126MOL0     H16947   3.902   3.464   2.014 -0.8625 -1.4797  3.6576
  126MOL0     H16948   3.964   3.477   2.178  0.6402  0.5361  1.0958
  126MOL0     H16949   4.079   3.689   2.126  0.2297 -1.8936  0.6496
  126MOL0     H16950   4.013   3.688   1.968  0.2439  1.1125 -0.0169
  126MOL0     H16951   3.774   3.710   2.060 -0.2697  0.7757  0.3802
  126MOL0     H16952   3.841   3.679   2.225  1.9664  5.0462  1.9590
  126MOL0     H16953   3.979   3.893   2.183  0.9810  0.4855 -1.4181
  126MOL0     H16954   3.882   3.890   2.031 -1.2298 -3.2504 -0.6969
  126MOL0     H16955   3.770   4.047   2.193 -1.3292 -1.0306 -0.6426
  126MOL0     H16956   3.676   3.920   2.139  1.2530 -1.2020 -1.3841
  126MOL0     H16957   3.701   3.807   2.367 -1.8569 -0.8057 -1.7173
  126MOL0     H16958   3.854   3.905   2.412 -0.0360 -1.6191  2.1399
  126MOL0     H16959   3.736   4.102   2.434  1.2899 -0.5969  3.2947
  126MOL0     H16960   3.654   3.983   2.533  0.6942 -3.1520 -0.0788
  126MOL0     H16961   3.444   3.854   2.379  0.9863 -0.0599 -1.6890
  126MOL0     H16962   3.154   4.045   2.205 -1.2712 -0.1911 -2.1073
  126MOL0     H16963   3.238   3.926   2.100 -0.4415  1.4958 -0.1030
  126MOL0     H16964   3.145   3.873   2.390 -1.1957  1.4609 -0.3286
  126MOL0     H16965   3.248   3.773   2.290 -1.5332 -0.6058 -0.3088
  126MOL0     H16966   3.037   3.686   2.250 -1.4173 -0.1444  0.0636
  126MOL0     H16967   3.054   3.791   2.119 -1.1953  0.0314  0.3691
  126MOL0     H16968   2.854   3.847   2.189  0.6270  1.3800 -1.6380
  126MOL0     H16969   2.950   3.978   2.275  0.4638 -0.7266  0.3956
  126MOL0     H16970   2.819   3.808   2.625 -0.4677  1.6828  0.9402
  126MOL0     H16971   2.511   3.756   2.813  1.0582 -1.0240 -1.0808
  126MOL0     H16972   2.694   3.777   2.815 -0.4749 -1.1754  0.4777
  126MOL0     H16973   2.584   3.908   2.847 -0.2019 -1.2131  1.5567
  126MOL0     H16974   2.043   3.945   2.480  0.2910 -0.7126 -0.0511
  126MOL0     H16975   1.846   4.052   2.590  0.5811  0.5018 -1.5304
  126MOL0     H16976   1.776   4.405   2.789 -2.9400 -0.9429  0.7783
  126MOL0     H16977   1.822   4.365   2.627 -2.3293  0.1444 -0.5924
  126MOL0     H16978   1.593   4.378   2.613 -2.7565 -2.0593 -1.2661
  126MOL0     H16979   1.632   4.215   2.603 -1.1350  0.8224 -1.4319
  126MOL0     H16980   1.581   4.335   2.875 -2.1515 -0.3899  0.2615
  126MOL0     H16981   1.580   4.164   2.830  0.3278  0.5544  2.0556
  126MOL0     H16982   1.357   4.361   2.733 -0.4510 -0.4887 -1.9447
  126MOL0     H16983   1.370   4.182   2.707  2.5133 -0.3739  0.3164
  126MOL0     H16984   1.364   4.156   2.948 -0.2103  0.1178 -0.4614
  126MOL0     H16985   1.211   4.221   2.870 -0.0913 -1.0704  1.5412
  126MOL0     H16986   1.434   4.388   2.999  0.7951 -2.1472 -1.2294
  126MOL0     H16987   1.283   4.441   2.935 -0.9115  0.2411  0.2115
  126MOL0     H16988   1.267   4.255   3.182 -2.8882  0.2193  2.1637
  126MOL0     H16989   1.142   4.355   3.105 -0.1240  0.4354  0.3950
  126MOL0     H16990   1.380   4.483   3.239 -0.5487  1.2629  1.4036
  126MOL0     H16991   1.222   4.466   3.309 -1.1239 -0.5384 -1.1115
  126MOL0     H16992   2.099   4.313   2.805  0.5716 -1.8413  2.1776
  126MOL0     H16993   2.294   4.214   2.717  1.6289 -2.4341  1.7922
  126MOL0     H16994   2.442   3.965   2.355 -0.8725 -0.7333 -1.0970
  126MOL0     H16995   2.677   3.894   2.255  1.6048 -1.6663  0.4002
  126MOL0     H16996   4.316   3.223   2.040  0.1320 -1.3808 -0.1205
  126MOL0     H16997   4.505   3.166   1.895 -0.7266 -0.9308  4.1778
  126MOL0     H16998   4.894   3.337   1.654  0.7279  0.4124 -0.3403
  126MOL0     H16999   5.077   3.223   1.543 -0.8962 -0.0501  2.1483
  126MOL0     H17000   5.037   3.110   1.131 -2.6062  0.2223  1.2482
  126MOL0     H17001   5.022   3.238   1.249 -4.2588 -1.0082 -2.0642
  126MOL0     H17002   5.255   3.206   1.291 -1.4617  0.4657  0.4586
  126MOL0     H17003   5.236   3.209   1.109  3.5312  1.3265 -0.1317
  126MOL0     H17004   5.238   2.937   1.173  0.6648 -1.1809  2.2101
  126MOL0     H17005   5.287   2.990   1.318 -0.4366  0.5294 -0.3468
  126MOL0     H17006   5.496   2.951   1.187  0.5456 -0.0973 -3.6652
  126MOL0     H17007   5.473   3.129   1.191  2.3820 -0.7586 -0.4111
  126MOL0     H17008   5.433   3.008   0.789 -0.1632  3.8543 -0.8578
  126MOL0     H17009   4.796   2.967   1.340 -1.2304 -0.0916  0.7326
  126MOL0     H17010   4.614   3.062   1.482 -1.0778  0.7047  1.8842
  127MOL0     O17011   0.166   9.131   5.158  0.4675  1.0401  0.2554
  127MOL0     C17012   0.159   9.076   5.264 -0.6725  0.2713 -0.3889
  127MOL0     O17013   0.051   9.079   5.345  0.1624 -0.1086  0.4338
  127MOL0     C17014  -0.052   9.155   5.300 -0.0326  0.0780 -0.1108
  127MOL0     C17015  -0.166   9.099   5.232  0.5080  0.0299  0.8408
  127MOL0     C17016  -0.268   9.184   5.179  0.2037 -0.5906 -0.1227
  127MOL0     C17017  -0.261   9.323   5.202  0.6578  0.2190  0.7492
  127MOL0     O17018  -0.361   9.399   5.145 -0.0201  0.8091  0.2088
  127MOL0     C17019  -0.373   9.534   5.204  0.7488 -0.2472  0.7780
  127MOL0     C17020  -0.512   9.598   5.181 -0.6949 -0.6900  0.3010
  127MOL0     C17021  -0.628   9.522   5.251 -0.9633  1.1157  0.4491
  127MOL0     C17022  -0.761   9.576   5.221  0.0476  0.2844 -0.0567
  127MOL0     C17023  -0.866   9.505   5.303 -0.4737  0.3259 -0.0377
  127MOL0     C17024  -0.879   9.357   5.291  0.2008  0.1756 -0.3242
  127MOL0     C17025  -1.028   9.307   5.328 -1.2534 -0.1471  0.7110
  127MOL0     C17026  -1.043   9.318   5.483 -0.1041  0.4096  0.3591
  127MOL0     N17027  -1.187   9.293   5.522  0.1847 -0.4105 -0.1393
  127MOL0     C17028  -1.225   9.194   5.607  0.2782 -0.3826  0.2555
  127MOL0     C17029  -1.341   9.228   5.662 -0.3198 -0.6340 -0.9503
  127MOL0     C17030  -1.403   9.141   5.770 -0.3963  0.5879 -0.3073
  127MOL0     C17031  -1.554   9.116   5.764 -0.1150  0.4956 -0.2568
  127MOL0     C17032  -1.608   9.036   5.643 -0.3077  0.5409  0.8097
  127MOL0     C17033  -1.756   9.023   5.669  0.2198  0.4807  0.2934
  127MOL0     O17034  -1.768   8.929   5.781  0.4649  0.4152  0.4286
  127MOL0     C17035  -1.894   8.890   5.833  0.9919 -0.6335 -0.2449
  127MOL0     C17036  -1.896   8.788   5.927 -0.2958  1.1605  0.2716
  127MOL0     C17037  -2.012   8.743   5.985  0.4760  0.4059 -0.5882
  127MOL0     C17038  -1.988   8.648   6.097 -1.1390  0.1118  0.8489
  127MOL0     C17039  -2.140   8.796   5.948 -0.0284  0.0640 -0.1696
  127MOL0     C17040  -2.277   8.758   5.992  1.2008  0.6409 -0.4647
  127MOL0     O17041  -2.385   8.832   5.955 -0.1299  0.4731  0.0838
  127MOL0     C17042  -2.512   8.813   6.001 -0.6355  0.4534  0.0693
  127MOL0     C17043  -2.615   8.851   5.919 -0.2685  0.4591 -0.5200
  127MOL0     C17044  -2.755   8.843   5.961 -1.4048  0.5636  1.3195
  127MOL0     C17045  -2.778   8.803   6.091 -0.2080 -0.9453 -0.4418
  127MOL0     O17046  -2.905   8.817   6.142 -0.5032 -0.4325 -0.8557
  127MOL0     C17047  -2.972   8.689   6.148 -0.3081 -0.5928 -0.1977
  127MOL0     C17048  -3.037   8.668   6.283 -0.6162  0.3505 -0.0778
  127MOL0     C17049  -3.188   8.646   6.290 -0.2015 -0.0023  0.1488
  127MOL0     C17050  -3.240   8.615   6.425  1.0686 -0.0206 -0.6787
  127MOL0     C17051  -3.395   8.577   6.432 -0.1595  0.3927 -0.4744
  127MOL0     C17052  -3.479   8.705   6.407 -0.4902 -0.1913 -0.2546
  127MOL0     C17053  -3.477   8.798   6.536  0.5911  0.2562 -0.3522
  127MOL0     C17054  -3.534   8.933   6.491 -0.0134 -0.2246 -0.2020
  127MOL0    Cl17055  -3.697   8.916   6.399 -0.2435 -0.0652 -0.5450
  127MOL0     C17056  -2.678   8.772   6.186 -0.4588  0.2602  0.3528
  127MOL0     C17057  -2.545   8.779   6.134 -0.1639  1.2609 -0.3771
  127MOL0     O17058  -2.281   8.657   6.057 -0.6086  0.9687 -0.4431
  127MOL0     C17059  -2.135   8.905   5.853 -0.8079  0.6914  0.1297
  127MOL0     C17060  -2.014   8.949   5.803  0.5535  0.0322  0.2485
  127MOL0     N17061  -1.387   9.345   5.600 -1.1464 -0.6195 -0.0857
  127MOL0     N17062  -1.286   9.386   5.525  0.6198 -0.3051 -0.2911
  127MOL0     C17063  -0.147   9.376   5.262 -0.4284 -0.4401  0.1574
  127MOL0     C17064  -0.052   9.285   5.322  0.7705 -0.8252  0.1798
  127MOL0     C17065   0.279   9.004   5.306 -0.4092  1.0222  0.8486
  127MOL0     C17066   0.375   8.957   5.211  0.0951 -0.5069 -0.3609
  127MOL0     C17067   0.481   8.881   5.237 -0.0932 -0.4775 -0.0212
  127MOL0     C17068   0.510   8.836   5.370  0.1373 -0.4971  0.0438
  127MOL0     O17069   0.606   8.737   5.396  0.8197  0.1263 -0.4154
  127MOL0     C17070   0.731   8.785   5.347  0.6357  0.3605 -0.5233
  127MOL0     C17071   0.844   8.697   5.406  0.4866 -0.2282  0.7339
  127MOL0     C17072   0.854   8.682   5.559  0.3043 -0.0554 -0.1445
  127MOL0     C17073   0.972   8.606   5.586 -0.3876  0.4035  0.1699
  127MOL0     C17074   1.027   8.624   5.715  0.9086  0.1713  0.0535
  127MOL0     C17075   1.072   8.659   5.826  0.6871 -0.0018  0.8692
  127MOL0     C17076   0.415   8.882   5.470 -0.5635 -0.6624 -0.2979
  127MOL0     C17077   0.300   8.956   5.433  0.3552  0.2977  0.1256
  127MOL0     H17078  -0.183   8.994   5.207 -1.2791  0.6195 -0.6814
  127MOL0     H17079  -0.359   9.143   5.135 -1.4010  1.2820  1.2972
  127MOL0     H17080  -0.361   9.531   5.312 -1.8432  1.1545  1.1724
  127MOL0     H17081  -0.295   9.598   5.162 -0.8573  1.5658  0.4524
  127MOL0     H17082  -0.512   9.698   5.226  1.8183 -1.2761  1.8471
  127MOL0     H17083  -0.537   9.597   5.075  0.6259 -0.7446 -0.0252
  127MOL0     H17084  -0.632   9.418   5.218  1.0505  0.9212  0.6568
  127MOL0     H17085  -0.599   9.528   5.357  3.9186 -1.0209 -0.4774
  127MOL0     H17086  -0.765   9.683   5.243 -1.2594  0.0367  1.0393
  127MOL0     H17087  -0.786   9.566   5.114 -0.8644 -2.7769  0.3367
  127MOL0     H17088  -0.848   9.530   5.408  1.1935  1.3620 -0.5346
  127MOL0     H17089  -0.966   9.547   5.289 -0.0993  1.8584  1.5022
  127MOL0     H17090  -0.835   9.323   5.196 -0.9157 -0.5541 -0.5986
  127MOL0     H17091  -0.821   9.309   5.370  1.0994 -2.5554 -2.4971
  127MOL0     H17092  -1.093   9.376   5.273  0.4569  0.3024 -0.8565
  127MOL0     H17093  -1.053   9.209   5.285  1.2176  0.0190 -1.3436
  127MOL0     H17094  -1.011   9.419   5.507  2.4798  0.2796 -2.0667
  127MOL0     H17095  -0.980   9.243   5.532  0.6854  0.1931 -0.9333
  127MOL0     H17096  -1.169   9.106   5.638  1.9529  0.2730 -0.7563
  127MOL0     H17097  -1.362   9.040   5.764 -0.3235  0.6970 -2.1026
  127MOL0     H17098  -1.375   9.182   5.867 -0.6313 -1.8224  0.8371
  127MOL0     H17099  -1.608   9.212   5.764 -1.0795  0.1311 -3.9842
  127MOL0     H17100  -1.584   9.060   5.853 -1.3252 -0.3224 -1.1430
  127MOL0     H17101  -1.569   8.934   5.647 -1.7517 -0.0061  1.8029
  127MOL0     H17102  -1.597   9.087   5.546 -2.6347  0.1937  0.3097
  127MOL0     H17103  -1.801   8.973   5.582  1.2472 -0.4045  0.2431
  127MOL0     H17104  -1.804   9.121   5.676 -0.3786  0.4334 -2.0281
  127MOL0     H17105  -1.810   8.725   5.946 -0.3465 -0.2989 -3.4071
  127MOL0     H17106  -1.895   8.591   6.087 -1.4661 -0.6218  1.9233
  127MOL0     H17107  -1.979   8.693   6.196 -0.3480  1.1840  0.3242
  127MOL0     H17108  -2.067   8.573   6.088  0.9295 -1.9891 -1.3620
  127MOL0     H17109  -2.602   8.881   5.815  2.6992 -0.4952 -0.5072
  127MOL0     H17110  -2.835   8.872   5.895 -1.7561 -3.0568 -0.1070
  127MOL0     H17111  -3.046   8.693   6.067  1.1045  1.6490 -1.4689
  127MOL0     H17112  -2.899   8.611   6.123  2.1822  1.7917 -0.8370
  127MOL0     H17113  -2.981   8.593   6.338 -1.3851 -0.4477 -0.3578
  127MOL0     H17114  -3.008   8.755   6.343  4.3536 -0.8479 -0.2814
  127MOL0     H17115  -3.223   8.561   6.231  0.0732  0.5579 -0.8492
  127MOL0     H17116  -3.244   8.732   6.252  1.2346 -0.3984 -3.2072
  127MOL0     H17117  -3.181   8.537   6.475 -0.4384 -0.6991  0.0721
  127MOL0     H17118  -3.223   8.709   6.478 -1.4475  0.2918 -0.3547
  127MOL0     H17119  -3.416   8.534   6.531  0.1539 -2.6593 -1.6346
  127MOL0     H17120  -3.417   8.502   6.356 -1.0243 -0.1750  0.3078
  127MOL0     H17121  -3.446   8.757   6.317 -1.4675  2.9257  1.0336
  127MOL0     H17122  -3.580   8.674   6.379 -0.1943  0.2960 -2.0051
  127MOL0     H17123  -3.376   8.818   6.572  0.5068  2.4040 -1.1762
  127MOL0     H17124  -3.529   8.756   6.622  3.9090  1.3996  2.4334
  127MOL0     H17125  -3.470   8.989   6.423 -1.2560  0.7789 -0.5851
  127MOL0     H17126  -3.549   8.997   6.579 -1.2036 -1.4734  0.5500
  127MOL0     H17127  -2.694   8.752   6.292  0.2143  0.3829  0.4845
  127MOL0     H17128  -2.467   8.760   6.208 -0.2259  0.5290 -0.4929
  127MOL0     H17129  -2.228   8.937   5.806  0.6610  1.7418 -2.2321
  127MOL0     H17130  -2.031   9.026   5.728 -0.1247  1.2277  1.5791
  127MOL0     H17131  -0.128   9.483   5.267 -1.4788 -0.2524  0.4426
  127MOL0     H17132   0.027   9.346   5.365 -2.5030  2.3029  2.2902
  127MOL0     H17133   0.368   8.991   5.108  3.4695  0.8963 -0.2374
  127MOL0     H17134   0.542   8.845   5.155  1.5874  0.1298  0.9101
  127MOL0     H17135   0.728   8.771   5.238 -1.2296 -3.2826 -0.1866
  127MOL0     H17136   0.745   8.890   5.372  0.0419 -0.2683  2.8562
  127MOL0     H17137   0.936   8.749   5.378  0.6831  0.2856  2.2134
  127MOL0     H17138   0.835   8.603   5.351  0.6192  0.1259  0.0965
  127MOL0     H17139   0.765   8.632   5.599  0.6363 -1.1108 -0.6715
  127MOL0     H17140   0.855   8.776   5.614 -0.8221 -0.3000  0.3407
  127MOL0     H17141   1.053   8.639   5.519 -0.5947 -0.4954 -0.5459
  127MOL0     H17142   0.949   8.499   5.586 -0.6202  0.4290  1.8593
  127MOL0     H17143   1.115   8.690   5.919 -0.8696  0.7736  1.3720
  127MOL0     H17144   0.420   8.856   5.575 -1.6196  0.7909  0.1322
  127MOL0     H17145   0.226   8.981   5.508 -1.1661 -2.1496 -0.4501
  128MOL0     O17146   0.603   8.565   2.156 -1.1939  0.1033 -0.4985
  128MOL0     C17147   0.670   8.541   2.258 -0.2450  0.4886  0.3809
  128MOL0     O17148   0.617   8.467   2.364  0.0353 -0.5167  0.1921
  128MOL0     C17149   0.491   8.426   2.340  0.7178  0.2347 -0.9122
  128MOL0     C17150   0.464   8.303   2.285 -0.7957  0.8165  0.2020
  128MOL0     C17151   0.338   8.259   2.263  0.9776 -0.2263  0.0711
  128MOL0     C17152   0.226   8.341   2.302  0.2475  0.7205  0.1828
  128MOL0     O17153   0.098   8.313   2.262 -0.0115 -0.0005 -0.2949
  128MOL0     C17154   0.053   8.177   2.254  0.0120  0.4416 -0.8744
  128MOL0     C17155  -0.087   8.171   2.170  0.2792 -0.8466 -0.2683
  128MOL0     C17156  -0.101   8.024   2.136 -0.3041 -0.0895  0.6512
  128MOL0     C17157  -0.237   7.995   2.064  0.1314  1.2478  1.0890
  128MOL0     C17158  -0.252   7.840   2.053 -0.3574 -0.5466  0.5501
  128MOL0     C17159  -0.325   7.807   1.924 -0.2578  0.2788  0.2015
  128MOL0     C17160  -0.478   7.847   1.914 -1.0061  0.8158  0.0432
  128MOL0     C17161  -0.567   7.756   2.000  0.2980  0.7912 -0.3572
  128MOL0     N17162  -0.704   7.812   1.984  0.2213 -0.6027 -0.0520
  128MOL0     C17163  -0.753   7.942   2.015  0.2460  0.6799  0.4316
  128MOL0     C17164  -0.883   7.945   1.991  0.3079 -1.1225  0.0301
  128MOL0     C17165  -0.978   8.059   1.991 -0.3523  0.1021  0.2882
  128MOL0     C17166  -0.930   8.200   1.982 -0.1072  0.0391 -0.5358
  128MOL0     C17167  -1.059   8.285   1.976 -0.1651  0.4965  0.4124
  128MOL0     C17168  -1.025   8.435   1.963  0.4823  0.1538  0.5323
  128MOL0     O17169  -1.001   8.457   1.816 -0.0325  0.6320  0.5883
  128MOL0     C17170  -0.897   8.537   1.781 -1.0781  0.3227  0.0791
  128MOL0     C17171  -0.851   8.538   1.641  0.1124  0.2653 -0.4056
  128MOL0     C17172  -0.739   8.610   1.594 -0.9299  0.8047  0.4118
  128MOL0     C17173  -0.706   8.600   1.451 -0.4474  0.1475  0.4542
  128MOL0     C17174  -0.668   8.694   1.680 -0.3873 -0.7171 -0.8169
  128MOL0     C17175  -0.554   8.782   1.635  0.7631  0.2371  0.9444
  128MOL0     O17176  -0.544   8.909   1.686 -0.0267 -0.3799  0.0617
  128MOL0     C17177  -0.429   8.975   1.657  0.2777 -1.0457 -0.3111
  128MOL0     C17178  -0.324   8.965   1.749 -0.7018 -0.8476  0.3303
  128MOL0     C17179  -0.212   9.038   1.728  0.6966  0.2577 -0.6116
  128MOL0     C17180  -0.195   9.121   1.616 -0.1861 -0.2342  0.1951
  128MOL0     O17181  -0.078   9.178   1.573 -0.0479 -0.6317 -0.4017
  128MOL0     C17182   0.055   9.116   1.598  0.2198 -0.4772 -0.3665
  128MOL0     C17183   0.156   9.219   1.655  0.4630 -0.0005 -0.2613
  128MOL0     C17184   0.110   9.248   1.800 -0.1405  0.4915  0.0519
  128MOL0     C17185   0.216   9.335   1.877  0.1130 -0.0642  0.1610
  128MOL0     C17186   0.179   9.315   2.022 -0.0187 -0.4775 -0.8016
  128MOL0     C17187   0.261   9.405   2.118 -0.7712  0.1363 -0.0766
  128MOL0     C17188   0.231   9.362   2.273  0.1209 -0.0925  0.1676
  128MOL0     C17189   0.328   9.417   2.376 -0.3848 -0.5263 -0.1078
  128MOL0    Cl17190   0.488   9.341   2.330 -0.2645 -0.0412 -0.1140
  128MOL0     C17191  -0.305   9.136   1.531 -0.2065 -0.3455 -0.2374
  128MOL0     C17192  -0.421   9.060   1.543  0.3321 -0.3210  0.5005
  128MOL0     O17193  -0.467   8.725   1.571  0.5828 -0.5651  0.1023
  128MOL0     C17194  -0.719   8.713   1.810 -0.4201  1.0207 -0.3263
  128MOL0     C17195  -0.829   8.632   1.860 -0.0458 -0.5144 -0.3805
  128MOL0     N17196  -0.914   7.830   1.919  0.3720  0.0034  0.3824
  128MOL0     N17197  -0.813   7.752   1.923 -0.1579 -0.4115  0.2624
  128MOL0     C17198   0.256   8.462   2.359 -0.7831 -0.2563  0.0846
  128MOL0     C17199   0.383   8.507   2.387 -0.4802  0.3069  0.2286
  128MOL0     C17200   0.811   8.597   2.276 -0.1382  0.5221  1.2127
  128MOL0     C17201   0.875   8.604   2.405 -0.7968 -0.1451 -0.4078
  128MOL0     C17202   1.015   8.636   2.409 -0.2971  0.2471  0.5296
  128MOL0     C17203   1.084   8.673   2.291 -0.4635 -0.3907  0.2675
  128MOL0     O17204   1.217   8.717   2.286  0.1616  0.5137 -0.5917
  128MOL0     C17205   1.291   8.743   2.398 -1.0675  0.0388 -0.8653
  128MOL0     C17206   1.437   8.779   2.357  0.3418  0.0179  0.2300
  128MOL0     C17207   1.482   8.925   2.360  0.6184  0.0011  0.9468
  128MOL0     C17208   1.636   8.940   2.332  0.7974  0.1583  0.4284
  128MOL0     C17209   1.670   8.904   2.187  0.1532 -0.3372  0.2266
  128MOL0     C17210   1.684   8.885   2.064  0.1194  0.5879  0.4404
  128MOL0     C17211   1.021   8.678   2.167 -1.1144 -0.1446  0.3134
  128MOL0     C17212   0.885   8.639   2.163 -0.1399 -0.6860 -0.0352
  128MOL0     H17213   0.545   8.238   2.254 -0.3789  1.3153  0.2231
  128MOL0     H17214   0.328   8.172   2.199  0.9008  1.6436 -2.6166
  128MOL0     H17215   0.119   8.116   2.191  1.5308 -0.2971  1.2789
  128MOL0     H17216   0.042   8.128   2.352 -1.6694 -0.7532 -1.6168
  128MOL0     H17217  -0.171   8.207   2.230  0.6896  0.4053 -0.4138
  128MOL0     H17218  -0.084   8.232   2.079 -1.6592  0.9561  0.7877
  128MOL0     H17219  -0.014   7.985   2.082  0.2284 -0.9952  2.1093
  128MOL0     H17220  -0.088   7.970   2.230 -0.8047 -1.8267 -0.2410
  128MOL0     H17221  -0.320   8.040   2.120 -1.4051  0.1240 -0.1869
  128MOL0     H17222  -0.222   8.036   1.964 -2.1496  1.6951  0.8601
  128MOL0     H17223  -0.153   7.797   2.034 -1.0933 -0.9520 -3.0456
  128MOL0     H17224  -0.300   7.794   2.140 -1.4347 -0.4445  0.0277
  128MOL0     H17225  -0.272   7.857   1.842  0.7746  0.6645  1.0734
  128MOL0     H17226  -0.302   7.701   1.908  1.0117  0.2529  1.9475
  128MOL0     H17227  -0.492   7.953   1.937 -1.1381  0.8445 -0.1711
  128MOL0     H17228  -0.512   7.836   1.811 -1.8589 -0.4677  0.4338
  128MOL0     H17229  -0.524   7.775   2.099 -0.0539  0.0397 -0.0558
  128MOL0     H17230  -0.565   7.651   1.970  0.9783 -0.3728  3.3263
  128MOL0     H17231  -0.706   8.027   2.062 -0.9659  1.8707 -0.4243
  128MOL0     H17232  -1.057   8.034   1.920  0.9773 -0.2717 -1.1052
  128MOL0     H17233  -1.030   8.048   2.087  1.7204  0.0523  1.4618
  128MOL0     H17234  -0.872   8.211   1.890  0.6658  0.2896 -0.0340
  128MOL0     H17235  -0.868   8.235   2.066 -0.1553 -2.0745  0.4464
  128MOL0     H17236  -1.121   8.271   2.065 -3.5614  0.6416 -1.7156
  128MOL0     H17237  -1.121   8.256   1.890  0.1258 -3.2964  1.2811
  128MOL0     H17238  -0.931   8.452   2.018  1.7665 -1.7845 -0.9472
  128MOL0     H17239  -1.115   8.486   2.000  0.2229  0.9426 -1.1315
  128MOL0     H17240  -0.914   8.479   1.575  1.5390 -0.8058 -0.8506
  128MOL0     H17241  -0.722   8.697   1.404 -1.0540  0.6500  1.6371
  128MOL0     H17242  -0.603   8.571   1.429  0.2723  0.7007  2.7466
  128MOL0     H17243  -0.764   8.516   1.412  0.4502  0.3623 -1.4302
  128MOL0     H17244  -0.336   8.910   1.842 -0.3988 -0.1309  0.8121
  128MOL0     H17245  -0.133   9.026   1.802  2.1625 -0.3012 -2.2076
  128MOL0     H17246   0.051   9.038   1.674 -2.0790  1.7762  2.0321
  128MOL0     H17247   0.087   9.084   1.499  0.3802  0.6768 -0.7096
  128MOL0     H17248   0.251   9.165   1.652 -0.8045 -2.4739 -4.3881
  128MOL0     H17249   0.154   9.309   1.592  0.0224  0.8077  0.8683
  128MOL0     H17250   0.089   9.155   1.854  1.7736  0.1622  0.3155
  128MOL0     H17251   0.013   9.298   1.805 -0.4433 -0.1865  2.0939
  128MOL0     H17252   0.319   9.299   1.865 -0.6078 -1.4077 -3.1460
  128MOL0     H17253   0.198   9.438   1.844 -1.3142 -0.1842  0.4812
  128MOL0     H17254   0.205   9.214   2.055  1.8887  0.8991  2.3888
  128MOL0     H17255   0.074   9.332   2.047  0.9694  2.4734  2.0551
  128MOL0     H17256   0.364   9.391   2.083 -0.7250 -0.3423  0.2330
  128MOL0     H17257   0.226   9.505   2.094 -0.2861  0.0971 -1.0027
  128MOL0     H17258   0.228   9.253   2.279  1.9812 -0.1613  0.3789
  128MOL0     H17259   0.131   9.405   2.290 -0.9153 -3.0165  2.2865
  128MOL0     H17260   0.307   9.399   2.482  2.6753  1.5469  0.9821
  128MOL0     H17261   0.335   9.523   2.353  0.6065 -0.9121 -1.8003
  128MOL0     H17262  -0.291   9.202   1.446 -1.2461  0.7128  0.3823
  128MOL0     H17263  -0.499   9.067   1.467  0.0100  0.0272  0.8593
  128MOL0     H17264  -0.682   8.780   1.886 -3.1076 -0.4884  2.5763
  128MOL0     H17265  -0.869   8.649   1.959 -0.8792 -2.3751 -0.3607
  128MOL0     H17266   0.184   8.540   2.383  0.8836  1.7426 -1.0701
  128MOL0     H17267   0.403   8.604   2.434  0.4359  0.4017 -0.3264
  128MOL0     H17268   0.823   8.570   2.494  2.4465 -2.1765  0.9034
  128MOL0     H17269   1.068   8.641   2.504 -1.0910 -1.8713  1.1457
  128MOL0     H17270   1.237   8.812   2.463  1.8573  0.5736  1.2123
  128MOL0     H17271   1.305   8.651   2.456  1.7554  1.0653  0.2610
  128MOL0     H17272   1.442   8.753   2.251 -3.3667  1.3675 -0.4455
  128MOL0     H17273   1.498   8.731   2.434  3.0310 -1.0747 -2.3933
  128MOL0     H17274   1.465   8.970   2.458 -3.2334 -0.5640  0.6955
  128MOL0     H17275   1.431   8.976   2.278 -1.0943 -4.3913 -1.0682
  128MOL0     H17276   1.695   8.874   2.397 -1.2474 -2.0255  0.2133
  128MOL0     H17277   1.652   9.047   2.346 -0.1380  0.2354  0.9457
  128MOL0     H17278   1.693   8.852   1.962 -2.9235  0.9826 -0.0431
  128MOL0     H17279   1.080   8.712   2.083 -0.3311 -1.7940  0.1692
  128MOL0     H17280   0.835   8.643   2.067  0.7739  1.1262 -0.4886
  129MOL0     O17281   7.233   4.939   1.279  0.7153 -0.5641  0.4404
  129MOL0     C17282   7.271   5.011   1.377  0.2459  0.0256  0.0204
  129MOL0     O17283   7.218   5.006   1.498 -0.4253 -0.2307 -0.2773
  129MOL0     C17284   7.083   4.970   1.510  0.9566  0.3101  0.5628
  129MOL0     C17285   7.016   5.039   1.606 -0.8675 -0.3671 -0.2369
  129MOL0     C17286   6.892   4.994   1.656 -0.3088 -0.5657 -0.2842
  129MOL0     C17287   6.820   4.890   1.596  0.3199  0.1585  0.1663
  129MOL0     O17288   6.697   4.859   1.646 -0.1399 -0.1584  0.4442
  129MOL0     C17289   6.626   4.749   1.593 -0.3512  0.2509 -0.1208
  129MOL0     C17290   6.507   4.744   1.690 -0.0322 -0.7866  0.2363
  129MOL0     C17291   6.403   4.857   1.646  0.1780 -0.3994  0.1544
  129MOL0     C17292   6.270   4.856   1.737 -0.4407 -0.2206  0.6543
  129MOL0     C17293   6.172   4.965   1.703  0.4105  0.3436  0.0080
  129MOL0     C17294   6.053   4.956   1.797 -0.0678 -0.2649 -0.3270
  129MOL0     C17295   5.923   5.009   1.734  0.3081 -0.0372 -0.0145
  129MOL0     C17296   5.937   5.158   1.714 -0.2982  1.2355 -0.5034
  129MOL0     N17297   5.815   5.207   1.653 -0.0588  0.1084  0.0464
  129MOL0     C17298   5.719   5.291   1.715 -1.1670 -0.6667 -0.7116
  129MOL0     C17299   5.632   5.315   1.606 -0.2879 -0.3715 -0.4026
  129MOL0     C17300   5.515   5.405   1.611 -0.9138  0.1344 -0.2926
  129MOL0     C17301   5.382   5.338   1.659 -0.8455  0.2901  0.0358
  129MOL0     C17302   5.303   5.300   1.531  0.7621 -0.3993  0.2806
  129MOL0     C17303   5.185   5.202   1.560  0.2741  0.3335  0.2868
  129MOL0     O17304   5.105   5.235   1.671  0.6555 -0.4198 -0.1446
  129MOL0     C17305   4.991   5.168   1.685  0.1910 -0.3710 -0.3276
  129MOL0     C17306   4.957   5.052   1.624  0.3594 -0.8846  0.4090
  129MOL0     C17307   4.833   4.989   1.650 -0.4709  0.9738 -0.3239
  129MOL0     C17308   4.807   4.855   1.594 -0.2275  0.0861 -0.2019
  129MOL0     C17309   4.746   5.056   1.733  0.2166  0.7057 -1.5329
  129MOL0     C17310   4.609   5.008   1.762 -0.0032 -0.4646  0.7054
  129MOL0     O17311   4.549   5.044   1.881 -0.2388  0.2391 -0.5799
  129MOL0     C17312   4.415   5.025   1.890  0.3280  0.8247 -0.7478
  129MOL0     C17313   4.329   5.135   1.918 -0.1677  0.5332  0.6284
  129MOL0     C17314   4.193   5.109   1.942 -0.3184 -0.0435 -0.5791
  129MOL0     C17315   4.135   4.979   1.952  0.8012 -0.8012 -0.4024
  129MOL0     O17316   4.002   4.970   1.999 -0.0101  0.4350 -0.0568
  129MOL0     C17317   3.952   4.838   2.000 -0.2840  1.1049  0.0113
  129MOL0     C17318   3.804   4.825   2.023  0.6338 -0.5489 -0.0088
  129MOL0     C17319   3.717   4.882   1.917  0.1076 -0.0920  0.4736
  129MOL0     C17320   3.571   4.877   1.961 -0.3400  0.2454 -0.0794
  129MOL0     C17321   3.486   4.965   1.865  0.8334  0.2885 -0.1898
  129MOL0     C17322   3.353   4.907   1.857 -0.8390  0.6828 -0.1896
  129MOL0     C17323   3.258   4.978   1.768 -0.4915 -0.6619 -0.0219
  129MOL0     C17324   3.151   5.065   1.841 -0.4446  0.4282  0.0246
  129MOL0    Cl17325   3.235   5.186   1.940  0.2211 -0.5865 -0.2794
  129MOL0     C17326   4.225   4.874   1.928  0.7369  1.0046 -0.3278
  129MOL0     C17327   4.362   4.895   1.896  0.2225 -0.0091  0.3420
  129MOL0     O17328   4.537   4.968   1.667 -0.8789  0.2511 -0.1489
  129MOL0     C17329   4.778   5.175   1.791  1.0790 -0.2040  0.1172
  129MOL0     C17330   4.902   5.236   1.769 -0.2071 -0.3775  0.0451
  129MOL0     N17331   5.675   5.254   1.491 -0.1377 -0.5688 -0.8748
  129MOL0     N17332   5.787   5.194   1.520 -0.0096  0.7181  0.4894
  129MOL0     C17333   6.883   4.821   1.489  0.3640 -0.0560 -0.3369
  129MOL0     C17334   7.010   4.859   1.442 -0.9509 -0.1636  0.0767
  129MOL0     C17335   7.405   5.084   1.353  0.5010 -1.0129 -0.7208
  129MOL0     C17336   7.471   5.168   1.453  0.2949  0.5661 -0.2478
  129MOL0     C17337   7.568   5.260   1.417  0.0223 -0.4508 -0.0594
  129MOL0     C17338   7.616   5.266   1.289 -0.4300  0.5899  0.6147
  129MOL0     O17339   7.726   5.344   1.254 -0.3533 -0.1298 -0.1164
  129MOL0     C17340   7.741   5.466   1.326  0.5278 -0.1582  0.0471
  129MOL0     C17341   7.846   5.450   1.437  0.8959  0.4379  0.8109
  129MOL0     C17342   7.974   5.377   1.390 -0.7187 -0.0188 -0.1850
  129MOL0     C17343   8.091   5.359   1.494 -0.1625 -0.3454  0.0973
  129MOL0     C17344   8.138   5.486   1.540  0.6409 -0.4935 -0.3002
  129MOL0     C17345   8.181   5.591   1.580 -0.0065 -0.2753 -0.1983
  129MOL0     C17346   7.569   5.170   1.197  0.0773 -0.3355  0.8268
  129MOL0     C17347   7.459   5.090   1.226 -0.3175  0.7066 -0.6131
  129MOL0     H17348   7.064   5.125   1.653  0.2373  0.2851 -2.4363
  129MOL0     H17349   6.858   5.050   1.742  2.7136 -1.5858  1.7208
  129MOL0     H17350   6.606   4.755   1.486  0.5674  0.5682 -0.2851
  129MOL0     H17351   6.680   4.655   1.612 -0.9075 -0.3351 -1.2919
  129MOL0     H17352   6.455   4.648   1.686 -3.5176  0.9219  0.6078
  129MOL0     H17353   6.549   4.754   1.791  1.9498 -0.6087 -0.5661
  129MOL0     H17354   6.432   4.960   1.670 -3.8323  1.1312 -0.7002
  129MOL0     H17355   6.383   4.849   1.539  3.0085 -2.4244 -0.3130
  129MOL0     H17356   6.227   4.763   1.700  0.5699 -0.0091 -1.1369
  129MOL0     H17357   6.293   4.859   1.844  0.6209 -1.7515  0.5075
  129MOL0     H17358   6.218   5.064   1.706  1.4420 -0.0157 -2.2597
  129MOL0     H17359   6.131   4.949   1.603  0.2518  1.2311 -0.0729
  129MOL0     H17360   6.044   4.849   1.819  1.5945 -0.6782 -1.4894
  129MOL0     H17361   6.066   5.007   1.893 -2.9265 -0.1749  0.0910
  129MOL0     H17362   5.902   4.946   1.647  1.0239 -0.9234  0.4347
  129MOL0     H17363   5.835   4.998   1.798 -0.9037  0.2845 -1.5555
  129MOL0     H17364   6.017   5.166   1.640  0.6773 -1.1455  0.1802
  129MOL0     H17365   5.956   5.214   1.806  1.5647  0.1148 -0.1274
  129MOL0     H17366   5.714   5.317   1.820 -1.9891  0.6726 -1.0456
  129MOL0     H17367   5.535   5.481   1.688 -2.8229 -0.2999  0.6972
  129MOL0     H17368   5.504   5.451   1.512  0.0953 -1.2427 -1.0680
  129MOL0     H17369   5.335   5.419   1.716  1.0194  2.3128 -1.1486
  129MOL0     H17370   5.402   5.242   1.707 -0.8668  0.4142  0.2937
  129MOL0     H17371   5.379   5.263   1.462  1.5079 -1.4634  1.6101
  129MOL0     H17372   5.270   5.388   1.476  0.1537 -1.5205 -1.2422
  129MOL0     H17373   5.214   5.097   1.562 -3.2014 -0.9313 -3.4117
  129MOL0     H17374   5.121   5.203   1.471  0.5073  0.1788  0.1160
  129MOL0     H17375   5.013   5.009   1.541  0.1674  1.2900 -0.9321
  129MOL0     H17376   4.796   4.778   1.671 -0.4781  0.6937  0.3800
  129MOL0     H17377   4.717   4.862   1.532  0.3483  3.5989 -0.8652
  129MOL0     H17378   4.890   4.830   1.526  1.5159  0.7778  1.5665
  129MOL0     H17379   4.368   5.236   1.918 -1.8590  1.2111  0.0461
  129MOL0     H17380   4.121   5.184   1.973 -0.2806  0.6685 -2.1245
  129MOL0     H17381   3.984   4.789   1.908 -0.9674 -0.3239  0.5104
  129MOL0     H17382   4.000   4.787   2.084  1.3506  2.3389 -0.1088
  129MOL0     H17383   3.779   4.718   2.023 -1.6712 -0.0815 -1.3947
  129MOL0     H17384   3.787   4.869   2.122  0.8466  0.8922 -0.5855
  129MOL0     H17385   3.720   4.826   1.823  2.0212  0.7903 -0.0602
  129MOL0     H17386   3.741   4.986   1.891 -0.3198 -0.5790 -2.1510
  129MOL0     H17387   3.529   4.776   1.966  0.3675 -0.0202  1.2832
  129MOL0     H17388   3.558   4.912   2.064  1.4887 -1.4512  0.8058
  129MOL0     H17389   3.526   4.959   1.764  0.5158  1.5297 -0.4055
  129MOL0     H17390   3.482   5.068   1.902 -2.1673  0.1289  0.1896
  129MOL0     H17391   3.355   4.800   1.833 -2.3758 -1.2257  6.2230
  129MOL0     H17392   3.316   4.913   1.960 -2.6122 -1.5119 -0.6177
  129MOL0     H17393   3.197   4.917   1.702  0.2201 -0.8676 -0.4952
  129MOL0     H17394   3.306   5.047   1.698 -1.9377  0.9169  0.4464
  129MOL0     H17395   3.095   5.008   1.916 -0.7520 -0.3914 -0.8098
  129MOL0     H17396   3.066   5.097   1.781 -1.4841  2.3555  2.3608
  129MOL0     H17397   4.192   4.771   1.938 -1.8999  1.3046 -3.9911
  129MOL0     H17398   4.421   4.806   1.883 -1.2520 -0.8176 -1.1747
  129MOL0     H17399   4.701   5.223   1.851  0.2629  1.4636 -2.1190
  129MOL0     H17400   4.929   5.329   1.818 -1.2978 -0.0851  0.1126
  129MOL0     H17401   6.839   4.740   1.432 -0.7808  0.1542  0.2282
  129MOL0     H17402   7.064   4.797   1.370 -0.4681  0.5295 -0.1616
  129MOL0     H17403   7.456   5.164   1.560  0.6854  0.2601 -0.2048
  129MOL0     H17404   7.600   5.327   1.496  1.8117  1.0594 -1.9382
  129MOL0     H17405   7.775   5.543   1.256 -1.9071  2.0425  1.1398
  129MOL0     H17406   7.639   5.491   1.355 -0.7178 -0.9889 -3.1293
  129MOL0     H17407   7.808   5.388   1.518  1.1981  0.0333  0.6496
  129MOL0     H17408   7.868   5.548   1.479  0.9244  0.6914  0.2244
  129MOL0     H17409   8.020   5.439   1.312 -0.0607 -0.2315  0.0260
  129MOL0     H17410   7.962   5.276   1.349 -1.9282  0.8728 -2.2195
  129MOL0     H17411   8.170   5.308   1.438 -0.4542 -0.4077 -0.2599
  129MOL0     H17412   8.061   5.289   1.572 -0.7716 -0.9363 -0.6503
  129MOL0     H17413   8.245   5.671   1.612  0.6234 -1.5024  1.7859
  129MOL0     H17414   7.604   5.177   1.094  1.2595 -0.7251  1.1902
  129MOL0     H17415   7.400   5.032   1.154 -1.8319  0.0289  1.0854
  130MOL0     O17416   5.467  11.064   7.471  0.1872 -0.3803 -0.3431
  130MOL0     C17417   5.509  11.144   7.547 -0.7271 -1.2656 -0.7738
  130MOL0     O17418   5.447  11.209   7.660 -0.0699 -0.6340 -0.2343
  130MOL0     C17419   5.311  11.200   7.683  0.2848 -0.3358  0.0911
  130MOL0     C17420   5.269  11.276   7.788 -0.9896 -0.4265  0.0646
  130MOL0     C17421   5.139  11.303   7.816  0.0885 -0.8686  0.3690
  130MOL0     C17422   5.036  11.256   7.735  0.4810  0.5190  0.3265
  130MOL0     O17423   4.902  11.287   7.768 -0.5067 -0.0107  0.7573
  130MOL0     C17424   4.810  11.239   7.669 -0.4932 -0.1062  0.2324
  130MOL0     C17425   4.667  11.278   7.694 -0.4158  0.2212 -0.2507
  130MOL0     C17426   4.650  11.429   7.691  0.3556  0.3638  0.5852
  130MOL0     C17427   4.512  11.489   7.675 -0.2199  0.7924 -0.1482
  130MOL0     C17428   4.451  11.499   7.819 -0.4792 -0.5309  0.0623
  130MOL0     C17429   4.297  11.503   7.829  0.0475 -0.7942 -0.0016
  130MOL0     C17430   4.235  11.630   7.761 -0.6986  0.3469 -0.2885
  130MOL0     C17431   4.082  11.652   7.806 -0.9862 -0.0066  0.5274
  130MOL0     N17432   3.989  11.560   7.739  0.2868  0.3592  0.0617
  130MOL0     C17433   3.979  11.528   7.607  0.0801  0.6634 -0.9340
  130MOL0     C17434   3.877  11.438   7.595  0.2869 -0.4115  0.0949
  130MOL0     C17435   3.821  11.382   7.470 -0.4442 -0.4085  0.3270
  130MOL0     C17436   3.670  11.343   7.500 -0.7268  0.2732 -1.0426
  130MOL0     C17437   3.589  11.334   7.375  0.3450 -0.5939  0.3159
  130MOL0     C17438   3.441  11.332   7.401 -0.3451  0.1620 -0.1066
  130MOL0     O17439   3.373  11.336   7.276 -0.0154  0.0224 -0.3698
  130MOL0     C17440   3.239  11.338   7.274  0.2373 -0.1434 -0.0178
  130MOL0     C17441   3.182  11.330   7.144 -0.6391  0.0799 -0.0642
  130MOL0     C17442   3.045  11.342   7.121 -1.1515  0.9395 -0.8442
  130MOL0     C17443   2.993  11.305   6.984  0.2168 -0.2854  0.4374
  130MOL0     C17444   2.960  11.373   7.233  0.1094  0.7637  0.4607
  130MOL0     C17445   2.808  11.383   7.220 -0.1556 -0.9454 -0.9679
  130MOL0     O17446   2.745  11.412   7.337  0.3266  0.1570  0.2258
  130MOL0     C17447   2.609  11.437   7.340 -0.1994 -0.6098  0.6917
  130MOL0     C17448   2.505  11.378   7.279  0.2025 -0.0039  0.0936
  130MOL0     C17449   2.379  11.434   7.282  0.2307 -0.6645  0.2227
  130MOL0     C17450   2.345  11.548   7.354 -0.5332 -0.5960  0.9457
  130MOL0     O17451   2.221  11.601   7.362 -0.0290  0.3123 -0.2217
  130MOL0     C17452   2.110  11.538   7.294 -0.1266 -0.6338 -0.5398
  130MOL0     C17453   1.988  11.621   7.336  0.3537  0.1023  0.4739
  130MOL0     C17454   1.986  11.759   7.276 -0.5698  0.2167 -0.6496
  130MOL0     C17455   1.851  11.825   7.289 -0.6243 -0.5991  0.5704
  130MOL0     C17456   1.848  11.960   7.204 -0.0719  1.1558 -0.1389
  130MOL0     C17457   1.712  12.033   7.225 -0.4055  0.0575  0.6393
  130MOL0     C17458   1.725  12.156   7.133  0.2489  0.0376 -0.6391
  130MOL0     C17459   1.636  12.264   7.198 -1.0193 -0.7983 -0.2120
  130MOL0    Cl17460   1.478  12.194   7.234  0.3925  0.0581  0.1910
  130MOL0     C17461   2.448  11.598   7.429  0.3671  0.4933 -0.2842
  130MOL0     C17462   2.580  11.545   7.421  0.5735 -0.0053  0.5678
  130MOL0     O17463   2.756  11.385   7.115  0.3716  0.4259  0.1626
  130MOL0     C17464   3.019  11.387   7.358  0.1831  0.3675  0.0612
  130MOL0     C17465   3.153  11.369   7.389  0.0428  0.4636  0.7645
  130MOL0     N17466   3.847  11.401   7.726 -0.5906  0.2741 -0.5946
  130MOL0     N17467   3.916  11.470   7.813 -0.0053  0.2358  0.9984
  130MOL0     C17468   5.074  11.167   7.635 -0.6012  0.1644  0.8524
  130MOL0     C17469   5.210  11.132   7.609  0.1302 -0.4741 -0.1607
  130MOL0     C17470   5.658  11.167   7.533 -0.6329 -0.5470  0.1550
  130MOL0     C17471   5.721  11.258   7.623  0.1215 -0.0395  0.2089
  130MOL0     C17472   5.858  11.264   7.620 -1.1366  0.3191 -0.2630
  130MOL0     C17473   5.940  11.204   7.520 -0.0943  0.7295 -0.5671
  130MOL0     O17474   6.075  11.216   7.527 -0.6206  0.1992  0.3600
  130MOL0     C17475   6.164  11.133   7.442  0.3418  0.1067 -1.0100
  130MOL0     C17476   6.188  11.221   7.327 -0.9429  0.2111  0.6331
  130MOL0     C17477   6.289  11.157   7.223  0.2674 -0.2139 -0.5343
  130MOL0     C17478   6.268  11.019   7.185  0.2413  0.2382 -0.0400
  130MOL0     C17479   6.375  10.992   7.081  0.1887 -0.8778 -0.5847
  130MOL0     C17480   6.462  10.981   6.990 -0.7452  0.2111 -0.4433
  130MOL0     C17481   5.871  11.120   7.431 -0.1653  0.7134 -0.0283
  130MOL0     C17482   5.733  11.103   7.435 -1.4958 -0.4664 -0.9932
  130MOL0     H17483   5.342  11.319   7.855 -0.0001 -1.0951 -0.5546
  130MOL0     H17484   5.104  11.371   7.893  0.8868  0.9836 -0.8516
  130MOL0     H17485   4.836  11.289   7.575  3.0873  0.7346  1.4815
  130MOL0     H17486   4.819  11.130   7.660 -1.0184 -0.3706  2.3874
  130MOL0     H17487   4.600  11.226   7.625 -0.1728 -0.2662 -0.1242
  130MOL0     H17488   4.647  11.234   7.792 -0.4168 -1.5598 -1.0036
  130MOL0     H17489   4.702  11.476   7.775  0.6656  0.7792  0.1690
  130MOL0     H17490   4.705  11.463   7.603 -1.9537  2.8691 -0.0141
  130MOL0     H17491   4.528  11.586   7.627  4.5262 -0.2544 -1.1783
  130MOL0     H17492   4.462  11.413   7.614  0.8813 -1.9032  2.0783
  130MOL0     H17493   4.485  11.407   7.868  2.2360  0.0210 -0.6019
  130MOL0     H17494   4.497  11.584   7.869 -2.9587  1.5602 -1.0202
  130MOL0     H17495   4.258  11.416   7.775 -0.2763 -1.2747  0.9891
  130MOL0     H17496   4.282  11.504   7.937  1.4365  0.0290  0.2046
  130MOL0     H17497   4.305  11.710   7.783  0.8534 -0.9504 -0.3018
  130MOL0     H17498   4.225  11.620   7.652 -2.6311  0.0469 -0.1195
  130MOL0     H17499   4.063  11.759   7.789  1.0670  0.8296  2.9522
  130MOL0     H17500   4.073  11.637   7.914 -2.1144 -1.8098  0.2371
  130MOL0     H17501   4.030  11.575   7.524  3.1818  0.9056  0.9582
  130MOL0     H17502   3.828  11.467   7.402 -1.8860  2.8419  3.8395
  130MOL0     H17503   3.884  11.302   7.431  1.5441  1.0214  0.4355
  130MOL0     H17504   3.628  11.420   7.566  1.9801 -1.6811  3.4504
  130MOL0     H17505   3.680  11.251   7.559  0.6513  1.3151  0.4361
  130MOL0     H17506   3.623  11.246   7.320 -1.1939 -1.7837  1.1562
  130MOL0     H17507   3.610  11.421   7.313  1.6178 -0.4171  0.9789
  130MOL0     H17508   3.428  11.422   7.462  1.2533 -1.0457  2.1753
  130MOL0     H17509   3.406  11.246   7.459  0.2576  1.2615  1.9745
  130MOL0     H17510   3.248  11.307   7.061 -0.6997  1.6762 -0.5876
  130MOL0     H17511   2.951  11.392   6.933 -0.9511 -2.6291 -2.9523
  130MOL0     H17512   3.072  11.272   6.915  0.1345 -0.7020  0.5389
  130MOL0     H17513   2.908  11.236   6.982 -0.5048  0.5957 -1.4902
  130MOL0     H17514   2.524  11.294   7.213  3.6275 -0.5135  1.5177
  130MOL0     H17515   2.303  11.394   7.215  0.3501  0.5872 -0.6840
  130MOL0     H17516   2.121  11.547   7.186 -1.1984  3.1555 -0.4667
  130MOL0     H17517   2.102  11.434   7.328  1.1110 -0.7457 -0.5210
  130MOL0     H17518   1.899  11.571   7.297  2.3558 -2.0854 -1.5895
  130MOL0     H17519   1.995  11.626   7.445  1.5047  1.6862  0.3716
  130MOL0     H17520   2.014  11.751   7.170 -0.6284  2.5406 -0.9056
  130MOL0     H17521   2.060  11.825   7.323 -0.1260  1.4335 -2.8692
  130MOL0     H17522   1.777  11.751   7.259 -0.9687 -0.9468  2.1582
  130MOL0     H17523   1.831  11.852   7.393  2.3692  0.2120  1.0518
  130MOL0     H17524   1.867  11.951   7.096 -1.0351  0.9336 -0.2974
  130MOL0     H17525   1.928  12.026   7.241  3.3557 -1.4504 -2.2292
  130MOL0     H17526   1.621  11.974   7.210 -0.7270  0.7818 -0.3736
  130MOL0     H17527   1.706  12.069   7.328  0.5204 -2.6022  1.7166
  130MOL0     H17528   1.681  12.128   7.037 -0.2884 -0.4031 -0.2689
  130MOL0     H17529   1.823  12.201   7.117 -0.6739  1.6741 -2.0547
  130MOL0     H17530   1.609  12.353   7.139 -1.6624 -0.3833  0.6763
  130MOL0     H17531   1.684  12.298   7.290 -1.4754  0.9832 -0.5888
  130MOL0     H17532   2.420  11.675   7.499  0.5231 -0.6975  1.1382
  130MOL0     H17533   2.659  11.592   7.480  0.4445  0.4512  0.3806
  130MOL0     H17534   2.957  11.433   7.434  0.9006 -0.0989  0.9424
  130MOL0     H17535   3.195  11.377   7.489  0.0276 -3.4322  1.2258
  130MOL0     H17536   5.011  11.122   7.559  0.4027 -0.9056  0.6298
  130MOL0     H17537   5.241  11.065   7.529  0.8704 -0.8250  0.4214
  130MOL0     H17538   5.666  11.327   7.686 -1.2483 -1.6248  0.8412
  130MOL0     H17539   5.913  11.329   7.687 -0.1266 -0.4893 -0.2826
  130MOL0     H17540   6.257  11.114   7.497 -0.3955  1.7955  0.9607
  130MOL0     H17541   6.118  11.042   7.402 -1.6479 -0.2434  1.7199
  130MOL0     H17542   6.219  11.317   7.369 -1.2428 -0.6930  3.0541
  130MOL0     H17543   6.094  11.244   7.276 -0.0335 -0.8519 -1.7012
  130MOL0     H17544   6.388  11.175   7.264 -1.3868  1.1631  3.3135
  130MOL0     H17545   6.276  11.227   7.140  1.1423  2.0800  1.1742
  130MOL0     H17546   6.169  11.003   7.141 -0.3410  1.7559  0.6283
  130MOL0     H17547   6.281  10.951   7.271  0.3167 -0.9482 -0.9654
  130MOL0     H17548   6.553  10.981   6.933 -1.0808  0.8979 -0.9874
  130MOL0     H17549   5.916  11.061   7.352 -0.5716  0.4564 -0.0736
  130MOL0     H17550   5.687  11.043   7.356 -0.7863 -1.7896 -0.4365
  131MOL0     O17551   9.392   4.555   0.006  0.4356  0.0340  0.4131
  131MOL0     C17552   9.392   4.494  -0.099  0.7445 -0.5289  0.6901
  131MOL0     O17553   9.298   4.518  -0.197 -0.4079 -0.0146 -0.2735
  131MOL0     C17554   9.187   4.596  -0.164  0.2042 -0.4777  0.0178
  131MOL0     C17555   9.157   4.698  -0.247 -0.0272 -0.7085  0.3090
  131MOL0     C17556   9.040   4.780  -0.225 -0.8330 -0.0762  0.1738
  131MOL0     C17557   8.970   4.772  -0.105  0.6554 -0.1968  0.7466
  131MOL0     O17558   8.863   4.854  -0.097  0.0471  0.1571  0.1390
  131MOL0     C17559   8.769   4.830   0.009  0.0199  0.5218  0.0696
  131MOL0     C17560   8.658   4.929   0.006 -0.1263 -0.1472  0.2155
  131MOL0     C17561   8.580   4.925  -0.125 -0.0416 -0.2525  0.4543
  131MOL0     C17562   8.474   5.038  -0.134 -0.9925 -0.5120  0.0882
  131MOL0     C17563   8.389   5.029  -0.260 -0.5611  0.6567  0.2801
  131MOL0     C17564   8.268   5.127  -0.263  0.6814 -0.0154 -0.0680
  131MOL0     C17565   8.166   5.097  -0.377  1.0461  0.5179  0.8352
  131MOL0     C17566   8.116   4.952  -0.402 -0.7546  0.3470  0.1113
  131MOL0     N17567   7.990   4.950  -0.471 -0.1047 -0.1569 -0.2468
  131MOL0     C17568   7.873   4.986  -0.421 -0.4836  0.0930 -0.3327
  131MOL0     C17569   7.786   4.988  -0.522 -0.1968  0.3384 -0.3975
  131MOL0     C17570   7.639   5.028  -0.510 -1.2932 -0.2176 -0.5519
  131MOL0     C17571   7.557   4.961  -0.615 -0.0326  0.8944  0.0347
  131MOL0     C17572   7.410   4.996  -0.584 -0.0664  0.9583  0.6459
  131MOL0     C17573   7.325   4.991  -0.719  0.5120 -0.4318 -0.2778
  131MOL0     O17574   7.184   5.021  -0.689 -0.2390 -0.5838 -0.3707
  131MOL0     C17575   7.119   5.102  -0.781  0.0958 -0.0921 -0.1094
  131MOL0     C17576   7.135   5.101  -0.924 -0.0168 -1.1927 -0.4929
  131MOL0     C17577   7.061   5.183  -1.009 -0.4631 -0.2906  0.0995
  131MOL0     C17578   7.108   5.187  -1.157  0.0437 -0.6743 -0.1351
  131MOL0     C17579   6.958   5.267  -0.953  0.4884 -0.2394  0.5392
  131MOL0     C17580   6.877   5.367  -1.035  0.8373 -0.3453  0.3713
  131MOL0     O17581   6.760   5.411  -0.981 -0.5489  0.6705  0.1577
  131MOL0     C17582   6.696   5.521  -1.024  0.9149 -0.5236  0.5362
  131MOL0     C17583   6.758   5.642  -1.038 -0.1542 -0.6405  0.0031
  131MOL0     C17584   6.688   5.756  -1.092  0.6938 -0.3372  0.4528
  131MOL0     C17585   6.552   5.737  -1.124 -0.7816  0.2513  0.3030
  131MOL0     O17586   6.483   5.833  -1.176 -0.1321 -0.2558 -0.1052
  131MOL0     C17587   6.372   5.880  -1.100  0.3608 -0.0448 -0.2468
  131MOL0     C17588   6.394   6.004  -1.004 -0.7170  0.0731  0.1845
  131MOL0     C17589   6.279   6.052  -0.928 -0.3969 -0.3772  0.5067
  131MOL0     C17590   6.164   6.084  -1.019 -0.0325 -0.7546 -0.1918
  131MOL0     C17591   6.041   6.085  -0.940 -0.3885 -0.1026  0.1806
  131MOL0     C17592   5.920   6.101  -1.016 -0.4633  0.2755 -0.3196
  131MOL0     C17593   5.896   6.244  -1.049 -0.0560 -0.1480  0.1617
  131MOL0     C17594   5.777   6.253  -1.146 -0.3409  0.0432  1.1758
  131MOL0    Cl17595   5.716   6.418  -1.139  0.3602  0.2850 -0.4455
  131MOL0     C17596   6.489   5.611  -1.111  0.4725 -0.3836 -0.2840
  131MOL0     C17597   6.561   5.510  -1.054  0.5756 -0.0365  0.8370
  131MOL0     O17598   6.914   5.407  -1.143 -0.7791 -0.0526 -0.3613
  131MOL0     C17599   6.942   5.270  -0.818  0.4705  0.1602  0.1315
  131MOL0     C17600   7.020   5.192  -0.734  0.0558  0.0220 -0.3927
  131MOL0     N17601   7.854   4.941  -0.637  0.6679  0.2342 -0.1655
  131MOL0     N17602   7.979   4.925  -0.602 -0.2272  0.0867 -0.5971
  131MOL0     C17603   9.006   4.675  -0.019 -0.2228  0.2472 -0.2804
  131MOL0     C17604   9.111   4.582  -0.044 -0.1206 -0.9854  0.4768
  131MOL0     C17605   9.481   4.383  -0.104 -0.0950 -0.7383  0.6395
  131MOL0     C17606   9.438   4.266  -0.179 -0.9146  0.3481  0.1479
  131MOL0     C17607   9.512   4.149  -0.165  0.1652 -0.3701  0.2192
  131MOL0     C17608   9.620   4.140  -0.078 -1.3314  0.0195  0.1921
  131MOL0     O17609   9.700   4.029  -0.072 -0.0884  0.0504 -0.1786
  131MOL0     C17610   9.839   4.044  -0.032  0.2985  0.2107  0.0612
  131MOL0     C17611   9.914   3.919  -0.084 -0.0028 -0.4061 -0.2301
  131MOL0     C17612  10.067   3.914  -0.038  0.1723  0.4424 -0.2808
  131MOL0     C17613  10.154   4.038  -0.070 -0.3125  0.4040 -0.3353
  131MOL0     C17614  10.158   4.048  -0.214 -0.5612  0.5072  0.1481
  131MOL0     C17615  10.158   4.052  -0.337  0.0697 -0.2753  0.0997
  131MOL0     C17616   9.659   4.251  -0.003 -0.4527  0.4635 -0.5038
  131MOL0     C17617   9.592   4.373  -0.022 -0.1380  0.8587  0.1332
  131MOL0     H17618   9.208   4.712  -0.342  0.6961  2.1086  0.9911
  131MOL0     H17619   9.000   4.849  -0.299  0.0876 -0.6397 -0.8875
  131MOL0     H17620   8.729   4.729   0.000 -0.3528  0.4637  1.9813
  131MOL0     H17621   8.805   4.838   0.112 -1.5829  1.5529  0.5890
  131MOL0     H17622   8.597   4.919   0.097  0.4313 -0.0292  0.6122
  131MOL0     H17623   8.703   5.029   0.012  0.8827 -0.4081 -2.1540
  131MOL0     H17624   8.646   4.922  -0.211  0.3602  1.5136  0.6581
  131MOL0     H17625   8.523   4.831  -0.126  0.0445 -0.3059  0.5844
  131MOL0     H17626   8.410   5.032  -0.046  0.6187  2.3908  1.6206
  131MOL0     H17627   8.530   5.132  -0.127  1.5058 -1.7554 -1.7325
  131MOL0     H17628   8.446   5.044  -0.353  1.6966  0.4354  1.5613
  131MOL0     H17629   8.359   4.924  -0.270  1.0388 -0.0344  2.2364
  131MOL0     H17630   8.223   5.130  -0.163 -0.8689 -0.8274 -0.7057
  131MOL0     H17631   8.316   5.223  -0.282  3.3865 -1.5758 -1.7259
  131MOL0     H17632   8.075   5.153  -0.353 -0.5766 -1.2888 -0.6680
  131MOL0     H17633   8.201   5.134  -0.474  1.3418  1.7343  1.3935
  131MOL0     H17634   8.114   4.900  -0.306 -0.0652  0.8917  0.4325
  131MOL0     H17635   8.181   4.898  -0.471 -0.6304 -0.0197  0.5146
  131MOL0     H17636   7.840   5.018  -0.323 -1.0236  2.6781 -1.2790
  131MOL0     H17637   7.602   4.987  -0.415  0.0690  1.3635  0.7299
  131MOL0     H17638   7.637   5.137  -0.518  3.7708  0.2582  0.7655
  131MOL0     H17639   7.558   4.852  -0.607 -2.2683  0.6902 -1.5919
  131MOL0     H17640   7.588   4.992  -0.715  2.7035  0.6621  0.7370
  131MOL0     H17641   7.396   5.100  -0.552  0.1770  1.2000 -0.0266
  131MOL0     H17642   7.364   4.928  -0.510 -1.1226  2.1195  1.0988
  131MOL0     H17643   7.320   4.888  -0.756 -0.4221 -0.8881  1.0485
  131MOL0     H17644   7.365   5.058  -0.796 -0.6555 -0.5312 -1.0032
  131MOL0     H17645   7.206   5.029  -0.962  1.5031  0.5717 -1.1262
  131MOL0     H17646   7.152   5.285  -1.175  2.9165 -2.0274 -1.1799
  131MOL0     H17647   7.189   5.117  -1.181  1.2129  0.8055 -0.7011
  131MOL0     H17648   7.021   5.165  -1.221 -0.8494 -0.8186  1.1006
  131MOL0     H17649   6.864   5.652  -1.019 -0.2231  1.7220 -0.5175
  131MOL0     H17650   6.723   5.859  -1.097  1.4066 -0.6369 -1.5770
  131MOL0     H17651   6.291   5.904  -1.169  0.4026  0.7016 -0.0410
  131MOL0     H17652   6.337   5.795  -1.040 -1.6811  1.4682  0.8483
  131MOL0     H17653   6.473   5.969  -0.936 -1.8599  1.4120  2.2897
  131MOL0     H17654   6.439   6.081  -1.067  4.5016 -2.1418  0.6524
  131MOL0     H17655   6.319   6.134  -0.868  0.0966  1.0992 -1.7088
  131MOL0     H17656   6.257   5.974  -0.855  1.6596 -0.6684  0.8697
  131MOL0     H17657   6.176   6.180  -1.070 -2.7581  0.1673  0.6983
  131MOL0     H17658   6.151   6.013  -1.100 -0.9682  1.4999 -2.1379
  131MOL0     H17659   6.042   6.170  -0.871  0.3619  1.5789 -1.8026
  131MOL0     H17660   6.036   5.993  -0.881  2.7187  1.0401  2.5002
  131MOL0     H17661   5.920   6.041  -1.108 -0.7428 -0.1767 -0.0335
  131MOL0     H17662   5.835   6.068  -0.955  0.9283  0.6794  1.9368
  131MOL0     H17663   5.978   6.290  -1.105 -0.3417 -1.6505 -1.5878
  131MOL0     H17664   5.872   6.304  -0.960 -0.5745 -2.1264  1.4287
  131MOL0     H17665   5.698   6.189  -1.104 -0.6228  0.9050  1.9933
  131MOL0     H17666   5.800   6.216  -1.246 -3.1903 -0.6144  0.6945
  131MOL0     H17667   6.384   5.595  -1.133  0.4597 -3.3232  1.3558
  131MOL0     H17668   6.518   5.411  -1.041  2.8366 -1.0878  0.7984
  131MOL0     H17669   6.873   5.340  -0.772 -0.0404  0.0660 -0.4806
  131MOL0     H17670   6.989   5.203  -0.631 -0.7950 -0.2293 -0.6139
  131MOL0     H17671   8.941   4.661   0.066 -0.4312 -1.7306 -0.7178
  131MOL0     H17672   9.127   4.501   0.025  2.5813 -0.8220  0.1305
  131MOL0     H17673   9.352   4.266  -0.246 -1.2217 -2.6939  0.4314
  131MOL0     H17674   9.493   4.064  -0.231  2.1635 -0.4113 -0.3467
  131MOL0     H17675   9.877   4.139  -0.070  0.9104 -0.7688 -1.8981
  131MOL0     H17676   9.847   4.054   0.077  1.7081  0.7694 -0.0747
  131MOL0     H17677   9.917   3.920  -0.194  0.8428  0.2224 -0.2118
  131MOL0     H17678   9.854   3.832  -0.053  0.7681 -0.6407  0.6309
  131MOL0     H17679  10.107   3.816  -0.063  1.0613 -0.0341  2.6385
  131MOL0     H17680  10.054   3.899   0.070  1.3824 -1.4233 -0.3555
  131MOL0     H17681  10.257   4.038  -0.035 -0.0818 -0.7350 -0.9714
  131MOL0     H17682  10.105   4.131  -0.040  0.3234  0.6849 -0.1545
  131MOL0     H17683  10.140   4.045  -0.443 -1.1686  2.6441  0.0075
  131MOL0     H17684   9.717   4.227   0.086 -1.6891 -1.6700 -0.1984
  131MOL0     H17685   9.621   4.447   0.052  2.3326  0.8280 -0.7233
  132MOL0     O17686   3.166   1.297   6.127 -0.1484 -0.1640 -0.7055
  132MOL0     C17687   3.173   1.271   6.008 -0.5322 -0.5002  0.2572
  132MOL0     O17688   3.281   1.249   5.935 -0.8044  0.5388  0.4706
  132MOL0     C17689   3.410   1.276   5.982 -0.1753 -0.4427 -0.1214
  132MOL0     C17690   3.455   1.285   6.114 -0.2463 -0.0185  0.2870
  132MOL0     C17691   3.591   1.289   6.148  0.1056  0.6291 -0.2125
  132MOL0     C17692   3.689   1.303   6.048  1.0088  0.7833 -0.3805
  132MOL0     O17693   3.822   1.324   6.070 -0.5897 -0.8243 -0.0684
  132MOL0     C17694   3.872   1.341   6.200  0.7631 -0.4315 -1.2143
  132MOL0     C17695   4.019   1.311   6.186  0.2220 -0.3122 -0.0861
  132MOL0     C17696   4.099   1.353   6.307  0.1121  0.3885  0.0536
  132MOL0     C17697   4.124   1.506   6.305  0.5214  0.0425  0.5984
  132MOL0     C17698   4.207   1.552   6.425 -0.2820  0.3403  0.4186
  132MOL0     C17699   4.131   1.570   6.550  0.0632  0.2130 -0.4868
  132MOL0     C17700   4.226   1.632   6.653 -0.3527 -0.3846 -0.6434
  132MOL0     C17701   4.153   1.672   6.784  0.3794  0.5969 -0.2142
  132MOL0     N17702   4.072   1.566   6.852 -0.2989  1.3828  0.3277
  132MOL0     C17703   3.936   1.570   6.862 -0.1218  0.4209  0.3382
  132MOL0     C17704   3.916   1.449   6.925  0.2801  0.8363 -0.1063
  132MOL0     C17705   3.784   1.404   6.985  0.0560  0.3525 -0.0836
  132MOL0     C17706   3.671   1.404   6.877  0.4064 -0.1374  0.8592
  132MOL0     C17707   3.539   1.357   6.935  0.2229 -0.5037 -0.0300
  132MOL0     C17708   3.424   1.352   6.832  0.2828 -1.1155  0.0181
  132MOL0     O17709   3.296   1.334   6.894  0.5032 -0.1638  0.0161
  132MOL0     C17710   3.189   1.322   6.809  0.0807  0.3399 -0.7186
  132MOL0     C17711   3.192   1.326   6.672  0.9002  0.3042 -0.0835
  132MOL0     C17712   3.068   1.295   6.607 -0.4669 -0.6775  0.0358
  132MOL0     C17713   3.081   1.301   6.458  0.5193 -0.3234 -0.5162
  132MOL0     C17714   2.948   1.268   6.680 -0.7407  0.8804  0.5908
  132MOL0     C17715   2.818   1.243   6.617 -0.0093 -0.5852 -0.3527
  132MOL0     O17716   2.799   1.271   6.485 -0.1728 -0.1255  0.0391
  132MOL0     C17717   2.675   1.233   6.424  0.0697 -1.4640 -0.8784
  132MOL0     C17718   2.667   1.172   6.296 -0.5956 -0.4762 -0.2323
  132MOL0     C17719   2.535   1.156   6.234 -0.0814  0.5456 -0.1418
  132MOL0     C17720   2.428   1.183   6.302  0.4665 -0.4647  0.3554
  132MOL0     O17721   2.309   1.150   6.243 -0.3601  0.1039 -0.3332
  132MOL0     C17722   2.186   1.169   6.323 -0.0584  0.2725  1.5438
  132MOL0     C17723   2.078   1.102   6.249  0.0380  0.2481 -0.6267
  132MOL0     C17724   1.936   1.112   6.317 -1.1031  0.3364  0.3107
  132MOL0     C17725   1.860   1.232   6.255  0.0620  0.2111 -0.7123
  132MOL0     C17726   1.714   1.238   6.294  0.4686  0.4491  0.0192
  132MOL0     C17727   1.627   1.127   6.227 -0.8794  0.1684 -0.6755
  132MOL0     C17728   1.483   1.164   6.209  0.3100  0.4825  0.1950
  132MOL0     C17729   1.395   1.048   6.166  0.0225  0.3168 -0.0307
  132MOL0    Cl17730   1.428   1.012   5.996 -0.0730 -0.2071  0.0826
  132MOL0     C17731   2.431   1.261   6.412 -0.1959 -0.1497 -0.2058
  132MOL0     C17732   2.553   1.284   6.477 -0.7056 -0.1144  0.2783
  132MOL0     O17733   2.732   1.179   6.687  0.0501 -0.0029 -0.0028
  132MOL0     C17734   2.959   1.261   6.820 -0.6141  0.2817  0.2504
  132MOL0     C17735   3.077   1.285   6.879  0.0874  0.9288  0.5563
  132MOL0     N17736   4.034   1.373   6.946  0.6005 -0.8761  0.0789
  132MOL0     N17737   4.125   1.448   6.895  0.1168  0.5374  0.5910
  132MOL0     C17738   3.644   1.306   5.913  0.9633  0.3464  0.0222
  132MOL0     C17739   3.506   1.284   5.882 -0.9016  0.4836  0.8839
  132MOL0     C17740   3.047   1.274   5.925  0.5233  0.5609  0.1093
  132MOL0     C17741   2.929   1.343   5.962 -0.0751 -0.2318 -0.2070
  132MOL0     C17742   2.818   1.348   5.879 -0.3991 -0.2120 -0.8408
  132MOL0     C17743   2.819   1.280   5.760  0.1147  0.0307 -0.3220
  132MOL0     O17744   2.699   1.274   5.698 -0.0514  0.2239  0.0226
  132MOL0     C17745   2.696   1.189   5.576 -0.2219  0.9240  0.8518
  132MOL0     C17746   2.554   1.221   5.528  0.5164  0.8730  0.0932
  132MOL0     C17747   2.545   1.318   5.413 -0.2639  0.2983 -0.8383
  132MOL0     C17748   2.403   1.334   5.360  0.3636  0.3220 -0.1707
  132MOL0     C17749   2.396   1.450   5.274 -0.0154 -0.1474 -0.2652
  132MOL0     C17750   2.363   1.547   5.212 -0.1070 -0.2885  0.4325
  132MOL0     C17751   2.935   1.226   5.710 -0.0914 -0.2786 -0.1405
  132MOL0     C17752   3.050   1.229   5.789  0.6374 -0.2713  0.3405
  132MOL0     H17753   3.384   1.278   6.196 -0.2241  0.8962  0.3906
  132MOL0     H17754   3.604   1.273   6.255 -1.9440  1.9121  0.2890
  132MOL0     H17755   3.834   1.436   6.238 -0.1467 -1.4973  0.7156
  132MOL0     H17756   3.837   1.263   6.269  3.5759  1.0226  2.2107
  132MOL0     H17757   4.028   1.204   6.167 -0.3257 -0.4550  0.4024
  132MOL0     H17758   4.057   1.367   6.101  0.5295 -0.4347 -0.0308
  132MOL0     H17759   4.058   1.315   6.401 -0.6499  1.2147  0.0723
  132MOL0     H17760   4.197   1.305   6.310  1.1861  2.5465  2.8723
  132MOL0     H17761   4.177   1.515   6.209  0.7015 -2.5366  0.3709
  132MOL0     H17762   4.029   1.560   6.298 -0.0060 -0.9196  0.0586
  132MOL0     H17763   4.283   1.474   6.439  0.0899  0.6662  0.2247
  132MOL0     H17764   4.251   1.649   6.400  0.9732  0.0148  1.2811
  132MOL0     H17765   4.046   1.637   6.536  2.5921  4.4696  2.1234
  132MOL0     H17766   4.088   1.472   6.571 -0.5330  0.4415 -0.6077
  132MOL0     H17767   4.309   1.569   6.687 -1.0330 -0.1852  1.5434
  132MOL0     H17768   4.276   1.714   6.601  0.6474 -0.2691  0.4451
  132MOL0     H17769   4.078   1.748   6.761 -2.4464 -1.7506  0.6528
  132MOL0     H17770   4.222   1.717   6.856 -1.6478  3.5986  0.0057
  132MOL0     H17771   3.865   1.649   6.882  0.8633  1.2763  0.5053
  132MOL0     H17772   3.789   1.300   7.018 -1.0807  0.3772  0.2203
  132MOL0     H17773   3.750   1.465   7.070  0.5636 -0.0526  0.4243
  132MOL0     H17774   3.707   1.337   6.799  1.1691  1.1810  0.0596
  132MOL0     H17775   3.658   1.500   6.826 -0.5696 -0.0438  1.2461
  132MOL0     H17776   3.516   1.417   7.024 -1.9187  1.1768 -1.6140
  132MOL0     H17777   3.554   1.257   6.975 -0.7784 -0.4579  0.4959
  132MOL0     H17778   3.450   1.268   6.768  3.6376  0.4370 -0.9114
  132MOL0     H17779   3.432   1.450   6.784 -1.2325 -1.3393 -0.7369
  132MOL0     H17780   3.283   1.357   6.622  0.7834  1.9112  0.6401
  132MOL0     H17781   3.183   1.323   6.424  1.2187 -1.1676  0.9484
  132MOL0     H17782   3.048   1.203   6.421  3.4753 -1.9231  0.7494
  132MOL0     H17783   3.018   1.380   6.417 -1.3687  0.4742  3.4319
  132MOL0     H17784   2.757   1.140   6.243  0.4082  2.2596 -0.3481
  132MOL0     H17785   2.534   1.114   6.134  1.5428 -0.1253  0.0759
  132MOL0     H17786   2.186   1.130   6.425 -1.1277 -1.1186  1.0349
  132MOL0     H17787   2.151   1.273   6.320  1.1725  0.6860  0.9981
  132MOL0     H17788   2.071   1.145   6.148 -0.5804 -0.0207 -0.7051
  132MOL0     H17789   2.100   0.995   6.250 -1.1981 -0.1292  3.7430
  132MOL0     H17790   1.940   1.118   6.426 -0.7719 -1.8811  0.4705
  132MOL0     H17791   1.876   1.021   6.308 -1.2546  0.3549  1.0556
  132MOL0     H17792   1.902   1.326   6.292 -0.4417 -0.5290  1.9507
  132MOL0     H17793   1.873   1.241   6.147  0.8244  3.7131 -0.4392
  132MOL0     H17794   1.671   1.332   6.257  0.1146  0.6619  0.9536
  132MOL0     H17795   1.704   1.238   6.403  1.8020  0.4697  0.1507
  132MOL0     H17796   1.673   1.115   6.129  0.5502  0.5137 -0.0806
  132MOL0     H17797   1.633   1.036   6.287 -2.8792  0.5361  0.1529
  132MOL0     H17798   1.487   1.246   6.136 -1.2517  0.1691 -0.2739
  132MOL0     H17799   1.440   1.199   6.304 -2.6646 -2.3216  0.0456
  132MOL0     H17800   1.289   1.072   6.179 -0.3856 -2.1233  1.6845
  132MOL0     H17801   1.416   0.965   6.234  0.8423 -0.1233 -0.7924
  132MOL0     H17802   2.345   1.310   6.457  0.3882  1.4837 -0.8123
  132MOL0     H17803   2.549   1.343   6.568 -3.7916 -0.2707  0.3814
  132MOL0     H17804   2.873   1.235   6.881 -1.6167  1.1418 -0.7368
  132MOL0     H17805   3.079   1.261   6.985 -0.0230 -0.9966  0.1659
  132MOL0     H17806   3.703   1.341   5.829  2.2407 -0.8437  0.3925
  132MOL0     H17807   3.475   1.275   5.779  1.4964  0.9524  0.0511
  132MOL0     H17808   2.941   1.407   6.049  2.0609  1.1403 -1.4424
  132MOL0     H17809   2.728   1.406   5.898  1.0853  1.6432  0.9212
  132MOL0     H17810   2.761   1.231   5.498  2.5809 -1.8133  1.5311
  132MOL0     H17811   2.728   1.085   5.572  1.3262  1.3433  1.4051
  132MOL0     H17812   2.484   1.254   5.605 -2.5478 -1.1352 -1.6066
  132MOL0     H17813   2.512   1.128   5.487  1.6282  0.7148 -0.7390
  132MOL0     H17814   2.592   1.274   5.324  1.0206 -2.1971  0.9620
  132MOL0     H17815   2.593   1.415   5.430  0.4059 -0.2211  0.3500
  132MOL0     H17816   2.336   1.334   5.446 -1.4765  2.2700 -1.5007
  132MOL0     H17817   2.381   1.248   5.296  1.5792 -0.6938  0.7214
  132MOL0     H17818   2.328   1.621   5.142 -0.0726 -1.2848 -0.6847
  132MOL0     H17819   2.944   1.192   5.607 -1.2409 -1.0312 -0.0063
  132MOL0     H17820   3.140   1.187   5.748 -0.0190  0.6093 -2.1810
  133MOL0     O17821   8.588  11.135   8.104  0.3431  0.3803  1.0671
  133MOL0     C17822   8.623  11.163   8.214  0.1614 -0.3127  0.0892
  133MOL0     O17823   8.551  11.218   8.314  0.5173 -0.5365  0.1409
  133MOL0     C17824   8.413  11.244   8.312 -0.0837 -0.5154  0.8352
  133MOL0     C17825   8.358  11.344   8.407 -0.2664 -0.6878 -0.2935
  133MOL0     C17826   8.222  11.388   8.400  0.8397 -0.4501 -0.4089
  133MOL0     C17827   8.136  11.325   8.309  0.0627  0.7720  0.0041
  133MOL0     O17828   8.007  11.354   8.304  0.2020  0.0637  1.0296
  133MOL0     C17829   7.952  11.490   8.317 -0.0539  0.4717  0.3396
  133MOL0     C17830   7.808  11.473   8.265  0.5231  0.9467 -0.3989
  133MOL0     C17831   7.712  11.405   8.365  0.0308  0.3872 -0.3712
  133MOL0     C17832   7.566  11.398   8.321  0.0692  0.5512 -0.3753
  133MOL0     C17833   7.479  11.401   8.454  0.9437  0.1261 -0.3103
  133MOL0     C17834   7.494  11.270   8.529 -0.0913 -0.1548 -0.2217
  133MOL0     C17835   7.401  11.245   8.651  0.6388  0.3879 -0.2355
  133MOL0     C17836   7.416  11.348   8.764  0.4129  0.0127 -0.0418
  133MOL0     N17837   7.345  11.304   8.887  0.3194  0.9733  0.3556
  133MOL0     C17838   7.212  11.274   8.893  0.7360  0.2411  0.0957
  133MOL0     C17839   7.200  11.219   9.016 -0.2499  0.3254  0.5403
  133MOL0     C17840   7.071  11.166   9.079  0.0740 -0.1929 -0.2540
  133MOL0     C17841   7.069  11.019   9.093  0.3812 -0.6667 -0.1089
  133MOL0     C17842   6.937  10.969   9.149  0.4642  0.2664 -0.7266
  133MOL0     C17843   6.924  10.821   9.160  0.1362  0.0068 -0.7606
  133MOL0     O17844   6.910  10.760   9.034 -0.0573  1.0214 -0.7374
  133MOL0     C17845   6.792  10.702   9.002 -0.1586 -0.2223  0.2042
  133MOL0     C17846   6.664  10.753   9.034 -0.3686  0.3209  0.1691
  133MOL0     C17847   6.545  10.690   9.008  0.7150  0.9671  0.0417
  133MOL0     C17848   6.416  10.755   9.054  0.4758 -0.1303 -0.2363
  133MOL0     C17849   6.556  10.562   8.940  0.2191 -0.3667  0.3371
  133MOL0     C17850   6.434  10.478   8.898  0.3806 -0.5351 -0.8118
  133MOL0     O17851   6.322  10.464   8.985  0.1657 -0.4957  0.0159
  133MOL0     C17852   6.234  10.368   8.949 -0.4159  0.2013 -0.5303
  133MOL0     C17853   6.251  10.245   9.017  0.7979  1.0423 -0.5811
  133MOL0     C17854   6.176  10.132   8.977 -0.7820 -0.0053  0.6122
  133MOL0     C17855   6.067  10.155   8.896 -1.2039  0.2590 -0.0646
  133MOL0     O17856   5.986  10.052   8.862 -0.6846 -0.8928 -0.2061
  133MOL0     C17857   6.029   9.920   8.849  0.3011 -0.8176 -0.0540
  133MOL0     C17858   5.906   9.833   8.806  0.5737  0.1744 -0.1049
  133MOL0     C17859   5.778   9.840   8.903  0.3763  0.1847  0.3077
  133MOL0     C17860   5.657   9.737   8.864 -0.5048 -0.1097 -0.2305
  133MOL0     C17861   5.687   9.591   8.885 -0.1903  0.4142  0.4631
  133MOL0     C17862   5.712   9.556   9.032  0.2219 -0.4431 -0.2167
  133MOL0     C17863   5.857   9.552   9.065  0.3577 -0.6352  0.1221
  133MOL0     C17864   5.892   9.552   9.206  1.2123 -0.2875 -0.1227
  133MOL0    Cl17865   6.067   9.586   9.232 -0.1171 -0.0450  0.3007
  133MOL0     C17866   6.035  10.277   8.839 -0.1068  0.0126  0.7821
  133MOL0     C17867   6.118  10.384   8.866  0.1029  0.6698  0.9118
  133MOL0     O17868   6.451  10.417   8.791  0.4922 -0.2267 -0.2893
  133MOL0     C17869   6.682  10.513   8.900 -0.4454 -0.3563  0.4247
  133MOL0     C17870   6.798  10.585   8.927 -0.1472  0.2596 -0.3357
  133MOL0     N17871   7.322  11.217   9.080 -0.3953 -0.2173 -0.4809
  133MOL0     N17872   7.403  11.276   9.004 -0.4196 -0.7414 -0.4144
  133MOL0     C17873   8.177  11.218   8.225 -0.5844  0.2175  0.6686
  133MOL0     C17874   8.314  11.182   8.231  0.4220  0.1286 -0.0173
  133MOL0     C17875   8.755  11.122   8.248  0.5442 -1.0186  0.7711
  133MOL0     C17876   8.859  11.119   8.155 -0.2693  0.2286 -0.0580
  133MOL0     C17877   8.987  11.076   8.195  0.6374  0.1682  0.3871
  133MOL0     C17878   9.018  11.054   8.327 -0.8341 -0.3478 -0.6291
  133MOL0     O17879   9.145  11.041   8.376 -0.0859  0.1893 -0.4240
  133MOL0     C17880   9.251  11.023   8.281  1.3306  0.8670 -0.5191
  133MOL0     C17881   9.259  10.878   8.227 -0.2597 -0.1137  0.2078
  133MOL0     C17882   9.393  10.811   8.242 -0.5688 -0.5785  0.5996
  133MOL0     C17883   9.383  10.672   8.199  0.5598 -0.0762  0.7478
  133MOL0     C17884   9.301  10.601   8.294  0.0162  0.4952  0.2925
  133MOL0     C17885   9.222  10.562   8.382  0.0423  0.4407 -0.2232
  133MOL0     C17886   8.915  11.072   8.422  0.2708  0.4961 -0.3697
  133MOL0     C17887   8.785  11.101   8.384 -1.0658 -0.1895 -0.2133
  133MOL0     H17888   8.430  11.392   8.474  3.4902 -1.8253 -3.1671
  133MOL0     H17889   8.182  11.457   8.473 -0.3974 -1.9496  0.3944
  133MOL0     H17890   7.956  11.502   8.426  0.4169 -0.3660  0.4177
  133MOL0     H17891   8.016  11.559   8.262 -0.6999 -0.6937 -2.0069
  133MOL0     H17892   7.778  11.577   8.247  2.6742  1.5641 -0.6861
  133MOL0     H17893   7.810  11.426   8.167  2.4901  0.3673 -0.1153
  133MOL0     H17894   7.755  11.308   8.393  1.5660  1.8178  2.8526
  133MOL0     H17895   7.712  11.464   8.457  0.1614  0.4627 -0.4189
  133MOL0     H17896   7.545  11.485   8.257  1.0829 -0.5972 -2.3975
  133MOL0     H17897   7.545  11.311   8.257  2.1133  1.6279 -2.6992
  133MOL0     H17898   7.512  11.483   8.518 -0.1341  0.7899 -0.5715
  133MOL0     H17899   7.376  11.416   8.420  0.3005  2.4640  2.2977
  133MOL0     H17900   7.470  11.188   8.462 -0.7362 -1.5080  1.5787
  133MOL0     H17901   7.599  11.261   8.561  0.5916  0.6068 -2.1184
  133MOL0     H17902   7.297  11.262   8.621  0.4391 -2.0798 -1.1501
  133MOL0     H17903   7.410  11.144   8.692  0.8554  0.1166 -0.9427
  133MOL0     H17904   7.375  11.446   8.735  0.4868 -0.0985 -0.5300
  133MOL0     H17905   7.523  11.363   8.783 -0.3581  3.9969  2.3687
  133MOL0     H17906   7.141  11.278   8.812 -0.9638 -0.8055  1.4587
  133MOL0     H17907   7.041  11.212   9.173 -1.0779 -0.3948 -0.4996
  133MOL0     H17908   6.989  11.196   9.012 -0.3216  0.6285  0.5877
  133MOL0     H17909   7.159  10.987   9.145  1.3059  1.4831 -0.2594
  133MOL0     H17910   7.056  10.975   8.994  0.7234 -1.6368  0.2635
  133MOL0     H17911   6.853  11.002   9.088  0.5195 -0.3121 -1.1261
  133MOL0     H17912   6.923  11.011   9.249 -1.9584 -1.4839 -0.2559
  133MOL0     H17913   6.845  10.786   9.228 -0.6708  2.7320 -0.1748
  133MOL0     H17914   7.023  10.791   9.195  0.1031 -1.4825 -1.8442
  133MOL0     H17915   6.654  10.846   9.090 -2.8879  1.3628 -1.7688
  133MOL0     H17916   6.440  10.809   9.146  1.8606 -2.5099  0.8586
  133MOL0     H17917   6.366  10.815   8.977 -0.9834 -1.3282 -0.2674
  133MOL0     H17918   6.342  10.679   9.082  0.1206 -0.4152 -1.8436
  133MOL0     H17919   6.331  10.218   9.084  1.3398  0.8692 -1.2806
  133MOL0     H17920   6.191  10.036   9.027 -3.0293  0.4132  2.2187
  133MOL0     H17921   6.097   9.908   8.765 -0.1523  0.8350 -0.6899
  133MOL0     H17922   6.073   9.888   8.945  4.3309  1.1355 -1.0407
  133MOL0     H17923   5.863   9.856   8.708 -0.6955  1.4123  0.7269
  133MOL0     H17924   5.937   9.728   8.794 -0.4770 -0.1899  0.2478
  133MOL0     H17925   5.738   9.941   8.892 -0.8460 -0.3878 -0.7153
  133MOL0     H17926   5.808   9.815   9.005 -3.4260  1.0216  1.8194
  133MOL0     H17927   5.573   9.768   8.926 -1.0030 -1.3065 -0.2707
  133MOL0     H17928   5.630   9.754   8.759  0.5347 -2.7170 -1.0128
  133MOL0     H17929   5.771   9.579   8.816 -2.3426  2.0357 -2.6822
  133MOL0     H17930   5.603   9.533   8.847  1.2902  0.7466 -3.9591
  133MOL0     H17931   5.655   9.619   9.101  1.4320 -0.0966  0.4987
  133MOL0     H17932   5.665   9.459   9.048 -0.1070 -0.3548 -0.6424
  133MOL0     H17933   5.908   9.640   9.023 -1.3701 -0.2933 -1.3983
  133MOL0     H17934   5.910   9.465   9.026  2.6200  0.0632  1.4237
  133MOL0     H17935   5.871   9.450   9.238 -1.1356  0.4433  1.0144
  133MOL0     H17936   5.835   9.620   9.272  2.6888  0.2903  0.5942
  133MOL0     H17937   5.947  10.303   8.782  1.0586 -0.2627 -1.2277
  133MOL0     H17938   6.111  10.484   8.824  2.1953  1.1670  1.6240
  133MOL0     H17939   6.700  10.433   8.830  1.0964  0.4621 -0.1762
  133MOL0     H17940   6.896  10.541   8.913  1.0206  1.5274  3.0184
  133MOL0     H17941   8.108  11.160   8.165  0.1043 -2.6914  2.4743
  133MOL0     H17942   8.348  11.098   8.171 -0.3653 -0.5166  0.4380
  133MOL0     H17943   8.834  11.148   8.053 -2.4034  0.8625  0.5892
  133MOL0     H17944   9.059  11.059   8.116  4.1903 -1.3748  3.6132
  133MOL0     H17945   9.254  11.091   8.195 -1.1619  0.5399 -0.9428
  133MOL0     H17946   9.342  11.053   8.333  1.0119 -0.1429  0.6526
  133MOL0     H17947   9.231  10.878   8.121 -1.3265 -0.7313  0.4781
  133MOL0     H17948   9.183  10.826   8.285  1.0551  0.4054  2.5263
  133MOL0     H17949   9.420  10.807   8.348 -0.5661 -3.0029  0.5590
  133MOL0     H17950   9.464  10.862   8.176 -1.8512  0.0734 -0.3361
  133MOL0     H17951   9.480  10.621   8.204  1.8401  2.2970  1.5514
  133MOL0     H17952   9.337  10.662   8.100 -2.5455  1.0181  1.9641
  133MOL0     H17953   9.162  10.531   8.465  0.4236 -1.7966 -0.7092
  133MOL0     H17954   8.934  11.067   8.529 -1.1733 -1.8684 -0.1596
  133MOL0     H17955   8.710  11.095   8.461 -1.5789  0.9899 -0.5935
  134MOL0     O17956   1.837   9.206   9.850  0.2988  0.0246  0.4302
  134MOL0     C17957   1.828   9.227   9.730 -0.3978  0.2752  0.2064
  134MOL0     O17958   1.719   9.218   9.646 -0.0888  1.1008 -1.1411
  134MOL0     C17959   1.594   9.193   9.693  0.2358 -0.1334 -0.2844
  134MOL0     C17960   1.484   9.247   9.625  0.5292  0.9339  0.9885
  134MOL0     C17961   1.345   9.210   9.647 -0.6448  0.4154 -0.2169
  134MOL0     C17962   1.316   9.118   9.748 -0.4252 -0.1180  0.1059
  134MOL0     O17963   1.187   9.082   9.783 -1.1738 -0.2542  0.0058
  134MOL0     C17964   1.072   9.156   9.749  0.3065  0.0414 -0.3134
  134MOL0     C17965   0.950   9.113   9.825 -0.2444  1.0379 -0.3791
  134MOL0     C17966   0.809   9.138   9.765 -0.0231 -0.3473  0.4085
  134MOL0     C17967   0.705   9.085   9.858  0.7252  0.0736 -0.2344
  134MOL0     C17968   0.566   9.134   9.814  0.6425 -0.8716  0.1463
  134MOL0     C17969   0.449   9.052   9.855 -0.1259 -0.0823  0.1152
  134MOL0     C17970   0.313   9.095   9.784 -0.4570  0.7019 -0.7667
  134MOL0     C17971   0.297   9.091   9.631 -0.3660 -0.5467  0.7926
  134MOL0     N17972   0.161   9.095   9.588  0.0175  0.2320  0.5436
  134MOL0     C17973   0.084   9.207   9.560 -0.1148 -0.3921  0.6201
  134MOL0     C17974  -0.039   9.160   9.537  0.4536 -0.3004  0.0425
  134MOL0     C17975  -0.160   9.233   9.479  0.5177 -0.3706 -0.2728
  134MOL0     C17976  -0.275   9.138   9.468  0.1794 -0.1754 -0.4461
  134MOL0     C17977  -0.406   9.219   9.437 -0.2718  0.2946 -0.2336
  134MOL0     C17978  -0.523   9.119   9.452  1.2642  0.1443 -0.3816
  134MOL0     O17979  -0.542   9.100   9.591  0.1997  0.0580  0.1092
  134MOL0     C17980  -0.657   9.141   9.647  0.7874  0.2205 -0.1659
  134MOL0     C17981  -0.699   9.062   9.751 -0.1254 -0.4717 -0.7152
  134MOL0     C17982  -0.821   9.073   9.810 -0.8324  0.2602  1.4239
  134MOL0     C17983  -0.859   8.990   9.924 -0.0239  0.4898  0.6500
  134MOL0     C17984  -0.917   9.159   9.745  0.0155  0.4876 -0.2464
  134MOL0     C17985  -1.061   9.168   9.772 -1.1394  0.4636 -0.8897
  134MOL0     O17986  -1.156   9.222   9.691 -0.2286 -0.0337  1.0508
  134MOL0     C17987  -1.282   9.202   9.730 -0.0124  0.2444  0.0697
  134MOL0     C17988  -1.360   9.296   9.794 -0.4632  0.0234  0.0905
  134MOL0     C17989  -1.494   9.275   9.817 -0.5793  0.0413 -0.6357
  134MOL0     C17990  -1.559   9.156   9.790  0.2279  0.1681  0.4313
  134MOL0     O17991  -1.693   9.149   9.821 -0.5284  0.1627  0.3438
  134MOL0     C17992  -1.770   9.030   9.803 -0.2530  0.0168 -0.0740
  134MOL0     C17993  -1.928   9.058   9.811 -0.4297 -0.5768 -0.0966
  134MOL0     C17994  -1.971   9.125   9.946 -0.2931 -1.1325  0.2394
  134MOL0     C17995  -2.119   9.164   9.962 -0.3408  0.7181 -0.9121
  134MOL0     C17996  -2.129   9.199  10.119 -0.3293  0.3798  0.7196
  134MOL0     C17997  -2.279   9.217  10.157  0.6342 -0.5452 -0.7668
  134MOL0     C17998  -2.300   9.236  10.308 -1.0575  0.6976 -0.3793
  134MOL0     C17999  -2.436   9.304  10.331  0.3662 -1.1037 -0.2194
  134MOL0    Cl18000  -2.577   9.205  10.301  0.4422 -0.0796  0.1138
  134MOL0     C18001  -1.484   9.056   9.735  0.4479  0.2997 -0.5078
  134MOL0     C18002  -1.351   9.072   9.712 -0.2477 -0.4824 -0.3226
  134MOL0     O18003  -1.090   9.133   9.886 -0.6640 -0.0733  0.1359
  134MOL0     C18004  -0.871   9.246   9.647  0.4526  0.4955 -0.4708
  134MOL0     C18005  -0.739   9.245   9.608  0.2490  0.2309 -0.3551
  134MOL0     N18006  -0.028   9.024   9.549  0.5057 -0.5820  0.2155
  134MOL0     N18007   0.092   8.983   9.576  0.4698 -0.3243 -0.3104
  134MOL0     C18008   1.422   9.067   9.821 -0.1910  0.3953  0.3539
  134MOL0     C18009   1.555   9.112   9.803  0.0520  0.1801  0.3740
  134MOL0     C18010   1.954   9.262   9.659 -0.1717  0.4495 -0.4138
  134MOL0     C18011   2.075   9.260   9.729  1.1650 -0.9530  0.1347
  134MOL0     C18012   2.189   9.324   9.668  0.8338  0.0284 -0.0318
  134MOL0     C18013   2.187   9.374   9.537  0.2899 -0.0198 -0.8015
  134MOL0     O18014   2.310   9.414   9.494  0.1934 -0.0086 -0.2598
  134MOL0     C18015   2.320   9.459   9.359 -0.3923 -0.2875 -0.0300
  134MOL0     C18016   2.454   9.424   9.311 -0.5827 -0.2752  0.5419
  134MOL0     C18017   2.446   9.374   9.163 -1.1488  0.3099 -0.7535
  134MOL0     C18018   2.594   9.350   9.125 -0.1409 -0.6683 -0.6873
  134MOL0     C18019   2.667   9.473   9.099 -1.2173  0.3736 -0.8085
  134MOL0     C18020   2.723   9.571   9.071 -0.2614 -0.4138  0.4034
  134MOL0     C18021   2.065   9.373   9.471 -0.0578 -0.6054 -0.1459
  134MOL0     C18022   1.948   9.312   9.525  1.0864 -0.0498 -0.1020
  134MOL0     H18023   1.495   9.311   9.538 -0.1246  3.4963  2.6911
  134MOL0     H18024   1.266   9.245   9.581  0.0156  1.2674 -0.5775
  134MOL0     H18025   1.083   9.263   9.768 -0.2476 -0.0444  0.5407
  134MOL0     H18026   1.060   9.129   9.644 -4.4269 -0.7401  0.2083
  134MOL0     H18027   0.959   9.005   9.844  1.0421  1.0124 -1.0369
  134MOL0     H18028   0.966   9.160   9.922  0.0158 -0.6832  0.4555
  134MOL0     H18029   0.788   9.244   9.747 -1.4664 -0.7711 -0.5439
  134MOL0     H18030   0.800   9.082   9.672 -1.1310  1.7889 -0.8548
  134MOL0     H18031   0.712   8.977   9.873 -2.9641  0.1214  4.1540
  134MOL0     H18032   0.717   9.121   9.961 -2.3961 -3.3057  1.5893
  134MOL0     H18033   0.556   9.236   9.853  0.1720 -0.9810  0.3164
  134MOL0     H18034   0.553   9.148   9.706 -1.1565 -1.9993  0.1725
  134MOL0     H18035   0.468   8.949   9.824 -1.1447  0.6041 -3.2772
  134MOL0     H18036   0.448   9.057   9.964  4.2878  1.2508  0.2540
  134MOL0     H18037   0.244   9.028   9.839  1.0615  0.5763  1.0958
  134MOL0     H18038   0.303   9.198   9.819 -1.7336 -0.1208  1.6017
  134MOL0     H18039   0.349   9.004   9.591  0.2826  1.9521 -4.7738
  134MOL0     H18040   0.352   9.172   9.581  0.8785 -3.2532 -2.6150
  134MOL0     H18041   0.131   9.302   9.535  0.6624 -1.2034 -1.1231
  134MOL0     H18042  -0.170   9.316   9.549  1.0022 -0.2847 -0.2995
  134MOL0     H18043  -0.137   9.260   9.375  0.6678 -1.6192 -0.5809
  134MOL0     H18044  -0.285   9.093   9.567  0.2682  0.8611  0.0419
  134MOL0     H18045  -0.254   9.057   9.398 -1.6322 -2.7093  1.7334
  134MOL0     H18046  -0.397   9.249   9.332 -0.2423 -2.6418 -1.1753
  134MOL0     H18047  -0.412   9.307   9.501  1.2308  1.4826 -1.6381
  134MOL0     H18048  -0.502   9.031   9.391  0.3040  0.0365 -0.5603
  134MOL0     H18049  -0.609   9.162   9.400  0.4892 -0.5128  0.3265
  134MOL0     H18050  -0.632   8.985   9.787 -1.8924 -0.8950  1.9971
  134MOL0     H18051  -0.776   8.940   9.975 -2.7651 -3.7832  1.3441
  134MOL0     H18052  -0.895   9.068   9.993  1.2269  0.4301  1.4136
  134MOL0     H18053  -0.939   8.918   9.908  3.4693 -3.2474 -2.0000
  134MOL0     H18054  -1.310   9.389   9.819 -1.0049  0.2005  0.5447
  134MOL0     H18055  -1.544   9.357   9.868 -1.7434 -1.7985  1.3412
  134MOL0     H18056  -1.755   8.980   9.706  2.8152 -0.8366  0.7144
  134MOL0     H18057  -1.734   8.968   9.886 -0.1540  1.9569  1.4072
  134MOL0     H18058  -1.938   9.122   9.723  1.3661  1.4544  1.0740
  134MOL0     H18059  -1.980   8.962   9.809 -3.4951  0.9330  0.8054
  134MOL0     H18060  -1.915   9.219   9.950 -2.0201  0.0874 -1.8999
  134MOL0     H18061  -1.933   9.058  10.023 -0.1406  0.3275  1.4956
  134MOL0     H18062  -2.141   9.248   9.895  1.5109  0.7866 -1.4894
  134MOL0     H18063  -2.180   9.077   9.935  2.6741 -0.9127 -3.0272
  134MOL0     H18064  -2.070   9.287  10.145 -0.5723  0.2628  1.7137
  134MOL0     H18065  -2.097   9.115  10.182 -0.9883 -0.0718  0.4643
  134MOL0     H18066  -2.319   9.299  10.097 -0.8702 -0.3878  0.3833
  134MOL0     H18067  -2.331   9.126  10.125  0.3955 -0.8343  0.4074
  134MOL0     H18068  -2.223   9.305  10.341  0.8021 -1.6341  0.4593
  134MOL0     H18069  -2.288   9.146  10.369  2.3224  1.0870 -0.3208
  134MOL0     H18070  -2.443   9.391  10.264 -0.3897 -1.4345 -0.5775
  134MOL0     H18071  -2.440   9.345  10.433  2.2737 -0.6851 -0.2739
  134MOL0     H18072  -1.519   8.959   9.702  1.3102 -0.1351 -0.1825
  134MOL0     H18073  -1.293   8.987   9.677  1.3303  1.1777 -1.9767
  134MOL0     H18074  -0.936   9.317   9.597 -0.5855 -1.2587 -1.7389
  134MOL0     H18075  -0.718   9.308   9.522 -1.6889 -0.8057 -1.6674
  134MOL0     H18076   1.408   9.009   9.912 -0.8247  0.4826  0.3172
  134MOL0     H18077   1.641   9.084   9.863  1.7187  2.3679 -0.8559
  134MOL0     H18078   2.087   9.215   9.827  0.7322  0.3422  0.8109
  134MOL0     H18079   2.284   9.325   9.721  0.4999 -1.2521  0.6405
  134MOL0     H18080   2.244   9.401   9.306 -0.5924  1.5709 -1.8871
  134MOL0     H18081   2.302   9.567   9.354 -1.2043 -0.2945  1.8319
  134MOL0     H18082   2.491   9.339   9.370 -0.2245 -2.2409 -2.3002
  134MOL0     H18083   2.529   9.502   9.325 -2.4315  1.7005  0.0713
  134MOL0     H18084   2.389   9.445   9.103 -2.7199  1.9704  2.4256
  134MOL0     H18085   2.388   9.281   9.158 -3.9821  1.7709  1.6346
  134MOL0     H18086   2.597   9.296   9.029  0.1608 -0.1512 -0.9746
  134MOL0     H18087   2.645   9.280   9.192  2.5329  1.0739 -0.7479
  134MOL0     H18088   2.786   9.652   9.042 -0.2197 -1.3939 -2.5161
  134MOL0     H18089   2.053   9.419   9.374 -0.9932  1.4388  0.8877
  134MOL0     H18090   1.861   9.319   9.461  0.8071  0.0052  0.2754
  135MOL0     O18091   9.902   6.311  11.107 -0.5281  0.1412  0.2975
  135MOL0     C18092   9.892   6.194  11.151  0.4063  0.0443 -0.1230
  135MOL0     O18093   9.848   6.089  11.076 -0.3229 -0.0801  0.4098
  135MOL0     C18094   9.799   6.122  10.949 -0.9827  0.1499 -0.1036
  135MOL0     C18095   9.886   6.134  10.837 -0.4593  0.2286 -0.4366
  135MOL0     C18096   9.830   6.161  10.712  0.2433  0.8791  0.1890
  135MOL0     C18097   9.695   6.176  10.695  0.7301  0.1990  0.4658
  135MOL0     O18098   9.648   6.199  10.566 -0.6965  0.6334  0.7867
  135MOL0     C18099   9.520   6.267  10.551 -0.5398  0.7868  0.0459
  135MOL0     C18100   9.506   6.309  10.403  0.0505 -0.2385  0.2552
  135MOL0     C18101   9.386   6.399  10.382 -0.6705  0.8669 -0.0649
  135MOL0     C18102   9.266   6.312  10.374 -0.5409 -0.1580  0.1273
  135MOL0     C18103   9.145   6.394  10.313 -0.0533  0.4220  0.3407
  135MOL0     C18104   9.111   6.514  10.405  0.0284  0.4112  0.2717
  135MOL0     C18105   8.995   6.588  10.339 -0.4737  1.1887 -0.0914
  135MOL0     C18106   8.940   6.693  10.436 -0.3769  0.3602  0.9707
  135MOL0     N18107   8.841   6.635  10.523  0.4857 -0.0179  0.2951
  135MOL0     C18108   8.864   6.581  10.649  0.9206  0.1529  0.2089
  135MOL0     C18109   8.739   6.557  10.689  0.3421 -0.6295  0.0788
  135MOL0     C18110   8.711   6.505  10.829  0.7380 -0.4065  0.9172
  135MOL0     C18111   8.637   6.606  10.917  0.2697  0.0955  0.0400
  135MOL0     C18112   8.505   6.660  10.865 -0.2147 -0.2785  0.5945
  135MOL0     C18113   8.417   6.750  10.965 -0.0280  0.5145 -0.1230
  135MOL0     O18114   8.380   6.684  11.087  0.0650  0.3986  0.3959
  135MOL0     C18115   8.263   6.605  11.092 -0.3654 -0.4582  0.4947
  135MOL0     C18116   8.193   6.548  10.984 -0.5077  0.1361  0.8825
  135MOL0     C18117   8.084   6.475  10.999 -0.6553 -0.2586 -0.6698
  135MOL0     C18118   8.014   6.435  10.873 -0.4130 -0.4448 -0.2150
  135MOL0     C18119   8.034   6.440  11.127 -0.2265  0.4554 -0.6447
  135MOL0     C18120   7.911   6.356  11.155 -0.2668  0.0218 -0.2731
  135MOL0     O18121   7.870   6.267  11.064 -0.0595  0.2108  0.0983
  135MOL0     C18122   7.733   6.238  11.066  0.4067  1.0156  0.5766
  135MOL0     C18123   7.647   6.281  10.965  0.2316  1.1530 -0.3186
  135MOL0     C18124   7.515   6.231  10.962 -0.2696  0.3128 -0.1543
  135MOL0     C18125   7.463   6.157  11.068  0.4147 -0.1367 -0.5689
  135MOL0     O18126   7.320   6.140  11.078  0.0860 -0.4489  0.1128
  135MOL0     C18127   7.262   6.131  11.210 -0.3002 -0.4472  0.7411
  135MOL0     C18128   7.104   6.133  11.189 -0.2403  0.7243  0.0220
  135MOL0     C18129   7.027   6.111  11.312  0.2394  0.1148 -0.0461
  135MOL0     C18130   6.877   6.128  11.303  0.3739 -0.2227  0.0779
  135MOL0     C18131   6.814   6.111  11.440 -1.2944 -0.0701  0.3253
  135MOL0     C18132   6.663   6.133  11.441 -0.2732 -0.2772 -0.0743
  135MOL0     C18133   6.584   6.022  11.394  0.0884 -0.3917 -0.1983
  135MOL0     C18134   6.457   6.014  11.480  0.1933  0.7329 -0.0203
  135MOL0    Cl18135   6.372   5.877  11.409 -0.0271  0.1278  0.3674
  135MOL0     C18136   7.544   6.122  11.172  0.7170  0.3459  0.2540
  135MOL0     C18137   7.680   6.151  11.164 -0.0504  0.1061 -0.3391
  135MOL0     O18138   7.846   6.377  11.257  0.1134  0.5212  0.3018
  135MOL0     C18139   8.107   6.485  11.239  0.1232 -0.6345 -0.3396
  135MOL0     C18140   8.220   6.573  11.223  0.3363  0.7779 -0.4376
  135MOL0     N18141   8.649   6.580  10.582 -0.1402 -0.1204 -0.3082
  135MOL0     N18142   8.715   6.622  10.481  0.2614 -0.0654  0.5002
  135MOL0     C18143   9.608   6.184  10.803 -0.1729 -1.1315 -0.8709
  135MOL0     C18144   9.660   6.156  10.937  0.7068  0.0039  1.0296
  135MOL0     C18145   9.942   6.170  11.293  1.0801  0.6281  0.3597
  135MOL0     C18146   9.976   6.274  11.385 -0.2515 -1.2067  0.4201
  135MOL0     C18147  10.041   6.235  11.504  0.9496  0.1485  0.3234
  135MOL0     C18148  10.058   6.103  11.536  0.4518 -1.1755 -0.4829
  135MOL0     O18149  10.109   6.076  11.662  0.4135  0.1600 -0.4921
  135MOL0     C18150  10.149   5.939  11.698 -0.4016 -0.1072 -0.8858
  135MOL0     C18151  10.301   5.926  11.684 -0.6581 -0.5761 -0.2230
  135MOL0     C18152  10.378   6.043  11.744 -0.3884 -0.6641 -0.2986
  135MOL0     C18153  10.385   6.168  11.647 -0.1062 -0.5449  0.5208
  135MOL0     C18154  10.499   6.254  11.666 -0.2136 -0.2810 -0.6720
  135MOL0     C18155  10.606   6.315  11.671  0.3249  0.1889 -0.3569
  135MOL0     C18156  10.018   6.000  11.444  0.4035 -0.7235 -0.5342
  135MOL0     C18157   9.966   6.033  11.318  1.3529 -0.1942  0.2061
  135MOL0     H18158   9.992   6.120  10.851 -0.5035  0.5029  0.2414
  135MOL0     H18159   9.895   6.163  10.625  0.6570  3.7447  0.4929
  135MOL0     H18160   9.443   6.197  10.583 -1.6277  1.8430 -0.1981
  135MOL0     H18161   9.519   6.355  10.617  0.9800 -0.6099  2.0827
  135MOL0     H18162   9.592   6.371  10.377 -0.5295 -0.3713 -2.2384
  135MOL0     H18163   9.513   6.221  10.338  3.2985  1.4904 -2.0583
  135MOL0     H18164   9.377   6.468  10.467 -3.2897 -1.3337  1.5761
  135MOL0     H18165   9.401   6.449  10.285 -4.3250  0.7377 -0.8210
  135MOL0     H18166   9.286   6.231  10.303 -1.4786 -1.3003  1.1195
  135MOL0     H18167   9.243   6.262  10.468 -0.0759 -0.0707  0.2880
  135MOL0     H18168   9.163   6.442  10.216 -1.1332  1.2569  0.5378
  135MOL0     H18169   9.059   6.326  10.307 -1.1299  1.7953 -0.4668
  135MOL0     H18170   9.082   6.475  10.503 -0.4384  0.4882  0.1650
  135MOL0     H18171   9.193   6.585  10.417 -0.2752  0.8765 -0.3223
  135MOL0     H18172   9.026   6.623  10.240  1.7381 -3.8351 -1.4990
  135MOL0     H18173   8.912   6.519  10.325  2.4706 -2.9460  1.0438
  135MOL0     H18174   8.895   6.766  10.368  2.7836  1.6880  0.0994
  135MOL0     H18175   9.026   6.736  10.489  2.0305 -0.2760 -2.0835
  135MOL0     H18176   8.957   6.578  10.705  0.8953  1.1358  0.3245
  135MOL0     H18177   8.662   6.409  10.805  0.9757 -0.1934 -0.5499
  135MOL0     H18178   8.804   6.485  10.882  0.4844 -1.1452  1.0949
  135MOL0     H18179   8.702   6.691  10.936  1.0866 -0.2115 -1.2766
  135MOL0     H18180   8.609   6.565  11.015 -1.2790  2.4551  0.6680
  135MOL0     H18181   8.446   6.577  10.825  2.0829 -2.4160  1.3352
  135MOL0     H18182   8.519   6.721  10.775 -2.0392  0.3584  0.7117
  135MOL0     H18183   8.330   6.790  10.914 -0.9568 -0.9554  0.2419
  135MOL0     H18184   8.472   6.838  10.999 -0.5173 -0.0363  2.3200
  135MOL0     H18185   8.231   6.571  10.885 -0.5452  2.2373  1.3084
  135MOL0     H18186   8.035   6.330  10.853  0.6622 -0.2754 -0.0279
  135MOL0     H18187   7.907   6.452  10.889 -0.3266 -0.5026  0.4429
  135MOL0     H18188   8.044   6.492  10.785 -2.7708 -0.9597 -1.4428
  135MOL0     H18189   7.687   6.350  10.892  2.4662 -1.6951 -2.0303
  135MOL0     H18190   7.451   6.273  10.885  1.0185  2.0158 -0.3569
  135MOL0     H18191   7.287   6.038  11.263 -1.9762  1.3934  5.2202
  135MOL0     H18192   7.304   6.214  11.268  1.0084 -0.5637  0.0096
  135MOL0     H18193   7.068   6.220  11.133 -0.5013 -0.4303 -1.6997
  135MOL0     H18194   7.077   6.048  11.126 -2.5423  1.5566 -0.1923
  135MOL0     H18195   7.058   6.187  11.385  0.0320  2.9649 -2.6982
  135MOL0     H18196   7.051   6.015  11.357 -5.0498 -0.5727  2.0201
  135MOL0     H18197   6.858   6.225  11.255  1.6241  0.3562  0.6911
  135MOL0     H18198   6.847   6.045  11.239  3.4078 -0.6144 -0.9700
  135MOL0     H18199   6.861   6.188  11.502 -0.5247  0.7031 -1.1634
  135MOL0     H18200   6.846   6.019  11.489  1.9430  1.8272  2.1651
  135MOL0     H18201   6.635   6.158  11.544 -3.5028 -1.1077 -0.6504
  135MOL0     H18202   6.647   6.227  11.387 -3.8230 -0.2695  0.7765
  135MOL0     H18203   6.639   5.928  11.389  2.1496  0.6771  0.9030
  135MOL0     H18204   6.540   6.036  11.295 -1.2116  0.7500  0.5061
  135MOL0     H18205   6.390   6.101  11.483  1.7975  2.0074  2.1629
  135MOL0     H18206   6.487   5.994  11.584  2.9485 -0.6306 -0.9960
  135MOL0     H18207   7.503   6.063  11.254  0.9798 -0.4723 -0.1874
  135MOL0     H18208   7.749   6.126  11.244 -1.4079 -0.1068  0.8119
  135MOL0     H18209   8.075   6.465  11.341 -0.4251  3.3466  0.4371
  135MOL0     H18210   8.271   6.598  11.315  0.2307 -0.1045 -0.1371
  135MOL0     H18211   9.500   6.192  10.806 -0.0984  0.0345 -0.5789
  135MOL0     H18212   9.596   6.157  11.025  1.2404 -0.8289  1.4383
  135MOL0     H18213   9.962   6.381  11.375 -1.3880 -1.1515  2.1015
  135MOL0     H18214  10.082   6.299  11.581 -2.0801 -0.7112  2.8456
  135MOL0     H18215  10.127   5.924  11.804  1.4585 -0.7235 -0.5504
  135MOL0     H18216  10.108   5.863  11.631  0.9590  1.7647 -4.0730
  135MOL0     H18217  10.341   5.919  11.582 -0.3614  1.6814 -0.3039
  135MOL0     H18218  10.340   5.835  11.731 -0.9447 -1.3931 -1.5269
  135MOL0     H18219  10.480   6.009  11.768  0.8195  1.9860 -1.2729
  135MOL0     H18220  10.329   6.069  11.838  3.6145  0.5122  1.7258
  135MOL0     H18221  10.300   6.234  11.669 -1.6831 -2.3963  0.3079
  135MOL0     H18222  10.382   6.135  11.543  2.9017 -1.3297  0.5927
  135MOL0     H18223  10.700   6.366  11.670  0.8410 -0.7403 -0.2263
  135MOL0     H18224  10.021   5.894  11.468  1.0709 -0.1630  2.2049
  135MOL0     H18225   9.956   5.948  11.251  0.3360 -0.1131  0.2471
  136MOL0     O18226   2.296   7.470   1.517  0.8439 -0.1412  0.2688
  136MOL0     C18227   2.350   7.582   1.521  0.0354  0.2550 -0.1090
  136MOL0     O18228   2.281   7.698   1.496 -0.0838  0.0772  0.6317
  136MOL0     C18229   2.144   7.684   1.510  0.0088  0.0934  0.2074
  136MOL0     C18230   2.059   7.660   1.395 -0.1289  0.2269  0.1893
  136MOL0     C18231   1.921   7.646   1.415 -0.3355  0.2004  0.2175
  136MOL0     C18232   1.870   7.658   1.550  0.8443  0.5557  0.0169
  136MOL0     O18233   1.743   7.628   1.594  0.0191  0.2443  0.3430
  136MOL0     C18234   1.630   7.633   1.504  0.6102  0.9740  0.1336
  136MOL0     C18235   1.503   7.584   1.575 -0.9478 -0.2303  0.2927
  136MOL0     C18236   1.477   7.679   1.690 -0.0185  0.7751 -0.7851
  136MOL0     C18237   1.367   7.616   1.773  0.8031  0.7115  0.0176
  136MOL0     C18238   1.304   7.706   1.876 -0.4043  0.1168 -0.9382
  136MOL0     C18239   1.177   7.648   1.938  0.3394  0.1842 -0.6645
  136MOL0     C18240   1.127   7.728   2.057 -0.5855  0.4809  0.2651
  136MOL0     C18241   1.008   7.668   2.129  0.0110 -0.4050  0.0084
  136MOL0     N18242   0.882   7.693   2.051 -1.0294  0.0386 -0.5912
  136MOL0     C18243   0.825   7.804   2.025  0.0302 -0.1771  0.6452
  136MOL0     C18244   0.727   7.769   1.934 -0.1957 -0.6440  0.0628
  136MOL0     C18245   0.632   7.870   1.883 -0.2503 -0.3479  1.2820
  136MOL0     C18246   0.510   7.834   1.807  0.0900  0.4752  0.0879
  136MOL0     C18247   0.528   7.755   1.680 -0.3245 -0.0773 -0.5029
  136MOL0     C18248   0.394   7.731   1.616 -0.2396 -0.2198  0.2017
  136MOL0     O18249   0.418   7.678   1.478 -0.4373 -0.0711  0.1435
  136MOL0     C18250   0.313   7.624   1.405 -0.7456 -0.0926  0.4865
  136MOL0     C18251   0.191   7.599   1.475 -0.6994 -0.4806  0.6861
  136MOL0     C18252   0.089   7.541   1.396  1.0833  0.7828  0.1542
  136MOL0     C18253  -0.051   7.515   1.454  0.7454  0.4757  0.4850
  136MOL0     C18254   0.113   7.504   1.256  0.3179  0.7027 -0.1724
  136MOL0     C18255   0.005   7.450   1.166  0.1407 -0.1508 -0.1675
  136MOL0     O18256  -0.006   7.518   1.052  0.2153 -0.3874 -0.0816
  136MOL0     C18257  -0.095   7.477   0.961 -0.4023 -0.3731  1.0482
  136MOL0     C18258  -0.089   7.353   0.908 -0.0316  0.1049 -0.9122
  136MOL0     C18259  -0.168   7.320   0.800  0.6534  0.7527  0.0880
  136MOL0     C18260  -0.246   7.409   0.727 -0.2556 -0.4301 -0.4153
  136MOL0     O18261  -0.306   7.380   0.609 -0.4496 -0.0078 -0.2891
  136MOL0     C18262  -0.376   7.254   0.604 -0.0520  0.5236 -0.4883
  136MOL0     C18263  -0.471   7.261   0.481 -0.1452  0.2694 -0.5089
  136MOL0     C18264  -0.383   7.237   0.353  0.6720 -0.4094  0.3079
  136MOL0     C18265  -0.462   7.211   0.225 -0.2147 -0.0751 -1.0211
  136MOL0     C18266  -0.554   7.332   0.205  0.2898  0.0391 -0.1784
  136MOL0     C18267  -0.629   7.340   0.072 -0.3538 -0.3534 -0.0469
  136MOL0     C18268  -0.532   7.398  -0.041  0.5260  0.2797 -0.7511
  136MOL0     C18269  -0.556   7.319  -0.174  0.0200 -1.4401 -0.1207
  136MOL0    Cl18270  -0.701   7.372  -0.263  0.4186  0.1043  0.0469
  136MOL0     C18271  -0.258   7.527   0.795 -0.3413  0.3471  0.0012
  136MOL0     C18272  -0.185   7.564   0.910 -0.8982  0.3973  1.2231
  136MOL0     O18273  -0.067   7.358   1.204  0.0563 -0.0969  0.0677
  136MOL0     C18274   0.234   7.525   1.196 -0.0117  0.2974  0.1103
  136MOL0     C18275   0.334   7.596   1.269  0.3551  0.1351 -0.2007
  136MOL0     N18276   0.732   7.638   1.909 -1.2659 -0.3720 -0.6373
  136MOL0     N18277   0.818   7.592   1.985  0.1153  0.5649  0.1565
  136MOL0     C18278   1.956   7.695   1.657 -0.3421 -0.5812  0.4601
  136MOL0     C18279   2.095   7.712   1.629  0.1963 -0.6544 -0.5002
  136MOL0     C18280   2.494   7.574   1.528 -0.5405  0.0998  0.1710
  136MOL0     C18281   2.567   7.463   1.490  0.4530  0.8687  0.3405
  136MOL0     C18282   2.703   7.457   1.506 -0.4460  0.2054 -0.1389
  136MOL0     C18283   2.776   7.568   1.561  0.9847 -0.5718  0.0965
  136MOL0     O18284   2.910   7.568   1.593  0.0143 -0.3660 -0.3667
  136MOL0     C18285   2.998   7.462   1.543  0.0015 -0.1311 -0.5085
  136MOL0     C18286   3.138   7.495   1.575 -0.5177 -0.6847  0.1254
  136MOL0     C18287   3.230   7.379   1.515  0.0390  0.1701 -0.4631
  136MOL0     C18288   3.369   7.432   1.505 -0.1376 -0.1045  0.1453
  136MOL0     C18289   3.438   7.457   1.634  0.5073  0.6826 -0.2877
  136MOL0     C18290   3.518   7.497   1.716 -0.3006  0.2479 -0.2229
  136MOL0     C18291   2.706   7.687   1.589 -0.2504  0.2837 -0.5052
  136MOL0     C18292   2.569   7.688   1.567 -0.1362 -0.1761  0.4751
  136MOL0     H18293   2.083   7.643   1.291 -1.1255  0.3227 -0.0745
  136MOL0     H18294   1.866   7.629   1.323  1.4882 -0.0767 -0.8670
  136MOL0     H18295   1.620   7.733   1.460  0.5662  2.2892  2.8572
  136MOL0     H18296   1.661   7.562   1.428  1.2528  1.2337  0.1425
  136MOL0     H18297   1.420   7.587   1.505 -1.3963  0.7972  0.8503
  136MOL0     H18298   1.523   7.482   1.611  2.3046 -0.8167 -2.6104
  136MOL0     H18299   1.564   7.684   1.756 -0.2573  1.7658 -0.5245
  136MOL0     H18300   1.454   7.781   1.658  2.0632  1.8237  0.7826
  136MOL0     H18301   1.288   7.578   1.708  1.2608  0.9037 -0.6536
  136MOL0     H18302   1.405   7.528   1.827  0.0006  0.2619 -0.1151
  136MOL0     H18303   1.374   7.731   1.956 -0.5104  0.2777 -0.8950
  136MOL0     H18304   1.275   7.799   1.826 -3.1917  0.9500  1.9092
  136MOL0     H18305   1.100   7.638   1.861 -0.3086  4.0368 -0.6997
  136MOL0     H18306   1.192   7.543   1.967 -0.9248 -0.9086 -3.5537
  136MOL0     H18307   1.204   7.735   2.135 -0.1147 -1.5147  0.0271
  136MOL0     H18308   1.103   7.832   2.031 -0.5035  1.4714  3.5903
  136MOL0     H18309   1.005   7.727   2.221  1.2247 -0.6604  0.2284
  136MOL0     H18310   1.031   7.568   2.165  1.1812  0.3017  1.3222
  136MOL0     H18311   0.839   7.898   2.077 -1.4672 -0.5773  1.8275
  136MOL0     H18312   0.595   7.924   1.971 -2.3658  0.2932  0.0566
  136MOL0     H18313   0.691   7.937   1.820 -1.0266  0.5316  1.4735
  136MOL0     H18314   0.466   7.931   1.784  1.8917  0.5557 -3.7140
  136MOL0     H18315   0.444   7.771   1.867  0.3687 -0.3381 -0.4529
  136MOL0     H18316   0.571   7.660   1.712 -2.2990 -0.6255  0.7042
  136MOL0     H18317   0.592   7.796   1.602 -1.3981  3.1154  0.1434
  136MOL0     H18318   0.338   7.825   1.615  1.6825  1.0055 -1.3419
  136MOL0     H18319   0.348   7.661   1.687 -0.6924  0.3931  0.5201
  136MOL0     H18320   0.168   7.613   1.580 -3.0496  1.2558  0.0188
  136MOL0     H18321  -0.070   7.573   1.545 -1.8613  0.2025  0.1804
  136MOL0     H18322  -0.122   7.548   1.378  0.5599  3.5589  1.8567
  136MOL0     H18323  -0.080   7.411   1.476  2.4193  0.3979  2.6971
  136MOL0     H18324  -0.014   7.291   0.956  0.4210  1.2594 -0.0994
  136MOL0     H18325  -0.158   7.221   0.757 -1.6272  0.0644  0.9961
  136MOL0     H18326  -0.307   7.170   0.598  0.0910  0.6289 -0.3358
  136MOL0     H18327  -0.448   7.250   0.686  1.4391  0.9674  0.8826
  136MOL0     H18328  -0.542   7.179   0.490  1.3615 -0.8533  2.1010
  136MOL0     H18329  -0.518   7.360   0.490 -0.7168  0.0209 -0.7216
  136MOL0     H18330  -0.322   7.146   0.360  1.3420 -0.0593 -0.7279
  136MOL0     H18331  -0.313   7.321   0.346  1.6591 -0.9978  2.1971
  136MOL0     H18332  -0.384   7.198   0.150  1.1043 -1.7334  0.5439
  136MOL0     H18333  -0.525   7.121   0.233 -1.0622  0.6342  0.9492
  136MOL0     H18334  -0.500   7.428   0.207  1.0575 -0.3856 -0.2452
  136MOL0     H18335  -0.627   7.333   0.287 -2.7712  1.2384 -2.7243
  136MOL0     H18336  -0.655   7.237   0.044  0.3138 -0.2609 -1.0541
  136MOL0     H18337  -0.719   7.399   0.090 -0.0160 -0.0293  0.5946
  136MOL0     H18338  -0.429   7.379  -0.012  0.6725  0.5478 -1.0944
  136MOL0     H18339  -0.557   7.501  -0.066 -1.2159  0.3412  0.9511
  136MOL0     H18340  -0.556   7.210  -0.157  0.0211 -1.3536  0.4559
  136MOL0     H18341  -0.469   7.338  -0.236 -0.9480  0.6422 -0.9416
  136MOL0     H18342  -0.331   7.590   0.747  1.6916  1.1949 -2.1620
  136MOL0     H18343  -0.207   7.658   0.959  2.3325  0.8434  2.0786
  136MOL0     H18344   0.240   7.489   1.094  0.0416  0.2296  0.1374
  136MOL0     H18345   0.416   7.628   1.206  1.4433 -1.2132  0.4746
  136MOL0     H18346   1.922   7.714   1.758  1.2051  2.3966  0.5308
  136MOL0     H18347   2.159   7.742   1.711 -1.3613 -0.3210  0.6408
  136MOL0     H18348   2.520   7.375   1.448 -1.0600  0.8350  1.9922
  136MOL0     H18349   2.761   7.370   1.478 -1.1846 -0.4404  0.2950
  136MOL0     H18350   2.979   7.361   1.582 -0.6238 -0.5147 -1.7443
  136MOL0     H18351   2.971   7.457   1.437  0.4964  1.2921 -0.7129
  136MOL0     H18352   3.162   7.509   1.680  1.0031 -0.2315 -0.2494
  136MOL0     H18353   3.161   7.589   1.524 -1.5693 -0.4570  0.0516
  136MOL0     H18354   3.188   7.346   1.420  2.5433 -1.5269 -1.0872
  136MOL0     H18355   3.227   7.289   1.578 -1.6017  0.9497  0.6508
  136MOL0     H18356   3.360   7.522   1.443  2.2104  0.1947  0.1121
  136MOL0     H18357   3.431   7.365   1.445 -1.3243 -0.4960 -0.6711
  136MOL0     H18358   3.571   7.524   1.805  0.9629 -2.0837 -0.1799
  136MOL0     H18359   2.745   7.779   1.632 -0.4600 -0.4657  1.4130
  136MOL0     H18360   2.504   7.774   1.576  1.2527  1.0069 -0.4246
  137MOL0     O18361   2.276   2.000   9.005  0.9742  0.1293  0.5143
  137MOL0     C18362   2.323   2.030   9.114  0.1609 -0.0956 -1.1529
  137MOL0     O18363   2.266   2.105   9.213  0.6785  0.4552  0.6393
  137MOL0     C18364   2.128   2.113   9.215  0.2433  0.6011  0.4546
  137MOL0     C18365   2.072   2.238   9.234 -0.7349  0.3750  0.0787
  137MOL0     C18366   1.932   2.239   9.228  0.2879 -0.3419 -1.0477
  137MOL0     C18367   1.856   2.132   9.187  0.0564 -0.9373 -0.7862
  137MOL0     O18368   1.727   2.144   9.152  0.6528 -0.6261 -0.7821
  137MOL0     C18369   1.697   2.251   9.066  0.1056  0.0349  0.5903
  137MOL0     C18370   1.546   2.278   9.057 -1.5759  0.9993 -0.4515
  137MOL0     C18371   1.526   2.403   8.969 -0.5268  0.0111  0.0539
  137MOL0     C18372   1.374   2.420   8.961  0.7694  0.2060 -0.3032
  137MOL0     C18373   1.344   2.523   8.856 -0.7661  0.0617  0.6822
  137MOL0     C18374   1.349   2.663   8.911 -0.3189 -1.6399 -0.8751
  137MOL0     C18375   1.283   2.760   8.813  1.1064  0.1783 -0.5434
  137MOL0     C18376   1.124   2.756   8.812  0.1934 -0.0124 -0.8468
  137MOL0     N18377   1.057   2.850   8.722  0.7238  0.0752  0.0882
  137MOL0     C18378   1.006   2.829   8.599 -0.6089 -0.6910 -1.1851
  137MOL0     C18379   0.905   2.909   8.589 -0.4732  0.5474  0.4831
  137MOL0     C18380   0.811   2.889   8.478  0.6456  0.0858 -0.0770
  137MOL0     C18381   0.861   2.928   8.343 -0.0922 -0.0677  0.5985
  137MOL0     C18382   0.914   3.074   8.334 -0.5420 -0.8026 -0.4593
  137MOL0     C18383   0.824   3.199   8.331  0.1385  0.3987 -0.0653
  137MOL0     O18384   0.721   3.181   8.230  0.3208  0.6370  0.3564
  137MOL0     C18385   0.617   3.275   8.236 -0.4495  0.5392  0.4790
  137MOL0     C18386   0.603   3.376   8.330 -0.0527 -0.1956  0.0586
  137MOL0     C18387   0.498   3.473   8.315 -0.8311 -0.2081  0.5188
  137MOL0     C18388   0.480   3.563   8.435  0.8532  0.3691 -1.0866
  137MOL0     C18389   0.411   3.484   8.205 -0.4631  0.3079 -0.0204
  137MOL0     C18390   0.304   3.584   8.187 -0.4115  0.1140 -0.0886
  137MOL0     O18391   0.208   3.552   8.099 -0.2897 -0.1761 -0.0419
  137MOL0     C18392   0.119   3.655   8.077 -1.4026  0.2473 -0.4320
  137MOL0     C18393   0.111   3.709   7.947 -0.2517 -0.4167 -0.5055
  137MOL0     C18394  -0.001   3.802   7.922 -0.0732 -0.4787  0.4269
  137MOL0     C18395  -0.093   3.825   8.018  0.4521  0.4760  0.1492
  137MOL0     O18396  -0.198   3.902   7.981  0.6394 -0.2440  0.3285
  137MOL0     C18397  -0.206   4.033   8.029  0.5343  0.4596 -0.5193
  137MOL0     C18398  -0.237   4.142   7.932 -0.6713  0.2169 -0.0560
  137MOL0     C18399  -0.369   4.123   7.869  0.9854 -0.3115 -0.0724
  137MOL0     C18400  -0.415   4.263   7.815 -0.0156  0.1794  0.3666
  137MOL0     C18401  -0.563   4.256   7.758 -0.4730  0.0403 -0.1215
  137MOL0     C18402  -0.605   4.396   7.724  0.0104  0.7859  0.5553
  137MOL0     C18403  -0.743   4.390   7.663 -0.5677  0.2763  0.3986
  137MOL0     C18404  -0.827   4.520   7.640 -0.9511  0.1059  0.5638
  137MOL0    Cl18405  -0.808   4.611   7.483 -0.0838  0.3129 -0.2002
  137MOL0     C18406  -0.084   3.762   8.146 -0.5155  1.1587  0.1126
  137MOL0     C18407   0.027   3.678   8.172  0.1057  0.0986 -0.0790
  137MOL0     O18408   0.315   3.698   8.230 -0.1542  0.6584  0.6573
  137MOL0     C18409   0.426   3.383   8.123  0.0774  0.8762 -0.6150
  137MOL0     C18410   0.523   3.279   8.135  0.6196 -0.8221  0.1619
  137MOL0     N18411   0.903   3.002   8.689  0.2243  0.0090  0.6683
  137MOL0     N18412   0.985   2.959   8.778  0.0324  0.3699  0.6271
  137MOL0     C18413   1.914   2.010   9.167 -0.5602  0.1038  0.3144
  137MOL0     C18414   2.049   1.994   9.192 -0.1007 -0.4923 -0.2689
  137MOL0     C18415   2.467   1.999   9.121  0.2413 -0.4546 -1.0366
  137MOL0     C18416   2.505   1.874   9.089 -0.3630  0.6228 -0.1604
  137MOL0     C18417   2.647   1.845   9.085 -0.0985 -0.0477  0.4119
  137MOL0     C18418   2.746   1.939   9.118 -0.0307 -0.3192 -0.1200
  137MOL0     O18419   2.876   1.916   9.095 -0.2525  0.7364 -0.1231
  137MOL0     C18420   2.926   1.786   9.077  0.9829  0.3935  0.0268
  137MOL0     C18421   3.078   1.778   9.097 -0.0439  0.5292  0.7572
  137MOL0     C18422   3.127   1.633   9.082 -0.3576 -0.1161 -0.4943
  137MOL0     C18423   3.271   1.618   9.048  0.5225 -0.1755 -0.2884
  137MOL0     C18424   3.356   1.625   9.161 -0.9317 -0.6091 -0.1565
  137MOL0     C18425   3.431   1.628   9.256 -0.0090 -0.1567  0.0592
  137MOL0     C18426   2.700   2.065   9.162 -0.5582  0.0385  0.5529
  137MOL0     C18427   2.558   2.095   9.155 -0.6511  0.4985 -0.3931
  137MOL0     H18428   2.129   2.328   9.253 -0.6904  0.6007 -1.0404
  137MOL0     H18429   1.880   2.333   9.244  1.4187  0.7362 -3.2698
  137MOL0     H18430   1.748   2.341   9.104  0.5945 -1.6412  4.3226
  137MOL0     H18431   1.733   2.220   8.967  1.9698 -2.4501  1.9447
  137MOL0     H18432   1.503   2.184   9.022  0.5059 -1.0556  2.0672
  137MOL0     H18433   1.525   2.295   9.163 -0.3751  1.0390 -0.2030
  137MOL0     H18434   1.579   2.484   9.018 -0.5649 -0.3635  0.7285
  137MOL0     H18435   1.552   2.388   8.864  0.4863  2.6494 -0.1312
  137MOL0     H18436   1.341   2.329   8.910 -0.0692  0.7898 -0.8112
  137MOL0     H18437   1.320   2.426   9.056  0.1697  0.0958 -0.6314
  137MOL0     H18438   1.409   2.508   8.769 -0.3215 -1.9157  1.3178
  137MOL0     H18439   1.241   2.507   8.824 -0.2281 -0.9431 -0.6445
  137MOL0     H18440   1.308   2.674   9.011  1.0079 -1.0379 -0.3644
  137MOL0     H18441   1.454   2.693   8.920 -0.7873 -0.5969  2.0274
  137MOL0     H18442   1.315   2.860   8.843  0.8727  0.4097 -1.0465
  137MOL0     H18443   1.314   2.734   8.711  0.0126  0.5865 -0.9951
  137MOL0     H18444   1.087   2.775   8.914 -1.1661  0.5619 -1.4273
  137MOL0     H18445   1.093   2.654   8.788  0.6927 -0.9531  2.0258
  137MOL0     H18446   1.031   2.745   8.535  1.4143 -0.0235 -1.3511
  137MOL0     H18447   0.793   2.782   8.464  0.0808  0.5555 -4.2507
  137MOL0     H18448   0.722   2.947   8.506  1.3934  1.2399 -0.0262
  137MOL0     H18449   0.773   2.921   8.279 -1.6307  0.9462  2.5141
  137MOL0     H18450   0.930   2.852   8.305 -2.6501 -3.1447  1.6128
  137MOL0     H18451   0.971   3.083   8.241  0.0118  1.8567  0.0663
  137MOL0     H18452   0.985   3.084   8.416  0.5183 -2.6812 -1.0957
  137MOL0     H18453   0.874   3.295   8.313  2.1990 -0.3270  1.3794
  137MOL0     H18454   0.766   3.210   8.423 -1.0986 -0.8797 -0.6501
  137MOL0     H18455   0.669   3.393   8.414  1.6335  1.1942 -1.4488
  137MOL0     H18456   0.374   3.578   8.460  0.9634 -1.2216  0.5431
  137MOL0     H18457   0.517   3.522   8.529  0.1382  1.4013 -0.3216
  137MOL0     H18458   0.541   3.653   8.427  1.1274  0.1792 -1.1292
  137MOL0     H18459   0.184   3.685   7.871 -0.4634 -0.7198 -0.6165
  137MOL0     H18460  -0.009   3.849   7.825  1.4614 -0.1775  0.4241
  137MOL0     H18461  -0.282   4.033   8.108 -0.6847  0.5803 -1.6556
  137MOL0     H18462  -0.116   4.066   8.082  0.0311  0.7257  0.2014
  137MOL0     H18463  -0.236   4.230   7.998  0.1034 -0.3804  0.7562
  137MOL0     H18464  -0.159   4.152   7.856 -1.3331  0.0568 -0.7717
  137MOL0     H18465  -0.439   4.089   7.945  2.0004 -0.0476  1.0003
  137MOL0     H18466  -0.364   4.048   7.790 -0.1736  0.8078 -1.2692
  137MOL0     H18467  -0.402   4.331   7.900 -1.0430 -0.1103  0.7617
  137MOL0     H18468  -0.337   4.300   7.747 -0.1005  0.6610  0.5233
  137MOL0     H18469  -0.624   4.221   7.842 -3.1593  1.3736 -1.3860
  137MOL0     H18470  -0.574   4.183   7.678  1.6072 -0.1418 -0.2903
  137MOL0     H18471  -0.612   4.458   7.814  2.4695  2.2252 -0.1527
  137MOL0     H18472  -0.534   4.434   7.650 -0.7686  0.9012 -0.1525
  137MOL0     H18473  -0.803   4.318   7.720 -0.9282  0.7422  0.6077
  137MOL0     H18474  -0.727   4.343   7.565  2.5236 -0.5675  1.1881
  137MOL0     H18475  -0.809   4.589   7.722 -0.0705 -0.1210  0.5705
  137MOL0     H18476  -0.932   4.492   7.655 -1.5129  1.9783  0.4204
  137MOL0     H18477  -0.165   3.754   8.217 -1.1074 -0.2862 -0.6910
  137MOL0     H18478   0.033   3.634   8.271  0.8242 -0.6693 -0.4547
  137MOL0     H18479   0.368   3.373   8.031 -1.1639 -1.5568  0.3521
  137MOL0     H18480   0.549   3.209   8.057  2.5015 -0.9068  0.8208
  137MOL0     H18481   1.856   1.928   9.125  1.6952 -1.7336  0.5494
  137MOL0     H18482   2.099   1.899   9.179  4.1628  1.4260  0.5733
  137MOL0     H18483   2.438   1.793   9.062  0.7767 -0.1673 -0.6763
  137MOL0     H18484   2.683   1.747   9.053 -0.2270 -0.3213  1.0950
  137MOL0     H18485   2.882   1.717   9.150  0.2449  1.6768  0.8510
  137MOL0     H18486   2.893   1.747   8.980  2.0888 -2.8774  0.8393
  137MOL0     H18487   3.096   1.817   9.197  0.7539  1.5846  0.2167
  137MOL0     H18488   3.124   1.840   9.020 -0.8448 -0.5227 -0.6114
  137MOL0     H18489   3.068   1.584   9.004 -1.1349 -0.1699  0.1156
  137MOL0     H18490   3.112   1.578   9.175  0.2277  3.1113  1.6396
  137MOL0     H18491   3.295   1.703   8.984  0.2209 -0.7039 -1.1185
  137MOL0     H18492   3.285   1.526   8.990 -1.2203  0.2503 -1.4744
  137MOL0     H18493   3.487   1.617   9.346 -2.2940  0.4922  1.6412
  137MOL0     H18494   2.767   2.144   9.194 -0.3011 -0.3624  1.0036
  137MOL0     H18495   2.521   2.192   9.189 -3.9295 -0.3532 -1.1331
  138MOL0     O18496   9.212   1.411   3.171 -0.6127  0.1530  0.0708
  138MOL0     C18497   9.208   1.447   3.288  0.2279  0.4997  0.1096
  138MOL0     O18498   9.096   1.485   3.357  0.2017  0.8043 -0.3941
  138MOL0     C18499   8.980   1.509   3.289  0.5912 -0.4439 -0.1638
  138MOL0     C18500   8.957   1.590   3.181  0.1226  0.3145  0.0001
  138MOL0     C18501   8.825   1.619   3.140 -0.0666 -0.1225  0.3302
  138MOL0     C18502   8.713   1.571   3.209 -0.9333  0.3345 -0.3171
  138MOL0     O18503   8.587   1.612   3.160 -0.1035  1.0058 -0.6236
  138MOL0     C18504   8.473   1.557   3.225  0.2848  0.2011  0.0392
  138MOL0     C18505   8.346   1.610   3.155  0.2760 -0.8178 -0.3937
  138MOL0     C18506   8.221   1.581   3.239  0.0973 -0.8355  0.3192
  138MOL0     C18507   8.085   1.610   3.165  0.4632  0.1825 -0.2562
  138MOL0     C18508   7.969   1.617   3.267  1.0149  0.2975  0.1694
  138MOL0     C18509   7.844   1.653   3.198 -0.3266  0.1802  0.6829
  138MOL0     C18510   7.721   1.687   3.279  0.0507 -0.8915 -0.5293
  138MOL0     C18511   7.671   1.579   3.372  0.1226  0.1760 -0.0424
  138MOL0     N18512   7.626   1.455   3.302  0.3377 -0.2523 -1.0160
  138MOL0     C18513   7.546   1.448   3.184  0.3115  0.6178 -0.4622
  138MOL0     C18514   7.516   1.314   3.160  0.1708  0.3259 -0.1440
  138MOL0     C18515   7.415   1.259   3.064 -0.8827 -0.7396  0.5019
  138MOL0     C18516   7.280   1.300   3.104  0.3634 -0.7137  0.7962
  138MOL0     C18517   7.243   1.442   3.040 -1.1774  0.5384  0.5606
  138MOL0     C18518   7.089   1.450   3.033  0.1869 -0.5743 -0.0139
  138MOL0     O18519   7.038   1.455   3.168 -0.4089  0.4141  0.3392
  138MOL0     C18520   6.899   1.453   3.191 -0.0902 -0.1032 -0.8258
  138MOL0     C18521   6.860   1.445   3.327 -0.7349 -0.8987  0.0376
  138MOL0     C18522   6.724   1.442   3.367 -0.5284 -0.3407 -0.6524
  138MOL0     C18523   6.692   1.423   3.517  0.0232 -0.0983  0.1465
  138MOL0     C18524   6.634   1.465   3.269  0.1555 -0.3000  0.9240
  138MOL0     C18525   6.486   1.469   3.308  0.6819  0.3201  0.4700
  138MOL0     O18526   6.408   1.410   3.215 -0.3346 -0.0463 -0.2348
  138MOL0     C18527   6.273   1.405   3.251 -0.2807  0.2595 -0.1041
  138MOL0     C18528   6.233   1.355   3.376 -0.4626  0.0941 -0.0756
  138MOL0     C18529   6.102   1.378   3.416  0.2807  0.2052  0.5077
  138MOL0     C18530   6.009   1.440   3.327 -0.2806  0.2690 -0.1004
  138MOL0     O18531   5.875   1.460   3.346 -0.8113  0.3029  1.1300
  138MOL0     C18532   5.830   1.461   3.479  0.2128 -0.2281  0.1311
  138MOL0     C18533   5.725   1.567   3.481  0.4608 -0.0476  0.2293
  138MOL0     C18534   5.661   1.579   3.623 -0.6538 -0.5099 -0.0671
  138MOL0     C18535   5.544   1.672   3.627 -0.1176  0.8762  0.2284
  138MOL0     C18536   5.489   1.700   3.768  0.2472 -0.4843  0.5587
  138MOL0     C18537   5.374   1.785   3.754  1.0024 -0.5851  0.1166
  138MOL0     C18538   5.317   1.824   3.895 -0.2654  0.3424 -0.6153
  138MOL0     C18539   5.167   1.869   3.885  0.3895 -0.2007 -0.1912
  138MOL0    Cl18540   5.079   1.860   4.042  0.2038 -0.4589  0.2850
  138MOL0     C18541   6.047   1.480   3.206  0.0957  0.3625  0.3912
  138MOL0     C18542   6.186   1.467   3.168  0.3052  0.2189  1.3199
  138MOL0     O18543   6.442   1.525   3.409  0.0861 -0.5262  0.4256
  138MOL0     C18544   6.667   1.464   3.129 -1.2183  0.5476  0.4723
  138MOL0     C18545   6.799   1.455   3.088 -0.5010 -1.1979  0.3806
  138MOL0     N18546   7.564   1.245   3.264  0.1607 -0.6331 -0.1834
  138MOL0     N18547   7.623   1.323   3.345 -0.0998 -0.7712 -0.2234
  138MOL0     C18548   8.738   1.494   3.317  0.0344 -0.1771 -0.5329
  138MOL0     C18549   8.867   1.452   3.347  0.9444 -0.4055  0.3424
  138MOL0     C18550   9.336   1.433   3.370  0.5725  0.5861  0.7510
  138MOL0     C18551   9.458   1.413   3.306  0.6521 -0.5671  1.0641
  138MOL0     C18552   9.584   1.420   3.367  0.0466 -0.3460 -0.1997
  138MOL0     C18553   9.592   1.442   3.508 -0.0708 -0.1312  0.5733
  138MOL0     O18554   9.720   1.445   3.554 -0.0139  0.2043 -0.1525
  138MOL0     C18555   9.731   1.455   3.694 -0.0535  0.9717  0.8858
  138MOL0     C18556   9.881   1.436   3.732  0.0471 -0.6162  0.6756
  138MOL0     C18557   9.983   1.532   3.665 -0.0655  1.0593  0.1068
  138MOL0     C18558  10.128   1.475   3.659 -0.1823  0.5799 -0.3095
  138MOL0     C18559  10.175   1.451   3.795  0.2514 -0.6344  0.5509
  138MOL0     C18560  10.233   1.421   3.894 -0.0568  0.7688 -0.6809
  138MOL0     C18561   9.465   1.452   3.578  0.4630  0.4843  0.4007
  138MOL0     C18562   9.339   1.467   3.509  0.3415 -0.3644 -0.1954
  138MOL0     H18563   9.042   1.634   3.131 -1.1153  0.0091 -2.5580
  138MOL0     H18564   8.811   1.684   3.055 -2.2945 -0.3676  0.4538
  138MOL0     H18565   8.476   1.447   3.223  1.7704  0.2307 -1.3670
  138MOL0     H18566   8.477   1.587   3.330  2.4369 -0.4367  0.1859
  138MOL0     H18567   8.354   1.719   3.149  0.7645 -0.8724 -0.7785
  138MOL0     H18568   8.308   1.576   3.059 -2.0754  0.0660  0.1345
  138MOL0     H18569   8.218   1.474   3.262 -0.5033 -0.7858  0.4900
  138MOL0     H18570   8.216   1.641   3.330  2.2390  0.1592 -0.1574
  138MOL0     H18571   8.103   1.712   3.129  0.8607  0.0568 -0.4110
  138MOL0     H18572   8.075   1.544   3.078  2.0886  1.0049 -1.1197
  138MOL0     H18573   7.955   1.515   3.304 -2.9616  0.0365 -1.5089
  138MOL0     H18574   7.989   1.698   3.338 -2.9793  3.3104 -1.7575
  138MOL0     H18575   7.863   1.745   3.142  2.6369 -0.6438  0.1673
  138MOL0     H18576   7.827   1.572   3.127 -1.4636  0.2793  0.8135
  138MOL0     H18577   7.741   1.773   3.344 -1.2762 -0.9616  0.0046
  138MOL0     H18578   7.637   1.719   3.217 -1.7044 -3.1146  0.5696
  138MOL0     H18579   7.587   1.629   3.421  0.8983  0.1873  1.3248
  138MOL0     H18580   7.746   1.549   3.446  1.4280  4.4180  0.5731
  138MOL0     H18581   7.513   1.522   3.112 -3.0114 -2.7968 -2.8146
  138MOL0     H18582   7.438   1.273   2.958 -2.0566 -1.9877  0.0491
  138MOL0     H18583   7.420   1.151   3.081 -2.8274 -1.1808 -1.3505
  138MOL0     H18584   7.261   1.303   3.212  0.5515  0.7785  0.8061
  138MOL0     H18585   7.211   1.226   3.062 -2.5025  1.8493  0.6578
  138MOL0     H18586   7.277   1.449   2.937  1.1176  2.8350  1.3455
  138MOL0     H18587   7.276   1.528   3.100 -3.4315  2.0500 -0.2276
  138MOL0     H18588   7.037   1.368   2.983 -2.2821  0.7539  0.2284
  138MOL0     H18589   7.050   1.541   2.985  0.0480 -0.8158 -0.3655
  138MOL0     H18590   6.931   1.435   3.409 -1.0887 -2.2592  0.2149
  138MOL0     H18591   6.788   1.425   3.569  0.7196 -0.5478 -1.0680
  138MOL0     H18592   6.627   1.505   3.549  1.7369  2.3253 -2.0958
  138MOL0     H18593   6.651   1.322   3.525 -0.8769 -0.0274 -2.4564
  138MOL0     H18594   6.301   1.301   3.440  1.5350  2.3171 -0.1687
  138MOL0     H18595   6.074   1.333   3.510  0.9839 -2.9297 -0.6630
  138MOL0     H18596   5.789   1.363   3.505  0.8384 -0.5263  0.0094
  138MOL0     H18597   5.917   1.490   3.538  0.2501  1.6416 -0.7876
  138MOL0     H18598   5.765   1.665   3.453  0.4930  0.1798  1.0347
  138MOL0     H18599   5.642   1.540   3.416 -2.7067 -0.4399  4.0511
  138MOL0     H18600   5.736   1.609   3.697 -0.4593  1.2712 -0.9167
  138MOL0     H18601   5.633   1.478   3.654  0.3244 -0.5991  0.5543
  138MOL0     H18602   5.567   1.762   3.569  1.4059 -0.3254 -1.1438
  138MOL0     H18603   5.473   1.608   3.573  2.0879 -1.1918 -0.3846
  138MOL0     H18604   5.573   1.744   3.822 -2.3080  1.6233  3.1238
  138MOL0     H18605   5.466   1.606   3.820  1.5965 -1.7038 -0.9045
  138MOL0     H18606   5.395   1.876   3.698  0.9921 -2.4554 -3.2062
  138MOL0     H18607   5.290   1.733   3.706 -1.4046  1.7170  1.5939
  138MOL0     H18608   5.377   1.904   3.940  0.7052 -0.4791 -0.3858
  138MOL0     H18609   5.326   1.734   3.957 -5.4527 -1.2753 -1.7323
  138MOL0     H18610   5.109   1.795   3.828 -2.1645 -0.8357  2.9586
  138MOL0     H18611   5.145   1.972   3.855  0.3517  0.0326  0.6204
  138MOL0     H18612   5.969   1.537   3.157 -1.6849  0.4806  3.1261
  138MOL0     H18613   6.226   1.515   3.080 -1.4730 -1.7262 -0.6774
  138MOL0     H18614   6.587   1.459   3.057 -0.4030  0.8924 -0.4772
  138MOL0     H18615   6.816   1.451   2.981  0.9699  0.0448  0.5295
  138MOL0     H18616   8.658   1.449   3.374 -0.5172  1.5214  0.0972
  138MOL0     H18617   8.888   1.385   3.430  1.5149 -0.8248 -0.1312
  138MOL0     H18618   9.465   1.399   3.199  0.5669  3.7590  0.3179
  138MOL0     H18619   9.676   1.406   3.312 -0.4764 -2.2172 -0.6661
  138MOL0     H18620   9.702   1.557   3.722 -3.6199 -0.1267  1.6977
  138MOL0     H18621   9.672   1.382   3.750  0.5157 -0.1201  0.0983
  138MOL0     H18622   9.908   1.334   3.704 -0.2949 -0.8814  1.2835
  138MOL0     H18623   9.886   1.463   3.838  0.5496 -1.1832  0.7981
  138MOL0     H18624   9.996   1.626   3.718  3.4394  0.4180  0.6409
  138MOL0     H18625   9.954   1.547   3.561 -1.9331  0.8059  0.5678
  138MOL0     H18626  10.184   1.560   3.618 -1.0013  1.4333  0.2846
  138MOL0     H18627  10.135   1.383   3.600  0.6355 -0.6963  1.6690
  138MOL0     H18628  10.274   1.395   3.989 -0.8827 -1.4985 -0.8837
  138MOL0     H18629   9.469   1.459   3.686 -1.0632  0.8752  0.4596
  138MOL0     H18630   9.245   1.489   3.557  0.7455  0.5807  0.1719
  139MOL0     O18631   9.444   7.834   4.339  0.2978  0.0691  0.4248
  139MOL0     C18632   9.450   7.935   4.276  0.5404 -0.2780  0.6540
  139MOL0     O18633   9.351   8.030   4.265  0.0578  0.4876  0.8749
  139MOL0     C18634   9.235   8.024   4.347  0.1610  0.2862 -0.2316
  139MOL0     C18635   9.209   8.136   4.425  0.7121  1.0391  0.9453
  139MOL0     C18636   9.078   8.157   4.478  0.2837  0.3511  0.4786
  139MOL0     C18637   8.988   8.047   4.469  0.0593  0.5446  0.1178
  139MOL0     O18638   8.861   8.048   4.530  0.3158 -0.5172  0.8263
  139MOL0     C18639   8.820   8.163   4.609  0.0276  0.5509 -0.2091
  139MOL0     C18640   8.706   8.144   4.705  0.6457  0.0164 -0.9084
  139MOL0     C18641   8.591   8.053   4.648  0.1573 -0.4679  0.4146
  139MOL0     C18642   8.458   8.081   4.721  0.5251 -0.2143  0.4245
  139MOL0     C18643   8.351   7.979   4.676  0.0707 -0.2001  0.2299
  139MOL0     C18644   8.214   8.011   4.736 -0.0852  0.3826 -0.4410
  139MOL0     C18645   8.107   7.913   4.696 -0.6692  0.1010 -0.1349
  139MOL0     C18646   8.141   7.781   4.779  0.1464  0.4576  0.1178
  139MOL0     N18647   8.019   7.695   4.766 -0.0263  0.7330 -0.6580
  139MOL0     C18648   7.951   7.639   4.873  0.0758 -0.1525  0.2357
  139MOL0     C18649   7.859   7.562   4.822  0.3254  0.2923  0.9371
  139MOL0     C18650   7.753   7.472   4.881 -0.5663  0.4583  0.3492
  139MOL0     C18651   7.732   7.514   5.026  1.0614 -0.2036  0.9505
  139MOL0     C18652   7.650   7.414   5.105 -0.3214  0.2435  0.0161
  139MOL0     C18653   7.510   7.382   5.047  0.0432 -0.1184 -0.3077
  139MOL0     O18654   7.430   7.501   5.062 -0.1415  0.3031  0.0531
  139MOL0     C18655   7.289   7.491   5.049  0.1808  0.9515  0.8874
  139MOL0     C18656   7.231   7.379   4.994  0.1808 -0.0672 -0.1477
  139MOL0     C18657   7.095   7.381   4.970  0.3609  0.7036 -0.0906
  139MOL0     C18658   7.022   7.256   4.921 -0.3445  0.4030 -0.1831
  139MOL0     C18659   7.019   7.499   4.998  0.2299  0.7951 -0.4951
  139MOL0     C18660   6.870   7.509   4.993 -0.1255 -0.3924  0.0379
  139MOL0     O18661   6.818   7.636   5.017 -0.0037  0.0862  0.8615
  139MOL0     C18662   6.678   7.648   5.028 -0.0790 -0.0035 -0.1130
  139MOL0     C18663   6.610   7.578   5.129 -0.1807 -0.0046  0.2726
  139MOL0     C18664   6.466   7.604   5.147 -0.5990  0.7545 -0.3337
  139MOL0     C18665   6.401   7.695   5.066  1.1442 -0.2615  0.1709
  139MOL0     O18666   6.267   7.705   5.098  0.2128  0.0742 -0.0858
  139MOL0     C18667   6.169   7.787   5.035 -0.4166 -0.1923  0.0832
  139MOL0     C18668   6.030   7.742   5.096  0.0614 -0.5471  0.3578
  139MOL0     C18669   5.911   7.813   5.031  1.4075  0.7357  0.2248
  139MOL0     C18670   5.849   7.722   4.931  0.9945  0.7840  1.1498
  139MOL0     C18671   5.724   7.782   4.854 -0.6258 -0.3919  0.1269
  139MOL0     C18672   5.643   7.662   4.787 -1.1486 -1.5127 -0.6001
  139MOL0     C18673   5.512   7.709   4.724 -0.6475  0.0860  0.2774
  139MOL0     C18674   5.440   7.578   4.686 -0.2747  0.2428  1.1455
  139MOL0    Cl18675   5.288   7.632   4.616  0.1864 -0.3081 -0.6260
  139MOL0     C18676   6.472   7.763   4.965  0.2157  0.0891  0.2030
  139MOL0     C18677   6.605   7.741   4.950 -0.5133  0.1843  0.0871
  139MOL0     O18678   6.798   7.413   4.989  0.7770  0.3028 -0.2510
  139MOL0     C18679   7.093   7.609   5.043  0.5270  0.3566 -0.3522
  139MOL0     C18680   7.225   7.608   5.068  0.7572 -0.4430 -0.3970
  139MOL0     N18681   7.874   7.564   4.686 -0.9823 -0.9682  0.3391
  139MOL0     N18682   7.977   7.634   4.651 -0.3249 -0.3965 -0.4425
  139MOL0     C18683   9.022   7.933   4.390  0.5183  0.0508  0.0145
  139MOL0     C18684   9.142   7.924   4.333 -0.5863 -0.2678  0.3325
  139MOL0     C18685   9.585   7.955   4.208 -0.1006 -0.4195 -0.1656
  139MOL0     C18686   9.692   7.870   4.232 -0.3246  1.2180 -1.5702
  139MOL0     C18687   9.819   7.890   4.170 -0.2774  0.6243 -0.6142
  139MOL0     C18688   9.839   7.996   4.076  0.0003  0.2561  0.0514
  139MOL0     O18689   9.960   8.024   4.013 -0.5141  0.3586 -0.4937
  139MOL0     C18690  10.071   7.934   4.048  0.7007 -0.1993  0.6850
  139MOL0     C18691  10.179   7.978   3.955 -1.1611  0.6685  0.2791
  139MOL0     C18692  10.320   7.920   3.993 -0.0585  0.0240 -0.1280
  139MOL0     C18693  10.415   7.909   3.873  0.0080  0.1410 -0.7097
  139MOL0     C18694  10.479   8.040   3.863  1.2716 -0.2895 -0.7388
  139MOL0     C18695  10.530   8.145   3.836 -0.2096  0.4251 -0.5879
  139MOL0     C18696   9.729   8.081   4.057 -0.2305  0.1687 -0.1980
  139MOL0     C18697   9.613   8.067   4.122  0.7093  0.6433 -0.1524
  139MOL0     H18698   9.289   8.209   4.436  2.1015 -0.6693  2.9089
  139MOL0     H18699   9.057   8.250   4.530  1.6125  1.7578 -1.4020
  139MOL0     H18700   8.910   8.186   4.667  2.3967 -3.7938 -1.7126
  139MOL0     H18701   8.806   8.244   4.537 -3.0616  0.4683  0.1477
  139MOL0     H18702   8.746   8.100   4.797  1.5023 -0.1918 -1.3693
  139MOL0     H18703   8.650   8.234   4.732 -0.1984 -0.9451  0.7095
  139MOL0     H18704   8.579   8.078   4.542 -2.3953 -0.5637  0.6222
  139MOL0     H18705   8.628   7.951   4.661  0.4653 -0.8869 -2.8622
  139MOL0     H18706   8.471   8.084   4.830 -0.3368 -0.2625  0.5385
  139MOL0     H18707   8.410   8.176   4.696 -1.1524 -1.1816 -0.1937
  139MOL0     H18708   8.340   7.986   4.567  0.7907 -0.7004  0.1191
  139MOL0     H18709   8.388   7.877   4.690  2.4807  0.2544 -2.0447
  139MOL0     H18710   8.219   8.021   4.844  1.2372  2.0335 -0.6113
  139MOL0     H18711   8.196   8.107   4.686  3.6121  1.9508  0.9227
  139MOL0     H18712   8.008   7.944   4.732 -1.0572 -3.7703  2.7662
  139MOL0     H18713   8.109   7.900   4.588 -0.1064 -2.2309  0.0952
  139MOL0     H18714   8.150   7.805   4.885  2.2080  1.6274 -0.2653
  139MOL0     H18715   8.235   7.734   4.747  0.6409 -1.6438  4.0457
  139MOL0     H18716   7.957   7.652   4.981  0.5895  3.4984 -0.1098
  139MOL0     H18717   7.657   7.477   4.830  0.6583 -1.8217 -2.4866
  139MOL0     H18718   7.792   7.370   4.875  1.7201  1.3080 -1.5166
  139MOL0     H18719   7.677   7.608   5.021  0.3536 -0.6326  0.4580
  139MOL0     H18720   7.831   7.523   5.073  2.0602  0.5624 -1.1684
  139MOL0     H18721   7.630   7.460   5.202  2.2780  3.1686 -0.6840
  139MOL0     H18722   7.711   7.323   5.108  2.0638  1.7526  2.3982
  139MOL0     H18723   7.472   7.302   5.112  2.1073  0.4046  1.6477
  139MOL0     H18724   7.513   7.345   4.944 -0.2376 -0.9376 -0.0334
  139MOL0     H18725   7.284   7.290   4.962 -1.1655 -2.1637  3.0216
  139MOL0     H18726   6.962   7.206   4.998  2.9713 -3.2656  0.3359
  139MOL0     H18727   6.971   7.271   4.825 -0.1075  0.4270 -0.3070
  139MOL0     H18728   7.100   7.182   4.901 -0.7735 -0.2493  0.5141
  139MOL0     H18729   6.646   7.502   5.198  0.3776 -0.0822 -0.0975
  139MOL0     H18730   6.402   7.546   5.212 -0.2640 -0.9333 -1.4548
  139MOL0     H18731   6.189   7.889   5.070  1.1582 -0.8459  1.2208
  139MOL0     H18732   6.153   7.774   4.928  0.1805 -3.2512  0.2690
  139MOL0     H18733   6.015   7.633   5.093  0.3367 -0.5699 -1.0917
  139MOL0     H18734   6.035   7.766   5.202  2.0439 -0.5846  0.3040
  139MOL0     H18735   5.939   7.907   4.982 -1.7190  0.6512 -2.0216
  139MOL0     H18736   5.838   7.825   5.112  1.2127 -3.8242  1.0102
  139MOL0     H18737   5.924   7.689   4.858 -2.6149 -1.6925 -1.8372
  139MOL0     H18738   5.805   7.629   4.970  0.1854 -0.1941 -1.8132
  139MOL0     H18739   5.762   7.855   4.782 -1.3847  2.0108  2.0409
  139MOL0     H18740   5.670   7.842   4.927  0.9437  0.8162  0.3422
  139MOL0     H18741   5.712   7.618   4.714 -1.1747 -3.1782  0.3292
  139MOL0     H18742   5.624   7.587   4.865 -0.7146  0.4755  1.5203
  139MOL0     H18743   5.525   7.781   4.643 -4.0303  0.6573  0.1094
  139MOL0     H18744   5.449   7.758   4.799 -2.0431 -0.2874 -0.6078
  139MOL0     H18745   5.417   7.519   4.775  1.0308 -1.5259  0.3881
  139MOL0     H18746   5.488   7.513   4.612  1.1128 -2.2333  4.0042
  139MOL0     H18747   6.419   7.835   4.904  2.1411  2.0612  0.7425
  139MOL0     H18748   6.666   7.795   4.878  2.2785  0.0813  2.1781
  139MOL0     H18749   7.032   7.694   5.070  1.5497  0.4670  1.7698
  139MOL0     H18750   7.277   7.693   5.111 -0.5720  1.4056 -2.2952
  139MOL0     H18751   8.943   7.859   4.374 -0.1338  0.5356  0.9203
  139MOL0     H18752   9.169   7.847   4.261 -2.4014 -0.8806  0.2561
  139MOL0     H18753   9.662   7.788   4.296 -1.5256  2.1423 -0.9020
  139MOL0     H18754   9.903   7.837   4.215 -0.4695 -0.4278 -1.4444
  139MOL0     H18755  10.099   7.955   4.152 -0.8110 -1.4901  1.3867
  139MOL0     H18756  10.061   7.826   4.039  2.1127 -0.1859 -2.2603
  139MOL0     H18757  10.189   8.087   3.950  3.4669  0.4549  0.6300
  139MOL0     H18758  10.158   7.949   3.852  0.9384 -2.6094  0.6486
  139MOL0     H18759  10.307   7.817   4.028 -0.2111 -0.8563 -2.6062
  139MOL0     H18760  10.364   7.986   4.068 -1.5861  2.4463 -1.2654
  139MOL0     H18761  10.363   7.874   3.784 -1.9074  0.7609  0.1072
  139MOL0     H18762  10.486   7.828   3.894  1.4251  1.5432  0.2349
  139MOL0     H18763  10.591   8.230   3.811  0.6289 -0.5153 -1.8844
  139MOL0     H18764   9.746   8.158   3.982  3.3715 -1.6353 -1.4313
  139MOL0     H18765   9.529   8.130   4.096 -1.2902 -1.3458  1.0348
  140MOL0     O18766   0.016  10.136   8.217 -0.4798 -0.2519 -0.1199
  140MOL0     C18767   0.054  10.029   8.171  0.2898 -0.2657 -0.3963
  140MOL0     O18768  -0.010   9.937   8.103  0.4090  0.7087 -0.0886
  140MOL0     C18769  -0.143   9.945   8.064 -0.6661  1.0148 -0.4138
  140MOL0     C18770  -0.219  10.061   8.045 -0.1871 -0.5857  0.0841
  140MOL0     C18771  -0.349  10.044   8.004 -1.0362  0.0149  0.8825
  140MOL0     C18772  -0.412   9.922   7.985 -0.6653 -0.8152  0.3430
  140MOL0     O18773  -0.537   9.907   7.936  0.3159  0.2189  0.0427
  140MOL0     C18774  -0.606   9.787   7.912 -0.5819 -0.4352  0.2008
  140MOL0     C18775  -0.746   9.815   7.886  0.1962 -0.0581 -0.4411
  140MOL0     C18776  -0.824   9.688   7.845 -0.4928  0.3520 -0.0455
  140MOL0     C18777  -0.967   9.735   7.820 -0.6861  0.3088 -0.2813
  140MOL0     C18778  -1.053   9.623   7.764 -0.3510 -0.2584 -0.3492
  140MOL0     C18779  -1.184   9.672   7.703  0.1433 -0.9412  0.2361
  140MOL0     C18780  -1.258   9.559   7.638  0.9286 -0.3001  0.1555
  140MOL0     C18781  -1.396   9.607   7.591  0.9118  0.4131  0.4056
  140MOL0     N18782  -1.490   9.611   7.706  0.3135  0.6373 -0.5879
  140MOL0     C18783  -1.564   9.515   7.767 -0.4134  0.5579 -1.1795
  140MOL0     C18784  -1.651   9.586   7.853 -0.1423 -0.3072  0.0921
  140MOL0     C18785  -1.758   9.530   7.949 -0.6901  0.0560  0.4711
  140MOL0     C18786  -1.896   9.549   7.894 -0.5999  0.4162 -0.3176
  140MOL0     C18787  -1.991   9.523   8.014 -0.3571  0.2080  0.2258
  140MOL0     C18788  -2.133   9.546   7.970 -1.0091 -0.0828  0.4690
  140MOL0     O18789  -2.232   9.482   8.043 -0.1273  0.5106  0.0247
  140MOL0     C18790  -2.362   9.536   8.063 -0.7748 -0.4501  0.1979
  140MOL0     C18791  -2.415   9.540   8.192 -0.3078 -1.2269  0.2933
  140MOL0     C18792  -2.552   9.577   8.208 -0.3723 -0.9261 -0.2970
  140MOL0     C18793  -2.609   9.581   8.350  0.1191 -0.1400 -0.2551
  140MOL0     C18794  -2.630   9.616   8.094 -0.4254 -0.4828  0.1017
  140MOL0     C18795  -2.764   9.672   8.106  0.4779  0.0194  0.6396
  140MOL0     O18796  -2.860   9.581   8.148  0.3299 -0.3028  0.0760
  140MOL0     C18797  -2.993   9.620   8.124 -0.2689 -0.4439  0.0555
  140MOL0     C18798  -3.042   9.670   7.998 -0.2350 -0.8749 -0.7705
  140MOL0     C18799  -3.173   9.664   7.970 -0.4665 -0.2729 -0.7433
  140MOL0     C18800  -3.264   9.611   8.063 -0.6635 -0.3978  1.0278
  140MOL0     O18801  -3.394   9.617   8.029  0.7887  0.6856  0.2521
  140MOL0     C18802  -3.477   9.495   8.034  0.0523  0.4982 -0.1445
  140MOL0     C18803  -3.620   9.538   7.988 -0.4854 -1.0345  0.4812
  140MOL0     C18804  -3.700   9.425   7.941 -0.3116 -0.9816 -0.9050
  140MOL0     C18805  -3.834   9.468   7.883  0.3964 -1.0565 -0.0193
  140MOL0     C18806  -3.914   9.337   7.861 -0.4507 -0.5052  0.7367
  140MOL0     C18807  -4.056   9.375   7.816  0.3412 -0.9995 -0.0079
  140MOL0     C18808  -4.125   9.240   7.781 -0.0200  0.1758  0.6131
  140MOL0     C18809  -4.279   9.243   7.764 -0.5698 -0.4040  0.6255
  140MOL0    Cl18810  -4.327   9.355   7.635  0.0338  0.0141  0.3767
  140MOL0     C18811  -3.228   9.559   8.180 -0.8138 -0.1306 -0.6078
  140MOL0     C18812  -3.090   9.548   8.207  0.5964  0.1312  0.5899
  140MOL0     O18813  -2.773   9.791   8.084 -0.0946 -0.7228  0.5000
  140MOL0     C18814  -2.573   9.614   7.966  0.1451 -0.1343 -0.4563
  140MOL0     C18815  -2.443   9.563   7.950  0.0234 -0.0004  0.0090
  140MOL0     N18816  -1.630   9.720   7.826  0.4245 -0.4790  0.4949
  140MOL0     N18817  -1.541   9.734   7.735  1.0184  0.7336 -0.2412
  140MOL0     C18818  -0.333   9.811   8.010 -0.3957  0.8521  0.9030
  140MOL0     C18819  -0.203   9.824   8.047 -0.1811  0.4037  0.3421
  140MOL0     C18820   0.191   9.989   8.214  0.3321  0.1814 -0.6306
  140MOL0     C18821   0.285  10.086   8.260 -0.4656  0.3274  0.1383
  140MOL0     C18822   0.416  10.046   8.301  0.0379 -0.0383 -0.0613
  140MOL0     C18823   0.454   9.914   8.300  0.2686 -1.1616  0.1704
  140MOL0     O18824   0.586   9.893   8.317 -0.2480 -0.3157  0.7561
  140MOL0     C18825   0.620   9.755   8.330 -0.4668 -0.5022 -0.3390
  140MOL0     C18826   0.770   9.740   8.360 -0.5521  0.2146  0.3638
  140MOL0     C18827   0.806   9.791   8.495  0.2422  0.6324  0.8581
  140MOL0     C18828   0.949   9.783   8.535 -0.2858  0.4521 -0.8367
  140MOL0     C18829   1.057   9.816   8.439  0.3752 -0.1900  0.4890
  140MOL0     C18830   1.142   9.849   8.362  0.1992  0.0135  0.5016
  140MOL0     C18831   0.357   9.818   8.275 -0.1092  0.2867 -0.4324
  140MOL0     C18832   0.231   9.853   8.224  0.6766 -0.3270 -0.0607
  140MOL0     H18833  -0.174  10.159   8.053  0.0478 -0.7038  0.2021
  140MOL0     H18834  -0.405  10.132   7.973  0.5330  0.6015 -0.3891
  140MOL0     H18835  -0.558   9.753   7.819  1.8246  1.5049  0.6318
  140MOL0     H18836  -0.591   9.708   7.986  2.9821  0.1093  0.2296
  140MOL0     H18837  -0.789   9.852   7.980  1.1253 -0.3835  0.1269
  140MOL0     H18838  -0.746   9.887   7.804 -4.8094 -0.1136 -0.7766
  140MOL0     H18839  -0.777   9.635   7.761 -0.1052 -2.7303  1.9305
  140MOL0     H18840  -0.832   9.624   7.934 -1.1593  0.4274 -0.0476
  140MOL0     H18841  -1.011   9.776   7.911 -2.7239 -1.5365 -0.3605
  140MOL0     H18842  -0.956   9.817   7.749  0.8035  0.0347 -0.3975
  140MOL0     H18843  -1.001   9.571   7.683  1.0515  2.8198 -1.5939
  140MOL0     H18844  -1.079   9.554   7.845  0.4078  0.3858  0.4776
  140MOL0     H18845  -1.245   9.708   7.786  0.1113  1.7316 -0.8494
  140MOL0     H18846  -1.177   9.752   7.628 -1.3287 -2.9054 -2.1381
  140MOL0     H18847  -1.212   9.504   7.556 -0.7398 -3.1337  0.9707
  140MOL0     H18848  -1.270   9.481   7.714  1.4817 -0.9057 -0.3593
  140MOL0     H18849  -1.436   9.542   7.513  0.1686 -1.1027  2.0064
  140MOL0     H18850  -1.407   9.704   7.541 -1.1335  0.9379  1.7898
  140MOL0     H18851  -1.563   9.406   7.762 -2.5186  0.5483 -2.6586
  140MOL0     H18852  -1.745   9.422   7.960 -0.6291  0.2183  2.3191
  140MOL0     H18853  -1.745   9.573   8.049 -0.0651  0.9841  0.0024
  140MOL0     H18854  -1.902   9.472   7.816  1.3343 -0.9491  0.7792
  140MOL0     H18855  -1.910   9.648   7.849 -2.4767 -0.1968 -1.1717
  140MOL0     H18856  -1.966   9.583   8.102  0.5593  0.8253 -0.4370
  140MOL0     H18857  -1.971   9.416   8.030  1.8548  0.1899 -2.0124
  140MOL0     H18858  -2.153   9.506   7.871 -0.5388  1.2629 -0.1876
  140MOL0     H18859  -2.154   9.653   7.967 -1.8243 -0.2576 -0.8488
  140MOL0     H18860  -2.349   9.500   8.269 -0.3501  0.4445  1.2504
  140MOL0     H18861  -2.698   9.518   8.362  1.0632 -1.6472 -0.8645
  140MOL0     H18862  -2.536   9.546   8.424 -1.7286 -0.3212  1.5963
  140MOL0     H18863  -2.646   9.679   8.381  2.0226  0.6676 -0.4282
  140MOL0     H18864  -2.975   9.720   7.929  0.5957  0.2013  0.7608
  140MOL0     H18865  -3.202   9.715   7.878  2.6813  1.7203 -0.7832
  140MOL0     H18866  -3.427   9.429   7.963 -0.4564 -2.4256  2.0285
  140MOL0     H18867  -3.477   9.452   8.135 -2.6153 -0.9204 -0.6322
  140MOL0     H18868  -3.660   9.591   8.075  0.6890  0.4226  0.1871
  140MOL0     H18869  -3.617   9.615   7.910 -0.0581 -1.4433  0.0837
  140MOL0     H18870  -3.721   9.355   8.023 -0.2255 -1.8994 -1.6580
  140MOL0     H18871  -3.631   9.375   7.872  1.0455 -0.5315  0.0731
  140MOL0     H18872  -3.878   9.529   7.963 -0.3388 -0.2952 -0.9860
  140MOL0     H18873  -3.825   9.530   7.794 -2.6032 -0.2153  0.1509
  140MOL0     H18874  -3.911   9.287   7.958 -0.8231 -1.1746  0.4105
  140MOL0     H18875  -3.863   9.268   7.793 -2.2720 -0.8768 -0.3529
  140MOL0     H18876  -4.109   9.441   7.886 -1.6546 -2.1989 -0.2957
  140MOL0     H18877  -4.053   9.436   7.725  1.1882 -0.3463  0.4416
  140MOL0     H18878  -4.109   9.160   7.854  0.9320  0.3982  0.6580
  140MOL0     H18879  -4.080   9.214   7.685 -0.8889  1.8688 -0.2937
  140MOL0     H18880  -4.312   9.289   7.857  0.3178 -0.6780  1.0774
  140MOL0     H18881  -4.326   9.144   7.758 -1.5343 -0.1237  2.7307
  140MOL0     H18882  -3.290   9.505   8.251  0.7909  1.9698  2.6611
  140MOL0     H18883  -3.052   9.498   8.296 -2.0170  0.0141  1.7265
  140MOL0     H18884  -2.635   9.644   7.882  1.4711  1.4318 -0.9391
  140MOL0     H18885  -2.386   9.564   7.858 -0.1094  1.2823 -0.0727
  140MOL0     H18886  -0.367   9.709   7.992 -1.7180  1.7092 -1.8434
  140MOL0     H18887  -0.143   9.734   8.050  0.0317  0.5046 -0.6112
  140MOL0     H18888   0.258  10.191   8.269  0.4462  0.6384 -0.6189
  140MOL0     H18889   0.497  10.116   8.323 -0.4378  0.6884 -0.5750
  140MOL0     H18890   0.555   9.698   8.398 -2.4824 -1.3486 -2.8332
  140MOL0     H18891   0.608   9.715   8.229 -0.5206  3.2449 -1.9915
  140MOL0     H18892   0.826   9.790   8.281  1.8389  2.3352  3.1283
  140MOL0     H18893   0.786   9.632   8.367  0.5452  0.1674 -2.0137
  140MOL0     H18894   0.734   9.750   8.567 -1.3587  0.9929 -0.4818
  140MOL0     H18895   0.783   9.898   8.492  0.4976  0.6682 -0.1737
  140MOL0     H18896   0.959   9.683   8.578 -1.8716  1.5314  2.4596
  140MOL0     H18897   0.960   9.860   8.613 -0.8444  0.6147 -0.9154
  140MOL0     H18898   1.210   9.872   8.282 -1.7564 -0.7630 -1.4574
  140MOL0     H18899   0.383   9.713   8.283  0.0518  0.4369  1.6783
  140MOL0     H18900   0.153   9.779   8.212 -3.0905  3.2610 -0.0778
  141MOL0     O18901   6.334   5.521   2.130 -0.0440 -0.3296 -0.0655
  141MOL0     C18902   6.372   5.425   2.065 -0.2797 -0.3053  1.0315
  141MOL0     O18903   6.301   5.316   2.030  0.1316  0.0060 -0.2410
  141MOL0     C18904   6.186   5.295   2.096 -0.4955 -0.6531 -0.5596
  141MOL0     C18905   6.062   5.354   2.057  0.1342 -0.2229 -0.2610
  141MOL0     C18906   5.956   5.327   2.129 -0.2885 -0.2566 -0.6559
  141MOL0     C18907   5.955   5.238   2.228  0.0185  0.0394 -0.2112
  141MOL0     O18908   5.843   5.237   2.303 -0.0662  0.1912  0.2549
  141MOL0     C18909   5.838   5.160   2.420  0.2540 -0.4962  0.3954
  141MOL0     C18910   5.690   5.162   2.473  0.2017  0.4867  0.6883
  141MOL0     C18911   5.632   5.291   2.523 -0.3431  0.0991  0.7063
  141MOL0     C18912   5.486   5.299   2.556 -0.1003  0.3154  0.0827
  141MOL0     C18913   5.443   5.446   2.566  0.0183 -0.5177 -0.6954
  141MOL0     C18914   5.477   5.504   2.710 -0.6064 -0.8273  0.7403
  141MOL0     C18915   5.397   5.634   2.740 -0.4171  0.7607  0.0597
  141MOL0     C18916   5.388   5.641   2.888  0.7257  0.1113 -0.4108
  141MOL0     N18917   5.292   5.740   2.935  0.0761 -0.4192  0.7638
  141MOL0     C18918   5.211   5.729   3.045  0.5593  0.3495  0.2907
  141MOL0     C18919   5.121   5.820   3.033  1.1054 -0.0453  0.0893
  141MOL0     C18920   5.006   5.834   3.136 -0.7823 -0.3443  0.2216
  141MOL0     C18921   5.035   5.930   3.242 -0.9238  0.0923  0.3334
  141MOL0     C18922   4.907   5.958   3.324  0.2521  0.4438 -0.8447
  141MOL0     C18923   4.932   6.072   3.425 -0.5094  0.8876  0.7418
  141MOL0     O18924   4.828   6.087   3.516  0.6995 -0.1395  0.0952
  141MOL0     C18925   4.717   6.154   3.473  0.2525 -0.4392  0.1823
  141MOL0     C18926   4.709   6.224   3.352  0.6921  0.2349 -0.8661
  141MOL0     C18927   4.590   6.292   3.315 -1.0748 -0.0011  0.0451
  141MOL0     C18928   4.599   6.375   3.188 -0.8821  0.2591 -0.2920
  141MOL0     C18929   4.471   6.282   3.395 -0.0962 -1.0348 -0.7162
  141MOL0     C18930   4.345   6.345   3.364  0.0820  0.0336 -0.0638
  141MOL0     O18931   4.243   6.264   3.376 -0.2600  0.4870 -0.4580
  141MOL0     C18932   4.113   6.308   3.364 -0.0187 -0.4378  0.2809
  141MOL0     C18933   4.068   6.425   3.427  0.6437 -0.2215  0.2818
  141MOL0     C18934   3.938   6.474   3.408 -0.3172  0.5052 -0.5109
  141MOL0     C18935   3.853   6.397   3.327  0.0848  0.2956 -0.7478
  141MOL0     O18936   3.725   6.444   3.312 -0.0183 -0.0314 -0.5796
  141MOL0     C18937   3.612   6.351   3.307  0.3366  0.7734 -0.4173
  141MOL0     C18938   3.503   6.423   3.397  0.3584 -0.3661 -0.0193
  141MOL0     C18939   3.393   6.321   3.406  1.0735  1.1748 -0.3112
  141MOL0     C18940   3.416   6.227   3.528  0.9523  0.1450 -0.3974
  141MOL0     C18941   3.292   6.149   3.562  0.3823 -0.3144  1.1643
  141MOL0     C18942   3.267   6.018   3.489  0.1561 -0.3443 -0.6154
  141MOL0     C18943   3.129   5.966   3.513 -0.7494  0.5994 -0.0522
  141MOL0     C18944   3.097   5.858   3.406  0.2762 -0.0477  0.2463
  141MOL0    Cl18945   3.066   5.940   3.248  0.0687 -0.0727  0.2465
  141MOL0     C18946   3.899   6.277   3.268  0.3337  0.7414  0.6056
  141MOL0     C18947   4.025   6.227   3.292 -0.5931  0.6826 -1.4226
  141MOL0     O18948   4.344   6.459   3.328 -0.3139 -0.0928 -0.5053
  141MOL0     C18949   4.484   6.197   3.509 -0.0353  0.7156 -0.0170
  141MOL0     C18950   4.601   6.141   3.547  0.4339 -0.3206  0.7811
  141MOL0     N18951   5.160   5.897   2.925  0.2605 -0.5714 -0.0369
  141MOL0     N18952   5.253   5.843   2.860 -0.5564 -0.6937  0.1387
  141MOL0     C18953   6.073   5.168   2.257 -0.8631  0.2142 -0.3051
  141MOL0     C18954   6.188   5.196   2.194 -0.3778 -0.2835 -0.3245
  141MOL0     C18955   6.505   5.445   1.994 -0.5535  1.0948  0.7987
  141MOL0     C18956   6.553   5.340   1.913  0.7652  0.1716  0.2847
  141MOL0     C18957   6.676   5.356   1.847  0.5297 -0.1410 -0.0247
  141MOL0     C18958   6.759   5.474   1.864 -0.0594  0.4421 -0.8451
  141MOL0     O18959   6.887   5.474   1.811  0.4247 -0.2854 -0.8725
  141MOL0     C18960   6.985   5.564   1.853  0.5354 -0.0127 -0.2724
  141MOL0     C18961   7.042   5.534   1.989 -0.2160 -0.0091  0.7537
  141MOL0     C18962   7.177   5.614   2.010  0.4577 -0.1377  0.8240
  141MOL0     C18963   7.246   5.579   2.139  0.9138 -0.6924  1.0440
  141MOL0     C18964   7.158   5.597   2.258  0.0152  0.0214  0.1520
  141MOL0     C18965   7.098   5.608   2.363  0.1339 -0.2277 -0.9555
  141MOL0     C18966   6.716   5.568   1.955  0.6080  0.7312 -0.7503
  141MOL0     C18967   6.585   5.559   2.017 -0.9454 -0.0223  0.5400
  141MOL0     H18968   6.050   5.422   1.973 -1.1196  1.3233  1.0887
  141MOL0     H18969   5.864   5.378   2.101  0.3069  1.1220 -0.1303
  141MOL0     H18970   5.872   5.057   2.402  0.2023 -0.3293 -0.7288
  141MOL0     H18971   5.902   5.203   2.498 -1.9141  0.2933  1.8154
  141MOL0     H18972   5.631   5.120   2.392  2.6768  0.7439 -1.3824
  141MOL0     H18973   5.675   5.092   2.555 -0.6452 -1.3869 -1.0050
  141MOL0     H18974   5.680   5.328   2.614  1.9225  1.9039 -1.0909
  141MOL0     H18975   5.663   5.371   2.454  0.8368  1.2928  2.5241
  141MOL0     H18976   5.439   5.242   2.476 -0.6314 -0.5735  1.0043
  141MOL0     H18977   5.459   5.251   2.651 -0.5808  1.0812  0.3454
  141MOL0     H18978   5.485   5.520   2.497  0.4283  1.8751  1.9543
  141MOL0     H18979   5.334   5.457   2.570 -0.2047 -2.6339  1.8409
  141MOL0     H18980   5.460   5.424   2.783  1.6745 -2.1819 -0.1169
  141MOL0     H18981   5.584   5.527   2.717  0.4306 -3.8380 -2.4270
  141MOL0     H18982   5.441   5.722   2.694  0.2838 -1.6234 -4.4300
  141MOL0     H18983   5.294   5.638   2.703 -0.6195  1.9520  0.7101
  141MOL0     H18984   5.480   5.673   2.939  0.1536  0.3915  0.4610
  141MOL0     H18985   5.356   5.547   2.933 -1.0588  0.6702 -0.4557
  141MOL0     H18986   5.224   5.662   3.129 -0.6442  0.4696  0.5821
  141MOL0     H18987   4.919   5.871   3.081  0.9347  2.3854 -0.9009
  141MOL0     H18988   4.990   5.734   3.178  0.1934 -0.7434 -0.3073
  141MOL0     H18989   5.084   6.017   3.198  1.2101 -1.7924 -1.2696
  141MOL0     H18990   5.117   5.890   3.304 -0.0544 -0.6435 -1.2395
  141MOL0     H18991   4.884   5.869   3.383 -0.3804  0.2869 -1.3180
  141MOL0     H18992   4.822   5.987   3.261 -0.6514 -0.1190  0.0830
  141MOL0     H18993   4.960   6.160   3.366 -1.0434  1.3238  1.1296
  141MOL0     H18994   5.018   6.050   3.488 -2.0315  0.4016  2.7513
  141MOL0     H18995   4.791   6.244   3.283  0.2021 -1.7014 -2.1126
  141MOL0     H18996   4.703   6.389   3.159  0.1968  0.1721  3.0562
  141MOL0     H18997   4.549   6.317   3.110  2.9929 -1.4877 -1.7438
  141MOL0     H18998   4.554   6.474   3.196 -0.0894  0.6046 -0.0445
  141MOL0     H18999   4.127   6.495   3.485 -2.2323  0.9712  1.9784
  141MOL0     H19000   3.910   6.568   3.454  0.5845  0.9521 -0.8624
  141MOL0     H19001   3.583   6.320   3.206  2.6072 -3.8159  0.0901
  141MOL0     H19002   3.651   6.253   3.334  1.0567  0.3178 -2.8608
  141MOL0     H19003   3.530   6.462   3.496 -1.3101  1.3091 -0.1602
  141MOL0     H19004   3.468   6.512   3.343 -1.7024 -0.6942  0.6954
  141MOL0     H19005   3.388   6.264   3.313  1.1022  1.0785 -0.2540
  141MOL0     H19006   3.300   6.376   3.421 -0.1126 -1.1442  1.5923
  141MOL0     H19007   3.504   6.163   3.515  2.1742  2.0178 -1.7889
  141MOL0     H19008   3.445   6.289   3.614  1.3119 -0.2039 -0.2642
  141MOL0     H19009   3.214   6.222   3.541  0.6208 -0.5474 -0.6680
  141MOL0     H19010   3.295   6.136   3.671  2.3572  0.4638  1.2458
  141MOL0     H19011   3.269   6.051   3.385 -0.8394 -0.2959 -0.6311
  141MOL0     H19012   3.347   5.946   3.510  0.7686  0.6593  0.6918
  141MOL0     H19013   3.051   6.043   3.516 -2.0875 -0.7506  1.6650
  141MOL0     H19014   3.121   5.916   3.610  1.7822 -0.7428 -0.4602
  141MOL0     H19015   3.011   5.796   3.432  0.7812 -1.4288 -1.2324
  141MOL0     H19016   3.174   5.781   3.396 -0.8503 -1.1806  0.0148
  141MOL0     H19017   3.830   6.222   3.205  1.4926  1.7668 -1.6556
  141MOL0     H19018   4.066   6.129   3.267 -0.1437 -0.4985  3.0318
  141MOL0     H19019   4.395   6.187   3.571  1.8476 -1.7136  2.5543
  141MOL0     H19020   4.603   6.085   3.640 -0.6876 -2.0556 -0.1742
  141MOL0     H19021   6.091   5.102   2.342  3.7694  2.1030  0.4496
  141MOL0     H19022   6.286   5.158   2.220  0.6810  2.0957 -0.6092
  141MOL0     H19023   6.499   5.250   1.887  0.5729  0.0235  1.1514
  141MOL0     H19024   6.702   5.277   1.779 -1.3142 -0.9669  0.1547
  141MOL0     H19025   7.064   5.548   1.779 -1.1823 -2.7069 -1.6728
  141MOL0     H19026   6.961   5.671   1.851 -0.2555 -0.1721  0.2092
  141MOL0     H19027   7.057   5.426   1.999  0.6232  0.2484  2.6400
  141MOL0     H19028   6.969   5.551   2.069  0.9650  0.2063  1.8189
  141MOL0     H19029   7.142   5.717   2.013  1.1518  0.0990  1.0128
  141MOL0     H19030   7.243   5.602   1.924  0.2779  1.4233  0.4451
  141MOL0     H19031   7.336   5.638   2.158  0.7531 -0.5105  1.2435
  141MOL0     H19032   7.285   5.476   2.131  1.3875 -0.4440  0.0435
  141MOL0     H19033   7.046   5.627   2.455  0.1444  3.2658 -1.5241
  141MOL0     H19034   6.779   5.654   1.977  0.5523  0.3056  1.2854
  141MOL0     H19035   6.571   5.626   2.102  1.2030 -0.1666  1.0676
  142MOL0     O19036   2.106   4.734   0.297 -0.2440 -0.1218 -0.9030
  142MOL0     C19037   2.155   4.845   0.292 -0.8835  0.5964 -0.0232
  142MOL0     O19038   2.089   4.960   0.252 -0.3751  0.1593  0.0830
  142MOL0     C19039   1.959   4.955   0.218 -0.3200 -0.0112  0.0463
  142MOL0     C19040   1.880   5.065   0.268  0.8944 -0.0839  0.0050
  142MOL0     C19041   1.741   5.073   0.246  0.2429  0.0984 -0.3311
  142MOL0     C19042   1.684   4.981   0.161  0.0743  0.9399  1.1058
  142MOL0     O19043   1.556   5.010   0.120  0.3810  0.3601 -0.1050
  142MOL0     C19044   1.470   4.914   0.063 -0.0845 -0.0104  0.4259
  142MOL0     C19045   1.355   4.992   0.004  0.2428  0.5194 -0.1869
  142MOL0     C19046   1.257   4.888  -0.040 -0.1986  0.0974 -0.7661
  142MOL0     C19047   1.266   4.845  -0.186 -0.4295  1.0063  0.5370
  142MOL0     C19048   1.159   4.741  -0.227  0.8549 -0.8389 -0.2910
  142MOL0     C19049   1.018   4.804  -0.245  0.5223 -0.0700  0.4167
  142MOL0     C19050   0.899   4.714  -0.287 -1.3860 -0.9255 -0.1515
  142MOL0     C19051   0.773   4.789  -0.244  0.4475 -0.2783  0.6631
  142MOL0     N19052   0.649   4.725  -0.298 -0.1663  0.3996  0.6892
  142MOL0     C19053   0.582   4.625  -0.230 -1.0537  0.8079 -0.0316
  142MOL0     C19054   0.451   4.648  -0.248 -0.6903 -0.7061 -0.2364
  142MOL0     C19055   0.326   4.579  -0.191 -0.1320  0.9740 -0.1605
  142MOL0     C19056   0.280   4.637  -0.051  0.0289 -0.2794 -0.4503
  142MOL0     C19057   0.175   4.537  -0.002 -1.1042  0.1690  0.8250
  142MOL0     C19058   0.098   4.589   0.116 -0.7664  1.1908 -1.1290
  142MOL0     O19059   0.015   4.696   0.072  0.6325 -0.1036  0.7864
  142MOL0     C19060  -0.100   4.659   0.006  0.1926 -0.2697 -0.3649
  142MOL0     C19061  -0.108   4.685  -0.128  0.1730 -0.3449 -0.1208
  142MOL0     C19062  -0.224   4.654  -0.202 -0.3978 -0.5856 -0.9428
  142MOL0     C19063  -0.193   4.668  -0.355 -0.3533  0.3331 -0.1344
  142MOL0     C19064  -0.339   4.605  -0.133 -0.0993  0.0460  0.1359
  142MOL0     C19065  -0.461   4.554  -0.209 -0.2581 -0.2716  0.3125
  142MOL0     O19066  -0.542   4.479  -0.138 -0.0813 -0.3292 -0.1578
  142MOL0     C19067  -0.673   4.470  -0.183  0.6046 -0.5528  0.0756
  142MOL0     C19068  -0.712   4.380  -0.281 -0.0127 -0.0820 -0.6377
  142MOL0     C19069  -0.847   4.358  -0.314  0.1401 -0.5815 -0.3030
  142MOL0     C19070  -0.942   4.432  -0.255  0.2114  0.4259  0.7205
  142MOL0     O19071  -1.072   4.409  -0.294  0.4817 -0.2459  0.0428
  142MOL0     C19072  -1.178   4.449  -0.205  0.2447  0.2402  0.0597
  142MOL0     C19073  -1.303   4.361  -0.248  0.4916 -0.2521  0.6519
  142MOL0     C19074  -1.355   4.390  -0.386 -0.0320 -0.3389  0.1569
  142MOL0     C19075  -1.474   4.288  -0.402 -0.1209 -0.6505 -0.2003
  142MOL0     C19076  -1.517   4.291  -0.549 -0.1264 -0.2261  0.0665
  142MOL0     C19077  -1.412   4.226  -0.637  0.7407 -0.3155  0.9869
  142MOL0     C19078  -1.487   4.173  -0.765  0.6324 -0.4971  0.1098
  142MOL0     C19079  -1.394   4.109  -0.862 -0.6651  0.7003  0.1736
  142MOL0    Cl19080  -1.483   4.039  -1.002 -0.0056  0.2787  0.5732
  142MOL0     C19081  -0.911   4.523  -0.152 -0.4269 -0.1067 -0.2755
  142MOL0     C19082  -0.775   4.552  -0.120  0.5919 -0.3724 -0.3200
  142MOL0     O19083  -0.474   4.583  -0.323 -0.5315 -0.1136  0.4643
  142MOL0     C19084  -0.327   4.588   0.007 -0.1961  0.0440  1.0896
  142MOL0     C19085  -0.208   4.612   0.077  0.9528  0.3006 -0.3000
  142MOL0     N19086   0.440   4.751  -0.335 -0.9768  0.0837  0.5652
  142MOL0     N19087   0.556   4.800  -0.362  0.5101 -0.0978 -1.0046
  142MOL0     C19088   1.758   4.870   0.109  0.5267  0.2469  0.1571
  142MOL0     C19089   1.893   4.847   0.145  0.1825  0.1056 -0.1744
  142MOL0     C19090   2.291   4.873   0.355  0.2555  0.4981 -0.2570
  142MOL0     C19091   2.342   4.999   0.358  0.5405 -0.1537  0.4035
  142MOL0     C19092   2.473   5.018   0.403 -0.4283 -0.0281 -0.6490
  142MOL0     C19093   2.558   4.920   0.449  0.3071 -0.3874 -0.7672
  142MOL0     O19094   2.690   4.927   0.452  0.3092  0.2477 -0.5799
  142MOL0     C19095   2.752   5.043   0.395  0.4152  0.5917 -0.1975
  142MOL0     C19096   2.903   5.017   0.396 -0.1053 -1.3168  0.9551
  142MOL0     C19097   2.968   5.162   0.404  0.1136  0.1443 -0.5307
  142MOL0     C19098   2.973   5.238   0.270  0.7104  0.8491  0.0407
  142MOL0     C19099   3.078   5.187   0.180  0.3799 -0.0779 -0.0470
  142MOL0     C19100   3.161   5.138   0.104 -0.0349  0.2654  0.4892
  142MOL0     C19101   2.496   4.803   0.470  0.0487  0.4515 -1.2764
  142MOL0     C19102   2.368   4.775   0.408 -0.1387 -0.5275 -0.4662
  142MOL0     H19103   1.919   5.144   0.332  2.0111 -1.7915  1.5389
  142MOL0     H19104   1.672   5.150   0.277 -0.3172 -0.5742  0.1184
  142MOL0     H19105   1.514   4.871  -0.028 -0.8433  0.6291 -0.2674
  142MOL0     H19106   1.441   4.833   0.131 -0.3355 -0.7325 -0.5150
  142MOL0     H19107   1.314   5.055   0.083 -2.5309 -1.6826  0.3039
  142MOL0     H19108   1.389   5.058  -0.076 -4.0340  3.8719  0.3884
  142MOL0     H19109   1.268   4.798   0.022 -1.7860 -1.6829 -2.8900
  142MOL0     H19110   1.159   4.930  -0.015 -2.4324 -5.4858  1.6197
  142MOL0     H19111   1.266   4.936  -0.246  1.3104  0.6200 -0.1073
  142MOL0     H19112   1.362   4.799  -0.213 -2.4463 -2.3674 -1.6035
  142MOL0     H19113   1.195   4.697  -0.320 -1.5971 -2.2878 -0.6484
  142MOL0     H19114   1.143   4.664  -0.151 -2.6163 -0.1773 -0.1677
  142MOL0     H19115   0.987   4.855  -0.153  0.3382  0.2115  0.1987
  142MOL0     H19116   1.023   4.886  -0.317  0.5804  1.3153  1.9397
  142MOL0     H19117   0.908   4.710  -0.396 -2.3611  1.1597 -0.3503
  142MOL0     H19118   0.912   4.615  -0.242 -0.5169 -0.0828  1.5467
  142MOL0     H19119   0.783   4.896  -0.264  1.1152  0.6010  4.8330
  142MOL0     H19120   0.766   4.779  -0.135  0.0546  0.1176  0.6732
  142MOL0     H19121   0.625   4.543  -0.172 -1.1696 -0.7063 -1.9768
  142MOL0     H19122   0.239   4.597  -0.255 -0.6848 -0.5649  0.1187
  142MOL0     H19123   0.343   4.471  -0.183  0.0922  0.9347 -1.0637
  142MOL0     H19124   0.241   4.738  -0.067  3.2033  1.1631  0.1294
  142MOL0     H19125   0.368   4.639   0.014 -0.4849  0.9594  0.2514
  142MOL0     H19126   0.223   4.443   0.027  0.4609  0.2886 -1.1633
  142MOL0     H19127   0.112   4.510  -0.087  0.9514  1.5380 -1.2676
  142MOL0     H19128   0.165   4.624   0.195 -2.2995  1.3105  0.1775
  142MOL0     H19129   0.056   4.507   0.174  3.8278 -1.0971 -0.5923
  142MOL0     H19130  -0.027   4.732  -0.182 -0.6360 -0.3627 -1.3971
  142MOL0     H19131  -0.136   4.759  -0.375  0.8436  0.0612  1.7894
  142MOL0     H19132  -0.139   4.578  -0.386 -0.1108  0.6471 -0.6443
  142MOL0     H19133  -0.277   4.663  -0.425  0.9185 -2.6047 -1.6391
  142MOL0     H19134  -0.629   4.327  -0.328  1.0738  0.6876  0.3788
  142MOL0     H19135  -0.882   4.287  -0.387 -1.5151 -0.1724  0.0406
  142MOL0     H19136  -1.163   4.429  -0.099 -0.5939  1.3440  0.3976
  142MOL0     H19137  -1.209   4.553  -0.212  0.8938  0.3587 -1.3199
  142MOL0     H19138  -1.286   4.253  -0.248 -0.1844 -0.3961 -1.4909
  142MOL0     H19139  -1.387   4.381  -0.180  1.7279 -0.5517  2.3209
  142MOL0     H19140  -1.274   4.372  -0.457 -0.3694  3.1582 -1.3635
  142MOL0     H19141  -1.395   4.492  -0.394 -1.0503 -0.5733  1.8443
  142MOL0     H19142  -1.439   4.188  -0.374  3.0812 -0.0393 -1.5403
  142MOL0     H19143  -1.561   4.305  -0.338  1.0342 -2.7172  2.0758
  142MOL0     H19144  -1.551   4.389  -0.583 -2.9235 -0.1187  2.6424
  142MOL0     H19145  -1.610   4.233  -0.549  0.1487 -0.8664 -3.3412
  142MOL0     H19146  -1.345   4.311  -0.652 -0.1575  0.5648  1.9067
  142MOL0     H19147  -1.355   4.140  -0.598  0.8494 -1.1472 -0.8531
  142MOL0     H19148  -1.532   4.253  -0.824  1.9332 -0.6005 -1.0537
  142MOL0     H19149  -1.564   4.099  -0.742  2.3833 -2.2534  0.6128
  142MOL0     H19150  -1.335   4.029  -0.815 -0.7762 -1.1525 -2.5814
  142MOL0     H19151  -1.315   4.175  -0.899  1.0696 -1.1606  0.3663
  142MOL0     H19152  -0.976   4.591  -0.097 -0.1148  0.8214 -1.0296
  142MOL0     H19153  -0.751   4.613  -0.033  0.6114 -0.1418 -0.4852
  142MOL0     H19154  -0.420   4.547   0.045 -0.1766  0.1441  1.2456
  142MOL0     H19155  -0.199   4.609   0.185  0.0236 -0.4866 -0.2321
  142MOL0     H19156   1.708   4.806   0.037  1.4443  0.4811 -0.7180
  142MOL0     H19157   1.944   4.761   0.104  0.0291 -0.5948  1.0574
  142MOL0     H19158   2.284   5.085   0.327 -0.2431 -0.7363  0.2350
  142MOL0     H19159   2.514   5.119   0.407  2.1371 -1.0159  2.8878
  142MOL0     H19160   2.721   5.064   0.293 -0.1792  0.5802 -0.0190
  142MOL0     H19161   2.729   5.128   0.460 -1.6470 -1.0856  1.4212
  142MOL0     H19162   2.933   4.971   0.301  0.2170  0.4702  0.1522
  142MOL0     H19163   2.934   4.962   0.485  0.0458 -1.3605  0.8766
  142MOL0     H19164   3.073   5.152   0.431 -0.1084  1.7765  1.2476
  142MOL0     H19165   2.919   5.223   0.481  1.2842 -2.4856  2.5379
  142MOL0     H19166   3.000   5.342   0.291 -0.0667  1.3795 -1.4328
  142MOL0     H19167   2.876   5.239   0.219 -0.1115 -1.8407  1.3596
  142MOL0     H19168   3.229   5.103   0.029 -0.7655  0.2538 -0.1753
  142MOL0     H19169   2.547   4.714   0.506 -2.4335 -0.3623  0.5804
  142MOL0     H19170   2.321   4.678   0.419 -2.5836  0.2852 -2.7692
  143MOL0     O19171   4.024  10.891   0.985  0.6803  0.1297  0.3861
  143MOL0     C19172   4.079  10.999   1.014 -0.4562  0.7779 -0.7276
  143MOL0     O19173   4.029  11.122   1.005  0.3338 -0.1728 -0.1593
  143MOL0     C19174   3.898  11.140   0.969 -0.0404  0.5852 -0.1347
  143MOL0     C19175   3.852  11.240   0.885 -0.1890 -0.6146 -0.1584
  143MOL0     C19176   3.720  11.277   0.858 -0.0375  0.5242 -0.3674
  143MOL0     C19177   3.619  11.208   0.926  0.5320  0.6200 -1.0602
  143MOL0     O19178   3.486  11.238   0.921 -0.2331 -0.3784  0.5285
  143MOL0     C19179   3.417  11.340   0.842 -0.6774 -0.2369 -0.5560
  143MOL0     C19180   3.259  11.329   0.859  0.5863  0.4466 -0.1768
  143MOL0     C19181   3.184  11.449   0.791  0.9876  0.6560 -0.4473
  143MOL0     C19182   3.044  11.406   0.747  0.6163  0.6239 -0.7393
  143MOL0     C19183   2.976  11.509   0.661 -0.4217 -0.5350  0.6850
  143MOL0     C19184   2.838  11.457   0.606  0.0001 -0.6508 -0.0543
  143MOL0     C19185   2.741  11.406   0.712 -0.0125  0.2973 -0.3477
  143MOL0     C19186   2.687  11.502   0.813 -0.4641  0.5176  0.0274
  143MOL0     N19187   2.598  11.429   0.897  0.5242  0.1299 -0.3462
  143MOL0     C19188   2.467  11.399   0.878  0.2237  0.3372  0.5900
  143MOL0     C19189   2.430  11.335   0.986  0.0404  0.1266 -0.0051
  143MOL0     C19190   2.290  11.298   1.022  0.3304  0.1093  0.7978
  143MOL0     C19191   2.201  11.428   1.039  0.3672  0.3692  0.0598
  143MOL0     C19192   2.217  11.499   1.170 -0.4997  0.0326  1.3059
  143MOL0     C19193   2.141  11.444   1.295 -0.4568  0.9267 -0.8037
  143MOL0     O19194   2.005  11.481   1.271 -0.7580  0.0240  0.0900
  143MOL0     C19195   1.943  11.570   1.353  0.7823 -0.3435  0.4365
  143MOL0     C19196   2.006  11.673   1.428 -0.5193 -0.4383  0.0438
  143MOL0     C19197   1.943  11.758   1.513  0.5738 -0.4644  0.1442
  143MOL0     C19198   2.024  11.855   1.589  0.7806 -0.9062  0.2137
  143MOL0     C19199   1.806  11.766   1.514  0.5138  0.2440  0.7799
  143MOL0     C19200   1.730  11.864   1.590  0.2690  0.5319  0.2640
  143MOL0     O19201   1.619  11.816   1.652  0.5830 -0.4366 -0.7103
  143MOL0     C19202   1.553  11.910   1.730  0.9558  0.5434  0.2172
  143MOL0     C19203   1.419  11.942   1.697  0.2324 -0.5481  0.1621
  143MOL0     C19204   1.354  12.025   1.782 -0.1112  0.2335 -0.5528
  143MOL0     C19205   1.402  12.058   1.913  0.9641  0.1468  0.4851
  143MOL0     O19206   1.313  12.102   2.001  0.7011  0.1570  0.7167
  143MOL0     C19207   1.368  12.167   2.115  0.2842  0.6012  0.4557
  143MOL0     C19208   1.267  12.270   2.175 -0.3860  0.2663  0.3247
  143MOL0     C19209   1.132  12.201   2.197  0.1915 -0.6641 -0.0040
  143MOL0     C19210   1.052  12.284   2.298  0.0774  0.3487  0.4131
  143MOL0     C19211   0.905  12.251   2.300  0.0733  0.4341  0.4485
  143MOL0     C19212   0.836  12.335   2.193  0.2553 -0.2021  0.5466
  143MOL0     C19213   0.684  12.304   2.199  0.7373  1.0613 -0.3595
  143MOL0     C19214   0.604  12.387   2.112  0.5081  0.5405  0.3850
  143MOL0    Cl19215   0.436  12.361   2.155  0.0396  0.1404 -0.0128
  143MOL0     C19216   1.526  12.012   1.951 -0.6755  0.0281 -0.3822
  143MOL0     C19217   1.605  11.945   1.853  0.4326  0.1259 -0.2356
  143MOL0     O19218   1.766  11.978   1.583 -0.2837 -0.7261  0.2785
  143MOL0     C19219   1.731  11.671   1.436 -0.3306  0.0367 -0.1746
  143MOL0     C19220   1.798  11.569   1.364 -0.3618 -0.0755  0.5000
  143MOL0     N19221   2.542  11.317   1.072  0.7560 -0.1532  0.1109
  143MOL0     N19222   2.643  11.382   1.018  0.5162  0.0833 -0.1207
  143MOL0     C19223   3.656  11.104   1.011  0.4292 -0.9728 -0.2045
  143MOL0     C19224   3.790  11.068   1.030 -0.0674 -0.4732  0.0891
  143MOL0     C19225   4.216  10.997   1.061 -0.2151  0.5567 -0.5490
  143MOL0     C19226   4.276  10.876   1.100  0.4223 -0.0459 -0.5753
  143MOL0     C19227   4.401  10.869   1.159  0.2666 -0.3191 -0.1229
  143MOL0     C19228   4.476  10.984   1.172 -0.5092  0.2949  0.5829
  143MOL0     O19229   4.598  11.001   1.230 -0.9058  0.4304 -0.9110
  143MOL0     C19230   4.672  10.880   1.277 -0.4566 -0.1065  0.1766
  143MOL0     C19231   4.794  10.926   1.334  0.0171 -0.1115  0.5519
  143MOL0     C19232   4.885  10.807   1.382 -0.0803 -0.1615 -0.7901
  143MOL0     C19233   5.023  10.859   1.435 -0.1371  0.1224 -0.0401
  143MOL0     C19234   5.125  10.752   1.435  0.0864 -0.3333 -0.4640
  143MOL0     C19235   5.217  10.670   1.427 -0.5323  0.1423  0.1538
  143MOL0     C19236   4.416  11.100   1.130 -0.0742 -1.0711  0.7599
  143MOL0     C19237   4.292  11.114   1.071  0.4161  0.4277 -0.2433
  143MOL0     H19238   3.931  11.291   0.830 -0.4365  0.4177  0.4063
  143MOL0     H19239   3.689  11.364   0.802  0.2773  1.2323  0.5316
  143MOL0     H19240   3.454  11.442   0.861  2.6738 -0.8727 -2.7761
  143MOL0     H19241   3.432  11.321   0.736 -2.5427  0.7226 -1.0270
  143MOL0     H19242   3.224  11.229   0.832  0.5394  0.7913 -1.4663
  143MOL0     H19243   3.241  11.358   0.962  0.9460  2.9737 -0.7742
  143MOL0     H19244   3.165  11.538   0.851  0.7158 -0.3351  0.9944
  143MOL0     H19245   3.238  11.487   0.704 -0.2571  1.5816 -0.8455
  143MOL0     H19246   3.050  11.317   0.684  0.0891  1.6798 -2.3826
  143MOL0     H19247   2.977  11.387   0.831  0.4924 -1.5064 -1.2799
  143MOL0     H19248   2.958  11.604   0.711  0.9349  0.2568 -0.2736
  143MOL0     H19249   3.038  11.524   0.573 -1.4747 -0.5738 -0.0854
  143MOL0     H19250   2.787  11.538   0.552 -0.3106 -1.3117 -0.7607
  143MOL0     H19251   2.853  11.373   0.538 -0.1919 -0.2393 -0.6111
  143MOL0     H19252   2.657  11.364   0.657 -0.4866  0.5541  0.1732
  143MOL0     H19253   2.790  11.324   0.765  2.2202  1.4836 -0.4138
  143MOL0     H19254   2.643  11.586   0.758  1.8047  1.0921 -1.0468
  143MOL0     H19255   2.775  11.536   0.869  0.9315  2.5476 -3.1133
  143MOL0     H19256   2.411  11.429   0.789 -1.4052 -0.2391  1.3825
  143MOL0     H19257   2.263  11.232   0.938  1.6984 -1.3128  1.4396
  143MOL0     H19258   2.286  11.234   1.110 -1.5356 -1.6814 -0.5017
  143MOL0     H19259   2.094  11.407   1.032  0.1973  0.5208  1.7453
  143MOL0     H19260   2.223  11.498   0.958  2.8528  1.4900  1.6113
  143MOL0     H19261   2.184  11.600   1.145  0.2070 -0.8149 -4.5008
  143MOL0     H19262   2.323  11.517   1.193 -0.4588  1.3622  0.2219
  143MOL0     H19263   2.167  11.480   1.395 -3.2976 -1.0670  0.7927
  143MOL0     H19264   2.162  11.337   1.303 -2.2505  0.6794  1.2983
  143MOL0     H19265   2.114  11.682   1.416 -0.0597 -1.5974  2.6334
  143MOL0     H19266   2.034  11.943   1.525  1.3010  1.1032  2.8630
  143MOL0     H19267   1.975  11.893   1.679 -0.8415  2.2151 -1.8192
  143MOL0     H19268   2.118  11.814   1.626  1.9691 -0.2874 -1.9512
  143MOL0     H19269   1.369  11.912   1.605 -0.1337 -2.5636  0.9684
  143MOL0     H19270   1.257  12.059   1.749 -0.3339 -0.4964 -0.6598
  143MOL0     H19271   1.393  12.097   2.195  2.8340 -0.4897 -1.1576
  143MOL0     H19272   1.460  12.221   2.091  0.7835 -0.8505 -1.1285
  143MOL0     H19273   1.313  12.298   2.270  1.6253 -1.6344 -0.0365
  143MOL0     H19274   1.256  12.357   2.109 -0.2179  0.5158  0.6234
  143MOL0     H19275   1.149  12.098   2.229 -2.3374 -1.1844 -0.1253
  143MOL0     H19276   1.071  12.187   2.108 -2.3300 -0.3962  1.5710
  143MOL0     H19277   1.096  12.270   2.398 -0.9253 -2.1989  0.5637
  143MOL0     H19278   1.066  12.388   2.269  5.1715 -0.4448 -0.8965
  143MOL0     H19279   0.872  12.263   2.404  2.2271  1.2874  1.0719
  143MOL0     H19280   0.899  12.146   2.269 -2.4361  1.0929 -1.6301
  143MOL0     H19281   0.852  12.438   2.225  1.8891 -0.7581  1.6846
  143MOL0     H19282   0.882  12.320   2.095  0.1976 -0.8404  0.6106
  143MOL0     H19283   0.652  12.311   2.304  1.5052 -3.2989  0.3663
  143MOL0     H19284   0.676  12.200   2.165  1.2468  1.1170 -0.6608
  143MOL0     H19285   0.625  12.362   2.008  2.6632  3.5282 -0.0249
  143MOL0     H19286   0.623  12.494   2.126  0.5473  0.4834  0.7728
  143MOL0     H19287   1.574  12.015   2.048  0.2961  0.8591 -0.8685
  143MOL0     H19288   1.702  11.911   1.890  1.2229 -0.1425 -2.4103
  143MOL0     H19289   1.624  11.663   1.448 -0.1007 -2.3713  0.8587
  143MOL0     H19290   1.747  11.498   1.301 -1.5457 -0.4377  1.8256
  143MOL0     H19291   3.576  11.047   1.058 -0.8209 -0.1334 -1.2478
  143MOL0     H19292   3.811  10.985   1.097 -3.7346 -0.3688  1.6244
  143MOL0     H19293   4.220  10.789   1.070 -0.6793  1.0652 -1.8845
  143MOL0     H19294   4.433  10.770   1.188 -1.0905 -0.7404  0.0172
  143MOL0     H19295   4.614  10.832   1.356 -1.0308  1.1835  0.5805
  143MOL0     H19296   4.686  10.817   1.189 -0.7867  0.5438 -0.3521
  143MOL0     H19297   4.767  10.996   1.413 -0.1191 -0.0236  0.4301
  143MOL0     H19298   4.856  10.983   1.263  1.1735  1.7243  2.8933
  143MOL0     H19299   4.910  10.756   1.288 -0.6838  2.2852 -2.3992
  143MOL0     H19300   4.825  10.744   1.448 -3.2537  2.1473 -1.2180
  143MOL0     H19301   5.013  10.900   1.536 -1.7009  1.4265 -0.6885
  143MOL0     H19302   5.060  10.934   1.365  2.4791 -0.4209  0.6419
  143MOL0     H19303   5.301  10.605   1.418 -0.0111  0.5963  1.4618
  143MOL0     H19304   4.490  11.179   1.140  0.3316 -0.8306 -2.8132
  143MOL0     H19305   4.249  11.210   1.044 -0.8230  0.0111  0.1866
  144MOL0     O19306   1.802   6.290  10.390 -0.5859 -0.1863  0.2459
  144MOL0     C19307   1.797   6.172  10.418 -0.5075  0.0213 -0.5093
  144MOL0     O19308   1.690   6.104  10.474  0.6808 -0.5863  0.2170
  144MOL0     C19309   1.576   6.180  10.465  0.1017  0.3869  0.3571
  144MOL0     C19310   1.495   6.184  10.352  0.5126  0.1954  0.6612
  144MOL0     C19311   1.381   6.268  10.336 -0.0881 -1.0825 -0.8672
  144MOL0     C19312   1.339   6.348  10.443  0.0481  0.0261 -0.0378
  144MOL0     O19313   1.236   6.433  10.455  0.4318 -0.4727 -0.2064
  144MOL0     C19314   1.140   6.436  10.345  1.3770 -0.5378  0.2763
  144MOL0     C19315   1.033   6.534  10.380  0.2249  0.1815  1.2622
  144MOL0     C19316   0.899   6.486  10.309  0.3175  1.4604  0.5806
  144MOL0     C19317   0.897   6.508  10.156  0.9025  0.1575 -1.1871
  144MOL0     C19318   0.751   6.477  10.112  0.6625  0.0842 -0.7266
  144MOL0     C19319   0.734   6.548   9.980 -0.0202  0.2478  0.1913
  144MOL0     C19320   0.627   6.494   9.890 -0.2263 -0.8363  0.3609
  144MOL0     C19321   0.670   6.379   9.794 -0.4507 -0.5917 -0.6701
  144MOL0     N19322   0.749   6.434   9.683 -0.4920 -0.5178 -0.4128
  144MOL0     C19323   0.719   6.510   9.579  0.3380 -0.2959 -0.1559
  144MOL0     C19324   0.826   6.517   9.497  0.5898 -0.3378 -0.8599
  144MOL0     C19325   0.836   6.586   9.366  0.2058  0.1004 -0.1045
  144MOL0     C19326   0.695   6.620   9.302 -1.2917  0.6194 -0.4285
  144MOL0     C19327   0.694   6.637   9.151 -0.7977 -0.8085  0.0341
  144MOL0     C19328   0.562   6.711   9.113  0.4534 -0.5833  0.1596
  144MOL0     O19329   0.441   6.638   9.125  0.6473 -0.2413  0.6639
  144MOL0     C19330   0.319   6.714   9.112 -0.7070 -0.1109 -0.2293
  144MOL0     C19331   0.200   6.649   9.153 -0.6576 -0.3220 -0.0456
  144MOL0     C19332   0.077   6.699   9.134  0.0433  0.1584  0.0730
  144MOL0     C19333  -0.042   6.610   9.176  0.3028 -0.0294  0.0062
  144MOL0     C19334   0.054   6.838   9.085  0.7099  0.2167  1.3073
  144MOL0     C19335  -0.077   6.909   9.073 -0.4417 -0.9297 -0.2071
  144MOL0     O19336  -0.188   6.856   9.133 -0.0063 -0.5828  0.5025
  144MOL0     C19337  -0.307   6.929   9.137 -0.4697 -0.3455 -0.6244
  144MOL0     C19338  -0.367   6.993   9.024 -0.3026  0.1603  0.3676
  144MOL0     C19339  -0.496   7.048   9.021  0.4786 -0.4502 -0.0389
  144MOL0     C19340  -0.576   7.034   9.141  0.3572 -0.0340  0.0691
  144MOL0     O19341  -0.708   7.086   9.133  0.2329 -0.9118 -0.4834
  144MOL0     C19342  -0.775   7.102   9.258  0.7614  0.3675  0.0085
  144MOL0     C19343  -0.871   6.977   9.285 -0.0603 -0.1904 -0.2904
  144MOL0     C19344  -0.959   7.014   9.410  0.0892 -0.3236 -0.3499
  144MOL0     C19345  -1.053   6.890   9.450  0.6033  0.6654  0.0829
  144MOL0     C19346  -1.167   6.850   9.354  0.6045 -0.2210  0.1713
  144MOL0     C19347  -1.277   6.746   9.411 -0.6722 -0.4747 -0.4308
  144MOL0     C19348  -1.385   6.713   9.323  0.2745  0.0155  0.4486
  144MOL0     C19349  -1.476   6.834   9.280 -0.6500 -0.2912 -0.6027
  144MOL0    Cl19350  -1.501   6.943   9.421  0.0787  0.3150  0.2034
  144MOL0     C19351  -0.519   6.967   9.253  0.2961 -0.3795 -0.0345
  144MOL0     C19352  -0.383   6.918   9.255 -0.2115 -0.8938  0.2713
  144MOL0     O19353  -0.075   7.021   9.020  0.5402  0.3633 -0.0480
  144MOL0     C19354   0.176   6.901   9.046 -0.0452 -0.1248  0.6308
  144MOL0     C19355   0.303   6.843   9.061 -0.6429  0.4069  0.2134
  144MOL0     N19356   0.917   6.439   9.554 -0.4184 -0.5595 -0.1836
  144MOL0     N19357   0.876   6.385   9.660  0.0680  0.6552  0.0482
  144MOL0     C19358   1.417   6.339  10.558 -0.1283 -0.3772  0.1758
  144MOL0     C19359   1.533   6.257  10.563  0.1496 -0.0728 -0.4711
  144MOL0     C19360   1.923   6.092  10.381  0.7007  0.1696 -0.2231
  144MOL0     C19361   2.040   6.150  10.332  0.1861  0.4351  0.3562
  144MOL0     C19362   2.153   6.075  10.293 -0.6998 -0.1787 -0.0498
  144MOL0     C19363   2.150   5.936  10.315 -0.4155 -0.3823 -0.0995
  144MOL0     O19364   2.262   5.856  10.311 -0.3214 -0.2175 -0.2775
  144MOL0     C19365   2.354   5.887  10.202 -0.0129 -0.4213 -0.8712
  144MOL0     C19366   2.431   5.757  10.166  0.5416  0.6098 -0.3546
  144MOL0     C19367   2.523   5.777  10.047 -0.0749  0.5088  0.1055
  144MOL0     C19368   2.653   5.862  10.076  0.0114 -0.2493  0.1303
  144MOL0     C19369   2.730   5.871   9.953  0.6823  0.4184  0.8138
  144MOL0     C19370   2.781   5.905   9.847 -0.4254 -0.2642 -0.9536
  144MOL0     C19371   2.035   5.876  10.370  0.1700  0.6497 -0.2812
  144MOL0     C19372   1.914   5.956  10.396 -0.6197  0.3590  0.5377
  144MOL0     H19373   1.523   6.108  10.279  0.8541  0.2118  0.7700
  144MOL0     H19374   1.323   6.266  10.244 -1.0209 -2.7063 -0.2900
  144MOL0     H19375   1.195   6.467  10.256 -2.1902 -1.5263 -2.5191
  144MOL0     H19376   1.087   6.342  10.328  0.8491 -0.2519  0.3181
  144MOL0     H19377   1.020   6.531  10.489 -2.7772 -0.0791  0.9882
  144MOL0     H19378   1.047   6.639  10.352 -0.9467  0.0660  0.1481
  144MOL0     H19379   0.882   6.380  10.330  2.0416  1.2086  0.8046
  144MOL0     H19380   0.813   6.544  10.344 -0.8328 -0.0810  0.4211
  144MOL0     H19381   0.921   6.612  10.135 -0.9525  1.5708  2.7329
  144MOL0     H19382   0.961   6.435  10.104 -0.2525 -1.9944  0.2471
  144MOL0     H19383   0.739   6.370  10.095 -1.2874  0.1894 -0.2171
  144MOL0     H19384   0.678   6.516  10.184  0.9794 -1.0668  0.2522
  144MOL0     H19385   0.713   6.654   9.999  1.0667  0.6383 -0.6387
  144MOL0     H19386   0.829   6.549   9.927 -0.3217  1.7790 -0.3774
  144MOL0     H19387   0.542   6.463   9.951 -1.5163  2.5238  0.4691
  144MOL0     H19388   0.574   6.567   9.827 -1.0578 -0.3265  1.6042
  144MOL0     H19389   0.580   6.333   9.753  0.0887 -1.6597 -0.7086
  144MOL0     H19390   0.730   6.314   9.859 -1.6509  1.8535  3.2182
  144MOL0     H19391   0.617   6.547   9.569  1.8981  5.3693  1.0652
  144MOL0     H19392   0.898   6.676   9.376 -0.5164  0.6785 -0.7169
  144MOL0     H19393   0.889   6.531   9.287  1.4453  1.3789 -0.2006
  144MOL0     H19394   0.665   6.710   9.357  1.7325 -0.1966  2.9417
  144MOL0     H19395   0.624   6.542   9.329  0.8163 -0.3777  2.8546
  144MOL0     H19396   0.691   6.547   9.089 -1.7272  1.1433 -2.9506
  144MOL0     H19397   0.781   6.698   9.123 -0.9851  0.2779  1.6487
  144MOL0     H19398   0.565   6.743   9.008  1.1384  0.5677  0.5165
  144MOL0     H19399   0.547   6.807   9.164 -2.6267 -0.5200 -0.6341
  144MOL0     H19400   0.213   6.550   9.197 -2.1129  0.0144  1.2306
  144MOL0     H19401  -0.078   6.649   9.272 -2.3098  0.2705 -1.0296
  144MOL0     H19402  -0.117   6.596   9.099  0.7464  1.5649 -0.7742
  144MOL0     H19403  -0.013   6.507   9.199  0.5286  0.4249  1.9755
  144MOL0     H19404  -0.318   6.996   8.927  0.5610  2.3248  0.8007
  144MOL0     H19405  -0.539   7.076   8.926  0.8333 -2.7859 -0.9392
  144MOL0     H19406  -0.699   7.128   9.332 -0.5364  1.0228  1.1735
  144MOL0     H19407  -0.846   7.185   9.263  0.1955 -0.1643  1.7346
  144MOL0     H19408  -0.929   6.951   9.195  0.0944  0.1624 -0.4958
  144MOL0     H19409  -0.803   6.892   9.292  0.8899  0.5286 -0.4748
  144MOL0     H19410  -1.030   7.095   9.390  1.3374  1.5834  2.2988
  144MOL0     H19411  -0.892   7.043   9.492 -1.3414  5.1142 -0.7060
  144MOL0     H19412  -0.984   6.806   9.461 -0.4304 -0.7390 -3.0566
  144MOL0     H19413  -1.101   6.913   9.546 -0.3959 -0.3617 -0.1446
  144MOL0     H19414  -1.116   6.814   9.264  1.5985  0.2152  0.5368
  144MOL0     H19415  -1.210   6.949   9.336  1.2820  0.1898  0.7338
  144MOL0     H19416  -1.240   6.647   9.439 -4.4645 -2.1197 -0.6177
  144MOL0     H19417  -1.322   6.795   9.497 -0.6081  1.4394 -1.4374
  144MOL0     H19418  -1.433   6.627   9.370  0.3738 -0.9541 -1.1295
  144MOL0     H19419  -1.353   6.673   9.226  1.7610 -2.1040  1.7212
  144MOL0     H19420  -1.572   6.792   9.248 -0.5147  0.1492 -1.6243
  144MOL0     H19421  -1.443   6.899   9.198 -0.7282  1.2039  0.4970
  144MOL0     H19422  -0.577   6.946   9.342 -1.0316 -2.7333 -1.3605
  144MOL0     H19423  -0.349   6.868   9.346 -1.9010 -0.4817  1.1736
  144MOL0     H19424   0.180   7.004   9.013 -0.4952  0.0997  1.2417
  144MOL0     H19425   0.393   6.901   9.047 -0.9384  1.1119  1.1244
  144MOL0     H19426   1.392   6.395  10.647 -0.1049 -0.1673  0.0499
  144MOL0     H19427   1.571   6.227  10.661  0.6271 -0.8722 -0.8915
  144MOL0     H19428   2.025   6.256  10.315  0.0126  0.2386 -0.7857
  144MOL0     H19429   2.232   6.136  10.251 -1.3010 -0.2936 -1.3726
  144MOL0     H19430   2.303   5.926  10.113  0.5605  0.4047 -0.8528
  144MOL0     H19431   2.429   5.958  10.237 -3.3090  1.7204  2.4730
  144MOL0     H19432   2.362   5.676  10.141 -0.6865  2.6555 -4.5326
  144MOL0     H19433   2.491   5.724  10.252  2.4884 -0.2764 -1.9914
  144MOL0     H19434   2.467   5.824   9.965  1.5029  2.0423 -0.1508
  144MOL0     H19435   2.551   5.677  10.013 -1.0370  0.8681 -1.8890
  144MOL0     H19436   2.717   5.829  10.158 -1.1685  0.4371  1.3602
  144MOL0     H19437   2.621   5.962  10.108 -0.6655 -0.1045 -0.9288
  144MOL0     H19438   2.821   5.944   9.756  1.5215  3.7982  1.3639
  144MOL0     H19439   2.046   5.771  10.397  0.1803  0.4953 -0.8862
  144MOL0     H19440   1.827   5.907  10.439  0.2973  0.2423  2.3229
  145MOL0     O19441   6.224   6.349   1.229  0.3337 -0.3818  0.4202
  145MOL0     C19442   6.205   6.256   1.148  0.4429  0.0650 -0.1452
  145MOL0     O19443   6.082   6.219   1.093 -0.0084 -0.2513 -0.2143
  145MOL0     C19444   5.965   6.291   1.110 -0.9058  0.6572 -0.0638
  145MOL0     C19445   5.879   6.290   0.995 -0.5660 -0.5118  0.8189
  145MOL0     C19446   5.767   6.372   0.995 -0.3161 -0.3073  0.4170
  145MOL0     C19447   5.724   6.449   1.106 -0.2662 -0.2894 -0.8531
  145MOL0     O19448   5.609   6.522   1.121  0.7022  0.3464 -0.0612
  145MOL0     C19449   5.484   6.461   1.075  0.2697  0.4188  0.3523
  145MOL0     C19450   5.444   6.333   1.150  1.1091  0.0964 -0.2248
  145MOL0     C19451   5.316   6.334   1.237  0.1103  0.2608  0.8356
  145MOL0     C19452   5.196   6.392   1.162  0.0933 -0.0737 -0.0571
  145MOL0     C19453   5.059   6.352   1.231  0.8511 -0.3983 -0.5329
  145MOL0     C19454   4.929   6.400   1.165 -0.5255 -0.6386  0.2199
  145MOL0     C19455   4.801   6.343   1.231 -0.2211 -0.6215 -0.3143
  145MOL0     C19456   4.781   6.190   1.233  0.3194 -0.1916 -0.8677
  145MOL0     N19457   4.641   6.153   1.248  0.4725  0.2118 -0.3552
  145MOL0     C19458   4.599   6.086   1.357  0.2404 -0.5871 -0.5199
  145MOL0     C19459   4.466   6.068   1.348 -0.4151  0.3218  0.4420
  145MOL0     C19460   4.391   6.004   1.461 -0.6889 -0.0223  0.3715
  145MOL0     C19461   4.393   5.850   1.457 -0.2740 -0.3904  0.6896
  145MOL0     C19462   4.307   5.796   1.340 -0.1866  0.7843 -0.1389
  145MOL0     C19463   4.157   5.828   1.349  0.0233 -0.4723  0.2237
  145MOL0     O19464   4.114   5.787   1.475 -0.8036 -0.1086 -0.4290
  145MOL0     C19465   4.002   5.841   1.538 -0.0584  0.4131 -0.5910
  145MOL0     C19466   3.968   5.799   1.673  0.0152  0.8765  0.4027
  145MOL0     C19467   3.851   5.848   1.742  0.1992  0.0405  0.4400
  145MOL0     C19468   3.822   5.803   1.876  0.0194 -0.2565  1.3826
  145MOL0     C19469   3.780   5.947   1.678  1.1554 -0.5547  0.4588
  145MOL0     C19470   3.673   6.021   1.755 -0.2500 -0.2878  0.4885
  145MOL0     O19471   3.551   6.025   1.688 -0.1520 -0.5232  0.0399
  145MOL0     C19472   3.459   6.108   1.745 -0.1745 -0.4477 -0.0925
  145MOL0     C19473   3.406   6.220   1.678  0.1548 -0.9468  0.1021
  145MOL0     C19474   3.303   6.301   1.738  0.0603 -0.5878  0.9268
  145MOL0     C19475   3.259   6.276   1.861  0.0326  0.1789 -0.3157
  145MOL0     O19476   3.149   6.344   1.920 -0.1906  0.3932 -0.2805
  145MOL0     C19477   3.159   6.488   1.911 -1.3268  0.5282 -0.0885
  145MOL0     C19478   3.049   6.537   2.007  0.0926  0.2147  0.5846
  145MOL0     C19479   2.907   6.505   1.956  0.4068  0.0142 -0.3824
  145MOL0     C19480   2.795   6.540   2.060 -0.5858  0.2914  0.6857
  145MOL0     C19481   2.658   6.529   2.004  0.5409 -0.5596 -0.5608
  145MOL0     C19482   2.553   6.523   2.118 -0.1854  0.3618  0.1700
  145MOL0     C19483   2.413   6.497   2.052  0.0906  0.1174 -0.3602
  145MOL0     C19484   2.304   6.484   2.155  0.4686  0.0947 -0.0210
  145MOL0    Cl19485   2.202   6.347   2.111 -0.1139 -0.0714  0.1066
  145MOL0     C19486   3.307   6.163   1.930 -0.3148 -0.2303  0.2123
  145MOL0     C19487   3.407   6.085   1.874 -0.0804  0.2398  0.0090
  145MOL0     O19488   3.716   6.092   1.845  0.2448 -0.2374 -0.1339
  145MOL0     C19489   3.809   5.986   1.547  0.4007 -0.4973  0.0089
  145MOL0     C19490   3.917   5.929   1.477 -0.1567 -0.6177  0.8448
  145MOL0     N19491   4.431   6.121   1.223 -0.3844 -0.2396  0.1069
  145MOL0     N19492   4.535   6.165   1.166  0.0853 -0.1689  0.9159
  145MOL0     C19493   5.809   6.449   1.217 -0.0245 -0.0663 -0.9407
  145MOL0     C19494   5.922   6.366   1.219 -0.4464 -0.1146  0.7733
  145MOL0     C19495   6.317   6.172   1.116 -0.5081  0.8636 -0.3757
  145MOL0     C19496   6.443   6.215   1.163  0.7919 -0.0568 -0.3587
  145MOL0     C19497   6.556   6.142   1.143 -0.2737 -0.2620  0.1616
  145MOL0     C19498   6.542   6.016   1.085 -0.3100  0.2364  0.0758
  145MOL0     O19499   6.655   5.942   1.077  0.5591 -0.2118  0.2052
  145MOL0     C19500   6.660   5.842   0.971  1.3017 -0.6062 -0.1430
  145MOL0     C19501   6.803   5.788   0.951 -0.5309 -0.9362  0.5634
  145MOL0     C19502   6.838   5.702   1.063 -0.0695 -0.0663  1.6110
  145MOL0     C19503   6.990   5.710   1.082  0.0940 -0.0519  0.3319
  145MOL0     C19504   7.062   5.678   0.952  0.3370 -0.2962 -0.0468
  145MOL0     C19505   7.117   5.647   0.848 -0.1975 -0.1233 -0.3359
  145MOL0     C19506   6.426   5.974   1.032 -0.0040 -0.0064  0.0365
  145MOL0     C19507   6.309   6.055   1.048 -0.1117 -0.2346  0.1286
  145MOL0     H19508   5.896   6.232   0.904  0.7867  0.9897  0.0635
  145MOL0     H19509   5.697   6.361   0.913 -0.1572 -0.0329  0.2445
  145MOL0     H19510   5.408   6.538   1.088 -2.5311 -1.8981 -1.0884
  145MOL0     H19511   5.498   6.436   0.970 -0.5298 -0.1199  0.3657
  145MOL0     H19512   5.436   6.248   1.081  2.5344 -1.1691  1.1043
  145MOL0     H19513   5.526   6.297   1.213  0.7541 -0.3711 -0.0173
  145MOL0     H19514   5.299   6.231   1.270  1.6365  0.0011  0.8583
  145MOL0     H19515   5.342   6.394   1.325  3.5224  1.6481 -0.9375
  145MOL0     H19516   5.212   6.499   1.177  1.3537  0.1933 -2.7554
  145MOL0     H19517   5.187   6.379   1.054 -4.4842 -3.0571  0.3816
  145MOL0     H19518   5.048   6.245   1.250 -1.6993  0.0931  1.2856
  145MOL0     H19519   5.061   6.389   1.333 -4.1851  0.1073 -0.4048
  145MOL0     H19520   4.935   6.509   1.176  3.4028 -0.7028  0.1184
  145MOL0     H19521   4.942   6.369   1.061 -0.2229 -2.9384  0.8876
  145MOL0     H19522   4.806   6.388   1.330  0.8254 -0.8687 -0.2413
  145MOL0     H19523   4.720   6.392   1.176 -1.8891 -3.2184 -0.3493
  145MOL0     H19524   4.848   6.146   1.307  0.2291  1.6702  0.3788
  145MOL0     H19525   4.813   6.144   1.139 -4.3727 -2.5314 -1.6079
  145MOL0     H19526   4.652   6.054   1.446 -1.2591 -1.8246 -0.0379
  145MOL0     H19527   4.441   6.022   1.556  0.9263 -3.6921  0.3683
  145MOL0     H19528   4.295   6.057   1.472  0.0270  1.2121  0.8435
  145MOL0     H19529   4.355   5.809   1.551  0.3251  1.5970  1.8596
  145MOL0     H19530   4.498   5.824   1.443  0.1219  0.8177  1.2332
  145MOL0     H19531   4.316   5.688   1.351 -0.9231  0.8245  1.0970
  145MOL0     H19532   4.346   5.825   1.242  1.6715 -0.1391  0.2915
  145MOL0     H19533   4.100   5.767   1.278  0.8096 -1.2387  0.2433
  145MOL0     H19534   4.135   5.933   1.328  0.6277 -0.1685  1.0862
  145MOL0     H19535   4.025   5.724   1.726  0.0808 -2.3506 -3.7595
  145MOL0     H19536   3.903   5.840   1.939  3.7564 -0.3191 -2.9046
  145MOL0     H19537   3.725   5.836   1.915  0.5088  0.1191  2.3360
  145MOL0     H19538   3.820   5.694   1.877 -2.8015 -0.3338 -0.3726
  145MOL0     H19539   3.444   6.252   1.581  1.6145  0.5464  1.1174
  145MOL0     H19540   3.250   6.365   1.667 -2.5071 -1.3042  2.0532
  145MOL0     H19541   3.258   6.518   1.946  0.2791  0.0403 -3.7348
  145MOL0     H19542   3.156   6.533   1.811  0.4513  2.3209  0.6025
  145MOL0     H19543   3.058   6.493   2.107 -0.3479 -0.8120  0.1861
  145MOL0     H19544   3.057   6.645   2.019 -0.3421  0.6324 -2.1508
  145MOL0     H19545   2.897   6.399   1.929  0.9764  0.3097 -1.8794
  145MOL0     H19546   2.891   6.557   1.861  1.5703 -0.2087 -0.7234
  145MOL0     H19547   2.795   6.469   2.143  0.2830 -1.0779 -0.4309
  145MOL0     H19548   2.825   6.635   2.105  1.9775  1.0835 -2.3631
  145MOL0     H19549   2.649   6.448   1.931  0.1514  0.4884 -1.7172
  145MOL0     H19550   2.640   6.615   1.939 -1.4134 -1.3128 -1.0802
  145MOL0     H19551   2.593   6.445   2.183  4.3445 -0.1335 -2.7977
  145MOL0     H19552   2.544   6.622   2.164 -2.0604  0.7510 -0.9204
  145MOL0     H19553   2.418   6.404   1.993 -0.0422  0.2040 -0.5082
  145MOL0     H19554   2.382   6.579   1.987 -0.0462  2.5588  2.5823
  145MOL0     H19555   2.249   6.576   2.177  0.8578  0.1100  0.9388
  145MOL0     H19556   2.341   6.455   2.254 -0.0891 -1.3821 -0.2193
  145MOL0     H19557   3.281   6.120   2.026  1.6971  0.7983  1.2926
  145MOL0     H19558   3.438   6.006   1.942 -2.2924 -1.9765 -1.3831
  145MOL0     H19559   3.751   6.070   1.510  0.7430  1.0828  2.7504
  145MOL0     H19560   3.931   5.941   1.371 -1.5315 -2.4553  0.3956
  145MOL0     H19561   5.763   6.494   1.304  0.5320 -1.2426 -0.0082
  145MOL0     H19562   5.978   6.373   1.312 -1.7678 -0.4598  1.6214
  145MOL0     H19563   6.447   6.311   1.215  1.3931 -0.0111 -0.4744
  145MOL0     H19564   6.653   6.177   1.177  0.3213 -1.7772  0.0746
  145MOL0     H19565   6.591   5.760   0.994  1.0860 -0.8413 -1.5742
  145MOL0     H19566   6.640   5.881   0.871 -1.1840 -0.4302  0.3443
  145MOL0     H19567   6.865   5.878   0.945  0.9116 -1.9645 -1.0920
  145MOL0     H19568   6.806   5.735   0.855 -3.5918 -1.4238  0.6307
  145MOL0     H19569   6.809   5.603   1.026 -2.1177  0.9574  0.2370
  145MOL0     H19570   6.777   5.725   1.150 -3.3727 -0.8647 -0.3126
  145MOL0     H19571   7.007   5.634   1.159  0.7987  1.8290  2.1251
  145MOL0     H19572   7.023   5.803   1.130  0.2778  0.3147 -0.4841
  145MOL0     H19573   7.167   5.615   0.759 -0.8103 -2.4104  0.0654
  145MOL0     H19574   6.393   5.885   0.979 -0.4457  1.0322 -1.5040
  145MOL0     H19575   6.210   6.024   1.017 -1.2819  1.0549  2.3320
  146MOL0     O19576   3.812   4.839   0.148  0.2960 -0.1880  0.1758
  146MOL0     C19577   3.918   4.782   0.141 -1.0254  0.6272  0.1644
  146MOL0     O19578   3.925   4.650   0.115  0.1967 -0.4687  0.3462
  146MOL0     C19579   3.816   4.590   0.063 -0.2729  0.7938 -0.3618
  146MOL0     C19580   3.751   4.486   0.124 -0.4945 -0.4728 -0.1301
  146MOL0     C19581   3.644   4.417   0.067  0.8461 -0.0589 -0.2156
  146MOL0     C19582   3.600   4.452  -0.061 -0.0175 -0.5344  1.1471
  146MOL0     O19583   3.502   4.382  -0.124  0.0550 -0.4167 -0.2370
  146MOL0     C19584   3.375   4.400  -0.052  0.7823  0.3455  0.7764
  146MOL0     C19585   3.267   4.304  -0.087  0.1048 -0.1318 -0.1912
  146MOL0     C19586   3.193   4.358  -0.211 -0.4235 -0.0176 -0.2025
  146MOL0     C19587   3.072   4.261  -0.231 -0.4959 -0.2447 -0.6278
  146MOL0     C19588   2.974   4.307  -0.338 -0.0423 -0.4564  0.1348
  146MOL0     C19589   2.856   4.205  -0.358  0.5303 -0.5190 -0.1411
  146MOL0     C19590   2.754   4.187  -0.239 -0.1524  1.2115 -0.1364
  146MOL0     C19591   2.679   4.313  -0.202 -0.9439 -0.0217 -0.4013
  146MOL0     N19592   2.587   4.372  -0.302  0.2735 -0.2776 -0.4370
  146MOL0     C19593   2.546   4.502  -0.297  0.2017 -0.4611  0.9965
  146MOL0     C19594   2.448   4.504  -0.392 -0.2168 -0.3160 -0.1757
  146MOL0     C19595   2.379   4.624  -0.435  1.2005 -0.0795  0.1499
  146MOL0     C19596   2.229   4.612  -0.400 -0.5204  0.0225 -0.0070
  146MOL0     C19597   2.204   4.579  -0.250  0.1098 -0.3459  0.4485
  146MOL0     C19598   2.071   4.637  -0.208 -0.1136  0.6622  0.4521
  146MOL0     O19599   2.086   4.773  -0.179 -0.2909  0.9822 -0.7546
  146MOL0     C19600   1.994   4.857  -0.242  0.0958  0.2250 -0.4673
  146MOL0     C19601   1.858   4.840  -0.226  1.0744 -0.0361  0.1044
  146MOL0     C19602   1.765   4.922  -0.288  0.2826 -0.0021  0.2421
  146MOL0     C19603   1.614   4.903  -0.279 -0.1842  0.3241  0.6549
  146MOL0     C19604   1.803   5.044  -0.350 -0.3538 -0.1011  0.2565
  146MOL0     C19605   1.713   5.151  -0.417 -0.2682  0.6802  0.4107
  146MOL0     O19606   1.785   5.260  -0.461  0.4091  0.3533 -0.1564
  146MOL0     C19607   1.746   5.370  -0.526  0.8590  0.1219  0.1391
  146MOL0     C19608   1.633   5.381  -0.614 -0.4326 -0.4165 -0.0778
  146MOL0     C19609   1.604   5.504  -0.670 -0.3542 -0.8012 -0.2686
  146MOL0     C19610   1.692   5.613  -0.666  0.6119  0.1066  0.2947
  146MOL0     O19611   1.664   5.725  -0.744  0.2940  0.3880  0.1760
  146MOL0     C19612   1.541   5.792  -0.707 -0.4316  0.7315  0.0491
  146MOL0     C19613   1.445   5.815  -0.826 -0.0111  0.5431  1.1519
  146MOL0     C19614   1.310   5.878  -0.789 -0.1404  0.2312  0.0052
  146MOL0     C19615   1.226   5.875  -0.914  0.2477 -0.4680 -1.6278
  146MOL0     C19616   1.129   5.989  -0.925 -0.4536 -0.0378  0.1408
  146MOL0     C19617   1.045   5.965  -1.049  0.7767  0.2134 -0.4366
  146MOL0     C19618   0.942   6.072  -1.068  0.0831 -0.4229  0.0857
  146MOL0     C19619   0.844   6.070  -1.191 -0.8905  0.0740 -0.0495
  146MOL0    Cl19620   0.756   5.917  -1.191 -0.1996 -0.2617  0.0743
  146MOL0     C19621   1.809   5.600  -0.591  0.6701 -0.6272 -0.4508
  146MOL0     C19622   1.830   5.483  -0.515  0.1297  0.1623 -0.2414
  146MOL0     O19623   1.589   5.145  -0.420 -0.3105 -0.5299 -0.1136
  146MOL0     C19624   1.946   5.055  -0.357 -0.4397 -0.7807 -0.3549
  146MOL0     C19625   2.041   4.964  -0.312  0.7807  0.4100  0.8775
  146MOL0     N19626   2.415   4.380  -0.436 -0.0028 -0.3633  0.4172
  146MOL0     N19627   2.494   4.298  -0.374  0.7663 -0.1049 -0.5053
  146MOL0     C19628   3.679   4.544  -0.138  0.1511 -0.0573 -0.6768
  146MOL0     C19629   3.790   4.611  -0.074 -0.0293 -0.0787 -0.6744
  146MOL0     C19630   4.038   4.858   0.181 -1.3343 -1.2839 -0.0782
  146MOL0     C19631   4.032   4.998   0.203 -0.6348 -0.4466 -0.2172
  146MOL0     C19632   4.145   5.075   0.248 -0.3583 -0.4268 -0.2199
  146MOL0     C19633   4.267   5.008   0.282  0.2107 -0.0815 -0.4127
  146MOL0     O19634   4.381   5.062   0.330  0.1732  0.0281  0.2035
  146MOL0     C19635   4.382   5.207   0.339 -1.2286  0.3747 -0.1750
  146MOL0     C19636   4.523   5.255   0.357  0.1510 -0.3088  0.4112
  146MOL0     C19637   4.597   5.230   0.234 -0.7592  0.1895 -0.5350
  146MOL0     C19638   4.741   5.277   0.231 -0.2718  0.0615 -1.1868
  146MOL0     C19639   4.748   5.420   0.255  0.3362  0.3780  0.3031
  146MOL0     C19640   4.755   5.543   0.266  0.4379  0.4353  0.0023
  146MOL0     C19641   4.275   4.875   0.250 -1.2008 -0.0411  1.1402
  146MOL0     C19642   4.162   4.799   0.210  0.7898 -0.5451  0.2773
  146MOL0     H19643   3.792   4.458   0.220  1.8098  1.4414 -0.4555
  146MOL0     H19644   3.582   4.337   0.107 -1.3241  2.6150  2.2708
  146MOL0     H19645   3.392   4.387   0.055 -0.6130  1.6194  1.1872
  146MOL0     H19646   3.336   4.501  -0.068  1.6648  1.2070  3.5049
  146MOL0     H19647   3.315   4.207  -0.101 -0.7372 -0.4461 -0.9742
  146MOL0     H19648   3.196   4.288  -0.005  0.1433  2.3014  0.3993
  146MOL0     H19649   3.157   4.461  -0.203  0.1582  0.1249  0.7786
  146MOL0     H19650   3.262   4.348  -0.295  2.2487 -2.4189  2.0847
  146MOL0     H19651   3.127   4.169  -0.255  0.2993 -0.9002  3.0219
  146MOL0     H19652   3.018   4.243  -0.138  2.2322 -3.2439  0.6088
  146MOL0     H19653   2.943   4.410  -0.319  0.3356 -0.0769 -1.1752
  146MOL0     H19654   3.026   4.316  -0.434  1.6385  1.5823  1.1556
  146MOL0     H19655   2.794   4.225  -0.446  0.9329 -0.6254 -0.4518
  146MOL0     H19656   2.909   4.112  -0.380  2.8272  0.5598  0.5668
  146MOL0     H19657   2.685   4.109  -0.272  1.4109 -0.0797 -0.4799
  146MOL0     H19658   2.801   4.139  -0.152 -0.6735 -1.9415 -1.4566
  146MOL0     H19659   2.752   4.391  -0.176  0.0526 -0.2380 -2.4073
  146MOL0     H19660   2.624   4.287  -0.111  1.4856 -1.3518  0.8001
  146MOL0     H19661   2.593   4.583  -0.242  3.1995 -0.3678 -1.4685
  146MOL0     H19662   2.428   4.717  -0.405  1.0239  0.2044 -0.4159
  146MOL0     H19663   2.384   4.631  -0.544  2.5004  0.2626  0.2167
  146MOL0     H19664   2.182   4.552  -0.479 -1.0292  0.1004  0.2334
  146MOL0     H19665   2.185   4.710  -0.419 -3.7282 -1.4474 -0.9249
  146MOL0     H19666   2.283   4.599  -0.178 -0.3776 -0.9106  1.1532
  146MOL0     H19667   2.192   4.470  -0.243 -0.1095 -0.4552 -1.2361
  146MOL0     H19668   2.036   4.580  -0.122  0.7552  0.6465  0.8036
  146MOL0     H19669   2.001   4.627  -0.292  1.5820  0.1013 -0.9717
  146MOL0     H19670   1.815   4.758  -0.169  0.5242  0.9844  1.1888
  146MOL0     H19671   1.570   4.906  -0.379  0.4719  1.5593  0.3876
  146MOL0     H19672   1.586   4.807  -0.233  0.9313 -0.4465 -0.2092
  146MOL0     H19673   1.574   4.984  -0.218 -2.1044  3.1331 -3.8544
  146MOL0     H19674   1.576   5.290  -0.630 -1.1357  0.0874 -0.4983
  146MOL0     H19675   1.522   5.515  -0.741 -1.5954 -0.9222  1.0999
  146MOL0     H19676   1.485   5.744  -0.627  1.1708 -0.7269  0.3457
  146MOL0     H19677   1.563   5.894  -0.674 -0.5994  1.2547 -1.3664
  146MOL0     H19678   1.496   5.865  -0.909  1.2080 -3.4424 -0.7394
  146MOL0     H19679   1.430   5.719  -0.877  0.1648  3.2270 -4.6884
  146MOL0     H19680   1.322   5.982  -0.760  3.4773  0.6864 -2.4279
  146MOL0     H19681   1.249   5.821  -0.718  0.3649 -0.6688 -0.2590
  146MOL0     H19682   1.284   5.860  -1.006  2.7953 -2.2294  0.1246
  146MOL0     H19683   1.160   5.787  -0.916 -1.0335  0.4080 -0.0005
  146MOL0     H19684   1.179   6.083  -0.949 -1.5112  0.2520 -1.0160
  146MOL0     H19685   1.077   6.005  -0.830  0.5255  3.0178  0.2739
  146MOL0     H19686   1.109   5.978  -1.138 -0.9761  1.3422 -1.5903
  146MOL0     H19687   0.998   5.867  -1.038 -0.6703  1.0546  1.2489
  146MOL0     H19688   0.995   6.168  -1.063 -0.1234 -0.3582  1.9894
  146MOL0     H19689   0.881   6.075  -0.977 -2.4639  0.8969 -1.5647
  146MOL0     H19690   0.908   6.084  -1.278 -1.2020  1.4130 -0.0898
  146MOL0     H19691   0.782   6.159  -1.178 -3.6317 -1.5021 -1.3142
  146MOL0     H19692   1.872   5.688  -0.587 -0.2319 -0.0144  1.3005
  146MOL0     H19693   1.914   5.473  -0.446 -0.4813 -2.3361  0.2385
  146MOL0     H19694   1.990   5.138  -0.412  0.1877 -1.2459 -0.5656
  146MOL0     H19695   2.147   4.987  -0.315  1.5588 -2.4725  2.3635
  146MOL0     H19696   3.644   4.557  -0.239 -0.5599  2.0599 -0.2104
  146MOL0     H19697   3.845   4.694  -0.117 -1.1490  1.5751  0.9765
  146MOL0     H19698   3.934   5.046   0.210  0.2560  1.3205  0.8482
  146MOL0     H19699   4.128   5.180   0.271 -0.1873 -0.3759 -0.3266
  146MOL0     H19700   4.347   5.252   0.245  2.8138  1.2031 -1.4683
  146MOL0     H19701   4.323   5.230   0.428  1.7469 -2.5454  2.8598
  146MOL0     H19702   4.576   5.202   0.437 -1.2541 -1.0152  0.9190
  146MOL0     H19703   4.510   5.361   0.380 -0.7841 -0.2123 -0.4855
  146MOL0     H19704   4.551   5.274   0.146  0.8214  2.3234 -0.3934
  146MOL0     H19705   4.592   5.122   0.223  3.4435 -0.0916 -1.5563
  146MOL0     H19706   4.783   5.245   0.135  0.2789 -0.1436 -0.8831
  146MOL0     H19707   4.781   5.221   0.317  0.3354  1.5602 -0.4611
  146MOL0     H19708   4.753   5.649   0.277 -0.7930  0.2338  2.4303
  146MOL0     H19709   4.377   4.836   0.251 -1.0262  0.3383 -0.0696
  146MOL0     H19710   4.172   4.695   0.182 -2.1145 -0.8124 -0.0800
  147MOL0     O19711   5.161   9.153   0.891  0.0198  0.1585  0.5134
  147MOL0     C19712   5.160   9.049   0.821  0.4749  0.3398 -0.8719
  147MOL0     O19713   5.083   9.031   0.709 -0.1452  0.3038 -0.4342
  147MOL0     C19714   5.004   9.135   0.676  0.5879 -0.4930  0.2499
  147MOL0     C19715   4.873   9.155   0.731 -0.2118 -0.4815  0.7794
  147MOL0     C19716   4.799   9.270   0.693 -0.0670  0.3774 -0.5446
  147MOL0     C19717   4.847   9.357   0.603 -0.2045  0.0296 -0.6889
  147MOL0     O19718   4.768   9.456   0.554 -0.1337  0.0742  0.1876
  147MOL0     C19719   4.727   9.447   0.416 -0.7575 -0.0546 -0.1216
  147MOL0     C19720   4.617   9.548   0.380 -0.6416  0.0235  0.0144
  147MOL0     C19721   4.502   9.535   0.473 -0.1371  0.2885 -0.4681
  147MOL0     C19722   4.405   9.658   0.465  0.2997 -0.2426 -0.6578
  147MOL0     C19723   4.345   9.701   0.607 -0.3508  0.6227 -0.5053
  147MOL0     C19724   4.261   9.827   0.602  0.3584  0.9987  0.4258
  147MOL0     C19725   4.139   9.814   0.508 -0.6224  0.2956 -0.0945
  147MOL0     C19726   4.018   9.878   0.575  0.1154 -0.1814 -0.1382
  147MOL0     N19727   3.907   9.880   0.478 -0.0849  0.2790 -1.1705
  147MOL0     C19728   3.818   9.982   0.464  0.1955  0.2997  0.7228
  147MOL0     C19729   3.720   9.932   0.386  0.0137 -0.1191  1.0149
  147MOL0     C19730   3.601   9.999   0.326 -0.1495 -0.3793  0.4316
  147MOL0     C19731   3.478   9.910   0.314  0.7504  1.0218  0.1399
  147MOL0     C19732   3.349   9.987   0.278 -0.7130 -0.6661 -0.6681
  147MOL0     C19733   3.234   9.902   0.237 -1.4422  0.1020  0.0123
  147MOL0     O19734   3.153   9.850   0.344 -0.1363  0.7430 -0.3837
  147MOL0     C19735   3.052   9.764   0.318 -0.7333 -0.6747 -0.1939
  147MOL0     C19736   2.955   9.764   0.416 -0.4349  0.5172 -0.0847
  147MOL0     C19737   2.830   9.701   0.395  0.4092  0.3384 -0.4783
  147MOL0     C19738   2.728   9.701   0.505 -0.0620  0.0078  0.4539
  147MOL0     C19739   2.813   9.623   0.273 -0.2877 -0.4123 -0.9968
  147MOL0     C19740   2.693   9.546   0.231 -0.4750 -0.0959 -0.1252
  147MOL0     O19741   2.577   9.568   0.296  0.1704 -0.7164 -0.5174
  147MOL0     C19742   2.469   9.492   0.258  0.3412 -0.1776  0.4009
  147MOL0     C19743   2.385   9.544   0.156 -0.2318  0.1579  0.2837
  147MOL0     C19744   2.260   9.479   0.125 -0.6702  0.0605 -0.0283
  147MOL0     C19745   2.232   9.362   0.195 -0.2124 -0.8649  0.1607
  147MOL0     O19746   2.119   9.285   0.178  0.2982 -0.3627  0.1725
  147MOL0     C19747   2.012   9.348   0.104 -0.1822 -1.0229 -1.2612
  147MOL0     C19748   1.892   9.250   0.093  0.6260 -0.2249  0.1061
  147MOL0     C19749   1.804   9.267   0.215  0.4269  0.1202 -0.3735
  147MOL0     C19750   1.689   9.157   0.213  0.3589  0.2675 -0.5710
  147MOL0     C19751   1.605   9.136   0.345  0.8619  0.1791  0.1559
  147MOL0     C19752   1.531   9.259   0.393 -0.2421 -0.7762 -0.1313
  147MOL0     C19753   1.431   9.220   0.506  0.5166 -0.1593 -0.3324
  147MOL0     C19754   1.348   9.340   0.540  0.0901 -0.6885  0.2190
  147MOL0    Cl19755   1.429   9.458   0.651  0.0945  0.0368 -0.1562
  147MOL0     C19756   2.315   9.305   0.288 -0.4979  0.6003 -0.4289
  147MOL0     C19757   2.432   9.371   0.326  0.3907  0.2513 -0.7674
  147MOL0     O19758   2.710   9.468   0.142  0.0668 -1.2460  0.6168
  147MOL0     C19759   2.923   9.624   0.185  0.0253  0.2351  0.0016
  147MOL0     C19760   3.037   9.691   0.207 -0.1530 -0.2712 -0.1305
  147MOL0     N19761   3.761   9.803   0.352  0.1866  0.4014 -0.6068
  147MOL0     N19762   3.866   9.767   0.410  0.2388  0.0431  0.6601
  147MOL0     C19763   4.977   9.348   0.554 -0.3913  0.5469 -0.6604
  147MOL0     C19764   5.051   9.234   0.588 -0.1844 -0.5994 -0.0155
  147MOL0     C19765   5.256   8.935   0.850 -0.0295  0.9110 -0.0532
  147MOL0     C19766   5.381   8.957   0.905  0.0849 -0.4713  0.9488
  147MOL0     C19767   5.471   8.858   0.934  0.7176  0.6803 -0.0587
  147MOL0     C19768   5.431   8.722   0.905  0.8405 -0.0655  0.1514
  147MOL0     O19769   5.525   8.631   0.937  0.1725  0.2453  0.2422
  147MOL0     C19770   5.489   8.489   0.963  0.0644  0.5630 -0.5974
  147MOL0     C19771   5.627   8.416   0.974  0.3573  0.2308  0.4495
  147MOL0     C19772   5.693   8.435   1.113  0.8068 -0.4899 -0.5800
  147MOL0     C19773   5.617   8.351   1.219  0.5548  0.1158 -0.0183
  147MOL0     C19774   5.690   8.386   1.339 -0.1797 -0.3070 -0.2805
  147MOL0     C19775   5.746   8.415   1.443  0.7830  0.0853 -0.1637
  147MOL0     C19776   5.298   8.695   0.848 -0.6809  0.0359 -0.1815
  147MOL0     C19777   5.219   8.806   0.810  0.2070 -0.5756 -1.0200
  147MOL0     H19778   4.827   9.090   0.804 -1.2319  0.7589  1.2841
  147MOL0     H19779   4.707   9.283   0.750 -0.2938 -0.6508 -0.6503
  147MOL0     H19780   4.813   9.459   0.350 -1.1990  1.3990 -0.4651
  147MOL0     H19781   4.685   9.348   0.396  0.7356 -0.5094 -1.1985
  147MOL0     H19782   4.662   9.647   0.367  1.2228 -0.6935  0.6243
  147MOL0     H19783   4.575   9.527   0.281 -1.0456 -0.0739  0.2078
  147MOL0     H19784   4.443   9.446   0.451  0.2693 -0.1885  0.3561
  147MOL0     H19785   4.543   9.528   0.574 -2.1410 -0.5362  0.3461
  147MOL0     H19786   4.457   9.745   0.424 -1.0586  0.7163 -0.4447
  147MOL0     H19787   4.319   9.643   0.398  0.8531 -0.9794 -1.2194
  147MOL0     H19788   4.284   9.616   0.640  0.4577 -0.6003 -2.0117
  147MOL0     H19789   4.430   9.714   0.674  0.2481  0.9418 -1.3182
  147MOL0     H19790   4.233   9.850   0.705  0.5653  0.9865  0.4866
  147MOL0     H19791   4.322   9.915   0.577  2.3262 -0.1599  0.9395
  147MOL0     H19792   4.156   9.857   0.409  2.6569 -0.4317  0.0225
  147MOL0     H19793   4.113   9.708   0.499  2.1999 -0.4528 -0.4067
  147MOL0     H19794   4.039   9.982   0.603 -1.0270 -0.5027  2.1634
  147MOL0     H19795   3.992   9.817   0.661  0.2985 -3.2826 -2.1237
  147MOL0     H19796   3.823  10.088   0.491 -3.5804  0.7205  0.2104
  147MOL0     H19797   3.584  10.086   0.390  0.3945 -0.7981  1.1758
  147MOL0     H19798   3.631  10.036   0.228 -1.2850 -0.4374  0.0546
  147MOL0     H19799   3.456   9.857   0.407  0.2104 -0.2281 -0.6749
  147MOL0     H19800   3.496   9.833   0.239  0.2950  2.3431 -1.3762
  147MOL0     H19801   3.378  10.056   0.199 -1.3657 -0.1024 -0.4265
  147MOL0     H19802   3.324  10.052   0.363  3.7481 -0.9894  1.1347
  147MOL0     H19803   3.272   9.823   0.172 -2.8271 -2.4125  2.0459
  147MOL0     H19804   3.175   9.965   0.170 -1.2753 -0.9704 -1.1806
  147MOL0     H19805   2.971   9.814   0.511 -1.1753 -2.1923  1.5985
  147MOL0     H19806   2.710   9.604   0.551 -1.7079  0.9407  1.8920
  147MOL0     H19807   2.760   9.756   0.595  0.4348 -1.8242  1.4443
  147MOL0     H19808   2.633   9.740   0.469  0.8703  2.5249  0.5089
  147MOL0     H19809   2.414   9.631   0.097 -1.1407 -0.1836 -0.7015
  147MOL0     H19810   2.204   9.526   0.045  1.3545  0.1114 -1.4946
  147MOL0     H19811   1.987   9.447   0.143 -1.1684 -0.4532 -3.2253
  147MOL0     H19812   2.048   9.386   0.008  3.2090  3.5587  1.3863
  147MOL0     H19813   1.830   9.287   0.010  1.4150 -0.6096 -0.6650
  147MOL0     H19814   1.933   9.153   0.067 -1.2011 -1.3749  1.2375
  147MOL0     H19815   1.762   9.367   0.220  1.4809  0.5627  0.0592
  147MOL0     H19816   1.871   9.258   0.301  0.6157  3.3210 -0.0702
  147MOL0     H19817   1.627   9.168   0.124 -3.7971  0.8246  2.1324
  147MOL0     H19818   1.749   9.066   0.204  1.2838  0.8724 -0.6871
  147MOL0     H19819   1.678   9.092   0.414  1.5532 -2.1686 -1.9233
  147MOL0     H19820   1.531   9.058   0.324  0.7858  0.6679 -1.5477
  147MOL0     H19821   1.603   9.322   0.446 -0.3458 -2.6005  2.3714
  147MOL0     H19822   1.486   9.320   0.314 -2.6476  1.2299  2.5617
  147MOL0     H19823   1.475   9.168   0.592  2.8772 -3.2851 -3.1751
  147MOL0     H19824   1.361   9.149   0.462  0.7855 -0.6609  0.0385
  147MOL0     H19825   1.254   9.312   0.588  0.1241  0.4106  0.9817
  147MOL0     H19826   1.320   9.401   0.454  2.2275  3.3455  2.1121
  147MOL0     H19827   2.294   9.207   0.330 -0.5824  0.2458 -1.2658
  147MOL0     H19828   2.493   9.337   0.410  0.7170  0.9599 -0.7079
  147MOL0     H19829   2.921   9.559   0.098 -0.5634 -0.7665  0.7307
  147MOL0     H19830   3.122   9.684   0.140  0.1786 -0.6361  0.3154
  147MOL0     H19831   5.011   9.430   0.491  1.4142  1.7107  1.6732
  147MOL0     H19832   5.144   9.225   0.532 -0.0191 -0.5480  0.2477
  147MOL0     H19833   5.402   9.059   0.935 -1.6696 -0.0489  0.8045
  147MOL0     H19834   5.567   8.871   0.983  0.6576  2.0756 -0.2757
  147MOL0     H19835   5.435   8.507   1.057 -1.8075 -0.5069 -1.4083
  147MOL0     H19836   5.425   8.444   0.887 -0.7123  0.0927  0.3259
  147MOL0     H19837   5.699   8.469   0.911  2.1301 -3.3106 -0.7344
  147MOL0     H19838   5.622   8.312   0.942  0.9291  0.4936 -0.5480
  147MOL0     H19839   5.679   8.539   1.143 -1.2819  0.4330 -4.0714
  147MOL0     H19840   5.800   8.414   1.111  0.5110 -2.9882  2.2062
  147MOL0     H19841   5.609   8.246   1.189  1.0532 -0.1106  0.6131
  147MOL0     H19842   5.511   8.375   1.234  0.4218 -1.7365  2.6320
  147MOL0     H19843   5.798   8.434   1.535 -1.0964  0.9761  0.7688
  147MOL0     H19844   5.269   8.593   0.826 -1.5974  0.5212 -1.3777
  147MOL0     H19845   5.125   8.781   0.762 -1.1848 -1.3362  1.8874
  148MOL0     O19846   0.191   7.519   4.160  0.4091  0.1689 -0.7812
  148MOL0     C19847   0.294   7.512   4.223 -0.2112  0.4595 -0.2909
  148MOL0     O19848   0.324   7.420   4.317  0.0823 -0.1574 -0.4070
  148MOL0     C19849   0.231   7.346   4.385  0.4724  0.0715 -0.1766
  148MOL0     C19850   0.105   7.398   4.411  0.0252 -0.3144 -0.4111
  148MOL0     C19851   0.004   7.330   4.486  0.5765 -0.5016 -0.8367
  148MOL0     C19852   0.037   7.200   4.532  0.4322  0.2777 -0.3242
  148MOL0     O19853  -0.062   7.142   4.611 -0.0789 -0.4675  0.0552
  148MOL0     C19854  -0.020   7.038   4.698  0.1282  0.0713  1.0600
  148MOL0     C19855  -0.134   7.007   4.790 -0.2488  0.5055 -0.4023
  148MOL0     C19856  -0.269   6.957   4.732  0.3430 -0.7693 -0.1262
  148MOL0     C19857  -0.364   6.921   4.846 -0.0007  0.1108  0.6693
  148MOL0     C19858  -0.504   6.896   4.787  0.8005 -0.4763 -0.0894
  148MOL0     C19859  -0.626   6.888   4.885  1.0235  0.2987  0.2904
  148MOL0     C19860  -0.607   6.788   5.006 -0.5043  0.1889  0.3614
  148MOL0     C19861  -0.717   6.766   5.101  1.0332  0.6907 -0.3147
  148MOL0     N19862  -0.738   6.890   5.180 -0.4030  0.1373  0.8122
  148MOL0     C19863  -0.837   6.984   5.165 -0.4531  0.1408  0.3263
  148MOL0     C19864  -0.833   7.077   5.264  0.5720  0.3682  0.4433
  148MOL0     C19865  -0.940   7.179   5.283  1.0104  0.0174 -0.0821
  148MOL0     C19866  -1.088   7.131   5.287 -0.6467  0.0575 -0.3093
  148MOL0     C19867  -1.176   7.207   5.395  0.0078  0.6897 -0.4415
  148MOL0     C19868  -1.331   7.178   5.366  1.2076 -0.9140 -0.4164
  148MOL0     O19869  -1.359   7.035   5.361  0.3692 -0.0585 -0.3978
  148MOL0     C19870  -1.488   6.995   5.327  0.9113  0.0679 -0.1889
  148MOL0     C19871  -1.520   6.865   5.353 -0.6208 -0.4740 -0.0878
  148MOL0     C19872  -1.640   6.801   5.320  0.4490 -0.4683 -0.4096
  148MOL0     C19873  -1.657   6.657   5.357  0.0684 -0.1705 -0.0746
  148MOL0     C19874  -1.738   6.878   5.247 -0.2701 -0.3552 -0.0178
  148MOL0     C19875  -1.872   6.825   5.199 -0.4637 -0.0748  0.1586
  148MOL0     O19876  -1.972   6.922   5.172 -0.5763 -0.3564  0.0031
  148MOL0     C19877  -2.096   6.884   5.126  0.4349 -0.6581 -0.9341
  148MOL0     C19878  -2.144   6.783   5.037  0.1447  0.8233  0.1376
  148MOL0     C19879  -2.272   6.780   4.987  0.4237  0.8053 -0.8385
  148MOL0     C19880  -2.362   6.861   5.042 -0.4162  0.2895  0.1330
  148MOL0     O19881  -2.491   6.835   5.003  0.2098  0.6174  0.5654
  148MOL0     C19882  -2.588   6.837   5.102 -0.1496  0.0597 -0.4900
  148MOL0     C19883  -2.726   6.820   5.034 -0.8779  0.5822 -0.2285
  148MOL0     C19884  -2.847   6.834   5.123  0.5287 -0.4629  0.1103
  148MOL0     C19885  -2.979   6.781   5.049 -0.6860 -0.3147  0.5793
  148MOL0     C19886  -3.085   6.745   5.143 -0.5588  0.8144 -1.0315
  148MOL0     C19887  -3.127   6.847   5.243  0.3431  0.1157 -0.6710
  148MOL0     C19888  -3.258   6.814   5.314 -0.0530 -0.4903 -0.2941
  148MOL0     C19889  -3.224   6.721   5.429 -0.0602  0.0765  0.3801
  148MOL0    Cl19890  -3.333   6.779   5.559 -0.4010  0.2549  0.4860
  148MOL0     C19891  -2.320   6.960   5.127  0.6000 -0.6770  0.0920
  148MOL0     C19892  -2.194   6.971   5.165 -0.5674 -0.6478  0.8728
  148MOL0     O19893  -1.891   6.704   5.179 -0.1628  0.3527 -0.1748
  148MOL0     C19894  -1.708   7.010   5.216 -0.2900  0.1732  0.2338
  148MOL0     C19895  -1.585   7.070   5.253 -0.4097  1.0400 -0.5138
  148MOL0     N19896  -0.725   7.039   5.346  0.1064  0.6251 -0.1328
  148MOL0     N19897  -0.668   6.932   5.291 -0.5855  0.0501  0.8293
  148MOL0     C19898   0.160   7.143   4.497 -0.6914  0.4084 -0.1022
  148MOL0     C19899   0.260   7.220   4.434  0.6807  0.3102 -0.1709
  148MOL0     C19900   0.400   7.614   4.196  0.3842 -0.1014  0.9829
  148MOL0     C19901   0.537   7.603   4.237  0.2819  0.6570  0.1506
  148MOL0     C19902   0.635   7.699   4.211 -0.4322 -0.7841  0.1960
  148MOL0     C19903   0.589   7.823   4.155 -0.7466  0.0005 -0.4489
  148MOL0     O19904   0.692   7.914   4.140  0.6976  0.2211 -0.6500
  148MOL0     C19905   0.671   8.023   4.053 -0.1819  0.2084 -0.0717
  148MOL0     C19906   0.792   8.109   4.015 -0.2672  0.0718  0.1919
  148MOL0     C19907   0.894   8.025   3.938 -0.4808  0.3869  0.1063
  148MOL0     C19908   1.037   8.089   3.940  0.1232  0.9342  0.3938
  148MOL0     C19909   1.124   7.976   3.911  0.2687  0.5949 -0.9243
  148MOL0     C19910   1.202   7.890   3.894 -0.4058  0.6850 -0.3057
  148MOL0     C19911   0.456   7.846   4.132  0.2421  0.6605  0.9070
  148MOL0     C19912   0.363   7.739   4.139 -0.2894  0.3062  0.2664
  148MOL0     H19913   0.087   7.495   4.367  1.5528  0.9835  1.6222
  148MOL0     H19914  -0.097   7.368   4.500  0.9200  0.7118 -1.5283
  148MOL0     H19915   0.001   6.949   4.637 -3.9467 -0.5164  0.2454
  148MOL0     H19916   0.069   7.061   4.758 -1.0896  2.5542  2.0561
  148MOL0     H19917  -0.099   6.940   4.868 -0.5278 -1.3908 -1.8462
  148MOL0     H19918  -0.179   7.097   4.834 -0.9831  0.3464 -0.8129
  148MOL0     H19919  -0.318   7.030   4.667 -1.4532 -1.5824  0.2446
  148MOL0     H19920  -0.245   6.868   4.673 -2.5510 -0.2792 -2.2684
  148MOL0     H19921  -0.340   6.826   4.896 -0.8147  0.6465  2.1253
  148MOL0     H19922  -0.366   6.998   4.923  0.7822  1.3779 -0.5225
  148MOL0     H19923  -0.523   6.983   4.724  1.1651 -0.5482 -0.3008
  148MOL0     H19924  -0.500   6.812   4.716  0.1455 -0.5039 -0.1033
  148MOL0     H19925  -0.643   6.989   4.922 -0.0239 -0.1239  1.0004
  148MOL0     H19926  -0.717   6.861   4.829 -0.0294 -1.8814  2.8304
  148MOL0     H19927  -0.598   6.696   4.948 -2.7634  1.0234 -1.4712
  148MOL0     H19928  -0.514   6.802   5.062 -0.2647  3.5575 -0.6672
  148MOL0     H19929  -0.682   6.692   5.174 -4.6665 -2.5676 -0.2936
  148MOL0     H19930  -0.811   6.733   5.055 -1.0250  1.1387  3.1795
  148MOL0     H19931  -0.909   6.969   5.085  1.3122  2.2521 -1.8053
  148MOL0     H19932  -0.928   7.235   5.376 -2.5253 -0.4249  0.7791
  148MOL0     H19933  -0.934   7.256   5.205 -1.3980 -0.4822 -0.8390
  148MOL0     H19934  -1.093   7.024   5.308  3.2779 -0.0943  0.6663
  148MOL0     H19935  -1.133   7.138   5.188 -2.1155  0.9412  0.3928
  148MOL0     H19936  -1.149   7.313   5.395  0.4344  0.5820 -0.3731
  148MOL0     H19937  -1.155   7.152   5.487 -0.5481 -2.7401 -2.1726
  148MOL0     H19938  -1.343   7.223   5.267  1.0529 -1.2615 -0.5563
  148MOL0     H19939  -1.393   7.222   5.444  0.8924 -3.6098  0.9641
  148MOL0     H19940  -1.438   6.808   5.395  2.3056  1.5449 -2.6295
  148MOL0     H19941  -1.655   6.592   5.268 -1.8723  1.2372 -1.2339
  148MOL0     H19942  -1.567   6.620   5.406  0.9640  0.0980 -1.4442
  148MOL0     H19943  -1.749   6.636   5.411 -1.8419 -0.2617 -3.1073
  148MOL0     H19944  -2.073   6.709   5.001 -1.6605 -0.0151 -1.9601
  148MOL0     H19945  -2.295   6.700   4.917 -1.1165  1.4977 -1.1749
  148MOL0     H19946  -2.561   6.750   5.162 -1.0295  0.3944  0.4208
  148MOL0     H19947  -2.591   6.915   5.178 -3.7173 -0.9361  0.6030
  148MOL0     H19948  -2.725   6.900   4.960 -0.2061  1.0212  0.2539
  148MOL0     H19949  -2.724   6.723   4.984 -1.6579 -0.4435  1.6027
  148MOL0     H19950  -2.864   6.940   5.140  1.6611  0.1053 -1.8392
  148MOL0     H19951  -2.830   6.781   5.217  1.5810  0.2022  0.3156
  148MOL0     H19952  -3.013   6.860   4.981  0.1788 -1.1888 -0.9286
  148MOL0     H19953  -2.955   6.696   4.985 -1.3961 -0.7755  0.9127
  148MOL0     H19954  -3.042   6.655   5.189 -0.6931  0.6876 -1.1541
  148MOL0     H19955  -3.170   6.697   5.094 -0.1895 -1.7703  0.6686
  148MOL0     H19956  -3.048   6.870   5.315 -0.0200  1.7954 -0.7737
  148MOL0     H19957  -3.143   6.936   5.183  0.4766  1.3667  1.0831
  148MOL0     H19958  -3.329   6.771   5.244  0.1648 -0.9329 -0.2514
  148MOL0     H19959  -3.301   6.906   5.354 -0.1166 -0.8814  0.5829
  148MOL0     H19960  -3.121   6.738   5.462  0.1841  2.3323 -1.2706
  148MOL0     H19961  -3.231   6.616   5.400 -1.1722  0.3844 -0.5375
  148MOL0     H19962  -2.401   7.024   5.160  1.4755 -0.0145  1.0234
  148MOL0     H19963  -2.170   7.047   5.239 -1.2374  1.8050 -1.2472
  148MOL0     H19964  -1.786   7.070   5.171 -1.3686  0.0117  1.7985
  148MOL0     H19965  -1.564   7.170   5.217 -0.1894  0.2154 -2.8454
  148MOL0     H19966   0.190   7.044   4.528 -4.1193 -1.6816 -2.7833
  148MOL0     H19967   0.349   7.166   4.404 -1.0537 -1.6797 -2.0529
  148MOL0     H19968   0.570   7.515   4.292 -1.7545  0.2173  0.7578
  148MOL0     H19969   0.740   7.687   4.235  0.1295  1.0859 -1.0919
  148MOL0     H19970   0.621   7.984   3.963 -1.6091  2.1910 -0.2044
  148MOL0     H19971   0.603   8.092   4.104 -1.0635 -0.7373  0.0564
  148MOL0     H19972   0.831   8.157   4.105  1.5106 -1.9050  0.5509
  148MOL0     H19973   0.751   8.183   3.945  0.4968 -0.6338 -1.0362
  148MOL0     H19974   0.859   8.011   3.835 -0.1532  3.0881 -0.4474
  148MOL0     H19975   0.903   7.928   3.988  0.3127  0.7433  0.6704
  148MOL0     H19976   1.066   8.122   4.040  2.5782 -1.0572  0.4410
  148MOL0     H19977   1.054   8.170   3.868  0.8983  0.8308  0.4549
  148MOL0     H19978   1.250   7.798   3.872  0.2917  0.8318  0.5234
  148MOL0     H19979   0.417   7.933   4.080 -2.8899 -1.5470 -0.6861
  148MOL0     H19980   0.264   7.743   4.095 -0.1885 -3.2415 -0.6125
  149MOL0     O19981   5.754   1.407  10.395  0.3663  0.2567  0.2167
  149MOL0     C19982   5.807   1.357  10.297  0.2110  0.2143 -0.4333
  149MOL0     O19983   5.741   1.290  10.191  0.8414 -0.4052  0.3928
  149MOL0     C19984   5.614   1.247  10.215 -0.5574  0.6566  0.0690
  149MOL0     C19985   5.585   1.138  10.299 -0.6849 -0.6123  0.4645
  149MOL0     C19986   5.458   1.087  10.307  0.4188  0.3256 -0.6660
  149MOL0     C19987   5.350   1.140  10.230  0.7687  0.3670 -0.8703
  149MOL0     O19988   5.231   1.081  10.255  0.1380 -0.7002 -0.2983
  149MOL0     C19989   5.122   1.115  10.168  0.0085  0.6277  0.8718
  149MOL0     C19990   5.010   1.024  10.208  0.4827 -0.0945  0.3502
  149MOL0     C19991   4.882   1.059  10.133  0.2783 -0.2779 -0.2774
  149MOL0     C19992   4.835   1.205  10.171 -0.1641  0.8414  0.4764
  149MOL0     C19993   4.696   1.246  10.128  0.7187 -0.3359  0.3658
  149MOL0     C19994   4.584   1.172  10.201  0.3426  0.0471 -0.0625
  149MOL0     C19995   4.446   1.224  10.137 -0.5619  0.6473 -1.3182
  149MOL0     C19996   4.343   1.135  10.187 -0.2491 -0.1981 -0.8619
  149MOL0     N19997   4.222   1.182  10.130 -0.5962  0.0383  0.1753
  149MOL0     C19998   4.163   1.301  10.112 -0.2319  0.1833  0.4326
  149MOL0     C19999   4.046   1.285  10.058 -0.0936  0.1765  0.1088
  149MOL0     C20000   3.938   1.379  10.019 -0.1157 -0.9575 -0.1481
  149MOL0     C20001   3.924   1.495  10.116  0.7209  0.6984 -0.8298
  149MOL0     C20002   4.012   1.618  10.085 -0.0182 -0.2114 -0.8808
  149MOL0     C20003   4.003   1.732  10.191  0.3250 -0.4898  0.5266
  149MOL0     O20004   3.862   1.759  10.200  0.3706 -0.2573 -0.4058
  149MOL0     C20005   3.813   1.834  10.307 -0.0344 -0.0929  0.9427
  149MOL0     C20006   3.678   1.868  10.294 -0.2276 -0.3147 -0.1359
  149MOL0     C20007   3.618   1.942  10.391 -0.2467  0.0285 -0.1275
  149MOL0     C20008   3.470   1.986  10.367  0.4049  0.3124  0.2212
  149MOL0     C20009   3.693   1.990  10.504 -0.7956 -0.0047  0.4894
  149MOL0     C20010   3.640   2.072  10.615  0.2634  0.4987  1.1900
  149MOL0     O20011   3.722   2.125  10.706  0.0400 -0.9913  0.1503
  149MOL0     C20012   3.681   2.208  10.804  0.4325 -0.8843  0.3017
  149MOL0     C20013   3.750   2.197  10.920 -0.1565 -0.4464 -1.0735
  149MOL0     C20014   3.719   2.266  11.037  0.2425 -0.0434 -0.4321
  149MOL0     C20015   3.615   2.352  11.035  0.6651  0.7421  0.9928
  149MOL0     O20016   3.560   2.413  11.145 -0.6019  0.0582  0.5094
  149MOL0     C20017   3.622   2.389  11.273 -0.1921  0.5546  1.1060
  149MOL0     C20018   3.537   2.464  11.386  0.5796 -0.9570  0.4587
  149MOL0     C20019   3.413   2.386  11.435  0.6671  0.0458 -0.5702
  149MOL0     C20020   3.358   2.446  11.567  0.3505  0.0424 -0.0270
  149MOL0     C20021   3.240   2.361  11.612  0.1667 -0.1150  0.1081
  149MOL0     C20022   3.113   2.347  11.521  0.6360 -0.5876 -0.3040
  149MOL0     C20023   3.048   2.475  11.456  0.7187  0.4857 -0.2524
  149MOL0     C20024   2.932   2.438  11.355 -0.6109 -1.0665 -0.0258
  149MOL0    Cl20025   2.798   2.363  11.428  0.4430 -0.0588  0.0111
  149MOL0     C20026   3.546   2.376  10.917  0.2980  1.0412  0.1223
  149MOL0     C20027   3.583   2.312  10.803  0.3872 -0.7732  0.0603
  149MOL0     O20028   3.519   2.080  10.625  0.1296  0.3404  0.4700
  149MOL0     C20029   3.835   1.958  10.509 -0.6892  0.0231 -0.3464
  149MOL0     C20030   3.891   1.886  10.409  0.2730  1.0657  0.4739
  149MOL0     N20031   4.039   1.149  10.023 -0.2021 -0.9083  0.2580
  149MOL0     N20032   4.142   1.098  10.067  1.2611  0.1259  0.6186
  149MOL0     C20033   5.374   1.245  10.147 -0.2051  0.1152 -0.0267
  149MOL0     C20034   5.513   1.291  10.133  0.8693  0.4459 -0.6770
  149MOL0     C20035   5.953   1.374  10.288 -0.0737 -0.1048  0.3659
  149MOL0     C20036   6.020   1.448  10.386  0.2945  0.0734 -0.3246
  149MOL0     C20037   6.152   1.484  10.361  0.0697 -0.3588 -0.6922
  149MOL0     C20038   6.218   1.435  10.253 -0.0524  0.7044 -0.4569
  149MOL0     O20039   6.349   1.476  10.241 -0.8204 -0.1057  0.2301
  149MOL0     C20040   6.445   1.430  10.338 -1.1292 -0.3252  0.1135
  149MOL0     C20041   6.471   1.277  10.332 -0.5679 -0.8495  0.0508
  149MOL0     C20042   6.537   1.233  10.191  0.6853  0.2056  0.4727
  149MOL0     C20043   6.509   1.084  10.165 -0.6245  0.4596  0.3513
  149MOL0     C20044   6.380   1.035  10.125 -0.0056  0.3672 -0.3872
  149MOL0     C20045   6.275   0.991  10.075 -0.0817  0.0386  0.7903
  149MOL0     C20046   6.161   1.342  10.166  0.4452  0.1979  1.3118
  149MOL0     C20047   6.021   1.316  10.176 -0.6909 -0.4177  0.1200
  149MOL0     H20048   5.667   1.103  10.361  1.5814  0.4826 -1.6878
  149MOL0     H20049   5.448   1.016  10.388  2.4811 -1.0048 -1.4713
  149MOL0     H20050   5.098   1.220  10.187  1.8370  1.7057 -2.1327
  149MOL0     H20051   5.142   1.104  10.061  0.0462  0.9390  0.8460
  149MOL0     H20052   5.036   0.924  10.175 -2.8197 -0.1833 -2.5901
  149MOL0     H20053   5.006   1.013  10.317  1.3172  1.0794  0.5272
  149MOL0     H20054   4.906   1.049  10.027 -2.3022 -1.7044 -0.8240
  149MOL0     H20055   4.810   0.982  10.163 -0.0530 -0.1428 -0.7038
  149MOL0     H20056   4.839   1.209  10.280  0.3479 -1.6617  0.6153
  149MOL0     H20057   4.906   1.272  10.122 -0.7317  1.5987  0.6734
  149MOL0     H20058   4.683   1.355  10.127 -0.8500 -0.5055  0.5675
  149MOL0     H20059   4.692   1.223  10.021  2.1521  0.8496  0.0071
  149MOL0     H20060   4.588   1.068  10.169 -1.4384 -0.6495  1.8150
  149MOL0     H20061   4.581   1.171  10.310 -3.3005 -0.6970 -0.0642
  149MOL0     H20062   4.427   1.328  10.165 -0.1310  0.3005  0.3463
  149MOL0     H20063   4.442   1.212  10.028  2.7353  1.2643 -1.6361
  149MOL0     H20064   4.335   1.143  10.295  0.5314  0.0974 -0.8152
  149MOL0     H20065   4.359   1.030  10.160  0.0766 -0.5045  0.4658
  149MOL0     H20066   4.203   1.390  10.160  2.6825 -1.2291  0.8395
  149MOL0     H20067   3.944   1.416   9.916  1.4667 -0.2716  0.1497
  149MOL0     H20068   3.849   1.315  10.018 -0.5545 -0.3792 -2.2623
  149MOL0     H20069   3.935   1.455  10.218 -0.6507 -0.8790 -1.2517
  149MOL0     H20070   3.816   1.514  10.110  0.1893 -2.0436 -1.0815
  149MOL0     H20071   3.981   1.655   9.987 -1.0993  0.0191 -0.4581
  149MOL0     H20072   4.117   1.588  10.090 -0.0808 -0.2146  1.4128
  149MOL0     H20073   4.043   1.823  10.145  3.0712 -1.3797  0.9942
  149MOL0     H20074   4.059   1.704  10.280  1.2234 -1.0650 -0.2073
  149MOL0     H20075   3.613   1.816  10.224 -3.1879  1.8278  0.8533
  149MOL0     H20076   3.392   1.965  10.441 -0.6833  2.1378 -0.3272
  149MOL0     H20077   3.459   2.088  10.329  1.9079  0.5837  0.4551
  149MOL0     H20078   3.439   1.931  10.278  1.9796  2.7981 -2.0093
  149MOL0     H20079   3.839   2.135  10.921 -0.0013 -0.2293  0.4224
  149MOL0     H20080   3.773   2.239  11.126  0.9900 -0.3883 -0.9836
  149MOL0     H20081   3.629   2.282  11.296  1.2480  0.2113 -0.6696
  149MOL0     H20082   3.724   2.430  11.275 -0.9898  2.7040  0.2069
  149MOL0     H20083   3.595   2.486  11.477  1.3320  0.1536 -0.2663
  149MOL0     H20084   3.499   2.556  11.340  1.4284 -1.3078 -1.0079
  149MOL0     H20085   3.440   2.281  11.454  0.1266  0.2226  1.3752
  149MOL0     H20086   3.334   2.387  11.359 -1.3310 -0.4820  1.4080
  149MOL0     H20087   3.437   2.443  11.643 -0.4417  1.7217  0.9157
  149MOL0     H20088   3.321   2.548  11.556  1.9936  0.8362  1.2310
  149MOL0     H20089   3.196   2.413  11.697 -2.7250 -0.4951 -1.0102
  149MOL0     H20090   3.283   2.263  11.634  2.7327  0.2013 -2.7945
  149MOL0     H20091   3.139   2.284  11.436 -2.1786 -2.0158 -0.2480
  149MOL0     H20092   3.034   2.292  11.572  0.0685 -1.0552 -1.6394
  149MOL0     H20093   3.128   2.530  11.406  1.1311  1.3858  1.3237
  149MOL0     H20094   2.999   2.536  11.532 -0.5089 -2.0948  1.1857
  149MOL0     H20095   2.982   2.367  11.289  0.8735  0.0305 -0.1365
  149MOL0     H20096   2.895   2.523  11.297 -0.8050 -1.3362 -0.3026
  149MOL0     H20097   3.465   2.447  10.926  0.1265  0.7256  1.3877
  149MOL0     H20098   3.516   2.323  10.718  0.4892  1.1286  0.1904
  149MOL0     H20099   3.905   1.989  10.585 -0.0733  2.2185 -1.6976
  149MOL0     H20100   3.998   1.877  10.423  0.2854  0.4403  0.0228
  149MOL0     H20101   5.300   1.283  10.077 -0.8708  2.9557  2.0523
  149MOL0     H20102   5.529   1.365  10.056 -2.2839  0.0191 -1.8720
  149MOL0     H20103   5.963   1.490  10.468  0.9553 -1.7830  1.1419
  149MOL0     H20104   6.195   1.562  10.424  1.6635 -0.6229 -1.4140
  149MOL0     H20105   6.537   1.484  10.313 -1.1249 -0.1191  0.5671
  149MOL0     H20106   6.418   1.458  10.440 -1.9986 -0.5372 -0.0556
  149MOL0     H20107   6.371   1.237  10.347 -1.4605  1.6486  1.2264
  149MOL0     H20108   6.538   1.250  10.414 -0.4129  1.4137  0.7132
  149MOL0     H20109   6.646   1.246  10.196  0.7337  1.8846 -2.5576
  149MOL0     H20110   6.488   1.282  10.107 -2.8638 -0.9020  1.7165
  149MOL0     H20111   6.541   1.030  10.254  1.4200  0.9314 -0.0420
  149MOL0     H20112   6.568   1.051  10.080 -2.2659  1.2097 -1.1578
  149MOL0     H20113   6.183   0.962  10.027 -0.3611  1.8299  0.1750
  149MOL0     H20114   6.229   1.316  10.085  2.4601  0.1804  2.9289
  149MOL0     H20115   5.968   1.245  10.114 -1.0197  1.1593 -1.4982
  150MOL0     O20116   7.311   2.200   1.331  0.2154 -0.4824 -0.6338
  150MOL0     C20117   7.362   2.259   1.236 -0.2800 -0.4016  0.3792
  150MOL0     O20118   7.328   2.241   1.102 -0.3311 -0.1843  1.0467
  150MOL0     C20119   7.214   2.174   1.064 -0.6835  0.2368 -0.0548
  150MOL0     C20120   7.227   2.095   0.945  0.0053 -0.6863 -0.0067
  150MOL0     C20121   7.109   2.049   0.891 -0.8568 -0.4804  0.2359
  150MOL0     C20122   6.983   2.049   0.958  0.0691 -0.2492  0.2090
  150MOL0     O20123   6.865   1.994   0.917 -0.1034 -0.0043  0.0168
  150MOL0     C20124   6.860   1.953   0.776 -0.2145  0.2118 -0.6292
  150MOL0     C20125   6.740   1.890   0.714  0.3818  0.0495 -0.3623
  150MOL0     C20126   6.611   1.958   0.757  0.4206  0.3874  0.3007
  150MOL0     C20127   6.493   1.918   0.662  0.0899  0.0039  0.9109
  150MOL0     C20128   6.351   1.952   0.724 -0.0460  0.0107  0.1281
  150MOL0     C20129   6.338   2.094   0.771 -0.3543  0.2746  0.9173
  150MOL0     C20130   6.203   2.122   0.831 -0.0444  0.5073  0.3200
  150MOL0     C20131   6.206   2.078   0.973 -0.2958  0.1162  0.4875
  150MOL0     N20132   6.074   2.058   1.034  0.5883 -0.2194  0.8357
  150MOL0     C20133   6.000   2.159   1.079  0.7506 -0.3493 -0.9473
  150MOL0     C20134   5.903   2.099   1.151 -0.4371 -0.6549 -0.3253
  150MOL0     C20135   5.782   2.161   1.226  0.7821 -0.0506  0.2438
  150MOL0     C20136   5.664   2.195   1.132  0.2240  0.2783 -0.3202
  150MOL0     C20137   5.548   2.086   1.137 -0.0563  0.5548  0.0112
  150MOL0     C20138   5.429   2.122   1.044  0.9729  0.3152 -0.2555
  150MOL0     O20139   5.373   2.250   1.078 -0.9583  0.1921 -0.4229
  150MOL0     C20140   5.263   2.248   1.153 -0.4707  0.3873  0.2253
  150MOL0     C20141   5.278   2.268   1.286  0.1341 -0.7041  0.6369
  150MOL0     C20142   5.159   2.281   1.366  0.1376 -0.7030 -0.9946
  150MOL0     C20143   5.184   2.311   1.513 -0.7942  0.3834 -0.3489
  150MOL0     C20144   5.028   2.271   1.312 -0.3271 -0.2187  1.0375
  150MOL0     C20145   4.911   2.278   1.393 -0.2838 -0.1020  0.1084
  150MOL0     O20146   4.795   2.323   1.322 -0.1125 -0.7622 -0.1107
  150MOL0     C20147   4.670   2.346   1.385 -0.2776  0.1593  0.1552
  150MOL0     C20148   4.649   2.368   1.517  0.7662 -0.1999  0.4627
  150MOL0     C20149   4.518   2.403   1.561 -0.4911  0.2724 -0.1321
  150MOL0     C20150   4.407   2.401   1.480  0.4887  0.2124  0.5858
  150MOL0     O20151   4.277   2.435   1.503 -0.7356  0.2012 -0.0088
  150MOL0     C20152   4.255   2.554   1.578 -0.3115 -0.6477 -0.6791
  150MOL0     C20153   4.121   2.621   1.552  0.2551 -0.0998  0.5989
  150MOL0     C20154   4.086   2.646   1.395  0.7087  0.4583  0.6954
  150MOL0     C20155   4.173   2.739   1.316  0.7036  0.6550 -0.1448
  150MOL0     C20156   4.108   2.798   1.193  0.1563  0.4307  0.0024
  150MOL0     C20157   4.159   2.941   1.168  0.3716  0.6971  0.2300
  150MOL0     C20158   4.088   3.047   1.249  0.4911 -0.2437  0.1748
  150MOL0     C20159   4.171   3.180   1.239 -0.5459  0.1034 -0.2544
  150MOL0    Cl20160   4.324   3.162   1.338  0.2433 -0.3719  0.0144
  150MOL0     C20161   4.428   2.367   1.348 -0.3627 -0.3727  0.2584
  150MOL0     C20162   4.560   2.341   1.302 -0.3833 -0.1949 -0.4791
  150MOL0     O20163   4.908   2.219   1.500  0.1341  0.9776 -0.4786
  150MOL0     C20164   5.018   2.246   1.176  0.4016  0.3982  0.9174
  150MOL0     C20165   5.139   2.237   1.094 -0.4162 -0.3401 -0.3132
  150MOL0     N20166   5.921   1.962   1.146 -0.2997  0.3859 -0.2317
  150MOL0     N20167   6.028   1.935   1.072 -0.3601 -0.9266  0.6067
  150MOL0     C20168   6.974   2.119   1.082 -1.0924  0.6482 -0.2564
  150MOL0     C20169   7.088   2.188   1.125 -0.5871  0.7713  0.0033
  150MOL0     C20170   7.501   2.313   1.266 -0.8927 -0.2379  0.5375
  150MOL0     C20171   7.612   2.288   1.173 -0.7691 -0.0379  0.5889
  150MOL0     C20172   7.742   2.347   1.200  0.4446  0.5509  0.3223
  150MOL0     C20173   7.767   2.422   1.314  0.1225 -0.0758 -0.0218
  150MOL0     O20174   7.896   2.477   1.320 -0.1557 -0.2194 -0.2422
  150MOL0     C20175   7.922   2.552   1.443 -0.8045  0.5903 -0.4374
  150MOL0     C20176   8.070   2.592   1.438  0.7327 -0.5284  0.0549
  150MOL0     C20177   8.163   2.481   1.463  0.4780 -0.3715  0.1800
  150MOL0     C20178   8.312   2.524   1.456  0.1436 -1.3177  0.7038
  150MOL0     C20179   8.399   2.416   1.502  1.1410 -0.2226  0.6019
  150MOL0     C20180   8.461   2.319   1.527 -0.1311  0.4239 -0.4641
  150MOL0     C20181   7.656   2.452   1.406 -0.2963 -0.1765  0.2199
  150MOL0     C20182   7.532   2.390   1.378 -0.7294  0.0885  0.5397
  150MOL0     H20183   7.325   2.096   0.898 -0.5616  1.4200 -1.2796
  150MOL0     H20184   7.116   2.011   0.790  0.0585 -0.2307  0.1985
  150MOL0     H20185   6.888   2.035   0.708  0.2960  0.3163 -0.2995
  150MOL0     H20186   6.936   1.876   0.760 -1.9350 -1.8600  0.6222
  150MOL0     H20187   6.753   1.893   0.606  0.0831 -0.3804 -0.4149
  150MOL0     H20188   6.722   1.789   0.754  0.5073 -0.1482 -0.7966
  150MOL0     H20189   6.577   1.908   0.848 -0.3353  1.1739  0.4679
  150MOL0     H20190   6.611   2.066   0.778 -1.6164  1.0089 -2.3370
  150MOL0     H20191   6.503   1.989   0.579  0.6554 -0.0786  0.9081
  150MOL0     H20192   6.492   1.813   0.631 -0.9804  0.4474 -0.7382
  150MOL0     H20193   6.269   1.929   0.655  1.5462 -1.0491 -1.5094
  150MOL0     H20194   6.338   1.888   0.811 -0.3900  0.7379  0.6272
  150MOL0     H20195   6.420   2.119   0.839  0.6598 -3.5302  1.3223
  150MOL0     H20196   6.351   2.158   0.683  0.2560  1.5948  1.9226
  150MOL0     H20197   6.191   2.231   0.827 -2.5672  0.3233  1.1660
  150MOL0     H20198   6.131   2.075   0.764  2.5796  0.6258 -2.8371
  150MOL0     H20199   6.260   2.159   1.023 -0.8140  0.5163  0.4129
  150MOL0     H20200   6.269   1.989   0.980  0.4449  0.6046  0.2271
  150MOL0     H20201   6.021   2.264   1.062  0.3205  0.3169  2.0255
  150MOL0     H20202   5.756   2.100   1.313  4.4222 -3.2637 -0.6157
  150MOL0     H20203   5.809   2.256   1.272 -2.3935 -0.5174  3.5335
  150MOL0     H20204   5.695   2.212   1.028 -0.6193 -1.6786 -0.9346
  150MOL0     H20205   5.622   2.288   1.173 -1.6494 -0.5997 -0.1494
  150MOL0     H20206   5.505   2.073   1.237 -1.1817  1.5372 -0.3320
  150MOL0     H20207   5.587   1.988   1.107  0.6172  1.6539 -3.0619
  150MOL0     H20208   5.349   2.050   1.063  2.0958 -0.3451  2.4585
  150MOL0     H20209   5.450   2.113   0.937 -1.8032  1.1393 -0.9583
  150MOL0     H20210   5.377   2.286   1.328  1.1501 -0.9379 -1.5621
  150MOL0     H20211   5.291   2.319   1.534 -0.7909 -1.0727  0.3363
  150MOL0     H20212   5.136   2.405   1.541  1.0142  1.4764 -0.7450
  150MOL0     H20213   5.149   2.232   1.580  2.3903  0.2262  1.3316
  150MOL0     H20214   4.719   2.352   1.598 -1.4285  1.2703  2.8134
  150MOL0     H20215   4.490   2.413   1.666 -0.3127 -2.4853  0.2560
  150MOL0     H20216   4.259   2.524   1.683 -1.6194  0.4297 -0.2855
  150MOL0     H20217   4.322   2.633   1.544 -2.9088  2.3591  0.6742
  150MOL0     H20218   4.048   2.552   1.595  0.1010 -0.5159 -0.3103
  150MOL0     H20219   4.107   2.715   1.607 -1.7406 -1.7599  3.1463
  150MOL0     H20220   3.986   2.689   1.403  0.9060  0.7905  1.4884
  150MOL0     H20221   4.075   2.554   1.336  0.9370  0.7992  0.1120
  150MOL0     H20222   4.198   2.824   1.381 -1.0097  2.1386 -1.3232
  150MOL0     H20223   4.266   2.686   1.294  1.2070  0.2815  2.5351
  150MOL0     H20224   4.000   2.803   1.206 -0.2056  1.0512 -2.6319
  150MOL0     H20225   4.131   2.739   1.104  0.1414 -0.0017  0.2855
  150MOL0     H20226   4.268   2.942   1.171  0.3837  1.6001 -0.2757
  150MOL0     H20227   4.133   2.950   1.062  0.2984 -1.7492 -0.0309
  150MOL0     H20228   4.069   3.019   1.353 -1.5234 -1.0747 -0.3786
  150MOL0     H20229   3.993   3.057   1.196  1.0426 -3.4195 -1.6954
  150MOL0     H20230   4.105   3.261   1.274  0.6872 -0.2071  3.2273
  150MOL0     H20231   4.192   3.196   1.133 -1.4717  0.4580 -0.3926
  150MOL0     H20232   4.346   2.373   1.277 -0.5390  0.1046  0.4990
  150MOL0     H20233   4.584   2.314   1.200  2.1415  0.9374 -0.2657
  150MOL0     H20234   4.920   2.225   1.135  1.4750  1.2969 -2.4635
  150MOL0     H20235   5.141   2.224   0.986  0.7459  0.0734 -0.3573
  150MOL0     H20236   6.894   2.102   1.154 -1.6629 -1.8346 -1.3646
  150MOL0     H20237   7.093   2.245   1.217  1.7233 -0.6057  0.8344
  150MOL0     H20238   7.588   2.228   1.086 -2.3595  0.6404  0.5229
  150MOL0     H20239   7.824   2.339   1.130 -0.1640 -2.3451 -0.1997
  150MOL0     H20240   7.854   2.637   1.435  0.4463  1.7010  0.1508
  150MOL0     H20241   7.890   2.499   1.533 -0.7861 -1.3626 -1.5481
  150MOL0     H20242   8.095   2.670   1.510 -0.1737  1.5343 -1.7303
  150MOL0     H20243   8.079   2.644   1.342 -3.2886  0.0987 -0.1628
  150MOL0     H20244   8.144   2.397   1.395  0.4668 -0.7709  0.6668
  150MOL0     H20245   8.142   2.442   1.563  2.1124 -1.1816  0.2406
  150MOL0     H20246   8.333   2.617   1.509  1.3260  0.0643 -2.0136
  150MOL0     H20247   8.340   2.546   1.353  0.5942  0.4267  1.1585
  150MOL0     H20248   8.511   2.226   1.545 -0.3616  0.7802  2.5090
  150MOL0     H20249   7.671   2.518   1.491 -0.9512  0.6108 -0.2685
  150MOL0     H20250   7.452   2.392   1.452 -1.4459  0.8197 -0.2383
  151MOL0     O20251   3.626   7.355   2.142 -0.5576  0.1419  0.5132
  151MOL0     C20252   3.633   7.304   2.030 -0.4068  0.5279  0.2929
  151MOL0     O20253   3.524   7.271   1.952 -0.9547 -0.0513  0.6548
  151MOL0     C20254   3.394   7.301   1.975 -0.9353 -0.5563  1.0966
  151MOL0     C20255   3.315   7.240   1.885  0.2391  0.4620  0.0483
  151MOL0     C20256   3.176   7.266   1.895 -0.5071  0.9364 -0.4430
  151MOL0     C20257   3.124   7.345   2.005 -1.0431 -0.1802  0.1109
  151MOL0     O20258   2.986   7.372   2.019 -0.2371 -0.8152 -0.5519
  151MOL0     C20259   2.902   7.258   2.008 -0.1185 -0.0311  0.4879
  151MOL0     C20260   2.755   7.293   1.992  0.1492  0.4910  0.1280
  151MOL0     C20261   2.718   7.336   1.850 -0.9512 -0.1474 -0.9006
  151MOL0     C20262   2.592   7.413   1.854 -1.1362 -0.2206 -0.4379
  151MOL0     C20263   2.459   7.342   1.880 -0.2150  0.7743  0.9416
  151MOL0     C20264   2.357   7.460   1.891 -0.6336 -0.0496  0.4330
  151MOL0     C20265   2.212   7.418   1.922 -0.6232  0.2543  1.0688
  151MOL0     C20266   2.136   7.381   1.804 -0.5619  0.3435 -1.0642
  151MOL0     N20267   2.004   7.332   1.844 -0.0515 -0.4345  0.3805
  151MOL0     C20268   1.893   7.411   1.866  0.9218 -0.5295  0.5521
  151MOL0     C20269   1.792   7.322   1.879 -0.2684 -0.0709  0.5320
  151MOL0     C20270   1.643   7.356   1.886 -0.5658  0.5422  0.3034
  151MOL0     C20271   1.546   7.244   1.827 -0.4258 -0.5803 -1.3513
  151MOL0     C20272   1.580   7.191   1.694 -0.4769  1.6814  0.1589
  151MOL0     C20273   1.483   7.082   1.653 -0.5970 -0.4790  0.4288
  151MOL0     O20274   1.363   7.141   1.640  0.5378 -0.1891 -0.8413
  151MOL0     C20275   1.256   7.059   1.622 -0.3014  0.5851  0.0327
  151MOL0     C20276   1.266   6.929   1.573  0.8350  0.5745 -0.3289
  151MOL0     C20277   1.147   6.855   1.542 -0.2397  0.3997  0.1526
  151MOL0     C20278   1.188   6.727   1.470 -0.0834 -0.9025 -0.0361
  151MOL0     C20279   1.019   6.911   1.563  0.4670  0.8644  0.0926
  151MOL0     C20280   0.890   6.855   1.517  0.8103 -0.4966 -0.1777
  151MOL0     O20281   0.782   6.904   1.585  0.5191 -0.0052 -0.3081
  151MOL0     C20282   0.653   6.877   1.541  0.4230 -0.8238  0.2134
  151MOL0     C20283   0.613   6.850   1.409  0.3267  0.0586 -0.2034
  151MOL0     C20284   0.485   6.803   1.388 -0.6095  0.0359  0.8138
  151MOL0     C20285   0.390   6.802   1.485  0.5751  0.0279 -0.2931
  151MOL0     O20286   0.265   6.759   1.470  0.5600  0.4243 -0.1304
  151MOL0     C20287   0.257   6.628   1.418  0.6919 -0.0614  0.6041
  151MOL0     C20288   0.181   6.637   1.288 -0.5512 -0.6438 -0.5223
  151MOL0     C20289   0.037   6.689   1.313 -0.0014  0.2880 -0.4000
  151MOL0     C20290  -0.054   6.646   1.196 -0.3948  0.1807 -0.2413
  151MOL0     C20291  -0.205   6.683   1.225  0.1185  0.3670  0.2158
  151MOL0     C20292  -0.277   6.551   1.281 -0.1888 -0.5188  0.0390
  151MOL0     C20293  -0.428   6.566   1.310  0.8478  0.0226 -0.3348
  151MOL0     C20294  -0.512   6.572   1.182  0.5255  0.0254  0.0467
  151MOL0    Cl20295  -0.674   6.623   1.220  0.2606 -0.0926 -0.0068
  151MOL0     C20296   0.425   6.852   1.617  0.0438 -0.1627 -0.1787
  151MOL0     C20297   0.563   6.887   1.644  0.6036  0.0546 -0.4530
  151MOL0     O20298   0.893   6.769   1.434  0.2931  0.3405 -0.0330
  151MOL0     C20299   1.019   7.039   1.620 -0.5283 -0.4594 -0.1828
  151MOL0     C20300   1.137   7.115   1.647 -1.1319  0.4893 -0.4324
  151MOL0     N20301   1.842   7.189   1.875 -0.7001  0.0269  0.4826
  151MOL0     N20302   1.973   7.198   1.848  0.2040  0.9738 -0.7101
  151MOL0     C20303   3.212   7.405   2.096 -0.1432 -0.1187  0.2720
  151MOL0     C20304   3.347   7.391   2.072 -0.1483  0.2189 -0.5677
  151MOL0     C20305   3.765   7.268   1.979 -0.5820 -0.0027  0.4268
  151MOL0     C20306   3.782   7.162   1.884 -0.0540  0.4103  0.2823
  151MOL0     C20307   3.908   7.101   1.857 -0.0686 -0.1332 -0.4150
  151MOL0     C20308   4.021   7.155   1.923 -0.1333 -0.5293 -0.8190
  151MOL0     O20309   4.139   7.091   1.892 -0.6943  0.0433  0.0600
  151MOL0     C20310   4.260   7.144   1.954  0.1662 -0.0207 -0.3528
  151MOL0     C20311   4.379   7.053   1.904  0.0005 -0.4198  0.4645
  151MOL0     C20312   4.402   7.088   1.756 -0.4458 -0.9222 -0.6474
  151MOL0     C20313   4.519   7.019   1.689  0.5449 -0.5787  0.1430
  151MOL0     C20314   4.516   6.877   1.697  0.6366  0.8684 -0.3463
  151MOL0     C20315   4.501   6.760   1.719 -0.0649 -0.1317 -0.4659
  151MOL0     C20316   4.007   7.266   2.011 -0.3808  0.4167  0.3467
  151MOL0     C20317   3.882   7.318   2.040  0.7739  0.4857 -0.4375
  151MOL0     H20318   3.346   7.158   1.821 -0.5219  0.3048 -0.1318
  151MOL0     H20319   3.111   7.231   1.816  0.3685  0.7776 -1.1141
  151MOL0     H20320   2.923   7.203   1.915 -2.6516  0.8879 -0.7403
  151MOL0     H20321   2.896   7.196   2.098 -2.1390  1.0852  1.1872
  151MOL0     H20322   2.690   7.210   2.020 -0.6856  1.6195  1.7338
  151MOL0     H20323   2.732   7.360   2.076 -0.3455 -0.4344  0.7528
  151MOL0     H20324   2.796   7.406   1.818 -1.5618  0.1566 -1.7606
  151MOL0     H20325   2.705   7.256   1.776 -1.6864 -0.4086 -0.5038
  151MOL0     H20326   2.602   7.492   1.930  1.5240  0.9082 -1.8236
  151MOL0     H20327   2.595   7.474   1.763 -0.4995 -2.2745 -1.8479
  151MOL0     H20328   2.448   7.267   1.801  1.4943  1.4190  0.0390
  151MOL0     H20329   2.462   7.286   1.974  1.4494  0.7526  0.9138
  151MOL0     H20330   2.381   7.524   1.976  3.2361 -1.8864  0.9548
  151MOL0     H20331   2.370   7.509   1.794  0.9599 -1.9122 -0.3503
  151MOL0     H20332   2.213   7.341   2.000  1.3511  0.4052  1.2442
  151MOL0     H20333   2.161   7.506   1.962 -0.4868  0.3432  1.0461
  151MOL0     H20334   2.177   7.299   1.745  0.4629  0.2886 -0.2958
  151MOL0     H20335   2.134   7.462   1.731  1.0380 -0.5163 -2.1048
  151MOL0     H20336   1.892   7.519   1.873  1.4789 -0.5601  1.1872
  151MOL0     H20337   1.616   7.373   1.990 -1.3029  0.0917  0.1920
  151MOL0     H20338   1.611   7.452   1.846 -0.7585 -0.1764 -1.3679
  151MOL0     H20339   1.442   7.275   1.828 -0.6537 -0.5725  3.5689
  151MOL0     H20340   1.536   7.162   1.900 -1.0892  1.0569  0.4768
  151MOL0     H20341   1.678   7.141   1.693 -0.6889  1.2534  0.2285
  151MOL0     H20342   1.590   7.260   1.610 -0.5428  1.6367  0.1144
  151MOL0     H20343   1.495   6.998   1.722  2.0134 -1.2353 -0.8017
  151MOL0     H20344   1.517   7.049   1.554  1.0394  0.9729  0.4660
  151MOL0     H20345   1.365   6.886   1.559  1.5933  2.1931 -0.1913
  151MOL0     H20346   1.120   6.646   1.497 -1.8965 -0.1275 -1.9409
  151MOL0     H20347   1.187   6.746   1.362  0.3413 -1.3071 -0.1112
  151MOL0     H20348   1.286   6.688   1.498 -0.3024 -0.1990  1.8874
  151MOL0     H20349   0.669   6.850   1.316 -0.8471  1.9175 -0.9722
  151MOL0     H20350   0.465   6.770   1.286  1.8490 -0.1386  0.3289
  151MOL0     H20351   0.347   6.565   1.413  0.1077 -0.8172 -1.2861
  151MOL0     H20352   0.193   6.571   1.487  0.0555 -0.7153 -0.5059
  151MOL0     H20353   0.232   6.704   1.217  1.2095 -1.2410  0.1209
  151MOL0     H20354   0.180   6.536   1.244  2.1641 -0.7995 -0.3679
  151MOL0     H20355   0.016   6.796   1.319  2.3156  0.7434  0.6298
  151MOL0     H20356  -0.003   6.650   1.407 -2.1315 -1.1630 -1.8218
  151MOL0     H20357  -0.013   6.711   1.118  2.2946 -0.6508  0.3770
  151MOL0     H20358  -0.046   6.540   1.169  1.6761  0.5464 -1.2867
  151MOL0     H20359  -0.254   6.701   1.130  0.7027  2.6262  0.2924
  151MOL0     H20360  -0.223   6.774   1.283 -1.2456  0.7048 -0.6816
  151MOL0     H20361  -0.259   6.465   1.215 -0.0063  0.0813 -0.7056
  151MOL0     H20362  -0.218   6.536   1.373 -0.2099  0.6522  0.2538
  151MOL0     H20363  -0.437   6.657   1.369 -2.6859  1.0622 -2.2440
  151MOL0     H20364  -0.470   6.487   1.373 -0.4342  2.3625  1.9156
  151MOL0     H20365  -0.527   6.477   1.130 -1.0657  0.6300 -0.6705
  151MOL0     H20366  -0.474   6.640   1.105 -1.4853 -0.2536 -1.2585
  151MOL0     H20367   0.343   6.869   1.685 -0.4802  2.6675 -1.3812
  151MOL0     H20368   0.587   6.925   1.742  0.2560 -0.1388 -0.2922
  151MOL0     H20369   0.926   7.093   1.635 -0.6398 -0.9318  0.9151
  151MOL0     H20370   1.141   7.215   1.687  1.9853 -0.2256  1.3574
  151MOL0     H20371   3.169   7.463   2.177 -0.0266 -0.8533  0.8767
  151MOL0     H20372   3.409   7.438   2.148 -1.9443  0.6250  0.7138
  151MOL0     H20373   3.700   7.115   1.830 -1.0427  1.0783  1.1742
  151MOL0     H20374   3.925   7.018   1.790 -0.0862  0.3716 -1.0561
  151MOL0     H20375   4.284   7.248   1.930  1.2973 -0.5826 -1.7523
  151MOL0     H20376   4.266   7.128   2.062  0.9144  1.2139 -0.1904
  151MOL0     H20377   4.353   6.948   1.917  0.7633 -0.5381  1.1323
  151MOL0     H20378   4.470   7.080   1.959 -0.4972  4.1166 -0.5086
  151MOL0     H20379   4.419   7.195   1.743 -2.4678 -0.6257 -1.0432
  151MOL0     H20380   4.313   7.055   1.702 -0.0340 -3.2549 -0.0312
  151MOL0     H20381   4.609   7.046   1.746 -0.4646  2.1280  0.5997
  151MOL0     H20382   4.532   7.058   1.588 -1.7221 -0.5326 -0.1769
  151MOL0     H20383   4.501   6.654   1.733 -1.5792  0.0420  1.1195
  151MOL0     H20384   4.101   7.304   2.052  0.1693 -0.3867 -0.1506
  151MOL0     H20385   3.888   7.400   2.112  1.4105 -0.3652  0.5212
  152MOL0     O20386   4.093   6.002   9.619  0.2155 -0.3887  0.0387
  152MOL0     C20387   4.180   6.083   9.574 -0.6217  0.3244  1.0973
  152MOL0     O20388   4.164   6.209   9.533 -0.2239  0.0438  0.4529
  152MOL0     C20389   4.048   6.254   9.585  0.6810 -0.6925  0.2470
  152MOL0     C20390   4.030   6.283   9.718  0.0019  0.7040  0.7929
  152MOL0     C20391   3.917   6.339   9.763  0.0743 -0.3544 -0.8406
  152MOL0     C20392   3.822   6.401   9.681 -0.2013  0.2680 -1.2411
  152MOL0     O20393   3.722   6.470   9.737 -0.0733 -0.3072 -0.3164
  152MOL0     C20394   3.590   6.434   9.720 -0.1216  0.5453 -0.0248
  152MOL0     C20395   3.509   6.492   9.835 -0.1936  0.5409  0.3208
  152MOL0     C20396   3.377   6.415   9.863 -0.1341 -0.3749 -0.3387
  152MOL0     C20397   3.267   6.506   9.931 -0.3364  0.3708 -0.5209
  152MOL0     C20398   3.134   6.438   9.914  0.7658  0.5049  0.4128
  152MOL0     C20399   3.031   6.505   9.996 -0.5156  0.3902  0.5137
  152MOL0     C20400   3.026   6.488  10.149 -0.1676 -0.3790 -0.3589
  152MOL0     C20401   2.893   6.542  10.212 -0.3145 -0.2739 -0.0777
  152MOL0     N20402   2.778   6.464  10.178  0.1429 -0.7985 -0.4674
  152MOL0     C20403   2.652   6.463  10.232 -0.2016  0.1145  0.2044
  152MOL0     C20404   2.591   6.346  10.208  0.3750 -0.1981 -0.3196
  152MOL0     C20405   2.449   6.326  10.250  0.4523  0.5487 -0.1426
  152MOL0     C20406   2.341   6.402  10.169 -0.3098 -0.6665 -0.6721
  152MOL0     C20407   2.335   6.341  10.027  0.0975 -0.5782  0.5498
  152MOL0     C20408   2.225   6.411   9.939 -0.7744  0.2270  0.5014
  152MOL0     O20409   2.102   6.388   9.998 -0.1224 -0.1087 -0.4260
  152MOL0     C20410   1.989   6.424   9.934  0.5383 -0.9352 -0.1309
  152MOL0     C20411   1.869   6.405   9.996  0.4080  0.0303 -0.2073
  152MOL0     C20412   1.751   6.457   9.940 -0.0029  0.3648 -0.3162
  152MOL0     C20413   1.627   6.425  10.022 -0.5935  0.0218  0.5359
  152MOL0     C20414   1.750   6.506   9.807  0.4217 -0.8591 -0.6006
  152MOL0     C20415   1.624   6.576   9.737  0.2409 -0.4642  0.0334
  152MOL0     O20416   1.640   6.628   9.609  0.1465 -0.9772 -0.9423
  152MOL0     C20417   1.533   6.689   9.543  0.4018  0.6285  0.4628
  152MOL0     C20418   1.539   6.828   9.517 -0.2093  0.4229 -0.0163
  152MOL0     C20419   1.434   6.886   9.452 -0.6700 -0.5682  0.3111
  152MOL0     C20420   1.317   6.814   9.426 -0.0300  0.4098 -0.6798
  152MOL0     O20421   1.210   6.878   9.367  0.3199  0.4995  0.7217
  152MOL0     C20422   1.237   6.960   9.251 -0.0928  0.1229 -0.6401
  152MOL0     C20423   1.114   6.988   9.167 -0.2619 -0.3472 -0.0241
  152MOL0     C20424   1.073   6.871   9.088 -0.2899 -0.4396 -0.7123
  152MOL0     C20425   0.947   6.900   9.012  0.8667 -0.4510  0.5917
  152MOL0     C20426   0.973   6.974   8.879 -0.7221 -0.0753  0.7904
  152MOL0     C20427   0.849   7.049   8.818 -0.0232  0.3658  0.2590
  152MOL0     C20428   0.883   7.090   8.670  1.1884 -0.3175  1.1702
  152MOL0     C20429   0.870   6.971   8.574  0.7954  0.6842  0.0620
  152MOL0    Cl20430   0.989   6.984   8.452  0.4599 -0.0442 -0.3610
  152MOL0     C20431   1.297   6.677   9.449 -0.0196 -0.0538  0.0947
  152MOL0     C20432   1.415   6.617   9.508  0.2842 -0.0126  1.1674
  152MOL0     O20433   1.521   6.588   9.806 -0.2888 -0.2896 -0.2896
  152MOL0     C20434   1.872   6.514   9.744  1.0110 -0.2587  0.2044
  152MOL0     C20435   1.986   6.471   9.807 -0.4046 -0.9474  0.8471
  152MOL0     N20436   2.669   6.275  10.117 -0.6010  0.0545  0.0819
  152MOL0     N20437   2.779   6.343  10.112  0.4716 -0.2395 -0.0028
  152MOL0     C20438   3.832   6.378   9.544  0.1978  0.1541  0.3408
  152MOL0     C20439   3.951   6.313   9.495  0.6485  0.3311  0.2359
  152MOL0     C20440   4.323   6.033   9.594  0.2419 -0.0406 -0.0306
  152MOL0     C20441   4.345   5.917   9.659  0.4353 -0.0985  0.2324
  152MOL0     C20442   4.475   5.868   9.675 -0.3490  0.4637  0.5485
  152MOL0     C20443   4.583   5.936   9.625  0.3169 -0.7416 -0.2467
  152MOL0     O20444   4.712   5.904   9.640 -0.1036  0.5194 -0.2056
  152MOL0     C20445   4.747   5.774   9.612  0.3077 -0.7815  0.3546
  152MOL0     C20446   4.894   5.745   9.642 -0.2175 -0.4924 -0.4457
  152MOL0     C20447   4.924   5.593   9.601 -0.3504  0.1137 -0.1716
  152MOL0     C20448   5.067   5.561   9.625 -0.9375 -0.0634 -0.0611
  152MOL0     C20449   5.095   5.427   9.571  0.3796 -0.1726  0.4376
  152MOL0     C20450   5.120   5.320   9.517 -0.5388 -0.6490 -0.5370
  152MOL0     C20451   4.564   6.067   9.576  0.3613  0.7879  0.9415
  152MOL0     C20452   4.432   6.109   9.553  0.3029 -0.2480 -0.7928
  152MOL0     H20453   4.102   6.246   9.790 -0.7257 -1.0052  0.6789
  152MOL0     H20454   3.893   6.353   9.868  0.2356  2.0254 -1.0806
  152MOL0     H20455   3.544   6.468   9.627 -0.4110  3.0495  0.9373
  152MOL0     H20456   3.588   6.326   9.730  0.7181  0.6725  1.9032
  152MOL0     H20457   3.571   6.499   9.925 -0.3616  2.6289  0.3177
  152MOL0     H20458   3.495   6.596   9.805  4.2843  0.1817 -4.3077
  152MOL0     H20459   3.346   6.374   9.767 -0.0569  0.7438 -0.8551
  152MOL0     H20460   3.409   6.339   9.934 -0.5051 -0.8942 -0.7218
  152MOL0     H20461   3.293   6.510  10.038 -1.9502 -1.0428 -0.0253
  152MOL0     H20462   3.254   6.604   9.884  0.1182  0.1800 -1.0506
  152MOL0     H20463   3.102   6.444   9.810  2.1334 -0.1785 -0.0713
  152MOL0     H20464   3.144   6.332   9.938 -1.3104  0.3643  0.8447
  152MOL0     H20465   3.042   6.612   9.975  1.4828  0.7481  2.8814
  152MOL0     H20466   2.937   6.463   9.958 -0.0066 -0.8218  0.5453
  152MOL0     H20467   3.038   6.384  10.179 -2.0228 -1.0227 -1.7045
  152MOL0     H20468   3.104   6.549  10.196 -1.9391  2.0120 -0.3302
  152MOL0     H20469   2.882   6.646  10.180 -1.2394 -0.7372 -1.3600
  152MOL0     H20470   2.905   6.528  10.320 -1.9495 -1.5305 -0.0277
  152MOL0     H20471   2.612   6.552  10.280 -0.5029  0.8563 -1.3323
  152MOL0     H20472   2.423   6.221  10.238 -1.4972  0.7477  1.7159
  152MOL0     H20473   2.443   6.334  10.359  0.5505  0.6174 -0.1422
  152MOL0     H20474   2.355   6.510  10.166 -1.4468 -0.4117  1.5549
  152MOL0     H20475   2.242   6.394  10.214 -0.3053  2.1664  0.0173
  152MOL0     H20476   2.322   6.233  10.024 -0.8390 -0.4535 -0.5704
  152MOL0     H20477   2.424   6.354   9.964 -0.3216  0.7853  0.2030
  152MOL0     H20478   2.240   6.380   9.835  0.9800 -0.5654  0.9556
  152MOL0     H20479   2.244   6.519   9.941  0.9413  0.0173 -1.2320
  152MOL0     H20480   1.858   6.350  10.089  1.8242 -0.9609 -0.6029
  152MOL0     H20481   1.576   6.520  10.037 -0.1164  0.0758  2.0062
  152MOL0     H20482   1.566   6.354   9.965  0.2371 -1.1929  1.0897
  152MOL0     H20483   1.652   6.376  10.117 -2.0665 -2.3058 -0.1981
  152MOL0     H20484   1.631   6.879   9.543 -0.4603  0.2053  1.3622
  152MOL0     H20485   1.448   6.989   9.422  3.7104  0.2049  3.8255
  152MOL0     H20486   1.273   7.058   9.283 -0.0437  0.0289 -0.3977
  152MOL0     H20487   1.309   6.915   9.181  0.7794  1.5341 -0.6956
  152MOL0     H20488   1.038   7.025   9.237 -1.1719 -1.6746 -0.2782
  152MOL0     H20489   1.129   7.071   9.097 -3.4938 -0.5540 -1.1270
  152MOL0     H20490   1.056   6.781   9.147 -1.1327 -0.0457 -0.3377
  152MOL0     H20491   1.154   6.840   9.022  1.7612  1.2294  0.8528
  152MOL0     H20492   0.900   6.805   8.985  0.7221 -0.5814  1.2824
  152MOL0     H20493   0.875   6.956   9.072  0.0868 -1.0880  0.2583
  152MOL0     H20494   1.025   6.905   8.811 -0.2365  0.1600  0.9131
  152MOL0     H20495   1.048   7.051   8.900  0.8643 -0.9764 -1.1490
  152MOL0     H20496   0.755   6.995   8.832  0.7214 -0.6349  1.6962
  152MOL0     H20497   0.828   7.137   8.879 -1.1197 -0.3324  0.9244
  152MOL0     H20498   0.976   7.146   8.658  2.2862 -2.1866  0.5981
  152MOL0     H20499   0.804   7.161   8.645  1.5443  0.4052  2.0437
  152MOL0     H20500   0.766   6.971   8.541  1.0726  0.4133 -0.8320
  152MOL0     H20501   0.880   6.874   8.625 -3.5383 -0.6783 -1.2706
  152MOL0     H20502   1.225   6.604   9.414  1.0032  0.2195 -2.8527
  152MOL0     H20503   1.412   6.515   9.544  0.4164  0.1920  1.7704
  152MOL0     H20504   1.886   6.541   9.640 -0.1975 -1.1719 -0.2262
  152MOL0     H20505   2.075   6.488   9.749 -0.7100  0.3464  0.7323
  152MOL0     H20506   3.747   6.407   9.483 -0.6290 -2.2309  0.2407
  152MOL0     H20507   3.957   6.305   9.387  0.3834  1.7492  0.1030
  152MOL0     H20508   4.265   5.861   9.707 -0.4024  1.1586  0.3409
  152MOL0     H20509   4.488   5.768   9.717 -0.1779  0.0340 -0.4737
  152MOL0     H20510   4.679   5.708   9.666 -1.0876  0.7146  0.5197
  152MOL0     H20511   4.737   5.758   9.504  1.2377  0.7849  0.0081
  152MOL0     H20512   4.918   5.763   9.747 -1.3853 -0.1166 -0.2256
  152MOL0     H20513   4.960   5.810   9.583 -0.3604 -0.4102 -0.5165
  152MOL0     H20514   4.907   5.590   9.493 -0.9503 -3.1957 -0.0769
  152MOL0     H20515   4.849   5.529   9.648 -1.1706  0.1606 -1.3869
  152MOL0     H20516   5.088   5.556   9.733 -1.5418  2.5822  0.2378
  152MOL0     H20517   5.128   5.642   9.585 -0.7141 -0.1945  0.0072
  152MOL0     H20518   5.150   5.237   9.456  1.7144  0.5198 -1.0946
  152MOL0     H20519   4.649   6.128   9.548 -0.3431  0.8746 -1.2251
  152MOL0     H20520   4.420   6.208   9.508 -2.3814  0.3692  1.0022
  153MOL0     O20521  10.972   6.824   1.526  0.2308  0.2095 -0.4979
  153MOL0     C20522  11.005   6.930   1.475  0.0059 -0.1132  0.3269
  153MOL0     O20523  10.928   7.001   1.391  0.5151  0.4770  0.2133
  153MOL0     C20524  10.788   6.996   1.420  0.2540 -0.1295 -0.4512
  153MOL0     C20525  10.737   7.036   1.545 -0.1130  0.1672 -0.3487
  153MOL0     C20526  10.601   7.023   1.565  0.2245 -0.6322  0.6057
  153MOL0     C20527  10.512   6.982   1.462 -0.0183 -0.2734  0.0345
  153MOL0     O20528  10.376   6.982   1.497  0.3086  0.5885 -0.2263
  153MOL0     C20529  10.289   6.946   1.388 -0.4479 -0.7738  0.5430
  153MOL0     C20530  10.144   6.949   1.447 -0.9121  0.7178  0.2301
  153MOL0     C20531  10.035   6.882   1.358 -0.9778  0.0270 -0.4767
  153MOL0     C20532   9.901   6.913   1.428 -0.0888 -0.1766  0.4199
  153MOL0     C20533   9.777   6.876   1.346  0.5145 -0.0712 -0.0274
  153MOL0     C20534   9.736   6.725   1.364  1.0820 -0.1846  0.2100
  153MOL0     C20535   9.778   6.627   1.252  0.5332 -0.8140 -0.4243
  153MOL0     C20536   9.670   6.608   1.147 -0.3768  0.0786 -0.2959
  153MOL0     N20537   9.725   6.506   1.059  1.7211 -0.0819 -0.8498
  153MOL0     C20538   9.790   6.526   0.939 -0.0138 -0.9112  0.3325
  153MOL0     C20539   9.786   6.408   0.881  0.2529  0.6770  0.0356
  153MOL0     C20540   9.879   6.372   0.765  0.7436  0.1729 -0.3322
  153MOL0     C20541   9.788   6.377   0.637 -0.3450 -0.6066 -0.5623
  153MOL0     C20542   9.850   6.299   0.525 -0.4447 -0.2735 -0.2842
  153MOL0     C20543   9.754   6.289   0.406  0.8513 -0.1260 -0.4544
  153MOL0     O20544   9.638   6.217   0.438 -0.1142  0.5189 -0.1975
  153MOL0     C20545   9.537   6.201   0.345  0.1701  0.0740 -0.0472
  153MOL0     C20546   9.419   6.133   0.377  0.0245 -0.3056 -0.5968
  153MOL0     C20547   9.318   6.115   0.290 -0.0928  0.2080  0.0433
  153MOL0     C20548   9.212   6.013   0.331 -0.0580 -0.3131 -0.2257
  153MOL0     C20549   9.321   6.181   0.162  0.2781 -0.4902 -0.2418
  153MOL0     C20550   9.220   6.164   0.053  0.2391 -0.6152 -0.7272
  153MOL0     O20551   9.269   6.188  -0.072  0.3375  0.1557 -0.1663
  153MOL0     C20552   9.189   6.174  -0.179 -0.2211 -0.9068 -0.3681
  153MOL0     C20553   9.071   6.246  -0.197  0.9248  0.3289  1.0564
  153MOL0     C20554   9.009   6.244  -0.319  0.2269 -0.0054 -0.1832
  153MOL0     C20555   9.061   6.172  -0.430 -0.1303  0.1832 -0.7517
  153MOL0     O20556   9.011   6.161  -0.562 -0.1569  0.0981  0.0645
  153MOL0     C20557   8.896   6.239  -0.602  0.1163 -0.3262 -0.6854
  153MOL0     C20558   8.842   6.174  -0.733  0.0583 -0.3768  0.4634
  153MOL0     C20559   8.739   6.266  -0.796  1.0940 -0.2125 -0.1959
  153MOL0     C20560   8.679   6.221  -0.932 -0.5701 -0.1116 -0.3239
  153MOL0     C20561   8.581   6.331  -0.991  0.5643  0.4268 -0.6595
  153MOL0     C20562   8.446   6.329  -0.899 -0.5140  0.3297 -0.2866
  153MOL0     C20563   8.330   6.404  -0.957 -0.6840 -0.1680  0.3145
  153MOL0     C20564   8.343   6.563  -0.948  0.4512 -0.5343 -0.3095
  153MOL0    Cl20565   8.197   6.631  -1.033  0.1050  0.3104 -0.4949
  153MOL0     C20566   9.179   6.102  -0.407 -0.0345  0.0205  0.6289
  153MOL0     C20567   9.241   6.098  -0.279 -0.1687  0.1131  0.7647
  153MOL0     O20568   9.104   6.133   0.088 -0.2571 -0.2607 -0.7390
  153MOL0     C20569   9.446   6.245   0.121  0.3291 -0.2033 -0.0308
  153MOL0     C20570   9.552   6.256   0.212 -0.1934  0.0056 -0.7703
  153MOL0     N20571   9.705   6.322   0.955  0.9030 -0.3194  0.3037
  153MOL0     N20572   9.672   6.374   1.061 -0.1413  0.1296 -0.1859
  153MOL0     C20573  10.563   6.946   1.336  0.3191  0.3430 -0.6881
  153MOL0     C20574  10.702   6.968   1.315 -0.6066 -0.4047 -0.7071
  153MOL0     C20575  11.143   6.988   1.501  0.7886 -0.0490 -0.1494
  153MOL0     C20576  11.198   7.065   1.404 -0.3076 -0.8267  0.1730
  153MOL0     C20577  11.330   7.114   1.425  0.0599 -0.8845  0.1539
  153MOL0     C20578  11.402   7.090   1.537 -0.8166 -0.8419 -0.4749
  153MOL0     O20579  11.534   7.141   1.566  0.2147  0.2414 -0.4836
  153MOL0     C20580  11.603   7.210   1.460  0.4140 -0.1307  0.4133
  153MOL0     C20581  11.746   7.201   1.513 -0.6863  0.3699  0.1207
  153MOL0     C20582  11.833   7.304   1.441  0.4621 -0.7474  0.6348
  153MOL0     C20583  11.980   7.269   1.458  0.2884  0.1099  0.5614
  153MOL0     C20584  12.023   7.300   1.593 -0.4347 -0.0736  1.3005
  153MOL0     C20585  12.073   7.348   1.694 -0.4450  0.1218  0.4112
  153MOL0     C20586  11.344   7.009   1.629 -0.4857 -0.0926  0.0234
  153MOL0     C20587  11.216   6.963   1.617 -0.1655 -0.0348 -0.4891
  153MOL0     H20588  10.802   7.056   1.629 -2.6197  1.4865  1.3794
  153MOL0     H20589  10.566   7.059   1.661 -2.1817  0.8123 -0.7454
  153MOL0     H20590  10.294   7.017   1.305 -0.9702 -0.7110  0.5646
  153MOL0     H20591  10.318   6.845   1.355  2.7442  0.5007 -0.9761
  153MOL0     H20592  10.152   6.886   1.536 -2.2243  2.1592  1.4236
  153MOL0     H20593  10.115   7.051   1.474  1.0303  1.0095  1.4052
  153MOL0     H20594  10.029   6.930   1.260  0.0553 -2.6744 -1.9380
  153MOL0     H20595  10.048   6.776   1.336  0.7473  0.2816 -0.7909
  153MOL0     H20596   9.898   6.851   1.518 -1.8161  0.0187  0.5296
  153MOL0     H20597   9.896   7.020   1.449  0.2868  0.1445 -0.9865
  153MOL0     H20598   9.690   6.938   1.369  0.5034  0.9008 -2.4086
  153MOL0     H20599   9.793   6.900   1.241 -0.3261 -0.7337 -0.3115
  153MOL0     H20600   9.771   6.687   1.461 -3.9256  0.9477  2.8524
  153MOL0     H20601   9.627   6.724   1.364  0.9910  2.4047 -0.4607
  153MOL0     H20602   9.866   6.667   1.202 -0.0610  1.6473  0.3567
  153MOL0     H20603   9.802   6.531   1.300  0.0045 -0.2615  0.9933
  153MOL0     H20604   9.645   6.701   1.096  0.7242 -0.6428 -2.2736
  153MOL0     H20605   9.581   6.575   1.202  0.1296 -0.7877  0.0233
  153MOL0     H20606   9.852   6.610   0.909  1.9738 -2.2630  0.4111
  153MOL0     H20607   9.958   6.447   0.758 -0.3969  1.2235 -3.9663
  153MOL0     H20608   9.928   6.277   0.791  1.6429  1.1937  1.9987
  153MOL0     H20609   9.764   6.480   0.611 -2.4435 -1.4104 -1.9684
  153MOL0     H20610   9.696   6.319   0.652 -2.2171  1.5764 -2.8751
  153MOL0     H20611   9.883   6.200   0.557  2.5875  0.4806 -0.7607
  153MOL0     H20612   9.943   6.346   0.493 -0.0957 -0.6486  0.1547
  153MOL0     H20613   9.796   6.243   0.317 -2.4239 -1.2791 -1.5559
  153MOL0     H20614   9.725   6.392   0.383 -0.8907 -0.7690 -1.3280
  153MOL0     H20615   9.418   6.090   0.477  0.8046  3.5075  1.2352
  153MOL0     H20616   9.185   5.934   0.260 -2.4640 -2.4936  2.8699
  153MOL0     H20617   9.244   5.964   0.423 -2.3319 -0.1313  0.7140
  153MOL0     H20618   9.126   6.079   0.347  2.6185  3.5035 -0.1641
  153MOL0     H20619   9.040   6.317  -0.121 -2.2026 -1.9214  2.0727
  153MOL0     H20620   8.926   6.314  -0.323 -1.5962 -2.1016 -0.8369
  153MOL0     H20621   8.825   6.232  -0.519  1.5372  0.7214  0.6770
  153MOL0     H20622   8.926   6.343  -0.619 -2.0940  0.3389 -0.8260
  153MOL0     H20623   8.925   6.153  -0.802  0.3678 -0.2560  0.7993
  153MOL0     H20624   8.791   6.079  -0.711  0.7212 -1.5662 -2.6022
  153MOL0     H20625   8.791   6.361  -0.816  0.9890  0.0630  0.7773
  153MOL0     H20626   8.657   6.289  -0.726  3.7376  1.0262  2.7602
  153MOL0     H20627   8.758   6.204  -1.006 -0.0226  1.0530 -0.0314
  153MOL0     H20628   8.630   6.124  -0.922  0.3079 -0.7817 -2.1595
  153MOL0     H20629   8.553   6.295  -1.091  1.1086 -0.6340 -0.4546
  153MOL0     H20630   8.622   6.432  -0.987 -0.4360  0.8028  0.7677
  153MOL0     H20631   8.417   6.224  -0.885  0.1030  0.4255  2.2039
  153MOL0     H20632   8.470   6.369  -0.801  0.8462 -0.7230 -0.1539
  153MOL0     H20633   8.242   6.377  -0.899 -0.1674  0.5099  1.4509
  153MOL0     H20634   8.313   6.373  -1.061 -2.1752 -1.4696  0.9195
  153MOL0     H20635   8.436   6.594  -0.996  0.4645  0.4460  0.3231
  153MOL0     H20636   8.332   6.588  -0.842  0.8979 -1.1875 -0.0987
  153MOL0     H20637   9.224   6.054  -0.494  1.7239  1.1590  0.8612
  153MOL0     H20638   9.335   6.053  -0.250  0.5256  1.2452  0.3297
  153MOL0     H20639   9.458   6.287   0.022  0.3836  0.8381  0.4071
  153MOL0     H20640   9.645   6.303   0.181  0.5810 -1.9084 -1.5103
  153MOL0     H20641  10.505   6.937   1.244  0.4348  3.2085 -1.1242
  153MOL0     H20642  10.760   6.950   1.225  2.0605  0.6818  0.6707
  153MOL0     H20643  11.143   7.087   1.314  0.0452 -2.8439 -0.5870
  153MOL0     H20644  11.376   7.182   1.354  1.2233 -0.7015  1.0515
  153MOL0     H20645  11.603   7.160   1.362  0.4721 -0.6873  0.6947
  153MOL0     H20646  11.563   7.311   1.446  2.3142  0.9707  2.3791
  153MOL0     H20647  11.765   7.096   1.487 -3.2850  0.1494 -1.2557
  153MOL0     H20648  11.746   7.217   1.621  0.0918  0.1451  0.1582
  153MOL0     H20649  11.820   7.405   1.480  2.5037  0.1552 -0.8457
  153MOL0     H20650  11.801   7.313   1.337  0.0863 -2.0516  0.6205
  153MOL0     H20651  12.041   7.319   1.382 -0.8537 -1.8318 -1.7600
  153MOL0     H20652  12.000   7.163   1.444  0.2578  0.0538  0.9213
  153MOL0     H20653  12.107   7.396   1.784  1.2392 -1.0067  0.4433
  153MOL0     H20654  11.383   6.985   1.727 -2.8977 -0.2682  1.0198
  153MOL0     H20655  11.165   6.899   1.689  2.3702 -0.9828  0.5890
  154MOL0     O20656   4.018   9.652   9.513 -0.3174  0.3722 -0.3843
  154MOL0     C20657   3.994   9.690   9.401  0.7841  0.4314  0.2744
  154MOL0     O20658   3.867   9.712   9.350 -0.2203 -0.0464 -0.2720
  154MOL0     C20659   3.752   9.696   9.432  0.2150 -0.6693  0.3336
  154MOL0     C20660   3.671   9.807   9.437  0.1073  0.1481  0.2457
  154MOL0     C20661   3.552   9.805   9.508  0.0796  0.0778  0.2402
  154MOL0     C20662   3.510   9.684   9.580 -0.3268 -0.0073 -0.3217
  154MOL0     O20663   3.395   9.683   9.658 -0.0342  0.0883 -0.6832
  154MOL0     C20664   3.288   9.775   9.610  0.1033 -0.3305  0.3119
  154MOL0     C20665   3.170   9.736   9.701 -0.7968  0.6876 -0.4066
  154MOL0     C20666   3.070   9.853   9.716  0.1325 -0.8407 -0.4224
  154MOL0     C20667   2.946   9.806   9.794 -0.2465 -0.4660  0.5764
  154MOL0     C20668   2.849   9.927   9.823  0.1748 -0.2645  0.6090
  154MOL0     C20669   2.783   9.980   9.696 -0.3051  0.4881 -0.5393
  154MOL0     C20670   2.688  10.096   9.729  0.5459  0.6276 -0.9551
  154MOL0     C20671   2.752  10.218   9.789 -0.0453 -0.0623 -0.4524
  154MOL0     N20672   2.656  10.329   9.779  0.4195 -0.1228  0.0863
  154MOL0     C20673   2.549  10.346   9.866 -0.2905  0.0603  0.0078
  154MOL0     C20674   2.501  10.472   9.827  0.0718  0.2025  0.2037
  154MOL0     C20675   2.394  10.543   9.898  0.3892  0.1702  1.1344
  154MOL0     C20676   2.260  10.519   9.821 -0.2383  1.0458  0.3771
  154MOL0     C20677   2.207  10.382   9.846 -0.2816 -0.2167  0.0152
  154MOL0     C20678   2.097  10.348   9.746 -0.5828 -0.1586  0.1143
  154MOL0     O20679   1.980  10.426   9.779 -0.6728  0.1007 -0.3361
  154MOL0     C20680   1.860  10.383   9.747  0.3058  0.2432  0.2915
  154MOL0     C20681   1.841  10.261   9.676  0.3082 -0.5888  0.6545
  154MOL0     C20682   1.713  10.214   9.638  0.6739 -0.8994  0.6246
  154MOL0     C20683   1.710  10.081   9.565 -0.9822 -0.3382 -0.4581
  154MOL0     C20684   1.599  10.284   9.677 -0.4748 -0.7508 -0.2905
  154MOL0     C20685   1.456  10.249   9.652 -0.5322 -0.8605 -0.0620
  154MOL0     O20686   1.365  10.348   9.687 -0.7675 -0.2394  0.4787
  154MOL0     C20687   1.228  10.339   9.665  0.0198 -0.4002  0.1323
  154MOL0     C20688   1.181  10.257   9.563 -0.2159 -0.2034  0.0068
  154MOL0     C20689   1.048  10.241   9.543 -0.1238 -0.5342  0.0996
  154MOL0     C20690   0.954  10.312   9.626 -0.2567  0.3652  0.0872
  154MOL0     O20691   0.814  10.289   9.605 -0.0836 -0.0439  0.2480
  154MOL0     C20692   0.723  10.257   9.709  0.2502 -0.2548  0.5856
  154MOL0     C20693   0.754  10.133   9.776 -0.2602 -0.0517 -0.6402
  154MOL0     C20694   0.662  10.107   9.892 -0.1194  0.1162 -0.3459
  154MOL0     C20695   0.717  10.146  10.035  0.2351 -0.0059  0.3454
  154MOL0     C20696   0.626  10.112  10.151  0.0157 -0.2136 -0.1222
  154MOL0     C20697   0.593   9.961  10.156  0.1338 -0.0976 -1.2634
  154MOL0     C20698   0.505   9.901  10.265  0.3094  0.5153 -0.0299
  154MOL0     C20699   0.441   9.769  10.213  0.2264  0.4973 -0.6079
  154MOL0    Cl20700   0.570   9.663  10.158 -0.0990 -0.3882  0.3608
  154MOL0     C20701   1.007  10.396   9.728  0.0082 -0.0925  0.2831
  154MOL0     C20702   1.143  10.407   9.753  0.2479  1.2993  0.3921
  154MOL0     O20703   1.427  10.135   9.626  0.0952  0.0422  0.0576
  154MOL0     C20704   1.622  10.402   9.748  0.1350  0.0939 -0.0531
  154MOL0     C20705   1.750  10.452   9.779  0.0431 -0.2545 -0.3293
  154MOL0     N20706   2.578  10.530   9.730 -0.0254 -0.8147  0.4918
  154MOL0     N20707   2.669  10.444   9.698  0.0850  0.3333  0.3910
  154MOL0     C20708   3.599   9.571   9.575 -1.2643 -0.0439 -0.2640
  154MOL0     C20709   3.713   9.578   9.503 -0.2974  0.0291  0.5106
  154MOL0     C20710   4.109   9.732   9.314  0.1061 -0.6264 -0.3970
  154MOL0     C20711   4.239   9.685   9.351  0.3560  0.3790  1.0108
  154MOL0     C20712   4.345   9.732   9.270 -0.5825 -0.3777  0.2376
  154MOL0     C20713   4.345   9.824   9.163  0.3741 -0.4627 -0.0184
  154MOL0     O20714   4.462   9.837   9.085  0.2686 -0.0976 -0.4883
  154MOL0     C20715   4.453   9.941   8.984  0.0830  0.2019  0.1519
  154MOL0     C20716   4.467  10.077   9.048  0.6394 -0.7352 -0.4133
  154MOL0     C20717   4.473  10.191   8.941 -0.0256 -0.1793  0.1364
  154MOL0     C20718   4.457  10.330   9.017 -0.6975  0.6946 -0.0520
  154MOL0     C20719   4.559  10.348   9.124  0.0787  1.0563 -0.6157
  154MOL0     C20720   4.646  10.367   9.212 -0.7474  0.5374 -0.0677
  154MOL0     C20721   4.210   9.866   9.137 -0.3538 -0.5717  1.0376
  154MOL0     C20722   4.095   9.818   9.202 -0.1766  0.3111 -0.6972
  154MOL0     H20723   3.700   9.901   9.392 -0.9008  0.4062  0.1004
  154MOL0     H20724   3.489   9.892   9.497  1.3200  0.9712  0.0241
  154MOL0     H20725   3.302   9.883   9.611 -2.7729  0.1157  1.1638
  154MOL0     H20726   3.252   9.749   9.510 -1.4582  0.2786  0.6900
  154MOL0     H20727   3.120   9.648   9.658  1.8531 -0.8144 -0.6130
  154MOL0     H20728   3.206   9.699   9.797 -2.0148  0.1752 -0.1278
  154MOL0     H20729   3.123   9.930   9.774  1.8988 -3.6561  2.0022
  154MOL0     H20730   3.025   9.881   9.621  2.3885  0.3831 -1.2074
  154MOL0     H20731   2.893   9.730   9.735 -1.5625 -0.5888  1.8442
  154MOL0     H20732   2.976   9.757   9.887  1.1903 -2.1607 -0.7151
  154MOL0     H20733   2.772   9.896   9.894 -0.5874 -2.8024 -1.1718
  154MOL0     H20734   2.911  10.004   9.871  0.9993  1.1224 -2.4700
  154MOL0     H20735   2.857  10.018   9.625  0.5880 -1.3899 -0.6700
  154MOL0     H20736   2.731   9.895   9.651 -0.3376  0.8696 -1.2402
  154MOL0     H20737   2.643  10.128   9.635  0.8181 -0.4248 -1.4571
  154MOL0     H20738   2.613  10.059   9.799  0.7680 -1.2001 -1.6158
  154MOL0     H20739   2.840  10.235   9.728  0.0998  1.4299  0.1209
  154MOL0     H20740   2.780  10.204   9.894 -0.5469  2.5024  0.1052
  154MOL0     H20741   2.522  10.279   9.947  0.5718 -1.2898 -0.7856
  154MOL0     H20742   2.383  10.499   9.998 -3.0585 -1.4684  0.1887
  154MOL0     H20743   2.414  10.651   9.900  0.3957  0.2048 -0.0933
  154MOL0     H20744   2.293  10.532   9.718  0.1380  0.4488  0.4225
  154MOL0     H20745   2.182  10.590   9.851  0.8860  1.1479  3.4005
  154MOL0     H20746   2.163  10.374   9.946  0.9661  2.9061  0.9189
  154MOL0     H20747   2.279  10.302   9.826 -1.0488 -0.2917 -3.0209
  154MOL0     H20748   2.088  10.239   9.746  0.1572 -0.2339 -0.9029
  154MOL0     H20749   2.133  10.373   9.646  0.6872  0.8599  0.7934
  154MOL0     H20750   1.922  10.203   9.634 -0.6286 -1.0476 -0.5949
  154MOL0     H20751   1.696  10.002   9.640  0.5073 -1.7665 -1.6322
  154MOL0     H20752   1.630  10.083   9.490 -1.1747  0.5184 -0.2446
  154MOL0     H20753   1.799  10.042   9.515 -1.2097 -1.7984  0.2313
  154MOL0     H20754   1.249  10.218   9.488  1.5709  0.9329  0.9890
  154MOL0     H20755   1.008  10.173   9.469 -1.1849 -1.0842  1.1391
  154MOL0     H20756   0.714  10.328   9.792  3.9019 -1.0357  1.8391
  154MOL0     H20757   0.630  10.245   9.654  1.8180 -2.5170 -1.7907
  154MOL0     H20758   0.750  10.047   9.710  0.2385 -2.5780  2.3804
  154MOL0     H20759   0.858  10.126   9.810 -0.1016  1.1736 -0.8129
  154MOL0     H20760   0.641  10.000   9.886 -1.5518  0.4509 -2.2553
  154MOL0     H20761   0.568  10.162   9.882  0.9785  2.5157  1.5289
  154MOL0     H20762   0.812  10.092  10.041 -0.3363 -1.1236 -0.2685
  154MOL0     H20763   0.746  10.251  10.033  0.0772  0.0701  1.4280
  154MOL0     H20764   0.540  10.179  10.138  0.6555  0.6654  0.0428
  154MOL0     H20765   0.668  10.142  10.248  1.9879 -0.3792 -0.8880
  154MOL0     H20766   0.540   9.939  10.062 -0.0756 -0.6508 -1.0177
  154MOL0     H20767   0.689   9.909  10.157 -1.0936 -2.5946  1.0415
  154MOL0     H20768   0.420   9.962  10.296 -2.1379 -2.6573  0.0677
  154MOL0     H20769   0.564   9.889  10.356  0.0572  1.1933  0.2255
  154MOL0     H20770   0.370   9.796  10.133 -1.2311 -2.1419 -0.3158
  154MOL0     H20771   0.378   9.721  10.288  1.7898 -0.3914  0.1678
  154MOL0     H20772   0.938  10.443   9.797 -1.0714 -0.2804 -0.6332
  154MOL0     H20773   1.180  10.468   9.835  0.2725 -0.3353  1.6279
  154MOL0     H20774   1.533  10.458   9.775  0.4143  1.0075 -0.9405
  154MOL0     H20775   1.761  10.539   9.843  0.6870 -1.9406  1.9616
  154MOL0     H20776   3.576   9.487   9.641 -1.6119  0.7008  0.5816
  154MOL0     H20777   3.769   9.487   9.487 -1.5394 -0.8323  0.8904
  154MOL0     H20778   4.263   9.633   9.443  0.5037 -3.6147 -1.0589
  154MOL0     H20779   4.437   9.685   9.304 -1.5352 -2.3519  0.2654
  154MOL0     H20780   4.530   9.931   8.907  0.1389  2.1163 -0.0950
  154MOL0     H20781   4.361   9.932   8.925  0.3334 -2.0094  0.0080
  154MOL0     H20782   4.562  10.091   9.101  1.5703 -2.1297 -1.6034
  154MOL0     H20783   4.380  10.094   9.112  1.3280 -0.7387  0.5447
  154MOL0     H20784   4.394  10.180   8.866 -0.0071 -3.0696  0.4128
  154MOL0     H20785   4.562  10.188   8.877  0.0635 -0.7435  0.2828
  154MOL0     H20786   4.363  10.332   9.074 -0.6205  2.8850  0.0557
  154MOL0     H20787   4.456  10.422   8.959  3.6793  1.1988  0.3903
  154MOL0     H20788   4.716  10.395   9.289  1.0492  4.1444 -2.6843
  154MOL0     H20789   4.195   9.936   9.056  0.2860 -1.9836 -0.3514
  154MOL0     H20790   3.995   9.845   9.169 -0.6739 -0.4756  0.0943
  155MOL0     O20791   2.148   6.496   4.280  0.2812  0.3044  1.0193
  155MOL0     C20792   2.173   6.395   4.341 -0.3152 -0.2159 -1.0590
  155MOL0     O20793   2.081   6.308   4.394  0.6413 -0.5206  0.0509
  155MOL0     C20794   1.949   6.336   4.385  0.2514 -0.7434  0.2482
  155MOL0     C20795   1.863   6.222   4.375 -0.9360 -0.2149  0.4085
  155MOL0     C20796   1.724   6.233   4.374 -0.3747  0.6674 -0.0924
  155MOL0     C20797   1.662   6.356   4.371  0.4350 -0.1487 -0.2976
  155MOL0     O20798   1.527   6.378   4.355 -0.6170  0.0285 -0.5328
  155MOL0     C20799   1.492   6.414   4.223  0.3346  0.4224 -0.1250
  155MOL0     C20800   1.350   6.472   4.228 -0.0011  0.7865  0.1533
  155MOL0     C20801   1.247   6.359   4.248 -0.7960  0.0423 -0.2273
  155MOL0     C20802   1.103   6.400   4.198  0.1954  0.3632 -0.4935
  155MOL0     C20803   0.998   6.321   4.269 -0.0946 -0.2003  0.1108
  155MOL0     C20804   0.854   6.350   4.219 -0.2016  0.3538 -0.3088
  155MOL0     C20805   0.823   6.299   4.073  0.5818 -1.1038  0.9939
  155MOL0     C20806   0.677   6.317   4.027  0.0201  0.2819 -0.4750
  155MOL0     N20807   0.630   6.457   4.012  0.9087  0.7221 -1.4904
  155MOL0     C20808   0.685   6.557   3.939  0.1189  0.9146 -0.2663
  155MOL0     C20809   0.631   6.675   3.985 -0.1702  0.7993 -0.0090
  155MOL0     C20810   0.655   6.806   3.926  0.0385  0.1599 -0.7805
  155MOL0     C20811   0.635   6.819   3.780 -0.5608 -0.1134  0.4636
  155MOL0     C20812   0.497   6.812   3.724  0.6649  0.0458  0.3618
  155MOL0     C20813   0.420   6.934   3.790 -0.3889 -0.1176 -0.7864
  155MOL0     O20814   0.286   6.930   3.738  1.0352 -0.0404  0.0916
  155MOL0     C20815   0.199   6.847   3.810  1.0234  0.2221  0.3427
  155MOL0     C20816   0.229   6.757   3.911  0.6296  0.1969 -0.0354
  155MOL0     C20817   0.132   6.692   3.985  0.6442  0.0392 -1.1678
  155MOL0     C20818   0.186   6.595   4.094 -0.3625 -0.1781 -0.5096
  155MOL0     C20819  -0.007   6.707   3.951 -0.3983 -0.3755  0.3056
  155MOL0     C20820  -0.123   6.636   4.022 -0.0810 -0.1512  0.7306
  155MOL0     O20821  -0.236   6.610   3.945 -0.1013 -0.0434  0.1703
  155MOL0     C20822  -0.351   6.569   4.009  0.0874 -0.4271  0.4374
  155MOL0     C20823  -0.409   6.455   3.961 -0.5172  0.5243 -0.4558
  155MOL0     C20824  -0.535   6.412   4.010  0.0147  0.0560  0.4681
  155MOL0     C20825  -0.613   6.498   4.090  0.4888  0.4500 -0.0570
  155MOL0     O20826  -0.737   6.461   4.126  0.5712  0.5856 -0.2492
  155MOL0     C20827  -0.818   6.362   4.066 -0.1312 -0.2325 -0.4031
  155MOL0     C20828  -0.966   6.371   4.122 -0.1624  0.5703 -0.2161
  155MOL0     C20829  -1.021   6.499   4.066  0.0265  0.5030 -0.8740
  155MOL0     C20830  -1.158   6.538   4.124  0.1201 -0.2107  0.4399
  155MOL0     C20831  -1.222   6.650   4.042 -1.0563 -0.0715  0.6382
  155MOL0     C20832  -1.345   6.685   4.113  0.6824  0.0817 -0.0895
  155MOL0     C20833  -1.429   6.792   4.045  0.7230  0.3946 -0.2382
  155MOL0     C20834  -1.561   6.823   4.116 -0.1976  0.1025 -0.1138
  155MOL0    Cl20835  -1.693   6.718   4.060  0.3117 -0.2980  0.0625
  155MOL0     C20836  -0.560   6.617   4.137  0.1568 -0.2355  0.1264
  155MOL0     C20837  -0.417   6.640   4.105  0.1733 -0.6429 -0.5829
  155MOL0     O20838  -0.110   6.614   4.137  0.6391  0.3866  0.0016
  155MOL0     C20839  -0.036   6.779   3.836 -0.0878 -0.6400 -0.0903
  155MOL0     C20840   0.064   6.844   3.765 -0.8836 -0.1282  0.1943
  155MOL0     N20841   0.542   6.643   4.090  0.5012  0.7842 -0.0792
  155MOL0     N20842   0.534   6.509   4.100 -0.3859 -0.1864  0.9432
  155MOL0     C20843   1.748   6.469   4.385 -0.5795 -0.5056  0.1588
  155MOL0     C20844   1.886   6.457   4.392 -0.2548  0.0200  0.5262
  155MOL0     C20845   2.316   6.362   4.383 -0.0229 -0.5036  1.2904
  155MOL0     C20846   2.358   6.232   4.429  0.3602 -0.3929 -0.7882
  155MOL0     C20847   2.494   6.207   4.464 -0.2519  0.1188  0.5032
  155MOL0     C20848   2.589   6.309   4.468  0.2022 -0.3480  0.4466
  155MOL0     O20849   2.718   6.284   4.511  0.0310 -0.4147 -0.2103
  155MOL0     C20850   2.789   6.391   4.579 -0.7678  0.3935 -0.6002
  155MOL0     C20851   2.925   6.347   4.643  0.0931  0.7635  0.5663
  155MOL0     C20852   3.017   6.281   4.536  0.0375 -0.0533 -0.4354
  155MOL0     C20853   3.135   6.213   4.596 -0.3968 -0.7015 -0.0796
  155MOL0     C20854   3.234   6.305   4.655  0.0784 -0.3906 -0.2019
  155MOL0     C20855   3.327   6.365   4.700  0.4479 -0.8847 -0.4065
  155MOL0     C20856   2.543   6.433   4.420  0.1588  0.0775 -0.4852
  155MOL0     C20857   2.412   6.455   4.370 -0.1393  0.3481 -0.1599
  155MOL0     H20858   1.911   6.125   4.369 -0.3046  0.1853 -1.4946
  155MOL0     H20859   1.673   6.138   4.387  0.2657  0.2387 -0.6528
  155MOL0     H20860   1.563   6.489   4.188  1.2228 -0.6195 -0.6219
  155MOL0     H20861   1.497   6.335   4.148 -3.0931  0.4749 -0.5659
  155MOL0     H20862   1.343   6.550   4.304 -1.0562  1.0178 -0.1636
  155MOL0     H20863   1.334   6.512   4.127 -0.4702  0.2145 -0.0095
  155MOL0     H20864   1.283   6.264   4.207  1.1569  0.4721  0.3941
  155MOL0     H20865   1.236   6.332   4.353 -1.9681 -2.2119 -0.8697
  155MOL0     H20866   1.081   6.507   4.207 -2.1620  0.0684 -1.8380
  155MOL0     H20867   1.111   6.370   4.093  0.1123 -2.7821  0.2838
  155MOL0     H20868   1.023   6.216   4.255  2.7088  0.7379 -3.1872
  155MOL0     H20869   1.008   6.344   4.376 -0.6255  0.1570  0.0866
  155MOL0     H20870   0.784   6.303   4.289  1.2906 -0.5495  0.6345
  155MOL0     H20871   0.835   6.457   4.227 -2.2859 -0.0381  0.7791
  155MOL0     H20872   0.894   6.345   4.003  2.3874  0.7126  3.8224
  155MOL0     H20873   0.838   6.192   4.062  0.8883 -0.8966 -1.3025
  155MOL0     H20874   0.607   6.264   4.092 -0.0192  1.2200  0.2785
  155MOL0     H20875   0.679   6.273   3.927  0.4869 -2.2941  0.5958
  155MOL0     H20876   0.750   6.519   3.860 -2.1800 -1.2509 -1.2616
  155MOL0     H20877   0.597   6.881   3.980 -0.2807  1.8514 -3.2836
  155MOL0     H20878   0.761   6.821   3.946  0.1990 -2.9950  1.5638
  155MOL0     H20879   0.675   6.732   3.727 -2.9270 -0.5845 -0.6790
  155MOL0     H20880   0.695   6.902   3.743  2.3291 -2.5875 -0.8793
  155MOL0     H20881   0.444   6.720   3.750  0.4960  0.6027  2.1461
  155MOL0     H20882   0.498   6.839   3.618 -1.8074 -0.4201  0.1743
  155MOL0     H20883   0.473   7.021   3.751 -1.3262 -0.3311 -2.6298
  155MOL0     H20884   0.417   6.922   3.899 -0.9923  0.3609 -0.7450
  155MOL0     H20885   0.328   6.745   3.953  1.2844  1.8293 -1.0162
  155MOL0     H20886   0.293   6.616   4.103 -0.6028  0.6268  0.7591
  155MOL0     H20887   0.145   6.605   4.195 -0.4406 -3.5664 -0.0999
  155MOL0     H20888   0.176   6.494   4.052  0.9204  0.6092 -2.9130
  155MOL0     H20889  -0.345   6.396   3.897  1.9404  1.1136  1.2926
  155MOL0     H20890  -0.578   6.314   3.990  1.0034 -0.4254  0.6126
  155MOL0     H20891  -0.816   6.374   3.958 -3.0977 -2.3636 -0.8169
  155MOL0     H20892  -0.779   6.266   4.099  0.4235 -0.0961 -0.6593
  155MOL0     H20893  -1.011   6.280   4.081  1.4868  1.0580 -3.4352
  155MOL0     H20894  -0.963   6.369   4.231  4.0683  0.3017 -0.1769
  155MOL0     H20895  -1.030   6.489   3.957 -4.6439 -2.1845 -0.5542
  155MOL0     H20896  -0.946   6.577   4.076 -0.0625  0.6334 -1.1974
  155MOL0     H20897  -1.220   6.448   4.127  0.0061 -0.1778 -0.5875
  155MOL0     H20898  -1.150   6.581   4.225 -0.6445 -1.2222  0.9454
  155MOL0     H20899  -1.245   6.613   3.942  1.5652  0.1867 -0.1367
  155MOL0     H20900  -1.161   6.740   4.029  1.0308 -1.1662  2.1734
  155MOL0     H20901  -1.400   6.590   4.111  1.8677 -0.6197 -2.4853
  155MOL0     H20902  -1.334   6.706   4.220  2.2541 -0.2329 -0.1757
  155MOL0     H20903  -1.451   6.754   3.945  0.3923 -0.5622  0.1908
  155MOL0     H20904  -1.376   6.888   4.043 -0.5168  1.1860  1.7359
  155MOL0     H20905  -1.584   6.929   4.097 -2.8336 -0.8368 -3.1031
  155MOL0     H20906  -1.556   6.806   4.224 -1.2371  2.7886  0.4415
  155MOL0     H20907  -0.616   6.681   4.205 -0.1197  0.1632 -0.4655
  155MOL0     H20908  -0.373   6.720   4.162  0.6463 -0.5855 -1.0230
  155MOL0     H20909  -0.133   6.784   3.788  1.0510 -0.6824 -2.5495
  155MOL0     H20910   0.023   6.915   3.693  0.2831  0.2891 -0.0699
  155MOL0     H20911   1.707   6.569   4.382 -0.5256 -0.4813  0.2346
  155MOL0     H20912   1.952   6.542   4.403  0.5032 -0.3445 -0.9660
  155MOL0     H20913   2.284   6.154   4.420 -0.7385  0.3665  1.0379
  155MOL0     H20914   2.535   6.110   4.491  0.0675 -0.0101 -0.4117
  155MOL0     H20915   2.817   6.478   4.518 -0.8280 -0.5998 -2.0937
  155MOL0     H20916   2.724   6.431   4.658 -0.4935 -1.7155  0.7764
  155MOL0     H20917   2.913   6.266   4.715  0.9828  0.7345  0.6972
  155MOL0     H20918   2.974   6.429   4.696  0.5418 -0.1427  1.5795
  155MOL0     H20919   3.048   6.351   4.458 -1.8309  0.8018 -0.4659
  155MOL0     H20920   2.963   6.197   4.491  1.2846 -0.2893 -1.5307
  155MOL0     H20921   3.186   6.153   4.519 -2.4295 -1.2221 -1.0797
  155MOL0     H20922   3.104   6.138   4.670  0.3640 -0.0950  0.8687
  155MOL0     H20923   3.413   6.412   4.742 -0.9171  1.3820 -0.0228
  155MOL0     H20924   2.622   6.507   4.411  1.4026 -1.1241  0.1964
  155MOL0     H20925   2.401   6.558   4.337  1.6607  0.8716  0.7365
  156MOL0     O20926   4.345   6.358   3.876 -0.4021 -0.2455 -0.2072
  156MOL0     C20927   4.348   6.423   3.774 -0.2594  0.7337 -0.4450
  156MOL0     O20928   4.237   6.459   3.706 -0.1014 -0.2954 -0.6873
  156MOL0     C20929   4.113   6.418   3.751  0.0758  0.2847  0.4162
  156MOL0     C20930   4.084   6.281   3.766  0.1994 -0.9853  0.6346
  156MOL0     C20931   3.954   6.240   3.804  0.0115 -0.1435 -0.6901
  156MOL0     C20932   3.845   6.323   3.827  0.7989  0.1847 -0.2114
  156MOL0     O20933   3.719   6.269   3.849 -0.4952 -0.3229  0.2996
  156MOL0     C20934   3.632   6.357   3.918 -0.0128  0.2347 -0.2297
  156MOL0     C20935   3.520   6.264   3.966  0.0809  0.2231 -0.4057
  156MOL0     C20936   3.561   6.138   4.035 -0.3651 -0.0967 -0.1106
  156MOL0     C20937   3.551   6.005   3.948 -0.8248  0.7888  0.3198
  156MOL0     C20938   3.618   5.893   4.027  0.7523  0.6545  0.0624
  156MOL0     C20939   3.521   5.852   4.142  0.2717 -0.5701  0.7232
  156MOL0     C20940   3.576   5.729   4.213  0.0732  0.2565  1.1416
  156MOL0     C20941   3.540   5.609   4.137  0.4370  0.7676 -0.6179
  156MOL0     N20942   3.397   5.578   4.161 -0.3133 -0.5623  0.6002
  156MOL0     C20943   3.317   5.548   4.055 -0.7273  0.4949  0.1430
  156MOL0     C20944   3.205   5.484   4.107 -0.9802  0.4374 -0.1501
  156MOL0     C20945   3.085   5.447   4.021  0.1043 -0.5965 -0.6014
  156MOL0     C20946   3.000   5.322   4.072 -0.5115 -0.0193 -0.3474
  156MOL0     C20947   2.923   5.345   4.204 -0.4614 -0.2842 -0.2346
  156MOL0     C20948   2.810   5.445   4.193 -0.6011  0.6897 -0.9701
  156MOL0     O20949   2.722   5.410   4.081  0.3294  0.4227  0.3978
  156MOL0     C20950   2.590   5.428   4.081  0.2662  0.0953 -0.0930
  156MOL0     C20951   2.525   5.355   3.973  0.6973  0.1167 -0.3582
  156MOL0     C20952   2.390   5.343   3.963  0.4887  0.2775 -0.8889
  156MOL0     C20953   2.340   5.275   3.842  0.2893 -0.0718 -0.1830
  156MOL0     C20954   2.311   5.410   4.064  0.0457 -0.1572  0.0530
  156MOL0     C20955   2.165   5.398   4.069 -0.5793  0.3906 -0.0480
  156MOL0     O20956   2.101   5.507   4.129 -0.0960  0.4836  0.2776
  156MOL0     C20957   1.968   5.506   4.131  0.0431  0.8840  0.2422
  156MOL0     C20958   1.897   5.523   4.011  0.9810 -0.5226  0.2851
  156MOL0     C20959   1.759   5.550   4.012 -0.1156 -0.1172 -0.8724
  156MOL0     C20960   1.677   5.542   4.128  0.6620 -0.4458  0.1902
  156MOL0     O20961   1.542   5.557   4.112  0.2772 -0.4168  0.0887
  156MOL0     C20962   1.453   5.514   4.221  0.2735 -0.0603  0.3167
  156MOL0     C20963   1.315   5.474   4.154 -0.2534  0.1535  0.0678
  156MOL0     C20964   1.202   5.491   4.258 -0.8087  0.0377 -0.1906
  156MOL0     C20965   1.069   5.498   4.178  0.6491 -0.4941  0.3465
  156MOL0     C20966   0.934   5.490   4.253  0.5733 -0.7786 -0.1694
  156MOL0     C20967   0.806   5.501   4.146 -0.7293 -0.2953  0.2872
  156MOL0     C20968   0.667   5.491   4.217 -0.2512  0.8695  0.2982
  156MOL0     C20969   0.652   5.549   4.352 -0.9025 -0.8568 -0.2404
  156MOL0    Cl20970   0.709   5.430   4.479 -0.0522  0.0877 -0.5796
  156MOL0     C20971   1.746   5.519   4.253 -0.4982  0.5623  0.0890
  156MOL0     C20972   1.889   5.504   4.242  0.4840  0.6679 -0.3230
  156MOL0     O20973   2.114   5.287   4.044 -0.3111 -0.1728  0.4937
  156MOL0     C20974   2.376   5.488   4.164  0.5856 -0.3414  1.1919
  156MOL0     C20975   2.512   5.497   4.175  0.3919  0.9118  0.7499
  156MOL0     N20976   3.232   5.475   4.245 -0.1236  0.1934 -0.0786
  156MOL0     N20977   3.337   5.534   4.273  0.5957  0.6340  0.1821
  156MOL0     C20978   3.869   6.458   3.803 -0.1822  0.5529  0.8406
  156MOL0     C20979   4.000   6.502   3.774 -1.2945 -0.0838 -0.4332
  156MOL0     C20980   4.483   6.471   3.734  0.2413  0.3606 -0.1195
  156MOL0     C20981   4.601   6.429   3.795  0.5713  0.0466 -0.2507
  156MOL0     C20982   4.732   6.458   3.743  1.2928 -0.1685  0.2426
  156MOL0     C20983   4.749   6.540   3.634 -0.1124  0.5096  0.2437
  156MOL0     O20984   4.864   6.569   3.567  0.0671  1.0093  0.6337
  156MOL0     C20985   4.993   6.517   3.605  1.3286  0.0986 -0.5674
  156MOL0     C20986   5.027   6.386   3.538  0.3068 -0.4124 -1.0601
  156MOL0     C20987   5.171   6.334   3.569 -0.7090  0.1147  0.5642
  156MOL0     C20988   5.213   6.321   3.719  1.1045  0.1914  0.0895
  156MOL0     C20989   5.133   6.225   3.800 -0.1676 -1.0774  0.2503
  156MOL0     C20990   5.073   6.137   3.855 -0.4633 -0.3996 -0.7086
  156MOL0     C20991   4.625   6.598   3.594  0.3594 -0.2636 -0.5547
  156MOL0     C20992   4.497   6.565   3.631  0.2004  0.3929 -0.2181
  156MOL0     H20993   4.169   6.214   3.751  1.5441  0.8029 -0.0541
  156MOL0     H20994   3.941   6.132   3.812 -2.0774  0.0921 -0.2058
  156MOL0     H20995   3.681   6.414   3.998 -1.2187  0.1501  0.6067
  156MOL0     H20996   3.583   6.419   3.843 -0.5980 -0.9235 -0.8480
  156MOL0     H20997   3.458   6.325   4.032 -0.5314  1.1777 -1.8253
  156MOL0     H20998   3.455   6.244   3.881 -0.2246  1.4891 -0.4869
  156MOL0     H20999   3.666   6.146   4.067 -0.2505 -2.5162  0.3848
  156MOL0     H21000   3.488   6.125   4.115 -2.1265  0.8536 -1.5148
  156MOL0     H21001   3.450   5.976   3.918 -0.4846  0.6409 -0.7203
  156MOL0     H21002   3.605   6.021   3.855  1.8996 -3.1207  0.9941
  156MOL0     H21003   3.631   5.810   3.957  1.9826  0.6648  0.2733
  156MOL0     H21004   3.718   5.923   4.059  0.0651  4.7779 -1.0736
  156MOL0     H21005   3.521   5.932   4.216  2.0325  0.7100 -0.5752
  156MOL0     H21006   3.422   5.826   4.102  1.5084 -1.8736 -1.7244
  156MOL0     H21007   3.685   5.728   4.224  0.3899  1.4083 -1.1638
  156MOL0     H21008   3.535   5.721   4.314  2.1163 -0.9372  1.9267
  156MOL0     H21009   3.593   5.521   4.176 -0.3584  0.7924  0.5485
  156MOL0     H21010   3.560   5.614   4.029 -0.0361 -0.3281 -0.7688
  156MOL0     H21011   3.333   5.563   3.949 -0.7181 -0.2278  0.0348
  156MOL0     H21012   3.024   5.536   4.005 -1.1151 -1.2871  0.0364
  156MOL0     H21013   3.131   5.420   3.925 -0.7712 -2.5689 -0.5221
  156MOL0     H21014   3.066   5.234   4.075 -3.5017 -2.4301  0.3755
  156MOL0     H21015   2.937   5.295   3.987  0.2327 -1.1856 -0.5606
  156MOL0     H21016   2.982   5.376   4.291 -0.9714 -1.9459  0.7532
  156MOL0     H21017   2.881   5.250   4.240 -0.5497  0.0576  0.5741
  156MOL0     H21018   2.857   5.542   4.170  0.5132  0.2700 -0.5422
  156MOL0     H21019   2.768   5.471   4.290  0.0477  1.2008 -0.8135
  156MOL0     H21020   2.593   5.315   3.899  0.4764  0.6698 -0.8773
  156MOL0     H21021   2.299   5.176   3.862  1.3535 -0.1864  1.5901
  156MOL0     H21022   2.268   5.335   3.785 -2.1306 -2.1360  0.5427
  156MOL0     H21023   2.418   5.266   3.766 -1.0204 -0.9141 -1.4858
  156MOL0     H21024   1.952   5.516   3.919  1.3186  0.7276  0.3633
  156MOL0     H21025   1.722   5.551   3.910  0.5482  1.5879 -1.1375
  156MOL0     H21026   1.492   5.429   4.278  0.9505  0.8663  1.2594
  156MOL0     H21027   1.447   5.596   4.293 -4.7093 -1.1861  1.5879
  156MOL0     H21028   1.281   5.528   4.065  2.7700  0.7249 -0.8440
  156MOL0     H21029   1.322   5.369   4.124  2.2329 -0.2106  1.6289
  156MOL0     H21030   1.212   5.584   4.314  0.2254 -0.1811  0.0121
  156MOL0     H21031   1.208   5.403   4.323 -0.4301  1.3791  1.6519
  156MOL0     H21032   1.073   5.592   4.123  0.7127  0.2735  1.6350
  156MOL0     H21033   1.075   5.418   4.103 -0.2626 -1.2236  1.0302
  156MOL0     H21034   0.920   5.568   4.327 -2.2090  0.4854 -1.8564
  156MOL0     H21035   0.925   5.389   4.294 -0.5685 -1.5601 -2.1958
  156MOL0     H21036   0.813   5.594   4.090 -0.7255  0.3389  1.3027
  156MOL0     H21037   0.822   5.414   4.082 -1.1697 -1.0320  1.1556
  156MOL0     H21038   0.633   5.387   4.214  0.8063  0.5201 -2.3923
  156MOL0     H21039   0.586   5.542   4.162  0.0139  0.3053 -0.6360
  156MOL0     H21040   0.547   5.574   4.371 -1.0944 -1.6400 -0.2641
  156MOL0     H21041   0.700   5.646   4.370 -2.0328 -0.3355  0.0803
  156MOL0     H21042   1.711   5.524   4.355  1.3443 -2.7875  1.0365
  156MOL0     H21043   1.931   5.482   4.339 -3.1031 -0.7925  1.0608
  156MOL0     H21044   2.311   5.539   4.235  1.5527 -0.2964  2.0771
  156MOL0     H21045   2.557   5.549   4.259 -0.3523  1.4011  0.8506
  156MOL0     H21046   3.796   6.538   3.809 -0.3400  0.5407 -0.6925
  156MOL0     H21047   4.015   6.608   3.760 -0.6910 -0.0293  0.5408
  156MOL0     H21048   4.602   6.358   3.878  0.6019 -0.7718 -0.9410
  156MOL0     H21049   4.819   6.418   3.795  0.0295 -2.8832  0.4364
  156MOL0     H21050   5.071   6.586   3.571  0.4780  1.7874  0.7581
  156MOL0     H21051   5.005   6.502   3.712  0.0023  0.1063 -0.4038
  156MOL0     H21052   5.025   6.400   3.430 -0.2878 -0.4155 -1.0541
  156MOL0     H21053   4.958   6.306   3.569  2.4002 -1.4690  1.3221
  156MOL0     H21054   5.241   6.407   3.529  0.0916 -0.1360  1.4738
  156MOL0     H21055   5.194   6.242   3.514  0.0109  1.2756 -1.1456
  156MOL0     H21056   5.202   6.418   3.769 -3.4520 -0.4428  0.7531
  156MOL0     H21057   5.319   6.297   3.720  1.0265 -0.2116 -0.8514
  156MOL0     H21058   5.016   6.052   3.890  0.7372 -0.4357  1.3558
  156MOL0     H21059   4.611   6.657   3.503 -1.5333 -1.5736 -1.1833
  156MOL0     H21060   4.407   6.595   3.578  1.2502  0.8611 -1.8461
  157MOL0     O21061   8.254   3.903   7.562 -0.6497  0.0253 -0.1260
  157MOL0     C21062   8.288   3.796   7.625 -0.0449 -0.1348  0.2969
  157MOL0     O21063   8.213   3.684   7.621  0.4293  0.4561  0.7853
  157MOL0     C21064   8.085   3.681   7.575 -0.1194 -1.4890 -0.5277
  157MOL0     C21065   7.981   3.636   7.655 -0.0007 -0.0694  0.0929
  157MOL0     C21066   7.844   3.644   7.607  0.1559  0.3191 -0.4789
  157MOL0     C21067   7.806   3.691   7.482  0.5822  1.1279  0.3671
  157MOL0     O21068   7.674   3.667   7.438 -0.3175 -0.7432 -0.5717
  157MOL0     C21069   7.646   3.729   7.310 -0.2928 -0.0995  0.2935
  157MOL0     C21070   7.501   3.692   7.285  0.2230  0.2062  0.2772
  157MOL0     C21071   7.438   3.747   7.147 -0.7645  0.3859 -0.6171
  157MOL0     C21072   7.295   3.720   7.129  0.3284 -0.5100 -0.1333
  157MOL0     C21073   7.250   3.780   6.996 -0.3297  0.0643 -0.3344
  157MOL0     C21074   7.102   3.759   6.951  0.8288  0.5531  0.1351
  157MOL0     C21075   7.063   3.762   6.797  0.1479 -0.3333 -0.3234
  157MOL0     C21076   7.121   3.874   6.727  0.1889 -0.5247 -0.4189
  157MOL0     N21077   7.050   4.001   6.771 -0.1453 -0.3732  0.1636
  157MOL0     C21078   7.090   4.083   6.870 -0.0971 -0.5800  0.1000
  157MOL0     C21079   6.998   4.191   6.876  0.2202  0.0398 -0.0479
  157MOL0     C21080   6.988   4.313   6.953 -0.5145 -0.6689 -0.4059
  157MOL0     C21081   6.853   4.323   7.014  0.2260 -0.0497 -0.2708
  157MOL0     C21082   6.781   4.437   6.962 -0.5266 -0.1491 -0.1959
  157MOL0     C21083   6.639   4.456   7.009  0.2366  0.7487 -0.0887
  157MOL0     O21084   6.565   4.334   6.982 -0.2680 -0.0942 -0.0593
  157MOL0     C21085   6.430   4.330   7.025 -0.2704 -0.2492  0.0775
  157MOL0     C21086   6.396   4.216   7.091  0.1146  0.1984  0.4681
  157MOL0     C21087   6.257   4.191   7.122 -0.5108 -0.4045 -0.7822
  157MOL0     C21088   6.224   4.066   7.201 -0.2935  0.2183  0.5081
  157MOL0     C21089   6.157   4.290   7.090 -0.3832  1.0676 -0.6502
  157MOL0     C21090   6.006   4.275   7.123  0.8584 -0.5367 -0.1043
  157MOL0     O21091   5.972   4.215   7.236 -0.1151  0.2867  0.1470
  157MOL0     C21092   5.849   4.216   7.276 -0.1533  0.2893  0.3090
  157MOL0     C21093   5.790   4.338   7.313  0.3756  0.3587  0.4769
  157MOL0     C21094   5.651   4.347   7.324  0.0727  0.1100  0.0571
  157MOL0     C21095   5.571   4.232   7.320 -0.3789 -0.7205 -0.5968
  157MOL0     O21096   5.440   4.231   7.350  0.2454 -0.7347  0.0409
  157MOL0     C21097   5.377   4.355   7.409  0.8535 -0.0577 -0.9161
  157MOL0     C21098   5.233   4.332   7.452  0.0565  0.1893  1.3897
  157MOL0     C21099   5.144   4.308   7.323 -0.4114  0.4250 -0.0960
  157MOL0     C21100   4.996   4.298   7.359 -0.9945  0.3441  0.8792
  157MOL0     C21101   4.898   4.296   7.240 -0.1961  0.2103 -0.2917
  157MOL0     C21102   4.897   4.168   7.156 -0.3640  0.2793  1.2255
  157MOL0     C21103   4.802   4.185   7.028 -0.2878  1.2619  0.6709
  157MOL0     C21104   4.658   4.175   7.064  0.3643 -0.2341  0.7105
  157MOL0    Cl21105   4.616   4.016   7.134 -0.3553  0.0045 -0.2175
  157MOL0     C21106   5.631   4.109   7.280  0.1563 -0.3844  0.7372
  157MOL0     C21107   5.767   4.103   7.255 -0.0891  0.4487  0.5226
  157MOL0     O21108   5.925   4.313   7.037  0.0549  0.2541  0.1114
  157MOL0     C21109   6.203   4.403   7.021 -0.5750 -0.1815 -0.4132
  157MOL0     C21110   6.339   4.418   6.984 -0.5338  0.0599 -0.1661
  157MOL0     N21111   6.916   4.174   6.771 -0.6291  0.3560 -0.1329
  157MOL0     N21112   6.942   4.063   6.704  0.1026 -0.2086 -0.0739
  157MOL0     C21113   7.915   3.735   7.401  0.8761  0.7896 -0.0578
  157MOL0     C21114   8.051   3.726   7.448 -0.0502  0.9117  0.1691
  157MOL0     C21115   8.419   3.787   7.687 -0.4059  0.2195  1.1028
  157MOL0     C21116   8.515   3.890   7.669  0.7898  0.1333 -1.1648
  157MOL0     C21117   8.637   3.888   7.731  0.7858 -0.2290 -0.5061
  157MOL0     C21118   8.666   3.788   7.825 -0.3889  0.3478 -0.3892
  157MOL0     O21119   8.780   3.775   7.906  0.5104 -0.4136  0.6119
  157MOL0     C21120   8.893   3.864   7.889 -0.1161  0.0942 -0.3096
  157MOL0     C21121   8.999   3.794   7.966  0.0090  0.0182 -0.2308
  157MOL0     C21122   9.131   3.876   7.976  0.5609  0.5210  0.1522
  157MOL0     C21123   9.240   3.795   8.047 -0.2679  0.7115  0.3522
  157MOL0     C21124   9.370   3.861   8.021 -0.0020 -0.2341  0.1770
  157MOL0     C21125   9.473   3.915   7.992 -0.2770  0.2467 -0.0731
  157MOL0     C21126   8.573   3.687   7.834 -1.3067 -0.1715 -0.8591
  157MOL0     C21127   8.448   3.686   7.775  0.5353 -0.6375  0.9962
  157MOL0     H21128   7.997   3.607   7.759  5.0194  0.7032 -0.2396
  157MOL0     H21129   7.766   3.598   7.667  1.7412 -2.3413 -0.2721
  157MOL0     H21130   7.662   3.837   7.307  1.0495 -0.3043 -1.2591
  157MOL0     H21131   7.708   3.684   7.232  0.6321 -1.6383  1.8286
  157MOL0     H21132   7.482   3.586   7.303 -0.5241  0.2383 -0.2767
  157MOL0     H21133   7.458   3.756   7.363 -2.1876  1.8779 -2.2220
  157MOL0     H21134   7.459   3.851   7.121  1.2262 -0.2927 -1.9573
  157MOL0     H21135   7.496   3.698   7.069 -1.5223 -0.1683 -0.8506
  157MOL0     H21136   7.255   3.618   7.139 -0.0303 -0.3835 -0.2409
  157MOL0     H21137   7.240   3.778   7.203  1.4316  1.3619 -0.7266
  157MOL0     H21138   7.275   3.886   7.001  0.4771 -0.1344  4.0148
  157MOL0     H21139   7.314   3.725   6.926  1.1470  0.6925  0.4841
  157MOL0     H21140   7.066   3.664   6.993 -0.4109 -0.9300 -3.8628
  157MOL0     H21141   7.041   3.839   6.994 -0.6791 -0.0244 -0.8627
  157MOL0     H21142   7.093   3.673   6.742 -2.6853  0.2048 -3.0527
  157MOL0     H21143   6.953   3.761   6.793 -0.0324  1.7576  1.8074
  157MOL0     H21144   7.117   3.862   6.618  1.7200  0.2871 -0.5913
  157MOL0     H21145   7.224   3.898   6.755  0.0050  1.1744 -1.0784
  157MOL0     H21146   7.175   4.074   6.936 -0.5726  0.9724  0.9750
  157MOL0     H21147   7.059   4.320   7.036  0.1348  0.3658 -1.0252
  157MOL0     H21148   7.013   4.402   6.895 -1.2467  1.1209  1.8340
  157MOL0     H21149   6.882   4.338   7.119  3.3276  0.8497 -1.1260
  157MOL0     H21150   6.794   4.232   7.006 -0.2097  0.2894 -1.0502
  157MOL0     H21151   6.781   4.443   6.853 -2.8783  0.9900 -0.2018
  157MOL0     H21152   6.833   4.525   7.001  0.9226 -1.8727  2.0179
  157MOL0     H21153   6.596   4.542   6.957 -1.3935  1.0849  1.7100
  157MOL0     H21154   6.621   4.474   7.115 -0.6137 -1.6114  0.2307
  157MOL0     H21155   6.474   4.145   7.114  0.0544  0.0256  0.1373
  157MOL0     H21156   6.151   4.009   7.144  0.8541  0.0628 -0.8621
  157MOL0     H21157   6.308   3.997   7.198  1.4001  2.2049 -0.2044
  157MOL0     H21158   6.190   4.094   7.301  0.4459 -3.0546  1.8016
  157MOL0     H21159   5.855   4.423   7.328  0.6346  0.0975  0.8421
  157MOL0     H21160   5.605   4.444   7.335 -3.1582 -1.3673  0.6079
  157MOL0     H21161   5.434   4.391   7.495  1.3083  0.3751 -1.3922
  157MOL0     H21162   5.375   4.438   7.337  4.5985 -1.0398 -2.3582
  157MOL0     H21163   5.228   4.250   7.524 -0.7455  1.4764  2.8726
  157MOL0     H21164   5.193   4.425   7.495 -0.3557  1.0102 -0.6587
  157MOL0     H21165   5.162   4.206   7.288  0.3769 -1.0128  4.0074
  157MOL0     H21166   5.164   4.389   7.252  0.4634 -0.6623 -1.1390
  157MOL0     H21167   4.977   4.202   7.408 -1.4151 -1.2670 -2.1871
  157MOL0     H21168   4.971   4.384   7.422  3.8805  0.5960  2.8398
  157MOL0     H21169   4.921   4.374   7.166 -0.8669 -2.2835 -3.3194
  157MOL0     H21170   4.797   4.308   7.280  0.2471  0.7631  0.6934
  157MOL0     H21171   4.994   4.123   7.133 -0.8126 -0.2848  0.3733
  157MOL0     H21172   4.854   4.091   7.221 -1.1743 -1.0615 -0.8009
  157MOL0     H21173   4.816   4.087   6.982  0.5409  1.5799  0.2315
  157MOL0     H21174   4.837   4.270   6.969  1.2193  0.3925  0.2399
  157MOL0     H21175   4.606   4.178   6.967  1.9481  0.9311 -0.1470
  157MOL0     H21176   4.630   4.262   7.124  2.2094  1.3351 -0.5876
  157MOL0     H21177   5.568   4.023   7.260  0.7577 -0.4486 -1.0783
  157MOL0     H21178   5.808   4.015   7.207 -1.1252 -0.5897  1.4740
  157MOL0     H21179   6.139   4.479   6.977 -3.5990 -2.7767 -0.7725
  157MOL0     H21180   6.363   4.508   6.927 -1.0572  0.3876  0.1195
  157MOL0     H21181   7.888   3.775   7.304 -2.0409  0.1080  0.3808
  157MOL0     H21182   8.130   3.741   7.375 -0.0579  0.5500  0.0833
  157MOL0     H21183   8.490   3.981   7.614 -2.0928  0.6946  0.8200
  157MOL0     H21184   8.704   3.971   7.712 -0.0053  0.4218 -0.5098
  157MOL0     H21185   8.930   3.863   7.786 -1.1396 -2.2737 -0.7128
  157MOL0     H21186   8.857   3.958   7.933  0.2758 -1.0214  2.6103
  157MOL0     H21187   9.018   3.696   7.920 -0.4828 -0.5746  0.8039
  157MOL0     H21188   8.970   3.772   8.069  3.2716  0.5235  0.9046
  157MOL0     H21189   9.110   3.971   8.024  0.1825 -0.0641  1.1706
  157MOL0     H21190   9.163   3.889   7.872  0.1994  1.0699  0.1062
  157MOL0     H21191   9.231   3.698   7.997 -0.8348  1.5198 -1.1754
  157MOL0     H21192   9.206   3.793   8.151 -1.1062  0.4632  0.0783
  157MOL0     H21193   9.569   3.960   7.978  0.8303 -2.3041 -1.5196
  157MOL0     H21194   8.601   3.607   7.902 -0.7520  3.1220  3.1446
  157MOL0     H21195   8.394   3.594   7.793 -0.4189 -0.2869  0.0639
  158MOL0     O21196  10.087  10.638   7.822 -0.1872  0.1408  0.5843
  158MOL0     C21197  10.151  10.733   7.780 -0.6219  0.2033  0.4899
  158MOL0     O21198  10.110  10.810   7.676  0.2143  0.1029  0.3383
  158MOL0     C21199   9.975  10.826   7.653  0.0113  0.3762  0.6517
  158MOL0     C21200   9.901  10.728   7.596 -0.1018 -0.0352  0.0247
  158MOL0     C21201   9.765  10.753   7.556 -0.3260 -0.1581 -0.0567
  158MOL0     C21202   9.710  10.874   7.576 -0.2373  0.9788  0.4856
  158MOL0     O21203   9.582  10.899   7.555  0.5480  0.0471  0.5921
  158MOL0     C21204   9.536  10.881   7.422  0.6506 -0.4330 -0.5369
  158MOL0     C21205   9.471  10.746   7.396 -0.1748  0.3471  0.0137
  158MOL0     C21206   9.314  10.759   7.399  0.4006  0.4988 -0.7292
  158MOL0     C21207   9.240  10.827   7.281  0.4344 -1.1944  0.3525
  158MOL0     C21208   9.092  10.791   7.279 -0.1837 -0.0520  0.1218
  158MOL0     C21209   9.023  10.867   7.169  0.5298  0.3895 -0.2336
  158MOL0     C21210   8.881  10.818   7.129  0.7210 -0.1657  0.1249
  158MOL0     C21211   8.833  10.898   7.015  0.2611  0.8695 -0.1283
  158MOL0     N21212   8.700  10.842   6.973 -0.3150  0.0873 -0.4466
  158MOL0     C21213   8.604  10.813   7.067 -0.0858 -0.4128  0.5629
  158MOL0     C21214   8.491  10.801   6.992  0.2717  0.0651  0.8465
  158MOL0     C21215   8.353  10.777   7.044 -0.1037 -0.4805 -0.4520
  158MOL0     C21216   8.283  10.652   7.000  0.2940 -1.2052  0.4527
  158MOL0     C21217   8.139  10.651   7.063  0.1136 -0.5700  0.4954
  158MOL0     C21218   8.071  10.521   7.028  0.6763  0.0034 -0.0895
  158MOL0     O21219   7.939  10.516   7.080 -0.5435  0.0253 -0.6085
  158MOL0     C21220   7.828  10.533   6.998 -0.9346 -0.1832 -0.0379
  158MOL0     C21221   7.809  10.515   6.861  0.0823  0.9191 -0.3467
  158MOL0     C21222   7.681  10.535   6.799  0.0394 -0.0690  0.0793
  158MOL0     C21223   7.667  10.532   6.643  0.2622 -0.0574 -0.9684
  158MOL0     C21224   7.566  10.554   6.876 -0.5457 -0.0116 -0.1462
  158MOL0     C21225   7.433  10.576   6.824 -0.1467 -0.9817  0.6476
  158MOL0     O21226   7.320  10.521   6.888 -0.1607 -0.9859 -0.6642
  158MOL0     C21227   7.209  10.552   6.818  0.0606 -0.2294  0.0745
  158MOL0     C21228   7.189  10.502   6.688  0.6474  1.2753  0.6956
  158MOL0     C21229   7.070  10.541   6.625 -0.2258  0.8111 -0.0440
  158MOL0     C21230   6.984  10.635   6.681 -0.3150 -0.0121  0.4438
  158MOL0     O21231   6.867  10.652   6.616 -0.5541  0.2198  0.5155
  158MOL0     C21232   6.767  10.738   6.669  0.5034 -0.4611 -0.1311
  158MOL0     C21233   6.627  10.708   6.609 -0.1127  1.0482  0.4044
  158MOL0     C21234   6.519  10.759   6.706 -0.9592 -0.4265 -0.0310
  158MOL0     C21235   6.378  10.707   6.671 -0.8658  0.2424 -0.1688
  158MOL0     C21236   6.275  10.772   6.746  0.2961 -0.2754  0.3112
  158MOL0     C21237   6.235  10.905   6.688  0.1408 -0.0189  0.1340
  158MOL0     C21238   6.109  10.964   6.758  0.5345 -0.2165  0.0762
  158MOL0     C21239   6.011  11.001   6.647  0.6023 -0.0774 -0.6028
  158MOL0    Cl21240   5.873  11.080   6.721 -0.0362 -0.2402  0.5454
  158MOL0     C21241   7.020  10.697   6.800 -0.3613 -0.0987 -0.4563
  158MOL0     C21242   7.129  10.659   6.866  0.0822 -0.2285 -0.3529
  158MOL0     O21243   7.430  10.666   6.737 -0.4556 -0.1839 -0.0275
  158MOL0     C21244   7.576  10.566   7.021 -0.1346 -0.1639  0.7217
  158MOL0     C21245   7.708  10.549   7.069 -0.1893  0.5024 -0.0459
  158MOL0     N21246   8.525  10.808   6.858 -0.4623  0.2956 -0.1421
  158MOL0     N21247   8.653  10.830   6.846  0.0552 -0.3037  0.1270
  158MOL0     C21248   9.785  10.979   7.629 -0.2224 -0.2088 -0.0574
  158MOL0     C21249   9.915  10.954   7.667  0.3137  0.5763 -1.0701
  158MOL0     C21250  10.272  10.776   7.848 -0.4442  0.2158  0.9926
  158MOL0     C21251  10.343  10.891   7.800  0.5108 -0.3186  0.1399
  158MOL0     C21252  10.474  10.927   7.862  0.0729 -0.6272 -0.0878
  158MOL0     C21253  10.528  10.836   7.957 -0.1329  0.0627  0.5662
  158MOL0     O21254  10.656  10.860   8.006 -0.5814 -0.7328 -0.1634
  158MOL0     C21255  10.740  10.738   8.012 -0.4186  0.6267 -0.1978
  158MOL0     C21256  10.881  10.781   8.027  0.3600 -0.1587  0.4066
  158MOL0     C21257  10.990  10.675   8.033  0.7368 -0.2812 -1.0034
  158MOL0     C21258  11.122  10.744   8.063  0.1124 -0.9239  0.4587
  158MOL0     C21259  11.235  10.646   8.059  0.6609 -0.0627 -0.0570
  158MOL0     C21260  11.329  10.574   8.056 -0.0615  0.7344 -0.2081
  158MOL0     C21261  10.457  10.720   7.990 -0.8030 -0.7595 -0.7074
  158MOL0     C21262  10.328  10.691   7.943  0.2962 -0.2244 -0.0256
  158MOL0     H21263   9.958  10.639   7.572  0.9075  1.0761 -1.9749
  158MOL0     H21264   9.706  10.682   7.499  1.2170  0.1246 -2.1261
  158MOL0     H21265   9.463  10.960   7.400  1.2330  0.5531  0.9747
  158MOL0     H21266   9.615  10.903   7.351  0.3979  2.2041 -0.0872
  158MOL0     H21267   9.499  10.700   7.300  0.2122  4.1317 -1.8508
  158MOL0     H21268   9.500  10.668   7.467 -0.3680 -0.3635 -0.6732
  158MOL0     H21269   9.281  10.656   7.418  4.9123 -0.4393  4.2458
  158MOL0     H21270   9.282  10.824   7.481 -1.0489 -1.2840  0.1784
  158MOL0     H21271   9.250  10.935   7.279 -1.7350 -0.9269  1.3437
  158MOL0     H21272   9.278  10.791   7.185 -0.5057  1.0834 -0.9517
  158MOL0     H21273   9.073  10.683   7.269 -0.9031  0.2525 -2.6803
  158MOL0     H21274   9.055  10.821   7.377  2.0797 -0.1125  1.0531
  158MOL0     H21275   9.018  10.973   7.196 -0.3775  0.4348 -0.5325
  158MOL0     H21276   9.080  10.849   7.078  0.1380  0.1405 -0.4323
  158MOL0     H21277   8.886  10.713   7.099 -0.9587  0.2130 -1.6900
  158MOL0     H21278   8.822  10.829   7.220 -0.5027  0.3229 -0.7125
  158MOL0     H21279   8.900  10.908   6.929 -0.0911  0.1272 -0.4987
  158MOL0     H21280   8.810  10.997   7.054  1.1482  0.4960  1.4198
  158MOL0     H21281   8.623  10.802   7.174  0.2461 -0.7302  0.4742
  158MOL0     H21282   8.362  10.766   7.152 -2.3426 -2.1291 -0.3620
  158MOL0     H21283   8.297  10.869   7.022 -0.8902 -0.6616  0.7009
  158MOL0     H21284   8.346  10.565   7.020 -1.5543 -2.8302 -0.5756
  158MOL0     H21285   8.273  10.653   6.891 -1.2853  0.0758  0.5719
  158MOL0     H21286   8.077  10.739   7.048 -2.1864 -1.7738  2.3326
  158MOL0     H21287   8.152  10.652   7.171 -2.2762 -1.9303  0.8583
  158MOL0     H21288   8.116  10.434   7.077  2.2970  1.4192  1.0033
  158MOL0     H21289   8.066  10.505   6.919  0.6190 -2.9817  0.2528
  158MOL0     H21290   7.894  10.490   6.798  1.0910  0.3474  1.1854
  158MOL0     H21291   7.628  10.629   6.611 -0.8084 -0.1032  0.1695
  158MOL0     H21292   7.763  10.508   6.595  1.1958 -1.7400  1.5250
  158MOL0     H21293   7.591  10.461   6.611  0.0298  0.1279 -0.8257
  158MOL0     H21294   7.256  10.427   6.649 -0.6210 -0.0616  0.9842
  158MOL0     H21295   7.067  10.503   6.523  1.2403  1.1225 -0.2232
  158MOL0     H21296   6.759  10.720   6.776 -1.2475 -2.7072 -0.5527
  158MOL0     H21297   6.786  10.845   6.659  0.2054  0.1111  3.9065
  158MOL0     H21298   6.620  10.750   6.509  0.3706 -2.0729 -1.0793
  158MOL0     H21299   6.616  10.599   6.609 -1.4496  1.1595 -0.4409
  158MOL0     H21300   6.524  10.869   6.699  0.0336 -0.3074  1.9458
  158MOL0     H21301   6.545  10.726   6.807  0.0206 -2.2135 -0.8270
  158MOL0     H21302   6.364  10.709   6.563  0.0180  1.3914 -0.2858
  158MOL0     H21303   6.378  10.602   6.701 -0.0238 -1.2163 -4.5287
  158MOL0     H21304   6.305  10.781   6.851 -2.5581  2.2151  1.0346
  158MOL0     H21305   6.189  10.705   6.748  0.9994 -1.6432 -4.2623
  158MOL0     H21306   6.314  10.980   6.702  0.5542 -0.5170  0.4935
  158MOL0     H21307   6.226  10.898   6.579  2.6304  1.0431 -0.2139
  158MOL0     H21308   6.139  11.057   6.808  1.5500  0.3557 -1.5424
  158MOL0     H21309   6.074  10.894   6.835  0.4337  0.5609  0.7615
  158MOL0     H21310   5.982  10.912   6.589  0.0318  0.3678 -1.0174
  158MOL0     H21311   6.064  11.066   6.577 -2.4600  0.4262 -2.6555
  158MOL0     H21312   6.947  10.759   6.851 -3.1252 -4.2298  1.1089
  158MOL0     H21313   7.146  10.698   6.966 -2.3111 -0.1608  0.0816
  158MOL0     H21314   7.496  10.587   7.092  2.2231 -0.8097  3.7890
  158MOL0     H21315   7.733  10.561   7.174 -1.5314  2.6426  0.0789
  158MOL0     H21316   9.739  11.077   7.628  0.1807 -0.0233 -0.9301
  158MOL0     H21317   9.979  11.038   7.692  4.0959 -2.7780  1.9267
  158MOL0     H21318  10.302  10.961   7.728  2.7722 -1.1754 -2.1577
  158MOL0     H21319  10.527  11.019   7.843 -0.2210 -0.3972  0.1965
  158MOL0     H21320  10.718  10.686   8.106 -2.7148 -2.3164 -2.1876
  158MOL0     H21321  10.729  10.667   7.929  0.3031 -0.3270  0.5034
  158MOL0     H21322  10.888  10.857   8.105 -1.3938 -0.4234  0.8411
  158MOL0     H21323  10.901  10.834   7.933  1.2829 -1.4489 -0.1588
  158MOL0     H21324  10.990  10.631   7.933  1.0270 -1.3580 -0.5367
  158MOL0     H21325  10.974  10.600   8.110  1.4761  0.3097 -0.2536
  158MOL0     H21326  11.113  10.791   8.162  0.4789 -0.3883  0.2468
  158MOL0     H21327  11.150  10.829   7.999  2.1907  0.0497  2.5075
  158MOL0     H21328  11.412  10.507   8.051 -0.7386 -0.0276 -1.8634
  158MOL0     H21329  10.493  10.653   8.068  0.0644 -1.4927 -1.7143
  158MOL0     H21330  10.276  10.598   7.961 -1.9731  0.7986 -0.9355
  159MOL0     O21331   9.021   3.996   8.539 -0.1950  0.4894  0.0088
  159MOL0     C21332   9.098   3.972   8.442  1.0117  0.0425 -0.2741
  159MOL0     O21333   9.049   3.955   8.319 -0.1910  0.2815 -0.6086
  159MOL0     C21334   8.915   3.947   8.299  0.0113 -0.3665 -0.3862
  159MOL0     C21335   8.846   3.824   8.275 -0.3213 -0.7682  0.0405
  159MOL0     C21336   8.709   3.823   8.251  0.0663 -0.6792 -0.2871
  159MOL0     C21337   8.626   3.942   8.264  0.1276 -0.2482  0.4581
  159MOL0     O21338   8.488   3.950   8.259  0.8523 -0.0817  0.6222
  159MOL0     C21339   8.426   3.930   8.132 -0.6235  0.0944  0.2672
  159MOL0     C21340   8.288   4.012   8.129 -0.3822 -0.7523  0.0856
  159MOL0     C21341   8.213   3.974   8.000  1.1260 -0.3659  0.3315
  159MOL0     C21342   8.078   4.045   7.986 -0.5078  0.1977  0.5710
  159MOL0     C21343   7.987   3.966   7.884 -0.5496 -0.8491 -0.2456
  159MOL0     C21344   7.848   4.024   7.864 -0.4133  0.2481 -0.1212
  159MOL0     C21345   7.747   3.934   7.812  0.1614  0.3214  0.3908
  159MOL0     C21346   7.695   3.827   7.910 -0.3601 -0.2020  1.3205
  159MOL0     N21347   7.595   3.728   7.851 -0.4701  0.2010  0.5478
  159MOL0     C21348   7.491   3.755   7.770  0.3910  0.0274 -0.4100
  159MOL0     C21349   7.423   3.637   7.753 -0.5149 -0.3701  0.2626
  159MOL0     C21350   7.300   3.623   7.657 -0.8476 -0.4247  0.0082
  159MOL0     C21351   7.215   3.497   7.690  1.5947  0.4508  0.5112
  159MOL0     C21352   7.086   3.498   7.602  0.0933 -0.0224  0.1079
  159MOL0     C21353   6.991   3.400   7.659 -0.4483  0.4081  0.4937
  159MOL0     O21354   6.885   3.385   7.560 -0.6154 -0.5545  0.8770
  159MOL0     C21355   6.774   3.299   7.573  0.3481  0.4441 -0.0531
  159MOL0     C21356   6.679   3.297   7.472 -0.4768  0.2965  0.6247
  159MOL0     C21357   6.570   3.206   7.474  1.2336  0.2651  0.7455
  159MOL0     C21358   6.467   3.233   7.370  0.3695 -0.3249 -0.0815
  159MOL0     C21359   6.563   3.103   7.571 -0.8542  0.6495  0.4506
  159MOL0     C21360   6.453   3.006   7.587  0.0970 -0.5513 -0.3133
  159MOL0     O21361   6.464   2.908   7.691  0.1929 -0.3664 -0.0136
  159MOL0     C21362   6.367   2.817   7.696 -0.2224 -0.1483 -0.1304
  159MOL0     C21363   6.392   2.697   7.632  0.2652  0.2722  0.6277
  159MOL0     C21364   6.293   2.592   7.637  0.2716 -0.5719 -0.2695
  159MOL0     C21365   6.182   2.611   7.723 -1.2753 -0.5294 -0.3413
  159MOL0     O21366   6.089   2.516   7.742 -0.0027  0.2898  0.1868
  159MOL0     C21367   6.119   2.419   7.848 -0.2821 -0.5654  0.5394
  159MOL0     C21368   6.179   2.287   7.791 -0.0044 -0.1422  0.2764
  159MOL0     C21369   6.296   2.230   7.873 -0.2850 -0.5175  0.1222
  159MOL0     C21370   6.256   2.165   8.003 -0.3331 -0.2071 -0.6239
  159MOL0     C21371   6.384   2.130   8.080  0.6976 -0.3882 -0.1550
  159MOL0     C21372   6.364   2.076   8.224 -0.0747  0.0345 -0.5772
  159MOL0     C21373   6.506   2.092   8.289 -0.5185  1.0379 -0.5553
  159MOL0     C21374   6.525   1.992   8.398 -0.5313  0.7010  0.1516
  159MOL0    Cl21375   6.701   1.993   8.440  0.2156  0.2127 -0.1632
  159MOL0     C21376   6.162   2.728   7.789 -0.5173  0.4928 -0.3729
  159MOL0     C21377   6.256   2.828   7.778 -0.2786  0.1231  0.0906
  159MOL0     O21378   6.367   3.012   7.503  0.2589 -0.3776 -0.7950
  159MOL0     C21379   6.660   3.104   7.670 -0.2231 -0.3025 -0.2262
  159MOL0     C21380   6.769   3.195   7.666 -0.2657 -0.6661  0.5593
  159MOL0     N21381   7.492   3.543   7.829 -0.6469 -0.2340  0.0807
  159MOL0     N21382   7.595   3.601   7.894 -0.2342  0.3757 -0.6159
  159MOL0     C21383   8.692   4.058   8.298 -0.7076 -0.0837 -0.1491
  159MOL0     C21384   8.836   4.065   8.312 -0.0359 -0.3415 -0.3675
  159MOL0     C21385   9.239   3.990   8.463 -0.1408  0.2699 -1.2433
  159MOL0     C21386   9.297   3.986   8.589 -0.8668  0.5365  0.2452
  159MOL0     C21387   9.437   3.996   8.599  0.2217  1.0026  0.1678
  159MOL0     C21388   9.520   4.009   8.489 -0.5956  0.2043  0.2041
  159MOL0     O21389   9.656   4.026   8.502 -0.6880 -0.1380  0.7661
  159MOL0     C21390   9.728   3.985   8.621  0.1602  0.0859 -0.4850
  159MOL0     C21391   9.866   3.929   8.590 -0.4302 -0.5646 -0.3367
  159MOL0     C21392   9.927   3.856   8.710  0.0849 -0.6671  0.7375
  159MOL0     C21393  10.080   3.848   8.716  0.7828 -0.1342  0.1777
  159MOL0     C21394  10.121   3.756   8.612 -0.3164  0.4258  0.3775
  159MOL0     C21395  10.144   3.668   8.532  0.7933  0.2615 -0.3383
  159MOL0     C21396   9.464   4.023   8.362  0.7902 -0.1487 -0.2284
  159MOL0     C21397   9.328   4.012   8.356 -0.1258 -0.6026  0.4057
  159MOL0     H21398   8.907   3.735   8.264 -0.2659 -0.7541  0.2153
  159MOL0     H21399   8.655   3.732   8.229  0.8230 -1.0121 -0.7792
  159MOL0     H21400   8.483   3.967   8.045  0.0434  3.1105  1.8515
  159MOL0     H21401   8.397   3.825   8.132  0.6042 -0.2560  0.9348
  159MOL0     H21402   8.223   3.982   8.212 -2.9717 -2.3777 -2.3651
  159MOL0     H21403   8.291   4.121   8.129  0.2078 -0.7581 -0.7824
  159MOL0     H21404   8.274   3.988   7.911  0.2687 -0.3538 -0.2600
  159MOL0     H21405   8.195   3.867   8.005  1.2205 -0.3337  2.4780
  159MOL0     H21406   8.025   4.051   8.081 -3.5896  0.9231 -1.0586
  159MOL0     H21407   8.082   4.147   7.945 -0.4525 -0.0307 -0.0004
  159MOL0     H21408   8.039   3.981   7.789  1.8237 -1.7704  0.8340
  159MOL0     H21409   7.978   3.861   7.915  1.2623 -0.3286  2.3111
  159MOL0     H21410   7.819   4.056   7.965 -3.4151  0.1527 -0.8429
  159MOL0     H21411   7.860   4.113   7.802  0.8279  0.2047  0.0423
  159MOL0     H21412   7.656   3.990   7.791  1.3456  3.4745  2.8493
  159MOL0     H21413   7.779   3.884   7.720 -1.9443 -0.3846 -0.0067
  159MOL0     H21414   7.651   3.870   8.000 -1.0457 -0.2233  1.0062
  159MOL0     H21415   7.778   3.779   7.962 -0.2490  1.2413  2.5396
  159MOL0     H21416   7.458   3.845   7.720  2.0024 -0.5557 -2.6366
  159MOL0     H21417   7.250   3.719   7.674 -2.1252 -1.5039  2.9069
  159MOL0     H21418   7.333   3.622   7.552 -0.7272  0.2612  0.0322
  159MOL0     H21419   7.186   3.497   7.796 -1.3886  0.5742 -0.2179
  159MOL0     H21420   7.276   3.408   7.669 -1.3673 -1.8819  1.0252
  159MOL0     H21421   7.102   3.492   7.494 -0.4394 -1.4064  0.0917
  159MOL0     H21422   7.039   3.595   7.622  1.7973  0.9263 -0.2538
  159MOL0     H21423   6.947   3.435   7.753 -1.7864  1.3893 -0.4711
  159MOL0     H21424   7.043   3.307   7.685  0.9723  1.0912  0.2029
  159MOL0     H21425   6.681   3.359   7.383 -0.3581  0.1448  0.5208
  159MOL0     H21426   6.463   3.135   7.320  0.3778 -2.3238  3.4484
  159MOL0     H21427   6.369   3.258   7.413  0.8888  0.6073  0.5805
  159MOL0     H21428   6.497   3.312   7.301  0.2616  0.4738  0.7670
  159MOL0     H21429   6.482   2.687   7.572  1.7353 -0.7001  2.8413
  159MOL0     H21430   6.294   2.497   7.586 -1.9542 -0.7911 -0.0094
  159MOL0     H21431   6.193   2.465   7.914 -0.6474  2.3268 -0.9197
  159MOL0     H21432   6.034   2.399   7.914  0.4120 -0.8141  1.3693
  159MOL0     H21433   6.106   2.206   7.777  0.0438 -0.2387  0.5851
  159MOL0     H21434   6.232   2.309   7.698  0.9684  0.1978  0.9000
  159MOL0     H21435   6.368   2.310   7.891 -0.5297 -0.8824  3.3126
  159MOL0     H21436   6.344   2.149   7.818  3.1007 -0.4406  2.6493
  159MOL0     H21437   6.206   2.238   8.067  0.9377  2.0199 -2.0392
  159MOL0     H21438   6.200   2.073   7.982  1.8164 -2.3330  2.0626
  159MOL0     H21439   6.434   2.228   8.075 -2.0142  1.0158 -3.2530
  159MOL0     H21440   6.431   2.053   8.017 -0.1387 -0.4416 -0.7241
  159MOL0     H21441   6.281   2.129   8.271 -0.1864 -2.4312  2.3086
  159MOL0     H21442   6.320   1.976   8.215 -1.5145  0.4907  0.8711
  159MOL0     H21443   6.511   2.193   8.331 -0.7734  0.5054  0.7883
  159MOL0     H21444   6.587   2.098   8.216  0.3804  0.7881  0.3957
  159MOL0     H21445   6.491   1.894   8.362 -2.4804  1.4264 -0.0937
  159MOL0     H21446   6.463   2.024   8.482 -2.1738 -0.6013 -0.4950
  159MOL0     H21447   6.073   2.743   7.848 -0.3935  0.1073 -0.0798
  159MOL0     H21448   6.235   2.929   7.811 -1.8251  0.2382 -1.1326
  159MOL0     H21449   6.649   3.032   7.750 -2.3322  0.9520  0.6716
  159MOL0     H21450   6.854   3.197   7.733 -0.8113 -0.9050  1.2785
  159MOL0     H21451   8.639   4.149   8.327 -1.5903 -1.0461  1.3470
  159MOL0     H21452   8.880   4.164   8.326  0.4366 -0.3771 -1.4470
  159MOL0     H21453   9.244   3.973   8.682 -4.2358  1.0429 -1.4581
  159MOL0     H21454   9.479   4.016   8.697 -4.2384  1.5624  2.2007
  159MOL0     H21455   9.730   4.070   8.689 -2.3452 -0.8017  0.8269
  159MOL0     H21456   9.664   3.913   8.672  0.2024 -0.7371 -1.5528
  159MOL0     H21457   9.934   4.014   8.576 -1.0265  0.2589  1.5087
  159MOL0     H21458   9.857   3.872   8.497 -1.1222  0.2807 -0.7949
  159MOL0     H21459   9.882   3.757   8.717  1.2299 -1.5556 -2.6600
  159MOL0     H21460   9.897   3.904   8.804 -2.9792 -3.1308  1.1835
  159MOL0     H21461  10.119   3.810   8.811  1.1903 -0.1091  0.0220
  159MOL0     H21462  10.121   3.946   8.692  0.3750 -0.1045 -0.4133
  159MOL0     H21463  10.160   3.594   8.456  0.9303  0.6759 -0.7168
  159MOL0     H21464   9.525   4.027   8.273  0.9255 -1.1507 -0.1926
  159MOL0     H21465   9.288   4.023   8.256  0.0037  0.7502  0.4877
  160MOL0     O21466   5.063   8.118   9.342  0.1981 -0.5044  0.4933
  160MOL0     C21467   5.065   8.005   9.293 -0.1229 -0.3967  0.5266
  160MOL0     O21468   4.953   7.937   9.268 -0.8542  0.1117 -0.1035
  160MOL0     C21469   4.855   7.938   9.361 -0.7026  0.3893  0.7640
  160MOL0     C21470   4.731   7.913   9.314 -0.0502  0.2231 -0.6958
  160MOL0     C21471   4.614   7.918   9.390 -0.9169  0.6934 -0.2434
  160MOL0     C21472   4.631   7.930   9.528  0.2424  0.2299  0.3120
  160MOL0     O21473   4.512   7.934   9.594  0.0166  0.5968 -0.5324
  160MOL0     C21474   4.514   8.022   9.707 -1.0239  0.1056 -0.1121
  160MOL0     C21475   4.379   8.041   9.769 -0.7008 -0.4724 -0.3739
  160MOL0     C21476   4.271   8.088   9.668  0.5511 -0.6150 -0.0690
  160MOL0     C21477   4.126   8.078   9.731 -0.0759  0.1259  0.6428
  160MOL0     C21478   4.031   8.132   9.619  0.2401  0.0496 -1.2867
  160MOL0     C21479   3.910   8.187   9.696  0.3359 -0.3380 -0.1287
  160MOL0     C21480   3.799   8.214   9.588 -0.2872  0.1978 -0.1205
  160MOL0     C21481   3.668   8.268   9.652  0.2102 -0.3111 -0.0185
  160MOL0     N21482   3.565   8.298   9.559  0.8138 -0.6988 -0.3163
  160MOL0     C21483   3.546   8.237   9.436 -0.7542 -0.3087 -0.8188
  160MOL0     C21484   3.428   8.289   9.392  0.6987  0.3441 -0.9413
  160MOL0     C21485   3.358   8.263   9.266  0.0333 -0.4621 -0.0666
  160MOL0     C21486   3.240   8.168   9.296  0.0968 -0.0596  0.2991
  160MOL0     C21487   3.124   8.192   9.200  0.1372  0.7326 -0.0001
  160MOL0     C21488   3.021   8.283   9.263 -0.0221 -0.3108  0.4794
  160MOL0     O21489   2.899   8.284   9.191 -0.0565 -0.3858  0.5905
  160MOL0     C21490   2.789   8.206   9.214 -0.2564 -0.0260  0.2859
  160MOL0     C21491   2.791   8.094   9.296  0.8692  0.6944  0.0527
  160MOL0     C21492   2.682   8.002   9.307 -0.1403 -0.3730 -0.3944
  160MOL0     C21493   2.701   7.875   9.390 -0.9470  0.2858  0.2964
  160MOL0     C21494   2.556   8.043   9.252 -0.1925  0.1365  0.0286
  160MOL0     C21495   2.427   7.984   9.269 -0.3538  0.1364  0.0087
  160MOL0     O21496   2.321   8.023   9.176  0.0864 -0.3446 -0.2246
  160MOL0     C21497   2.197   7.957   9.166 -0.6153  0.1880 -0.4038
  160MOL0     C21498   2.112   7.937   9.272  0.0230 -0.4662 -0.3910
  160MOL0     C21499   1.995   7.864   9.271  0.1069 -0.1344  0.1861
  160MOL0     C21500   1.966   7.803   9.150 -0.9595 -0.8623 -0.4207
  160MOL0     O21501   1.850   7.741   9.131 -0.1810  0.1539  0.4360
  160MOL0     C21502   1.726   7.803   9.163  0.1388  0.1766 -0.1995
  160MOL0     C21503   1.654   7.834   9.035  0.2032  0.3960 -1.1181
  160MOL0     C21504   1.528   7.913   9.054  0.1495  0.5542 -0.2116
  160MOL0     C21505   1.437   7.897   8.932 -1.1755  0.1497  0.6863
  160MOL0     C21506   1.323   8.004   8.918 -0.0166 -0.4530  0.2458
  160MOL0     C21507   1.206   7.994   9.019  0.5722  0.1277 -0.2611
  160MOL0     C21508   1.149   7.856   9.035 -0.6863  1.2658 -0.4046
  160MOL0     C21509   1.000   7.862   9.052  0.3994 -0.2887  1.1512
  160MOL0    Cl21510   0.929   7.929   8.905 -0.3494  0.2834  0.6119
  160MOL0     C21511   2.058   7.810   9.042  0.4711 -0.4297  0.3467
  160MOL0     C21512   2.170   7.894   9.043 -0.5409  0.0079  0.5444
  160MOL0     O21513   2.417   7.900   9.356 -0.2618  0.1488 -0.1583
  160MOL0     C21514   2.556   8.153   9.169 -0.6164  0.1349 -0.2944
  160MOL0     C21515   2.674   8.236   9.147  0.2650  0.6057  0.1407
  160MOL0     N21516   3.381   8.376   9.486 -0.1984  0.1517 -0.0634
  160MOL0     N21517   3.457   8.380   9.587 -0.3186  0.1986  0.2906
  160MOL0     C21518   4.755   7.938   9.584 -0.4486 -0.0179  0.1613
  160MOL0     C21519   4.871   7.936   9.499 -0.4270  0.4962  0.1097
  160MOL0     C21520   5.191   7.960   9.222 -0.2303  0.3084  0.8651
  160MOL0     C21521   5.197   7.849   9.138  0.2217  0.3884  0.3272
  160MOL0     C21522   5.308   7.809   9.070 -0.2592 -0.0120 -0.4401
  160MOL0     C21523   5.432   7.875   9.083  0.8865 -0.5699  0.5092
  160MOL0     O21524   5.545   7.817   9.032  0.1972  0.5868 -0.1386
  160MOL0     C21525   5.677   7.846   9.081  0.7304  0.0363 -0.1312
  160MOL0     C21526   5.775   7.736   9.038  0.2506  0.3014  0.3439
  160MOL0     C21527   5.778   7.730   8.882 -0.5687 -1.0830 -0.1288
  160MOL0     C21528   5.868   7.850   8.829  0.2834 -0.0501 -0.3938
  160MOL0     C21529   6.015   7.812   8.822  0.3286 -0.3582 -0.1192
  160MOL0     C21530   6.122   7.768   8.803  0.6789 -0.5115 -0.6220
  160MOL0     C21531   5.430   7.988   9.174 -0.1589 -0.4319  0.1045
  160MOL0     C21532   5.309   8.027   9.235 -0.0673 -0.5014 -0.6557
  160MOL0     H21533   4.716   7.903   9.207 -1.0376 -0.6870 -0.4889
  160MOL0     H21534   4.514   7.907   9.351 -1.0183 -1.6150  0.4841
  160MOL0     H21535   4.583   7.979   9.780 -0.8102 -0.4858 -0.6471
  160MOL0     H21536   4.556   8.122   9.688 -0.2267  0.9333  4.8063
  160MOL0     H21537   4.349   7.949   9.820  0.7459 -0.2784  0.9220
  160MOL0     H21538   4.378   8.116   9.848  0.3085  0.2943 -1.0547
  160MOL0     H21539   4.289   8.190   9.633  1.2219  0.1035  2.2141
  160MOL0     H21540   4.272   8.037   9.571 -0.3964 -0.7518 -0.0191
  160MOL0     H21541   4.098   7.973   9.745 -0.6606  0.1356 -0.3022
  160MOL0     H21542   4.116   8.130   9.827  1.4604  0.5098  0.6169
  160MOL0     H21543   4.058   8.220   9.561 -1.5909  1.0137 -0.7352
  160MOL0     H21544   4.006   8.046   9.555  0.5166  0.4586 -1.9476
  160MOL0     H21545   3.863   8.114   9.762 -1.1305 -1.0880 -1.9281
  160MOL0     H21546   3.933   8.278   9.751 -1.1688 -0.5239  0.8611
  160MOL0     H21547   3.848   8.285   9.522  0.5052  0.5115  0.7763
  160MOL0     H21548   3.778   8.126   9.526 -2.6479  1.5704 -1.4076
  160MOL0     H21549   3.691   8.361   9.703  0.4373  0.3628 -1.3128
  160MOL0     H21550   3.624   8.192   9.718  0.5102 -1.1552 -0.7767
  160MOL0     H21551   3.614   8.175   9.377  1.8762 -0.3359  1.9843
  160MOL0     H21552   3.315   8.356   9.227 -2.0210 -1.2830  0.1430
  160MOL0     H21553   3.425   8.217   9.193 -0.5406  0.7919 -1.4252
  160MOL0     H21554   3.210   8.165   9.401 -0.1790  0.9596  0.2545
  160MOL0     H21555   3.285   8.069   9.282  1.7967  0.6726  0.3569
  160MOL0     H21556   3.078   8.094   9.181  2.9114 -0.6065 -0.3379
  160MOL0     H21557   3.148   8.221   9.098 -0.3849 -1.2761 -0.7472
  160MOL0     H21558   3.054   8.387   9.275  1.0977 -0.6411  0.3586
  160MOL0     H21559   3.002   8.257   9.368 -0.8155  0.0408  0.4300
  160MOL0     H21560   2.889   8.071   9.336  0.9368 -1.9504 -1.4370
  160MOL0     H21561   2.656   7.882   9.489 -0.9745  1.4179  0.2228
  160MOL0     H21562   2.655   7.792   9.336  0.7230  0.2730 -1.1873
  160MOL0     H21563   2.808   7.855   9.399 -0.5977  1.5908 -0.5085
  160MOL0     H21564   2.146   7.988   9.362 -3.5136  0.5996  0.4663
  160MOL0     H21565   1.932   7.859   9.360  1.4547 -0.3634  1.1502
  160MOL0     H21566   1.673   7.732   9.227  2.0198 -1.7010 -0.5975
  160MOL0     H21567   1.736   7.893   9.225 -1.1661  0.7188 -0.7556
  160MOL0     H21568   1.715   7.899   8.971 -2.9651  0.8304 -3.9946
  160MOL0     H21569   1.625   7.736   8.994  1.2363 -1.9076  3.0906
  160MOL0     H21570   1.554   8.018   9.066 -0.1896  0.7017 -0.7279
  160MOL0     H21571   1.476   7.882   9.146 -0.7020  1.9147 -0.2100
  160MOL0     H21572   1.501   7.916   8.846  0.9446 -0.0541  2.1348
  160MOL0     H21573   1.399   7.795   8.923 -2.8057  0.7777  0.0317
  160MOL0     H21574   1.276   7.999   8.820  0.7479  1.1272 -0.2385
  160MOL0     H21575   1.366   8.104   8.925 -1.3925  0.5955 -3.5496
  160MOL0     H21576   1.229   8.031   9.119 -4.5017 -0.7167  1.5400
  160MOL0     H21577   1.132   8.068   8.986  0.9432  1.7121  2.2277
  160MOL0     H21578   1.201   7.806   9.116 -1.6772 -0.0759 -0.5556
  160MOL0     H21579   1.170   7.799   8.944  2.9434 -1.3917  1.8421
  160MOL0     H21580   0.971   7.918   9.142  0.6382  0.2368  0.9082
  160MOL0     H21581   0.946   7.767   9.059 -2.5720  1.1795 -0.1275
  160MOL0     H21582   2.018   7.759   8.955 -2.0623 -1.2185  1.8470
  160MOL0     H21583   2.242   7.896   8.961  1.4892  0.2885  2.2456
  160MOL0     H21584   2.470   8.194   9.118 -1.8925  0.0785  1.6905
  160MOL0     H21585   2.667   8.327   9.089 -2.2225  1.0364  0.9809
  160MOL0     H21586   4.768   7.933   9.692 -1.9670 -2.1413  0.3149
  160MOL0     H21587   4.972   7.938   9.538  0.0779 -1.0060 -1.0069
  160MOL0     H21588   5.107   7.788   9.141  0.6730 -0.2756  0.7645
  160MOL0     H21589   5.304   7.719   9.010  0.9074 -0.2221 -0.2238
  160MOL0     H21590   5.699   7.944   9.037 -1.9043  0.7961  0.0797
  160MOL0     H21591   5.681   7.861   9.190 -2.4774  2.1113 -0.1622
  160MOL0     H21592   5.730   7.639   9.060 -0.2190  0.4355 -0.0147
  160MOL0     H21593   5.875   7.753   9.079  1.8200  2.5942 -3.7421
  160MOL0     H21594   5.679   7.734   8.835 -0.1192  1.4286 -1.0295
  160MOL0     H21595   5.828   7.639   8.850  1.8072 -1.3568  3.6781
  160MOL0     H21596   5.872   7.944   8.885  2.2815  0.8278 -1.8414
  160MOL0     H21597   5.837   7.863   8.725  1.9363 -0.9028 -1.0418
  160MOL0     H21598   6.223   7.734   8.797  1.5145  1.7534 -0.3374
  160MOL0     H21599   5.517   8.048   9.199 -1.2120  2.3676 -2.2974
  160MOL0     H21600   5.312   8.124   9.281  2.4456 -0.4812 -0.6852
  161MOL0     O21601  10.827   0.923   0.653 -0.2672  0.1684 -0.4074
  161MOL0     C21602  10.892   0.904   0.550  0.1394  0.4902 -0.6780
  161MOL0     O21603  10.855   0.808   0.451 -0.0592  0.5502  0.1465
  161MOL0     C21604  10.758   0.714   0.476  0.1622 -0.4567  0.1262
  161MOL0     C21605  10.785   0.572   0.457 -0.1323 -0.8001 -0.0732
  161MOL0     C21606  10.679   0.481   0.464  0.4963 -0.6349 -0.1276
  161MOL0     C21607  10.556   0.521   0.506  0.6113 -0.2254  0.7202
  161MOL0     O21608  10.469   0.414   0.511 -0.1444 -0.7623 -0.4873
  161MOL0     C21609  10.332   0.445   0.544 -0.8018  0.3829  0.4140
  161MOL0     C21610  10.256   0.328   0.483 -0.7267 -0.7226 -0.4324
  161MOL0     C21611  10.117   0.326   0.543 -0.2826 -0.1502 -0.1197
  161MOL0     C21612  10.028   0.210   0.504 -1.2789 -0.0597 -0.2076
  161MOL0     C21613   9.884   0.237   0.541 -0.9050 -0.0156 -0.0225
  161MOL0     C21614   9.799   0.126   0.479 -0.4157 -0.2742 -0.6057
  161MOL0     C21615   9.661   0.148   0.521  0.1216  0.1691 -0.0562
  161MOL0     C21616   9.629   0.117   0.666 -0.3348  0.1774 -0.1417
  161MOL0     N21617   9.495   0.163   0.693 -0.1727 -0.8961 -0.4090
  161MOL0     C21618   9.460   0.299   0.686  0.3567  0.0876 -0.1048
  161MOL0     C21619   9.333   0.303   0.733 -0.3414 -0.0585  0.4451
  161MOL0     C21620   9.260   0.429   0.761  0.7117 -0.7536 -0.0540
  161MOL0     C21621   9.115   0.395   0.818 -0.5719  0.3139  0.6841
  161MOL0     C21622   9.045   0.526   0.848 -0.1066 -0.9200 -0.1523
  161MOL0     C21623   8.930   0.505   0.937 -0.4421 -0.3496  0.2249
  161MOL0     O21624   8.829   0.419   0.887 -0.0756  0.4792 -0.6834
  161MOL0     C21625   8.752   0.346   0.971  0.1623  0.9219  0.3522
  161MOL0     C21626   8.676   0.248   0.915 -0.3924  0.2249 -0.3897
  161MOL0     C21627   8.593   0.161   0.995  0.3238  0.4139 -0.3849
  161MOL0     C21628   8.522   0.067   0.905  0.9846  0.0272 -0.5078
  161MOL0     C21629   8.579   0.176   1.134 -0.1611  0.4426  0.2217
  161MOL0     C21630   8.493   0.083   1.211  0.9810  0.2170  0.0180
  161MOL0     O21631   8.424  -0.012   1.153 -0.0882  0.0779  0.6005
  161MOL0     C21632   8.324  -0.089   1.208 -0.2011 -0.1890 -0.3809
  161MOL0     C21633   8.275  -0.205   1.132 -0.3148 -0.3427 -0.1035
  161MOL0     C21634   8.174  -0.285   1.183  0.3284 -0.2210  0.7086
  161MOL0     C21635   8.122  -0.261   1.310  0.1395  0.8748 -0.0241
  161MOL0     O21636   8.015  -0.341   1.337 -0.6933  0.4954 -0.5238
  161MOL0     C21637   7.995  -0.355   1.474  0.2108 -0.5645 -0.8637
  161MOL0     C21638   7.899  -0.469   1.496 -0.4596  0.2297  0.0492
  161MOL0     C21639   7.748  -0.425   1.491  0.9087 -0.0545 -0.6357
  161MOL0     C21640   7.671  -0.503   1.587  0.3546  0.3852  0.3969
  161MOL0     C21641   7.521  -0.467   1.573  0.6639  0.3792 -0.5470
  161MOL0     C21642   7.430  -0.563   1.656 -0.0552 -0.1639  0.4755
  161MOL0     C21643   7.285  -0.525   1.648  0.0767 -0.3245  0.0024
  161MOL0     C21644   7.193  -0.595   1.755  0.3005  0.4687 -0.8869
  161MOL0    Cl21645   7.201  -0.771   1.736  0.2665  0.1695  0.3146
  161MOL0     C21646   8.164  -0.145   1.381 -0.5025  0.2877 -0.4485
  161MOL0     C21647   8.265  -0.065   1.328  0.2638 -0.0865 -0.0872
  161MOL0     O21648   8.489   0.107   1.328 -0.2784  0.9427 -0.2616
  161MOL0     C21649   8.664   0.274   1.191  0.2134  0.3035  0.0458
  161MOL0     C21650   8.748   0.359   1.114 -0.8748 -0.0666  0.6989
  161MOL0     N21651   9.285   0.175   0.732 -0.3685  0.1831 -0.1338
  161MOL0     N21652   9.385   0.094   0.714 -0.1022  0.6266 -0.2344
  161MOL0     C21653  10.526   0.661   0.527  0.6730 -0.2713  0.0550
  161MOL0     C21654  10.630   0.754   0.505  0.1854  0.3511  0.4567
  161MOL0     C21655  11.011   0.987   0.525  0.3833 -0.1915 -1.1093
  161MOL0     C21656  11.041   1.097   0.609 -0.0820 -0.5355 -0.5497
  161MOL0     C21657  11.144   1.181   0.566 -0.1205 -0.2250  0.2261
  161MOL0     C21658  11.217   1.166   0.445 -0.1760  0.5516  0.0578
  161MOL0     O21659  11.308   1.256   0.404  0.6550 -0.5044  0.4306
  161MOL0     C21660  11.374   1.338   0.500  0.8630 -0.3624  0.3214
  161MOL0     C21661  11.466   1.427   0.425  0.5029 -0.3762 -0.2869
  161MOL0     C21662  11.576   1.343   0.383 -0.0381  0.6891 -0.0915
  161MOL0     C21663  11.677   1.430   0.322 -0.9664  0.1106  0.1432
  161MOL0     C21664  11.794   1.352   0.283 -0.1402  0.6394 -0.7534
  161MOL0     C21665  11.884   1.289   0.236  0.2131  0.5216  0.0538
  161MOL0     C21666  11.184   1.062   0.362 -0.0971  1.0988 -0.5142
  161MOL0     C21667  11.084   0.968   0.409 -0.3705  0.2812 -0.0196
  161MOL0     H21668  10.889   0.545   0.443 -0.1583 -2.2240  2.0721
  161MOL0     H21669  10.678   0.373   0.449 -1.9035 -0.9458  1.6686
  161MOL0     H21670  10.319   0.456   0.652 -0.1745 -1.0627  0.6633
  161MOL0     H21671  10.272   0.522   0.495  0.2517 -1.0909 -3.5383
  161MOL0     H21672  10.246   0.337   0.375  0.5517  0.5951 -0.4648
  161MOL0     H21673  10.298   0.231   0.515  1.2289 -0.1318 -1.0602
  161MOL0     H21674  10.135   0.330   0.651  0.5351  1.9251 -0.2825
  161MOL0     H21675  10.068   0.421   0.521  1.2524  1.0745  1.4499
  161MOL0     H21676  10.039   0.197   0.396 -0.3962  1.1530 -0.2826
  161MOL0     H21677  10.056   0.117   0.555 -1.8551  1.0722  2.3062
  161MOL0     H21678   9.895   0.248   0.649  0.9647  0.9708 -0.2637
  161MOL0     H21679   9.850   0.334   0.505 -1.4958  0.8817  2.7393
  161MOL0     H21680   9.816   0.126   0.371  1.2701 -0.6251 -0.3609
  161MOL0     H21681   9.835   0.031   0.519  2.1341  1.2611  1.0098
  161MOL0     H21682   9.644   0.254   0.498 -1.3637 -0.3239 -1.3862
  161MOL0     H21683   9.579   0.102   0.465 -0.4092 -0.2673  1.0377
  161MOL0     H21684   9.691   0.178   0.732  1.2489 -0.3411 -1.1047
  161MOL0     H21685   9.634   0.009   0.682  3.0732 -0.2850 -2.9743
  161MOL0     H21686   9.526   0.384   0.671  0.5097  0.1122  0.6581
  161MOL0     H21687   9.307   0.494   0.836 -4.7673  0.3719  2.9020
  161MOL0     H21688   9.248   0.487   0.669 -1.1639 -1.5484 -0.3539
  161MOL0     H21689   9.103   0.330   0.905 -0.2297 -1.7697 -0.7353
  161MOL0     H21690   9.065   0.331   0.744  1.5497 -1.4905  0.6969
  161MOL0     H21691   9.011   0.574   0.755  1.0090 -0.8007 -0.5143
  161MOL0     H21692   9.109   0.600   0.897 -0.6685  0.2809 -1.1560
  161MOL0     H21693   8.885   0.601   0.964 -1.9428 -0.0524 -2.9102
  161MOL0     H21694   8.961   0.461   1.032  1.6339  0.3089 -0.0822
  161MOL0     H21695   8.679   0.235   0.808 -1.8161 -1.7599 -0.2306
  161MOL0     H21696   8.415   0.090   0.917  1.5454  1.8569  1.7907
  161MOL0     H21697   8.553   0.090   0.803 -1.5210  1.8436 -0.9595
  161MOL0     H21698   8.548  -0.034   0.939 -0.5049 -0.7003 -1.4046
  161MOL0     H21699   8.307  -0.226   1.030  1.6764 -0.2065  0.4399
  161MOL0     H21700   8.130  -0.360   1.118 -0.0512  0.0418  0.6592
  161MOL0     H21701   8.086  -0.384   1.526 -0.4700 -0.5651  0.3523
  161MOL0     H21702   7.951  -0.273   1.532  0.6466 -1.9361  1.5139
  161MOL0     H21703   7.922  -0.548   1.424 -0.0223 -1.6456  2.1021
  161MOL0     H21704   7.924  -0.500   1.598 -0.2144 -0.4437 -0.2066
  161MOL0     H21705   7.723  -0.451   1.388  1.0348  3.8910 -1.8364
  161MOL0     H21706   7.732  -0.319   1.510  1.7527  0.0541 -0.4603
  161MOL0     H21707   7.672  -0.608   1.557 -2.3809  1.0807 -2.5889
  161MOL0     H21708   7.692  -0.490   1.694 -3.7690 -0.7015  1.5211
  161MOL0     H21709   7.481  -0.473   1.472  1.0396 -1.8661 -0.6015
  161MOL0     H21710   7.507  -0.369   1.621  2.2235 -0.3079  1.4450
  161MOL0     H21711   7.444  -0.662   1.614  0.4887  1.2043 -2.8492
  161MOL0     H21712   7.465  -0.564   1.760  0.2500 -0.1167  0.3736
  161MOL0     H21713   7.252  -0.539   1.544 -1.2136  1.3931  0.1342
  161MOL0     H21714   7.270  -0.417   1.651  1.0555 -0.2113  1.0888
  161MOL0     H21715   7.089  -0.563   1.740 -0.0435  1.0729  2.2425
  161MOL0     H21716   7.235  -0.557   1.848 -1.8869  2.9444 -0.7799
  161MOL0     H21717   8.116  -0.125   1.477  0.5045 -2.3509  0.6877
  161MOL0     H21718   8.300   0.013   1.395 -0.3314  0.1655 -0.0634
  161MOL0     H21719   8.670   0.287   1.299  0.9489  0.9490 -0.0621
  161MOL0     H21720   8.807   0.425   1.176 -0.1132 -0.4098  0.3600
  161MOL0     H21721  10.429   0.699   0.559  0.3620 -0.2881 -0.8488
  161MOL0     H21722  10.615   0.860   0.526  3.8687  1.4408 -1.5456
  161MOL0     H21723  10.985   1.116   0.700  1.3790  1.5997 -0.0316
  161MOL0     H21724  11.173   1.249   0.645  0.9163 -1.8652  1.3110
  161MOL0     H21725  11.303   1.411   0.540  2.5389  2.5995 -1.7635
  161MOL0     H21726  11.426   1.281   0.578  2.3129 -1.6033 -1.4604
  161MOL0     H21727  11.498   1.503   0.497 -2.8482  0.8614  0.0947
  161MOL0     H21728  11.406   1.481   0.351 -1.3485 -0.7627  0.8669
  161MOL0     H21729  11.544   1.263   0.316 -0.4064  1.4477 -0.8437
  161MOL0     H21730  11.624   1.293   0.469 -0.4361 -3.1880 -1.9026
  161MOL0     H21731  11.711   1.508   0.391 -3.2838 -0.0202  1.5260
  161MOL0     H21732  11.636   1.476   0.231  2.5786 -0.7762 -2.1194
  161MOL0     H21733  11.973   1.239   0.202  1.5810  1.6878  1.7605
  161MOL0     H21734  11.249   1.034   0.279  0.9650 -3.6702  1.5593
  161MOL0     H21735  11.047   0.891   0.342  0.0707  1.3701 -1.5512
  162MOL0     O21736   4.522   6.695   6.654  0.0437  0.2248 -0.3368
  162MOL0     C21737   4.483   6.812   6.671  0.2672 -0.2063 -0.1049
  162MOL0     O21738   4.358   6.854   6.641 -0.3794  0.5708 -0.0347
  162MOL0     C21739   4.279   6.771   6.563  0.3254  0.4446  0.8876
  162MOL0     C21740   4.308   6.713   6.443 -1.4358 -0.2057 -0.0015
  162MOL0     C21741   4.213   6.652   6.366 -0.3165 -1.0910 -0.4777
  162MOL0     C21742   4.087   6.642   6.405  0.4013  0.2028 -0.2784
  162MOL0     O21743   4.007   6.574   6.317  0.1949 -0.0363  0.3707
  162MOL0     C21744   3.866   6.573   6.334  0.3312 -0.1577 -0.0633
  162MOL0     C21745   3.791   6.508   6.221 -0.4191  0.3195 -0.5552
  162MOL0     C21746   3.647   6.505   6.258  0.1761  0.4751 -0.2015
  162MOL0     C21747   3.574   6.421   6.157 -0.8339 -0.1593  0.5068
  162MOL0     C21748   3.419   6.430   6.170  0.0135  0.5189  0.2190
  162MOL0     C21749   3.347   6.319   6.081 -0.0187 -0.2835 -0.8318
  162MOL0     C21750   3.196   6.318   6.107  0.4918  0.2464 -0.1174
  162MOL0     C21751   3.126   6.411   6.009 -0.1437  0.2132  0.6461
  162MOL0     N21752   2.988   6.374   5.983 -0.1670 -0.7274 -0.6990
  162MOL0     C21753   2.948   6.271   5.906 -0.3996  0.0014  0.2503
  162MOL0     C21754   2.818   6.251   5.937 -0.5521 -0.0023  0.7243
  162MOL0     C21755   2.721   6.144   5.887 -0.6578 -0.3119  0.9490
  162MOL0     C21756   2.725   6.125   5.734  0.0278  0.2077  0.6874
  162MOL0     C21757   2.627   6.011   5.700 -0.3447 -0.1167 -0.3422
  162MOL0     C21758   2.480   6.050   5.692  0.4838 -0.2972 -0.0846
  162MOL0     O21759   2.478   6.125   5.575  0.3707 -0.7518 -0.7075
  162MOL0     C21760   2.356   6.135   5.508 -0.0938  0.2398  1.3120
  162MOL0     C21761   2.373   6.206   5.387 -0.1414  0.7458 -0.0483
  162MOL0     C21762   2.271   6.224   5.298  0.6455  0.6114 -0.6928
  162MOL0     C21763   2.302   6.302   5.174 -0.1284 -0.0493 -0.5508
  162MOL0     C21764   2.142   6.180   5.336 -0.2401 -0.1068 -0.1711
  162MOL0     C21765   2.012   6.183   5.253 -0.5922  0.2997  0.3869
  162MOL0     O21766   1.915   6.091   5.291 -0.1405 -0.2718  0.2811
  162MOL0     C21767   1.794   6.093   5.225  0.7296 -0.0705 -0.2373
  162MOL0     C21768   1.759   5.980   5.146 -0.2543  0.5919  0.0690
  162MOL0     C21769   1.649   5.975   5.065 -0.6636  0.5465 -0.8940
  162MOL0     C21770   1.564   6.082   5.071  0.3599 -0.7435 -0.0005
  162MOL0     O21771   1.441   6.090   5.014 -0.1213 -0.0265 -0.4738
  162MOL0     C21772   1.335   6.044   5.085 -0.2861 -0.7219 -0.6090
  162MOL0     C21773   1.247   5.950   5.003 -0.1883 -0.3101  0.0321
  162MOL0     C21774   1.105   5.955   5.062  0.3487 -0.5386  0.0967
  162MOL0     C21775   1.019   5.841   4.994  0.5078 -0.0738  0.1792
  162MOL0     C21776   0.867   5.871   5.023 -1.5707  0.0599  0.5788
  162MOL0     C21777   0.788   5.777   4.929  0.4399  0.8586 -0.0425
  162MOL0     C21778   0.637   5.756   4.967  0.2858 -0.4884 -0.0391
  162MOL0     C21779   0.568   5.655   4.880  0.0127 -0.2710 -0.5413
  162MOL0    Cl21780   0.539   5.715   4.713 -0.2154  0.1428 -0.2135
  162MOL0     C21781   1.596   6.189   5.153  0.0105  0.2853 -0.5702
  162MOL0     C21782   1.712   6.207   5.225  0.3508 -0.1023 -0.1566
  162MOL0     O21783   1.999   6.265   5.168 -0.0983  0.3494 -0.4090
  162MOL0     C21784   2.114   6.124   5.470 -0.8281  0.8413  1.0309
  162MOL0     C21785   2.226   6.099   5.553 -0.1833  1.1920 -0.5240
  162MOL0     N21786   2.779   6.357   6.017  0.5936 -0.6127 -0.0458
  162MOL0     N21787   2.881   6.436   6.047  0.4049  0.1249  0.1587
  162MOL0     C21788   4.047   6.699   6.529  0.1221 -0.6510  0.2079
  162MOL0     C21789   4.140   6.767   6.602 -0.1049 -0.4449  0.4081
  162MOL0     C21790   4.584   6.902   6.724 -0.1566 -0.9797  0.0575
  162MOL0     C21791   4.550   7.036   6.745  0.3759  0.5614 -0.3236
  162MOL0     C21792   4.642   7.128   6.797 -0.2728 -0.7445  0.1467
  162MOL0     C21793   4.761   7.085   6.845  0.0967  0.5275  0.9746
  162MOL0     O21794   4.846   7.181   6.888  0.0762 -0.3160  0.8988
  162MOL0     C21795   4.980   7.161   6.897  0.0918 -0.1008  0.3699
  162MOL0     C21796   5.052   7.183   6.769 -0.3264 -0.2361 -0.3498
  162MOL0     C21797   5.041   7.328   6.730  0.6637 -0.4601  0.4648
  162MOL0     C21798   5.154   7.394   6.650 -0.6306 -0.3589  0.0440
  162MOL0     C21799   5.286   7.384   6.709 -0.0741  0.5584  0.2547
  162MOL0     C21800   5.408   7.383   6.745  0.0834  0.9360  0.4249
  162MOL0     C21801   4.790   6.948   6.838 -0.6445  0.3493 -0.4732
  162MOL0     C21802   4.706   6.858   6.769 -0.3058 -0.7780 -0.6584
  162MOL0     H21803   4.411   6.708   6.411 -2.1829 -2.0593 -2.5161
  162MOL0     H21804   4.246   6.597   6.279 -0.2266  0.5394 -1.5229
  162MOL0     H21805   3.838   6.521   6.426  2.7084  0.8339  1.3018
  162MOL0     H21806   3.828   6.675   6.334  0.7150 -0.0040 -1.1451
  162MOL0     H21807   3.796   6.549   6.119 -3.0515 -2.6826 -2.0754
  162MOL0     H21808   3.835   6.408   6.213  0.2875  0.6532 -0.9191
  162MOL0     H21809   3.622   6.452   6.351 -0.3438 -1.1432 -1.2242
  162MOL0     H21810   3.603   6.605   6.265 -2.7986 -0.5161 -2.5510
  162MOL0     H21811   3.587   6.450   6.052 -2.5866  1.7965  0.7741
  162MOL0     H21812   3.605   6.317   6.171 -0.5292  0.1619  2.4960
  162MOL0     H21813   3.407   6.421   6.279  0.9538  1.3878  0.4070
  162MOL0     H21814   3.395   6.531   6.136  0.3865  0.9355  1.1397
  162MOL0     H21815   3.377   6.346   5.980  1.9292  1.9124  0.2511
  162MOL0     H21816   3.390   6.220   6.099 -1.5360 -0.7536  0.5657
  162MOL0     H21817   3.168   6.213   6.099  1.7294 -0.3107  2.0723
  162MOL0     H21818   3.177   6.352   6.210 -0.9792  1.5446 -0.7740
  162MOL0     H21819   3.186   6.413   5.917 -2.4251 -1.1126 -0.9911
  162MOL0     H21820   3.136   6.513   6.047  0.9839  1.5885 -2.9258
  162MOL0     H21821   3.010   6.205   5.846  1.0120  1.4308  0.0711
  162MOL0     H21822   2.738   6.048   5.937  0.4292 -1.5957 -1.7180
  162MOL0     H21823   2.624   6.194   5.890 -0.4452  0.7330 -3.5608
  162MOL0     H21824   2.827   6.099   5.705 -0.5547  1.8999 -3.6511
  162MOL0     H21825   2.695   6.220   5.689 -0.9792  0.1338  1.1861
  162MOL0     H21826   2.634   5.936   5.779  0.3759 -0.0385 -0.3218
  162MOL0     H21827   2.663   5.969   5.605  0.4851  2.4013 -1.2196
  162MOL0     H21828   2.445   6.106   5.780 -0.5882  0.8567 -1.1976
  162MOL0     H21829   2.424   5.957   5.680  0.5509 -0.3665  0.1401
  162MOL0     H21830   2.477   6.216   5.357 -1.0285  1.8936 -3.0961
  162MOL0     H21831   2.403   6.343   5.183 -0.1015 -0.4962  2.3050
  162MOL0     H21832   2.282   6.238   5.088  0.3346 -1.6050  0.4732
  162MOL0     H21833   2.228   6.383   5.169 -2.1037 -1.2922  3.5786
  162MOL0     H21834   1.839   5.907   5.144 -0.9203 -0.1250 -0.8106
  162MOL0     H21835   1.636   5.891   4.997  1.8648 -1.2963  0.7141
  162MOL0     H21836   1.379   5.987   5.168  1.3340  0.1922 -0.8120
  162MOL0     H21837   1.283   6.132   5.124  1.3644 -0.9619  2.5049
  162MOL0     H21838   1.256   5.985   4.899  1.3592 -0.1450  0.1993
  162MOL0     H21839   1.270   5.845   5.023  0.6174  0.2516  2.2937
  162MOL0     H21840   1.056   6.052   5.052  2.4820  0.5745 -0.1612
  162MOL0     H21841   1.110   5.934   5.169  0.1770  0.0823  0.2285
  162MOL0     H21842   1.036   5.831   4.886 -1.6628  0.6288 -0.2864
  162MOL0     H21843   1.055   5.752   5.045  0.1954 -0.6498 -0.5831
  162MOL0     H21844   0.838   5.974   5.002 -1.1544  0.0717  0.0677
  162MOL0     H21845   0.843   5.840   5.126  1.8114 -1.9668  0.9328
  162MOL0     H21846   0.788   5.816   4.827  2.8860 -0.0488 -0.4523
  162MOL0     H21847   0.831   5.678   4.916 -3.1018 -0.5506 -2.5436
  162MOL0     H21848   0.585   5.852   4.963  0.7451 -0.2147  0.3997
  162MOL0     H21849   0.629   5.722   5.071 -0.0637  1.0418  0.4607
  162MOL0     H21850   0.468   5.636   4.921  0.3262  0.3178  0.5514
  162MOL0     H21851   0.624   5.561   4.873 -1.4977 -1.1305 -1.6669
  162MOL0     H21852   1.522   6.268   5.151 -1.5822 -0.9927  2.1907
  162MOL0     H21853   1.745   6.300   5.271 -1.5475  0.6066 -0.1482
  162MOL0     H21854   2.017   6.083   5.498 -1.8272  0.5435 -2.4336
  162MOL0     H21855   2.217   6.053   5.651  0.8674 -0.1303 -1.0333
  162MOL0     H21856   3.941   6.703   6.552  0.4682 -1.2605  2.0484
  162MOL0     H21857   4.098   6.833   6.677  0.2499  0.2289  0.0207
  162MOL0     H21858   4.447   7.062   6.721  0.5173  2.1002  0.5559
  162MOL0     H21859   4.613   7.230   6.817 -1.0912 -1.3592  2.4121
  162MOL0     H21860   5.013   7.236   6.969  0.1906  1.5764 -1.3378
  162MOL0     H21861   5.006   7.062   6.935  2.1654 -0.5969 -2.0629
  162MOL0     H21862   5.016   7.110   6.696 -1.4880 -2.1185  1.9602
  162MOL0     H21863   5.156   7.154   6.782 -1.1234 -3.3157 -0.0216
  162MOL0     H21864   5.023   7.388   6.820 -1.7568 -0.1482 -0.1493
  162MOL0     H21865   4.948   7.343   6.675  0.9130  0.4093  0.2644
  162MOL0     H21866   5.135   7.499   6.627 -1.4598 -0.7827 -1.3727
  162MOL0     H21867   5.151   7.342   6.554 -1.8558  2.9311 -1.8433
  162MOL0     H21868   5.509   7.377   6.780 -0.2820  2.7679  1.9106
  162MOL0     H21869   4.883   6.903   6.873 -2.4832 -4.6686 -1.2215
  162MOL0     H21870   4.743   6.756   6.775  1.5691 -0.2183 -1.7557
  163MOL0     O21871  11.181   1.732   8.216  0.2374  0.2884 -0.1895
  163MOL0     C21872  11.253   1.817   8.160 -0.9210  0.4454 -0.1605
  163MOL0     O21873  11.230   1.877   8.037 -1.2945 -0.3427 -0.0363
  163MOL0     C21874  11.106   1.858   7.982 -0.3368 -0.1242  0.1816
  163MOL0     C21875  10.990   1.892   8.051  0.1037  0.4981 -0.8784
  163MOL0     C21876  10.862   1.875   7.997  0.2467 -0.1962 -0.3966
  163MOL0     C21877  10.856   1.833   7.860 -0.4894  0.3089 -0.3352
  163MOL0     O21878  10.726   1.821   7.815  0.7125 -0.6456  0.1444
  163MOL0     C21879  10.710   1.910   7.701 -0.5501  0.0387 -0.1728
  163MOL0     C21880  10.556   1.907   7.663 -0.1883  0.4899  0.0798
  163MOL0     C21881  10.493   1.766   7.630  0.1566 -0.8790 -0.1287
  163MOL0     C21882  10.343   1.769   7.614  0.5097  0.1247  0.3399
  163MOL0     C21883  10.287   1.843   7.490  0.4873 -0.0147 -0.2592
  163MOL0     C21884  10.317   1.768   7.363 -0.1466 -0.1583  0.2965
  163MOL0     C21885  10.198   1.767   7.270  0.0422  0.4164  0.3650
  163MOL0     C21886  10.091   1.659   7.310  0.5017 -0.3448  0.7071
  163MOL0     N21887   9.970   1.650   7.225  0.1881  0.7465  0.5937
  163MOL0     C21888   9.845   1.689   7.269 -0.2501  0.6492  0.1521
  163MOL0     C21889   9.779   1.697   7.158  0.2619  0.3840  0.1630
  163MOL0     C21890   9.638   1.757   7.152  0.5158  0.0123 -0.5586
  163MOL0     C21891   9.575   1.737   7.015  0.8058 -0.0373  0.7979
  163MOL0     C21892   9.434   1.800   6.993 -0.5293  0.2651  0.3790
  163MOL0     C21893   9.398   1.826   6.850 -0.6484  0.2858 -0.1035
  163MOL0     O21894   9.368   1.711   6.778 -0.3139  0.7701  0.1713
  163MOL0     C21895   9.239   1.672   6.786  1.0906  0.5283  0.7117
  163MOL0     C21896   9.173   1.608   6.885  0.1901 -0.3309 -0.6767
  163MOL0     C21897   9.043   1.555   6.869 -0.0215 -0.6617 -0.6036
  163MOL0     C21898   8.985   1.482   6.985  0.2772  0.4126 -0.9777
  163MOL0     C21899   8.975   1.561   6.751  0.5441  0.2270  0.2870
  163MOL0     C21900   8.845   1.486   6.726 -0.4970  0.3566 -0.1952
  163MOL0     O21901   8.756   1.456   6.833 -0.4881 -0.1568 -0.5673
  163MOL0     C21902   8.625   1.423   6.793 -0.1996 -0.4991  0.3878
  163MOL0     C21903   8.541   1.467   6.892  0.1687 -0.4278  1.5837
  163MOL0     C21904   8.398   1.451   6.873 -0.0169 -0.6721 -0.7406
  163MOL0     C21905   8.352   1.378   6.767  0.2241 -0.4524 -0.0725
  163MOL0     O21906   8.220   1.370   6.742  0.1697 -0.1484 -0.3637
  163MOL0     C21907   8.154   1.474   6.665 -0.1710  0.6972 -0.4784
  163MOL0     C21908   7.997   1.466   6.657  0.3342  0.2842  0.0925
  163MOL0     C21909   7.958   1.325   6.600  0.0584 -0.0357 -0.1997
  163MOL0     C21910   7.808   1.311   6.553  1.0401 -0.1053  0.9422
  163MOL0     C21911   7.750   1.439   6.487 -0.2193 -0.1956  0.4809
  163MOL0     C21912   7.624   1.408   6.418  0.4397 -0.2709 -0.0726
  163MOL0     C21913   7.566   1.542   6.360  0.2191 -0.3994  1.1149
  163MOL0     C21914   7.472   1.511   6.249 -0.0647  0.4543  0.2528
  163MOL0    Cl21915   7.418   1.657   6.174  0.0632 -0.0843 -0.0204
  163MOL0     C21916   8.439   1.327   6.678 -0.4897  1.0322  0.4640
  163MOL0     C21917   8.574   1.346   6.693  0.0751 -0.0683 -0.6188
  163MOL0     O21918   8.818   1.477   6.603 -0.1129  1.1051 -0.2484
  163MOL0     C21919   9.041   1.626   6.650 -0.4017 -0.1170  1.0657
  163MOL0     C21920   9.170   1.679   6.663  0.3603 -0.0221 -0.3228
  163MOL0     N21921   9.858   1.662   7.045 -0.2284 -0.1885  0.7429
  163MOL0     N21922   9.975   1.629   7.091  1.0268  0.0249  0.1121
  163MOL0     C21923  10.981   1.817   7.793  0.2107 -0.4084 -0.0453
  163MOL0     C21924  11.104   1.822   7.851  0.5565 -0.0984  1.3582
  163MOL0     C21925  11.391   1.842   8.215  0.7068  0.0743 -0.4960
  163MOL0     C21926  11.470   1.952   8.164 -0.5706  0.2523 -0.1671
  163MOL0     C21927  11.599   1.969   8.211  0.6718  0.3269 -0.2236
  163MOL0     C21928  11.659   1.884   8.302 -1.0319  0.1843  0.5853
  163MOL0     O21929  11.774   1.929   8.350 -0.2557  0.5070  0.4404
  163MOL0     C21930  11.870   1.823   8.372 -0.0337 -0.7572 -0.4276
  163MOL0     C21931  12.022   1.862   8.365 -0.1449  0.1215  0.0847
  163MOL0     C21932  12.065   1.994   8.435 -0.4496  0.6804  0.0141
  163MOL0     C21933  12.214   2.026   8.423 -0.1657 -0.7199  0.0982
  163MOL0     C21934  12.266   2.088   8.544 -0.9029 -0.2761 -0.9180
  163MOL0     C21935  12.320   2.111   8.656  0.4635 -0.2142 -0.4162
  163MOL0     C21936  11.586   1.775   8.355 -0.2120  0.0366 -0.5551
  163MOL0     C21937  11.452   1.761   8.318  0.8368  0.0825  0.0844
  163MOL0     H21938  10.995   1.932   8.152 -0.0008 -2.5648  0.4431
  163MOL0     H21939  10.773   1.881   8.059  0.5263  0.2299 -0.0257
  163MOL0     H21940  10.750   2.006   7.734  1.1827 -1.5964  2.9635
  163MOL0     H21941  10.761   1.875   7.611  5.2785  1.5367  2.0913
  163MOL0     H21942  10.495   1.947   7.745  2.2783  0.9290  1.8264
  163MOL0     H21943  10.546   1.977   7.580  0.9293  0.4173 -0.1324
  163MOL0     H21944  10.544   1.743   7.537  1.6848 -0.3247  0.5403
  163MOL0     H21945  10.518   1.690   7.705  0.4896 -0.4301  0.2271
  163MOL0     H21946  10.315   1.663   7.612  1.8646 -0.2424 -0.3774
  163MOL0     H21947  10.297   1.819   7.700 -2.9163  0.0626 -1.2804
  163MOL0     H21948  10.181   1.860   7.511  0.3953 -0.8277 -0.0543
  163MOL0     H21949  10.330   1.944   7.487  0.2546  0.0833 -0.3775
  163MOL0     H21950  10.395   1.824   7.310  0.6584 -0.6338  0.9662
  163MOL0     H21951  10.351   1.667   7.385 -1.0189 -0.8534 -1.3854
  163MOL0     H21952  10.146   1.863   7.269  0.2020  0.5032  0.2565
  163MOL0     H21953  10.237   1.752   7.169 -0.6698 -2.6733  0.4540
  163MOL0     H21954  10.055   1.677   7.411  0.4049  2.5007  0.2441
  163MOL0     H21955  10.132   1.557   7.304  2.3590  0.4023 -0.4544
  163MOL0     H21956   9.820   1.715   7.371  1.7719  1.6301  0.4625
  163MOL0     H21957   9.567   1.712   7.222 -2.4782  2.5305 -1.7550
  163MOL0     H21958   9.657   1.864   7.163  2.4444 -0.0841 -2.2987
  163MOL0     H21959   9.582   1.631   6.988  1.2787 -0.3030  1.8802
  163MOL0     H21960   9.634   1.796   6.944 -1.9462  1.5068 -0.3684
  163MOL0     H21961   9.449   1.902   7.030  0.3721  0.1261  0.4294
  163MOL0     H21962   9.356   1.754   7.053 -0.4716 -1.0259 -0.5047
  163MOL0     H21963   9.483   1.876   6.802 -0.4714  1.5826  1.4751
  163MOL0     H21964   9.307   1.886   6.848 -1.3047 -0.7074 -0.7252
  163MOL0     H21965   9.225   1.584   6.978 -0.5728 -1.1629 -0.4434
  163MOL0     H21966   8.889   1.523   7.020  0.1971 -0.7877  0.2837
  163MOL0     H21967   8.975   1.376   6.961 -1.6666 -0.2573  2.1240
  163MOL0     H21968   9.051   1.477   7.072 -0.4457  0.4804 -0.4076
  163MOL0     H21969   8.583   1.523   6.975 -0.5160  0.2282  1.4952
  163MOL0     H21970   8.328   1.503   6.937  0.8136  2.8555 -2.4332
  163MOL0     H21971   8.193   1.572   6.697  2.5140  0.8329 -3.5647
  163MOL0     H21972   8.191   1.459   6.563 -2.7869 -1.6401 -1.1908
  163MOL0     H21973   7.959   1.473   6.759 -0.8696 -0.7270 -0.2608
  163MOL0     H21974   7.964   1.553   6.600 -1.3454  1.0678  2.1247
  163MOL0     H21975   7.983   1.249   6.674  1.1282  0.5589  0.0807
  163MOL0     H21976   8.019   1.312   6.510  0.4739  2.4281 -0.3484
  163MOL0     H21977   7.801   1.224   6.487  0.8575  1.7036 -1.5838
  163MOL0     H21978   7.743   1.284   6.637 -1.4390 -0.8242 -1.0808
  163MOL0     H21979   7.814   1.480   6.409 -2.0890  0.8892 -0.5397
  163MOL0     H21980   7.727   1.515   6.563  0.4441  1.1277 -0.5924
  163MOL0     H21981   7.643   1.333   6.341 -2.4006 -1.4085  0.2353
  163MOL0     H21982   7.551   1.359   6.484 -0.1679  1.1085  0.3146
  163MOL0     H21983   7.637   1.615   6.321  0.4317  0.1970  2.5607
  163MOL0     H21984   7.522   1.605   6.438  0.6806  1.1659  0.1603
  163MOL0     H21985   7.376   1.470   6.282  0.7702 -1.7720  0.0795
  163MOL0     H21986   7.528   1.440   6.188  1.4849  0.5164  1.5385
  163MOL0     H21987   8.411   1.265   6.593 -2.4027  0.5880  1.3636
  163MOL0     H21988   8.638   1.291   6.625  2.9725 -0.3700  2.1554
  163MOL0     H21989   8.999   1.637   6.550  3.7021 -0.3137 -0.8820
  163MOL0     H21990   9.217   1.731   6.581  0.9431  2.0667  1.2572
  163MOL0     H21991  10.962   1.794   7.689  1.9883  0.2923 -0.5433
  163MOL0     H21992  11.192   1.799   7.792 -0.6911 -0.8096 -0.3145
  163MOL0     H21993  11.432   2.013   8.083  1.5026  0.4984 -1.0160
  163MOL0     H21994  11.651   2.061   8.184 -4.1640  3.6071  0.4544
  163MOL0     H21995  11.855   1.794   8.476 -0.9476  2.8273  0.5667
  163MOL0     H21996  11.854   1.733   8.311 -1.2428  0.8047 -2.5372
  163MOL0     H21997  12.053   1.878   8.262 -0.0888 -1.6870 -0.2124
  163MOL0     H21998  12.080   1.778   8.404  0.3509 -0.4079 -1.7155
  163MOL0     H21999  12.034   1.987   8.540 -0.5616  0.6756 -0.0195
  163MOL0     H22000  12.009   2.077   8.392  0.2373  0.2874 -1.7156
  163MOL0     H22001  12.224   2.091   8.336 -0.6362  1.1087  1.3322
  163MOL0     H22002  12.271   1.938   8.392 -4.0648 -2.9540 -1.5053
  163MOL0     H22003  12.356   2.137   8.753  1.9871  0.6583 -1.1792
  163MOL0     H22004  11.640   1.711   8.425  0.4175  1.0188 -0.1088
  163MOL0     H22005  11.394   1.680   8.361 -0.9901 -0.0073 -2.3445
  164MOL0     O22006   8.537   8.052   8.054 -0.5406  0.2271 -0.6347
  164MOL0     C22007   8.546   8.063   7.932  1.1246 -0.0592  0.3282
  164MOL0     O22008   8.443   8.085   7.844  0.7058  1.4092 -0.6692
  164MOL0     C22009   8.310   8.081   7.892 -0.1713  0.5521  0.6726
  164MOL0     C22010   8.222   8.197   7.863 -0.2635 -0.5188 -0.0155
  164MOL0     C22011   8.091   8.192   7.918  0.5787  0.5093 -0.4894
  164MOL0     C22012   8.043   8.080   7.987  0.2202 -0.0328  0.0824
  164MOL0     O22013   7.921   8.091   8.042  0.1489  1.0208 -0.5463
  164MOL0     C22014   7.822   8.105   7.937 -0.4591 -0.3449 -0.1212
  164MOL0     C22015   7.699   8.043   7.990 -0.0490 -1.0044 -0.1389
  164MOL0     C22016   7.584   8.070   7.888 -0.3320  0.5095 -1.4701
  164MOL0     C22017   7.451   8.005   7.933  0.2643 -0.1515  0.4672
  164MOL0     C22018   7.341   8.051   7.840 -0.2234 -0.2320 -1.0308
  164MOL0     C22019   7.359   7.992   7.697 -0.3951  0.1543  0.7349
  164MOL0     C22020   7.222   7.959   7.638 -0.7023 -0.4659  1.2437
  164MOL0     C22021   7.246   7.887   7.507 -0.9786 -0.2305 -1.4196
  164MOL0     N22022   7.116   7.840   7.455 -0.4751 -0.4889  0.0727
  164MOL0     C22023   7.045   7.880   7.346  0.3721 -0.3701 -0.3195
  164MOL0     C22024   6.927   7.816   7.356 -0.6011 -0.6535 -0.6851
  164MOL0     C22025   6.821   7.812   7.256 -0.0738  0.0320 -0.2573
  164MOL0     C22026   6.704   7.868   7.333  0.3095 -0.1207  0.1034
  164MOL0     C22027   6.584   7.868   7.237  0.5193 -0.1196  0.0014
  164MOL0     C22028   6.474   7.967   7.291  0.4135 -0.1732  0.1222
  164MOL0     O22029   6.425   7.937   7.425 -0.1359 -0.7991 -0.1429
  164MOL0     C22030   6.291   7.912   7.456 -0.4267 -0.2187 -0.4333
  164MOL0     C22031   6.259   7.824   7.560 -0.5459  0.1485 -0.2441
  164MOL0     C22032   6.120   7.797   7.585  0.8878  0.0373  0.0457
  164MOL0     C22033   6.091   7.688   7.692  0.0214  0.6484 -0.0067
  164MOL0     C22034   6.017   7.857   7.518  0.2679  0.2733 -0.5763
  164MOL0     C22035   5.885   7.817   7.551  0.8668  0.0010  1.0117
  164MOL0     O22036   5.830   7.842   7.673  0.1388 -0.3322  0.4858
  164MOL0     C22037   5.733   7.760   7.722 -0.1320 -0.1203 -0.1568
  164MOL0     C22038   5.686   7.635   7.675 -0.8407  0.7848 -0.5816
  164MOL0     C22039   5.589   7.558   7.742 -0.6639  0.3376 -0.2359
  164MOL0     C22040   5.542   7.594   7.863  0.3328 -0.0466  0.5971
  164MOL0     O22041   5.440   7.523   7.938  0.1845 -0.2779  0.4455
  164MOL0     C22042   5.355   7.437   7.862  0.3086 -0.2250 -0.3581
  164MOL0     C22043   5.239   7.401   7.956  0.0486  0.1214  0.1157
  164MOL0     C22044   5.126   7.510   7.972 -0.8285  0.4261 -0.1903
  164MOL0     C22045   5.010   7.465   8.067 -0.0649  0.1781  0.1064
  164MOL0     C22046   4.900   7.570   8.075  0.1267 -0.5286 -0.5831
  164MOL0     C22047   4.782   7.544   8.169  0.1946  0.4580  0.3642
  164MOL0     C22048   4.667   7.650   8.149 -0.4230  0.0252  0.6079
  164MOL0     C22049   4.536   7.580   8.177  0.6152 -0.2286  0.4153
  164MOL0    Cl22050   4.551   7.496   8.336 -0.7477 -0.3627  0.3507
  164MOL0     C22051   5.578   7.713   7.913 -0.2219 -0.6847 -0.2913
  164MOL0     C22052   5.674   7.791   7.846  0.2756 -0.0835  0.4633
  164MOL0     O22053   5.821   7.785   7.452  0.0115  0.0554 -0.5340
  164MOL0     C22054   6.047   7.949   7.417  0.0433  0.2972 -0.6905
  164MOL0     C22055   6.187   7.974   7.387  0.4223  0.3048 -0.1846
  164MOL0     N22056   6.927   7.749   7.475  0.6502  0.2128 -0.7994
  164MOL0     N22057   7.038   7.763   7.529  0.3304  0.1415 -0.3364
  164MOL0     C22058   8.122   7.970   7.996  0.4839  0.1046  0.3254
  164MOL0     C22059   8.263   7.970   7.963  0.5831  0.2211  0.4714
  164MOL0     C22060   8.685   8.086   7.876  0.2998  1.3511 -0.8688
  164MOL0     C22061   8.785   8.076   7.971  0.6691 -1.0660  0.1838
  164MOL0     C22062   8.917   8.081   7.941 -0.5827 -0.1136  0.5886
  164MOL0     C22063   8.956   8.090   7.802  0.7488  0.9684 -0.0940
  164MOL0     O22064   9.088   8.090   7.770 -0.5720 -0.1229  0.3959
  164MOL0     C22065   9.197   8.091   7.869 -0.6253 -0.4516 -0.6705
  164MOL0     C22066   9.334   8.076   7.798  0.2815  0.1981  0.3279
  164MOL0     C22067   9.438   8.013   7.886  0.1624  0.7191 -0.4435
  164MOL0     C22068   9.582   8.034   7.838  0.2792 -0.4181  0.5610
  164MOL0     C22069   9.613   7.918   7.759 -0.0428 -0.0510  0.0249
  164MOL0     C22070   9.660   7.829   7.700 -0.0869 -0.6358  0.1174
  164MOL0     C22071   8.859   8.111   7.705  0.2736 -0.0300  0.6820
  164MOL0     C22072   8.722   8.103   7.743  0.3762  0.1898  0.0607
  164MOL0     H22073   8.250   8.281   7.800  1.7679  0.4688  2.0438
  164MOL0     H22074   8.030   8.281   7.910 -1.6446 -0.8912 -0.0095
  164MOL0     H22075   7.803   8.210   7.914  0.1448 -0.2584 -0.2272
  164MOL0     H22076   7.857   8.050   7.849 -0.6967 -0.3190 -0.2321
  164MOL0     H22077   7.719   7.936   7.979 -0.3532 -0.9339 -1.5860
  164MOL0     H22078   7.681   8.077   8.092  0.2038  2.0851 -1.0276
  164MOL0     H22079   7.568   8.176   7.871  1.7289  1.0611 -0.2636
  164MOL0     H22080   7.617   8.024   7.794 -1.1949  1.0632 -2.0540
  164MOL0     H22081   7.456   7.896   7.922 -2.9367 -0.3063 -0.4613
  164MOL0     H22082   7.422   8.040   8.033 -0.0548  0.1083  0.2830
  164MOL0     H22083   7.243   8.019   7.877  1.3924 -0.7847  3.3458
  164MOL0     H22084   7.353   8.160   7.841  0.6445 -0.2882  1.3646
  164MOL0     H22085   7.416   8.055   7.628 -0.9046 -0.8142 -0.5933
  164MOL0     H22086   7.409   7.895   7.707 -2.6751 -1.7437 -3.6465
  164MOL0     H22087   7.164   7.889   7.700 -1.3614  0.6121  1.8660
  164MOL0     H22088   7.162   8.047   7.617  1.3735  0.9383  0.9025
  164MOL0     H22089   7.302   7.796   7.529 -0.3553  0.6078  0.7382
  164MOL0     H22090   7.321   7.943   7.450 -1.0658  1.2724 -0.1227
  164MOL0     H22091   7.087   7.938   7.264  1.1112  0.8002  0.8442
  164MOL0     H22092   6.837   7.877   7.170 -2.9310  0.2970 -0.7114
  164MOL0     H22093   6.811   7.711   7.214  0.8217 -0.6592  1.1249
  164MOL0     H22094   6.729   7.970   7.364 -0.6346  0.5061 -1.1170
  164MOL0     H22095   6.682   7.807   7.421  5.2718  1.1156  2.5575
  164MOL0     H22096   6.537   7.769   7.232  1.1042 -0.3357 -1.9538
  164MOL0     H22097   6.612   7.904   7.138 -0.5547 -3.1895 -1.5151
  164MOL0     H22098   6.392   7.980   7.220  1.8784 -0.5551 -1.7378
  164MOL0     H22099   6.517   8.067   7.292 -1.3076  0.7819 -3.4846
  164MOL0     H22100   6.342   7.768   7.604  0.2226  0.5591 -1.1266
  164MOL0     H22101   6.172   7.675   7.764 -0.9681  2.3094  1.4784
  164MOL0     H22102   6.009   7.713   7.759 -2.3820 -1.7230 -1.8558
  164MOL0     H22103   6.066   7.592   7.645  0.5169  0.3931  0.2422
  164MOL0     H22104   5.725   7.599   7.580 -0.0771 -1.1132  0.4053
  164MOL0     H22105   5.560   7.464   7.695  1.5668 -0.6621  0.2602
  164MOL0     H22106   5.311   7.489   7.776  0.9120  0.9863  0.0505
  164MOL0     H22107   5.397   7.341   7.830 -0.8017 -1.6181  2.0846
  164MOL0     H22108   5.203   7.302   7.928 -0.8641  0.0883  1.3078
  164MOL0     H22109   5.281   7.364   8.050 -0.4689 -2.5616 -0.6330
  164MOL0     H22110   5.096   7.521   7.868 -3.5605 -1.8178  0.2444
  164MOL0     H22111   5.170   7.606   8.000  0.8897 -0.2064 -0.5737
  164MOL0     H22112   4.963   7.369   8.044  1.1572 -0.5452  0.5076
  164MOL0     H22113   5.058   7.463   8.165 -1.0241 -0.2328  0.5748
  164MOL0     H22114   4.848   7.569   7.978 -3.4770 -3.7157  1.0883
  164MOL0     H22115   4.941   7.670   8.092 -2.5357  0.6887 -0.7990
  164MOL0     H22116   4.744   7.442   8.152 -2.9994  1.3966  1.1555
  164MOL0     H22117   4.823   7.541   8.270 -1.1354 -2.5987  0.9322
  164MOL0     H22118   4.654   7.687   8.047 -5.1159  0.9254  1.3027
  164MOL0     H22119   4.681   7.740   8.211 -0.8127  1.2772 -1.0552
  164MOL0     H22120   4.498   7.519   8.095  0.1783  2.2072 -1.3092
  164MOL0     H22121   4.468   7.665   8.179 -1.3667 -1.7741  0.8921
  164MOL0     H22122   5.531   7.755   8.002  0.6672 -1.0654  0.3745
  164MOL0     H22123   5.706   7.888   7.881 -2.2064  0.4789  1.3717
  164MOL0     H22124   5.958   7.987   7.368 -3.8588 -3.8987  2.2772
  164MOL0     H22125   6.201   8.039   7.302  1.6017  1.5794  0.9316
  164MOL0     H22126   8.086   7.879   8.044 -2.5730  0.1130 -1.6799
  164MOL0     H22127   8.325   7.884   7.988  0.4848 -0.3315 -1.0694
  164MOL0     H22128   8.764   8.077   8.078 -1.8058  1.6107 -0.2202
  164MOL0     H22129   8.988   8.082   8.022  0.5691  0.6618 -0.4044
  164MOL0     H22130   9.192   8.186   7.923  0.1932 -0.0361 -1.2865
  164MOL0     H22131   9.183   8.006   7.935 -3.2907  0.1720 -0.3317
  164MOL0     H22132   9.351   8.171   7.747 -0.4558  0.7518  1.0764
  164MOL0     H22133   9.307   8.006   7.718 -1.2761  0.6382  0.4302
  164MOL0     H22134   9.418   7.908   7.909 -3.1111  1.3713  0.2827
  164MOL0     H22135   9.430   8.062   7.983  0.3947 -0.0344 -0.0333
  164MOL0     H22136   9.651   8.022   7.922  0.6310 -1.9459  0.0783
  164MOL0     H22137   9.593   8.125   7.779  0.8125  0.3357  1.7850
  164MOL0     H22138   9.710   7.753   7.643 -0.1132  0.6907 -1.7854
  164MOL0     H22139   8.878   8.143   7.604 -1.4064  3.3131  1.2764
  164MOL0     H22140   8.637   8.113   7.675  0.6586  2.0452 -0.0946
  165MOL0     O22141   0.970   5.707   8.293 -0.4765 -0.8679  0.4745
  165MOL0     C22142   0.998   5.824   8.242  0.7073 -0.5632 -0.5651
  165MOL0     O22143   0.905   5.894   8.164  0.0313  0.1627  0.0264
  165MOL0     C22144   0.768   5.869   8.159 -0.1039 -0.4585  0.0772
  165MOL0     C22145   0.701   5.874   8.030  0.1411  0.1951 -0.2343
  165MOL0     C22146   0.570   5.855   8.018  0.1917 -0.1037 -0.1745
  165MOL0     C22147   0.497   5.824   8.134 -0.3669  0.4546  0.5663
  165MOL0     O22148   0.361   5.808   8.146 -0.3396  0.2703 -0.4174
  165MOL0     C22149   0.270   5.808   8.031  0.3692 -0.4950 -1.0831
  165MOL0     C22150   0.147   5.753   8.097 -0.0660  0.1509  0.8652
  165MOL0     C22151   0.051   5.690   7.996  0.7115  0.0020  0.2718
  165MOL0     C22152  -0.079   5.638   8.076  0.2839 -0.5067  0.4015
  165MOL0     C22153  -0.166   5.561   7.987  1.2857  0.8059 -0.3957
  165MOL0     C22154  -0.264   5.648   7.906  0.3735  0.3485 -0.5971
  165MOL0     C22155  -0.295   5.585   7.768 -0.2558 -0.3249  0.2602
  165MOL0     C22156  -0.407   5.654   7.690  0.1748 -0.9186  0.3947
  165MOL0     N22157  -0.453   5.582   7.572 -0.0900  0.0212  0.5829
  165MOL0     C22158  -0.573   5.524   7.553 -0.1940  0.1467  0.5074
  165MOL0     C22159  -0.564   5.478   7.425  0.1808  0.6341 -0.9132
  165MOL0     C22160  -0.666   5.396   7.349 -0.3470 -0.1275 -0.3543
  165MOL0     C22161  -0.812   5.411   7.383  0.1089 -0.4949  0.4789
  165MOL0     C22162  -0.852   5.336   7.513  0.4546  0.1163  0.6654
  165MOL0     C22163  -0.993   5.351   7.550  0.2545 -0.1744  0.0126
  165MOL0     O22164  -1.082   5.277   7.458  0.0209  0.4372  0.2249
  165MOL0     C22165  -1.208   5.271   7.490  0.5557  0.3546 -0.9670
  165MOL0     C22166  -1.263   5.343   7.604  0.6999 -0.8057  0.6637
  165MOL0     C22167  -1.398   5.319   7.647 -0.5018 -0.6036 -0.7667
  165MOL0     C22168  -1.431   5.404   7.771  0.3129 -0.7526  0.2306
  165MOL0     C22169  -1.486   5.221   7.588 -0.8988 -0.4401  0.1372
  165MOL0     C22170  -1.616   5.195   7.634  1.5502 -0.3332 -0.3018
  165MOL0     O22171  -1.695   5.117   7.553  0.0648  0.0369 -0.5942
  165MOL0     C22172  -1.822   5.101   7.589  0.2527  0.4729 -0.9509
  165MOL0     C22173  -1.854   5.021   7.697  0.0912  0.4573 -0.2901
  165MOL0     C22174  -1.993   5.008   7.744 -0.4694  0.0069 -0.8568
  165MOL0     C22175  -2.090   5.082   7.679 -0.6957  0.2260  0.0013
  165MOL0     O22176  -2.222   5.085   7.713  0.5582  0.3867 -0.6871
  165MOL0     C22177  -2.319   5.007   7.643  0.6965  0.6141 -0.1124
  165MOL0     C22178  -2.423   5.108   7.586  0.2549 -0.1345  0.1967
  165MOL0     C22179  -2.518   5.041   7.481  0.0648  1.2513  0.2407
  165MOL0     C22180  -2.644   5.121   7.452 -0.1363 -0.5953 -0.3167
  165MOL0     C22181  -2.733   5.024   7.371  0.1696 -0.4480 -0.1072
  165MOL0     C22182  -2.853   5.091   7.297  0.1058 -0.2120 -1.3076
  165MOL0     C22183  -2.927   4.996   7.207  0.1518 -0.1841 -0.4747
  165MOL0     C22184  -3.054   5.066   7.142  0.3937  0.1071 -0.4128
  165MOL0    Cl22185  -3.163   4.950   7.046 -0.2432 -0.1037 -0.4187
  165MOL0     C22186  -2.057   5.163   7.573  0.1406 -1.0276 -0.1656
  165MOL0     C22187  -1.925   5.170   7.527 -0.1808  0.1116  1.1221
  165MOL0     O22188  -1.660   5.237   7.744 -0.2326 -0.2118  0.0015
  165MOL0     C22189  -1.425   5.156   7.472 -0.7812  0.2807  0.1659
  165MOL0     C22190  -1.294   5.179   7.428 -0.0653  0.0347  0.2221
  165MOL0     N22191  -0.435   5.513   7.369 -0.2629 -0.4664  0.3211
  165MOL0     N22192  -0.371   5.561   7.464 -0.0832 -0.7612  0.0180
  165MOL0     C22193   0.554   5.825   8.253  0.6167 -0.1648 -0.1329
  165MOL0     C22194   0.689   5.848   8.269  0.2341  0.0982 -0.0580
  165MOL0     C22195   1.138   5.869   8.254 -0.0259  0.3088  0.7863
  165MOL0     C22196   1.173   5.981   8.177 -0.7748 -0.0381 -0.1021
  165MOL0     C22197   1.305   6.023   8.188 -0.2039 -0.2656 -0.6892
  165MOL0     C22198   1.403   5.964   8.271  0.0243 -0.1158 -0.1456
  165MOL0     O22199   1.527   6.024   8.288  0.3727  0.9929 -0.6335
  165MOL0     C22200   1.594   6.079   8.175  0.2144  0.2176  0.1900
  165MOL0     C22201   1.721   6.000   8.138  0.5249 -0.0190  0.3196
  165MOL0     C22202   1.703   5.848   8.121  0.4838 -0.6636 -0.1754
  165MOL0     C22203   1.837   5.787   8.097 -0.1616  0.3384 -0.7548
  165MOL0     C22204   1.929   5.863   8.008 -0.6591  1.3831 -0.1397
  165MOL0     C22205   2.003   5.910   7.925 -0.2944 -0.2077  0.1301
  165MOL0     C22206   1.358   5.856   8.352  0.3382  0.1722  0.7522
  165MOL0     C22207   1.228   5.806   8.335 -0.4893  0.1793 -0.6510
  165MOL0     H22208   0.759   5.888   7.939 -0.4199  0.0557 -0.6195
  165MOL0     H22209   0.520   5.874   7.924 -2.5201  0.4954  1.2928
  165MOL0     H22210   0.256   5.907   7.989 -0.2593 -0.9300 -1.9389
  165MOL0     H22211   0.299   5.745   7.946 -1.0214  0.8424 -2.6059
  165MOL0     H22212   0.171   5.682   8.177 -3.6887  0.0334  1.9995
  165MOL0     H22213   0.100   5.842   8.138  0.6868  1.1283 -0.3139
  165MOL0     H22214   0.028   5.760   7.915  0.3127 -1.0614 -0.5670
  165MOL0     H22215   0.097   5.599   7.957  0.3889 -0.7161  1.5282
  165MOL0     H22216  -0.042   5.574   8.156  2.1130  0.6040  0.5139
  165MOL0     H22217  -0.138   5.715   8.127  0.6893  0.3804 -0.4416
  165MOL0     H22218  -0.112   5.503   7.912  0.8351 -0.9493  0.6055
  165MOL0     H22219  -0.227   5.494   8.048  1.7483  0.7838  0.0467
  165MOL0     H22220  -0.353   5.663   7.969  0.2363  0.9095 -0.9090
  165MOL0     H22221  -0.217   5.746   7.900 -0.6241  0.9024  0.1697
  165MOL0     H22222  -0.209   5.599   7.701  0.1177  1.2781  1.0240
  165MOL0     H22223  -0.310   5.478   7.783 -0.4909 -0.4178 -0.5497
  165MOL0     H22224  -0.369   5.755   7.674 -0.3664 -0.2485  2.9753
  165MOL0     H22225  -0.489   5.673   7.760 -0.2969  2.9536 -0.9421
  165MOL0     H22226  -0.655   5.514   7.623  0.5529  1.8516  1.6722
  165MOL0     H22227  -0.646   5.417   7.243  2.0216  1.6063  0.3674
  165MOL0     H22228  -0.635   5.293   7.365  1.2117  0.5002  0.8998
  165MOL0     H22229  -0.879   5.373   7.305  1.4360 -3.4321  0.6302
  165MOL0     H22230  -0.845   5.513   7.406 -0.9531 -1.0553  1.5113
  165MOL0     H22231  -0.784   5.350   7.598  0.5652  0.2799  0.5517
  165MOL0     H22232  -0.845   5.227   7.500  0.1618  0.2341 -0.6480
  165MOL0     H22233  -1.017   5.457   7.562  0.6774 -0.2676  2.1261
  165MOL0     H22234  -1.020   5.316   7.650  1.1344  0.8881  0.6550
  165MOL0     H22235  -1.210   5.419   7.661 -2.4530  1.6772  0.5389
  165MOL0     H22236  -1.429   5.335   7.856 -1.4637  0.0796  0.9906
  165MOL0     H22237  -1.364   5.490   7.783  0.0900 -0.3986 -0.8967
  165MOL0     H22238  -1.530   5.450   7.761 -0.7253 -2.5426  1.6943
  165MOL0     H22239  -1.775   4.965   7.746  0.5507  0.2196 -1.2884
  165MOL0     H22240  -2.012   4.938   7.824  0.4336 -0.8726 -1.4022
  165MOL0     H22241  -2.279   4.938   7.569 -0.6084 -0.6975  0.3444
  165MOL0     H22242  -2.378   4.956   7.720 -1.0798  0.3722 -1.5751
  165MOL0     H22243  -2.481   5.162   7.661  0.8893  0.0259  0.5767
  165MOL0     H22244  -2.364   5.183   7.533 -2.1829  1.3605 -0.5733
  165MOL0     H22245  -2.554   4.946   7.522 -0.5379  1.7508  0.8889
  165MOL0     H22246  -2.456   5.022   7.393  1.7372 -0.4414  1.6885
  165MOL0     H22247  -2.694   5.154   7.543  0.2430  2.1475 -1.0260
  165MOL0     H22248  -2.609   5.213   7.403  0.7622 -0.9711 -0.4023
  165MOL0     H22249  -2.770   4.947   7.440 -1.8022 -0.1287 -0.7383
  165MOL0     H22250  -2.684   4.976   7.286 -0.6559 -0.2905 -0.6861
  165MOL0     H22251  -2.921   5.145   7.364  1.8121 -0.4477  0.7302
  165MOL0     H22252  -2.803   5.167   7.236  1.2199  0.3902  0.2881
  165MOL0     H22253  -2.957   4.905   7.261  2.7962 -1.0718 -0.3556
  165MOL0     H22254  -2.855   4.962   7.132 -0.5282 -1.5587 -0.5484
  165MOL0     H22255  -3.019   5.145   7.075  0.1304 -1.2288 -2.2009
  165MOL0     H22256  -3.123   5.109   7.216 -1.7823 -2.7309 -0.5794
  165MOL0     H22257  -2.127   5.236   7.533 -1.8824 -2.1723  1.1515
  165MOL0     H22258  -1.898   5.226   7.438 -1.0734  0.2987  0.9548
  165MOL0     H22259  -1.475   5.076   7.417  0.0316 -1.7787  2.2450
  165MOL0     H22260  -1.249   5.126   7.345  2.5729  0.9069  0.9803
  165MOL0     H22261   0.489   5.805   8.338 -1.3128 -0.4764 -1.6145
  165MOL0     H22262   0.734   5.854   8.367 -0.0834 -1.0146  0.1732
  165MOL0     H22263   1.104   6.031   8.110 -0.4684 -2.2071 -2.1563
  165MOL0     H22264   1.321   6.118   8.138  0.3413 -0.3918 -0.7635
  165MOL0     H22265   1.523   6.082   8.092  0.0360 -0.3545  0.3201
  165MOL0     H22266   1.637   6.174   8.207  2.0921 -0.5486  0.0628
  165MOL0     H22267   1.801   6.010   8.211  1.7531  0.5644 -1.0625
  165MOL0     H22268   1.756   6.040   8.042 -1.3436  1.9482  0.3840
  165MOL0     H22269   1.633   5.831   8.039  1.1502 -1.2990 -0.6302
  165MOL0     H22270   1.658   5.802   8.209 -0.9384  0.1689 -0.4322
  165MOL0     H22271   1.808   5.685   8.072  2.3351 -1.2765  2.2561
  165MOL0     H22272   1.878   5.785   8.198 -0.3707 -0.6298 -0.6822
  165MOL0     H22273   2.060   5.945   7.841 -1.3243 -0.8080 -0.8400
  165MOL0     H22274   1.423   5.800   8.420  1.1201 -1.0579 -0.9446
  165MOL0     H22275   1.197   5.721   8.395  0.7278  0.0453 -0.1771
  166MOL0     O22276   6.631   5.857   3.015 -0.0846 -0.4954 -0.0263
  166MOL0     C22277   6.731   5.803   3.059  0.2415  0.5233  0.2141
  166MOL0     O22278   6.740   5.670   3.088 -0.0904  0.1049  0.0161
  166MOL0     C22279   6.639   5.582   3.073 -0.0945  1.1436  0.6700
  166MOL0     C22280   6.505   5.604   3.103  0.5890 -0.0914  0.4376
  166MOL0     C22281   6.407   5.505   3.078 -0.0740  0.0518 -0.6629
  166MOL0     C22282   6.442   5.376   3.036  0.7590 -0.6356 -0.1131
  166MOL0     O22283   6.340   5.288   2.991  0.2024 -0.0906 -0.2716
  166MOL0     C22284   6.332   5.160   3.057  0.5028 -0.5944  0.4209
  166MOL0     C22285   6.317   5.177   3.208  1.0108 -0.4117 -0.0795
  166MOL0     C22286   6.174   5.243   3.236  0.3741  1.2244  0.2656
  166MOL0     C22287   6.185   5.291   3.377  0.5898  0.7157  0.1271
  166MOL0     C22288   6.054   5.342   3.438 -0.3178 -0.0243  0.2538
  166MOL0     C22289   5.974   5.250   3.519 -0.2812  0.4512 -0.6211
  166MOL0     C22290   5.847   5.323   3.568 -0.1434  0.6609  0.1754
  166MOL0     C22291   5.785   5.239   3.680  0.5211 -0.1568 -0.6317
  166MOL0     N22292   5.667   5.312   3.743 -1.3520 -0.1522 -0.3183
  166MOL0     C22293   5.559   5.378   3.687 -0.0662 -0.0335 -0.2359
  166MOL0     C22294   5.479   5.407   3.792  1.4912  0.4195  0.4118
  166MOL0     C22295   5.347   5.473   3.786  0.6743 -0.1443 -0.5080
  166MOL0     C22296   5.244   5.387   3.857 -0.2710 -0.4753 -0.3926
  166MOL0     C22297   5.108   5.468   3.833 -0.0605  0.2326 -0.9001
  166MOL0     C22298   4.995   5.412   3.922  0.2016  0.4653 -0.5373
  166MOL0     O22299   4.885   5.508   3.931  0.0092  0.2405  0.7597
  166MOL0     C22300   4.789   5.495   4.031  0.0312  0.5723 -0.3342
  166MOL0     C22301   4.779   5.385   4.127 -0.4230  0.0045  0.1107
  166MOL0     C22302   4.674   5.395   4.217  0.6792  0.5463 -1.1992
  166MOL0     C22303   4.648   5.272   4.308  0.0346  0.6550 -0.8588
  166MOL0     C22304   4.586   5.508   4.231  0.2991  0.2146 -0.6502
  166MOL0     C22305   4.481   5.526   4.337  0.6924  0.6620  0.2805
  166MOL0     O22306   4.479   5.459   4.453  0.3853 -0.4180 -0.1575
  166MOL0     C22307   4.375   5.472   4.536 -0.8737  0.1858  0.4444
  166MOL0     C22308   4.237   5.456   4.506  0.1390 -0.3225 -0.8123
  166MOL0     C22309   4.144   5.463   4.604 -0.4435 -0.5383  0.1588
  166MOL0     C22310   4.181   5.498   4.733  0.9096  0.5405 -1.0271
  166MOL0     O22311   4.078   5.508   4.820  0.5250  0.1095 -0.4460
  166MOL0     C22312   4.103   5.500   4.959 -0.4115  0.4628  0.0398
  166MOL0     C22313   3.979   5.459   5.036 -0.0218  0.4376  0.4223
  166MOL0     C22314   3.986   5.495   5.187 -0.5063 -0.1031  0.6011
  166MOL0     C22315   3.867   5.437   5.268 -0.2924  0.3693  0.2419
  166MOL0     C22316   3.879   5.479   5.414  0.0253 -0.4541 -0.3891
  166MOL0     C22317   3.792   5.408   5.520  0.4363  0.2649  0.4038
  166MOL0     C22318   3.647   5.405   5.475 -0.2004  0.0147  0.9353
  166MOL0     C22319   3.536   5.381   5.584  0.5382 -0.6134  0.6332
  166MOL0    Cl22320   3.373   5.420   5.504 -0.0287  0.2509 -0.4585
  166MOL0     C22321   4.309   5.525   4.764 -0.3970  0.1977  0.0333
  166MOL0     C22322   4.413   5.514   4.665 -0.1215  0.2775 -0.2354
  166MOL0     O22323   4.405   5.616   4.306  0.5473 -0.0490  0.1729
  166MOL0     C22324   4.597   5.608   4.133  0.0941  0.0619 -0.1673
  166MOL0     C22325   4.707   5.610   4.045  0.5505 -0.4996  0.1077
  166MOL0     N22326   5.546   5.365   3.907 -0.8980  0.0141 -0.1058
  166MOL0     N22327   5.662   5.319   3.877 -0.1480  0.5183 -0.1294
  166MOL0     C22328   6.575   5.347   3.004  0.5260 -0.2393  0.7464
  166MOL0     C22329   6.670   5.451   3.015 -0.0578  0.1401 -0.6871
  166MOL0     C22330   6.843   5.878   3.081 -0.2706  0.1267  0.2908
  166MOL0     C22331   6.853   6.003   3.015  0.8414  0.2151  0.3861
  166MOL0     C22332   6.965   6.078   3.018 -0.3547 -0.2600  0.0151
  166MOL0     C22333   7.073   6.032   3.098 -0.0185 -0.7307 -0.0844
  166MOL0     O22334   7.184   6.114   3.104 -0.3607 -0.0264 -0.0270
  166MOL0     C22335   7.216   6.210   2.999 -0.5826  0.1200 -0.3616
  166MOL0     C22336   7.372   6.215   2.995  0.2657 -0.1691 -0.7683
  166MOL0     C22337   7.420   6.093   2.906 -0.4231 -0.6068 -0.3740
  166MOL0     C22338   7.576   6.084   2.898  0.0125 -0.1540 -0.7355
  166MOL0     C22339   7.621   5.948   2.870  0.6267 -0.0384 -0.2611
  166MOL0     C22340   7.683   5.849   2.850  0.1044 -0.1675 -0.2222
  166MOL0     C22341   7.060   5.903   3.163 -0.0215  0.2989  0.2489
  166MOL0     C22342   6.944   5.826   3.159 -0.0303  0.0032  0.2667
  166MOL0     H22343   6.470   5.698   3.145  0.2313  0.9664 -2.0677
  166MOL0     H22344   6.301   5.524   3.091 -0.5166 -3.6346  3.0818
  166MOL0     H22345   6.250   5.097   3.021 -1.8719  1.7090  1.5474
  166MOL0     H22346   6.426   5.106   3.041  1.6532  0.9388  1.6543
  166MOL0     H22347   6.327   5.078   3.253  0.8389  0.6154  2.3499
  166MOL0     H22348   6.391   5.246   3.248  2.0711 -0.7400 -1.3979
  166MOL0     H22349   6.148   5.329   3.174  1.9153  3.1572  2.1423
  166MOL0     H22350   6.093   5.171   3.224  0.1500  1.4974  0.1217
  166MOL0     H22351   6.229   5.211   3.436  0.0717  0.4404  0.1442
  166MOL0     H22352   6.256   5.374   3.380  1.2410  0.1619  0.1887
  166MOL0     H22353   6.065   5.428   3.505  1.5900 -0.0161  0.0084
  166MOL0     H22354   6.008   5.385   3.349 -0.0222 -0.5852 -0.1777
  166MOL0     H22355   5.945   5.167   3.454 -3.0244 -0.5889  1.7258
  166MOL0     H22356   6.035   5.211   3.600  0.0947 -0.2241 -1.2160
  166MOL0     H22357   5.865   5.428   3.590  0.8721  0.7956 -1.1905
  166MOL0     H22358   5.772   5.334   3.490  2.1932  1.5407 -2.0948
  166MOL0     H22359   5.851   5.205   3.761 -1.3313 -2.7513 -0.0837
  166MOL0     H22360   5.743   5.149   3.636 -2.2113  0.6567  0.1236
  166MOL0     H22361   5.544   5.395   3.581 -0.2860 -3.3639 -0.8670
  166MOL0     H22362   5.357   5.570   3.834  0.3020  0.3545 -1.4063
  166MOL0     H22363   5.317   5.494   3.683 -1.4372  0.7842  0.2275
  166MOL0     H22364   5.263   5.383   3.965  1.6216  0.0862 -0.6660
  166MOL0     H22365   5.230   5.284   3.824  0.2046 -0.2465 -1.3082
  166MOL0     H22366   5.068   5.452   3.732  0.2599 -0.2570 -0.9504
  166MOL0     H22367   5.116   5.571   3.869 -3.0648 -0.3346  1.9005
  166MOL0     H22368   5.030   5.390   4.023  0.9078 -2.8463 -1.3707
  166MOL0     H22369   4.966   5.316   3.878  3.1736  0.2218 -2.2378
  166MOL0     H22370   4.849   5.302   4.129  1.6796  1.7063  1.7888
  166MOL0     H22371   4.662   5.317   4.407 -1.0655 -0.4539 -0.1735
  166MOL0     H22372   4.546   5.234   4.314  0.5478 -0.5890  0.9222
  166MOL0     H22373   4.727   5.197   4.297 -1.3146 -1.3366  1.7324
  166MOL0     H22374   4.206   5.431   4.405  0.4931 -2.3900 -0.4525
  166MOL0     H22375   4.039   5.449   4.579 -0.3176  0.4036 -0.9454
  166MOL0     H22376   4.190   5.438   4.982  0.6990  1.8690 -0.2098
  166MOL0     H22377   4.127   5.602   4.990 -0.2508 -0.0000  1.5416
  166MOL0     H22378   3.897   5.500   4.976 -0.7780  3.4121  3.2035
  166MOL0     H22379   3.965   5.351   5.033 -1.9157  0.6723 -0.9403
  166MOL0     H22380   3.996   5.604   5.182  4.3094 -0.3907 -1.1961
  166MOL0     H22381   4.078   5.452   5.226  1.3389  2.5090 -0.5595
  166MOL0     H22382   3.773   5.477   5.230 -0.5617  0.8714  1.3963
  166MOL0     H22383   3.872   5.328   5.253  1.7576  0.7902 -3.3016
  166MOL0     H22384   3.870   5.588   5.425  0.1514 -0.5259  0.4919
  166MOL0     H22385   3.981   5.448   5.436  0.7915  1.1040 -1.5888
  166MOL0     H22386   3.836   5.309   5.528  1.1794  0.6522  1.3574
  166MOL0     H22387   3.805   5.444   5.623  0.8911  0.3531  0.3161
  166MOL0     H22388   3.645   5.330   5.396 -0.0851 -0.6653  1.5667
  166MOL0     H22389   3.631   5.499   5.421  1.2361 -1.1364 -1.6671
  166MOL0     H22390   3.548   5.458   5.660  2.9735  0.5685 -0.8044
  166MOL0     H22391   3.538   5.282   5.631  0.1675 -0.4541  0.9816
  166MOL0     H22392   4.340   5.543   4.866  0.3015  0.6201 -0.2455
  166MOL0     H22393   4.518   5.509   4.689 -0.5610  1.0402  2.0989
  166MOL0     H22394   4.541   5.701   4.130 -1.3412 -0.7953 -1.0212
  166MOL0     H22395   4.717   5.696   3.980 -0.9339 -0.9242 -0.7108
  166MOL0     H22396   6.592   5.253   2.954  2.5671  0.1740  0.5826
  166MOL0     H22397   6.773   5.422   2.998  0.2358 -0.0750  1.1788
  166MOL0     H22398   6.771   6.045   2.958  1.3181  0.5705 -0.0550
  166MOL0     H22399   6.971   6.168   2.958  0.7793 -0.7560 -0.6526
  166MOL0     H22400   7.180   6.189   2.898  1.0426 -1.5118 -0.6520
  166MOL0     H22401   7.159   6.300   3.023 -0.4701 -0.3665  2.0669
  166MOL0     H22402   7.396   6.207   3.101  0.2105 -3.3801 -0.8994
  166MOL0     H22403   7.412   6.313   2.964  1.3043  0.3057  1.8576
  166MOL0     H22404   7.377   6.110   2.806 -2.2961  4.2939  0.9475
  166MOL0     H22405   7.385   6.001   2.953  3.0563 -1.6706  0.4403
  166MOL0     H22406   7.623   6.118   2.991  2.6901  2.4661 -2.8473
  166MOL0     H22407   7.610   6.147   2.815 -1.0431  0.2314 -0.8847
  166MOL0     H22408   7.725   5.754   2.821 -1.8982 -0.3865 -2.7841
  166MOL0     H22409   7.138   5.872   3.233  1.3932 -0.8264 -1.6999
  166MOL0     H22410   6.930   5.736   3.217 -0.7923  0.5090  0.8926
  167MOL0     O22411  10.469   1.522   0.660  0.8098  0.3634  0.0077
  167MOL0     C22412  10.456   1.430   0.736  1.0001  0.0953  0.6195
  167MOL0     O22413  10.561   1.380   0.817  1.1959  0.4157 -0.2888
  167MOL0     C22414  10.692   1.421   0.789  0.4933 -0.3748 -0.5072
  167MOL0     C22415  10.752   1.512   0.880 -0.0472 -0.1340 -0.0175
  167MOL0     C22416  10.883   1.553   0.861  0.2128 -0.6858  0.3341
  167MOL0     C22417  10.948   1.508   0.749 -0.5943  0.1479  0.0623
  167MOL0     O22418  11.073   1.555   0.697  0.5060  0.2302 -0.8917
  167MOL0     C22419  11.155   1.620   0.798  0.5410  0.4246 -0.5483
  167MOL0     C22420  11.275   1.683   0.732 -0.1380  0.7405 -0.5802
  167MOL0     C22421  11.367   1.751   0.851  0.6700  0.4430  0.6230
  167MOL0     C22422  11.471   1.851   0.799 -0.6947  0.1757  0.5027
  167MOL0     C22423  11.563   1.915   0.906  0.7701  0.9272  0.1956
  167MOL0     C22424  11.658   1.817   0.983 -0.1056  0.1341  0.7163
  167MOL0     C22425  11.738   1.724   0.888 -0.7643 -0.7682  0.2743
  167MOL0     C22426  11.882   1.707   0.948  0.1967  0.1923 -0.2326
  167MOL0     N22427  11.879   1.629   1.079 -0.6812 -0.3757  0.6089
  167MOL0     C22428  11.848   1.497   1.087  0.4104  0.3476 -0.4682
  167MOL0     C22429  11.823   1.478   1.217 -0.3587  0.1845 -0.4992
  167MOL0     C22430  11.767   1.344   1.272  0.2788 -0.1213  0.5277
  167MOL0     C22431  11.652   1.367   1.359  0.4009 -0.3671 -0.3146
  167MOL0     C22432  11.536   1.422   1.272  0.3784  0.8167 -0.5358
  167MOL0     C22433  11.405   1.434   1.349 -0.1007  0.3463  0.6231
  167MOL0     O22434  11.302   1.417   1.247  0.0395 -0.6442  0.0378
  167MOL0     C22435  11.169   1.422   1.283 -0.0335 -0.8509  0.3625
  167MOL0     C22436  11.116   1.415   1.417  0.2292  0.0273  1.0489
  167MOL0     C22437  10.979   1.413   1.432  0.3995 -0.4491 -0.1573
  167MOL0     C22438  10.941   1.381   1.577 -0.4554 -0.2570  0.1286
  167MOL0     C22439  10.890   1.420   1.326  0.9536  0.7522  0.7748
  167MOL0     C22440  10.738   1.421   1.324 -0.3167  0.3228  0.2257
  167MOL0     O22441  10.677   1.444   1.204 -0.8929 -0.1187  0.2970
  167MOL0     C22442  10.541   1.417   1.203  0.1685 -0.4134  0.5261
  167MOL0     C22443  10.475   1.300   1.245  0.1451 -0.0307 -0.1993
  167MOL0     C22444  10.341   1.292   1.260 -0.3516  0.7730 -0.7478
  167MOL0     C22445  10.259   1.401   1.224  0.9292 -0.5047  0.6880
  167MOL0     O22446  10.120   1.401   1.247  0.7525  0.3960  0.0556
  167MOL0     C22447  10.041   1.436   1.130  0.0035 -0.3570 -0.7694
  167MOL0     C22448   9.891   1.425   1.158  0.8088 -0.5169 -0.0210
  167MOL0     C22449   9.842   1.553   1.225  0.5068  0.5018 -1.2707
  167MOL0     C22450   9.694   1.575   1.212 -0.2914  0.1697 -0.0002
  167MOL0     C22451   9.654   1.724   1.203 -0.0375 -0.1112  0.1863
  167MOL0     C22452   9.514   1.753   1.152  0.4396  0.1070 -0.2974
  167MOL0     C22453   9.421   1.721   1.270  0.4119  0.1965 -0.5398
  167MOL0     C22454   9.275   1.746   1.232  0.5945 -0.4702 -0.1020
  167MOL0    Cl22455   9.198   1.758   1.392 -0.3052 -0.2526 -0.0395
  167MOL0     C22456  10.319   1.511   1.162  0.5139 -0.3593  0.0561
  167MOL0     C22457  10.456   1.524   1.154 -0.0230  0.5179 -0.1659
  167MOL0     O22458  10.686   1.371   1.425  0.3292  0.5950 -0.6389
  167MOL0     C22459  10.946   1.457   1.199 -1.1018  0.2330 -0.5758
  167MOL0     C22460  11.084   1.453   1.182 -0.4124 -0.6399  0.3595
  167MOL0     N22461  11.836   1.594   1.283  0.0487  0.8540  0.0747
  167MOL0     N22462  11.871   1.681   1.200 -0.1569 -0.3727 -0.5240
  167MOL0     C22463  10.895   1.419   0.657 -0.2602 -0.2019 -0.6566
  167MOL0     C22464  10.771   1.376   0.674  0.4930 -0.4317  0.4886
  167MOL0     C22465  10.321   1.372   0.749 -0.3933 -0.1775  0.5836
  167MOL0     C22466  10.299   1.270   0.840  0.9682 -0.2666 -0.6300
  167MOL0     C22467  10.171   1.201   0.847 -0.1230  0.5737 -0.3071
  167MOL0     C22468  10.067   1.241   0.763 -0.0934  0.2266 -0.6188
  167MOL0     O22469   9.943   1.182   0.780 -0.1761  0.0400  0.1151
  167MOL0     C22470   9.835   1.264   0.766 -0.2151  0.4336  0.1059
  167MOL0     C22471   9.722   1.174   0.813  0.4488 -0.4975 -0.5187
  167MOL0     C22472   9.594   1.253   0.794  0.2685  0.6596 -0.1393
  167MOL0     C22473   9.490   1.181   0.873  0.1368  0.1669 -0.2925
  167MOL0     C22474   9.502   1.221   1.015  0.0005  0.9525  0.3820
  167MOL0     C22475   9.502   1.248   1.133 -0.1540 -0.0366  0.6990
  167MOL0     C22476  10.089   1.354   0.678  0.1229  0.2235 -0.9632
  167MOL0     C22477  10.217   1.421   0.666  0.1006  0.6902 -0.4719
  167MOL0     H22478  10.688   1.549   0.959 -0.6720 -0.5051 -0.3423
  167MOL0     H22479  10.928   1.621   0.934 -0.6941 -0.9060  1.1167
  167MOL0     H22480  11.097   1.693   0.854 -1.7709 -0.0418 -2.1688
  167MOL0     H22481  11.195   1.547   0.870  0.6925  2.2988  1.3542
  167MOL0     H22482  11.329   1.618   0.663 -1.3336  1.3205 -2.1172
  167MOL0     H22483  11.234   1.764   0.671  0.5469 -0.1379 -2.2700
  167MOL0     H22484  11.296   1.792   0.923 -0.4516 -1.0932  0.4570
  167MOL0     H22485  11.426   1.670   0.895 -1.6087 -2.0125 -0.5186
  167MOL0     H22486  11.541   1.800   0.732  0.7317 -1.2582  2.9331
  167MOL0     H22487  11.437   1.942   0.749  2.2055  1.8809  1.4199
  167MOL0     H22488  11.624   1.990   0.854 -1.5357  2.6269 -0.2464
  167MOL0     H22489  11.503   1.970   0.980  1.0181  0.3209  0.8576
  167MOL0     H22490  11.718   1.874   1.055  0.7326 -0.9108  0.8672
  167MOL0     H22491  11.594   1.755   1.047  0.1759 -0.1356  0.7423
  167MOL0     H22492  11.690   1.630   0.859  0.8907 -1.1213 -1.5020
  167MOL0     H22493  11.749   1.777   0.794 -0.9343 -2.0401 -0.4833
  167MOL0     H22494  11.929   1.804   0.970  4.2251 -1.8268  1.0008
  167MOL0     H22495  11.941   1.649   0.877 -0.3710 -0.5598 -0.1045
  167MOL0     H22496  11.833   1.423   1.010 -2.2132  2.5320 -2.2589
  167MOL0     H22497  11.747   1.291   1.178  1.3738  0.4131 -0.0321
  167MOL0     H22498  11.843   1.291   1.331  0.0871  1.3581  2.1725
  167MOL0     H22499  11.672   1.439   1.440  2.7924 -0.2863 -0.8908
  167MOL0     H22500  11.620   1.274   1.405  0.6172  0.1886  1.0197
  167MOL0     H22501  11.518   1.347   1.194  0.3202  0.1716  0.0843
  167MOL0     H22502  11.571   1.516   1.229  3.1598 -0.4221 -1.2405
  167MOL0     H22503  11.397   1.526   1.407  2.1003 -0.2990  2.0497
  167MOL0     H22504  11.397   1.354   1.423 -2.3595 -0.3454 -0.2604
  167MOL0     H22505  11.174   1.395   1.507 -0.8086  1.5836  2.1300
  167MOL0     H22506  10.850   1.433   1.609  0.2519  2.8267 -2.3802
  167MOL0     H22507  10.945   1.273   1.594 -0.5350 -0.4206 -0.8556
  167MOL0     H22508  11.020   1.419   1.643  1.2062  0.0573 -1.9357
  167MOL0     H22509  10.537   1.219   1.282 -1.9971 -2.3049 -1.3360
  167MOL0     H22510  10.288   1.215   1.315 -0.8255  1.1527 -0.6649
  167MOL0     H22511  10.057   1.536   1.088 -3.3666  0.4479 -0.3990
  167MOL0     H22512  10.079   1.367   1.053  0.0489 -2.3383  0.9415
  167MOL0     H22513   9.833   1.408   1.067 -0.5991  1.4359  0.4636
  167MOL0     H22514   9.881   1.339   1.225  1.0289 -0.9865 -0.5829
  167MOL0     H22515   9.889   1.638   1.174  0.8934  0.5157 -0.8946
  167MOL0     H22516   9.866   1.559   1.332 -3.9494 -2.2317  0.1731
  167MOL0     H22517   9.647   1.522   1.129 -3.8774 -0.4887  2.2439
  167MOL0     H22518   9.650   1.533   1.302 -0.7117 -0.5012 -0.5078
  167MOL0     H22519   9.718   1.773   1.129 -0.0913  1.9775  1.4251
  167MOL0     H22520   9.672   1.767   1.302  0.9264 -2.1422  0.9537
  167MOL0     H22521   9.499   1.859   1.132  1.8801  0.6149  1.1052
  167MOL0     H22522   9.501   1.690   1.063  3.1762 -0.8855 -0.0750
  167MOL0     H22523   9.448   1.772   1.363 -0.1165  1.8652 -1.2717
  167MOL0     H22524   9.428   1.612   1.281  2.2596 -0.0343 -3.0183
  167MOL0     H22525   9.246   1.664   1.166 -0.1468  0.1471 -0.5574
  167MOL0     H22526   9.258   1.836   1.173  0.4328 -1.3934 -1.4997
  167MOL0     H22527  10.259   1.595   1.126  2.1225  0.4955 -0.7285
  167MOL0     H22528  10.490   1.622   1.121 -0.3124  0.2515 -1.2740
  167MOL0     H22529  10.892   1.476   1.107 -0.9846 -0.8568 -0.8892
  167MOL0     H22530  11.131   1.482   1.089  0.6621 -3.7370 -0.1791
  167MOL0     H22531  10.956   1.408   0.568  1.0030  0.6945  0.0670
  167MOL0     H22532  10.724   1.315   0.598 -0.4857 -0.0474  0.7723
  167MOL0     H22533  10.373   1.226   0.906 -0.3880 -3.4201 -1.0300
  167MOL0     H22534  10.151   1.122   0.919 -1.8095  0.8633 -0.4392
  167MOL0     H22535   9.846   1.359   0.819  0.0272  0.3636  0.1832
  167MOL0     H22536   9.808   1.293   0.664 -0.0779 -0.4098 -0.1764
  167MOL0     H22537   9.738   1.139   0.916 -1.0237  0.2751  0.0026
  167MOL0     H22538   9.724   1.085   0.750  2.2021 -2.0946  1.6364
  167MOL0     H22539   9.570   1.258   0.687  2.2602  1.6066 -0.5986
  167MOL0     H22540   9.598   1.358   0.825 -1.8423  1.2883 -1.7600
  167MOL0     H22541   9.507   1.074   0.858  3.5895  0.5438  0.1462
  167MOL0     H22542   9.389   1.203   0.836  0.5296 -0.4259 -1.7962
  167MOL0     H22543   9.509   1.280   1.235  4.5423  1.9045  0.0314
  167MOL0     H22544  10.011   1.387   0.610 -1.7613 -2.5013 -0.2970
  167MOL0     H22545  10.240   1.495   0.590 -1.7272  0.1914 -1.5712
  168MOL0     O22546   6.382   2.256  10.938 -0.0669 -0.7411  0.4278
  168MOL0     C22547   6.451   2.213  11.033 -0.6155  0.3346  0.3069
  168MOL0     O22548   6.408   2.119  11.120 -0.0352  0.6073 -0.5764
  168MOL0     C22549   6.284   2.060  11.110  0.1807 -0.1569  0.5210
  168MOL0     C22550   6.248   1.977  11.008 -0.1849 -0.1500 -0.5706
  168MOL0     C22551   6.121   1.908  11.015  0.4953  0.1524 -0.2121
  168MOL0     C22552   6.033   1.914  11.133  0.0724 -0.4419  0.2732
  168MOL0     O22553   5.908   1.850  11.136 -0.8982  0.1708 -0.3493
  168MOL0     C22554   5.811   1.885  11.238 -0.0274 -0.4706 -0.2929
  168MOL0     C22555   5.729   2.010  11.206  0.2918  0.0274  1.2217
  168MOL0     C22556   5.626   1.986  11.096 -0.1122 -0.2790 -0.3083
  168MOL0     C22557   5.677   1.996  10.956 -0.6080  0.7951  0.2261
  168MOL0     C22558   5.562   1.981  10.855  0.2149 -0.8190  0.0746
  168MOL0     C22559   5.490   1.845  10.869 -0.9956 -0.3757  0.2102
  168MOL0     C22560   5.598   1.722  10.872  1.5634  0.2273 -1.3314
  168MOL0     C22561   5.678   1.706  10.745  0.6607  0.4018 -0.1631
  168MOL0     N22562   5.612   1.658  10.622  0.2004  0.4675 -0.2197
  168MOL0     C22563   5.548   1.545  10.630  0.5636 -0.4257  0.4823
  168MOL0     C22564   5.485   1.536  10.511  0.4645 -0.0255  0.0504
  168MOL0     C22565   5.407   1.408  10.473 -0.5673 -0.1497 -0.0375
  168MOL0     C22566   5.263   1.389  10.511 -0.3751  0.2229 -0.4792
  168MOL0     C22567   5.194   1.482  10.425  0.5820  0.7109  0.5779
  168MOL0     C22568   5.042   1.470  10.452  0.6215 -0.7741 -0.8568
  168MOL0     O22569   4.974   1.600  10.434  0.2507  0.1318 -0.0234
  168MOL0     C22570   4.838   1.598  10.428 -0.4291 -0.5112  1.2937
  168MOL0     C22571   4.773   1.711  10.392  0.5725  0.4349 -0.0175
  168MOL0     C22572   4.637   1.717  10.375 -0.0135  0.3467 -0.4807
  168MOL0     C22573   4.589   1.848  10.316 -0.1887 -0.2425  0.9813
  168MOL0     C22574   4.554   1.614  10.422 -0.3560 -0.2213  0.4411
  168MOL0     C22575   4.406   1.621  10.438  0.0679 -0.4077  0.6360
  168MOL0     O22576   4.354   1.508  10.487  0.3215 -0.2241  0.3901
  168MOL0     C22577   4.215   1.483  10.495 -0.1107 -1.2932 -0.2775
  168MOL0     C22578   4.123   1.576  10.543 -0.0299 -0.2659 -0.2207
  168MOL0     C22579   3.988   1.545  10.554 -0.2648 -0.5858 -0.7185
  168MOL0     C22580   3.946   1.418  10.525  0.3315 -0.1893 -0.1197
  168MOL0     O22581   3.808   1.383  10.534 -0.1252 -0.1395 -0.1314
  168MOL0     C22582   3.708   1.470  10.588  0.0611  0.0410 -0.6843
  168MOL0     C22583   3.606   1.488  10.477  0.1551 -0.5844 -0.9544
  168MOL0     C22584   3.477   1.518  10.545  0.5915 -0.1527  0.0674
  168MOL0     C22585   3.353   1.578  10.461 -0.1057 -0.8055  0.0888
  168MOL0     C22586   3.216   1.540  10.523  0.3896 -0.7038 -0.6845
  168MOL0     C22587   3.098   1.597  10.439 -0.3237 -0.2884 -0.2309
  168MOL0     C22588   2.965   1.547  10.501 -0.8316 -0.6651  0.3163
  168MOL0     C22589   2.853   1.629  10.421  0.1199  0.7557 -0.7402
  168MOL0    Cl22590   2.852   1.604  10.247  0.5004  0.1621 -0.2618
  168MOL0     C22591   4.040   1.320  10.479  0.7390 -0.3443  0.3140
  168MOL0     C22592   4.173   1.354  10.469  0.9044  0.0481 -0.9055
  168MOL0     O22593   4.338   1.717  10.395 -0.2036 -0.3123 -0.1844
  168MOL0     C22594   4.621   1.499  10.466 -0.2917  1.1873  0.7692
  168MOL0     C22595   4.759   1.485  10.462  0.0729  0.5141 -0.2029
  168MOL0     N22596   5.515   1.652  10.441  0.5330  0.1099 -0.0150
  168MOL0     N22597   5.579   1.728  10.514 -0.1586  0.2032  0.1695
  168MOL0     C22598   6.079   2.003  11.231  0.0637 -0.0259  0.3209
  168MOL0     C22599   6.203   2.068  11.217  0.5531 -0.2429 -0.4715
  168MOL0     C22600   6.598   2.251  11.029 -0.6541 -0.1194  1.6282
  168MOL0     C22601   6.651   2.336  10.935  0.1289 -0.5315  0.0915
  168MOL0     C22602   6.786   2.363  10.938 -0.2297  0.2115  0.3786
  168MOL0     C22603   6.875   2.323  11.034  0.4739 -0.3994 -0.8130
  168MOL0     O22604   6.998   2.372  11.013 -0.1690 -0.7831  0.2709
  168MOL0     C22605   7.113   2.283  11.020 -1.4284  0.8146 -0.2629
  168MOL0     C22606   7.229   2.363  11.082 -0.5181  0.0011 -0.1874
  168MOL0     C22607   7.365   2.312  11.035  1.0486 -0.2480  0.5080
  168MOL0     C22608   7.411   2.177  11.085 -0.1370 -0.2478  0.3403
  168MOL0     C22609   7.399   2.177  11.227 -0.8360  0.2090 -1.0664
  168MOL0     C22610   7.391   2.171  11.351 -0.0146  0.7254  0.0191
  168MOL0     C22611   6.823   2.233  11.133  0.9411 -0.6204 -0.5147
  168MOL0     C22612   6.688   2.197  11.132  0.5313 -0.1781 -0.6627
  168MOL0     H22613   6.324   1.962  10.932 -0.2556 -0.7027 -0.5323
  168MOL0     H22614   6.092   1.842  10.934 -1.8108 -2.3322  2.4157
  168MOL0     H22615   5.732   1.810  11.253  1.3174 -2.0484 -0.7292
  168MOL0     H22616   5.862   1.887  11.335 -0.3280  0.2462 -0.1469
  168MOL0     H22617   5.675   2.044  11.295 -0.6637  1.4044  0.1571
  168MOL0     H22618   5.793   2.092  11.170  1.4295 -1.6958 -0.9435
  168MOL0     H22619   5.599   1.883  11.122  1.8686 -0.3602  1.7422
  168MOL0     H22620   5.546   2.058  11.112  0.4440  0.1149  0.7862
  168MOL0     H22621   5.738   2.087  10.962  0.0515  0.3835 -0.0718
  168MOL0     H22622   5.753   1.919  10.941 -1.9764 -0.5722  0.1309
  168MOL0     H22623   5.484   2.053  10.885 -1.5139 -1.1734 -3.0935
  168MOL0     H22624   5.598   2.001  10.753 -0.4399  0.8739  0.1335
  168MOL0     H22625   5.415   1.831  10.947  0.5690  2.4480  2.4375
  168MOL0     H22626   5.441   1.838  10.772  0.6686  1.5554 -0.8668
  168MOL0     H22627   5.656   1.734  10.964 -3.2687 -1.1089  2.2866
  168MOL0     H22628   5.540   1.630  10.887  2.3517 -0.1867 -0.6958
  168MOL0     H22629   5.760   1.637  10.766  0.9849  1.2615  1.5275
  168MOL0     H22630   5.723   1.802  10.718  1.5225 -0.2780 -1.2452
  168MOL0     H22631   5.542   1.479  10.717 -2.2491  0.1533  0.8427
  168MOL0     H22632   5.427   1.395  10.366  1.5126 -0.8556  0.3839
  168MOL0     H22633   5.465   1.324  10.510  0.2781  0.1082 -0.7252
  168MOL0     H22634   5.234   1.416  10.613 -1.1038 -0.4216 -0.5103
  168MOL0     H22635   5.223   1.290  10.485  1.8382 -0.5024 -1.4461
  168MOL0     H22636   5.208   1.466  10.318 -0.1314  1.7188  0.3207
  168MOL0     H22637   5.223   1.584  10.453  0.1439  1.0757 -0.2717
  168MOL0     H22638   5.018   1.441  10.555 -0.9106 -2.0785 -1.5349
  168MOL0     H22639   5.001   1.388  10.394  1.8894 -2.5465  0.6526
  168MOL0     H22640   4.833   1.796  10.360 -0.5170  1.6760  1.1327
  168MOL0     H22641   4.522   1.900  10.385  0.6890  1.4634  0.5996
  168MOL0     H22642   4.670   1.917  10.291 -0.2412 -0.9611 -1.4011
  168MOL0     H22643   4.538   1.840  10.219 -1.0201  1.8047  1.1827
  168MOL0     H22644   4.154   1.679  10.560  2.5909 -0.7135 -1.8167
  168MOL0     H22645   3.924   1.627  10.586  1.6741  0.3783  0.9298
  168MOL0     H22646   3.660   1.416  10.670 -0.0571  0.0931 -0.7195
  168MOL0     H22647   3.736   1.570  10.623 -2.0347  1.1982 -2.1079
  168MOL0     H22648   3.625   1.570  10.407 -1.9836 -0.2183 -1.1900
  168MOL0     H22649   3.602   1.394  10.421  0.9018 -3.2507  3.0712
  168MOL0     H22650   3.499   1.572  10.637 -0.5665  3.7651 -1.7539
  168MOL0     H22651   3.437   1.418  10.566  1.4847 -0.7772 -1.1177
  168MOL0     H22652   3.360   1.685  10.440 -1.7392 -0.8989 -1.1012
  168MOL0     H22653   3.362   1.531  10.362 -0.5755 -1.4135  0.3266
  168MOL0     H22654   3.208   1.563  10.630  1.8336 -0.5158 -0.5969
  168MOL0     H22655   3.217   1.430  10.524 -1.6137 -0.7538 -0.1861
  168MOL0     H22656   3.099   1.706  10.434 -1.2676 -0.1063  2.4158
  168MOL0     H22657   3.120   1.554  10.340  0.8269 -0.4743  0.0952
  168MOL0     H22658   2.964   1.564  10.609 -4.4497 -1.1410  0.4644
  168MOL0     H22659   2.965   1.438  10.491  0.5488 -0.6840  0.3306
  168MOL0     H22660   2.879   1.733  10.438  1.1665  0.9518 -3.1045
  168MOL0     H22661   2.758   1.601  10.466  0.1071 -1.7300 -2.1189
  168MOL0     H22662   4.011   1.217  10.463 -0.0471  0.0502 -1.0204
  168MOL0     H22663   4.251   1.280  10.452 -0.5294 -2.2099  1.6022
  168MOL0     H22664   4.564   1.415  10.504 -2.8292  1.5905 -1.8465
  168MOL0     H22665   4.795   1.387  10.491 -0.2843  0.0848 -1.1728
  168MOL0     H22666   6.028   2.010  11.327  1.1455 -0.6917  0.9670
  168MOL0     H22667   6.239   2.138  11.291  2.7369  1.6762 -3.1205
  168MOL0     H22668   6.597   2.373  10.848  0.7245  0.5513  0.1678
  168MOL0     H22669   6.832   2.420  10.858  0.9073 -1.9221 -0.5673
  168MOL0     H22670   7.089   2.198  11.084  2.3881 -2.1347 -2.3952
  168MOL0     H22671   7.139   2.235  10.926 -0.7361 -1.8577  1.1874
  168MOL0     H22672   7.219   2.353  11.191 -2.2053 -1.7284 -0.4284
  168MOL0     H22673   7.224   2.471  11.066  1.4735  0.3742  1.3525
  168MOL0     H22674   7.440   2.376  11.083  0.1647 -0.8004  2.7466
  168MOL0     H22675   7.380   2.309  10.926 -0.8260 -0.4314  0.2254
  168MOL0     H22676   7.516   2.172  11.052 -0.7775  1.1996 -2.1412
  168MOL0     H22677   7.359   2.100  11.027 -1.1430 -0.2557  1.2437
  168MOL0     H22678   7.396   2.158  11.457 -1.1181  2.8972  0.3803
  168MOL0     H22679   6.893   2.188  11.202  2.8059  0.3671 -1.6669
  168MOL0     H22680   6.659   2.132  11.213 -1.2799  1.7556  0.3337
  169MOL0     O22681   1.671   9.360   1.531  0.2130  0.3649 -0.6841
  169MOL0     C22682   1.611   9.285   1.450 -0.7767 -0.7990 -0.1039
  169MOL0     O22683   1.664   9.244   1.337 -0.1310 -0.0148  0.0263
  169MOL0     C22684   1.789   9.282   1.301  0.6823 -0.4859 -0.1418
  169MOL0     C22685   1.894   9.192   1.312 -1.3434  0.7486  0.1077
  169MOL0     C22686   2.023   9.239   1.307  0.5417 -0.7449  0.8217
  169MOL0     C22687   2.053   9.374   1.283 -0.3391  0.9378 -0.6164
  169MOL0     O22688   2.191   9.407   1.283  0.6895 -0.3878  0.2511
  169MOL0     C22689   2.228   9.483   1.162  0.1377 -1.0867  0.3738
  169MOL0     C22690   2.375   9.444   1.134 -0.6107  0.3670 -0.6340
  169MOL0     C22691   2.469   9.493   1.237  0.0130 -0.3373  0.1889
  169MOL0     C22692   2.612   9.454   1.205 -0.2182 -0.5564 -0.4977
  169MOL0     C22693   2.693   9.478   1.338 -0.6038 -0.6141  0.1730
  169MOL0     C22694   2.837   9.425   1.320 -0.3881 -0.4160  0.1828
  169MOL0     C22695   2.933   9.479   1.424  0.4541  0.1811  0.1616
  169MOL0     C22696   3.068   9.436   1.370 -0.0200  0.2996  0.5269
  169MOL0     N22697   3.171   9.472   1.476 -0.5506 -0.0101 -0.0570
  169MOL0     C22698   3.214   9.600   1.504  0.4863 -0.3210  0.1628
  169MOL0     C22699   3.296   9.583   1.616  0.2849  0.7054 -0.7618
  169MOL0     C22700   3.357   9.702   1.693  0.7939  0.0617  0.0155
  169MOL0     C22701   3.281   9.729   1.822  0.2443 -0.5741 -0.2647
  169MOL0     C22702   3.127   9.747   1.806  0.2089 -0.2167  0.0233
  169MOL0     C22703   3.065   9.775   1.941 -0.0111 -0.3316  0.1421
  169MOL0     O22704   3.122   9.907   1.973 -0.5090 -0.1903 -0.2652
  169MOL0     C22705   3.077   9.954   2.091 -0.0240  0.1526  0.2935
  169MOL0     C22706   2.991  10.067   2.095 -0.7800  0.5566 -0.3822
  169MOL0     C22707   2.945  10.122   2.216  0.1562  0.8488  0.4035
  169MOL0     C22708   2.839  10.228   2.218 -0.1509 -0.4616 -1.0585
  169MOL0     C22709   2.995  10.069   2.336 -0.3058 -1.1244  0.2641
  169MOL0     C22710   2.973  10.123   2.474  0.0476 -0.0697 -0.0780
  169MOL0     O22711   2.971  10.028   2.571  0.6608 -0.6221 -0.4281
  169MOL0     C22712   3.001  10.076   2.697 -1.0580 -0.3929  0.8159
  169MOL0     C22713   3.116  10.026   2.748  0.5369 -0.2005  0.3604
  169MOL0     C22714   3.165  10.068   2.872 -0.2911 -0.2191 -0.5072
  169MOL0     C22715   3.088  10.152   2.951 -0.3711 -0.3350 -0.3849
  169MOL0     O22716   3.138  10.199   3.075  0.4444  0.0304 -0.2496
  169MOL0     C22717   3.266  10.264   3.064  0.4208 -1.0284 -0.6554
  169MOL0     C22718   3.290  10.365   3.167 -0.0981  0.6955 -0.3851
  169MOL0     C22719   3.426  10.450   3.145  0.7656  0.1432  0.1872
  169MOL0     C22720   3.420  10.595   3.205  0.2839 -0.6417  0.5347
  169MOL0     C22721   3.390  10.697   3.085 -0.5902  0.9050  0.0383
  169MOL0     C22722   3.523  10.725   2.998 -0.1849  0.3906  0.2089
  169MOL0     C22723   3.632  10.800   3.075  1.1096  0.4091 -0.2082
  169MOL0     C22724   3.746  10.845   2.989 -0.6523 -0.3470  0.1027
  169MOL0    Cl22725   3.691  10.917   2.840 -0.2886  0.3761 -0.4085
  169MOL0     C22726   2.961  10.181   2.905 -0.4381  0.3038  0.4504
  169MOL0     C22727   2.922  10.151   2.774  0.0500  0.0304 -0.0070
  169MOL0     O22728   2.946  10.245   2.485  0.5291 -0.7846 -0.5238
  169MOL0     C22729   3.076   9.953   2.327 -0.9722  1.1015 -0.2126
  169MOL0     C22730   3.125   9.892   2.207  0.1784 -1.1004  0.8778
  169MOL0     N22731   3.290   9.443   1.651 -0.6397 -0.1498  0.6087
  169MOL0     N22732   3.225   9.385   1.555  0.0050 -0.0570  0.1826
  169MOL0     C22733   1.953   9.472   1.277  0.1728 -0.3189 -0.4360
  169MOL0     C22734   1.820   9.423   1.285 -0.8749  0.4144  0.2511
  169MOL0     C22735   1.473   9.259   1.483  0.5040 -0.3159 -0.5961
  169MOL0     C22736   1.435   9.229   1.611  0.1121 -0.6017 -1.0139
  169MOL0     C22737   1.304   9.202   1.654 -0.3782 -0.3376  0.7087
  169MOL0     C22738   1.205   9.198   1.554  0.0765 -0.0570 -0.1213
  169MOL0     O22739   1.075   9.175   1.599  0.0221  0.0495  0.5950
  169MOL0     C22740   0.964   9.206   1.514  0.2702 -0.2358  0.1919
  169MOL0     C22741   0.831   9.175   1.597  0.4442 -0.3204  0.2533
  169MOL0     C22742   0.709   9.190   1.506  0.8373  0.5134 -0.4660
  169MOL0     C22743   0.572   9.192   1.583  0.1794  0.0340 -0.2449
  169MOL0     C22744   0.506   9.061   1.579  0.4236  0.0898 -0.0496
  169MOL0     C22745   0.465   8.946   1.576  0.3073 -0.8960 -0.3293
  169MOL0     C22746   1.233   9.232   1.422  0.0990 -0.2023  0.3613
  169MOL0     C22747   1.364   9.264   1.391 -0.7379 -0.0677 -0.0788
  169MOL0     H22748   1.885   9.084   1.310 -0.6105  0.6830 -0.7546
  169MOL0     H22749   2.108   9.171   1.302  0.6693 -0.5633  0.5496
  169MOL0     H22750   2.161   9.460   1.079  1.0833  3.1003 -1.8077
  169MOL0     H22751   2.228   9.592   1.172 -0.8635 -0.8558 -1.6774
  169MOL0     H22752   2.376   9.335   1.141 -1.9492  0.4492  1.5525
  169MOL0     H22753   2.401   9.474   1.032 -0.7422  0.0546 -0.7604
  169MOL0     H22754   2.461   9.602   1.229  1.6253 -0.2746 -0.9960
  169MOL0     H22755   2.438   9.464   1.338  2.1294 -1.5313  0.5564
  169MOL0     H22756   2.611   9.348   1.177  0.5683 -1.1038  1.3756
  169MOL0     H22757   2.651   9.512   1.121  0.3290 -0.6528 -0.3148
  169MOL0     H22758   2.703   9.581   1.372 -0.4921 -0.4496 -0.3485
  169MOL0     H22759   2.644   9.430   1.424  0.3673 -0.8158  0.6290
  169MOL0     H22760   2.842   9.316   1.326  0.3018 -0.5574 -2.0146
  169MOL0     H22761   2.869   9.447   1.218 -2.4766  2.5787  0.0257
  169MOL0     H22762   2.927   9.588   1.426  1.6026  0.3048 -1.2349
  169MOL0     H22763   2.932   9.441   1.527  1.0183  1.3411  0.6072
  169MOL0     H22764   3.095   9.483   1.275 -3.5099  2.6106  0.5315
  169MOL0     H22765   3.057   9.327   1.362 -1.5269  0.3312  1.7929
  169MOL0     H22766   3.186   9.687   1.445  0.0507 -0.8228 -0.3841
  169MOL0     H22767   3.460   9.689   1.728 -0.0956 -2.8987  1.8792
  169MOL0     H22768   3.351   9.786   1.623  0.7127 -0.9783 -1.2692
  169MOL0     H22769   3.332   9.810   1.875  2.0745 -0.4408 -2.0876
  169MOL0     H22770   3.292   9.646   1.892  1.4948  1.5622  2.2259
  169MOL0     H22771   3.076   9.665   1.755  0.2738 -0.4943  0.4015
  169MOL0     H22772   3.109   9.835   1.743  2.1232  0.3757  0.2132
  169MOL0     H22773   3.097   9.694   2.008  0.5229  0.1138  0.4374
  169MOL0     H22774   2.956   9.776   1.934 -0.2297  0.0669  2.7388
  169MOL0     H22775   2.954  10.117   2.006 -1.4511  1.2973  0.2989
  169MOL0     H22776   2.831  10.261   2.114 -0.6711 -0.6264 -1.0782
  169MOL0     H22777   2.742  10.186   2.247  0.3617  0.8114  3.0810
  169MOL0     H22778   2.855  10.315   2.282 -3.1801 -0.1008 -0.6041
  169MOL0     H22779   3.180   9.949   2.705  0.5402  0.3709 -0.6776
  169MOL0     H22780   3.256  10.025   2.912  1.3378  1.5362 -2.1074
  169MOL0     H22781   3.348  10.192   3.075  1.8302  0.6084  0.1833
  169MOL0     H22782   3.279  10.312   2.967 -1.0554  0.8044 -0.0017
  169MOL0     H22783   3.194  10.417   3.173 -1.8313 -2.0349 -1.8985
  169MOL0     H22784   3.311  10.304   3.256 -0.5705 -2.5407 -2.3120
  169MOL0     H22785   3.473  10.451   3.046 -2.1902  0.4774 -1.3267
  169MOL0     H22786   3.492  10.392   3.210 -0.3770 -0.0214  1.2272
  169MOL0     H22787   3.344  10.612   3.282  2.0054  1.3871  1.8892
  169MOL0     H22788   3.511  10.625   3.257 -1.1291 -1.1735  3.4863
  169MOL0     H22789   3.348  10.789   3.127  0.8354  1.3212  0.6047
  169MOL0     H22790   3.315  10.656   3.017 -0.4793 -0.9412  0.9841
  169MOL0     H22791   3.563  10.631   2.959  1.2597  0.9549  0.2476
  169MOL0     H22792   3.487  10.779   2.910 -2.3648 -1.3394 -0.0211
  169MOL0     H22793   3.661  10.740   3.162 -1.4748 -0.9244 -0.1414
  169MOL0     H22794   3.585  10.891   3.113  0.9938  0.7502 -1.1543
  169MOL0     H22795   3.819  10.767   2.964 -2.0323 -1.4076 -0.7886
  169MOL0     H22796   3.802  10.917   3.049 -0.1214 -1.4424  0.9556
  169MOL0     H22797   2.895  10.236   2.971  1.2798  1.8527  0.9585
  169MOL0     H22798   2.830  10.183   2.726  0.0694  0.2972  0.1329
  169MOL0     H22799   3.107   9.911   2.422  0.1475  0.8138 -0.6889
  169MOL0     H22800   3.200   9.814   2.214  1.2870 -0.4945 -2.2458
  169MOL0     H22801   1.970   9.579   1.264  1.7898 -0.6644 -1.4412
  169MOL0     H22802   1.737   9.492   1.277 -0.1037  1.1863 -1.4103
  169MOL0     H22803   1.508   9.236   1.691 -0.8231  2.0198 -0.2661
  169MOL0     H22804   1.282   9.192   1.760 -2.2100  0.6198  0.4528
  169MOL0     H22805   0.955   9.313   1.494 -3.5263  0.5028  4.1505
  169MOL0     H22806   0.970   9.157   1.417 -0.4752  0.7101 -0.3424
  169MOL0     H22807   0.831   9.234   1.689 -0.6442 -2.1121  1.4739
  169MOL0     H22808   0.837   9.071   1.629  1.9365 -0.5563 -0.7409
  169MOL0     H22809   0.707   9.120   1.423 -2.4775  0.2836 -0.3534
  169MOL0     H22810   0.708   9.290   1.462  0.7685 -0.2300 -2.2252
  169MOL0     H22811   0.524   9.280   1.538 -1.1720 -1.0582 -1.0409
  169MOL0     H22812   0.586   9.214   1.689  1.4084 -0.5894 -0.2609
  169MOL0     H22813   0.423   8.847   1.576  1.2058 -1.2985  0.5188
  169MOL0     H22814   1.170   9.225   1.334  1.8758  0.1384 -1.0067
  169MOL0     H22815   1.390   9.295   1.290 -1.1458  0.8684  0.0911
  170MOL0     O22816   8.148   2.371   3.291 -0.1555 -0.0341  0.7219
  170MOL0     C22817   8.221   2.467   3.262 -0.6644  0.7897 -0.2806
  170MOL0     O22818   8.177   2.591   3.221  0.0782  0.2327  0.4585
  170MOL0     C22819   8.042   2.614   3.217  0.5153 -0.9287 -0.1574
  170MOL0     C22820   7.969   2.612   3.096 -0.0982 -0.2485  0.8071
  170MOL0     C22821   7.834   2.647   3.092  0.4631 -0.8800 -0.0585
  170MOL0     C22822   7.760   2.668   3.215 -0.2501  0.6225 -0.0688
  170MOL0     O22823   7.632   2.711   3.204  0.6529  0.0042 -0.0443
  170MOL0     C22824   7.557   2.755   3.322  0.8792  0.6239  0.2112
  170MOL0     C22825   7.462   2.872   3.282  0.4561  0.2089  0.1611
  170MOL0     C22826   7.322   2.850   3.344 -0.5481  0.3656 -0.0868
  170MOL0     C22827   7.248   2.731   3.288  0.0376 -0.8212  0.0116
  170MOL0     C22828   7.101   2.746   3.340  0.7487  0.4263 -0.9391
  170MOL0     C22829   7.028   2.646   3.249  0.8877 -0.0021  0.1955
  170MOL0     C22830   6.883   2.649   3.279  1.0115 -0.5152 -0.1318
  170MOL0     C22831   6.805   2.761   3.206  0.6043  0.6243 -0.3927
  170MOL0     N22832   6.656   2.750   3.199 -0.1308  0.1858  0.1691
  170MOL0     C22833   6.575   2.840   3.137 -0.2036 -0.9522  0.6064
  170MOL0     C22834   6.466   2.772   3.082 -0.1026  0.7849 -0.8803
  170MOL0     C22835   6.354   2.823   3.010  0.3878 -0.3391  0.4614
  170MOL0     C22836   6.218   2.752   3.049  0.3003  0.0107 -0.1018
  170MOL0     C22837   6.196   2.739   3.198  0.1365  0.1310  0.0669
  170MOL0     C22838   6.050   2.764   3.237  0.4064 -0.4517  0.9645
  170MOL0     O22839   6.001   2.896   3.189 -0.7784  0.1632 -0.6174
  170MOL0     C22840   5.895   2.957   3.258 -0.6308  0.4503  0.2694
  170MOL0     C22841   5.867   3.089   3.231 -0.1349 -0.5018 -0.9236
  170MOL0     C22842   5.754   3.153   3.279 -0.3242  0.2416 -0.0800
  170MOL0     C22843   5.728   3.300   3.236  0.2326  0.1768  0.3061
  170MOL0     C22844   5.671   3.081   3.365  0.2489  0.5839 -0.3224
  170MOL0     C22845   5.533   3.125   3.415 -0.4202 -0.8668  0.5038
  170MOL0     O22846   5.444   3.026   3.445 -0.0947  0.2806  0.4035
  170MOL0     C22847   5.316   3.053   3.497 -0.5200 -0.2848 -0.4037
  170MOL0     C22848   5.273   3.160   3.572  0.1104 -0.0311  0.3692
  170MOL0     C22849   5.141   3.172   3.616 -0.1077 -0.3178  0.3063
  170MOL0     C22850   5.053   3.071   3.601  0.0612 -1.0492 -0.4977
  170MOL0     O22851   4.929   3.087   3.656  0.0713 -0.4904  0.3369
  170MOL0     C22852   4.818   3.076   3.570  0.0156 -0.2538  0.0194
  170MOL0     C22853   4.820   3.179   3.455 -0.7829 -0.6148 -0.3446
  170MOL0     C22854   4.734   3.135   3.337 -0.0043 -0.2304  0.3170
  170MOL0     C22855   4.588   3.170   3.358 -0.0559 -0.3335  0.1128
  170MOL0     C22856   4.508   3.052   3.300  0.0137 -0.4711  0.2550
  170MOL0     C22857   4.494   2.922   3.390  0.0080 -0.7215 -0.1604
  170MOL0     C22858   4.454   2.803   3.310  0.7193  0.9509  0.6863
  170MOL0     C22859   4.305   2.795   3.283 -0.1204  0.2508 -0.6608
  170MOL0    Cl22860   4.216   2.769   3.435  0.0514  0.0960  0.0453
  170MOL0     C22861   5.091   2.955   3.525  0.0363  0.2781 -0.4409
  170MOL0     C22862   5.224   2.949   3.471 -0.1397  0.1594 -0.2254
  170MOL0     O22863   5.511   3.249   3.410  0.1659 -0.0048  0.0703
  170MOL0     C22864   5.706   2.950   3.405  0.9597 -0.3808  0.2192
  170MOL0     C22865   5.810   2.888   3.342 -0.9728  0.2880  0.3802
  170MOL0     N22866   6.489   2.639   3.119 -0.2367 -0.1429 -0.3840
  170MOL0     N22867   6.601   2.629   3.182 -0.0735 -0.1310 -0.1490
  170MOL0     C22868   7.838   2.666   3.334  0.9932 -0.7852 -0.6261
  170MOL0     C22869   7.973   2.640   3.334  0.2410 -0.3761  0.1074
  170MOL0     C22870   8.363   2.446   3.286 -0.9816 -0.9788  0.5805
  170MOL0     C22871   8.448   2.559   3.264 -0.4870 -0.0036 -0.1103
  170MOL0     C22872   8.583   2.550   3.297 -0.8193  1.0458 -0.4187
  170MOL0     C22873   8.647   2.438   3.351  0.2193  0.8299 -0.0477
  170MOL0     O22874   8.778   2.438   3.400  0.0973 -0.4773 -0.3612
  170MOL0     C22875   8.809   2.353   3.511 -0.8120  0.4848 -1.1158
  170MOL0     C22876   8.959   2.370   3.557  0.4486  1.0642  0.5214
  170MOL0     C22877   9.054   2.327   3.449 -0.6608 -0.1797  0.4698
  170MOL0     C22878   9.173   2.417   3.415 -0.0576 -0.3718 -0.4245
  170MOL0     C22879   9.279   2.413   3.516 -0.9430  0.2525  0.2532
  170MOL0     C22880   9.358   2.389   3.603  0.4130 -0.0631 -0.3279
  170MOL0     C22881   8.559   2.322   3.368 -0.7319  0.5310  0.1382
  170MOL0     C22882   8.418   2.331   3.338 -0.6925  0.5673 -0.8125
  170MOL0     H22883   8.031   2.592   3.009 -0.7998 -0.4082  0.3359
  170MOL0     H22884   7.775   2.659   3.002 -2.7115 -0.1306  1.9435
  170MOL0     H22885   7.506   2.671   3.370  1.3830  0.0364 -0.2504
  170MOL0     H22886   7.623   2.795   3.400  1.6579  1.8566 -1.0437
  170MOL0     H22887   7.500   2.971   3.308 -1.2832  0.7931  0.5647
  170MOL0     H22888   7.455   2.873   3.172 -0.1583 -4.9774 -0.1209
  170MOL0     H22889   7.336   2.837   3.452  1.4630  1.1107 -0.2173
  170MOL0     H22890   7.263   2.942   3.339 -1.4594 -0.2319 -0.4341
  170MOL0     H22891   7.255   2.739   3.179  0.4281 -0.1298  0.0817
  170MOL0     H22892   7.287   2.639   3.332 -2.1614  0.4222  5.3336
  170MOL0     H22893   7.098   2.724   3.447 -0.0630 -0.4457 -1.1276
  170MOL0     H22894   7.069   2.849   3.321  1.7083  0.9343  0.0472
  170MOL0     H22895   7.037   2.658   3.141 -1.9468  0.1227 -0.1188
  170MOL0     H22896   7.057   2.542   3.266  1.8835  0.7152  3.6897
  170MOL0     H22897   6.837   2.553   3.251  0.9001 -0.9764  1.5391
  170MOL0     H22898   6.858   2.653   3.385 -2.3760  0.8656 -0.8268
  170MOL0     H22899   6.852   2.775   3.108 -0.7276  0.0139 -1.1515
  170MOL0     H22900   6.836   2.850   3.262  1.2455  1.8350 -2.5531
  170MOL0     H22901   6.595   2.946   3.132  0.7483 -0.8972  3.5859
  170MOL0     H22902   6.345   2.930   3.027 -0.1410 -0.5576  1.6582
  170MOL0     H22903   6.377   2.812   2.903  1.7217 -1.3297  0.8185
  170MOL0     H22904   6.227   2.658   2.994  2.9567  1.3598 -2.1705
  170MOL0     H22905   6.146   2.814   2.995 -1.1526 -2.5985 -1.3169
  170MOL0     H22906   6.251   2.812   3.258  0.2007 -0.0364  0.2158
  170MOL0     H22907   6.227   2.639   3.230  1.8555  1.5319  3.2549
  170MOL0     H22908   6.044   2.761   3.346 -0.8846 -0.7466  0.8983
  170MOL0     H22909   5.983   2.690   3.193 -0.3796  0.9237 -0.2826
  170MOL0     H22910   5.932   3.142   3.163 -0.9017  0.5093 -0.8957
  170MOL0     H22911   5.751   3.366   3.320 -2.5097  0.6544  0.7650
  170MOL0     H22912   5.795   3.328   3.154  0.1925 -0.4220  0.0691
  170MOL0     H22913   5.628   3.320   3.198  1.4749  2.7709 -1.9841
  170MOL0     H22914   5.340   3.242   3.592  2.4033 -1.2092 -1.9345
  170MOL0     H22915   5.088   3.257   3.660 -5.6769 -2.6941 -0.9045
  170MOL0     H22916   4.806   2.973   3.535  0.6080 -0.6030  0.8149
  170MOL0     H22917   4.727   3.096   3.628  0.4369  1.5912  0.1260
  170MOL0     H22918   4.788   3.275   3.495  1.2203 -0.3047  0.6498
  170MOL0     H22919   4.923   3.196   3.423  0.7906 -2.6933  3.0220
  170MOL0     H22920   4.746   3.026   3.329  1.1029 -0.1843  1.1104
  170MOL0     H22921   4.771   3.184   3.247 -1.1638 -0.6471 -0.4046
  170MOL0     H22922   4.580   3.196   3.464 -0.2953  0.5801 -0.1218
  170MOL0     H22923   4.565   3.265   3.308  0.4701 -0.1233  0.2621
  170MOL0     H22924   4.548   3.028   3.201  1.5118 -1.2291  1.0134
  170MOL0     H22925   4.404   3.075   3.273 -0.3342 -1.3558  0.8148
  170MOL0     H22926   4.585   2.906   3.448  0.3323  2.3798  0.3463
  170MOL0     H22927   4.406   2.936   3.454 -2.0562  0.5191 -3.0243
  170MOL0     H22928   4.462   2.707   3.361  0.1655 -1.5189 -3.4423
  170MOL0     H22929   4.507   2.805   3.214 -0.4467  0.7781  0.0251
  170MOL0     H22930   4.289   2.707   3.220 -1.4031  1.3335 -1.9393
  170MOL0     H22931   4.280   2.889   3.231 -0.4939  1.1232  1.0195
  170MOL0     H22932   5.027   2.868   3.514 -0.3082  0.1013  2.2591
  170MOL0     H22933   5.247   2.883   3.389 -0.7825  1.7976 -1.7919
  170MOL0     H22934   5.647   2.889   3.473  0.3521 -0.1868 -0.1233
  170MOL0     H22935   5.828   2.783   3.364 -1.7319  0.2226  0.6959
  170MOL0     H22936   7.781   2.682   3.425  0.1780  0.0747 -1.2647
  170MOL0     H22937   8.031   2.638   3.426 -0.4741  1.5665  0.6567
  170MOL0     H22938   8.406   2.654   3.233 -3.1926 -1.2824 -0.6423
  170MOL0     H22939   8.634   2.646   3.291  0.2688  0.6371  1.4354
  170MOL0     H22940   8.740   2.370   3.594 -0.1711 -0.8339 -0.2979
  170MOL0     H22941   8.794   2.247   3.492  0.7121 -0.4718  2.3942
  170MOL0     H22942   8.992   2.307   3.641  3.9097 -1.3458 -2.3285
  170MOL0     H22943   8.968   2.474   3.589 -1.8728  1.2815  0.6133
  170MOL0     H22944   8.999   2.329   3.355 -2.4574 -1.4596  1.4395
  170MOL0     H22945   9.091   2.226   3.470 -2.3777 -0.9500 -0.0691
  170MOL0     H22946   9.148   2.523   3.413  2.2143  0.2791 -4.1550
  170MOL0     H22947   9.209   2.382   3.318 -0.0660 -2.9703  0.4323
  170MOL0     H22948   9.427   2.349   3.675 -1.1406 -3.6346 -0.5782
  170MOL0     H22949   8.594   2.228   3.408 -0.9058  0.0598 -0.7916
  170MOL0     H22950   8.358   2.244   3.361  1.5375 -0.2126  2.9856
  171MOL0     O22951   3.102   9.267   7.929  0.1377 -0.1253 -0.3936
  171MOL0     C22952   3.135   9.319   7.826  0.1354 -0.9564 -1.3653
  171MOL0     O22953   3.047   9.354   7.728  0.6058  0.2185  0.1211
  171MOL0     C22954   2.910   9.318   7.742 -1.2243 -0.3426 -0.5930
  171MOL0     C22955   2.853   9.216   7.667  0.1843 -0.3204 -0.6691
  171MOL0     C22956   2.711   9.193   7.690 -0.5523 -0.0165 -0.0374
  171MOL0     C22957   2.647   9.252   7.792  0.9193  0.1878  0.4713
  171MOL0     O22958   2.511   9.225   7.816  0.0826 -0.3496  0.0117
  171MOL0     C22959   2.450   9.102   7.774 -0.5720  0.2510  0.1447
  171MOL0     C22960   2.325   9.101   7.861 -0.0771 -0.4849  0.2676
  171MOL0     C22961   2.240   9.221   7.826  1.0246  0.1072  0.2319
  171MOL0     C22962   2.215   9.312   7.949 -0.0448 -0.0971  0.4144
  171MOL0     C22963   2.103   9.420   7.915 -1.0379 -0.5685 -0.2844
  171MOL0     C22964   1.965   9.368   7.906 -0.0053 -0.4503  0.2965
  171MOL0     C22965   1.861   9.476   7.884 -0.6741 -0.4260  0.1365
  171MOL0     C22966   1.820   9.534   8.020 -0.5967 -0.0832 -0.8982
  171MOL0     N22967   1.693   9.605   8.025  0.4961 -0.2136 -0.2132
  171MOL0     C22968   1.639   9.690   7.930  0.6201 -0.9148 -0.6763
  171MOL0     C22969   1.517   9.724   7.981 -0.1469 -1.0929  0.2224
  171MOL0     C22970   1.418   9.793   7.889  0.5904  0.0221  0.1440
  171MOL0     C22971   1.416   9.946   7.903 -0.0915 -0.1830 -0.7485
  171MOL0     C22972   1.333  10.002   8.015  0.9722  0.7218 -0.0690
  171MOL0     C22973   1.323  10.156   8.010  0.3494  0.8308 -0.0923
  171MOL0     O22974   1.230  10.186   7.908  0.2398 -0.4269  0.3060
  171MOL0     C22975   1.093  10.175   7.913  0.5729  0.1385 -0.2762
  171MOL0     C22976   1.031  10.133   8.031  0.5648 -0.1780 -1.0341
  171MOL0     C22977   0.894  10.122   8.035 -0.1781 -0.2806  0.2620
  171MOL0     C22978   0.834  10.067   8.160 -0.0602 -0.0240 -0.3551
  171MOL0     C22979   0.818  10.158   7.919  0.3587 -0.8028  0.4592
  171MOL0     C22980   0.671  10.159   7.935  0.1129  0.1022  0.4465
  171MOL0     O22981   0.622  10.091   7.826  0.3887 -0.0613  0.2236
  171MOL0     C22982   0.486  10.101   7.795  0.3009 -0.3249  0.0958
  171MOL0     C22983   0.395  10.088   7.898 -0.0034  0.3684  0.8850
  171MOL0     C22984   0.256  10.096   7.873 -0.1340 -0.1814  0.2223
  171MOL0     C22985   0.200  10.104   7.743 -1.2803 -0.8530 -0.1109
  171MOL0     O22986   0.064  10.101   7.712  0.3507 -0.5696 -0.2247
  171MOL0     C22987  -0.002  10.225   7.737 -0.3155 -0.5001  0.4201
  171MOL0     C22988  -0.142  10.218   7.672  0.1096 -0.7513 -0.0836
  171MOL0     C22989  -0.225  10.351   7.706  0.6068  0.4854 -0.8078
  171MOL0     C22990  -0.363  10.343   7.637 -0.0179  0.4032  0.1030
  171MOL0     C22991  -0.476  10.265   7.718 -0.9534 -0.0171  0.0844
  171MOL0     C22992  -0.599  10.252   7.631  0.6106  0.1031 -0.3897
  171MOL0     C22993  -0.692  10.145   7.687  0.2059  0.2388 -0.2981
  171MOL0     C22994  -0.817  10.128   7.591  0.7684  0.0555 -1.5775
  171MOL0    Cl22995  -0.903  10.286   7.626 -0.0008  0.0686 -0.1941
  171MOL0     C22996   0.303  10.108   7.643  0.4184  0.3909  0.0449
  171MOL0     C22997   0.442  10.116   7.668  0.3424 -0.2521  0.6637
  171MOL0     O22998   0.604  10.221   8.017  0.1966 -0.2574 -0.1751
  171MOL0     C22999   0.891  10.188   7.796 -0.3568 -0.2189 -0.5171
  171MOL0     C23000   1.024  10.189   7.794  0.3294  0.0376  0.4891
  171MOL0     N23001   1.492   9.648   8.090  0.2465 -0.1278 -0.2322
  171MOL0     N23002   1.591   9.580   8.119 -0.0389  0.0173 -0.1852
  171MOL0     C23003   2.707   9.351   7.872 -0.4868 -0.3986 -0.3699
  171MOL0     C23004   2.838   9.388   7.840  0.4170 -0.1621  0.9157
  171MOL0     C23005   3.276   9.378   7.816  0.1584  0.0892 -0.6682
  171MOL0     C23006   3.387   9.349   7.907 -0.0925 -0.7516 -0.5905
  171MOL0     C23007   3.520   9.380   7.879 -0.9360  1.2098 -0.2022
  171MOL0     C23008   3.543   9.460   7.766 -0.4108  0.1020  0.3545
  171MOL0     O23009   3.660   9.496   7.710  0.8808 -0.4693  0.5174
  171MOL0     C23010   3.788   9.442   7.747 -0.0525 -0.3182 -0.0893
  171MOL0     C23011   3.804   9.295   7.714 -0.2052 -0.1507  0.4401
  171MOL0     C23012   3.947   9.243   7.707 -1.0283  0.1431  0.0831
  171MOL0     C23013   3.957   9.106   7.640  0.0645 -0.8347  0.0923
  171MOL0     C23014   3.918   9.102   7.497  0.4506  0.8500  0.8335
  171MOL0     C23015   3.885   9.089   7.376  0.2554  0.1452  0.0850
  171MOL0     C23016   3.439   9.510   7.688  0.1461 -0.0021  1.1278
  171MOL0     C23017   3.308   9.459   7.708  0.8704 -0.3217  0.3106
  171MOL0     H23018   2.921   9.168   7.597  0.8561  1.6984 -1.4884
  171MOL0     H23019   2.655   9.126   7.626 -2.3091  0.3298  1.0721
  171MOL0     H23020   2.424   9.110   7.668  0.5012  1.3257 -0.0613
  171MOL0     H23021   2.509   9.012   7.794 -0.3233  0.4823  0.4530
  171MOL0     H23022   2.265   9.013   7.837 -1.3253  0.2256  0.7427
  171MOL0     H23023   2.356   9.084   7.965  0.6384 -3.5658 -0.3445
  171MOL0     H23024   2.280   9.286   7.747 -0.5845  0.7447 -0.0923
  171MOL0     H23025   2.140   9.183   7.803  0.9982  1.1360 -1.4886
  171MOL0     H23026   2.180   9.264   8.041  0.1718  2.6142  2.0411
  171MOL0     H23027   2.310   9.360   7.974  0.3493 -0.4593 -0.3741
  171MOL0     H23028   2.118   9.505   7.984  1.2918 -1.3674  0.2958
  171MOL0     H23029   2.122   9.463   7.816 -1.0034  1.6406  0.6037
  171MOL0     H23030   1.962   9.304   7.817 -1.8874  0.0823 -0.0599
  171MOL0     H23031   1.934   9.306   7.991 -0.5912 -2.1863 -1.1171
  171MOL0     H23032   1.897   9.558   7.822  0.1842 -1.0997 -0.2814
  171MOL0     H23033   1.774   9.431   7.836 -0.9747  2.2203 -2.0582
  171MOL0     H23034   1.898   9.602   8.055 -0.0221 -1.6516  1.0844
  171MOL0     H23035   1.812   9.454   8.094  2.3214 -0.3019 -0.7000
  171MOL0     H23036   1.679   9.732   7.837  2.6898 -0.4034  0.3754
  171MOL0     H23037   1.435   9.777   7.782  0.0057 -1.6873  0.2845
  171MOL0     H23038   1.315   9.760   7.905 -1.5008  4.6229 -1.9104
  171MOL0     H23039   1.376   9.991   7.812  2.2986  6.5681  0.8726
  171MOL0     H23040   1.517   9.986   7.921 -0.6959  0.6035  1.2602
  171MOL0     H23041   1.374   9.958   8.107  0.7147 -0.1327 -0.3481
  171MOL0     H23042   1.236   9.953   8.000  2.4162 -2.1453 -0.9103
  171MOL0     H23043   1.421  10.198   7.984  1.5032 -3.4281 -4.1679
  171MOL0     H23044   1.293  10.199   8.106  2.3777  1.2777  0.3818
  171MOL0     H23045   1.081  10.120   8.126 -1.7149  3.6248  0.9321
  171MOL0     H23046   0.769  10.142   8.206  0.4328 -0.2728  0.7741
  171MOL0     H23047   0.765   9.986   8.136 -2.8695  1.9395  0.6682
  171MOL0     H23048   0.918  10.037   8.224  0.9426 -0.6115 -1.8893
  171MOL0     H23049   0.424  10.082   8.003  0.5860 -1.7733  0.6483
  171MOL0     H23050   0.186  10.079   7.954 -0.6886  0.4812 -0.1049
  171MOL0     H23051  -0.021  10.235   7.845  1.3799 -0.9370  0.7789
  171MOL0     H23052   0.058  10.301   7.688 -1.4320 -0.1516 -0.4487
  171MOL0     H23053  -0.134  10.211   7.563  0.3980 -1.0399 -0.0442
  171MOL0     H23054  -0.201  10.129   7.697 -0.3790 -1.5229 -3.5411
  171MOL0     H23055  -0.172  10.441   7.673  1.3774  0.7363  1.0098
  171MOL0     H23056  -0.253  10.375   7.809  1.4474  1.0134 -0.6898
  171MOL0     H23057  -0.387  10.450   7.637  2.9106  1.1475 -1.0100
  171MOL0     H23058  -0.362  10.309   7.533 -0.4402  1.0512 -0.1253
  171MOL0     H23059  -0.496  10.309   7.816  0.9877  2.1644 -0.4087
  171MOL0     H23060  -0.433  10.165   7.729 -1.2240 -0.1824 -0.3241
  171MOL0     H23061  -0.651  10.347   7.640  0.6068  0.0875 -0.2460
  171MOL0     H23062  -0.568  10.223   7.530 -0.7626  0.3432 -0.9000
  171MOL0     H23063  -0.705  10.167   7.793  0.9939  0.4132 -0.2290
  171MOL0     H23064  -0.634  10.052   7.687 -1.5839 -0.9426  1.6788
  171MOL0     H23065  -0.872  10.040   7.626  1.0544 -0.1308 -1.5982
  171MOL0     H23066  -0.790  10.107   7.488  0.2405 -2.5218 -1.2475
  171MOL0     H23067   0.264  10.129   7.543  1.9510  0.3044 -0.6026
  171MOL0     H23068   0.510  10.135   7.586  0.9802 -1.4376  0.8978
  171MOL0     H23069   0.825  10.194   7.710  0.3149 -0.6451 -1.0677
  171MOL0     H23070   1.070  10.218   7.700 -1.0815  2.1382  0.4113
  171MOL0     H23071   2.656   9.394   7.957 -2.2198  0.5265 -1.8086
  171MOL0     H23072   2.886   9.472   7.889  0.1530 -0.8581  2.4345
  171MOL0     H23073   3.374   9.291   7.998  0.3015  2.6071  1.8035
  171MOL0     H23074   3.594   9.342   7.948 -2.2272  0.7039  0.9587
  171MOL0     H23075   3.867   9.492   7.691  1.2690 -2.0334  0.1735
  171MOL0     H23076   3.811   9.461   7.853  2.4350  0.6811 -0.7362
  171MOL0     H23077   3.752   9.290   7.617 -2.0557 -0.6604  1.4167
  171MOL0     H23078   3.750   9.230   7.783 -0.6944 -0.9742 -0.6920
  171MOL0     H23079   3.985   9.225   7.808 -0.6239 -1.4477 -0.3197
  171MOL0     H23080   4.009   9.319   7.659  3.1473  1.0653  5.9375
  171MOL0     H23081   3.888   9.042   7.696 -1.3280  0.9530  0.4832
  171MOL0     H23082   4.057   9.064   7.657  1.6792  3.0460  1.3626
  171MOL0     H23083   3.855   9.072   7.275  2.6979 -0.4962 -0.6082
  171MOL0     H23084   3.464   9.563   7.597  3.1298 -2.2246  0.4740
  171MOL0     H23085   3.239   9.482   7.628  2.4828  1.7895 -0.5759
  172MOL0     O23086  10.426   6.280   7.132  0.2403  0.1043  0.4923
  172MOL0     C23087  10.439   6.350   7.228  0.4152  0.0660 -0.5482
  172MOL0     O23088  10.334   6.401   7.302 -0.3747 -0.4885 -0.4981
  172MOL0     C23089  10.205   6.358   7.272  0.4057 -0.0702 -0.7510
  172MOL0     C23090  10.140   6.281   7.371 -0.2963 -0.2023 -0.1144
  172MOL0     C23091  10.008   6.219   7.346 -0.1414 -0.1755  0.4958
  172MOL0     C23092   9.937   6.247   7.225 -0.3208 -0.5472  0.8930
  172MOL0     O23093   9.810   6.203   7.197  0.1250  0.6355 -0.2284
  172MOL0     C23094   9.756   6.094   7.281 -0.6223 -0.4764 -0.7760
  172MOL0     C23095   9.638   6.028   7.208 -0.1989 -0.2862 -0.1558
  172MOL0     C23096   9.557   5.932   7.292  0.0110 -0.1474  0.1813
  172MOL0     C23097   9.449   6.019   7.381  0.2700  0.5277 -0.4635
  172MOL0     C23098   9.372   5.929   7.473  0.2785  0.3327  0.2669
  172MOL0     C23099   9.309   6.020   7.588 -0.7927 -0.7871 -0.2226
  172MOL0     C23100   9.228   6.142   7.532 -0.0670  0.1278  0.2219
  172MOL0     C23101   9.113   6.103   7.434 -0.0341  0.2826 -0.9822
  172MOL0     N23102   9.011   6.030   7.506 -0.2144  0.1262 -0.5305
  172MOL0     C23103   8.893   6.075   7.559 -0.5713 -0.0039 -0.1345
  172MOL0     C23104   8.817   5.961   7.577 -0.3038 -0.6574 -0.6277
  172MOL0     C23105   8.681   5.945   7.645 -0.5279 -0.1504  0.1653
  172MOL0     C23106   8.575   5.997   7.546 -0.5564  0.4573 -0.5157
  172MOL0     C23107   8.554   5.903   7.420 -0.5113  0.0303  0.4799
  172MOL0     C23108   8.490   5.765   7.450  0.5103  0.0705 -0.0717
  172MOL0     O23109   8.347   5.773   7.436  0.6476 -0.1968  0.5762
  172MOL0     C23110   8.269   5.670   7.482  0.0326 -0.1972 -0.4902
  172MOL0     C23111   8.321   5.555   7.543 -0.1646 -0.9228 -0.9249
  172MOL0     C23112   8.233   5.460   7.591  0.7170 -0.7958  0.0706
  172MOL0     C23113   8.291   5.344   7.663 -0.5811  0.1541 -0.2523
  172MOL0     C23114   8.091   5.479   7.569  0.8813  0.2966 -0.7330
  172MOL0     C23115   7.991   5.369   7.596  0.2361 -0.1642 -0.4975
  172MOL0     O23116   7.863   5.421   7.626 -0.0466 -0.5879  0.4567
  172MOL0     C23117   7.742   5.348   7.623  0.3488  0.9158 -0.7799
  172MOL0     C23118   7.682   5.344   7.750  0.3092 -0.0852  0.9110
  172MOL0     C23119   7.568   5.273   7.775 -0.0965  0.0572  0.1639
  172MOL0     C23120   7.510   5.197   7.671  0.8121  0.4814  1.0079
  172MOL0     O23121   7.396   5.117   7.692 -0.1573 -0.3957 -0.0706
  172MOL0     C23122   7.281   5.182   7.752 -0.1882 -0.5988  0.7080
  172MOL0     C23123   7.191   5.071   7.820 -0.3070  0.0136 -0.2831
  172MOL0     C23124   7.254   5.001   7.942  0.5558  0.3979 -0.0856
  172MOL0     C23125   7.188   4.869   7.979  0.3007  0.0266 -0.4038
  172MOL0     C23126   7.039   4.878   7.999  1.3351  0.1959  0.4772
  172MOL0     C23127   6.990   4.750   8.069  0.2648  0.2821  0.5429
  172MOL0     C23128   6.841   4.761   8.102 -0.2162  0.8770  0.6627
  172MOL0     C23129   6.788   4.698   8.231  0.4925  0.5112  0.3763
  172MOL0    Cl23130   6.786   4.516   8.229 -0.1109 -0.4255  0.1818
  172MOL0     C23131   7.575   5.190   7.548 -0.4355  0.5758  0.6980
  172MOL0     C23132   7.694   5.256   7.523  0.3893 -1.1103 -0.3740
  172MOL0     O23133   8.011   5.250   7.600 -0.5684  0.8045  0.0423
  172MOL0     C23134   8.037   5.599   7.510 -0.6453 -0.4291 -0.2021
  172MOL0     C23135   8.127   5.697   7.464 -0.8298 -0.6887 -0.7551
  172MOL0     N23136   8.891   5.857   7.526 -0.2241  0.6738  0.5103
  172MOL0     N23137   9.001   5.895   7.477 -0.6848 -0.1047 -0.1943
  172MOL0     C23138  10.003   6.339   7.138  0.4326  0.0810 -0.4876
  172MOL0     C23139  10.127   6.398   7.161 -0.2233  0.2411 -0.3038
  172MOL0     C23140  10.576   6.370   7.273 -0.7883 -0.2430  0.4516
  172MOL0     C23141  10.687   6.286   7.237  0.2778 -0.1453  0.5314
  172MOL0     C23142  10.820   6.311   7.273 -0.3683  0.5500  0.5454
  172MOL0     C23143  10.850   6.416   7.357  0.5206  0.5770  0.4133
  172MOL0     O23144  10.978   6.443   7.397 -0.4049 -0.1792 -1.0398
  172MOL0     C23145  10.991   6.463   7.544 -1.2329  0.7723 -0.2321
  172MOL0     C23146  11.146   6.447   7.570  0.7730  0.9378  0.3345
  172MOL0     C23147  11.176   6.468   7.723 -0.6952  0.2003  1.1799
  172MOL0     C23148  11.322   6.450   7.752  0.1922 -0.1417 -0.1548
  172MOL0     C23149  11.369   6.563   7.839 -1.0809  0.7411  0.6098
  172MOL0     C23150  11.398   6.657   7.911  0.0821 -0.9432 -0.1119
  172MOL0     C23151  10.745   6.496   7.395  0.2011 -0.4651  0.9907
  172MOL0     C23152  10.614   6.474   7.357  0.0162 -0.1713 -0.1673
  172MOL0     H23153  10.193   6.245   7.459 -1.0987  0.7579  0.7850
  172MOL0     H23154   9.960   6.160   7.423  0.0459  1.8326  2.2352
  172MOL0     H23155   9.837   6.020   7.283 -0.3535 -0.1795 -0.5441
  172MOL0     H23156   9.723   6.133   7.378 -4.2528  0.6698 -2.2736
  172MOL0     H23157   9.569   6.111   7.185  0.0559  0.2223  0.8729
  172MOL0     H23158   9.668   5.992   7.109 -0.5031 -0.8652 -0.0377
  172MOL0     H23159   9.506   5.863   7.224  1.8299 -0.1383 -1.2733
  172MOL0     H23160   9.616   5.863   7.352  0.9208 -0.9533 -1.5664
  172MOL0     H23161   9.505   6.089   7.444  0.1501  0.6976 -0.5452
  172MOL0     H23162   9.384   6.081   7.319 -2.2139  0.2361  1.6622
  172MOL0     H23163   9.294   5.877   7.416 -2.2780  1.5379  2.4188
  172MOL0     H23164   9.436   5.862   7.531 -0.2438  0.7687  1.3771
  172MOL0     H23165   9.250   5.961   7.659  0.1917 -0.0174  1.2863
  172MOL0     H23166   9.386   6.063   7.652 -0.5995 -2.3546  0.6402
  172MOL0     H23167   9.177   6.195   7.613  0.9385  0.4508  0.6655
  172MOL0     H23168   9.304   6.205   7.484  1.9986 -1.4798  1.1731
  172MOL0     H23169   9.153   6.043   7.351 -1.8011 -0.8565 -1.0586
  172MOL0     H23170   9.072   6.196   7.394 -0.1701  1.1151  1.0175
  172MOL0     H23171   8.865   6.176   7.586  1.2035  0.4076  0.2735
  172MOL0     H23172   8.654   5.840   7.664  2.7239 -1.4744 -1.6113
  172MOL0     H23173   8.685   5.991   7.744 -2.1571 -0.8040  0.5576
  172MOL0     H23174   8.589   6.103   7.523  1.2023 -0.3757 -3.9507
  172MOL0     H23175   8.482   5.980   7.600  0.4262 -2.8660  0.3666
  172MOL0     H23176   8.648   5.907   7.364 -0.4425 -0.7023  0.5376
  172MOL0     H23177   8.493   5.952   7.343  0.6751 -1.1121 -1.2727
  172MOL0     H23178   8.522   5.730   7.549 -0.5460 -1.0284 -0.1051
  172MOL0     H23179   8.524   5.691   7.377 -2.7307 -0.8993 -0.7390
  172MOL0     H23180   8.428   5.537   7.545  0.1640  0.9218  0.7238
  172MOL0     H23181   8.249   5.246   7.639 -1.0039  0.2232  0.1990
  172MOL0     H23182   8.400   5.342   7.648 -0.8501 -1.2687 -2.5684
  172MOL0     H23183   8.281   5.360   7.770  0.5215  1.1279 -0.2657
  172MOL0     H23184   7.713   5.404   7.836  1.3410 -0.0117  0.5104
  172MOL0     H23185   7.522   5.276   7.873  0.9778  1.0487  0.6619
  172MOL0     H23186   7.315   5.254   7.828  0.8816 -0.8490  0.4876
  172MOL0     H23187   7.225   5.236   7.676 -0.0074  1.9940  2.2734
  172MOL0     H23188   7.109   5.134   7.856  1.1453  2.2848 -0.7755
  172MOL0     H23189   7.162   4.993   7.750 -3.3943 -0.4029  1.2593
  172MOL0     H23190   7.256   5.066   8.030  2.1245  2.9976 -1.9140
  172MOL0     H23191   7.357   4.973   7.920  0.0824 -1.6480  0.0557
  172MOL0     H23192   7.214   4.806   7.893  1.6261 -0.1251  0.0957
  172MOL0     H23193   7.236   4.830   8.069  2.0335 -1.4269 -1.8852
  172MOL0     H23194   6.981   4.888   7.907  0.0454 -0.2338  1.2251
  172MOL0     H23195   7.015   4.967   8.058  0.5042  0.2522  0.0677
  172MOL0     H23196   7.021   4.665   8.007 -4.3378 -2.9017  2.0942
  172MOL0     H23197   7.040   4.746   8.166 -0.6804  0.7811  1.0564
  172MOL0     H23198   6.787   4.723   8.015  2.4619 -0.9964 -0.2915
  172MOL0     H23199   6.814   4.867   8.104 -1.1626  0.6925 -0.9057
  172MOL0     H23200   6.683   4.730   8.234  1.1851  2.9232  1.5236
  172MOL0     H23201   6.838   4.731   8.322  1.5108  1.9752 -0.6695
  172MOL0     H23202   7.529   5.116   7.484 -1.4033 -0.5145  2.5566
  172MOL0     H23203   7.753   5.244   7.433  0.1806 -0.7510 -0.5624
  172MOL0     H23204   7.932   5.626   7.509  0.0171  2.5779 -1.1066
  172MOL0     H23205   8.085   5.793   7.436  0.4517 -0.4109 -1.7930
  172MOL0     H23206   9.951   6.373   7.049 -0.7392  3.2845  1.2535
  172MOL0     H23207  10.183   6.460   7.091 -0.8910 -0.0768 -1.1355
  172MOL0     H23208  10.668   6.197   7.179 -3.2741  0.5541  0.3955
  172MOL0     H23209  10.897   6.242   7.240 -0.7314 -0.7398  2.2799
  172MOL0     H23210  10.953   6.554   7.590 -2.4383 -0.4954  1.4012
  172MOL0     H23211  10.946   6.376   7.593 -1.0839 -0.1577 -1.6790
  172MOL0     H23212  11.206   6.516   7.511 -1.4983  3.2718  0.5579
  172MOL0     H23213  11.172   6.342   7.554  0.0123  0.8780 -0.6192
  172MOL0     H23214  11.125   6.396   7.788  0.4877 -1.8753 -0.0913
  172MOL0     H23215  11.146   6.572   7.741  2.4113  1.4418 -0.0829
  172MOL0     H23216  11.366   6.443   7.652 -1.6020  0.0160 -0.9973
  172MOL0     H23217  11.350   6.356   7.800 -1.4424 -0.8489 -0.5053
  172MOL0     H23218  11.421   6.737   7.978  0.2919 -1.3069  0.2498
  172MOL0     H23219  10.755   6.589   7.450  3.0178 -0.5995  0.8162
  172MOL0     H23220  10.543   6.537   7.409  1.5664  0.6301  1.0691
  173MOL0     O23221   2.669   7.480   2.804 -0.0415  0.2821  0.1416
  173MOL0     C23222   2.679   7.455   2.686 -0.0101 -0.4178  0.4110
  173MOL0     O23223   2.584   7.400   2.604 -0.6880 -0.1671 -0.2477
  173MOL0     C23224   2.464   7.367   2.661  0.2962  0.0385 -0.0518
  173MOL0     C23225   2.453   7.288   2.773  0.2014  0.1955  0.3042
  173MOL0     C23226   2.328   7.259   2.824  0.6736 -0.4415 -0.0168
  173MOL0     C23227   2.213   7.307   2.766 -0.1496  0.0699 -0.9622
  173MOL0     O23228   2.097   7.265   2.828 -0.1877  0.1059 -0.1841
  173MOL0     C23229   1.993   7.221   2.740  0.1210  0.6389  0.2381
  173MOL0     C23230   1.918   7.107   2.801  0.1483  0.6634 -0.7812
  173MOL0     C23231   1.802   7.056   2.712 -0.7622 -0.1635 -0.4839
  173MOL0     C23232   1.749   6.929   2.777  0.0489 -0.5182 -0.2701
  173MOL0     C23233   1.654   6.851   2.677 -0.2161  0.6374  0.1818
  173MOL0     C23234   1.521   6.930   2.654  0.9747 -0.4991  0.5750
  173MOL0     C23235   1.418   6.858   2.557  0.2037 -0.2067 -0.5175
  173MOL0     C23236   1.284   6.939   2.562 -0.5253  0.0263  0.1537
  173MOL0     N23237   1.192   6.878   2.470 -0.7707  0.1083 -0.1247
  173MOL0     C23238   1.072   6.820   2.502 -1.0507 -0.5437 -0.3389
  173MOL0     C23239   1.018   6.798   2.383  0.7473 -0.2039  0.0226
  173MOL0     C23240   0.874   6.761   2.367 -0.6565 -1.0672 -1.1180
  173MOL0     C23241   0.811   6.898   2.322 -1.1992 -0.2114  0.5505
  173MOL0     C23242   0.659   6.871   2.315  0.8350  0.1615 -0.3199
  173MOL0     C23243   0.575   6.893   2.435 -0.9310 -0.0042 -0.9890
  173MOL0     O23244   0.517   7.021   2.457  0.2694  0.4332  0.4683
  173MOL0     C23245   0.393   7.054   2.413 -0.2456  0.9165  0.4132
  173MOL0     C23246   0.313   6.987   2.313  0.5355 -0.0367 -0.2542
  173MOL0     C23247   0.180   7.027   2.281 -0.3937 -0.1408 -1.1035
  173MOL0     C23248   0.115   6.959   2.161 -0.1845  0.1033  0.2341
  173MOL0     C23249   0.128   7.141   2.354  0.4085  0.0892 -0.1783
  173MOL0     C23250  -0.012   7.186   2.340  1.1694  0.1446  0.3955
  173MOL0     O23251  -0.040   7.312   2.377 -1.3338  0.2422  0.3036
  173MOL0     C23252  -0.167   7.335   2.385  0.0249 -0.6688  0.7646
  173MOL0     C23253  -0.235   7.322   2.507 -0.7513 -1.1132  0.4161
  173MOL0     C23254  -0.369   7.367   2.508 -0.6381  0.2363 -0.1753
  173MOL0     C23255  -0.436   7.410   2.396  0.4088  0.7897 -0.1853
  173MOL0     O23256  -0.570   7.447   2.412  0.0826 -0.0880  0.2185
  173MOL0     C23257  -0.638   7.502   2.297  0.2315 -0.1665 -0.1701
  173MOL0     C23258  -0.785   7.512   2.335 -0.7507  0.5694 -0.3576
  173MOL0     C23259  -0.876   7.535   2.219  0.1010 -0.3053 -0.1470
  173MOL0     C23260  -1.019   7.555   2.270  0.7379 -0.6648  0.3943
  173MOL0     C23261  -1.119   7.572   2.160 -0.6301  1.2567  0.4743
  173MOL0     C23262  -1.254   7.498   2.176 -0.6794  0.2227 -0.3084
  173MOL0     C23263  -1.328   7.560   2.290 -0.0039  0.2427  0.2154
  173MOL0     C23264  -1.468   7.507   2.306  0.3317  0.9222  0.6315
  173MOL0    Cl23265  -1.584   7.539   2.169 -0.0124  0.2144  0.0537
  173MOL0     C23266  -0.370   7.408   2.276 -0.1410 -1.2320 -0.4309
  173MOL0     C23267  -0.231   7.367   2.268  0.6576 -0.9022  0.1894
  173MOL0     O23268  -0.098   7.094   2.319 -0.4939  0.5102 -0.3953
  173MOL0     C23269   0.212   7.212   2.445  0.2343  0.6664 -0.6309
  173MOL0     C23270   0.341   7.168   2.472 -0.1211  0.5418 -0.6231
  173MOL0     N23271   1.097   6.848   2.281  0.1830  0.5457 -0.4718
  173MOL0     N23272   1.197   6.907   2.337 -0.3229 -0.6850  0.3741
  173MOL0     C23273   2.223   7.399   2.663  0.1701  0.0186  0.8591
  173MOL0     C23274   2.343   7.424   2.609  0.0845  0.0338  0.2966
  173MOL0     C23275   2.806   7.492   2.623  0.1310 -0.1161  0.4218
  173MOL0     C23276   2.826   7.474   2.486 -0.2583  0.7932 -0.6407
  173MOL0     C23277   2.946   7.513   2.432  0.2383  0.1419  0.6662
  173MOL0     C23278   3.044   7.585   2.494 -0.5780 -0.2171 -0.9046
  173MOL0     O23279   3.153   7.623   2.424 -0.4657 -0.5739  0.1746
  173MOL0     C23280   3.256   7.701   2.493 -0.4492 -0.4572  0.7204
  173MOL0     C23281   3.359   7.732   2.387  0.5604  0.2079 -0.4726
  173MOL0     C23282   3.434   7.861   2.431 -0.2409 -0.0685  1.0816
  173MOL0     C23283   3.345   7.977   2.379 -0.1057  0.5550  0.5949
  173MOL0     C23284   3.412   8.102   2.384  0.3324 -0.5688 -0.3123
  173MOL0     C23285   3.469   8.216   2.397 -0.1633  0.4470 -0.1072
  173MOL0     C23286   3.019   7.601   2.633 -0.5125 -0.6555 -1.0862
  173MOL0     C23287   2.906   7.555   2.693 -0.6269 -0.4188  0.4651
  173MOL0     H23288   2.539   7.251   2.828  0.3819  0.3015  0.0933
  173MOL0     H23289   2.317   7.196   2.911  1.5503 -1.4373 -0.6115
  173MOL0     H23290   1.926   7.306   2.722  2.3985  1.8969 -3.8050
  173MOL0     H23291   2.023   7.192   2.639 -3.4255 -0.3255 -0.6789
  173MOL0     H23292   1.987   7.025   2.826 -2.3160 -0.9235  1.3803
  173MOL0     H23293   1.872   7.136   2.896 -0.1984  1.4160 -1.1736
  173MOL0     H23294   1.726   7.135   2.706  1.2785  1.9989  0.4909
  173MOL0     H23295   1.840   7.042   2.610  1.6564  0.2274  0.2919
  173MOL0     H23296   1.825   6.857   2.808 -2.2548 -3.1398 -0.2137
  173MOL0     H23297   1.700   6.957   2.871 -0.0833  0.2366 -0.5576
  173MOL0     H23298   1.703   6.828   2.582 -0.3568  1.7923 -0.1819
  173MOL0     H23299   1.629   6.760   2.733  0.2443  1.1290  1.2201
  173MOL0     H23300   1.472   6.932   2.752 -0.5735 -1.8222 -0.1201
  173MOL0     H23301   1.544   7.031   2.618 -0.5443 -0.4898 -0.4614
  173MOL0     H23302   1.457   6.846   2.456  0.4990 -0.3326 -0.3914
  173MOL0     H23303   1.391   6.761   2.602 -3.6574  1.2448  0.7510
  173MOL0     H23304   1.294   7.040   2.521 -0.4180 -0.7053 -1.7017
  173MOL0     H23305   1.242   6.945   2.663 -1.1575  2.7768 -0.1816
  173MOL0     H23306   1.034   6.806   2.603 -2.6023 -0.5420 -0.8952
  173MOL0     H23307   0.860   6.689   2.285  0.6430  1.6119 -3.8884
  173MOL0     H23308   0.828   6.718   2.456  2.4826 -0.9689  0.7002
  173MOL0     H23309   0.859   6.909   2.224 -2.1342 -1.3008 -0.0507
  173MOL0     H23310   0.834   6.988   2.381  3.7595 -1.2220  0.5630
  173MOL0     H23311   0.636   6.772   2.275  0.2181  1.9934 -5.1787
  173MOL0     H23312   0.626   6.930   2.229 -1.3339  0.4825  0.6851
  173MOL0     H23313   0.638   6.865   2.520 -0.6822  1.0280 -0.8116
  173MOL0     H23314   0.500   6.814   2.425  2.0969 -3.3651  0.6811
  173MOL0     H23315   0.348   6.902   2.255 -1.3024  0.7951 -2.7625
  173MOL0     H23316   0.176   6.880   2.115 -2.2173 -0.5097 -1.5593
  173MOL0     H23317   0.019   6.915   2.187  0.0669 -1.8573 -1.8340
  173MOL0     H23318   0.090   7.030   2.082  0.5128 -3.0409 -3.0817
  173MOL0     H23319  -0.187   7.298   2.601  0.9328 -0.0570 -0.1261
  173MOL0     H23320  -0.430   7.350   2.596 -3.5069  0.7653 -1.9298
  173MOL0     H23321  -0.598   7.603   2.281  2.2505 -0.9694 -0.4451
  173MOL0     H23322  -0.627   7.437   2.210  2.1424 -0.5355  0.3022
  173MOL0     H23323  -0.818   7.418   2.380 -0.6181  0.8872  0.4053
  173MOL0     H23324  -0.795   7.596   2.405  1.7975  3.6059 -3.2706
  173MOL0     H23325  -0.876   7.461   2.139 -0.5276 -0.7352  0.2435
  173MOL0     H23326  -0.836   7.624   2.169  2.0950 -0.2789  1.3396
  173MOL0     H23327  -1.042   7.463   2.325  2.7134 -0.9129  0.8928
  173MOL0     H23328  -1.025   7.634   2.345 -0.2409 -0.7265  0.3918
  173MOL0     H23329  -1.080   7.538   2.063 -2.0924  1.7484 -0.3229
  173MOL0     H23330  -1.129   7.679   2.139  2.2145  1.1733 -2.0202
  173MOL0     H23331  -1.316   7.509   2.087 -1.0379 -0.5625 -0.1589
  173MOL0     H23332  -1.237   7.392   2.195 -0.4249 -0.2175 -2.7577
  173MOL0     H23333  -1.331   7.669   2.277  0.0600 -0.0337 -2.5913
  173MOL0     H23334  -1.266   7.546   2.379  5.0458  2.3804 -2.5948
  173MOL0     H23335  -1.515   7.534   2.401  2.0180 -2.6268  2.7136
  173MOL0     H23336  -1.455   7.398   2.301 -0.9505  0.6519  2.4553
  173MOL0     H23337  -0.418   7.436   2.183  0.2549  0.5311 -0.1453
  173MOL0     H23338  -0.184   7.355   2.171 -0.7065  0.5549 -0.7037
  173MOL0     H23339   0.166   7.284   2.512  1.3577  0.3468  0.5035
  173MOL0     H23340   0.392   7.215   2.555  0.1018  1.1780 -1.1079
  173MOL0     H23341   2.133   7.428   2.610  1.1289 -0.1505 -0.9579
  173MOL0     H23342   2.349   7.491   2.524  0.9801  0.5896  0.7877
  173MOL0     H23343   2.752   7.432   2.419  0.2077 -0.7544 -0.2204
  173MOL0     H23344   2.954   7.487   2.327 -0.6003  0.5025  0.5083
  173MOL0     H23345   3.209   7.791   2.533  1.3762  1.2480 -0.7974
  173MOL0     H23346   3.306   7.646   2.574 -0.7249 -0.7730  0.6798
  173MOL0     H23347   3.313   7.745   2.289 -0.6355 -1.6191 -0.2139
  173MOL0     H23348   3.425   7.645   2.383 -3.2213 -2.9446 -1.1553
  173MOL0     H23349   3.530   7.873   2.379  0.2027  0.5121  2.0018
  173MOL0     H23350   3.466   7.862   2.536 -0.7238  3.5813  1.2992
  173MOL0     H23351   3.257   7.986   2.444  1.9649  1.3465  3.4718
  173MOL0     H23352   3.324   7.954   2.274  0.3384 -1.7431  0.9512
  173MOL0     H23353   3.532   8.303   2.399 -0.6543  0.8024  1.0977
  173MOL0     H23354   3.085   7.663   2.694 -0.3695  0.0904 -1.9705
  173MOL0     H23355   2.879   7.578   2.795 -0.6503  0.2595  0.3108
  174MOL0     O23356   8.633   5.481  10.190 -0.4565 -0.0520  0.0680
  174MOL0     C23357   8.698   5.558  10.263  0.9086 -0.6528  0.6634
  174MOL0     O23358   8.653   5.674  10.312  0.0467  0.3022 -0.0229
  174MOL0     C23359   8.523   5.728  10.297 -0.7188 -0.4351 -0.4457
  174MOL0     C23360   8.461   5.798  10.409 -0.1275 -0.1130  0.8694
  174MOL0     C23361   8.343   5.867  10.396 -0.9680 -0.9086  0.2778
  174MOL0     C23362   8.266   5.858  10.279 -0.6066  0.4681 -0.3471
  174MOL0     O23363   8.140   5.914  10.266 -0.0935  0.2228  0.0171
  174MOL0     C23364   8.054   5.884  10.156 -0.4229 -0.3693 -0.3513
  174MOL0     C23365   7.924   5.980  10.154 -0.0555 -0.4850  0.1401
  174MOL0     C23366   7.946   6.122  10.203  0.0758  0.6322 -0.4266
  174MOL0     C23367   7.824   6.216  10.157 -0.3203  0.3553  0.2334
  174MOL0     C23368   7.854   6.370  10.186  0.4629  0.2005  0.8508
  174MOL0     C23369   7.756   6.465  10.127  1.5899 -0.1219  0.4303
  174MOL0     C23370   7.810   6.595  10.090 -0.8679  0.2107  0.9266
  174MOL0     C23371   7.863   6.691  10.196  0.3778  0.4859  1.0647
  174MOL0     N23372   7.757   6.785  10.250  0.3356  0.9831 -0.4665
  174MOL0     C23373   7.618   6.780  10.225 -0.3657 -0.1140 -0.7371
  174MOL0     C23374   7.570   6.897  10.285  0.6176 -0.5413 -0.8062
  174MOL0     C23375   7.422   6.939  10.295  0.7776 -0.6753 -0.0041
  174MOL0     C23376   7.390   7.021  10.166 -0.1815  0.1070  0.2829
  174MOL0     C23377   7.274   7.107  10.168  0.5743 -0.1473  0.1036
  174MOL0     C23378   7.147   7.032  10.198 -0.0470  0.2076  0.3510
  174MOL0     O23379   7.040   7.118  10.168 -0.7184 -0.4854  0.0121
  174MOL0     C23380   6.908   7.083  10.193  0.5146 -0.3920 -0.1527
  174MOL0     C23381   6.867   6.954  10.243 -0.1211 -0.4469 -0.3024
  174MOL0     C23382   6.731   6.925  10.240 -0.6971 -0.1416  0.2040
  174MOL0     C23383   6.692   6.789  10.302  0.2428 -0.0611  0.5006
  174MOL0     C23384   6.636   7.010  10.185  0.4273 -0.2407  1.0578
  174MOL0     C23385   6.489   6.979  10.190  0.6463  0.4747 -0.2373
  174MOL0     O23386   6.400   7.084  10.179 -0.5254 -0.0638  0.4784
  174MOL0     C23387   6.267   7.067  10.167  0.1228 -0.4207  0.5145
  174MOL0     C23388   6.206   7.134  10.070 -0.3285 -0.3037  0.5518
  174MOL0     C23389   6.072   7.153  10.070  0.0704 -0.3784 -0.5604
  174MOL0     C23390   5.989   7.108  10.182 -0.1079 -0.5354  0.2530
  174MOL0     O23391   5.855   7.124  10.164  0.3496  1.0186 -0.0078
  174MOL0     C23392   5.774   7.015  10.223  0.0776  0.3880  0.3346
  174MOL0     C23393   5.623   7.048  10.210  0.6870  0.2687  0.4724
  174MOL0     C23394   5.572   7.102  10.077  0.5232  0.0634  0.6479
  174MOL0     C23395   5.417   7.100  10.092 -0.2188  1.1811 -0.1914
  174MOL0     C23396   5.358   7.154   9.963  0.8859 -0.6596 -0.3111
  174MOL0     C23397   5.203   7.147   9.965  0.6913  0.2037 -0.7868
  174MOL0     C23398   5.148   7.200   9.834 -0.1021 -0.0400  0.0509
  174MOL0     C23399   4.998   7.171   9.805  0.6445  0.3465  0.3100
  174MOL0    Cl23400   4.891   7.233   9.944 -0.1369 -0.0002  0.0808
  174MOL0     C23401   6.058   7.042  10.292  0.2272 -0.1685 -0.1847
  174MOL0     C23402   6.193   7.014  10.276 -0.4503  0.1764 -1.3510
  174MOL0     O23403   6.452   6.860  10.194  0.3599 -0.3493  0.6462
  174MOL0     C23404   6.678   7.138  10.148  0.1215 -0.4207 -1.1973
  174MOL0     C23405   6.810   7.177  10.148 -0.0828 -0.1963  0.3719
  174MOL0     N23406   7.681   6.964  10.336 -0.1613 -0.0139  0.0865
  174MOL0     N23407   7.789   6.896  10.305  0.8126 -1.3936 -0.4027
  174MOL0     C23408   8.325   5.787  10.172  0.5432 -0.2957 -1.0601
  174MOL0     C23409   8.449   5.723  10.185 -0.1332  0.5836  0.0274
  174MOL0     C23410   8.834   5.527  10.311  0.8848  0.6952 -0.5778
  174MOL0     C23411   8.907   5.612  10.394 -0.5506 -0.7920  0.0789
  174MOL0     C23412   9.034   5.591  10.434 -1.0015  0.1256  0.1192
  174MOL0     C23413   9.095   5.465  10.407  0.3476  0.0471  1.0959
  174MOL0     O23414   9.215   5.432  10.454 -0.1708 -0.1695  0.4213
  174MOL0     C23415   9.316   5.452  10.352 -0.5487 -0.2525 -0.0349
  174MOL0     C23416   9.455   5.474  10.416  0.2463 -0.2958 -0.6681
  174MOL0     C23417   9.516   5.357  10.491 -0.4202 -0.0047 -0.7475
  174MOL0     C23418   9.541   5.232  10.407  0.1715  0.0097 -0.3709
  174MOL0     C23419   9.620   5.132  10.485  0.9318 -0.3348 -0.1404
  174MOL0     C23420   9.677   5.051  10.545  0.4041  0.0958 -0.1190
  174MOL0     C23421   9.015   5.371  10.333 -0.3363 -0.2416  0.1892
  174MOL0     C23422   8.890   5.408  10.273 -0.0298  1.2958  0.3468
  174MOL0     H23423   8.514   5.813  10.502  0.5613  0.9956  0.3216
  174MOL0     H23424   8.308   5.928  10.478  2.6453  0.7771  0.7580
  174MOL0     H23425   8.107   5.915  10.065  0.8294  0.0754  0.4993
  174MOL0     H23426   8.029   5.778  10.143  0.4446 -0.4608 -1.4957
  174MOL0     H23427   7.887   5.980  10.051  0.5180 -2.8586 -0.1249
  174MOL0     H23428   7.843   5.934  10.211  1.0842 -2.6854  0.0988
  174MOL0     H23429   7.948   6.123  10.312  3.9546 -0.4918 -0.3482
  174MOL0     H23430   8.038   6.172  10.172 -1.4210  2.2611 -2.5252
  174MOL0     H23431   7.800   6.201  10.051  0.3374 -3.0761  0.4336
  174MOL0     H23432   7.732   6.184  10.205  0.0110 -1.1141 -0.0385
  174MOL0     H23433   7.869   6.395  10.291  2.2670  4.0429 -0.1708
  174MOL0     H23434   7.953   6.388  10.143 -0.2108 -1.1243 -1.4553
  174MOL0     H23435   7.716   6.418  10.037 -0.7293 -0.1488  1.4065
  174MOL0     H23436   7.679   6.475  10.204  0.6331  3.9655 -0.7890
  174MOL0     H23437   7.891   6.571  10.020 -1.0389 -6.4583  2.3519
  174MOL0     H23438   7.743   6.650  10.024  0.6160 -1.2929 -2.0043
  174MOL0     H23439   7.949   6.745  10.155  1.5440 -1.8630  0.2013
  174MOL0     H23440   7.907   6.643  10.284 -0.8607 -1.7250  0.5536
  174MOL0     H23441   7.571   6.694  10.177  1.9772 -1.0918 -1.4513
  174MOL0     H23442   7.360   6.849  10.301  0.4413 -0.4918 -0.6614
  174MOL0     H23443   7.402   6.991  10.389  1.2720 -0.4439 -0.0245
  174MOL0     H23444   7.385   6.948  10.084  2.4770 -0.2937  0.3694
  174MOL0     H23445   7.481   7.081  10.154 -1.5280  2.0134 -0.9850
  174MOL0     H23446   7.261   7.149  10.067  0.9323  0.9246  0.4834
  174MOL0     H23447   7.286   7.184  10.245 -2.2375  2.5180 -1.8373
  174MOL0     H23448   7.145   7.019  10.307 -3.5817  1.3555  0.5509
  174MOL0     H23449   7.148   6.947  10.129 -3.8310  1.7033 -1.8681
  174MOL0     H23450   6.934   6.883  10.291 -0.1105  1.4804  2.8093
  174MOL0     H23451   6.778   6.727  10.331 -0.5852 -1.4895 -0.0238
  174MOL0     H23452   6.630   6.807  10.391  1.1971  0.0452  1.1566
  174MOL0     H23453   6.644   6.720  10.232 -2.6932  0.4217  1.8752
  174MOL0     H23454   6.270   7.172   9.990 -0.1783 -0.8723  0.3934
  174MOL0     H23455   6.026   7.207   9.988 -2.6002  0.2090  1.2009
  174MOL0     H23456   5.789   6.929  10.157  3.4401  0.9282  0.2059
  174MOL0     H23457   5.799   6.979  10.323  0.8838 -0.9733 -0.3322
  174MOL0     H23458   5.572   6.954  10.234 -0.7996  0.7013 -0.8364
  174MOL0     H23459   5.599   7.120  10.289  0.8740 -0.1584  0.9206
  174MOL0     H23460   5.591   7.034   9.993 -0.3263 -1.2788  1.5047
  174MOL0     H23461   5.602   7.204  10.052  0.0002  0.1369  0.3027
  174MOL0     H23462   5.393   6.995  10.111  2.0534  0.8276  1.1140
  174MOL0     H23463   5.386   7.162  10.177  1.0465  0.4761  0.8170
  174MOL0     H23464   5.395   7.106   9.872  1.2964 -1.9185  0.4890
  174MOL0     H23465   5.393   7.257   9.965 -3.2965  1.0529 -2.7686
  174MOL0     H23466   5.169   7.044   9.977 -1.1632  0.9310  0.9566
  174MOL0     H23467   5.158   7.190  10.056 -0.8717 -1.6108 -0.6331
  174MOL0     H23468   5.212   7.165   9.753 -0.5497  0.9114 -0.7272
  174MOL0     H23469   5.162   7.308   9.848  1.1174 -0.4234  2.1928
  174MOL0     H23470   4.975   7.064   9.795  1.0936  0.3631 -1.1515
  174MOL0     H23471   4.975   7.217   9.709  1.1839 -1.4934 -0.7502
  174MOL0     H23472   5.997   7.028  10.381  0.1409  0.6933 -0.1038
  174MOL0     H23473   6.257   6.959  10.345 -0.6283  1.5921 -0.0036
  174MOL0     H23474   6.598   7.201  10.111  0.9458  2.7885  1.9216
  174MOL0     H23475   6.834   7.274  10.105 -1.5202 -0.6950 -1.7206
  174MOL0     H23476   8.272   5.779  10.077 -2.0151 -0.1113  0.2667
  174MOL0     H23477   8.471   5.654  10.104 -0.4755 -0.6711  0.9713
  174MOL0     H23478   8.870   5.711  10.422 -1.4567 -1.4465  1.2864
  174MOL0     H23479   9.100   5.660  10.486  0.0192  1.2642 -2.5312
  174MOL0     H23480   9.319   5.357  10.298  1.6435  0.3164 -1.0270
  174MOL0     H23481   9.304   5.529  10.276  0.9529  1.3936  1.2976
  174MOL0     H23482   9.451   5.560  10.483  0.4997 -0.1513 -0.8369
  174MOL0     H23483   9.529   5.507  10.343  0.1031  1.6072 -0.0043
  174MOL0     H23484   9.450   5.329  10.575  0.9349  1.6406  0.9621
  174MOL0     H23485   9.604   5.384  10.550 -1.2802  0.7257  0.2518
  174MOL0     H23486   9.616   5.267  10.335  0.1211  2.1871  0.5469
  174MOL0     H23487   9.451   5.188  10.364 -2.1048  0.1909  3.7404
  174MOL0     H23488   9.734   4.982  10.603 -0.4467 -1.7360 -1.3698
  174MOL0     H23489   9.053   5.271  10.315  0.5531 -0.4138  2.6866
  174MOL0     H23490   8.839   5.343  10.202  4.3744  0.0422 -2.0173
  175MOL0     O23491   5.948   8.691   9.171 -0.3153  0.3404 -0.1968
  175MOL0     C23492   6.024   8.597   9.207 -0.0158  0.2670  0.6750
  175MOL0     O23493   5.985   8.496   9.290  0.1028 -0.0492  0.0196
  175MOL0     C23494   5.876   8.516   9.371 -0.0878 -0.8241 -0.3807
  175MOL0     C23495   5.809   8.634   9.415  1.0885 -0.3480 -0.2932
  175MOL0     C23496   5.691   8.620   9.486 -0.1362 -0.8571  0.2371
  175MOL0     C23497   5.632   8.495   9.512 -0.2030  0.1311 -0.2713
  175MOL0     O23498   5.505   8.491   9.578 -0.0759  0.4197  0.1047
  175MOL0     C23499   5.445   8.361   9.617  0.5220 -0.4003  0.4587
  175MOL0     C23500   5.330   8.314   9.522 -0.3225 -0.6199  0.5087
  175MOL0     C23501   5.228   8.424   9.493  0.0474  0.0652  0.1603
  175MOL0     C23502   5.148   8.478   9.613  0.5316 -0.1750  0.6330
  175MOL0     C23503   5.048   8.589   9.564 -0.4003 -0.4703  0.0894
  175MOL0     C23504   4.925   8.539   9.490 -0.9653 -0.0195  0.8211
  175MOL0     C23505   4.814   8.506   9.595 -0.1563  0.6610  0.1600
  175MOL0     C23506   4.682   8.457   9.532  1.1499  0.8523  0.0363
  175MOL0     N23507   4.571   8.450   9.618  0.0802 -0.0944  0.1384
  175MOL0     C23508   4.563   8.401   9.743  0.4590  0.8632  0.2535
  175MOL0     C23509   4.433   8.408   9.776  0.7877  0.4200  0.0075
  175MOL0     C23510   4.391   8.383   9.919  0.2699 -0.5790 -0.2417
  175MOL0     C23511   4.235   8.383   9.921 -0.0775 -0.3469 -0.4224
  175MOL0     C23512   4.195   8.538   9.951 -0.2364 -0.4903  0.4357
  175MOL0     C23513   4.053   8.551   9.919  0.2765 -0.3945  0.0701
  175MOL0     O23514   3.973   8.469  10.009  0.1963  0.7111 -0.3632
  175MOL0     C23515   3.833   8.462   9.984 -0.2255  0.6293  0.3587
  175MOL0     C23516   3.767   8.364  10.060  0.0712  0.1551  0.7055
  175MOL0     C23517   3.634   8.341  10.053 -0.2521  0.5998 -0.4011
  175MOL0     C23518   3.591   8.215  10.117  0.2080  0.2725 -0.5844
  175MOL0     C23519   3.552   8.423   9.971  0.0375  0.3323  0.0522
  175MOL0     C23520   3.405   8.422   9.971 -0.5116  0.1195 -0.6005
  175MOL0     O23521   3.345   8.502   9.877  0.2660 -0.6138  0.2080
  175MOL0     C23522   3.215   8.462   9.852 -0.2841 -0.2339 -0.2710
  175MOL0     C23523   3.116   8.548   9.910  0.2876  0.2691 -0.6121
  175MOL0     C23524   2.980   8.523   9.878 -0.5191 -0.2630  0.4457
  175MOL0     C23525   2.950   8.412   9.791  0.0507 -1.0543  0.1435
  175MOL0     O23526   2.820   8.401   9.775  0.5299 -0.0404 -0.7540
  175MOL0     C23527   2.773   8.297   9.702  0.5437  0.5189  0.3516
  175MOL0     C23528   2.623   8.291   9.701  0.6282  0.3574 -0.2424
  175MOL0     C23529   2.571   8.186   9.598  0.3828 -0.5603  0.0883
  175MOL0     C23530   2.428   8.141   9.629  0.5986  0.5568  0.1843
  175MOL0     C23531   2.333   8.238   9.702  0.1267 -0.4758  0.2504
  175MOL0     C23532   2.208   8.182   9.764  0.0618 -0.2611 -0.1558
  175MOL0     C23533   2.124   8.286   9.827 -0.2877  0.6756  0.4935
  175MOL0     C23534   2.044   8.369   9.728  0.6154  0.0727 -0.0179
  175MOL0    Cl23535   1.918   8.276   9.638 -0.2477  0.2206  0.1103
  175MOL0     C23536   3.046   8.326   9.742  0.2730 -0.0730  0.9124
  175MOL0     C23537   3.179   8.355   9.769  0.2037  0.3374 -0.1948
  175MOL0     O23538   3.349   8.356  10.053 -0.0061  0.1802  0.2555
  175MOL0     C23539   3.618   8.521   9.892  0.1647 -0.2029 -1.0169
  175MOL0     C23540   3.757   8.537   9.899 -0.1572  0.4869  0.1340
  175MOL0     N23541   4.363   8.455   9.675  0.2359  0.8793  0.0179
  175MOL0     N23542   4.445   8.475   9.571  0.5978 -0.6323  0.1128
  175MOL0     C23543   5.698   8.379   9.458 -0.1313  0.0348  0.1802
  175MOL0     C23544   5.818   8.392   9.396 -0.3443 -0.1185  0.2855
  175MOL0     C23545   6.177   8.600   9.156  1.4577 -0.6497 -0.2235
  175MOL0     C23546   6.231   8.722   9.104  1.2255 -0.3769  0.1004
  175MOL0     C23547   6.376   8.724   9.080 -0.4954 -0.0458 -0.5305
  175MOL0     C23548   6.451   8.609   9.088 -0.2337  0.0650  0.0871
  175MOL0     O23549   6.580   8.607   9.042  0.5833  0.2101 -0.9357
  175MOL0     C23550   6.631   8.492   8.977 -0.6292  0.7680 -0.3126
  175MOL0     C23551   6.703   8.529   8.847 -0.0362 -0.4453 -0.7566
  175MOL0     C23552   6.620   8.613   8.748 -0.9194  0.0352 -0.4278
  175MOL0     C23553   6.711   8.638   8.627 -1.0740  0.4860 -0.0684
  175MOL0     C23554   6.815   8.740   8.656 -0.1829  0.5978 -0.0755
  175MOL0     C23555   6.903   8.814   8.686 -0.0030 -0.4367 -1.0261
  175MOL0     C23556   6.383   8.493   9.119  0.6457 -0.1419 -0.3691
  175MOL0     C23557   6.250   8.485   9.162  0.2811  1.2068  0.7152
  175MOL0     H23558   5.842   8.737   9.404 -2.4205  0.9265 -0.2529
  175MOL0     H23559   5.633   8.709   9.511 -1.5548 -1.4989 -0.6340
  175MOL0     H23560   5.524   8.285   9.610  0.8058  0.0424 -3.4461
  175MOL0     H23561   5.412   8.374   9.721  0.6642 -0.3342  0.4961
  175MOL0     H23562   5.377   8.296   9.425 -2.1064 -1.2757 -0.2645
  175MOL0     H23563   5.291   8.217   9.556  0.2186 -1.0917 -0.1722
  175MOL0     H23564   5.287   8.506   9.451 -0.0284  0.6147  1.1021
  175MOL0     H23565   5.160   8.391   9.414  0.2612 -0.8092  0.3264
  175MOL0     H23566   5.094   8.391   9.654 -1.3428  1.0214  0.7953
  175MOL0     H23567   5.207   8.527   9.691 -1.0304  0.1158  1.6749
  175MOL0     H23568   5.022   8.650   9.651  0.1444  0.4356 -0.3674
  175MOL0     H23569   5.099   8.651   9.490  0.3571  0.0220  0.9968
  175MOL0     H23570   4.888   8.621   9.428  0.7832  1.1292  1.2315
  175MOL0     H23571   4.947   8.447   9.435 -1.3468  0.8542 -0.8491
  175MOL0     H23572   4.847   8.423   9.658 -1.7441  0.3144  0.5778
  175MOL0     H23573   4.801   8.593   9.660 -1.3385  0.1925  0.5818
  175MOL0     H23574   4.694   8.355   9.495  4.1223  0.9900  0.3617
  175MOL0     H23575   4.654   8.517   9.445  0.0123  1.1999  0.6216
  175MOL0     H23576   4.648   8.378   9.806 -0.7290 -2.5745  0.8491
  175MOL0     H23577   4.431   8.292   9.963  1.2245  0.9665  2.3579
  175MOL0     H23578   4.427   8.457   9.992 -0.5426 -2.3791  2.1300
  175MOL0     H23579   4.197   8.330  10.009  1.4821  1.3613  1.4038
  175MOL0     H23580   4.191   8.335   9.834  1.2858 -4.1210  0.7492
  175MOL0     H23581   4.252   8.613   9.895 -0.2531 -0.7487  0.0690
  175MOL0     H23582   4.216   8.549  10.058  0.7303 -0.6672  0.2746
  175MOL0     H23583   4.045   8.530   9.812  1.7281  3.9973 -1.1027
  175MOL0     H23584   4.035   8.658   9.933 -0.4644 -0.5504  0.3475
  175MOL0     H23585   3.829   8.302  10.124  2.2041  0.7388 -0.6757
  175MOL0     H23586   3.527   8.235  10.204  0.8921  0.1438 -0.0434
  175MOL0     H23587   3.543   8.156  10.038  2.8256 -2.1628 -0.5132
  175MOL0     H23588   3.677   8.154  10.145  0.9716  0.8660 -1.5677
  175MOL0     H23589   3.142   8.630   9.976 -0.0869  0.6791 -0.9604
  175MOL0     H23590   2.896   8.587   9.901 -0.1825  0.6444 -0.7765
  175MOL0     H23591   2.820   8.291   9.603 -0.9354 -0.9001 -0.3173
  175MOL0     H23592   2.799   8.202   9.750  0.5672 -0.4055 -1.3720
  175MOL0     H23593   2.594   8.256   9.800  0.2438 -0.1541 -0.5318
  175MOL0     H23594   2.591   8.394   9.683 -3.0056 -1.0454 -3.1792
  175MOL0     H23595   2.628   8.096   9.620 -0.8257 -1.0414  1.4003
  175MOL0     H23596   2.579   8.218   9.493 -2.5541 -1.4416 -0.5026
  175MOL0     H23597   2.380   8.111   9.535  0.5522 -0.9431  0.6577
  175MOL0     H23598   2.446   8.053   9.691 -1.3706 -0.6540 -0.8607
  175MOL0     H23599   2.322   8.319   9.629  1.5508 -2.2502 -2.0840
  175MOL0     H23600   2.382   8.292   9.784 -1.5957  2.9215 -0.7767
  175MOL0     H23601   2.157   8.132   9.682 -0.1182  1.3684 -1.0903
  175MOL0     H23602   2.237   8.111   9.842  0.7645 -0.1027 -0.2667
  175MOL0     H23603   2.192   8.361   9.868  0.4860 -0.0305  0.5329
  175MOL0     H23604   2.063   8.239   9.905  1.0885 -2.0603  0.0544
  175MOL0     H23605   2.110   8.410   9.650  1.6022 -2.2001 -0.4642
  175MOL0     H23606   1.990   8.441   9.789  0.0071  0.6425 -1.1916
  175MOL0     H23607   3.019   8.244   9.677  3.4154 -0.3716 -0.1586
  175MOL0     H23608   3.260   8.293   9.731  0.1792 -0.6799  1.3325
  175MOL0     H23609   3.563   8.587   9.825 -3.0202  0.0028  1.5351
  175MOL0     H23610   3.805   8.609   9.834  0.4813 -1.0473 -1.1725
  175MOL0     H23611   5.658   8.278   9.468 -0.6589  0.4008  2.1595
  175MOL0     H23612   5.860   8.303   9.350 -2.4102 -0.1285 -1.7613
  175MOL0     H23613   6.177   8.814   9.083 -1.2224 -1.1978  2.2128
  175MOL0     H23614   6.418   8.814   9.038 -0.4504 -0.1248 -0.6562
  175MOL0     H23615   6.693   8.427   9.039  0.0667 -1.0526 -2.7657
  175MOL0     H23616   6.545   8.433   8.943 -1.5609  2.3241 -0.7480
  175MOL0     H23617   6.745   8.435   8.807  0.3838  0.6502 -3.0683
  175MOL0     H23618   6.788   8.591   8.877  1.1794 -2.5549  0.4920
  175MOL0     H23619   6.591   8.709   8.791  0.1266  0.0614  0.2636
  175MOL0     H23620   6.540   8.542   8.723 -1.0270  0.6536 -1.9458
  175MOL0     H23621   6.655   8.668   8.538  0.6631  1.2153 -0.9666
  175MOL0     H23622   6.757   8.545   8.592  0.3778  0.3691  1.9462
  175MOL0     H23623   6.981   8.873   8.731 -0.6908 -0.7116  0.5898
  175MOL0     H23624   6.436   8.399   9.126 -1.4772 -1.3513  0.4727
  175MOL0     H23625   6.212   8.387   9.190  0.4378  1.1827  0.8529
  176MOL0     O23626   6.425   0.319   3.546  0.7138 -0.3369 -0.8107
  176MOL0     C23627   6.511   0.403   3.559  0.1675  0.5412 -0.5297
  176MOL0     O23628   6.535   0.471   3.676 -0.4789 -0.0869 -0.1730
  176MOL0     C23629   6.482   0.456   3.800 -0.1524  0.8155 -0.9692
  176MOL0     C23630   6.524   0.558   3.885 -0.1025  0.0836  0.5221
  176MOL0     C23631   6.468   0.574   4.005  0.5197 -0.1333 -0.6430
  176MOL0     C23632   6.366   0.482   4.047  0.0643 -0.0640 -0.1378
  176MOL0     O23633   6.291   0.494   4.157  0.4580 -0.4094  0.3960
  176MOL0     C23634   6.278   0.620   4.223 -0.8438  0.9700 -0.2433
  176MOL0     C23635   6.207   0.608   4.353 -0.1086 -0.3856  0.2644
  176MOL0     C23636   6.066   0.568   4.327  0.0442  0.7160  0.2262
  176MOL0     C23637   5.963   0.615   4.421  0.4228 -0.1798 -0.1527
  176MOL0     C23638   5.823   0.563   4.379  0.4856  0.3118 -0.9534
  176MOL0     C23639   5.724   0.616   4.486  1.3837 -0.3976 -1.4021
  176MOL0     C23640   5.574   0.583   4.469  0.0906 -0.0560  0.3393
  176MOL0     C23641   5.481   0.687   4.543  0.3420  0.2648  0.0269
  176MOL0     N23642   5.348   0.673   4.500  0.4389  0.2718 -0.2448
  176MOL0     C23643   5.279   0.551   4.491  1.0409 -0.9879 -0.2062
  176MOL0     C23644   5.155   0.582   4.446  0.7521  0.1513 -0.1122
  176MOL0     C23645   5.045   0.489   4.405  0.4243  0.0709  0.2752
  176MOL0     C23646   5.030   0.374   4.502  0.4866 -0.2212  0.3279
  176MOL0     C23647   4.947   0.259   4.442 -0.2500  0.3915  0.1506
  176MOL0     C23648   4.948   0.143   4.552  0.0349 -0.6848 -0.3685
  176MOL0     O23649   4.883   0.039   4.488  0.2464  0.1671  0.0395
  176MOL0     C23650   4.823  -0.055   4.574  0.5743  0.3380  0.8549
  176MOL0     C23651   4.854  -0.082   4.712  0.5806 -0.3845 -0.2088
  176MOL0     C23652   4.781  -0.173   4.786 -0.7381 -0.2293  0.2965
  176MOL0     C23653   4.836  -0.183   4.926 -0.7790  0.4859 -0.3180
  176MOL0     C23654   4.682  -0.260   4.731  0.7465  0.1795 -0.2178
  176MOL0     C23655   4.604  -0.361   4.806 -0.3322 -0.3578 -0.0616
  176MOL0     O23656   4.494  -0.411   4.738 -0.5221 -0.2500  0.2777
  176MOL0     C23657   4.409  -0.513   4.772  0.4132  0.6965  0.0614
  176MOL0     C23658   4.381  -0.550   4.899 -0.3842 -0.9861 -0.6527
  176MOL0     C23659   4.303  -0.654   4.934  0.2314  0.1950 -0.6821
  176MOL0     C23660   4.237  -0.734   4.832  0.6462 -0.4329 -0.3160
  176MOL0     O23661   4.151  -0.844   4.854 -0.2092  0.3788  0.2012
  176MOL0     C23662   4.083  -0.850   4.986 -0.2892  0.2729  0.7852
  176MOL0     C23663   4.118  -0.987   5.042 -0.4406  0.2330  0.2485
  176MOL0     C23664   4.106  -0.993   5.197  0.0009 -0.4020  0.0820
  176MOL0     C23665   3.972  -1.051   5.232 -0.6403  0.0086 -0.0238
  176MOL0     C23666   3.846  -0.990   5.165  0.1967  0.7973  0.1021
  176MOL0     C23667   3.722  -1.019   5.239  0.5241  0.1699 -0.3928
  176MOL0     C23668   3.600  -0.987   5.157 -0.7002  0.2484 -0.1663
  176MOL0     C23669   3.467  -0.983   5.246 -0.1114  0.7372  0.1689
  176MOL0    Cl23670   3.408  -1.155   5.294 -0.4557  0.2884 -0.2006
  176MOL0     C23671   4.262  -0.693   4.699  1.3112  0.8841 -0.9831
  176MOL0     C23672   4.352  -0.587   4.671 -0.7195  0.0219 -0.3016
  176MOL0     O23673   4.649  -0.391   4.920 -0.0575 -0.8170 -0.1829
  176MOL0     C23674   4.661  -0.239   4.594  0.7337  0.5739 -0.0824
  176MOL0     C23675   4.716  -0.133   4.521  0.5964  0.2089  0.1105
  176MOL0     N23676   5.146   0.720   4.423  0.0398 -0.2458 -0.9533
  176MOL0     N23677   5.261   0.775   4.467  0.1025  0.1782 -0.2149
  176MOL0     C23678   6.329   0.377   3.965  0.2928  0.2166 -0.2600
  176MOL0     C23679   6.388   0.367   3.840  0.9405  0.3363  0.0623
  176MOL0     C23680   6.589   0.422   3.439 -0.1378 -0.3167 -0.0212
  176MOL0     C23681   6.711   0.490   3.438  0.3291 -0.4209 -0.8303
  176MOL0     C23682   6.800   0.498   3.333  1.0734  0.0218 -0.5720
  176MOL0     C23683   6.757   0.452   3.212 -0.4374  0.4424  0.1014
  176MOL0     O23684   6.822   0.452   3.096  0.0295 -0.5167  0.4174
  176MOL0     C23685   6.963   0.485   3.097  0.0527  0.7050 -1.4832
  176MOL0     C23686   7.008   0.477   2.960  0.6135 -0.6559 -0.4421
  176MOL0     C23687   6.976   0.355   2.880  0.2527  0.1862 -0.0099
  176MOL0     C23688   7.061   0.236   2.914  0.1592 -0.5690 -0.4457
  176MOL0     C23689   7.194   0.247   2.853 -0.3397 -0.8005 -0.7042
  176MOL0     C23690   7.304   0.261   2.800  0.0695  0.1579  0.1359
  176MOL0     C23691   6.635   0.388   3.210  0.8065 -0.0114 -0.5090
  176MOL0     C23692   6.551   0.376   3.316 -0.2207 -0.4816  0.1922
  176MOL0     H23693   6.605   0.625   3.858  0.8549 -1.1864  0.1292
  176MOL0     H23694   6.492   0.667   4.054  2.0257  1.0000 -3.3083
  176MOL0     H23695   6.374   0.664   4.249 -0.0505 -0.7296 -0.1961
  176MOL0     H23696   6.221   0.680   4.150  0.0593 -0.3834 -2.1433
  176MOL0     H23697   6.251   0.526   4.409  0.2347 -0.2059  0.2602
  176MOL0     H23698   6.205   0.703   4.407  0.8710  2.7719 -4.5788
  176MOL0     H23699   6.030   0.589   4.225  2.2425  1.9638 -0.3471
  176MOL0     H23700   6.070   0.459   4.314  0.5154  0.9405 -1.8495
  176MOL0     H23701   5.974   0.581   4.525 -1.4549 -0.1157  0.1002
  176MOL0     H23702   5.960   0.724   4.423 -0.1854 -0.1838 -0.5325
  176MOL0     H23703   5.786   0.595   4.282 -1.7634 -2.6121 -1.1793
  176MOL0     H23704   5.803   0.456   4.368 -0.0347  0.1957  0.7528
  176MOL0     H23705   5.748   0.589   4.589 -0.3994  1.2942 -0.4651
  176MOL0     H23706   5.729   0.725   4.485  0.1167 -0.1925  1.8451
  176MOL0     H23707   5.546   0.579   4.364  4.1255  3.2908 -1.1263
  176MOL0     H23708   5.552   0.482   4.505 -0.9557 -0.8067 -2.1941
  176MOL0     H23709   5.513   0.789   4.521  1.4447 -0.3495 -1.3799
  176MOL0     H23710   5.483   0.671   4.651 -0.8661 -2.1110 -0.2489
  176MOL0     H23711   5.312   0.454   4.528 -0.5732 -2.6332 -2.8235
  176MOL0     H23712   4.951   0.544   4.393 -1.0003 -2.0348  1.2628
  176MOL0     H23713   5.064   0.442   4.308  1.6544 -0.8613  0.9482
  176MOL0     H23714   4.984   0.417   4.592  1.0911  3.3046 -0.9089
  176MOL0     H23715   5.131   0.333   4.510  0.5333 -0.4214 -1.0222
  176MOL0     H23716   4.997   0.222   4.353  2.5700  2.4706  0.7098
  176MOL0     H23717   4.846   0.286   4.409 -1.1078 -1.2939  1.2135
  176MOL0     H23718   4.898   0.166   4.646  2.7258 -1.9693  1.5058
  176MOL0     H23719   5.054   0.124   4.575  0.0805 -1.3533 -1.0817
  176MOL0     H23720   4.934  -0.027   4.760 -0.2827 -0.7646  1.7600
  176MOL0     H23721   4.776  -0.230   5.005  1.8898 -0.7010  1.1752
  176MOL0     H23722   4.922  -0.251   4.934 -1.1191 -0.1279 -1.6764
  176MOL0     H23723   4.877  -0.087   4.958  6.6385 -1.7367 -1.1392
  176MOL0     H23724   4.424  -0.485   4.975  2.3267 -1.4717 -1.6819
  176MOL0     H23725   4.289  -0.675   5.039 -2.6259  1.7343 -0.6745
  176MOL0     H23726   4.116  -0.767   5.050  2.5756  0.5834 -0.9320
  176MOL0     H23727   3.976  -0.842   4.967 -0.2245 -2.1305 -1.0000
  176MOL0     H23728   4.052  -1.057   4.990  1.1245  0.7353 -2.6248
  176MOL0     H23729   4.215  -1.028   5.012  0.2352  1.2521  0.9871
  176MOL0     H23730   4.116  -0.894   5.243 -2.8244  0.6176 -1.2680
  176MOL0     H23731   4.185  -1.057   5.237 -0.2242 -0.6400  0.1419
  176MOL0     H23732   3.964  -1.160   5.223  3.1505 -0.2796 -2.3960
  176MOL0     H23733   3.960  -1.038   5.340  2.2133 -0.2145  0.4180
  176MOL0     H23734   3.837  -1.022   5.061 -0.9090  1.3178  0.0211
  176MOL0     H23735   3.859  -0.881   5.169  0.3578  0.7904 -0.2219
  176MOL0     H23736   3.717  -1.123   5.272  0.0444  0.0707 -0.7678
  176MOL0     H23737   3.718  -0.955   5.328  0.7350 -1.2786  0.6968
  176MOL0     H23738   3.583  -1.064   5.080  2.5870 -2.8887  1.8724
  176MOL0     H23739   3.613  -0.890   5.110  1.8449  0.5897  1.0578
  176MOL0     H23740   3.392  -0.929   5.187  2.6278  0.8314 -3.5565
  176MOL0     H23741   3.482  -0.933   5.342  0.5049 -0.2084  0.5762
  176MOL0     H23742   4.208  -0.731   4.613  0.4406  0.4495 -0.2510
  176MOL0     H23743   4.371  -0.549   4.572  1.8654  0.5280  0.3016
  176MOL0     H23744   4.592  -0.299   4.536  1.5498 -1.0178  0.5124
  176MOL0     H23745   4.693  -0.132   4.415 -2.6736 -2.1795  0.6119
  176MOL0     H23746   6.252   0.305   3.990  1.9099 -1.7029 -0.5585
  176MOL0     H23747   6.363   0.288   3.770  2.3021  2.2666 -2.7904
  176MOL0     H23748   6.741   0.537   3.532  0.0174 -1.5117 -0.1726
  176MOL0     H23749   6.891   0.556   3.343  2.0339 -1.6918  1.7621
  176MOL0     H23750   6.986   0.579   3.147  0.0897 -0.3386  0.5898
  176MOL0     H23751   7.023   0.415   3.156 -0.2079  1.8024  0.1201
  176MOL0     H23752   7.115   0.497   2.955  0.4768  0.0476 -0.5861
  176MOL0     H23753   6.956   0.560   2.912  1.3957 -0.6818 -1.3535
  176MOL0     H23754   6.993   0.368   2.773 -1.0750 -3.9776 -0.9001
  176MOL0     H23755   6.871   0.327   2.893  0.2001 -0.9990 -2.4087
  176MOL0     H23756   7.009   0.148   2.874  0.4846 -0.2389 -1.6233
  176MOL0     H23757   7.071   0.217   3.021  0.5940  0.5982 -0.2725
  176MOL0     H23758   7.391   0.273   2.740  0.8305  1.3659  1.4350
  176MOL0     H23759   6.612   0.343   3.113  1.6053 -0.2646 -0.5908
  176MOL0     H23760   6.461   0.318   3.297  1.1333 -1.9480 -2.2417
  177MOL0     O23761   8.752   0.105   3.826  0.5442 -0.2801  0.0054
  177MOL0     C23762   8.774   0.037   3.929 -0.1002  0.0856  0.4533
  177MOL0     O23763   8.683   0.014   4.026 -0.2020 -0.5767 -0.3492
  177MOL0     C23764   8.548   0.042   4.011 -0.1582 -0.1708 -0.6127
  177MOL0     C23765   8.472   0.048   4.130  0.4803  0.2455 -0.0006
  177MOL0     C23766   8.335   0.089   4.129 -0.7931  0.0455  0.3735
  177MOL0     C23767   8.266   0.110   4.006 -0.2477  0.5697 -0.4850
  177MOL0     O23768   8.135   0.146   4.008 -0.2298  0.3046  0.2206
  177MOL0     C23769   8.098   0.251   3.913  0.4137  0.0023 -0.1278
  177MOL0     C23770   7.961   0.308   3.924 -0.2753 -0.7014  0.1188
  177MOL0     C23771   7.950   0.395   4.047  0.6827 -0.2934 -1.0362
  177MOL0     C23772   7.816   0.465   4.068 -0.5869 -0.3376  0.2213
  177MOL0     C23773   7.807   0.615   4.019  0.8571  0.3933 -0.5768
  177MOL0     C23774   7.668   0.670   4.037  0.5229 -0.1496  1.1507
  177MOL0     C23775   7.631   0.685   4.185  0.0469  0.9970  0.0772
  177MOL0     C23776   7.511   0.769   4.199 -0.6072  0.8387 -0.1234
  177MOL0     N23777   7.462   0.791   4.334  0.2631 -0.1120  0.6283
  177MOL0     C23778   7.500   0.899   4.412  0.7366  0.0118 -0.0118
  177MOL0     C23779   7.474   0.861   4.535 -0.2951  0.0663  0.1859
  177MOL0     C23780   7.505   0.946   4.660 -0.6271  0.2411 -0.2055
  177MOL0     C23781   7.627   0.893   4.739 -0.4433  1.0726 -0.5247
  177MOL0     C23782   7.608   0.915   4.894  0.5367 -0.7539 -0.4563
  177MOL0     C23783   7.649   1.061   4.936  0.7003  0.5214  0.1243
  177MOL0     O23784   7.600   1.099   5.066 -0.4041 -0.2849 -0.4309
  177MOL0     C23785   7.464   1.125   5.084 -0.0127 -0.0019  1.1036
  177MOL0     C23786   7.375   1.148   4.979 -0.3986 -0.9564  0.1246
  177MOL0     C23787   7.246   1.197   5.000  0.0398  0.7043 -0.3110
  177MOL0     C23788   7.159   1.211   4.871  0.1477  0.8631  0.4454
  177MOL0     C23789   7.201   1.229   5.134  0.4816 -0.2738  0.2006
  177MOL0     C23790   7.075   1.299   5.163  0.2489 -0.1449 -0.0547
  177MOL0     O23791   6.996   1.344   5.059 -0.0960  0.0832 -0.0654
  177MOL0     C23792   6.865   1.362   5.078 -0.3320  0.8660  0.6983
  177MOL0     C23793   6.816   1.455   5.162 -1.0104 -0.0148  0.0453
  177MOL0     C23794   6.678   1.461   5.183  0.0674  1.0868 -0.9281
  177MOL0     C23795   6.593   1.376   5.114  0.2994 -0.7273  0.0626
  177MOL0     O23796   6.457   1.377   5.116  0.0203  0.4069  0.3712
  177MOL0     C23797   6.400   1.508   5.150 -1.0006  1.2693  0.7093
  177MOL0     C23798   6.256   1.520   5.091  0.0637 -0.0139 -0.1379
  177MOL0     C23799   6.154   1.442   5.177  0.1528  0.5119 -0.4515
  177MOL0     C23800   6.013   1.428   5.106  0.9095  0.8293 -0.8942
  177MOL0     C23801   5.902   1.365   5.187  0.1062  0.0527 -0.5022
  177MOL0     C23802   5.769   1.389   5.106  0.8146 -0.1552  0.4546
  177MOL0     C23803   5.659   1.305   5.164  0.3570 -0.5666  0.3861
  177MOL0     C23804   5.524   1.359   5.098 -0.2855  0.1831  0.5682
  177MOL0    Cl23805   5.393   1.230   5.098  0.0807  0.0727 -0.6433
  177MOL0     C23806   6.644   1.283   5.027  0.1711  0.4864 -0.4064
  177MOL0     C23807   6.776   1.273   5.004  0.2954 -0.3701  0.4881
  177MOL0     O23808   7.031   1.299   5.278 -0.8303 -0.4759 -0.1083
  177MOL0     C23809   7.290   1.205   5.232 -0.3563  0.6159  0.6431
  177MOL0     C23810   7.419   1.155   5.205 -0.4948 -0.4750  0.1452
  177MOL0     N23811   7.401   0.746   4.524  0.0628  0.0700  0.2866
  177MOL0     N23812   7.401   0.697   4.407  0.4879 -0.4271  0.4843
  177MOL0     C23813   8.336   0.087   3.884  0.9136  0.5998  0.2693
  177MOL0     C23814   8.473   0.059   3.890 -0.2670  0.1861  0.2632
  177MOL0     C23815   8.922   0.020   3.958  0.0460 -0.6209  1.1104
  177MOL0     C23816   8.961  -0.017   4.085 -0.5034 -0.4234  0.2017
  177MOL0     C23817   9.089  -0.046   4.118  0.0745  0.6516  0.8344
  177MOL0     C23818   9.200  -0.012   4.034 -0.6546  0.6135 -0.3995
  177MOL0     O23819   9.327  -0.016   4.093 -0.3798  0.2343 -0.0366
  177MOL0     C23820   9.430   0.047   4.033 -0.6990  0.0786  0.2674
  177MOL0     C23821   9.572  -0.014   4.067  0.3117  0.1480  0.4402
  177MOL0     C23822   9.690   0.082   4.022  0.0046  0.9352 -0.0327
  177MOL0     C23823   9.679   0.127   3.879  0.0839  0.1846 -0.3790
  177MOL0     C23824   9.652   0.018   3.784 -0.1795  0.3640 -0.0211
  177MOL0     C23825   9.638  -0.088   3.720 -0.3811  0.1028 -0.0648
  177MOL0     C23826   9.165   0.024   3.902  0.5112 -0.3087  0.0423
  177MOL0     C23827   9.027   0.036   3.863  0.4924 -0.1686  0.0111
  177MOL0     H23828   8.522   0.026   4.224  2.0627  0.5506 -0.7332
  177MOL0     H23829   8.275   0.092   4.220 -0.5844 -2.8130  0.7111
  177MOL0     H23830   8.181   0.322   3.903 -0.5501  1.0634 -0.8629
  177MOL0     H23831   8.112   0.191   3.823  2.3383 -4.1449  2.6238
  177MOL0     H23832   7.949   0.377   3.839  1.3638  1.3232  1.4338
  177MOL0     H23833   7.882   0.234   3.936 -0.8861 -0.0544  0.1959
  177MOL0     H23834   7.966   0.334   4.136 -0.7653 -1.6940 -1.6822
  177MOL0     H23835   8.025   0.474   4.050 -0.2678  0.5965 -0.3559
  177MOL0     H23836   7.735   0.411   4.020  0.8874 -1.9600 -0.5500
  177MOL0     H23837   7.795   0.462   4.175  2.7973  0.7123  1.0571
  177MOL0     H23838   7.880   0.680   4.066  0.4775 -0.7512  1.7782
  177MOL0     H23839   7.842   0.621   3.915 -0.4115  2.2511 -0.9462
  177MOL0     H23840   7.661   0.766   3.986  1.7168 -1.8872 -2.6529
  177MOL0     H23841   7.596   0.605   3.987  0.0554  1.9427 -1.1081
  177MOL0     H23842   7.591   0.588   4.215 -1.2017  1.8240  1.1610
  177MOL0     H23843   7.709   0.716   4.255 -2.0005  0.1257  2.9091
  177MOL0     H23844   7.419   0.726   4.160 -2.3203  0.9435  3.4132
  177MOL0     H23845   7.538   0.857   4.139  1.7352 -0.7952 -1.6150
  177MOL0     H23846   7.542   0.992   4.373 -0.7632  0.5037 -0.5608
  177MOL0     H23847   7.545   1.045   4.633 -0.0226  0.0602  0.0018
  177MOL0     H23848   7.416   0.953   4.722  0.9050  1.3018  2.0282
  177MOL0     H23849   7.722   0.939   4.711 -0.7128  2.3938  0.6081
  177MOL0     H23850   7.635   0.787   4.713 -1.6329  1.2995 -1.9719
  177MOL0     H23851   7.658   0.836   4.951  0.1429 -1.1578 -0.6610
  177MOL0     H23852   7.503   0.902   4.920  1.1653 -3.7262  1.1353
  177MOL0     H23853   7.614   1.119   4.851  2.0501 -1.0331 -1.5744
  177MOL0     H23854   7.759   1.060   4.936  0.8138  0.7834 -3.4485
  177MOL0     H23855   7.407   1.119   4.879  1.3769  0.9523  0.0659
  177MOL0     H23856   7.205   1.146   4.797  0.9676  1.2152  0.6365
  177MOL0     H23857   7.053   1.189   4.885 -0.4626  2.5411 -1.0735
  177MOL0     H23858   7.171   1.317   4.845  0.6560  0.8463  0.6005
  177MOL0     H23859   6.880   1.502   5.236 -4.7285 -0.1762  3.7411
  177MOL0     H23860   6.647   1.524   5.265 -0.1602 -2.0852  1.6179
  177MOL0     H23861   6.405   1.534   5.256 -0.8606  0.0095  1.0294
  177MOL0     H23862   6.458   1.588   5.104 -0.9587  0.2606 -1.0639
  177MOL0     H23863   6.232   1.627   5.082 -0.1929  0.0059  0.7122
  177MOL0     H23864   6.253   1.478   4.990 -0.7946 -0.0290 -0.1136
  177MOL0     H23865   6.153   1.488   5.276  1.5730  0.6468 -0.4870
  177MOL0     H23866   6.194   1.341   5.191  0.0699  0.6208  0.7172
  177MOL0     H23867   5.990   1.528   5.069 -1.6102  0.8135  0.4596
  177MOL0     H23868   6.021   1.355   5.024 -1.7276 -2.5038  1.5096
  177MOL0     H23869   5.893   1.408   5.287  0.4536  2.7116 -1.5402
  177MOL0     H23870   5.912   1.257   5.204 -0.4482  0.3515  1.9851
  177MOL0     H23871   5.735   1.493   5.117  0.5477 -0.3167  1.2175
  177MOL0     H23872   5.794   1.368   5.002  0.8374  1.7228  0.0439
  177MOL0     H23873   5.648   1.305   5.272  0.1888 -1.0455  0.3670
  177MOL0     H23874   5.667   1.204   5.123  2.1646 -0.5596  0.6181
  177MOL0     H23875   5.546   1.375   4.992  2.4025 -3.1578  0.4506
  177MOL0     H23876   5.485   1.451   5.141 -0.4898  1.3862 -1.9696
  177MOL0     H23877   6.578   1.205   4.990 -0.6321  0.5807  0.7778
  177MOL0     H23878   6.819   1.201   4.935  1.2394 -0.2921  0.9782
  177MOL0     H23879   7.260   1.241   5.330 -0.9185 -2.6405  1.8147
  177MOL0     H23880   7.490   1.172   5.285  1.0537  1.1193 -1.4591
  177MOL0     H23881   8.297   0.095   3.783 -1.3093 -1.6770  0.8386
  177MOL0     H23882   8.522   0.032   3.797  0.5341 -2.6799  1.4064
  177MOL0     H23883   8.880  -0.018   4.157 -0.0987  1.3964  0.7319
  177MOL0     H23884   9.092  -0.075   4.222  0.4583  2.1232  1.2558
  177MOL0     H23885   9.416   0.050   3.924  0.6065  2.0750  0.1070
  177MOL0     H23886   9.432   0.151   4.066 -2.1308 -0.1198  1.0282
  177MOL0     H23887   9.588  -0.109   4.016  3.5326  0.0528  1.4145
  177MOL0     H23888   9.577  -0.043   4.173 -1.0910 -0.0478  0.4730
  177MOL0     H23889   9.782   0.025   4.037 -0.4961  0.3518  0.9405
  177MOL0     H23890   9.695   0.168   4.090  0.8900  0.5189  0.4473
  177MOL0     H23891   9.776   0.173   3.860  1.2655 -1.0304  2.2507
  177MOL0     H23892   9.616   0.215   3.865  2.7322  2.0348 -1.3794
  177MOL0     H23893   9.627  -0.174   3.656  2.2279 -0.8013  0.5704
  177MOL0     H23894   9.241   0.038   3.825 -0.2649  1.6742 -0.4391
  177MOL0     H23895   8.994   0.066   3.764  0.6425  1.4936  0.4402
  178MOL0     O23896   3.944   5.642   2.310  0.6984  0.5700 -0.0697
  178MOL0     C23897   4.058   5.598   2.299 -0.3712 -0.4809 -0.9066
  178MOL0     O23898   4.162   5.606   2.398  0.7406  0.0270  0.0405
  178MOL0     C23899   4.123   5.633   2.524 -0.6682 -0.3795 -0.0156
  178MOL0     C23900   4.016   5.569   2.580  0.1534 -0.3395  0.0319
  178MOL0     C23901   3.977   5.598   2.709 -0.2752 -0.4153 -0.5258
  178MOL0     C23902   4.045   5.688   2.787  0.1539  0.2886  0.3933
  178MOL0     O23903   3.987   5.713   2.912  0.1357 -0.3336 -0.0287
  178MOL0     C23904   4.042   5.826   2.979  0.0437  0.2435 -0.3911
  178MOL0     C23905   3.962   5.844   3.103  0.6094  0.0081 -0.2031
  178MOL0     C23906   3.816   5.868   3.070  1.0613  0.6923 -0.0759
  178MOL0     C23907   3.719   5.864   3.189  0.1281 -0.6745 -1.1100
  178MOL0     C23908   3.573   5.905   3.151  0.1263  0.7377  0.1803
  178MOL0     C23909   3.500   5.782   3.089 -0.6492 -0.4358  0.0159
  178MOL0     C23910   3.384   5.824   2.999 -0.3514 -0.6518 -0.3906
  178MOL0     C23911   3.313   5.698   2.944  0.6531  1.3031 -0.0236
  178MOL0     N23912   3.237   5.639   3.051  0.0217  0.3321 -0.3892
  178MOL0     C23913   3.106   5.682   3.068 -0.1268  0.0179 -0.8628
  178MOL0     C23914   3.051   5.587   3.138 -0.1060  0.6019  0.3231
  178MOL0     C23915   2.907   5.578   3.179  0.1590  0.2975  0.4367
  178MOL0     C23916   2.820   5.539   3.068 -0.9723  0.3001  0.4840
  178MOL0     C23917   2.668   5.535   3.116 -0.0902  0.2823  0.0468
  178MOL0     C23918   2.573   5.448   3.029 -0.3383 -0.1671  0.8078
  178MOL0     O23919   2.444   5.450   3.079  0.1271 -0.8555 -0.6468
  178MOL0     C23920   2.343   5.407   2.987 -0.3758 -0.6603  0.5367
  178MOL0     C23921   2.211   5.440   3.027  0.1115  0.0568 -0.2614
  178MOL0     C23922   2.094   5.412   2.946  0.0718 -0.3168 -0.6935
  178MOL0     C23923   1.957   5.426   3.017  0.1109 -0.1278  0.2536
  178MOL0     C23924   2.114   5.345   2.820 -0.6990 -0.6443 -0.7524
  178MOL0     C23925   2.005   5.301   2.737 -0.1049 -0.4871  0.3804
  178MOL0     O23926   1.888   5.374   2.749 -0.0523 -0.3234  0.1504
  178MOL0     C23927   1.772   5.308   2.695 -0.9510 -0.4067 -0.4394
  178MOL0     C23928   1.749   5.171   2.712  0.2190 -0.4787  0.0386
  178MOL0     C23929   1.628   5.109   2.679  0.3866 -0.5366  0.3217
  178MOL0     C23930   1.525   5.190   2.623  0.0797 -0.4549 -0.1275
  178MOL0     O23931   1.400   5.132   2.600 -0.3855  0.2450  0.0681
  178MOL0     C23932   1.294   5.223   2.578 -0.1896  0.3941  0.4141
  178MOL0     C23933   1.160   5.159   2.591 -0.0648  0.0979  0.0825
  178MOL0     C23934   1.132   5.057   2.479  0.1856 -0.5503  0.0770
  178MOL0     C23935   0.991   5.006   2.485  0.0337 -0.6587 -0.5259
  178MOL0     C23936   0.970   4.889   2.390  0.2478 -0.8119 -0.2799
  178MOL0     C23937   0.836   4.819   2.418  0.7898 -0.0790 -0.3481
  178MOL0     C23938   0.794   4.706   2.326 -0.7205 -0.4884  0.5119
  178MOL0     C23939   0.649   4.711   2.274 -0.4633 -0.7674  0.4252
  178MOL0    Cl23940   0.636   4.849   2.152  0.2160 -0.1290  0.0635
  178MOL0     C23941   1.556   5.322   2.589  0.3159 -1.2859  0.0535
  178MOL0     C23942   1.675   5.386   2.638  1.3135 -0.5563 -0.5991
  178MOL0     O23943   2.029   5.199   2.665 -0.3801 -0.5584  0.8281
  178MOL0     C23944   2.244   5.313   2.783  0.0703 -0.4142  0.0373
  178MOL0     C23945   2.359   5.345   2.861  0.3161 -0.1581  0.4023
  178MOL0     N23946   3.146   5.494   3.172  0.1270 -0.3354 -0.1998
  178MOL0     N23947   3.260   5.520   3.106 -0.1689  0.1588 -0.0826
  178MOL0     C23948   4.153   5.757   2.728  0.8810 -1.1056 -0.1314
  178MOL0     C23949   4.193   5.731   2.596 -0.3670  0.0981  0.6959
  178MOL0     C23950   4.102   5.552   2.164  0.2850 -0.8013  0.1830
  178MOL0     C23951   4.022   5.561   2.053  0.4217 -0.3692 -0.2667
  178MOL0     C23952   4.066   5.546   1.924  0.1261  0.0294 -0.4480
  178MOL0     C23953   4.193   5.491   1.906  0.2754 -0.5235 -0.6827
  178MOL0     O23954   4.237   5.471   1.780 -0.3599  0.1567  0.3668
  178MOL0     C23955   4.379   5.469   1.750 -0.0789 -0.6734  0.3233
  178MOL0     C23956   4.396   5.444   1.601 -0.1118  0.6666 -0.4668
  178MOL0     C23957   4.539   5.431   1.550  0.3186 -0.0442 -0.0419
  178MOL0     C23958   4.619   5.559   1.571  0.1857  0.9818  0.2263
  178MOL0     C23959   4.763   5.542   1.569  0.5257 -1.2196 -0.0055
  178MOL0     C23960   4.882   5.535   1.574  0.0164  0.6589 -0.1260
  178MOL0     C23961   4.276   5.474   2.016 -0.0183 -0.0655  0.4348
  178MOL0     C23962   4.230   5.503   2.139  1.5640  0.1055 -0.2451
  178MOL0     H23963   3.969   5.484   2.530 -0.5974  0.8824 -1.4412
  178MOL0     H23964   3.892   5.550   2.756  1.4153 -0.7447  2.3871
  178MOL0     H23965   4.144   5.803   3.010  0.4418  1.4878 -0.7487
  178MOL0     H23966   4.038   5.918   2.920 -2.1463  1.2087  1.1229
  178MOL0     H23967   3.964   5.749   3.157 -1.3745 -0.3774 -0.7469
  178MOL0     H23968   4.000   5.926   3.165  0.2106 -0.9315  1.3373
  178MOL0     H23969   3.807   5.971   3.034 -3.6907  0.8720  0.8540
  178MOL0     H23970   3.777   5.801   2.993  3.1111  1.6574 -2.0498
  178MOL0     H23971   3.740   5.765   3.231  1.7629 -0.9347 -2.4562
  178MOL0     H23972   3.749   5.943   3.259  2.2189 -1.5663 -0.9254
  178MOL0     H23973   3.523   5.949   3.238 -2.2849 -0.7398 -0.3621
  178MOL0     H23974   3.570   5.968   3.062 -0.8524 -0.2692 -0.5220
  178MOL0     H23975   3.565   5.718   3.029 -0.8847 -0.4678 -0.2039
  178MOL0     H23976   3.463   5.727   3.177  0.9814 -0.5535  0.6655
  178MOL0     H23977   3.322   5.887   3.064  1.5192  1.6425 -0.6822
  178MOL0     H23978   3.399   5.898   2.920  2.7787  1.6553  2.0904
  178MOL0     H23979   3.371   5.617   2.898 -0.8273  1.7480 -2.9085
  178MOL0     H23980   3.249   5.732   2.862 -0.7630  3.1970  1.7547
  178MOL0     H23981   3.064   5.775   3.033  0.6764  0.3705 -0.9159
  178MOL0     H23982   2.893   5.499   3.254 -4.9129  1.6244  1.2279
  178MOL0     H23983   2.881   5.675   3.224  0.5698  1.0636 -0.9280
  178MOL0     H23984   2.856   5.439   3.038 -0.5689 -0.2952  2.7586
  178MOL0     H23985   2.828   5.616   2.991 -1.5348 -0.6938 -0.6005
  178MOL0     H23986   2.632   5.638   3.116  2.6071  1.3480  2.4243
  178MOL0     H23987   2.666   5.502   3.220  0.9095 -0.3033 -0.1015
  178MOL0     H23988   2.613   5.347   3.017  0.2491 -0.2574  3.1942
  178MOL0     H23989   2.579   5.501   2.933  2.0213  0.0468  1.0335
  178MOL0     H23990   2.200   5.479   3.128 -0.5431  2.1755 -1.1077
  178MOL0     H23991   1.901   5.509   2.973  0.5564 -1.6209 -3.4971
  178MOL0     H23992   1.896   5.335   3.017  1.7128 -1.2429  0.5018
  178MOL0     H23993   1.984   5.447   3.121  3.1190 -0.3646 -0.3826
  178MOL0     H23994   1.821   5.119   2.775 -1.4382 -0.5352  1.9835
  178MOL0     H23995   1.606   5.004   2.694 -0.1576 -0.1905  2.3300
  178MOL0     H23996   1.312   5.297   2.657  0.6162  0.7088 -0.0576
  178MOL0     H23997   1.303   5.263   2.477 -0.7679 -1.3000 -0.3517
  178MOL0     H23998   1.151   5.106   2.686  0.8424  0.1600  0.2134
  178MOL0     H23999   1.092   5.245   2.594 -0.2343 -0.0114 -0.5057
  178MOL0     H24000   1.198   4.971   2.498 -0.5593 -1.2404 -0.3813
  178MOL0     H24001   1.155   5.101   2.381 -2.3235  0.7393 -0.0067
  178MOL0     H24002   0.978   4.970   2.587 -1.4852 -0.7826 -0.7397
  178MOL0     H24003   0.923   5.090   2.467  0.3080 -0.5984 -1.3395
  178MOL0     H24004   1.051   4.817   2.403  0.3751 -0.7084 -0.4892
  178MOL0     H24005   0.953   4.925   2.288 -3.4844 -1.6544 -0.1153
  178MOL0     H24006   0.847   4.777   2.519  2.3838 -0.0253 -0.4783
  178MOL0     H24007   0.750   4.886   2.430 -0.4265 -1.7058  0.5534
  178MOL0     H24008   0.808   4.615   2.385 -2.6216 -1.4584 -0.4377
  178MOL0     H24009   0.862   4.700   2.240 -1.4280 -1.2930 -0.0032
  178MOL0     H24010   0.581   4.715   2.360 -1.0411  1.3489 -0.0631
  178MOL0     H24011   0.619   4.620   2.223 -0.0365  0.6740 -2.5864
  178MOL0     H24012   1.492   5.388   2.531 -0.3299  0.8096  2.9009
  178MOL0     H24013   1.690   5.493   2.633  0.7360 -0.2576  2.2821
  178MOL0     H24014   2.268   5.268   2.687 -2.7797 -1.3905 -0.2892
  178MOL0     H24015   2.458   5.322   2.824  0.3911 -3.7684  2.3723
  178MOL0     H24016   4.212   5.834   2.776 -0.4140 -0.4495  0.4247
  178MOL0     H24017   4.277   5.781   2.548  1.5377 -1.4783  2.1549
  178MOL0     H24018   3.917   5.589   2.062  0.1743 -0.7887 -1.5488
  178MOL0     H24019   3.994   5.565   1.845 -1.2330  2.7979  1.2757
  178MOL0     H24020   4.426   5.563   1.781  1.4073 -1.0035 -0.8419
  178MOL0     H24021   4.442   5.398   1.804  3.6566  1.0698 -1.3161
  178MOL0     H24022   4.347   5.528   1.550  2.8905  2.7851 -0.1490
  178MOL0     H24023   4.338   5.351   1.598  0.9996 -0.1796  1.9638
  178MOL0     H24024   4.544   5.407   1.443  1.7052  2.0572 -0.5334
  178MOL0     H24025   4.587   5.344   1.595 -1.3177  0.5688  3.1781
  178MOL0     H24026   4.587   5.612   1.661  2.9563  0.6581  1.5048
  178MOL0     H24027   4.599   5.627   1.488 -0.1535  2.2941  1.3563
  178MOL0     H24028   4.989   5.537   1.581 -0.0683  1.4324  1.3871
  178MOL0     H24029   4.375   5.432   2.001 -0.1862 -0.3709  0.1609
  178MOL0     H24030   4.298   5.477   2.219  1.3529 -1.0553 -0.4272
  179MOL0     O24031   6.235   8.873   4.227  0.0704 -0.5576  0.2048
  179MOL0     C24032   6.306   8.919   4.314  0.3462 -0.1018  0.5784
  179MOL0     O24033   6.259   8.956   4.432 -0.0332  0.0510 -0.3620
  179MOL0     C24034   6.126   8.985   4.471  0.3102  0.6961 -0.5708
  179MOL0     C24035   6.099   8.990   4.601  0.2048  0.2286  0.2817
  179MOL0     C24036   5.968   9.026   4.643 -0.7763  0.0258 -0.5331
  179MOL0     C24037   5.869   9.076   4.556  0.6222  0.3374  0.6040
  179MOL0     O24038   5.747   9.105   4.606 -0.3950  0.1200  0.0170
  179MOL0     C24039   5.627   9.135   4.521  0.0975 -0.6969 -0.0642
  179MOL0     C24040   5.500   9.147   4.597 -0.3245  0.3639  0.1900
  179MOL0     C24041   5.471   9.030   4.694  0.2463 -0.3027 -0.3323
  179MOL0     C24042   5.401   9.088   4.818 -1.1078 -0.6682  0.2549
  179MOL0     C24043   5.381   8.979   4.924 -0.0316  0.5482  0.6945
  179MOL0     C24044   5.319   9.009   5.052  0.4971  0.3131 -0.0425
  179MOL0     C24045   5.199   9.102   5.046 -0.0254 -0.7192  0.6571
  179MOL0     C24046   5.074   9.036   4.985  0.1465  0.3387 -0.5946
  179MOL0     N24047   4.992   9.141   4.914 -0.7370 -0.4465 -0.2595
  179MOL0     C24048   4.928   9.258   4.963  0.3284  0.0438 -0.5172
  179MOL0     C24049   4.835   9.289   4.873 -0.6437  0.0358  0.2495
  179MOL0     C24050   4.731   9.390   4.889  0.2660  0.2287  0.2259
  179MOL0     C24051   4.604   9.320   4.936 -0.3108 -0.0935  0.5383
  179MOL0     C24052   4.514   9.298   4.813 -0.3367  0.5426  0.5987
  179MOL0     C24053   4.375   9.240   4.845 -0.1999 -0.3147  0.1257
  179MOL0     O24054   4.310   9.208   4.719 -0.0672 -0.7028 -0.1918
  179MOL0     C24055   4.180   9.163   4.733  0.1364  0.3121 -0.1562
  179MOL0     C24056   4.097   9.185   4.631  0.0341 -0.3750  0.4402
  179MOL0     C24057   3.965   9.134   4.630  0.2063 -0.1464 -0.2007
  179MOL0     C24058   3.880   9.181   4.515 -0.8041  1.1443  0.2822
  179MOL0     C24059   3.911   9.077   4.744  0.3776  0.5131  0.0708
  179MOL0     C24060   3.773   9.034   4.768  0.1138 -0.5225  0.9221
  179MOL0     O24061   3.746   9.011   4.898  0.2481  0.4364  1.0266
  179MOL0     C24062   3.621   8.993   4.938 -0.0541 -0.4224  0.2682
  179MOL0     C24063   3.540   9.107   4.953 -0.7167  1.1459 -0.5192
  179MOL0     C24064   3.397   9.091   4.971  0.3805  0.1687  0.5313
  179MOL0     C24065   3.345   8.957   4.982  0.5086 -0.4529 -0.7685
  179MOL0     O24066   3.206   8.935   5.001  0.2208  0.2329 -0.1253
  179MOL0     C24067   3.110   9.046   5.014 -0.0899  0.5367  0.2280
  179MOL0     C24068   2.970   8.993   5.023  0.7429 -0.1265 -0.3220
  179MOL0     C24069   2.852   9.096   5.025  0.1025  0.6140 -0.3226
  179MOL0     C24070   2.726   9.016   5.003 -0.0930  0.4358  0.7057
  179MOL0     C24071   2.614   9.102   4.950  0.5711  0.5464 -0.1003
  179MOL0     C24072   2.518   9.172   5.047  0.2210  0.8322 -0.6744
  179MOL0     C24073   2.445   9.079   5.152 -0.6792 -0.7806  0.2697
  179MOL0     C24074   2.360   9.157   5.243 -0.4558  0.7267  0.2021
  179MOL0    Cl24075   2.251   9.060   5.350  0.5986  0.3603 -0.2155
  179MOL0     C24076   3.430   8.849   4.967 -0.0268 -0.0050 -0.4695
  179MOL0     C24077   3.570   8.865   4.952 -0.0650  1.0232 -0.3585
  179MOL0     O24078   3.698   9.031   4.675 -0.7478 -0.7979 -0.1627
  179MOL0     C24079   4.000   9.055   4.847 -0.1497 -0.8983 -0.5740
  179MOL0     C24080   4.130   9.090   4.844 -0.2197 -0.8814  0.2655
  179MOL0     N24081   4.845   9.198   4.763 -0.3389 -0.9061 -0.3755
  179MOL0     N24082   4.941   9.113   4.794 -0.3677 -0.1449  0.4099
  179MOL0     C24083   5.899   9.086   4.421 -0.2866  0.0738 -0.6311
  179MOL0     C24084   6.024   9.036   4.379  1.6404  0.6610 -0.5149
  179MOL0     C24085   6.450   8.933   4.299  0.9160  0.0945 -0.6694
  179MOL0     C24086   6.511   8.917   4.176 -0.0779 -0.2658  0.7063
  179MOL0     C24087   6.642   8.944   4.166 -0.1053  0.7722  0.2966
  179MOL0     C24088   6.725   8.978   4.270 -0.2698 -0.4740 -0.0358
  179MOL0     O24089   6.860   8.985   4.245  0.0082 -0.0158 -0.2309
  179MOL0     C24090   6.962   8.943   4.338  0.7093  0.6601  0.3225
  179MOL0     C24091   7.091   8.940   4.265 -0.1944 -0.1956  0.0134
  179MOL0     C24092   7.210   8.924   4.371 -0.7314 -0.1473  0.1142
  179MOL0     C24093   7.338   8.964   4.302  0.1121 -0.2798  0.5813
  179MOL0     C24094   7.453   8.942   4.379 -0.0487 -0.8991 -0.0367
  179MOL0     C24095   7.549   8.922   4.453 -0.6050  0.3904  0.0136
  179MOL0     C24096   6.674   8.987   4.395 -0.8291 -0.5436  0.5582
  179MOL0     C24097   6.535   8.966   4.418 -0.2579  0.1151  0.2839
  179MOL0     H24098   6.173   8.963   4.675 -0.1491 -0.7565  0.2902
  179MOL0     H24099   5.950   9.029   4.750 -0.0595  0.5379 -0.4185
  179MOL0     H24100   5.643   9.233   4.474  0.5038  0.3901  2.1959
  179MOL0     H24101   5.604   9.060   4.445 -2.5721 -2.8217  2.6075
  179MOL0     H24102   5.520   9.247   4.635  2.4597  1.1587 -2.9544
  179MOL0     H24103   5.426   9.156   4.517  2.9753  1.3021 -3.0032
  179MOL0     H24104   5.408   8.952   4.650 -1.1064 -0.0663  1.1000
  179MOL0     H24105   5.565   8.985   4.726  0.6749  2.0159  1.9941
  179MOL0     H24106   5.448   9.179   4.855 -0.5485 -2.3110  4.0374
  179MOL0     H24107   5.299   9.113   4.788 -0.6599  0.4198 -0.3936
  179MOL0     H24108   5.308   8.914   4.876  0.0464  2.0022 -1.5228
  179MOL0     H24109   5.466   8.915   4.949 -0.1796 -0.4501 -1.1983
  179MOL0     H24110   5.279   8.913   5.086  0.5211 -0.8719 -3.0637
  179MOL0     H24111   5.393   9.044   5.125 -1.0084  0.1367  1.6496
  179MOL0     H24112   5.179   9.137   5.148  1.2500  2.0740  0.0386
  179MOL0     H24113   5.221   9.196   4.994  1.1108 -1.7161 -0.7239
  179MOL0     H24114   5.005   8.997   5.060 -1.8406  1.9755 -1.4793
  179MOL0     H24115   5.100   8.955   4.915 -1.4962 -1.5977  0.9057
  179MOL0     H24116   4.927   9.304   5.061  1.9750 -2.0193  0.5716
  179MOL0     H24117   4.762   9.477   4.948 -0.4074  1.0621 -0.6234
  179MOL0     H24118   4.713   9.427   4.788 -1.4572  1.3099  0.8741
  179MOL0     H24119   4.558   9.379   5.015  0.2008  1.1079 -0.0291
  179MOL0     H24120   4.628   9.217   4.965  0.8219 -0.0749 -0.2398
  179MOL0     H24121   4.571   9.222   4.759  0.4819  0.0525  2.0936
  179MOL0     H24122   4.508   9.383   4.744  0.1112 -1.5281 -2.2037
  179MOL0     H24123   4.311   9.310   4.900  1.1512  2.7418 -1.9287
  179MOL0     H24124   4.395   9.148   4.900 -0.9664 -0.8563 -0.4922
  179MOL0     H24125   4.132   9.233   4.541  1.8491 -4.3276 -1.2103
  179MOL0     H24126   3.943   9.230   4.441  1.8535 -3.1817 -0.6801
  179MOL0     H24127   3.844   9.087   4.472  1.3915  0.0969  0.5830
  179MOL0     H24128   3.800   9.246   4.552 -0.1929  0.9892  1.9596
  179MOL0     H24129   3.590   9.203   4.961  2.0523 -0.0402 -2.2060
  179MOL0     H24130   3.335   9.178   4.984  1.0214  1.1393 -2.2127
  179MOL0     H24131   3.137   9.108   5.100 -0.7275  2.1533 -0.7011
  179MOL0     H24132   3.116   9.100   4.920 -1.9490 -1.7520 -1.2984
  179MOL0     H24133   2.964   8.934   4.932  1.2383 -1.7948  0.6829
  179MOL0     H24134   2.958   8.924   5.108 -0.5567 -0.4472 -0.7385
  179MOL0     H24135   2.853   9.175   4.949  0.1754 -0.4655 -1.4742
  179MOL0     H24136   2.859   9.143   5.123  4.1587 -2.3474  1.0948
  179MOL0     H24137   2.759   8.945   4.927  0.9015 -1.0391  2.4687
  179MOL0     H24138   2.696   8.958   5.090  2.2204  1.0504  1.9881
  179MOL0     H24139   2.551   9.034   4.893  0.1910 -0.6311  1.6490
  179MOL0     H24140   2.648   9.191   4.896 -0.7254  1.6486  0.8151
  179MOL0     H24141   2.578   9.243   5.105  1.9460 -1.0823  0.0219
  179MOL0     H24142   2.456   9.237   4.986 -0.4178  0.1264 -0.7972
  179MOL0     H24143   2.513   9.040   5.228  1.8384  1.2772 -0.7948
  179MOL0     H24144   2.381   9.009   5.099  0.3320  0.2819 -2.5267
  179MOL0     H24145   2.294   9.228   5.191  0.5845  0.4410 -1.5862
  179MOL0     H24146   2.422   9.227   5.300 -0.0655 -0.2314  0.9763
  179MOL0     H24147   3.389   8.749   4.967 -0.7483  0.2541 -2.5866
  179MOL0     H24148   3.638   8.784   4.932 -0.1356  1.1132 -0.9992
  179MOL0     H24149   3.978   9.015   4.946 -0.0435  1.1346  0.3361
  179MOL0     H24150   4.192   9.071   4.930 -2.9990  0.9169  2.8693
  179MOL0     H24151   5.822   9.126   4.355  1.5420  3.0594 -1.1487
  179MOL0     H24152   6.046   9.048   4.273  0.2906  1.6264 -0.7182
  179MOL0     H24153   6.453   8.890   4.088 -1.3357 -0.3301  1.5194
  179MOL0     H24154   6.687   8.920   4.070  0.7417  0.5680  0.7256
  179MOL0     H24155   6.966   9.018   4.418 -0.2183  2.4468 -1.2090
  179MOL0     H24156   6.941   8.842   4.372  1.9042 -0.9903 -3.3347
  179MOL0     H24157   7.099   9.034   4.209 -1.7660  1.0258  1.7597
  179MOL0     H24158   7.103   8.859   4.192 -0.2852  0.2219 -0.4712
  179MOL0     H24159   7.214   8.818   4.397 -0.4177 -0.9889 -2.9835
  179MOL0     H24160   7.201   8.992   4.457  3.2128 -0.0506  0.6471
  179MOL0     H24161   7.322   9.069   4.277  1.7436 -0.1458  0.0376
  179MOL0     H24162   7.341   8.908   4.209 -3.4708 -0.0671  0.1783
  179MOL0     H24163   7.630   8.907   4.521 -1.3060  0.0730  0.7996
  179MOL0     H24164   6.745   9.001   4.475  1.5270 -2.0614 -1.1294
  179MOL0     H24165   6.501   8.974   4.520  1.2464  1.3742  0.7224
  180MOL0     O24166   2.319   7.197   3.957  0.3958 -0.3597  0.3057
  180MOL0     C24167   2.424   7.187   3.895 -0.4473  0.0808  0.0315
  180MOL0     O24168   2.464   7.254   3.786  0.3352  0.4001  0.1811
  180MOL0     C24169   2.369   7.342   3.740 -0.7267  0.2456  0.3969
  180MOL0     C24170   2.327   7.323   3.611 -0.3539 -0.5175  1.2522
  180MOL0     C24171   2.257   7.426   3.541  0.3667  0.1063  0.1572
  180MOL0     C24172   2.233   7.553   3.595 -0.8618  0.5553  0.6110
  180MOL0     O24173   2.162   7.640   3.520  0.3802 -0.2699 -0.5169
  180MOL0     C24174   2.112   7.757   3.583  0.0526 -1.0575  0.2861
  180MOL0     C24175   1.979   7.744   3.658  0.5682 -0.4284 -0.3603
  180MOL0     C24176   1.872   7.658   3.589  0.1393  0.1148 -0.2653
  180MOL0     C24177   1.802   7.736   3.473 -0.4455 -0.1527  0.6025
  180MOL0     C24178   1.709   7.648   3.392 -0.0859  0.2762  0.0109
  180MOL0     C24179   1.601   7.727   3.318  0.1245 -0.0279 -0.7960
  180MOL0     C24180   1.655   7.822   3.211 -0.0852  1.0968 -0.2870
  180MOL0     C24181   1.542   7.893   3.151  0.3973  0.4062  0.5829
  180MOL0     N24182   1.420   7.821   3.129  0.3453 -0.7379  0.5158
  180MOL0     C24183   1.397   7.728   3.035  0.3864  0.3422 -0.0720
  180MOL0     C24184   1.258   7.708   3.042 -0.4700  0.1767 -0.2791
  180MOL0     C24185   1.175   7.624   2.963 -0.1369  0.1918  0.1087
  180MOL0     C24186   1.098   7.716   2.863  0.6635 -0.4189  0.7036
  180MOL0     C24187   1.038   7.620   2.747 -0.9765 -0.0972 -0.0769
  180MOL0     C24188   0.940   7.696   2.645 -0.3081 -0.0974  0.4160
  180MOL0     O24189   0.919   7.610   2.531 -0.3898  0.5380 -0.0800
  180MOL0     C24190   0.808   7.627   2.457 -0.2256 -0.1574 -0.1518
  180MOL0     C24191   0.716   7.725   2.467  0.8017 -0.4126  0.0903
  180MOL0     C24192   0.597   7.733   2.386  0.0971  0.2583  0.0662
  180MOL0     C24193   0.508   7.854   2.401 -0.3783  0.2474 -0.1701
  180MOL0     C24194   0.576   7.635   2.284  0.6229 -0.0097  0.7144
  180MOL0     C24195   0.464   7.629   2.185  0.3903  1.0466 -0.1496
  180MOL0     O24196   0.465   7.523   2.104 -0.2446  0.9114 -0.1586
  180MOL0     C24197   0.357   7.492   2.024  0.5767  0.3981 -0.2053
  180MOL0     C24198   0.230   7.506   2.080 -0.0703  0.6700 -0.2321
  180MOL0     C24199   0.116   7.475   1.995  0.4801  0.2937 -0.1423
  180MOL0     C24200   0.139   7.432   1.866 -0.2446  0.9393  0.4055
  180MOL0     O24201   0.034   7.386   1.793 -0.1595  0.6871  0.2450
  180MOL0     C24202  -0.047   7.267   1.838  0.8990 -0.7343  0.3938
  180MOL0     C24203  -0.174   7.257   1.742  0.3600 -0.7026  0.0476
  180MOL0     C24204  -0.247   7.390   1.748  0.1879  0.2490 -0.0788
  180MOL0     C24205  -0.363   7.390   1.648 -0.0555 -0.1034 -0.4526
  180MOL0     C24206  -0.418   7.522   1.612  0.4004 -0.8715  0.7788
  180MOL0     C24207  -0.516   7.526   1.492 -0.8941  0.0369 -0.4904
  180MOL0     C24208  -0.454   7.510   1.346  0.7739 -0.2310 -1.2581
  180MOL0     C24209  -0.508   7.399   1.275 -0.3704  0.1363 -0.1558
  180MOL0    Cl24210  -0.682   7.405   1.281 -0.1045  0.1731  0.1265
  180MOL0     C24211   0.268   7.432   1.811 -0.5299 -0.0141  0.0574
  180MOL0     C24212   0.379   7.463   1.890  0.6617  0.5893  0.2321
  180MOL0     O24213   0.377   7.719   2.186  0.1120  0.0206 -0.1999
  180MOL0     C24214   0.673   7.534   2.281 -0.7550  0.6000  1.0039
  180MOL0     C24215   0.788   7.535   2.358 -0.2222 -0.0771 -0.0551
  180MOL0     N24216   1.217   7.770   3.159 -0.2807 -0.8072  0.2490
  180MOL0     N24217   1.309   7.853   3.198  0.3867 -0.0370 -0.0066
  180MOL0     C24218   2.287   7.572   3.730  0.5914 -0.3647 -0.1061
  180MOL0     C24219   2.345   7.465   3.803 -0.0404 -0.9561  0.7849
  180MOL0     C24220   2.533   7.105   3.957  0.3740 -0.3130  0.3925
  180MOL0     C24221   2.671   7.095   3.914  0.2015 -0.5329  0.2419
  180MOL0     C24222   2.767   7.019   3.985  1.0062 -0.6154 -0.0516
  180MOL0     C24223   2.723   6.945   4.099  0.2726  0.0718 -0.0419
  180MOL0     O24224   2.809   6.872   4.176 -0.7550  0.2889 -0.5808
  180MOL0     C24225   2.757   6.822   4.308 -0.1286 -0.2368 -1.4927
  180MOL0     C24226   2.879   6.772   4.385  0.7708  0.4035 -0.6338
  180MOL0     C24227   2.986   6.876   4.395  0.0046 -0.1966 -0.2824
  180MOL0     C24228   3.100   6.858   4.497 -0.0190 -0.7307 -0.3189
  180MOL0     C24229   3.198   6.750   4.463  0.3165 -0.4996 -0.3945
  180MOL0     C24230   3.288   6.668   4.447  0.2392  0.1279 -0.2139
  180MOL0     C24231   2.587   6.940   4.126  0.5455 -0.5643  0.3311
  180MOL0     C24232   2.490   7.017   4.058 -0.4287 -0.1291  0.3402
  180MOL0     H24233   2.343   7.220   3.581 -0.4958 -0.4647  0.9991
  180MOL0     H24234   2.234   7.408   3.436  3.5099 -0.2938 -0.5790
  180MOL0     H24235   2.183   7.813   3.644 -1.8995  3.7270 -1.3843
  180MOL0     H24236   2.109   7.825   3.498  1.2905 -1.9993 -0.5355
  180MOL0     H24237   2.012   7.697   3.750  0.7067  0.9037  0.2936
  180MOL0     H24238   1.943   7.838   3.701  1.5492 -0.9243  1.6686
  180MOL0     H24239   1.921   7.565   3.559  1.9542  0.9525 -0.0517
  180MOL0     H24240   1.790   7.630   3.656 -1.8321  3.3961 -1.0722
  180MOL0     H24241   1.745   7.819   3.514  0.1582 -0.4303  2.0756
  180MOL0     H24242   1.875   7.786   3.409 -0.0318  0.3264  1.4345
  180MOL0     H24243   1.769   7.589   3.322 -1.4978  0.3640 -1.3178
  180MOL0     H24244   1.663   7.579   3.463 -0.0065 -1.4586 -1.5739
  180MOL0     H24245   1.520   7.665   3.280 -0.9856  1.4663 -0.9634
  180MOL0     H24246   1.560   7.803   3.386  0.9763 -0.6168  0.4105
  180MOL0     H24247   1.735   7.888   3.245  3.5278 -2.4855 -1.1119
  180MOL0     H24248   1.703   7.758   3.137  1.7150  4.5406 -2.3721
  180MOL0     H24249   1.574   7.932   3.054 -2.0606 -2.9831 -1.7937
  180MOL0     H24250   1.527   7.984   3.210 -0.5009  0.5137  0.2006
  180MOL0     H24251   1.465   7.697   2.956 -1.5909  2.4533 -2.8414
  180MOL0     H24252   1.234   7.548   2.911 -1.8997 -1.3194  0.1944
  180MOL0     H24253   1.099   7.576   3.026  0.8918  0.6392  1.7673
  180MOL0     H24254   1.169   7.781   2.811 -1.8290  0.5438 -1.7012
  180MOL0     H24255   1.026   7.778   2.917  0.3886 -0.5698  0.5100
  180MOL0     H24256   0.983   7.539   2.796 -2.9298  0.9005 -0.5059
  180MOL0     H24257   1.132   7.591   2.700  0.2820  2.6227  0.5392
  180MOL0     H24258   0.995   7.780   2.603 -1.2732  0.5688  0.4563
  180MOL0     H24259   0.851   7.738   2.692 -1.8354 -1.2061 -1.3416
  180MOL0     H24260   0.723   7.807   2.537 -1.4659 -0.4891  0.4990
  180MOL0     H24261   0.554   7.918   2.477  0.8213 -2.0403  1.1342
  180MOL0     H24262   0.499   7.905   2.305 -0.0815  0.2080 -0.2194
  180MOL0     H24263   0.416   7.821   2.449  0.2745  2.9288  3.3283
  180MOL0     H24264   0.221   7.519   2.187  4.1700  0.4891  0.2936
  180MOL0     H24265   0.015   7.477   2.036  0.1640 -1.2184 -0.7521
  180MOL0     H24266   0.008   7.174   1.822 -0.0829 -0.7764 -4.0538
  180MOL0     H24267  -0.068   7.277   1.944  0.3587  1.0826  0.1466
  180MOL0     H24268  -0.146   7.224   1.641 -2.0403 -0.1827 -0.8672
  180MOL0     H24269  -0.240   7.177   1.777 -0.0464  0.2363  1.5223
  180MOL0     H24270  -0.177   7.467   1.717 -0.7659  1.5633  0.9182
  180MOL0     H24271  -0.279   7.411   1.851  1.3849 -3.5854  1.2813
  180MOL0     H24272  -0.327   7.339   1.558  1.5690 -0.7963  0.5386
  180MOL0     H24273  -0.454   7.340   1.683 -0.0080  0.4673  0.5042
  180MOL0     H24274  -0.337   7.589   1.581 -0.3888 -0.6687 -0.9829
  180MOL0     H24275  -0.478   7.562   1.695 -1.6854 -4.1182  1.0122
  180MOL0     H24276  -0.588   7.448   1.518 -1.0175 -0.2928 -1.7302
  180MOL0     H24277  -0.578   7.616   1.490  0.0983  0.7269 -1.0942
  180MOL0     H24278  -0.348   7.486   1.359 -0.2290 -3.8748  2.5047
  180MOL0     H24279  -0.463   7.601   1.286  2.1233  2.1846  1.9070
  180MOL0     H24280  -0.463   7.314   1.327 -0.7612  0.4630  0.7292
  180MOL0     H24281  -0.459   7.394   1.177  2.8514 -1.1478  1.3564
  180MOL0     H24282   0.283   7.404   1.708  3.3454  0.9487  0.2247
  180MOL0     H24283   0.479   7.466   1.846  0.1358 -2.1864 -1.3602
  180MOL0     H24284   0.654   7.447   2.218 -3.1532 -1.4516  4.1871
  180MOL0     H24285   0.865   7.460   2.345 -0.7158 -0.6413  0.2247
  180MOL0     H24286   2.272   7.661   3.790  1.2702  0.9266 -1.7741
  180MOL0     H24287   2.398   7.495   3.893  2.2098 -1.2438 -0.3822
  180MOL0     H24288   2.708   7.154   3.832  0.7161 -2.6467 -1.1394
  180MOL0     H24289   2.868   7.007   3.945  1.1211 -0.3172  0.1433
  180MOL0     H24290   2.697   6.900   4.356 -0.8820  1.9938 -5.5554
  180MOL0     H24291   2.689   6.737   4.297  2.5026 -2.9658  1.3945
  180MOL0     H24292   2.915   6.681   4.336  2.2655  0.4651  0.2929
  180MOL0     H24293   2.850   6.747   4.487  3.4330  0.0580  0.1211
  180MOL0     H24294   2.946   6.974   4.422  0.7280  0.0856 -0.2031
  180MOL0     H24295   3.030   6.888   4.296 -3.2332 -2.8257 -2.2271
  180MOL0     H24296   3.055   6.842   4.596  1.4288  2.8195  1.1075
  180MOL0     H24297   3.147   6.957   4.501 -1.6622  0.1494 -1.4117
  180MOL0     H24298   3.364   6.597   4.420 -0.2142  0.2523 -1.9127
  180MOL0     H24299   2.551   6.881   4.209  3.5888 -3.2558 -0.0733
  180MOL0     H24300   2.385   7.019   4.085  0.0758  0.7506  2.4459
  181MOL0     O24301   0.584   0.695   7.901  0.6686 -0.5920 -0.0047
  181MOL0     C24302   0.649   0.603   7.936  0.4425 -0.0923 -0.3736
  181MOL0     O24303   0.608   0.490   8.003  0.1805 -0.1648 -0.5433
  181MOL0     C24304   0.473   0.474   8.025  0.4199 -0.4458 -0.8219
  181MOL0     C24305   0.417   0.459   8.151  0.6547  0.4276 -0.5847
  181MOL0     C24306   0.282   0.424   8.163 -1.1510 -0.0563 -0.7184
  181MOL0     C24307   0.200   0.407   8.060  0.1574  0.2376  0.7324
  181MOL0     O24308   0.070   0.381   8.087  0.7037  0.1335 -0.2720
  181MOL0     C24309  -0.019   0.359   7.978 -0.7926  0.7047 -0.6622
  181MOL0     C24310  -0.156   0.299   8.008  0.3329  0.1100 -0.4854
  181MOL0     C24311  -0.261   0.381   7.920  0.1735  0.1105 -0.2358
  181MOL0     C24312  -0.408   0.329   7.932 -0.0904 -0.3130 -0.4058
  181MOL0     C24313  -0.502   0.434   7.865 -0.2647 -0.1799  0.5449
  181MOL0     C24314  -0.647   0.366   7.870 -0.1365  0.7343 -0.1990
  181MOL0     C24315  -0.765   0.468   7.871  0.3166  0.6379 -0.1120
  181MOL0     C24316  -0.810   0.504   7.732 -0.5155 -0.3379 -0.4864
  181MOL0     N24317  -0.874   0.388   7.651 -0.2534 -0.5094  0.1806
  181MOL0     C24318  -1.007   0.392   7.623 -0.8417  0.4810  1.0981
  181MOL0     C24319  -1.036   0.285   7.542 -0.3815  0.1239 -0.7817
  181MOL0     C24320  -1.172   0.252   7.490 -0.6157 -0.7982 -0.3080
  181MOL0     C24321  -1.228   0.134   7.560 -0.3242  0.1894 -0.0319
  181MOL0     C24322  -1.247   0.022   7.458  0.4992  0.5123 -0.0305
  181MOL0     C24323  -1.360   0.056   7.361  0.6740  0.0190 -0.4381
  181MOL0     O24324  -1.475   0.079   7.443  0.6594  0.0923  0.1751
  181MOL0     C24325  -1.592   0.129   7.391  0.4175  0.7736  0.1611
  181MOL0     C24326  -1.602   0.182   7.256 -0.3363  0.7280 -0.3035
  181MOL0     C24327  -1.716   0.244   7.214 -0.2603 -0.5491 -0.2136
  181MOL0     C24328  -1.705   0.311   7.073  0.4502  0.1376 -0.5104
  181MOL0     C24329  -1.827   0.250   7.298 -0.3990 -0.0533  0.5178
  181MOL0     C24330  -1.954   0.308   7.264  0.8485  0.2930 -0.3386
  181MOL0     O24331  -2.062   0.269   7.334  0.2966  0.2375  0.1781
  181MOL0     C24332  -2.195   0.294   7.315 -1.2454 -0.5235  1.0524
  181MOL0     C24333  -2.278   0.307   7.433  0.1914  0.7364  0.1317
  181MOL0     C24334  -2.418   0.316   7.420  0.8365  0.7319 -0.3332
  181MOL0     C24335  -2.484   0.330   7.295 -0.2878  0.3196 -0.9744
  181MOL0     O24336  -2.621   0.348   7.289 -0.2721 -0.2386  0.6986
  181MOL0     C24337  -2.714   0.298   7.393  0.8197 -0.7178  0.2195
  181MOL0     C24338  -2.853   0.316   7.336  0.0093  0.0303 -0.6776
  181MOL0     C24339  -2.956   0.262   7.428 -0.5130  0.0643 -0.1596
  181MOL0     C24340  -3.091   0.288   7.374  0.5705  0.0298 -0.3456
  181MOL0     C24341  -3.187   0.181   7.436  0.2377  0.3014  0.1995
  181MOL0     C24342  -3.329   0.217   7.402  0.7457 -0.4966 -0.5771
  181MOL0     C24343  -3.420   0.137   7.502  0.4948  0.1134  0.2231
  181MOL0     C24344  -3.559   0.210   7.487  0.5272  0.5438  0.2094
  181MOL0    Cl24345  -3.579   0.354   7.598 -0.0079  0.1880 -0.2694
  181MOL0     C24346  -2.399   0.330   7.184  0.3141 -0.7464  0.0534
  181MOL0     C24347  -2.259   0.305   7.190 -0.2260  0.2859  0.6759
  181MOL0     O24348  -1.962   0.388   7.175  0.0231  0.6530  0.2766
  181MOL0     C24349  -1.820   0.201   7.429  1.0064 -0.2825  0.5938
  181MOL0     C24350  -1.699   0.140   7.477 -0.3864 -0.6620 -0.0109
  181MOL0     N24351  -0.909   0.228   7.516 -0.0993  0.3222 -0.3673
  181MOL0     N24352  -0.816   0.290   7.582  0.5612  0.5895 -0.0351
  181MOL0     C24353   0.249   0.433   7.934  0.4849  0.3940 -0.1527
  181MOL0     C24354   0.387   0.461   7.913  0.7491 -0.2238 -0.4857
  181MOL0     C24355   0.788   0.598   7.899  0.0005 -0.0210  0.0606
  181MOL0     C24356   0.847   0.714   7.854 -0.6176  0.8083  0.1844
  181MOL0     C24357   0.989   0.712   7.843 -0.1757 -1.4086 -0.4018
  181MOL0     C24358   1.075   0.604   7.869  0.5895 -0.7945 -0.3525
  181MOL0     O24359   1.211   0.610   7.832  0.3298  0.1164 -0.2613
  181MOL0     C24360   1.292   0.495   7.872  0.7201 -0.7198 -0.4129
  181MOL0     C24361   1.431   0.513   7.815  0.7608  0.5145 -0.8598
  181MOL0     C24362   1.442   0.554   7.670 -0.0922 -0.1176  0.3135
  181MOL0     C24363   1.583   0.558   7.621  0.5297 -0.4725  0.0875
  181MOL0     C24364   1.630   0.427   7.571  0.4929 -0.3908  0.3637
  181MOL0     C24365   1.666   0.314   7.554  0.2948  0.3815  0.1033
  181MOL0     C24366   1.003   0.483   7.911 -1.1901  0.3793  0.2039
  181MOL0     C24367   0.866   0.482   7.935 -0.1489  0.0591 -0.1396
  181MOL0     H24368   0.489   0.455   8.232 -0.9414 -1.6332  0.8266
  181MOL0     H24369   0.249   0.407   8.265 -1.3525 -2.3201 -1.0974
  181MOL0     H24370  -0.044   0.451   7.925 -1.7934 -0.2159 -1.8524
  181MOL0     H24371   0.028   0.286   7.912  0.5694 -1.5220  2.5261
  181MOL0     H24372  -0.157   0.191   7.990  0.1753 -0.0298  0.3143
  181MOL0     H24373  -0.173   0.310   8.116  1.4328 -3.7151  0.2227
  181MOL0     H24374  -0.257   0.489   7.939 -2.0286  0.3887 -1.0209
  181MOL0     H24375  -0.229   0.370   7.816 -0.5952  1.4246 -0.6401
  181MOL0     H24376  -0.423   0.236   7.876 -3.4811  0.5338 -1.1400
  181MOL0     H24377  -0.426   0.316   8.039  0.4785  1.9884  0.0093
  181MOL0     H24378  -0.503   0.532   7.914  3.9116  0.8753 -1.0755
  181MOL0     H24379  -0.478   0.447   7.759  2.0124 -3.1294  0.5735
  181MOL0     H24380  -0.649   0.306   7.778 -0.4602 -0.0910  0.3288
  181MOL0     H24381  -0.658   0.299   7.956 -1.0290 -0.0257 -0.8711
  181MOL0     H24382  -0.849   0.416   7.917 -0.7238  1.4542 -1.0308
  181MOL0     H24383  -0.733   0.558   7.923  0.4736  0.0773  0.7935
  181MOL0     H24384  -0.718   0.542   7.686  0.6504  0.1082  2.0661
  181MOL0     H24385  -0.881   0.587   7.736  0.6611  0.6530  0.3883
  181MOL0     H24386  -1.084   0.460   7.659  1.1956  3.0839  0.9114
  181MOL0     H24387  -1.236   0.339   7.506 -2.2269 -1.7606 -1.2650
  181MOL0     H24388  -1.158   0.243   7.382  1.4737  1.7655 -0.3637
  181MOL0     H24389  -1.323   0.162   7.608 -1.7757 -0.1228 -2.5752
  181MOL0     H24390  -1.166   0.111   7.647  0.4331  2.6785  0.1732
  181MOL0     H24391  -1.283  -0.066   7.512  0.6764 -1.2800 -2.6029
  181MOL0     H24392  -1.151  -0.001   7.411 -0.8485 -2.1970 -1.7304
  181MOL0     H24393  -1.382  -0.025   7.292  3.1445 -1.5240  0.4380
  181MOL0     H24394  -1.316   0.135   7.299  1.6155 -1.5774 -1.8851
  181MOL0     H24395  -1.516   0.176   7.189 -0.1861 -1.1259 -0.0052
  181MOL0     H24396  -1.606   0.323   7.027  0.6200  0.0486 -0.1747
  181MOL0     H24397  -1.771   0.259   7.003  1.8068 -0.6161 -1.2650
  181MOL0     H24398  -1.742   0.413   7.087 -1.7304 -0.7406  0.6316
  181MOL0     H24399  -2.239   0.279   7.531 -1.8527 -0.9124  0.5541
  181MOL0     H24400  -2.473   0.304   7.513  1.0832  0.6011 -0.2023
  181MOL0     H24401  -2.700   0.191   7.406  1.9163 -0.9696 -2.4379
  181MOL0     H24402  -2.711   0.353   7.488 -0.9931  0.3406 -0.2900
  181MOL0     H24403  -2.875   0.421   7.314 -2.4786  0.0208  1.2422
  181MOL0     H24404  -2.861   0.259   7.243 -2.3009 -1.0846  0.1152
  181MOL0     H24405  -2.962   0.314   7.524  0.9507  2.6868 -1.4069
  181MOL0     H24406  -2.931   0.158   7.451  0.1414  0.6095  1.7759
  181MOL0     H24407  -3.125   0.388   7.402 -0.9430 -0.4650 -0.3600
  181MOL0     H24408  -3.100   0.282   7.265 -0.5558  1.3965 -0.3454
  181MOL0     H24409  -3.173   0.176   7.544 -1.9499  0.7751  0.5571
  181MOL0     H24410  -3.173   0.083   7.389  0.9291  0.1623  0.6802
  181MOL0     H24411  -3.333   0.322   7.433 -0.2333 -1.4019  2.7915
  181MOL0     H24412  -3.362   0.190   7.302 -0.4737  0.4536 -0.4563
  181MOL0     H24413  -3.389   0.152   7.605  0.1668  0.2599  0.3005
  181MOL0     H24414  -3.431   0.033   7.470 -2.1069  0.1296  0.8035
  181MOL0     H24415  -3.640   0.137   7.496  1.1089 -0.0716  0.6145
  181MOL0     H24416  -3.571   0.256   7.389  2.7900  2.1189  0.5989
  181MOL0     H24417  -2.457   0.339   7.093  1.7031 -1.0582 -0.8830
  181MOL0     H24418  -2.198   0.287   7.102  0.9566 -0.3462  1.5813
  181MOL0     H24419  -1.900   0.205   7.502  0.3521 -0.5577 -0.0890
  181MOL0     H24420  -1.703   0.101   7.578  1.8038 -0.9909 -0.0075
  181MOL0     H24421   0.190   0.434   7.843  0.9688  2.3690 -0.4992
  181MOL0     H24422   0.439   0.469   7.817  1.7668  1.3533  0.1521
  181MOL0     H24423   0.799   0.808   7.826  2.6127  1.9684 -2.0567
  181MOL0     H24424   1.028   0.809   7.816  2.0150 -2.1957 -0.2339
  181MOL0     H24425   1.292   0.492   7.982  1.5040  2.5563 -0.2259
  181MOL0     H24426   1.256   0.398   7.839 -0.1406 -1.0900  1.4654
  181MOL0     H24427   1.482   0.416   7.825  2.6268  1.5559  0.1452
  181MOL0     H24428   1.486   0.576   7.885 -0.4552  0.8739 -0.2077
  181MOL0     H24429   1.401   0.656   7.665  0.5996  0.5275  4.1906
  181MOL0     H24430   1.387   0.486   7.605  0.2429  0.6468 -0.7874
  181MOL0     H24431   1.657   0.593   7.694  2.2587  1.1962 -2.2931
  181MOL0     H24432   1.592   0.634   7.542 -0.4967  0.4220  0.8016
  181MOL0     H24433   1.700   0.212   7.556  0.5270  0.3388 -2.5594
  181MOL0     H24434   1.050   0.386   7.921 -0.0650  0.9538  0.7076
  181MOL0     H24435   0.814   0.391   7.965 -0.2542  0.3095  0.4370
  182MOL0     O24436   9.208   7.914  10.982  0.5442 -0.3508 -0.7009
  182MOL0     C24437   9.217   8.030  11.002 -0.2898 -0.3070 -0.2524
  182MOL0     O24438   9.114   8.112  11.015 -0.1828 -0.7178  0.1729
  182MOL0     C24439   8.989   8.063  11.030 -0.2567  0.4423 -0.4650
  182MOL0     C24440   8.937   7.937  11.064  0.2468  0.0936 -0.5730
  182MOL0     C24441   8.799   7.915  11.060  0.0219  0.7217  0.7766
  182MOL0     C24442   8.709   8.016  11.038  0.8041 -0.0735 -0.5585
  182MOL0     O24443   8.570   7.997  11.039 -0.6540 -0.2215 -0.0236
  182MOL0     C24444   8.501   7.903  11.123  0.0102 -0.5677 -0.1878
  182MOL0     C24445   8.364   7.853  11.070 -0.1191 -0.0754 -0.4195
  182MOL0     C24446   8.314   7.742  11.167 -0.2043 -0.6621 -0.2048
  182MOL0     C24447   8.192   7.672  11.117  0.7808 -0.1459  0.3245
  182MOL0     C24448   8.126   7.579  11.220  0.4746 -0.5588  0.5051
  182MOL0     C24449   8.006   7.509  11.163  0.9960 -0.5443  0.2088
  182MOL0     C24450   7.936   7.431  11.271  0.0207 -1.0327 -0.0347
  182MOL0     C24451   7.813   7.360  11.219  0.4599  0.1052  0.0705
  182MOL0     N24452   7.842   7.239  11.146  0.5478  0.0865  0.4010
  182MOL0     C24453   7.847   7.115  11.199  0.3242  1.1190  0.3004
  182MOL0     C24454   7.858   7.022  11.101  0.0097  0.2423  0.3847
  182MOL0     C24455   7.868   6.871  11.117 -0.7844 -0.8261  0.1719
  182MOL0     C24456   7.738   6.801  11.112  0.6699  0.6526  0.9412
  182MOL0     C24457   7.744   6.656  11.149  0.5595 -0.0057 -0.0265
  182MOL0     C24458   7.608   6.589  11.128 -0.6724 -0.2932  0.0173
  182MOL0     O24459   7.510   6.631  11.224 -0.1119 -0.2079 -0.0526
  182MOL0     C24460   7.384   6.603  11.202  0.2936 -0.0288  1.0150
  182MOL0     C24461   7.286   6.682  11.260  0.3552  0.2904  0.3825
  182MOL0     C24462   7.144   6.652  11.237  0.1796  0.5809  0.2333
  182MOL0     C24463   7.052   6.762  11.291  0.4606 -0.2902  0.6884
  182MOL0     C24464   7.109   6.545  11.154  0.0287 -0.5398  0.0406
  182MOL0     C24465   6.971   6.499  11.127 -0.2700 -0.1235  0.9462
  182MOL0     O24466   6.937   6.464  10.998 -1.0466 -0.0096 -0.1581
  182MOL0     C24467   6.812   6.412  10.972 -0.5019 -1.5626  0.0957
  182MOL0     C24468   6.689   6.465  10.993 -0.0399  0.3619  0.2132
  182MOL0     C24469   6.574   6.403  10.939  0.2520  0.1998  0.7368
  182MOL0     C24470   6.580   6.297  10.840 -0.3473  0.2952 -0.2028
  182MOL0     O24471   6.471   6.237  10.777  0.0837  0.8999 -0.2926
  182MOL0     C24472   6.367   6.330  10.727  0.3064 -1.0106 -0.0979
  182MOL0     C24473   6.238   6.261  10.697 -0.2587  0.4692 -1.0984
  182MOL0     C24474   6.181   6.187  10.817 -0.8103 -0.2373 -0.1316
  182MOL0     C24475   6.164   6.274  10.943  0.0146  0.4142 -0.0043
  182MOL0     C24476   6.103   6.193  11.059  0.2017 -0.6041 -0.6282
  182MOL0     C24477   6.082   6.266  11.199  0.3016  0.3384 -0.8280
  182MOL0     C24478   5.962   6.198  11.280 -0.7967 -0.1823  0.0414
  182MOL0     C24479   5.958   6.243  11.426 -0.3398 -0.5769 -0.0974
  182MOL0    Cl24480   6.119   6.229  11.497 -0.0886  0.1753 -0.0089
  182MOL0     C24481   6.712   6.261  10.811 -0.0718 -0.2565  0.7820
  182MOL0     C24482   6.826   6.317  10.875  0.4565 -0.3748  0.1071
  182MOL0     O24483   6.892   6.496  11.218 -0.5309  0.3341 -0.5753
  182MOL0     C24484   7.208   6.480  11.083  0.1393  0.5001 -0.0675
  182MOL0     C24485   7.343   6.505  11.112 -0.6091  0.1534 -0.2694
  182MOL0     N24486   7.874   7.089  10.986  0.4697  0.4217 -0.0800
  182MOL0     N24487   7.852   7.217  11.016  0.4955  0.3136  0.2286
  182MOL0     C24488   8.761   8.149  11.012 -0.6107  0.0499  0.4692
  182MOL0     C24489   8.898   8.167  11.004  0.7790  0.2839  0.1914
  182MOL0     C24490   9.357   8.084  11.000  0.3607  0.7554  0.6404
  182MOL0     C24491   9.474   8.005  10.975  0.3002 -0.1426  0.2341
  182MOL0     C24492   9.599   8.063  10.977 -0.0726  1.0492 -0.2547
  182MOL0     C24493   9.614   8.203  10.984  0.1658  0.6483 -0.7703
  182MOL0     O24494   9.729   8.275  10.966 -0.6483 -0.4624 -0.5773
  182MOL0     C24495   9.855   8.199  10.940 -0.3741  0.4111 -0.8023
  182MOL0     C24496   9.924   8.133  11.067 -0.3544  0.2506 -0.3242
  182MOL0     C24497  10.060   8.074  11.033 -0.0087  0.5581 -0.8531
  182MOL0     C24498  10.174   8.178  11.015  0.4537  0.0918  0.2092
  182MOL0     C24499  10.297   8.113  10.967 -0.2613  0.0046  0.0890
  182MOL0     C24500  10.409   8.059  10.943 -0.1605 -1.2138  0.4680
  182MOL0     C24501   9.499   8.281  11.003 -0.8145  0.2390 -0.2488
  182MOL0     C24502   9.374   8.223  11.016 -0.0872  0.8144 -0.4175
  182MOL0     H24503   9.001   7.853  11.088  0.9222  1.2501  2.0872
  182MOL0     H24504   8.767   7.812  11.074 -0.3860  0.5461 -1.1507
  182MOL0     H24505   8.562   7.814  11.143  0.0604 -0.8545 -1.5253
  182MOL0     H24506   8.484   7.951  11.219 -3.8443 -1.5558 -0.2315
  182MOL0     H24507   8.296   7.939  11.079  1.1888  0.8119  1.7341
  182MOL0     H24508   8.372   7.817  10.967 -3.4436  0.3472 -0.9437
  182MOL0     H24509   8.394   7.667  11.163  1.6048  1.1572  0.4089
  182MOL0     H24510   8.311   7.785  11.268 -1.7984  0.5179 -0.7181
  182MOL0     H24511   8.117   7.734  11.068  0.2386  0.7681  2.2156
  182MOL0     H24512   8.226   7.615  11.030 -1.3704  0.5502 -1.0607
  182MOL0     H24513   8.196   7.500  11.248  2.5115  0.7360 -0.5731
  182MOL0     H24514   8.099   7.632  11.312 -2.2635 -2.9173  1.1779
  182MOL0     H24515   7.944   7.584  11.112  2.4810  1.8402  1.6749
  182MOL0     H24516   8.032   7.431  11.091  3.2424 -0.2862  0.6409
  182MOL0     H24517   8.003   7.364  11.325  0.3803 -0.2711  0.4806
  182MOL0     H24518   7.903   7.494  11.354  1.0555  0.0739 -0.4361
  182MOL0     H24519   7.761   7.430  11.153  1.2812 -1.1703 -2.0286
  182MOL0     H24520   7.756   7.339  11.310  0.5371 -0.9252 -0.1096
  182MOL0     H24521   7.832   7.081  11.301 -2.8350 -1.3248 -0.8298
  182MOL0     H24522   7.944   6.827  11.052  2.9083  2.3616  1.9368
  182MOL0     H24523   7.900   6.865  11.222 -3.1747 -0.8236  0.9609
  182MOL0     H24524   7.702   6.817  11.010  0.7613  0.5215  0.8885
  182MOL0     H24525   7.661   6.839  11.179  0.5742 -0.2098  1.3307
  182MOL0     H24526   7.782   6.653  11.252 -2.4459  2.8557  1.3700
  182MOL0     H24527   7.813   6.601  11.085 -2.7210 -3.5413 -0.8921
  182MOL0     H24528   7.624   6.482  11.140  1.2359  0.1167  1.6520
  182MOL0     H24529   7.568   6.617  11.030  1.8826 -2.2290 -1.6900
  182MOL0     H24530   7.325   6.764  11.321  0.1845  0.7744 -0.1517
  182MOL0     H24531   7.110   6.814  11.368  0.2660 -1.0731  1.3835
  182MOL0     H24532   7.042   6.831  11.207  0.2543 -0.7960  0.2882
  182MOL0     H24533   6.954   6.723  11.320  0.8172 -2.3885 -0.6928
  182MOL0     H24534   6.681   6.554  11.053 -0.9755  0.1010  0.4885
  182MOL0     H24535   6.484   6.453  10.973  1.2694  3.6543 -1.1398
  182MOL0     H24536   6.336   6.405  10.800 -0.3961 -2.1574  0.8111
  182MOL0     H24537   6.401   6.391  10.642 -1.6985  1.3663  0.6713
  182MOL0     H24538   6.156   6.326  10.667 -1.9206 -0.0679  1.8200
  182MOL0     H24539   6.247   6.191  10.613 -2.1320 -2.4102  0.8929
  182MOL0     H24540   6.248   6.105  10.845 -0.0537 -0.1796 -1.6631
  182MOL0     H24541   6.087   6.137  10.789  0.5644 -1.1913 -3.6313
  182MOL0     H24542   6.261   6.304  10.984 -0.3017  1.1279  0.2453
  182MOL0     H24543   6.110   6.362  10.907  1.3685  0.7452 -1.3522
  182MOL0     H24544   6.155   6.103  11.093  3.5548  1.8989  1.5265
  182MOL0     H24545   6.006   6.152  11.029 -0.5138  1.6420 -1.6238
  182MOL0     H24546   6.179   6.266  11.251  1.9418 -0.8385 -3.6825
  182MOL0     H24547   6.058   6.372  11.189 -0.4938  0.1567 -0.8541
  182MOL0     H24548   5.958   6.089  11.273  0.4651 -0.4342  2.3347
  182MOL0     H24549   5.869   6.234  11.235  0.0839  0.0565 -1.6560
  182MOL0     H24550   5.884   6.183  11.480 -1.2948  0.8992  0.2758
  182MOL0     H24551   5.912   6.342  11.418 -2.3765 -1.4258  0.3215
  182MOL0     H24552   6.728   6.177  10.743  0.3998  0.5278 -0.0986
  182MOL0     H24553   6.922   6.269  10.860 -1.1445 -3.0934 -2.4075
  182MOL0     H24554   7.184   6.400  11.014  1.7717  1.2453 -1.5873
  182MOL0     H24555   7.409   6.429  11.071 -1.0814 -0.0461 -0.6738
  182MOL0     H24556   8.698   8.235  10.989  3.4245  3.5004  0.9715
  182MOL0     H24557   8.931   8.269  10.987  3.7919 -0.0837  2.9020
  182MOL0     H24558   9.469   7.897  10.968  1.3290 -0.5795  3.9595
  182MOL0     H24559   9.676   7.988  10.961 -1.6050 -0.7382  0.3082
  182MOL0     H24560   9.840   8.115  10.871 -0.3834 -0.1975 -0.0803
  182MOL0     H24561   9.922   8.276  10.902 -1.0390  1.8278  0.7626
  182MOL0     H24562   9.856   8.057  11.107  1.3506 -0.9848  0.3430
  182MOL0     H24563   9.945   8.216  11.136 -1.0926 -0.2964  0.5834
  182MOL0     H24564  10.051   8.023  10.936 -1.9373  1.6688 -1.3006
  182MOL0     H24565  10.081   8.001  11.112 -0.4386  1.2548 -0.0779
  182MOL0     H24566  10.199   8.222  11.112 -0.7346 -2.1675  1.6334
  182MOL0     H24567  10.152   8.265  10.952 -1.2756 -0.5149 -0.0669
  182MOL0     H24568  10.508   8.020  10.937 -0.5285 -2.3441  1.3168
  182MOL0     H24569   9.516   8.388  11.011 -0.1613  0.2682 -1.8091
  182MOL0     H24570   9.289   8.288  11.031 -1.8101 -1.5805  0.7611
  183MOL0     O24571   9.770   0.453   5.617 -0.5543 -0.2967 -0.3862
  183MOL0     C24572   9.742   0.561   5.662 -0.0953  0.0831  0.3651
  183MOL0     O24573   9.615   0.609   5.686 -0.3252  0.1571  0.1141
  183MOL0     C24574   9.516   0.571   5.596 -0.4047 -1.0384  0.0696
  183MOL0     C24575   9.533   0.512   5.473  0.1179  0.0872  0.3182
  183MOL0     C24576   9.430   0.489   5.386 -0.0867 -0.4692  0.0308
  183MOL0     C24577   9.297   0.514   5.424  0.3734 -0.1110  0.6387
  183MOL0     O24578   9.196   0.489   5.329  0.4230  0.7631  0.0693
  183MOL0     C24579   9.061   0.475   5.377 -0.0040 -0.0691  0.3254
  183MOL0     C24580   8.966   0.396   5.289  1.0039  0.2488 -1.0499
  183MOL0     C24581   8.821   0.442   5.299  0.2958  0.5259  0.6203
  183MOL0     C24582   8.729   0.361   5.203  0.8042  0.1467  0.3951
  183MOL0     C24583   8.611   0.442   5.138 -0.0944  0.3254  0.5922
  183MOL0     C24584   8.519   0.334   5.056  0.3252  0.1183 -0.2695
  183MOL0     C24585   8.372   0.387   5.047 -0.1652 -0.7078  0.2282
  183MOL0     C24586   8.362   0.486   4.932 -0.2894 -0.3191 -0.2217
  183MOL0     N24587   8.234   0.559   4.929 -1.1437 -0.2566 -0.5259
  183MOL0     C24588   8.232   0.688   4.971 -0.2754 -0.3225 -0.1728
  183MOL0     C24589   8.109   0.732   4.924 -0.1790 -0.5305 -0.0144
  183MOL0     C24590   8.054   0.864   4.965  0.2841  0.2689  0.1481
  183MOL0     C24591   8.135   0.980   4.907  0.6362 -0.0122 -0.0296
  183MOL0     C24592   8.084   1.114   4.954  1.1469 -0.2651 -1.1032
  183MOL0     C24593   8.142   1.227   4.866 -0.1722  0.3495  0.5952
  183MOL0     O24594   8.062   1.246   4.740 -0.4429 -0.3152  0.2294
  183MOL0     C24595   7.936   1.292   4.749 -0.1542 -0.0196  0.0462
  183MOL0     C24596   7.853   1.280   4.638  0.1342  1.0453 -0.3960
  183MOL0     C24597   7.715   1.304   4.646 -0.5680 -0.6883 -0.3081
  183MOL0     C24598   7.642   1.279   4.518 -0.4501  0.3937 -0.0340
  183MOL0     C24599   7.656   1.358   4.765  0.2085 -0.5016 -0.2370
  183MOL0     C24600   7.518   1.412   4.770 -0.5964 -0.7105 -0.0904
  183MOL0     O24601   7.486   1.482   4.880  0.1273  0.4106 -0.1917
  183MOL0     C24602   7.369   1.551   4.895  0.2751 -0.3971  0.6595
  183MOL0     C24603   7.309   1.624   4.794 -0.3163 -0.2470  0.4571
  183MOL0     C24604   7.190   1.707   4.813 -0.6164 -0.8469 -0.5176
  183MOL0     C24605   7.145   1.718   4.950 -1.6345  0.1641 -0.4487
  183MOL0     O24606   7.047   1.804   4.973 -0.5036 -0.0262  0.3183
  183MOL0     C24607   6.939   1.771   5.056  0.2876 -0.3587  0.1252
  183MOL0     C24608   6.849   1.889   5.082 -0.5712 -0.1401  0.0055
  183MOL0     C24609   6.712   1.839   5.136 -0.5845 -0.7808  0.2403
  183MOL0     C24610   6.640   1.962   5.183  0.7486 -0.0017  0.3544
  183MOL0     C24611   6.587   2.046   5.074  0.2489 -1.0418  1.3002
  183MOL0     C24612   6.528   2.184   5.128 -0.0055 -0.3666  0.3602
  183MOL0     C24613   6.391   2.159   5.180 -0.3148  0.2837 -0.0465
  183MOL0     C24614   6.325   2.298   5.208 -0.7774  0.2214  0.8853
  183MOL0    Cl24615   6.190   2.273   5.308  0.4863  0.0489 -0.4748
  183MOL0     C24616   7.205   1.633   5.047 -0.4203 -0.6679 -0.4068
  183MOL0     C24617   7.312   1.552   5.023 -1.0735 -0.9678 -0.2623
  183MOL0     O24618   7.441   1.386   4.678  0.2102 -0.5371  0.0878
  183MOL0     C24619   7.744   1.373   4.877  0.0672  0.2951  0.3940
  183MOL0     C24620   7.880   1.341   4.866  0.1019  0.5653 -0.4464
  183MOL0     N24621   8.058   0.628   4.850 -0.0921  0.1907 -0.1032
  183MOL0     N24622   8.126   0.528   4.858 -0.3992  0.4842  0.3074
  183MOL0     C24623   9.281   0.575   5.548  0.1821  0.1250  0.2070
  183MOL0     C24624   9.387   0.603   5.634 -0.4101  0.5799 -0.1124
  183MOL0     C24625   9.848   0.651   5.716  0.1049  0.7315  0.3203
  183MOL0     C24626   9.980   0.601   5.712 -0.5122 -0.5551  0.3738
  183MOL0     C24627  10.082   0.673   5.783  0.6941  0.2954  0.5238
  183MOL0     C24628  10.060   0.799   5.835 -1.0344  0.5678  0.0027
  183MOL0     O24629  10.167   0.862   5.907 -0.2124  0.0417  0.4356
  183MOL0     C24630  10.170   1.006   5.923 -0.1833 -0.2243 -0.1954
  183MOL0     C24631  10.312   1.055   5.912  0.1366  1.1672  0.3389
  183MOL0     C24632  10.400   0.959   5.990 -0.3785  0.1166  0.8464
  183MOL0     C24633  10.553   1.006   6.002  0.4422 -0.8745  0.8523
  183MOL0     C24634  10.622   0.973   5.874  0.4173  0.1174  0.6466
  183MOL0     C24635  10.687   0.943   5.771  0.4953 -0.6075 -0.2399
  183MOL0     C24636   9.930   0.850   5.818 -0.6248  0.0772 -0.2955
  183MOL0     C24637   9.819   0.776   5.767 -0.1777 -0.1353 -0.3879
  183MOL0     H24638   9.627   0.483   5.427  1.0740  2.2718  0.7662
  183MOL0     H24639   9.443   0.457   5.284 -0.2960 -0.4616  0.0016
  183MOL0     H24640   9.062   0.434   5.479  1.1864  2.2565  1.3265
  183MOL0     H24641   9.024   0.576   5.396 -0.4017 -0.4421  1.6469
  183MOL0     H24642   9.002   0.408   5.187  1.9414  0.9326 -0.6564
  183MOL0     H24643   8.982   0.294   5.325 -0.4765  0.4329  0.2616
  183MOL0     H24644   8.793   0.436   5.404  0.5771  0.9046  0.7204
  183MOL0     H24645   8.818   0.546   5.264  2.1988 -0.4854 -3.0502
  183MOL0     H24646   8.772   0.305   5.119  1.2550 -1.8040  1.8440
  183MOL0     H24647   8.682   0.288   5.270 -1.2694 -0.0831 -1.1912
  183MOL0     H24648   8.551   0.488   5.217  0.7717  1.7097  0.4698
  183MOL0     H24649   8.642   0.527   5.078 -0.3184 -0.4356 -0.6277
  183MOL0     H24650   8.550   0.314   4.953 -2.3700 -1.7691 -0.8034
  183MOL0     H24651   8.526   0.238   5.107  0.2495 -1.2589 -2.7353
  183MOL0     H24652   8.313   0.295   5.034  0.3319 -0.8034 -1.5314
  183MOL0     H24653   8.330   0.435   5.136 -0.5569 -1.3468  0.3965
  183MOL0     H24654   8.381   0.434   4.837  2.2705 -1.4072  0.7933
  183MOL0     H24655   8.436   0.566   4.938 -0.2053 -0.4187  0.0702
  183MOL0     H24656   8.305   0.750   5.022  0.6423 -0.2256 -1.5603
  183MOL0     H24657   7.949   0.862   4.935  0.1611 -2.8077  0.4396
  183MOL0     H24658   8.048   0.873   5.074  0.4127  0.0934  0.1695
  183MOL0     H24659   8.124   0.985   4.798  0.7740 -0.1511 -0.0498
  183MOL0     H24660   8.241   0.977   4.937  0.6857  2.6766  0.2887
  183MOL0     H24661   8.109   1.126   5.059 -1.4721 -1.9626 -0.1963
  183MOL0     H24662   7.977   1.098   4.943  1.2322 -2.0704  0.1522
  183MOL0     H24663   8.248   1.208   4.842 -0.4777 -0.0199 -0.5527
  183MOL0     H24664   8.149   1.318   4.926 -0.2954  2.1298 -1.8959
  183MOL0     H24665   7.899   1.235   4.550 -2.0006  0.3913 -1.2387
  183MOL0     H24666   7.700   1.217   4.449  1.9179  1.5747  0.7834
  183MOL0     H24667   7.543   1.239   4.540 -0.1172 -0.7620 -0.5661
  183MOL0     H24668   7.618   1.378   4.478 -1.1168  1.0375  1.8602
  183MOL0     H24669   7.353   1.622   4.695  1.6848 -0.2564  1.2992
  183MOL0     H24670   7.143   1.756   4.728 -0.7304 -3.1110 -1.8483
  183MOL0     H24671   6.873   1.693   5.017 -0.7279  1.1119 -1.2446
  183MOL0     H24672   6.980   1.731   5.149  2.4268 -1.0855 -1.0770
  183MOL0     H24673   6.890   1.957   5.157  1.4669 -2.3138  0.9738
  183MOL0     H24674   6.838   1.940   4.986 -1.2140 -1.7431 -0.8115
  183MOL0     H24675   6.726   1.787   5.231  1.8590  2.6078  1.9341
  183MOL0     H24676   6.665   1.791   5.049  1.6347  0.0877 -1.5204
  183MOL0     H24677   6.553   1.933   5.243 -1.2911  2.0276 -1.4123
  183MOL0     H24678   6.701   2.029   5.245 -0.6755  1.4090  0.2858
  183MOL0     H24679   6.505   1.995   5.022 -1.0492 -1.4922  3.6336
  183MOL0     H24680   6.670   2.065   5.006  0.2168  0.0270  1.5493
  183MOL0     H24681   6.596   2.216   5.206  1.0789 -3.1496  0.6673
  183MOL0     H24682   6.526   2.251   5.041  2.9677 -1.9281 -1.0557
  183MOL0     H24683   6.396   2.093   5.267 -0.3495 -1.7994 -1.5532
  183MOL0     H24684   6.341   2.118   5.092  1.8857  0.0462 -1.2476
  183MOL0     H24685   6.303   2.347   5.113  0.1146 -1.0922 -0.0239
  183MOL0     H24686   6.402   2.362   5.253  1.0893  0.0171 -1.7851
  183MOL0     H24687   7.164   1.641   5.148 -0.1361  0.7044 -0.3743
  183MOL0     H24688   7.349   1.478   5.093  0.1322  1.6999  2.0952
  183MOL0     H24689   7.711   1.423   4.968  0.4885 -0.1276  0.7869
  183MOL0     H24690   7.942   1.361   4.952 -0.9028 -0.4144  0.5420
  183MOL0     H24691   9.192   0.593   5.608  1.2235 -1.5269  2.3934
  183MOL0     H24692   9.366   0.647   5.731  0.6731  2.7955 -0.8061
  183MOL0     H24693  10.002   0.509   5.660  1.0535  1.1746 -2.1967
  183MOL0     H24694  10.179   0.625   5.790  0.3792 -0.4333  0.0242
  183MOL0     H24695  10.117   1.053   5.840  0.4279 -0.6059 -0.8129
  183MOL0     H24696  10.122   1.033   6.017  1.0388  3.1790 -0.4001
  183MOL0     H24697  10.323   1.157   5.951  0.5695  0.2362  2.8628
  183MOL0     H24698  10.345   1.045   5.808 -1.3340  0.2963 -0.0667
  183MOL0     H24699  10.406   0.856   5.953  0.7821  0.1323  0.9319
  183MOL0     H24700  10.367   0.953   6.094  1.0767 -1.1612  1.2849
  183MOL0     H24701  10.603   0.968   6.091 -0.1523 -1.0410  1.1230
  183MOL0     H24702  10.549   1.115   6.007  0.6423 -0.5852 -2.5097
  183MOL0     H24703  10.762   0.924   5.697  0.8152  0.2444 -0.1434
  183MOL0     H24704   9.909   0.948   5.859 -0.2479  0.3846 -0.8272
  183MOL0     H24705   9.720   0.818   5.754 -0.4121 -0.3922  0.5415
  184MOL0     O24706   7.940  10.509   8.263 -0.5685 -0.1453  0.2454
  184MOL0     C24707   8.006  10.502   8.368  0.4105  0.4925 -0.0488
  184MOL0     O24708   7.948  10.487   8.495  0.0337 -0.2839 -0.0703
  184MOL0     C24709   7.813  10.482   8.504  0.1853 -0.3851 -1.6388
  184MOL0     C24710   7.763  10.381   8.586  0.0890  0.2532  0.3276
  184MOL0     C24711   7.622  10.368   8.599  0.1656 -0.3933 -0.2549
  184MOL0     C24712   7.536  10.459   8.538  0.0921 -0.4177 -0.2610
  184MOL0     O24713   7.395  10.466   8.548 -0.0175 -1.1824 -0.1232
  184MOL0     C24714   7.336  10.353   8.618 -0.9887  0.3517 -0.0273
  184MOL0     C24715   7.187  10.357   8.571 -0.0029  0.6684 -1.3653
  184MOL0     C24716   7.100  10.485   8.591 -0.7890  0.0545  0.3469
  184MOL0     C24717   6.964  10.468   8.515  0.9061 -0.2547  0.3746
  184MOL0     C24718   6.880  10.592   8.538 -0.2429  0.7675  0.0935
  184MOL0     C24719   6.742  10.582   8.457 -0.2585 -0.6895  1.2479
  184MOL0     C24720   6.635  10.496   8.523 -0.2551 -0.1601  0.3074
  184MOL0     C24721   6.509  10.464   8.441 -0.2711  0.4596 -0.1883
  184MOL0     N24722   6.423  10.588   8.436 -0.2251  0.1199  0.4689
  184MOL0     C24723   6.340  10.619   8.540  0.2954  0.0277  0.3524
  184MOL0     C24724   6.249  10.699   8.486  0.2209  0.0617  0.4864
  184MOL0     C24725   6.123  10.762   8.547 -0.0492 -0.2289 -0.2187
  184MOL0     C24726   6.019  10.660   8.567  0.6724 -0.2647  0.6821
  184MOL0     C24727   5.946  10.637   8.434  0.3192 -0.1658  0.0412
  184MOL0     C24728   5.818  10.557   8.448  0.4085  0.6689 -1.1198
  184MOL0     O24729   5.849  10.429   8.512  0.5721 -0.3276  0.6537
  184MOL0     C24730   5.755  10.332   8.504  0.6762  0.5655 -0.1395
  184MOL0     C24731   5.624  10.359   8.471 -0.2250 -0.7374 -0.9972
  184MOL0     C24732   5.528  10.261   8.466  0.3168 -0.4367 -0.1594
  184MOL0     C24733   5.391  10.298   8.432  0.5834  0.1006 -0.0168
  184MOL0     C24734   5.563  10.120   8.491 -0.6003  0.1288 -0.5062
  184MOL0     C24735   5.464  10.007   8.481  0.4061  0.3475 -0.5039
  184MOL0     O24736   5.366  10.007   8.384 -0.7486 -0.4698 -0.0653
  184MOL0     C24737   5.267   9.911   8.365 -0.2613  0.3206  0.6715
  184MOL0     C24738   5.186   9.927   8.252  0.1374 -1.5067 -0.5607
  184MOL0     C24739   5.077   9.852   8.225  0.0871 -0.4821  0.0596
  184MOL0     C24740   5.055   9.741   8.302  0.8484 -0.1086  0.9475
  184MOL0     O24741   4.927   9.689   8.273  0.1040 -0.0849  0.3538
  184MOL0     C24742   4.892   9.550   8.318  0.0109 -0.2844  0.9190
  184MOL0     C24743   4.750   9.512   8.275 -0.1776 -0.5683  0.3625
  184MOL0     C24744   4.662   9.614   8.200 -0.1830  0.0013 -0.1816
  184MOL0     C24745   4.535   9.534   8.153 -0.1220 -0.6108  0.5952
  184MOL0     C24746   4.436   9.614   8.069  0.0053 -0.1866  0.0857
  184MOL0     C24747   4.323   9.525   8.020 -0.7617  1.3336  0.5924
  184MOL0     C24748   4.209   9.495   8.123 -0.8480 -0.7004  0.0635
  184MOL0     C24749   4.085   9.469   8.043  0.1288 -0.2844  0.2603
  184MOL0    Cl24750   3.931   9.438   8.129  0.3288 -0.0491 -0.0820
  184MOL0     C24751   5.136   9.712   8.414  0.6405 -0.1936  0.2391
  184MOL0     C24752   5.246   9.797   8.440  0.3242 -0.0920 -0.1330
  184MOL0     O24753   5.494   9.907   8.546 -0.2053  0.1871 -0.1632
  184MOL0     C24754   5.694  10.091   8.526 -0.0171  0.2723  0.7660
  184MOL0     C24755   5.789  10.201   8.531  0.1819  0.5196 -0.6603
  184MOL0     N24756   6.279  10.731   8.355 -0.2968  0.3538 -0.8904
  184MOL0     N24757   6.378  10.655   8.326 -0.2454  0.9759 -0.1589
  184MOL0     C24758   7.589  10.551   8.449  0.9936 -0.0556  0.2037
  184MOL0     C24759   7.726  10.566   8.433  0.1082  0.3519  0.4083
  184MOL0     C24760   8.154  10.504   8.367  0.0688 -0.6408 -0.6821
  184MOL0     C24761   8.221  10.540   8.253 -0.4663  0.9917  0.9347
  184MOL0     C24762   8.359  10.528   8.248 -0.1651  0.0900 -0.3332
  184MOL0     C24763   8.435  10.483   8.357  0.2057 -0.8710  0.7045
  184MOL0     O24764   8.570  10.456   8.356 -0.0680 -0.6944  0.2534
  184MOL0     C24765   8.654  10.512   8.254  0.8021  0.2137  0.1363
  184MOL0     C24766   8.792  10.529   8.319  0.7301 -0.2160 -0.1467
  184MOL0     C24767   8.781  10.616   8.439 -0.3221 -0.0533 -0.7706
  184MOL0     C24768   8.773  10.766   8.416  0.4473  0.4632  0.0775
  184MOL0     C24769   8.632  10.811   8.402 -0.3842 -0.0343 -0.4081
  184MOL0     C24770   8.512  10.846   8.397 -0.0865  0.2651  0.0861
  184MOL0     C24771   8.368  10.443   8.474 -0.3735 -0.0346  0.3464
  184MOL0     C24772   8.229  10.462   8.480 -0.0848  0.2657  0.1688
  184MOL0     H24773   7.831  10.312   8.637  0.6284  0.8928  0.4832
  184MOL0     H24774   7.587  10.284   8.659  2.3730 -0.2380  1.3727
  184MOL0     H24775   7.374  10.256   8.585 -1.2744  0.3224 -0.2835
  184MOL0     H24776   7.342  10.368   8.726 -0.8427 -0.3893  0.0728
  184MOL0     H24777   7.190  10.332   8.465  2.9684 -0.7334 -1.0400
  184MOL0     H24778   7.133  10.274   8.617  0.8751 -0.5926 -2.5595
  184MOL0     H24779   7.076  10.499   8.697 -2.2024 -3.2009  0.5762
  184MOL0     H24780   7.160  10.569   8.554 -0.7519  0.6030  1.5962
  184MOL0     H24781   6.977  10.460   8.407  1.2869 -2.8390  0.5333
  184MOL0     H24782   6.910  10.381   8.553 -0.7495  0.6669  0.2445
  184MOL0     H24783   6.854  10.603   8.643 -0.6551  1.7338 -0.0988
  184MOL0     H24784   6.931  10.686   8.513 -0.7600  1.1069  0.2856
  184MOL0     H24785   6.703  10.684   8.455 -1.9444 -1.2931 -0.8985
  184MOL0     H24786   6.756  10.541   8.357  3.2493 -0.5002  1.5400
  184MOL0     H24787   6.677  10.397   8.547  3.7140  1.7871  2.4827
  184MOL0     H24788   6.598  10.543   8.614  1.3850  2.5881 -0.3457
  184MOL0     H24789   6.459  10.388   8.502  0.6275 -0.3468 -0.4336
  184MOL0     H24790   6.528  10.436   8.338  1.6508 -1.9042  0.7197
  184MOL0     H24791   6.339  10.587   8.643 -2.2428  1.0745  0.7212
  184MOL0     H24792   6.151  10.810   8.641  2.0315 -2.1019  0.1958
  184MOL0     H24793   6.088  10.849   8.489  0.9397  0.7771  0.6472
  184MOL0     H24794   5.940  10.680   8.639 -2.1273  2.1340 -2.6922
  184MOL0     H24795   6.069  10.568   8.599  3.3866 -0.0647 -2.3913
  184MOL0     H24796   5.995  10.568   8.365  0.3266  1.3975 -1.5789
  184MOL0     H24797   5.926  10.732   8.384  0.6884  0.8065  1.6567
  184MOL0     H24798   5.785  10.541   8.345 -0.5841  1.4269 -0.9328
  184MOL0     H24799   5.745  10.623   8.495 -1.4458  0.4394 -3.4606
  184MOL0     H24800   5.603  10.463   8.448  0.1117 -0.5870 -0.6442
  184MOL0     H24801   5.321  10.228   8.478 -0.8205  0.4289 -1.5633
  184MOL0     H24802   5.360  10.396   8.468  1.6000  1.1572 -1.8606
  184MOL0     H24803   5.370  10.301   8.324  0.8779  1.0505 -0.0538
  184MOL0     H24804   5.218  10.014   8.195  1.8927 -1.4729  0.4115
  184MOL0     H24805   5.015   9.883   8.141 -1.3832 -3.7329 -0.2012
  184MOL0     H24806   4.960   9.485   8.263  2.0217  1.5511  1.0756
  184MOL0     H24807   4.913   9.542   8.426  5.2675  0.5821  0.2583
  184MOL0     H24808   4.754   9.416   8.222 -0.5594 -0.4231  0.0701
  184MOL0     H24809   4.703   9.485   8.370 -3.4206 -1.4573 -1.3306
  184MOL0     H24810   4.710   9.647   8.107  3.7403 -0.9879  1.2807
  184MOL0     H24811   4.630   9.704   8.252  1.1507  0.9140 -0.8924
  184MOL0     H24812   4.561   9.449   8.089 -0.3004  2.0707 -3.3818
  184MOL0     H24813   4.474   9.498   8.237 -2.9744 -1.7785 -1.7901
  184MOL0     H24814   4.483   9.656   7.980 -2.0608  1.2070 -0.4107
  184MOL0     H24815   4.391   9.699   8.122  2.4260  1.2790 -0.0095
  184MOL0     H24816   4.282   9.584   7.938  0.4087  1.8651  0.3710
  184MOL0     H24817   4.372   9.438   7.976 -0.9259 -0.4461  3.6318
  184MOL0     H24818   4.194   9.585   8.183  2.2247  1.1528 -1.6924
  184MOL0     H24819   4.233   9.407   8.184 -2.8415 -1.7569 -0.5603
  184MOL0     H24820   4.113   9.386   7.978  2.3859  1.4177 -1.0859
  184MOL0     H24821   4.056   9.558   7.986 -1.1341  0.4861  1.9964
  184MOL0     H24822   5.135   9.624   8.478  3.7182 -1.0437 -0.7363
  184MOL0     H24823   5.313   9.757   8.515  0.4703 -0.1728 -0.3063
  184MOL0     H24824   5.730   9.989   8.536  1.9053  0.9626  1.5706
  184MOL0     H24825   5.889  10.181   8.567  0.6192  2.9301 -0.3707
  184MOL0     H24826   7.524  10.617   8.392 -0.2696  0.1534  1.8162
  184MOL0     H24827   7.761  10.647   8.369  1.6797  0.3525  1.2210
  184MOL0     H24828   8.165  10.571   8.166  0.0785  0.0213  0.2151
  184MOL0     H24829   8.402  10.561   8.153 -1.1405  2.7018  0.0684
  184MOL0     H24830   8.661  10.439   8.174  2.6152  0.3860  0.1098
  184MOL0     H24831   8.612  10.603   8.210 -2.3536 -1.5458 -0.7989
  184MOL0     H24832   8.844  10.582   8.239 -0.0919 -0.4627 -0.8671
  184MOL0     H24833   8.839  10.432   8.339 -2.1172 -1.4950  0.8965
  184MOL0     H24834   8.869  10.602   8.502 -0.0036 -0.8830 -1.3794
  184MOL0     H24835   8.696  10.592   8.504  0.3397  2.8053  1.3480
  184MOL0     H24836   8.831  10.797   8.328  1.2089  1.7660  0.9906
  184MOL0     H24837   8.816  10.820   8.502 -1.8810  1.8146  0.4693
  184MOL0     H24838   8.409  10.868   8.376  1.0363  3.4583 -3.2326
  184MOL0     H24839   8.430  10.412   8.557  0.0873  1.2344  0.5007
  184MOL0     H24840   8.178  10.445   8.574 -3.2074 -1.2502 -1.6406
  185MOL0     O24841   1.830   2.041   1.180  0.3660 -0.2087 -0.0523
  185MOL0     C24842   1.886   1.932   1.160  0.2051  0.0189 -0.7263
  185MOL0     O24843   1.830   1.826   1.097 -0.3244 -0.0566  0.2709
  185MOL0     C24844   1.708   1.858   1.051  0.9293 -0.5731  0.3206
  185MOL0     C24845   1.592   1.839   1.127 -0.1577  0.2649 -0.5192
  185MOL0     C24846   1.463   1.883   1.083 -0.0978  0.4458 -0.9129
  185MOL0     C24847   1.442   1.950   0.961  0.1298 -0.4086  0.2440
  185MOL0     O24848   1.314   1.993   0.925  0.1591  0.9749  0.5249
  185MOL0     C24849   1.298   2.053   0.790  0.0655 -0.4005  0.2530
  185MOL0     C24850   1.147   2.097   0.777 -0.9264 -0.1261 -0.3168
  185MOL0     C24851   1.120   2.198   0.669  0.5846 -0.5406 -0.4422
  185MOL0     C24852   1.142   2.133   0.534  0.8214 -0.4403 -0.4215
  185MOL0     C24853   1.139   2.243   0.417  0.0885  0.6011 -1.1996
  185MOL0     C24854   1.040   2.211   0.308 -0.2386  0.6904 -0.1901
  185MOL0     C24855   1.055   2.324   0.200  0.3001  1.0458 -0.1052
  185MOL0     C24856   0.939   2.320   0.097  0.0254  0.2679  0.3342
  185MOL0     N24857   0.958   2.244  -0.023  0.0780  0.3664  0.4047
  185MOL0     C24858   0.890   2.128  -0.053  0.7330 -0.1662 -0.2266
  185MOL0     C24859   0.942   2.089  -0.169 -0.2925 -0.3889  0.4485
  185MOL0     C24860   0.915   1.962  -0.236  0.6703 -0.2134 -0.8104
  185MOL0     C24861   0.783   1.967  -0.302 -0.3738  0.3709 -0.8691
  185MOL0     C24862   0.763   1.847  -0.405 -0.6718  0.5055 -0.0583
  185MOL0     C24863   0.618   1.814  -0.413 -0.0596  0.2906  0.9110
  185MOL0     O24864   0.561   1.899  -0.520 -0.1383  0.3031  0.6943
  185MOL0     C24865   0.429   1.879  -0.532  0.7627  0.2466 -0.2022
  185MOL0     C24866   0.347   1.780  -0.467  0.5418 -0.1068 -0.5894
  185MOL0     C24867   0.210   1.769  -0.493  0.0672  0.2288  0.7290
  185MOL0     C24868   0.134   1.657  -0.420  0.1355  0.4919 -1.0455
  185MOL0     C24869   0.145   1.853  -0.584 -0.1860  0.0634  0.5934
  185MOL0     C24870   0.001   1.846  -0.627  0.0125  0.2757  0.3990
  185MOL0     O24871  -0.038   1.911  -0.743 -0.0155  0.4500 -0.5329
  185MOL0     C24872  -0.166   1.924  -0.765  0.7699  0.5277 -0.3240
  185MOL0     C24873  -0.248   1.831  -0.816 -0.6424  0.1964  0.0712
  185MOL0     C24874  -0.381   1.856  -0.863 -0.5146  0.0326  0.7894
  185MOL0     C24875  -0.435   1.978  -0.833 -0.8962  0.5432 -0.2081
  185MOL0     O24876  -0.566   1.994  -0.874  0.0565 -0.2937  0.2164
  185MOL0     C24877  -0.617   2.131  -0.891 -0.1891  0.0854  0.0674
  185MOL0     C24878  -0.763   2.116  -0.949  0.0128 -0.0472 -0.3319
  185MOL0     C24879  -0.857   2.237  -0.929  0.8890  0.2651 -1.0704
  185MOL0     C24880  -0.900   2.235  -0.774 -0.3248 -0.6011 -0.7271
  185MOL0     C24881  -1.010   2.336  -0.737 -0.2380 -0.0327 -1.1059
  185MOL0     C24882  -1.138   2.334  -0.826  0.0979 -0.0694 -0.2187
  185MOL0     C24883  -1.234   2.435  -0.762 -0.3331 -0.0755  0.1051
  185MOL0     C24884  -1.181   2.578  -0.771  0.2719 -0.5119 -0.2981
  185MOL0    Cl24885  -1.318   2.693  -0.767 -0.2908  0.0027 -0.3831
  185MOL0     C24886  -0.357   2.084  -0.776 -0.2426  0.0962  0.4816
  185MOL0     C24887  -0.219   2.059  -0.752  0.7343  0.2382  0.1045
  185MOL0     O24888  -0.075   1.783  -0.557  0.1615  0.2437 -0.5982
  185MOL0     C24889   0.225   1.955  -0.649  0.6358 -0.4794  0.1247
  185MOL0     C24890   0.363   1.976  -0.619 -0.3627 -0.0545 -0.2054
  185MOL0     N24891   1.033   2.187  -0.211  0.7925  0.5812  0.3562
  185MOL0     N24892   1.041   2.284  -0.121  0.2379  0.2925  0.5408
  185MOL0     C24893   1.561   1.962   0.877 -0.4351 -0.5610 -0.6285
  185MOL0     C24894   1.685   1.913   0.922 -0.0876  0.1154  0.1995
  185MOL0     C24895   2.030   1.916   1.199  0.7626 -0.2074 -0.0606
  185MOL0     C24896   2.077   1.986   1.316 -0.1492  0.0791 -0.2600
  185MOL0     C24897   2.211   1.959   1.362  0.3645 -0.4715 -0.1056
  185MOL0     C24898   2.294   1.875   1.293 -0.9801 -0.0788  0.0532
  185MOL0     O24899   2.422   1.848   1.353  0.1844 -0.2570  0.4157
  185MOL0     C24900   2.517   1.773   1.271  0.4417  0.4921  0.0756
  185MOL0     C24901   2.662   1.780   1.326 -0.3098  0.6456 -0.5810
  185MOL0     C24902   2.722   1.926   1.332  0.1010 -0.4068  0.5559
  185MOL0     C24903   2.871   1.928   1.278  0.1161  0.2190  1.0571
  185MOL0     C24904   2.960   1.831   1.341  0.5623  0.1007 -0.0944
  185MOL0     C24905   3.019   1.744   1.405 -0.4813  0.1382 -0.6877
  185MOL0     C24906   2.249   1.823   1.175  0.1056  1.4306  0.2993
  185MOL0     C24907   2.117   1.828   1.137 -0.5684 -0.5901 -0.5090
  185MOL0     H24908   1.587   1.785   1.221  0.4631  0.8403 -0.1523
  185MOL0     H24909   1.382   1.868   1.154 -1.3908  1.1440 -2.2104
  185MOL0     H24910   1.360   2.142   0.774  0.8671 -1.2730 -1.9620
  185MOL0     H24911   1.328   1.989   0.707 -1.2907  1.7160 -2.0097
  185MOL0     H24912   1.089   2.005   0.767  0.0346 -0.6544 -1.1807
  185MOL0     H24913   1.122   2.141   0.874 -1.3535  1.2829 -1.0373
  185MOL0     H24914   1.016   2.229   0.675  0.6392 -0.2626 -0.9031
  185MOL0     H24915   1.187   2.282   0.689  0.8350 -0.6460 -0.8255
  185MOL0     H24916   1.236   2.077   0.523 -0.1442 -1.9120 -1.5958
  185MOL0     H24917   1.053   2.072   0.521 -1.5106  2.4402  0.8836
  185MOL0     H24918   1.120   2.342   0.460  1.2655  1.2508 -2.1135
  185MOL0     H24919   1.238   2.241   0.371  0.9206 -4.1393  0.2861
  185MOL0     H24920   1.069   2.116   0.262 -0.4881  1.2764 -1.6067
  185MOL0     H24921   0.936   2.198   0.340 -0.6200  1.1067 -1.2018
  185MOL0     H24922   1.063   2.421   0.250 -0.9786  0.6634  0.9011
  185MOL0     H24923   1.152   2.305   0.153  1.6225 -2.9613  3.5966
  185MOL0     H24924   0.927   2.423   0.062  1.2619  0.0206 -0.9423
  185MOL0     H24925   0.842   2.292   0.138 -1.4373 -1.0788 -3.5972
  185MOL0     H24926   0.826   2.067   0.010  0.7324  0.6012  0.5420
  185MOL0     H24927   0.996   1.936  -0.305  0.2476 -2.5924 -0.4917
  185MOL0     H24928   0.921   1.891  -0.153  2.4629  0.1591 -0.5636
  185MOL0     H24929   0.778   2.068  -0.344 -0.5849  2.0292  2.8028
  185MOL0     H24930   0.707   1.970  -0.223  2.1412  0.9924  1.6690
  185MOL0     H24931   0.815   1.757  -0.369 -0.2112  0.0876 -1.6442
  185MOL0     H24932   0.813   1.863  -0.501 -1.0136 -0.4112 -0.4062
  185MOL0     H24933   0.571   1.836  -0.317 -1.1710  1.2517  0.1745
  185MOL0     H24934   0.617   1.711  -0.451  0.8525  0.8108 -0.6139
  185MOL0     H24935   0.387   1.708  -0.395 -2.1948  0.8632  2.1046
  185MOL0     H24936   0.056   1.603  -0.475  2.6883 -1.7011 -2.7858
  185MOL0     H24937   0.208   1.589  -0.377  0.5367  0.3749 -1.9050
  185MOL0     H24938   0.089   1.700  -0.330  5.0400  2.8456  0.6175
  185MOL0     H24939  -0.207   1.731  -0.827 -2.9338 -0.7394 -0.3912
  185MOL0     H24940  -0.448   1.776  -0.895  0.4483 -0.3391 -0.4295
  185MOL0     H24941  -0.625   2.185  -0.796 -0.4239 -2.8804  1.8388
  185MOL0     H24942  -0.560   2.191  -0.963  0.4410  0.8533  1.1850
  185MOL0     H24943  -0.755   2.088  -1.055 -1.3820 -0.5538 -0.3305
  185MOL0     H24944  -0.810   2.025  -0.911  1.1990 -0.3460  0.4655
  185MOL0     H24945  -0.946   2.235  -0.993 -0.2499 -0.6963  0.4842
  185MOL0     H24946  -0.806   2.333  -0.942  1.0141  1.2294  4.1596
  185MOL0     H24947  -0.943   2.140  -0.742  0.4751  0.0040  2.4886
  185MOL0     H24948  -0.815   2.264  -0.712  0.1991 -0.9620 -1.2635
  185MOL0     H24949  -0.964   2.435  -0.727  1.0149 -0.7252  0.6599
  185MOL0     H24950  -1.041   2.311  -0.635  0.4830  0.4252 -0.7681
  185MOL0     H24951  -1.115   2.354  -0.931 -1.8082 -0.4253 -0.7294
  185MOL0     H24952  -1.186   2.236  -0.835  3.9150 -2.1913  0.2381
  185MOL0     H24953  -1.246   2.409  -0.657  0.9001 -1.2324 -0.0175
  185MOL0     H24954  -1.333   2.437  -0.808 -0.0845  0.6098 -0.4350
  185MOL0     H24955  -1.128   2.585  -0.866  3.0386 -2.5007  0.9661
  185MOL0     H24956  -1.109   2.601  -0.692 -2.2015  0.8492  1.6874
  185MOL0     H24957  -0.397   2.182  -0.751 -1.7098 -0.0349 -1.1365
  185MOL0     H24958  -0.150   2.128  -0.706  4.0061 -1.3432 -2.0331
  185MOL0     H24959   0.191   2.015  -0.733 -2.4531 -2.3693 -0.0935
  185MOL0     H24960   0.419   2.050  -0.676 -0.5775  3.0770  3.2708
  185MOL0     H24961   1.562   2.004   0.777 -0.5976 -0.5870 -0.6411
  185MOL0     H24962   1.772   1.918   0.857  0.7586 -0.2401  1.2740
  185MOL0     H24963   2.025   2.051   1.385  0.1848 -1.5452  1.6522
  185MOL0     H24964   2.252   2.003   1.452 -2.9610  0.7245  0.9842
  185MOL0     H24965   2.490   1.667   1.269 -2.9637  1.2392 -1.8048
  185MOL0     H24966   2.515   1.822   1.173  1.4264  0.9020  0.2483
  185MOL0     H24967   2.730   1.717   1.268  0.5425 -0.9970  1.9947
  185MOL0     H24968   2.658   1.737   1.426  0.3195  1.4856 -0.1759
  185MOL0     H24969   2.714   1.963   1.435  1.1585 -0.2029  0.5786
  185MOL0     H24970   2.660   1.988   1.266 -1.1735 -1.6178  0.5826
  185MOL0     H24971   2.916   2.027   1.283  0.8173  0.3264 -3.2824
  185MOL0     H24972   2.872   1.906   1.171  0.3916 -0.5064  1.2058
  185MOL0     H24973   3.069   1.672   1.467 -0.7876  1.8032  1.6242
  185MOL0     H24974   2.305   1.771   1.098 -0.8311  1.1383 -0.1945
  185MOL0     H24975   2.097   1.773   1.045  3.6812  0.7473 -2.5279
  186MOL0     O24976   8.464   4.229  11.091  0.0837  0.9206 -0.0895
  186MOL0     C24977   8.494   4.116  11.122 -0.4722  0.0793  0.4753
  186MOL0     O24978   8.408   4.029  11.173 -0.1572 -0.0622  0.8563
  186MOL0     C24979   8.279   4.068  11.195 -0.5571  0.0135 -0.0399
  186MOL0     C24980   8.256   4.176  11.291  0.6833 -0.1032  0.2478
  186MOL0     C24981   8.124   4.229  11.310 -0.8388  0.1341  0.8358
  186MOL0     C24982   8.014   4.175  11.239  0.2190  0.1797 -0.1605
  186MOL0     O24983   7.902   4.253  11.252  0.0223 -0.3993  0.2342
  186MOL0     C24984   7.791   4.194  11.194  0.0522 -0.9620  0.2277
  186MOL0     C24985   7.679   4.303  11.218 -0.3224 -0.0933 -0.3449
  186MOL0     C24986   7.605   4.308  11.355 -0.9837  0.5874 -0.8659
  186MOL0     C24987   7.485   4.418  11.357 -0.5280  0.6362  0.0224
  186MOL0     C24988   7.367   4.363  11.430  0.1212 -0.1863  0.3599
  186MOL0     C24989   7.375   4.328  11.577  0.4423  0.0696  0.7612
  186MOL0     C24990   7.235   4.298  11.619  0.0582 -0.2704 -0.0047
  186MOL0     C24991   7.243   4.246  11.759 -0.0877 -0.2727  0.2677
  186MOL0     N24992   7.291   4.348  11.860 -0.0228  0.2716 -0.2604
  186MOL0     C24993   7.207   4.431  11.931 -0.1540  0.0942 -0.8509
  186MOL0     C24994   7.299   4.508  12.001 -0.7338 -0.2217  0.4236
  186MOL0     C24995   7.259   4.623  12.087 -0.5718  0.3613  0.0667
  186MOL0     C24996   7.340   4.746  12.067 -0.8678 -0.1338 -0.0972
  186MOL0     C24997   7.488   4.749  12.122  0.8596  0.7463  0.7938
  186MOL0     C24998   7.550   4.884  12.103 -0.4216 -0.4377 -0.4233
  186MOL0     O24999   7.686   4.884  12.159 -0.3248  0.4490  0.0415
  186MOL0     C25000   7.800   4.845  12.083  0.5516 -0.3291  0.4177
  186MOL0     C25001   7.915   4.848  12.163 -0.0894  0.0962  0.4865
  186MOL0     C25002   8.035   4.817  12.102  0.1016  0.2654 -1.5557
  186MOL0     C25003   8.145   4.804  12.204  0.3669 -1.1094  0.4650
  186MOL0     C25004   8.042   4.779  11.966  0.2652 -0.4818 -0.2098
  186MOL0     C25005   8.161   4.721  11.907  0.2965 -0.1719  0.2932
  186MOL0     O25006   8.283   4.719  11.971 -0.2650 -0.9003  0.4745
  186MOL0     C25007   8.395   4.669  11.903 -0.2845  0.0058 -0.2016
  186MOL0     C25008   8.487   4.756  11.847 -0.1830 -0.2103  0.1186
  186MOL0     C25009   8.601   4.705  11.779 -0.3955  0.6104 -0.2433
  186MOL0     C25010   8.627   4.571  11.773 -0.0377  0.1839  0.8880
  186MOL0     O25011   8.745   4.535  11.707  0.3529 -0.2579 -0.5970
  186MOL0     C25012   8.821   4.421  11.755  0.2890 -0.1902 -0.3062
  186MOL0     C25013   8.953   4.396  11.697  0.4563 -0.4893  0.5326
  186MOL0     C25014   9.062   4.504  11.727  0.1426 -1.0304  0.6650
  186MOL0     C25015   9.095   4.595  11.608 -0.6320 -0.6155 -0.0034
  186MOL0     C25016   9.196   4.699  11.656 -0.5546  0.5293  0.3237
  186MOL0     C25017   9.255   4.777  11.530 -0.0419  0.2781 -0.3077
  186MOL0     C25018   9.355   4.880  11.577  0.5134 -0.0649  0.1006
  186MOL0     C25019   9.441   4.931  11.464  0.1072  0.3010 -1.3469
  186MOL0    Cl25020   9.338   4.997  11.334  0.0099 -0.2035  0.3873
  186MOL0     C25021   8.530   4.480  11.824  0.2065 -1.2056 -0.1292
  186MOL0     C25022   8.413   4.532  11.890  0.2331  0.3093 -0.2392
  186MOL0     O25023   8.136   4.652  11.805 -0.4188  0.6871 -0.7295
  186MOL0     C25024   7.928   4.797  11.882  0.0676  0.7586 -0.4417
  186MOL0     C25025   7.807   4.828  11.942 -0.1403 -0.4205 -0.2957
  186MOL0     N25026   7.421   4.455  11.985  0.1835 -0.3245 -0.2261
  186MOL0     N25027   7.419   4.354  11.911 -1.0919 -0.0016  0.0163
  186MOL0     C25028   8.039   4.069  11.146  0.2372 -0.0329  0.1007
  186MOL0     C25029   8.165   4.019  11.124  1.2829 -0.2212  0.6462
  186MOL0     C25030   8.642   4.072  11.100  0.8095 -0.0251  0.3752
  186MOL0     C25031   8.668   3.933  11.085 -0.3690 -0.0962 -0.3349
  186MOL0     C25032   8.802   3.894  11.068  0.6240 -0.9007 -0.1530
  186MOL0     C25033   8.905   3.981  11.062  0.2561  0.7966  0.4355
  186MOL0     O25034   9.023   3.935  11.024 -1.2180 -0.6233  0.0628
  186MOL0     C25035   9.059   3.797  11.008 -0.4127 -0.6148 -0.7036
  186MOL0     C25036   9.219   3.783  10.999 -0.3067 -0.1901 -0.5224
  186MOL0     C25037   9.297   3.799  11.131 -0.5487 -0.0223  0.6508
  186MOL0     C25038   9.452   3.806  11.125  0.3983  0.2815 -0.0120
  186MOL0     C25039   9.505   3.672  11.128 -0.2997  0.7134  0.1870
  186MOL0     C25040   9.555   3.565  11.141  0.4944  0.4387  0.1241
  186MOL0     C25041   8.882   4.114  11.069 -0.3901 -0.0405  0.1627
  186MOL0     C25042   8.749   4.160  11.081  0.0110 -0.1882 -0.3101
  186MOL0     H25043   8.346   4.219  11.334  2.3857 -1.7777 -1.4200
  186MOL0     H25044   8.116   4.312  11.379  2.5573  0.7052  0.7015
  186MOL0     H25045   7.806   4.178  11.087  2.6110  0.2795  0.3280
  186MOL0     H25046   7.766   4.100  11.244  3.1177 -3.6786 -2.8460
  186MOL0     H25047   7.728   4.401  11.213  3.9878 -2.0474 -1.0266
  186MOL0     H25048   7.602   4.290  11.142 -2.0913  1.2600  1.1114
  186MOL0     H25049   7.568   4.211  11.389 -0.3971  0.8419  0.5419
  186MOL0     H25050   7.673   4.340  11.434 -2.2673 -0.1375  0.5974
  186MOL0     H25051   7.531   4.506  11.401 -0.0953  0.7490 -0.6320
  186MOL0     H25052   7.458   4.451  11.256 -1.2480 -2.0985 -0.7850
  186MOL0     H25053   7.300   4.450  11.427 -2.0645 -1.7125  1.5897
  186MOL0     H25054   7.318   4.280  11.377 -0.7750  1.1850 -1.0571
  186MOL0     H25055   7.440   4.241  11.590 -0.3059 -0.7519 -0.7567
  186MOL0     H25056   7.419   4.415  11.627  0.4185  0.0314  0.8484
  186MOL0     H25057   7.178   4.392  11.618  1.8501  0.9182 -2.5064
  186MOL0     H25058   7.183   4.222  11.560 -3.0431 -2.1341  4.5423
  186MOL0     H25059   7.320   4.169  11.758  3.1697  2.7270 -0.9073
  186MOL0     H25060   7.147   4.214  11.802 -0.8297  0.8888 -0.4599
  186MOL0     H25061   7.104   4.464  11.920 -0.3631 -0.3432 -0.2804
  186MOL0     H25062   7.158   4.657  12.060 -1.5870 -2.6477 -0.3060
  186MOL0     H25063   7.255   4.583  12.188  0.8529 -1.1768 -0.4445
  186MOL0     H25064   7.297   4.832  12.121  5.7137  3.6673  0.2120
  186MOL0     H25065   7.341   4.774  11.962  0.5856 -2.2807 -0.7243
  186MOL0     H25066   7.552   4.673  12.076 -0.4319 -0.0040  0.1905
  186MOL0     H25067   7.479   4.717  12.227 -0.8839  0.4177  0.5692
  186MOL0     H25068   7.494   4.957  12.161  0.0804  0.1862 -0.7077
  186MOL0     H25069   7.541   4.922  12.001 -1.5948  1.7005  0.4247
  186MOL0     H25070   7.911   4.885  12.265  1.5379  1.4636  0.1164
  186MOL0     H25071   8.202   4.713  12.183 -1.4961 -1.8153 -2.0755
  186MOL0     H25072   8.210   4.891  12.192 -3.0271  1.3224 -2.8255
  186MOL0     H25073   8.104   4.798  12.305 -4.7102 -1.2267 -1.2792
  186MOL0     H25074   8.479   4.863  11.864 -0.6384 -0.6286  3.0019
  186MOL0     H25075   8.674   4.764  11.725 -0.8472  0.2191 -1.3172
  186MOL0     H25076   8.839   4.439  11.861  3.7378  0.6043 -0.8952
  186MOL0     H25077   8.760   4.331  11.746 -3.7030  2.1327  0.6132
  186MOL0     H25078   8.990   4.303  11.741 -0.7242 -0.8363  0.8180
  186MOL0     H25079   8.936   4.397  11.589 -0.8086 -1.7667  0.6850
  186MOL0     H25080   9.148   4.448  11.766 -0.5544 -2.2704  0.4715
  186MOL0     H25081   9.027   4.575  11.803  3.1894  4.0771 -2.1084
  186MOL0     H25082   9.139   4.524  11.536 -2.8868 -0.9830 -1.1158
  186MOL0     H25083   9.004   4.645  11.574 -0.8376 -1.7320 -1.1658
  186MOL0     H25084   9.281   4.651  11.705 -1.5396 -0.6035  0.9980
  186MOL0     H25085   9.148   4.771  11.723 -0.4278 -2.5910  4.1508
  186MOL0     H25086   9.296   4.721  11.446  3.6548 -0.2677  1.6679
  186MOL0     H25087   9.172   4.836  11.489 -2.2756 -1.9599  0.6731
  186MOL0     H25088   9.430   4.833  11.641 -0.5554 -1.3304  0.4546
  186MOL0     H25089   9.304   4.965  11.624  3.1101  2.0259 -0.6074
  186MOL0     H25090   9.503   4.849  11.428 -0.8853 -0.9492 -0.3535
  186MOL0     H25091   9.500   5.014  11.501  1.0471 -1.5974  1.8229
  186MOL0     H25092   8.553   4.374  11.825  0.4346 -1.2190 -2.0251
  186MOL0     H25093   8.345   4.456  11.928  1.4918  0.5383  2.6918
  186MOL0     H25094   7.933   4.781  11.775  0.0795  0.0777 -0.3439
  186MOL0     H25095   7.721   4.849  11.879 -0.6266  1.7446  1.0060
  186MOL0     H25096   7.959   4.031  11.083  1.6710 -2.8175 -0.1780
  186MOL0     H25097   8.179   3.941  11.050 -2.2426 -1.8464  1.5191
  186MOL0     H25098   8.588   3.861  11.097 -0.2887  0.0237  1.1458
  186MOL0     H25099   8.800   3.786  11.051  0.3431 -0.7650 -1.0539
  186MOL0     H25100   9.035   3.735  11.096  0.4496 -0.1385 -0.1134
  186MOL0     H25101   9.013   3.751  10.921  1.6059 -0.6592 -1.8155
  186MOL0     H25102   9.251   3.862  10.930  0.3443  2.2061  2.3392
  186MOL0     H25103   9.232   3.680  10.962 -0.9510 -0.0028 -1.3083
  186MOL0     H25104   9.274   3.727  11.210  1.7098 -1.1065  0.3996
  186MOL0     H25105   9.259   3.894  11.171 -0.1437  0.2526  0.3891
  186MOL0     H25106   9.501   3.861  11.206 -1.0097  1.6805 -0.0645
  186MOL0     H25107   9.482   3.866  11.040  1.2473  1.8863  1.3642
  186MOL0     H25108   9.590   3.467  11.167  0.0942  0.3415  0.2976
  186MOL0     H25109   8.962   4.184  11.047 -2.3420  1.7565 -1.8484
  186MOL0     H25110   8.719   4.263  11.094 -1.6736 -0.6241 -0.5032
  187MOL0     O25111  11.248   5.071  10.939  0.0222 -0.1919  0.6270
  187MOL0     C25112  11.223   5.108  11.053  0.3146 -0.0288 -0.4284
  187MOL0     O25113  11.096   5.145  11.102  0.2200  0.4629 -0.1943
  187MOL0     C25114  11.002   5.097  11.014  1.0867 -0.1876 -0.1850
  187MOL0     C25115  10.953   4.969  11.025 -0.2179  0.6761  0.0329
  187MOL0     C25116  10.845   4.923  10.950  0.5089  0.7679  0.1308
  187MOL0     C25117  10.785   5.003  10.857  0.4471  0.2148  0.3075
  187MOL0     O25118  10.671   4.964  10.782  0.0638 -0.0814  0.0699
  187MOL0     C25119  10.619   4.833  10.798  0.8953 -0.1076  0.3606
  187MOL0     C25120  10.535   4.803  10.675  0.8951  0.6113  1.0734
  187MOL0     C25121  10.471   4.669  10.688 -0.3779  0.3830  0.3450
  187MOL0     C25122  10.346   4.664  10.604 -0.3423 -0.2787  0.3283
  187MOL0     C25123  10.273   4.525  10.605  0.4397 -0.6593 -0.6134
  187MOL0     C25124  10.364   4.399  10.578 -0.3887  0.2646  0.0934
  187MOL0     C25125  10.275   4.279  10.574  0.2767 -0.0280  0.8745
  187MOL0     C25126  10.350   4.146  10.563 -0.1939 -0.1076  0.0574
  187MOL0     N25127  10.273   4.027  10.516 -0.0911  0.0306  0.2139
  187MOL0     C25128  10.315   3.957  10.412  0.3939 -0.1345 -0.1425
  187MOL0     C25129  10.244   3.840  10.415  0.4341  0.0322 -0.0620
  187MOL0     C25130  10.255   3.718  10.322  0.5380 -0.4194 -0.0822
  187MOL0     C25131  10.233   3.731  10.167 -0.0165 -0.6132 -0.0427
  187MOL0     C25132  10.094   3.772  10.117  0.2286 -0.9890 -0.4693
  187MOL0     C25133   9.978   3.697  10.172  1.5928  1.0160  0.3725
  187MOL0     O25134   9.862   3.732  10.080 -0.1852  0.5293  0.3683
  187MOL0     C25135   9.739   3.718  10.116  0.0207 -0.7258 -0.2910
  187MOL0     C25136   9.701   3.634  10.215  0.1714 -0.5387 -0.0423
  187MOL0     C25137   9.570   3.617  10.246  0.4393  0.3873  0.2155
  187MOL0     C25138   9.540   3.524  10.361 -0.1540  0.4793  0.0139
  187MOL0     C25139   9.467   3.688  10.175 -0.7231 -1.1829 -0.7834
  187MOL0     C25140   9.327   3.670  10.200 -0.2224 -0.8567 -0.1685
  187MOL0     O25141   9.255   3.693  10.093  0.1222 -0.1769 -0.4192
  187MOL0     C25142   9.120   3.673  10.089 -0.0484  0.5004 -0.4696
  187MOL0     C25143   9.043   3.777  10.032  0.2548  0.6551  0.1481
  187MOL0     C25144   8.898   3.772  10.034  0.0051  0.8610 -0.0166
  187MOL0     C25145   8.832   3.662  10.082  0.4259  0.6111  0.0880
  187MOL0     O25146   8.694   3.671  10.069  0.2661  0.8335 -0.3474
  187MOL0     C25147   8.613   3.560  10.106  0.2567  0.3978  0.1856
  187MOL0     C25148   8.484   3.618  10.142  0.3940 -1.0611 -0.2409
  187MOL0     C25149   8.384   3.516  10.202  0.0358 -0.0481  0.6716
  187MOL0     C25150   8.408   3.496  10.355  0.0022  0.6195 -0.1684
  187MOL0     C25151   8.376   3.360  10.405 -0.4191 -0.0916 -0.2394
  187MOL0     C25152   8.391   3.357  10.558  0.2885 -0.6668 -0.9930
  187MOL0     C25153   8.416   3.212  10.607 -0.0445  0.5528  0.5189
  187MOL0     C25154   8.438   3.188  10.752  0.4367 -0.1034 -0.0029
  187MOL0    Cl25155   8.278   3.205  10.841 -0.6320  0.1681 -0.0030
  187MOL0     C25156   8.913   3.550  10.131  0.0415  0.2567  0.8665
  187MOL0     C25157   9.054   3.553  10.135  0.4137  0.3904 -0.1256
  187MOL0     O25158   9.293   3.634  10.308 -0.1369 -0.1867 -0.6401
  187MOL0     C25159   9.508   3.785  10.083 -0.2478 -1.1040  0.5804
  187MOL0     C25160   9.648   3.795  10.046  0.7626 -0.2614 -0.5056
  187MOL0     N25161  10.161   3.842  10.533 -0.6693 -0.1965  0.5483
  187MOL0     N25162  10.170   3.961  10.584 -0.3484 -0.6176  0.2272
  187MOL0     C25163  10.826   5.133  10.848 -0.5703 -0.1884  0.3465
  187MOL0     C25164  10.935   5.189  10.923  0.2051  0.2991  0.8511
  187MOL0     C25165  11.334   5.118  11.153  0.0038 -0.0766  0.8158
  187MOL0     C25166  11.463   5.095  11.107 -0.3040 -0.3453  0.2190
  187MOL0     C25167  11.569   5.102  11.201 -0.0924 -0.2478 -0.1924
  187MOL0     C25168  11.546   5.134  11.337  0.6579 -0.4522 -0.7100
  187MOL0     O25169  11.652   5.123  11.420  0.5001  0.1212 -0.3816
  187MOL0     C25170  11.648   5.197  11.544  0.2381  0.1537  0.0084
  187MOL0     C25171  11.783   5.228  11.595  0.4889  0.0651  1.1049
  187MOL0     C25172  11.843   5.108  11.674 -0.3636  0.3108 -0.1198
  187MOL0     C25173  11.973   5.154  11.721  0.3146 -0.6324  0.3206
  187MOL0     C25174  12.031   5.040  11.789 -0.1149 -1.2950 -0.6359
  187MOL0     C25175  12.089   4.956  11.855 -0.0550 -0.3451  0.4963
  187MOL0     C25176  11.415   5.154  11.383  0.4352  0.1980  0.4327
  187MOL0     C25177  11.314   5.150  11.289  0.2651 -0.2782 -0.3187
  187MOL0     H25178  10.997   4.907  11.102 -0.0106  0.7660 -0.0143
  187MOL0     H25179  10.806   4.824  10.970  1.8454 -0.1063 -1.3442
  187MOL0     H25180  10.693   4.752  10.803 -0.6058 -1.5419  0.2590
  187MOL0     H25181  10.554   4.823  10.886 -0.2094  0.8542 -0.3216
  187MOL0     H25182  10.452   4.873  10.673 -1.0440 -1.5098  2.3410
  187MOL0     H25183  10.587   4.797  10.579  1.5101 -1.1282  1.4705
  187MOL0     H25184  10.542   4.591  10.661 -1.6951 -0.7354 -0.0304
  187MOL0     H25185  10.441   4.637  10.788  0.6024 -3.1098 -0.3546
  187MOL0     H25186  10.276   4.741  10.637 -3.4545 -3.4194  1.6882
  187MOL0     H25187  10.377   4.690  10.502 -0.4107 -1.4831 -0.0161
  187MOL0     H25188  10.215   4.515  10.697 -0.4409  0.1637 -1.0703
  187MOL0     H25189  10.197   4.528  10.528 -0.3631  0.6782  0.2049
  187MOL0     H25190  10.423   4.410  10.487 -1.6079  0.7902 -0.6623
  187MOL0     H25191  10.431   4.378  10.662 -1.6662  1.1653  1.3836
  187MOL0     H25192  10.219   4.285  10.668 -1.2001 -2.0445  0.1959
  187MOL0     H25193  10.219   4.282  10.480  0.7742 -0.5528  0.5541
  187MOL0     H25194  10.412   4.119  10.649  0.8066 -0.2366 -0.6916
  187MOL0     H25195  10.426   4.165  10.486 -0.1827  3.2085  0.7753
  187MOL0     H25196  10.401   3.984  10.352  1.2746 -1.3757  0.4884
  187MOL0     H25197  10.357   3.680  10.328  0.4824 -0.5682 -0.0771
  187MOL0     H25198  10.182   3.642  10.353 -1.9031  0.5950 -2.8268
  187MOL0     H25199  10.264   3.636  10.123  1.6124  0.0935 -0.5159
  187MOL0     H25200  10.304   3.805  10.130  0.6492 -1.0645  0.3146
  187MOL0     H25201  10.097   3.758  10.008  1.9118  0.9856 -0.7442
  187MOL0     H25202  10.081   3.879  10.129  1.0421 -0.5726 -2.7406
  187MOL0     H25203   9.957   3.724  10.276 -2.0887 -0.4091  0.1474
  187MOL0     H25204   9.992   3.589  10.178 -4.1869 -0.0131  1.2439
  187MOL0     H25205   9.770   3.569  10.268 -2.6389 -1.9271  2.2178
  187MOL0     H25206   9.635   3.486  10.399  1.0074  2.0087 -1.2268
  187MOL0     H25207   9.496   3.570  10.450  1.2209 -3.0880  2.7955
  187MOL0     H25208   9.474   3.446  10.323 -0.6870 -0.0326  1.8836
  187MOL0     H25209   9.080   3.873   9.998 -0.4442  0.8108 -0.2113
  187MOL0     H25210   8.830   3.846   9.993 -0.0991 -0.2342 -1.9123
  187MOL0     H25211   8.596   3.490  10.023 -0.9260  0.2553  0.5334
  187MOL0     H25212   8.654   3.501  10.189 -3.4665  0.9711  2.6648
  187MOL0     H25213   8.495   3.697  10.216 -1.2191  1.6375 -2.6611
  187MOL0     H25214   8.431   3.666  10.059  0.4721  0.8658  0.7712
  187MOL0     H25215   8.395   3.420  10.149 -0.8015  1.0127 -1.5463
  187MOL0     H25216   8.279   3.533  10.177 -0.7387 -4.1674  0.4658
  187MOL0     H25217   8.514   3.514  10.370  0.4038  0.3073 -2.2859
  187MOL0     H25218   8.353   3.567  10.418 -0.8422 -0.2055  0.0567
  187MOL0     H25219   8.442   3.282  10.366  2.9493  0.6168  3.4343
  187MOL0     H25220   8.276   3.340  10.367  0.1794 -0.6940 -1.5493
  187MOL0     H25221   8.465   3.430  10.591 -0.6529  0.4452 -1.2968
  187MOL0     H25222   8.297   3.394  10.599 -0.0458 -3.4971  1.1707
  187MOL0     H25223   8.505   3.175  10.555 -0.3563 -0.6673  0.8197
  187MOL0     H25224   8.329   3.150  10.585  1.3513 -2.0213  1.7472
  187MOL0     H25225   8.513   3.258  10.789 -0.0624  0.4389 -0.0015
  187MOL0     H25226   8.471   3.084  10.750  1.1316  0.1152 -0.1936
  187MOL0     H25227   8.855   3.463  10.160 -4.5234  2.4202 -0.7577
  187MOL0     H25228   9.106   3.472  10.185 -0.5587  0.2790  0.7454
  187MOL0     H25229   9.428   3.842  10.037  0.7957  1.2378  1.4688
  187MOL0     H25230   9.692   3.858   9.969  0.2430  2.4477  1.2695
  187MOL0     H25231  10.772   5.191  10.774  2.5001  0.8629 -1.2571
  187MOL0     H25232  10.947   5.296  10.932  1.7597  0.1044  1.2741
  187MOL0     H25233  11.489   5.062  11.007  0.5574  0.3189  0.2154
  187MOL0     H25234  11.666   5.063  11.174 -0.6149 -0.9769 -1.0514
  187MOL0     H25235  11.586   5.286  11.532 -0.0414  0.1252  1.1601
  187MOL0     H25236  11.604   5.132  11.621  1.0520 -1.1225 -0.5606
  187MOL0     H25237  11.789   5.314  11.662  0.9299 -0.4318  1.7177
  187MOL0     H25238  11.841   5.239  11.503  1.1453  1.7995  1.6937
  187MOL0     H25239  11.849   5.017  11.614  2.4424  1.1015 -1.2185
  187MOL0     H25240  11.774   5.078  11.753 -0.0425 -0.4797 -0.1315
  187MOL0     H25241  11.960   5.237  11.791  2.0122  2.6206 -2.8887
  187MOL0     H25242  12.022   5.200  11.635 -2.6611  0.0126 -1.1640
  187MOL0     H25243  12.144   4.875  11.900  1.3357 -0.1203 -0.7121
  187MOL0     H25244  11.391   5.173  11.487 -0.8068  1.1303  0.0073
  187MOL0     H25245  11.212   5.163  11.322  0.6154 -0.0835  0.7236
  188MOL0     O25246   9.631   9.803   2.628  1.1524 -0.1603  0.0293
  188MOL0     C25247   9.727   9.772   2.693 -0.1181  0.2340  0.0258
  188MOL0     O25248   9.764   9.646   2.731  0.0336  0.4098 -0.4860
  188MOL0     C25249   9.681   9.537   2.711 -0.4539  0.5132 -0.1377
  188MOL0     C25250   9.754   9.418   2.697  0.0660  0.0047 -0.3596
  188MOL0     C25251   9.697   9.291   2.658  0.0050 -0.7697 -0.6611
  188MOL0     C25252   9.555   9.286   2.636 -0.1455 -0.6592  0.5213
  188MOL0     O25253   9.502   9.166   2.600  0.1900  0.4922 -0.0294
  188MOL0     C25254   9.381   9.123   2.670  0.1408 -0.0031  1.3567
  188MOL0     C25255   9.414   9.105   2.816 -0.3949  0.2305  0.0679
  188MOL0     C25256   9.296   9.042   2.885 -0.7160 -0.2260 -0.8925
  188MOL0     C25257   9.274   8.901   2.846  0.0111  0.6766 -0.5380
  188MOL0     C25258   9.147   8.837   2.913  0.5723 -0.0642  0.3650
  188MOL0     C25259   9.160   8.809   3.060 -0.7919  0.5806 -0.0721
  188MOL0     C25260   9.064   8.691   3.102  0.0379 -0.1603  0.2847
  188MOL0     C25261   8.919   8.688   3.060  0.3764 -0.6296  0.0227
  188MOL0     N25262   8.834   8.626   3.163 -0.0765  0.4703 -0.3608
  188MOL0     C25263   8.747   8.692   3.236  0.1226  0.0275 -0.7289
  188MOL0     C25264   8.688   8.601   3.321 -0.2769 -0.6549 -0.3250
  188MOL0     C25265   8.577   8.625   3.423 -0.0751  0.8180  0.4544
  188MOL0     C25266   8.456   8.538   3.385 -1.0142  0.0615 -0.0553
  188MOL0     C25267   8.341   8.554   3.478  0.0436 -0.5584  0.2733
  188MOL0     C25268   8.223   8.471   3.429 -0.5795 -0.1165 -0.0100
  188MOL0     O25269   8.097   8.518   3.478 -0.0233  0.5001 -0.1306
  188MOL0     C25270   7.985   8.444   3.450  0.4617  0.0523  0.1842
  188MOL0     C25271   7.868   8.495   3.500  1.0904 -0.6523 -0.8055
  188MOL0     C25272   7.742   8.426   3.492  0.1825 -0.0204 -0.5312
  188MOL0     C25273   7.619   8.480   3.562 -0.1462  1.5308  0.3668
  188MOL0     C25274   7.738   8.301   3.423 -0.3675  0.4851  0.0291
  188MOL0     C25275   7.621   8.220   3.409 -0.0559 -0.0328 -0.2270
  188MOL0     O25276   7.519   8.271   3.345  0.4116  0.3529  0.3435
  188MOL0     C25277   7.413   8.185   3.340 -0.5468  0.4483 -0.1273
  188MOL0     C25278   7.314   8.199   3.436 -0.1602 -0.8190  0.0418
  188MOL0     C25279   7.193   8.131   3.431 -0.1065 -0.0897 -0.5046
  188MOL0     C25280   7.155   8.043   3.325 -0.0978  0.2729 -0.5553
  188MOL0     O25281   7.057   7.947   3.336  1.0713 -0.2115 -0.3291
  188MOL0     C25282   6.949   7.954   3.426  0.5013  1.0021  0.4015
  188MOL0     C25283   6.810   7.943   3.365  0.2581  0.1001  0.0836
  188MOL0     C25284   6.777   7.807   3.304 -0.0336 -0.0703 -0.5113
  188MOL0     C25285   6.625   7.806   3.285  0.1372  0.7606 -0.2478
  188MOL0     C25286   6.592   7.679   3.198  0.0390 -0.4544  0.3998
  188MOL0     C25287   6.442   7.654   3.175  0.1868 -0.5029 -1.2113
  188MOL0     C25288   6.397   7.560   3.061 -0.5555 -0.6629 -0.5206
  188MOL0     C25289   6.250   7.562   3.029  0.4466 -0.4860 -0.0190
  188MOL0    Cl25290   6.226   7.433   2.920 -0.6957  0.0124 -0.1413
  188MOL0     C25291   7.260   8.022   3.228  0.4782 -0.0385  1.4426
  188MOL0     C25292   7.389   8.099   3.232  0.0207  1.0017 -0.3176
  188MOL0     O25293   7.634   8.108   3.449  0.8112  0.5855  0.1260
  188MOL0     C25294   7.860   8.252   3.358  0.9776  0.1467 -0.3839
  188MOL0     C25295   7.982   8.316   3.386 -0.7438  0.0258 -0.9670
  188MOL0     N25296   8.746   8.483   3.293 -0.1452  0.9626  0.0182
  188MOL0     N25297   8.842   8.497   3.206 -0.5098  0.0150 -0.3133
  188MOL0     C25298   9.480   9.405   2.652 -0.1682  1.0967 -0.3021
  188MOL0     C25299   9.538   9.533   2.683 -0.0308  0.5857 -0.7256
  188MOL0     C25300   9.832   9.876   2.717 -0.2643 -0.0475  0.0706
  188MOL0     C25301   9.835   9.997   2.640  0.4230  0.2125 -0.2532
  188MOL0     C25302   9.940  10.089   2.664  0.0066  0.9377  0.4548
  188MOL0     C25303  10.039  10.066   2.766 -0.0500 -0.2276 -0.2621
  188MOL0     O25304  10.141  10.149   2.797 -0.3455  0.0804 -0.4725
  188MOL0     C25305  10.143  10.291   2.760 -0.2062  0.4764 -0.5932
  188MOL0     C25306  10.272  10.349   2.816  0.2279 -0.3118 -0.7293
  188MOL0     C25307  10.288  10.323   2.973 -1.1396  0.2032 -0.0678
  188MOL0     C25308  10.194  10.398   3.057  0.9280  0.2633 -0.3195
  188MOL0     C25309  10.227  10.386   3.195  0.3307  0.3622 -0.0826
  188MOL0     C25310  10.243  10.358   3.314 -0.1299 -1.2069  0.6418
  188MOL0     C25311  10.025   9.955   2.846  0.3112  0.2100 -0.0543
  188MOL0     C25312   9.922   9.860   2.819 -0.1277  0.4777 -0.2313
  188MOL0     H25313   9.862   9.431   2.696  0.2354 -1.2720 -0.2493
  188MOL0     H25314   9.760   9.202   2.656 -3.2884 -3.4538  1.7569
  188MOL0     H25315   9.298   9.193   2.659 -0.3846 -0.6638  0.9876
  188MOL0     H25316   9.353   9.024   2.633  1.6468  0.7036 -2.0355
  188MOL0     H25317   9.502   9.040   2.821  0.1026  0.6366 -2.0759
  188MOL0     H25318   9.445   9.203   2.852  1.1166  0.3912 -1.4858
  188MOL0     H25319   9.317   9.051   2.992 -0.4962 -1.3602 -0.8242
  188MOL0     H25320   9.210   9.108   2.871 -0.4292  1.3876  3.4031
  188MOL0     H25321   9.252   8.897   2.739 -2.9272  2.3643 -0.1196
  188MOL0     H25322   9.365   8.846   2.869 -0.4997  0.9609  2.5366
  188MOL0     H25323   9.061   8.899   2.883  0.8166 -0.3133 -0.9110
  188MOL0     H25324   9.123   8.745   2.859  0.3896  1.4939 -2.3876
  188MOL0     H25325   9.264   8.792   3.087 -1.1547 -0.8341  0.5196
  188MOL0     H25326   9.136   8.906   3.105  0.6027  0.7317  0.4076
  188MOL0     H25327   9.105   8.600   3.056 -0.0393 -1.4350  2.5509
  188MOL0     H25328   9.073   8.677   3.210 -2.5479 -2.3023  0.3470
  188MOL0     H25329   8.900   8.625   2.972 -0.8548 -1.7952  1.0872
  188MOL0     H25330   8.889   8.792   3.044 -2.2682 -1.1841  0.9443
  188MOL0     H25331   8.724   8.798   3.234  0.9824  0.2760  0.8571
  188MOL0     H25332   8.606   8.595   3.525 -2.4382 -0.1680  0.9033
  188MOL0     H25333   8.563   8.733   3.433  1.9687  1.2844 -0.9576
  188MOL0     H25334   8.491   8.436   3.400  0.4710  0.2482 -1.8054
  188MOL0     H25335   8.432   8.558   3.280  0.6280 -0.8626 -0.6471
  188MOL0     H25336   8.313   8.660   3.480  0.2300 -0.5139  0.8397
  188MOL0     H25337   8.368   8.529   3.581  1.0049 -2.1702 -0.3344
  188MOL0     H25338   8.240   8.370   3.468  1.0569  0.8253  1.8657
  188MOL0     H25339   8.223   8.472   3.320  3.7651 -2.0830 -0.2329
  188MOL0     H25340   7.873   8.587   3.557 -0.2988 -1.3783  0.5501
  188MOL0     H25341   7.587   8.424   3.651  0.6129  0.5102  0.0187
  188MOL0     H25342   7.644   8.578   3.603 -0.5365  0.6887  2.7875
  188MOL0     H25343   7.532   8.489   3.497 -0.7480  0.1552  0.9304
  188MOL0     H25344   7.339   8.262   3.521 -0.7631  0.8504 -0.9439
  188MOL0     H25345   7.131   8.146   3.519 -1.6468  1.8560 -1.8197
  188MOL0     H25346   6.960   7.875   3.501 -1.7614  0.7922  0.6030
  188MOL0     H25347   6.953   8.050   3.479  2.1063  2.1809 -1.7018
  188MOL0     H25348   6.738   7.966   3.445  0.0111 -2.4588  0.6672
  188MOL0     H25349   6.785   8.027   3.299 -1.0917  1.8843  2.6939
  188MOL0     H25350   6.815   7.724   3.365 -1.7569 -1.3796 -1.1466
  188MOL0     H25351   6.831   7.801   3.209  3.8792  0.8342  1.4278
  188MOL0     H25352   6.569   7.806   3.379 -1.2957 -2.3027 -0.9939
  188MOL0     H25353   6.604   7.901   3.234  2.2098  1.6457  0.4012
  188MOL0     H25354   6.647   7.591   3.233  3.5931  1.3978 -0.0404
  188MOL0     H25355   6.636   7.697   3.099  1.6473  1.0996  1.3350
  188MOL0     H25356   6.407   7.623   3.274 -0.0250  0.2869 -1.0293
  188MOL0     H25357   6.398   7.754   3.167  1.0269  0.2287  1.9614
  188MOL0     H25358   6.433   7.463   3.096  1.2799  0.7657  1.8922
  188MOL0     H25359   6.448   7.591   2.969 -2.6116  4.0918 -0.3652
  188MOL0     H25360   6.219   7.656   2.983  0.5367 -0.1151  0.6546
  188MOL0     H25361   6.194   7.525   3.116  0.9868 -3.1675 -0.7349
  188MOL0     H25362   7.241   7.946   3.153 -0.4534  0.5054  1.1191
  188MOL0     H25363   7.469   8.069   3.164  2.2303  2.4734  1.4728
  188MOL0     H25364   7.855   8.158   3.304  0.0047 -1.0283  1.6506
  188MOL0     H25365   8.074   8.275   3.347  0.2802  0.4837  0.8796
  188MOL0     H25366   9.375   9.407   2.626  0.0511 -3.6949 -2.6393
  188MOL0     H25367   9.478   9.621   2.699 -0.5823  0.3345 -1.3852
  188MOL0     H25368   9.765  10.004   2.557 -1.0745  0.9898  1.0303
  188MOL0     H25369   9.949  10.169   2.591 -1.0880  0.2004 -0.5128
  188MOL0     H25370  10.129  10.305   2.652  0.5365  0.2644 -0.7255
  188MOL0     H25371  10.053  10.333   2.807 -1.5900 -1.4110 -1.4277
  188MOL0     H25372  10.280  10.457   2.800  1.5770 -0.2563  0.1673
  188MOL0     H25373  10.356  10.308   2.759  0.8505  0.3456 -0.3110
  188MOL0     H25374  10.390  10.346   3.005 -1.0512 -2.2890  1.7191
  188MOL0     H25375  10.277  10.216   2.993  1.3567 -0.1629 -0.3534
  188MOL0     H25376  10.097  10.348   3.055  0.4851  0.8774  1.9505
  188MOL0     H25377  10.182  10.505   3.038  2.3810  1.3885  3.9184
  188MOL0     H25378  10.249  10.311   3.410  0.5121 -2.1690  0.1451
  188MOL0     H25379  10.086   9.936   2.934  3.3850 -1.2980 -2.3214
  188MOL0     H25380   9.927   9.783   2.896  3.3011  3.7657  3.3231
  189MOL0     O25381   4.862   1.024   1.501 -0.2368  0.0693  0.7962
  189MOL0     C25382   4.928   1.048   1.395  0.3601  0.1662 -1.0472
  189MOL0     O25383   4.873   1.114   1.288 -0.4020  0.2535 -0.4420
  189MOL0     C25384   4.736   1.118   1.297  0.2214 -0.0365 -0.3178
  189MOL0     C25385   4.662   1.008   1.250 -0.5303 -0.1725  0.4658
  189MOL0     C25386   4.521   1.014   1.259  0.6364 -0.3549  0.1327
  189MOL0     C25387   4.452   1.125   1.303  1.3932 -0.1601  0.3875
  189MOL0     O25388   4.315   1.113   1.297 -0.7628  0.3987 -1.0324
  189MOL0     C25389   4.251   1.229   1.242  0.2760  0.0249 -0.6638
  189MOL0     C25390   4.106   1.190   1.209 -0.7481  0.5512  0.4527
  189MOL0     C25391   4.038   1.139   1.330  0.7827  0.4683  0.2122
  189MOL0     C25392   3.894   1.117   1.302 -0.5940 -0.8390  0.7807
  189MOL0     C25393   3.819   1.066   1.425  0.3590 -0.4075 -0.1409
  189MOL0     C25394   3.687   1.003   1.400 -1.0274  0.2841  0.4794
  189MOL0     C25395   3.576   1.094   1.342 -0.0287 -0.1582 -0.1304
  189MOL0     C25396   3.480   1.163   1.444  0.0459  1.0380 -0.1926
  189MOL0     N25397   3.357   1.209   1.383 -0.1410  0.3214  0.2761
  189MOL0     C25398   3.252   1.135   1.322  0.5390  0.0140  0.3996
  189MOL0     C25399   3.159   1.222   1.291  1.4558  0.6152 -0.0833
  189MOL0     C25400   3.016   1.175   1.249 -0.2992 -0.3002 -0.4293
  189MOL0     C25401   2.920   1.210   1.358  0.2826  0.3036 -0.1949
  189MOL0     C25402   2.774   1.159   1.325 -0.2404 -1.1100  0.1176
  189MOL0     C25403   2.666   1.245   1.395 -0.3024  0.6524 -0.0181
  189MOL0     O25404   2.529   1.211   1.362  0.5790 -0.1386  0.3080
  189MOL0     C25405   2.446   1.281   1.277 -0.3729  0.2779 -0.2257
  189MOL0     C25406   2.491   1.373   1.175 -0.1893  0.4989 -0.7099
  189MOL0     C25407   2.395   1.441   1.097  0.2219 -0.0755  0.2861
  189MOL0     C25408   2.444   1.537   0.992 -0.6329  0.5996 -0.0103
  189MOL0     C25409   2.257   1.410   1.123  0.2905  0.7845  0.1867
  189MOL0     C25410   2.147   1.446   1.031 -0.5909  0.6679  0.6411
  189MOL0     O25411   2.027   1.488   1.088  0.6106  0.8821  0.4552
  189MOL0     C25412   1.898   1.494   1.025 -0.1095  0.1095  0.3586
  189MOL0     C25413   1.891   1.565   0.900 -0.7994 -0.2581 -0.1220
  189MOL0     C25414   1.766   1.583   0.840  0.2587 -0.3481  0.1336
  189MOL0     C25415   1.652   1.536   0.904 -0.3562 -0.2816  0.7585
  189MOL0     O25416   1.538   1.563   0.839 -0.1910 -0.2113  0.0470
  189MOL0     C25417   1.402   1.532   0.898 -0.4212 -0.1178 -0.3365
  189MOL0     C25418   1.283   1.527   0.808  0.4080 -0.5153 -0.3190
  189MOL0     C25419   1.271   1.654   0.717  0.0359 -0.2563 -0.9344
  189MOL0     C25420   1.134   1.661   0.649 -0.4221  0.8637 -0.6144
  189MOL0     C25421   1.018   1.679   0.747  0.5078 -0.7874 -0.2427
  189MOL0     C25422   0.889   1.700   0.659 -0.7560  0.7307  0.1888
  189MOL0     C25423   0.882   1.831   0.580  0.0527  0.5506  0.7284
  189MOL0     C25424   0.738   1.882   0.561  0.2851  0.7804 -0.4177
  189MOL0    Cl25425   0.649   1.736   0.514 -0.2644  0.7690  0.1857
  189MOL0     C25426   1.653   1.464   1.022  0.1806 -0.2541  0.1147
  189MOL0     C25427   1.776   1.446   1.082  0.5320 -0.2794 -0.0323
  189MOL0     O25428   2.178   1.457   0.912  0.7395  0.1796  0.9458
  189MOL0     C25429   2.219   1.326   1.228 -0.6385 -0.9055 -0.3566
  189MOL0     C25430   2.314   1.261   1.297  0.5607 -0.5316  0.1215
  189MOL0     N25431   3.189   1.344   1.338 -0.5158 -0.5217 -0.0272
  189MOL0     N25432   3.309   1.330   1.397 -1.2085 -0.1959 -0.0434
  189MOL0     C25433   4.522   1.232   1.338 -0.8216 -0.1533  0.5391
  189MOL0     C25434   4.668   1.232   1.336  0.9064 -0.4395 -0.3550
  189MOL0     C25435   5.062   0.990   1.377  0.3538 -0.3889  0.5983
  189MOL0     C25436   5.132   0.929   1.473  0.3552  1.0894  0.3369
  189MOL0     C25437   5.263   0.885   1.449  0.6907  0.4900 -0.1195
  189MOL0     C25438   5.321   0.898   1.322  0.2295 -0.2984 -0.7331
  189MOL0     O25439   5.445   0.850   1.302  0.1296  0.1613 -0.2802
  189MOL0     C25440   5.535   0.952   1.268 -0.5438 -0.0088 -0.7197
  189MOL0     C25441   5.680   0.896   1.273  0.1759  0.9302  0.2720
  189MOL0     C25442   5.715   0.853   1.410  0.2610 -0.3255 -0.0603
  189MOL0     C25443   5.869   0.840   1.421  0.1515 -0.6302  0.1605
  189MOL0     C25444   5.931   0.975   1.420  0.1986 -0.0627 -0.1010
  189MOL0     C25445   5.971   1.093   1.410  0.4104 -0.5476  0.2286
  189MOL0     C25446   5.250   0.949   1.219  0.6048 -0.9998 -0.4355
  189MOL0     C25447   5.125   1.002   1.247  0.2911 -0.6245 -0.0260
  189MOL0     H25448   4.714   0.931   1.195 -2.9309 -1.0956 -0.6853
  189MOL0     H25449   4.470   0.927   1.220 -3.0094  1.3876  0.6736
  189MOL0     H25450   4.260   1.311   1.314  3.3166 -1.4593  0.8068
  189MOL0     H25451   4.297   1.258   1.147 -0.9498 -0.3474 -1.4051
  189MOL0     H25452   4.049   1.273   1.165 -0.0099  0.6687 -0.3034
  189MOL0     H25453   4.105   1.117   1.127  1.4472  1.9914 -0.9678
  189MOL0     H25454   4.082   1.042   1.355  0.1323 -1.3841 -4.6789
  189MOL0     H25455   4.039   1.206   1.417 -0.8114  1.5813 -0.5718
  189MOL0     H25456   3.861   1.216   1.271  3.3428  0.5502  0.4282
  189MOL0     H25457   3.878   1.045   1.221 -1.8576 -0.4985  0.7039
  189MOL0     H25458   3.878   0.993   1.481 -0.4488 -0.7488  0.2654
  189MOL0     H25459   3.820   1.143   1.503  0.6479 -2.6632  2.2215
  189MOL0     H25460   3.715   0.932   1.321  1.6216  1.6726  0.0566
  189MOL0     H25461   3.659   0.950   1.491 -1.9604  2.2021  1.3607
  189MOL0     H25462   3.622   1.172   1.281  1.9143  0.4283  1.9375
  189MOL0     H25463   3.515   1.033   1.275 -0.0370 -0.7396  0.3955
  189MOL0     H25464   3.523   1.248   1.497 -0.8191  1.1462  0.3606
  189MOL0     H25465   3.460   1.096   1.527 -0.3150  3.4555  1.7944
  189MOL0     H25466   3.244   1.029   1.300  0.1894 -0.1709  1.3335
  189MOL0     H25467   2.980   1.225   1.159 -0.3055  0.0912 -0.2114
  189MOL0     H25468   3.012   1.069   1.222  0.6044  0.3444 -3.4372
  189MOL0     H25469   2.919   1.319   1.372 -1.6629  0.5091 -1.5183
  189MOL0     H25470   2.945   1.163   1.453  0.6589  1.1009  0.1153
  189MOL0     H25471   2.782   1.055   1.356  1.9153 -0.7266  1.0576
  189MOL0     H25472   2.754   1.157   1.217  0.2212  0.9699 -0.0658
  189MOL0     H25473   2.691   1.346   1.361  0.8900  0.2345 -0.3985
  189MOL0     H25474   2.678   1.228   1.503  4.2201 -1.7183 -0.6477
  189MOL0     H25475   2.597   1.379   1.152 -0.4633  1.0377 -1.9436
  189MOL0     H25476   2.522   1.591   1.044 -1.7932  2.0139  0.3236
  189MOL0     H25477   2.477   1.484   0.902 -1.6306 -2.5829  1.3360
  189MOL0     H25478   2.369   1.613   0.966 -1.6231  0.2039  1.5521
  189MOL0     H25479   1.986   1.607   0.868 -0.5393 -0.2189  0.6674
  189MOL0     H25480   1.757   1.631   0.743 -0.9017 -1.5308 -0.3753
  189MOL0     H25481   1.414   1.429   0.934  1.9405  0.4330  0.6803
  189MOL0     H25482   1.383   1.602   0.980  3.7969 -1.2062  1.8811
  189MOL0     H25483   1.284   1.432   0.755  0.4465 -0.2333 -0.8349
  189MOL0     H25484   1.194   1.520   0.871  0.4780 -0.1758 -0.1799
  189MOL0     H25485   1.350   1.643   0.643  2.7132 -1.3684  1.8781
  189MOL0     H25486   1.293   1.741   0.780 -0.2161  0.0140 -1.2137
  189MOL0     H25487   1.129   1.748   0.584 -1.1559  2.1119  1.0319
  189MOL0     H25488   1.120   1.570   0.591 -1.6853 -0.2792  1.3603
  189MOL0     H25489   1.028   1.773   0.803 -0.1178 -1.2253  0.6358
  189MOL0     H25490   1.015   1.596   0.818  1.4065 -2.5266 -2.1483
  189MOL0     H25491   0.855   1.618   0.596 -1.4458  1.1555 -0.0139
  189MOL0     H25492   0.814   1.702   0.740 -0.1386 -0.4517  0.8099
  189MOL0     H25493   0.925   1.811   0.481  1.6385  0.6154  1.3814
  189MOL0     H25494   0.943   1.913   0.619  0.8444  0.3700 -0.0787
  189MOL0     H25495   0.737   1.964   0.489  2.4674  0.5563 -0.7715
  189MOL0     H25496   0.695   1.924   0.653 -2.9866 -1.1127 -0.9374
  189MOL0     H25497   1.564   1.433   1.076 -0.4515  2.7385  0.9953
  189MOL0     H25498   1.777   1.382   1.169  1.6990  0.5035  0.5593
  189MOL0     H25499   2.117   1.303   1.257 -1.0885  0.1815 -1.0419
  189MOL0     H25500   2.279   1.203   1.382  0.0245 -2.3375 -1.2633
  189MOL0     H25501   4.467   1.324   1.353  2.4454  2.1145 -0.2873
  189MOL0     H25502   4.728   1.316   1.367 -3.0100  0.9192  4.9260
  189MOL0     H25503   5.094   0.910   1.573  0.0731  2.2386  0.4570
  189MOL0     H25504   5.323   0.838   1.527  1.9730 -0.7189 -1.7665
  189MOL0     H25505   5.503   0.991   1.171  0.2733  1.0397 -0.5853
  189MOL0     H25506   5.521   1.042   1.329  0.3590  0.6516 -1.4576
  189MOL0     H25507   5.752   0.972   1.242  0.6382  0.3372 -0.1460
  189MOL0     H25508   5.682   0.818   1.196 -1.4126  0.2165  0.9025
  189MOL0     H25509   5.672   0.753   1.404  1.9280 -1.0016 -1.7755
  189MOL0     H25510   5.659   0.918   1.478  1.5611  2.4454 -1.4958
  189MOL0     H25511   5.896   0.792   1.327 -0.5604 -0.3500 -0.1901
  189MOL0     H25512   5.907   0.782   1.506  1.4940 -0.3359 -0.2029
  189MOL0     H25513   5.998   1.195   1.395 -0.6622 -0.3298 -0.3454
  189MOL0     H25514   5.298   0.975   1.125  0.4397  0.7914 -0.0706
  189MOL0     H25515   5.084   1.048   1.158  0.4635 -0.1550  0.1344
  190MOL0     O25516   8.549   2.421   4.672  0.2975  0.1736 -0.3741
  190MOL0     C25517   8.636   2.494   4.699 -0.1610 -0.1589  0.0990
  190MOL0     O25518   8.623   2.631   4.726  0.4331  0.0206  0.2578
  190MOL0     C25519   8.491   2.678   4.730 -0.2147  0.8348  0.3936
  190MOL0     C25520   8.438   2.759   4.629  0.4800 -0.5285  0.6010
  190MOL0     C25521   8.312   2.808   4.644  0.3247  0.1494 -0.2295
  190MOL0     C25522   8.230   2.784   4.750 -0.6437  0.5312 -0.7450
  190MOL0     O25523   8.104   2.827   4.765 -0.2642  0.9164  0.0336
  190MOL0     C25524   8.084   2.965   4.753  0.0081  0.4644 -0.5995
  190MOL0     C25525   7.955   3.004   4.828 -0.3148 -0.1379  0.0531
  190MOL0     C25526   7.924   3.154   4.800  0.2060  0.2972 -0.2957
  190MOL0     C25527   7.801   3.218   4.880 -0.0986 -0.1776 -0.2659
  190MOL0     C25528   7.779   3.365   4.842 -0.2762  0.3825  0.2855
  190MOL0     C25529   7.637   3.422   4.861 -0.3877  0.0130 -0.4137
  190MOL0     C25530   7.582   3.430   5.009 -0.0989  0.2648  0.8452
  190MOL0     C25531   7.437   3.491   5.031  0.5800  0.7084 -0.1510
  190MOL0     N25532   7.334   3.408   4.953  0.5022  0.1185  0.2748
  190MOL0     C25533   7.276   3.292   4.999  0.7237  0.9350 -0.3036
  190MOL0     C25534   7.187   3.266   4.901  0.3723 -0.0897  0.2663
  190MOL0     C25535   7.097   3.146   4.908  0.2194 -0.1641 -0.1115
  190MOL0     C25536   6.960   3.177   4.965  0.1498 -0.0424  0.7095
  190MOL0     C25537   6.892   3.282   4.884  0.6243  0.0997  0.3910
  190MOL0     C25538   6.757   3.325   4.945  0.3155  0.4135 -0.4439
  190MOL0     O25539   6.787   3.393   5.062 -0.2288 -0.0751 -0.0027
  190MOL0     C25540   6.673   3.440   5.118  1.3738  1.0549  0.7632
  190MOL0     C25541   6.647   3.572   5.123 -0.6191 -0.0685  0.3271
  190MOL0     C25542   6.519   3.625   5.171 -0.9999  0.6463  0.1247
  190MOL0     C25543   6.501   3.770   5.173  0.6928 -0.1476 -0.9094
  190MOL0     C25544   6.419   3.532   5.210 -0.2019  0.7468  0.2714
  190MOL0     C25545   6.281   3.564   5.264  0.9351 -0.1878  0.3801
  190MOL0     O25546   6.186   3.463   5.281  0.8757 -0.7740 -0.0858
  190MOL0     C25547   6.055   3.490   5.318  0.0996  0.1788 -0.3940
  190MOL0     C25548   5.952   3.433   5.244  0.7252 -0.3710 -0.6673
  190MOL0     C25549   5.822   3.441   5.287 -0.0164 -0.6373  0.2175
  190MOL0     C25550   5.792   3.511   5.407 -0.2389  0.0230  0.9920
  190MOL0     O25551   5.669   3.524   5.465 -0.1805 -0.4555  0.1851
  190MOL0     C25552   5.550   3.462   5.405 -0.2180 -0.1446 -0.2657
  190MOL0     C25553   5.427   3.508   5.490 -0.1167  0.8314  0.3689
  190MOL0     C25554   5.307   3.418   5.448 -0.1944  0.2200 -0.4980
  190MOL0     C25555   5.182   3.460   5.537 -0.8282 -0.8543 -0.2926
  190MOL0     C25556   5.059   3.390   5.489 -0.2099 -0.2370 -0.8906
  190MOL0     C25557   4.936   3.468   5.542  0.1603  0.3767 -0.2563
  190MOL0     C25558   4.807   3.390   5.520 -0.0741 -0.2452  0.5675
  190MOL0     C25559   4.682   3.466   5.562  0.3458  0.1372 -0.0674
  190MOL0    Cl25560   4.549   3.361   5.498  0.4595  0.2290 -0.1362
  190MOL0     C25561   5.897   3.561   5.481 -0.6184  0.5551 -0.2643
  190MOL0     C25562   6.026   3.556   5.436 -0.8223 -0.6514  0.2823
  190MOL0     O25563   6.264   3.678   5.294 -0.4271 -0.6344  0.0585
  190MOL0     C25564   6.450   3.395   5.218  0.6396 -0.2797 -0.8963
  190MOL0     C25565   6.575   3.349   5.172  0.0304  0.7118  0.0628
  190MOL0     N25566   7.201   3.361   4.804  0.2036 -0.4492 -0.0744
  190MOL0     N25567   7.303   3.437   4.825 -0.5053 -0.2874  0.2464
  190MOL0     C25568   8.272   2.685   4.843 -0.2855  0.0897 -0.0790
  190MOL0     C25569   8.399   2.631   4.832 -0.1759 -0.5730  0.4839
  190MOL0     C25570   8.777   2.433   4.714 -0.3295  0.5258 -0.0193
  190MOL0     C25571   8.891   2.505   4.681  0.1974  0.1732  0.3098
  190MOL0     C25572   9.017   2.451   4.690  1.0154 -0.7428  0.5457
  190MOL0     C25573   9.047   2.340   4.763  0.4226 -0.2267  0.8492
  190MOL0     O25574   9.171   2.285   4.792  0.4315  0.3552  0.3834
  190MOL0     C25575   9.292   2.340   4.739 -0.2520  0.4214  0.7488
  190MOL0     C25576   9.323   2.447   4.844 -0.3456 -0.2019  0.0283
  190MOL0     C25577   9.465   2.507   4.832  0.0590 -0.3333 -0.5336
  190MOL0     C25578   9.579   2.402   4.873 -1.2666 -0.2146  0.3756
  190MOL0     C25579   9.710   2.477   4.878 -0.5593  0.4372 -0.9761
  190MOL0     C25580   9.817   2.545   4.872 -0.3488 -0.1429 -0.0733
  190MOL0     C25581   8.935   2.262   4.796  0.2197 -0.2211 -0.0111
  190MOL0     C25582   8.800   2.301   4.768  0.3129  0.4262 -0.3671
  190MOL0     H25583   8.501   2.794   4.548  1.7863  0.4069  1.9697
  190MOL0     H25584   8.269   2.867   4.564 -1.9877 -2.9020 -1.4804
  190MOL0     H25585   8.166   3.023   4.798 -0.7215  2.9825 -2.3324
  190MOL0     H25586   8.070   2.996   4.650 -0.6859 -2.5001 -1.4910
  190MOL0     H25587   7.865   2.947   4.800 -1.0132  0.7926  0.3702
  190MOL0     H25588   7.970   2.999   4.936 -4.5560 -0.8820  0.7751
  190MOL0     H25589   8.016   3.208   4.823 -0.3219  0.3761  1.9217
  190MOL0     H25590   7.904   3.168   4.693  0.2739 -1.0273 -0.4976
  190MOL0     H25591   7.719   3.148   4.864 -0.5682  0.3815 -0.3209
  190MOL0     H25592   7.826   3.211   4.986  0.5417 -2.6346 -0.5140
  190MOL0     H25593   7.855   3.423   4.896  3.4459 -0.6313 -3.3800
  190MOL0     H25594   7.806   3.380   4.737  1.3256  1.7773  0.8538
  190MOL0     H25595   7.633   3.522   4.818 -1.2159 -0.3773 -1.2631
  190MOL0     H25596   7.569   3.356   4.807  2.1594 -2.2653 -1.1046
  190MOL0     H25597   7.586   3.333   5.059 -4.4079 -0.4189  0.2800
  190MOL0     H25598   7.651   3.495   5.062  2.2756 -1.3164 -0.1459
  190MOL0     H25599   7.428   3.596   5.003  1.4847  0.8035 -0.1264
  190MOL0     H25600   7.427   3.476   5.138 -1.3010 -0.2169 -0.4093
  190MOL0     H25601   7.300   3.232   5.086 -0.9212  0.1046 -0.3810
  190MOL0     H25602   7.077   3.109   4.807  0.9081  0.8832 -0.6453
  190MOL0     H25603   7.139   3.063   4.966 -2.1162 -2.8464 -1.9215
  190MOL0     H25604   6.978   3.215   5.066  2.5968  0.9258 -0.0199
  190MOL0     H25605   6.895   3.089   4.970 -1.5669  0.9327 -2.1487
  190MOL0     H25606   6.868   3.240   4.786 -1.9725  0.8880  0.6135
  190MOL0     H25607   6.956   3.371   4.879 -0.5136  0.9040 -0.5188
  190MOL0     H25608   6.693   3.239   4.963  0.3199  0.6633  0.8530
  190MOL0     H25609   6.704   3.388   4.872 -0.3197  0.7518  0.3001
  190MOL0     H25610   6.722   3.641   5.086 -0.9724  0.4089  0.4851
  190MOL0     H25611   6.480   3.800   5.276  2.1498  1.4737 -1.0361
  190MOL0     H25612   6.569   3.842   5.125  0.4402  0.7325  0.0153
  190MOL0     H25613   6.407   3.781   5.118 -0.4846 -1.2689  0.7941
  190MOL0     H25614   5.977   3.386   5.149  1.6663  0.5529 -0.8991
  190MOL0     H25615   5.742   3.397   5.229 -0.7453  0.7710  0.0969
  190MOL0     H25616   5.536   3.497   5.302 -0.7928  0.6513  0.0701
  190MOL0     H25617   5.563   3.354   5.396 -2.0884 -0.3182 -1.4775
  190MOL0     H25618   5.449   3.509   5.598  1.0462 -0.4952  0.1797
  190MOL0     H25619   5.415   3.608   5.449 -0.4936  0.6935  0.1399
  190MOL0     H25620   5.335   3.315   5.470  1.3919  1.4047  3.9331
  190MOL0     H25621   5.281   3.408   5.342 -1.2161 -2.6980 -0.0587
  190MOL0     H25622   5.209   3.440   5.642 -0.8981 -0.6668 -0.2394
  190MOL0     H25623   5.174   3.568   5.530  1.0993 -0.6283  0.4451
  190MOL0     H25624   5.063   3.288   5.530  0.0625  0.4311  0.8424
  190MOL0     H25625   5.050   3.400   5.381  0.5955  2.9474 -0.7600
  190MOL0     H25626   4.943   3.508   5.643  2.3154  4.6593 -1.8571
  190MOL0     H25627   4.929   3.558   5.481  0.2248  1.2261  0.9719
  190MOL0     H25628   4.803   3.294   5.572 -1.2105  0.7169  2.3072
  190MOL0     H25629   4.791   3.388   5.411 -1.2393  2.4766  0.6224
  190MOL0     H25630   4.678   3.565   5.516  1.9556  1.3576  2.2252
  190MOL0     H25631   4.683   3.479   5.671 -0.7946  1.6386 -0.1962
  190MOL0     H25632   5.873   3.604   5.577  0.3463  0.4469  0.0329
  190MOL0     H25633   6.109   3.598   5.493  0.5270 -1.0315 -1.3301
  190MOL0     H25634   6.390   3.312   5.254  0.8854 -0.5402 -1.0792
  190MOL0     H25635   6.584   3.242   5.185 -2.5831  0.4001 -0.0560
  190MOL0     H25636   8.201   2.646   4.916  2.2546 -1.5000  1.7534
  190MOL0     H25637   8.437   2.558   4.904 -0.2493 -0.7903  0.3033
  190MOL0     H25638   8.883   2.606   4.640 -0.5997  0.3056  0.7741
  190MOL0     H25639   9.098   2.518   4.660  0.2474  1.0763  2.3009
  190MOL0     H25640   9.371   2.264   4.741 -1.3449 -0.7974 -0.3715
  190MOL0     H25641   9.291   2.387   4.640  3.4418 -0.2164  0.2830
  190MOL0     H25642   9.313   2.408   4.946  0.3800  2.1065  1.0460
  190MOL0     H25643   9.254   2.532   4.852  0.0511  0.0122  1.6558
  190MOL0     H25644   9.463   2.599   4.890 -2.7579 -0.0752 -0.9130
  190MOL0     H25645   9.483   2.540   4.729 -1.3874 -0.0011 -0.6928
  190MOL0     H25646   9.580   2.316   4.805 -0.5409  0.1527 -0.0932
  190MOL0     H25647   9.567   2.364   4.975  0.8826 -0.6299  0.5333
  190MOL0     H25648   9.901   2.611   4.862  0.0727 -0.7416 -0.5181
  190MOL0     H25649   8.954   2.163   4.836  2.5776  0.6620  1.2301
  190MOL0     H25650   8.720   2.244   4.815  0.4145  0.7780  0.2420
  191MOL0     O25651  11.188   9.674   8.340  0.3053  0.2058  0.2683
  191MOL0     C25652  11.135   9.580   8.271  0.1645 -0.4357  0.3427
  191MOL0     O25653  11.198   9.488   8.193 -0.1428  0.4484 -0.3965
  191MOL0     C25654  11.340   9.480   8.205  1.4706  0.1516 -0.9004
  191MOL0     C25655  11.410   9.472   8.334 -0.4067  0.4837  0.3221
  191MOL0     C25656  11.553   9.461   8.336  0.3992 -0.5236 -0.2631
  191MOL0     C25657  11.627   9.458   8.218 -0.2635  0.3519  0.0125
  191MOL0     O25658  11.763   9.472   8.225 -0.0913  0.1795 -0.2397
  191MOL0     C25659  11.841   9.409   8.121 -0.6097  0.0195  0.9472
  191MOL0     C25660  11.973   9.357   8.179  0.7108  0.2804 -0.0683
  191MOL0     C25661  11.944   9.237   8.268 -0.4581 -0.6378 -0.0578
  191MOL0     C25662  12.067   9.186   8.336 -0.1855  1.0899  0.2737
  191MOL0     C25663  12.031   9.069   8.428  0.1224 -0.1843 -0.1128
  191MOL0     C25664  12.159   9.002   8.483  0.5087  0.0665 -0.5876
  191MOL0     C25665  12.246   8.915   8.388 -0.2237  0.6979 -0.5283
  191MOL0     C25666  12.382   8.886   8.445 -0.3288  0.5695  1.1598
  191MOL0     N25667  12.391   8.790   8.555 -0.1916  0.2652 -0.5788
  191MOL0     C25668  12.309   8.682   8.583 -0.0025  0.4043  0.9226
  191MOL0     C25669  12.359   8.623   8.693  0.1735  0.6099  0.3361
  191MOL0     C25670  12.303   8.501   8.758 -0.1813  0.9316 -0.4839
  191MOL0     C25671  12.211   8.418   8.670 -0.1968  0.2218  0.1485
  191MOL0     C25672  12.180   8.280   8.728  0.2658  0.8072 -0.3156
  191MOL0     C25673  12.056   8.211   8.655 -0.7009  1.0298 -0.5648
  191MOL0     O25674  11.936   8.281   8.703  0.8781 -0.5394  0.8337
  191MOL0     C25675  11.809   8.223   8.684 -0.2353  0.2549 -0.3946
  191MOL0     C25676  11.793   8.095   8.628  0.2160  0.2010 -0.5897
  191MOL0     C25677  11.665   8.050   8.604 -0.5182  0.0678 -0.6821
  191MOL0     C25678  11.647   7.922   8.522 -0.1033  0.0098  0.1835
  191MOL0     C25679  11.548   8.119   8.658 -0.2750 -0.3419  0.6066
  191MOL0     C25680  11.407   8.071   8.636 -0.4639 -0.1867  0.9939
  191MOL0     O25681  11.305   8.164   8.623  0.0769  0.1369 -0.2852
  191MOL0     C25682  11.173   8.124   8.610 -0.1485 -0.5343 -0.0742
  191MOL0     C25683  11.068   8.208   8.670 -0.3473  1.6565 -0.0719
  191MOL0     C25684  10.927   8.181   8.647  0.3054 -0.0607 -0.5555
  191MOL0     C25685  10.894   8.069   8.573  0.0502  0.7126 -0.7671
  191MOL0     O25686  10.761   8.044   8.544  0.0764 -0.0333  0.1625
  191MOL0     C25687  10.725   7.905   8.555 -0.1944 -0.3523  0.9266
  191MOL0     C25688  10.604   7.890   8.657  0.3580 -0.3731  0.2714
  191MOL0     C25689  10.463   7.914   8.598  0.4199 -0.8075  0.8391
  191MOL0     C25690  10.351   7.864   8.688  0.7722 -0.4770 -0.3953
  191MOL0     C25691  10.233   7.958   8.677  0.4743  0.6666  0.0680
  191MOL0     C25692  10.106   7.884   8.719 -1.2723  0.0343  0.2025
  191MOL0     C25693   9.993   7.889   8.618 -0.6999  0.3698 -0.1764
  191MOL0     C25694   9.866   7.820   8.677  0.0392 -0.8186 -1.0603
  191MOL0    Cl25695   9.867   7.637   8.673 -0.5734 -0.1946  0.1279
  191MOL0     C25696  10.990   7.992   8.507 -0.4578 -0.5443  0.9664
  191MOL0     C25697  11.124   8.019   8.529 -0.1811 -0.2076  0.3083
  191MOL0     O25698  11.389   7.948   8.642 -0.2021  0.3896 -0.6104
  191MOL0     C25699  11.573   8.246   8.719  1.0473  0.3922 -0.7430
  191MOL0     C25700  11.699   8.297   8.732  1.2047 -0.0329 -0.4243
  191MOL0     N25701  12.452   8.711   8.743  0.0277  0.3615  0.2893
  191MOL0     N25702  12.475   8.802   8.660 -0.4639 -0.0115  0.2244
  191MOL0     C25703  11.559   9.470   8.096 -0.2824  0.0404 -0.0685
  191MOL0     C25704  11.413   9.482   8.089  0.1202 -0.1719  0.1293
  191MOL0     C25705  10.994   9.585   8.270  0.4798  0.3586 -0.8723
  191MOL0     C25706  10.922   9.687   8.329  0.0710 -0.1782 -0.1577
  191MOL0     C25707  10.781   9.696   8.313  0.1258 -0.4070 -0.2260
  191MOL0     C25708  10.717   9.602   8.235 -0.0973  0.4779  0.5517
  191MOL0     O25709  10.576   9.601   8.217  0.0498 -0.8544 -0.0216
  191MOL0     C25710  10.493   9.692   8.300  0.2329 -0.0458 -0.1047
  191MOL0     C25711  10.345   9.653   8.265  0.5906 -0.0730  0.4371
  191MOL0     C25712  10.267   9.764   8.327 -0.9509 -0.3945 -0.7148
  191MOL0     C25713  10.120   9.745   8.325  0.2476  0.0811 -0.4670
  191MOL0     C25714  10.066   9.753   8.186  1.1318 -0.7986 -0.2428
  191MOL0     C25715  10.028   9.755   8.075  0.0547 -0.2840 -0.3997
  191MOL0     C25716  10.792   9.506   8.176  0.0528  0.5025 -0.2514
  191MOL0     C25717  10.929   9.492   8.193  0.3408  0.1549  0.1136
  191MOL0     H25718  11.360   9.479   8.430 -0.6332  1.2662  0.1560
  191MOL0     H25719  11.591   9.452   8.437 -1.6100 -0.4942  0.5524
  191MOL0     H25720  11.794   9.319   8.082  1.4225 -1.0936  0.9743
  191MOL0     H25721  11.864   9.477   8.038  1.1140  1.8086  2.7616
  191MOL0     H25722  12.045   9.322   8.105  0.6977  0.2383 -0.0621
  191MOL0     H25723  12.025   9.432   8.240 -3.2339  2.9046  0.4419
  191MOL0     H25724  11.867   9.249   8.344 -0.1952 -0.8693  0.2492
  191MOL0     H25725  11.910   9.165   8.193  0.2708 -0.2961 -0.7385
  191MOL0     H25726  12.139   9.158   8.258 -0.1186 -0.1676  0.7522
  191MOL0     H25727  12.119   9.266   8.390 -0.8056 -0.1952  2.9518
  191MOL0     H25728  11.979   9.106   8.516  0.2808  2.2673 -0.9708
  191MOL0     H25729  11.982   8.986   8.376  0.6484 -0.0878 -0.7861
  191MOL0     H25730  12.222   9.083   8.520 -0.2188  1.8486 -2.9931
  191MOL0     H25731  12.142   8.937   8.569  0.5204  2.6513  1.4824
  191MOL0     H25732  12.194   8.828   8.347  2.3038 -0.7966 -0.7766
  191MOL0     H25733  12.261   8.972   8.296 -1.9002  1.4151 -0.3784
  191MOL0     H25734  12.432   8.982   8.462 -0.2719  0.4918  1.4409
  191MOL0     H25735  12.434   8.847   8.358 -0.1674 -1.4485  2.1061
  191MOL0     H25736  12.226   8.641   8.526  1.2018 -1.2477  0.2805
  191MOL0     H25737  12.382   8.440   8.801 -1.0129  0.8909  1.0585
  191MOL0     H25738  12.240   8.535   8.841 -2.4253 -0.6692 -1.4371
  191MOL0     H25739  12.262   8.411   8.573  0.3810  2.9441  0.1821
  191MOL0     H25740  12.122   8.476   8.646 -2.0261 -1.9871  1.1963
  191MOL0     H25741  12.165   8.283   8.837 -0.7373 -0.8027 -0.3800
  191MOL0     H25742  12.270   8.218   8.725  0.1919  0.7470 -1.5210
  191MOL0     H25743  12.048   8.104   8.673 -0.5206  1.1996  0.6060
  191MOL0     H25744  12.055   8.228   8.547 -3.1137 -0.0050 -0.7801
  191MOL0     H25745  11.873   8.034   8.587  0.1747 -0.6078  0.4728
  191MOL0     H25746  11.740   7.884   8.479  0.8062 -1.1826  2.9800
  191MOL0     H25747  11.620   7.838   8.586  0.5444 -1.3183 -1.2262
  191MOL0     H25748  11.578   7.943   8.440  0.6891 -0.3467 -0.5887
  191MOL0     H25749  11.075   8.298   8.730 -1.4858  2.2075 -0.7344
  191MOL0     H25750  10.853   8.248   8.689  0.0818  0.8801 -2.3562
  191MOL0     H25751  10.691   7.867   8.458  0.2082 -0.7833  0.9490
  191MOL0     H25752  10.810   7.837   8.569 -1.6279 -2.0135  1.9665
  191MOL0     H25753  10.606   7.786   8.691  0.8182 -0.6282 -0.5241
  191MOL0     H25754  10.614   7.958   8.742 -1.9005  0.5259 -0.1153
  191MOL0     H25755  10.459   7.865   8.500 -3.9682  0.6716  0.0613
  191MOL0     H25756  10.471   8.022   8.579  1.8797 -1.1501 -0.7999
  191MOL0     H25757  10.317   7.762   8.670 -1.3893  0.1416 -0.1646
  191MOL0     H25758  10.382   7.868   8.793  2.7518 -2.2535 -0.8561
  191MOL0     H25759  10.222   8.003   8.578  1.2935 -1.3199 -0.9752
  191MOL0     H25760  10.245   8.045   8.743 -1.8503  1.8024 -0.8964
  191MOL0     H25761  10.129   7.778   8.736 -3.4143 -0.7700 -1.5156
  191MOL0     H25762  10.068   7.926   8.813 -0.9575 -0.7127  0.6773
  191MOL0     H25763  10.021   7.838   8.526  0.1378  0.3684  0.0754
  191MOL0     H25764   9.963   7.994   8.610 -0.4090  0.4150 -0.7145
  191MOL0     H25765   9.780   7.853   8.618  1.6771 -0.8507 -3.6021
  191MOL0     H25766   9.844   7.852   8.780 -0.6517 -2.6255 -0.6152
  191MOL0     H25767  10.979   7.916   8.430 -1.6566  1.1585 -0.6503
  191MOL0     H25768  11.199   7.954   8.485 -0.3500 -0.6762  0.7012
  191MOL0     H25769  11.499   8.299   8.778  2.8516  1.4609  0.6523
  191MOL0     H25770  11.712   8.396   8.776  1.2901 -0.5814  0.8344
  191MOL0     H25771  11.607   9.472   7.998 -2.1136  0.9491 -1.0070
  191MOL0     H25772  11.365   9.480   7.992  1.2429 -0.8443 -0.4355
  191MOL0     H25773  10.972   9.765   8.385  0.2561  1.1905 -2.1305
  191MOL0     H25774  10.723   9.771   8.365 -1.2129 -1.0073 -0.8011
  191MOL0     H25775  10.509   9.690   8.408  1.3308  2.5513 -0.1681
  191MOL0     H25776  10.511   9.794   8.267  1.5477 -0.2804 -0.1981
  191MOL0     H25777  10.311   9.560   8.310  0.3504 -0.5953 -0.7668
  191MOL0     H25778  10.326   9.648   8.157  1.9436  1.8401  0.0507
  191MOL0     H25779  10.293   9.856   8.276 -0.8250 -0.0966 -0.1245
  191MOL0     H25780  10.280   9.791   8.432 -1.0982  0.8656 -1.0008
  191MOL0     H25781  10.063   9.809   8.393 -2.0825 -2.6557  0.3596
  191MOL0     H25782  10.098   9.647   8.369 -1.1568  1.0045  0.9982
  191MOL0     H25783   9.986   9.784   7.980 -1.5254 -3.7081 -0.8974
  191MOL0     H25784  10.736   9.440   8.110  1.9815 -0.2579 -1.1988
  191MOL0     H25785  10.973   9.409   8.139 -1.7827  1.0894 -3.4022
  192MOL0     O25786   1.226   3.903   5.545  0.2789 -0.0852 -0.6674
  192MOL0     C25787   1.280   3.894   5.435  0.5000 -0.0097  0.6032
  192MOL0     O25788   1.210   3.860   5.328  0.1417  1.1731  0.0360
  192MOL0     C25789   1.071   3.844   5.334 -1.1063  0.0725  0.7658
  192MOL0     C25790   0.980   3.942   5.372 -0.0708 -0.1032 -0.2870
  192MOL0     C25791   0.842   3.914   5.393 -0.4458  0.6080 -0.1402
  192MOL0     C25792   0.799   3.788   5.355  0.3302  0.8578  0.0251
  192MOL0     O25793   0.661   3.765   5.372 -0.8017 -0.5893 -0.2539
  192MOL0     C25794   0.596   3.642   5.323  0.1656 -0.0669 -0.5182
  192MOL0     C25795   0.613   3.645   5.170 -0.2157 -0.2295  0.1516
  192MOL0     C25796   0.517   3.545   5.108 -1.1754 -0.0974 -0.7079
  192MOL0     C25797   0.535   3.551   4.946  0.0221  0.2803  0.0561
  192MOL0     C25798   0.426   3.465   4.873 -0.4385  0.1823 -0.1407
  192MOL0     C25799   0.293   3.536   4.877 -0.5548  0.3634 -0.6742
  192MOL0     C25800   0.205   3.518   4.754  0.7418  0.6209 -0.0024
  192MOL0     C25801   0.138   3.378   4.762  0.5832 -0.1648  0.1766
  192MOL0     N25802   0.022   3.400   4.663 -0.8184  0.7219 -0.1498
  192MOL0     C25803   0.004   3.305   4.561 -0.9647  0.1232  0.4554
  192MOL0     C25804  -0.112   3.339   4.509  0.0167  0.0981  0.6814
  192MOL0     C25805  -0.177   3.279   4.393  0.2792  0.1197  0.0886
  192MOL0     C25806  -0.224   3.138   4.425  0.1329  0.2053  0.1757
  192MOL0     C25807  -0.246   3.051   4.299  0.1710 -0.0186 -0.6352
  192MOL0     C25808  -0.317   2.920   4.336  0.9974  0.5637 -0.7437
  192MOL0     O25809  -0.354   2.841   4.221  0.3217  1.0083 -0.0241
  192MOL0     C25810  -0.496   2.829   4.199  1.0400 -0.4150 -0.6249
  192MOL0     C25811  -0.571   2.721   4.243  0.1348  0.5432 -0.1072
  192MOL0     C25812  -0.709   2.711   4.208 -0.1757  0.2391  0.6929
  192MOL0     C25813  -0.777   2.579   4.250  0.4672 -1.0118 -0.1004
  192MOL0     C25814  -0.789   2.816   4.153  0.2061  0.5731  0.3100
  192MOL0     C25815  -0.938   2.816   4.136  0.1717  0.1967  0.4837
  192MOL0     O25816  -0.990   2.931   4.098  0.4275 -0.5331  0.0697
  192MOL0     C25817  -1.131   2.943   4.104  0.1526 -0.1574  0.1362
  192MOL0     C25818  -1.202   2.989   3.999  0.5528 -0.2399 -0.2705
  192MOL0     C25819  -1.343   3.005   4.008  0.2699  0.6558  1.2470
  192MOL0     C25820  -1.418   2.966   4.119  0.7700 -0.8384 -0.1493
  192MOL0     O25821  -1.545   2.990   4.161  0.6336 -0.4452 -0.1613
  192MOL0     C25822  -1.646   3.039   4.065  0.0116  0.8834 -0.4260
  192MOL0     C25823  -1.712   2.931   3.988 -0.0360  0.1154  0.8837
  192MOL0     C25824  -1.833   2.987   3.908 -0.0650  0.9654  0.2577
  192MOL0     C25825  -1.860   2.886   3.799  0.0529 -0.2354 -0.3468
  192MOL0     C25826  -1.996   2.907   3.722 -0.0155  0.4046 -0.8550
  192MOL0     C25827  -2.032   2.786   3.627 -0.6696  0.3349  0.5390
  192MOL0     C25828  -2.160   2.803   3.560  0.2386  0.3445  0.3109
  192MOL0     C25829  -2.287   2.773   3.638  0.7386 -0.7673  0.2042
  192MOL0    Cl25830  -2.441   2.777   3.539  0.3491  0.5880 -0.8659
  192MOL0     C25831  -1.343   2.923   4.228 -0.1646 -0.3501 -0.2013
  192MOL0     C25832  -1.208   2.913   4.227 -0.6869  0.3624  0.7162
  192MOL0     O25833  -1.000   2.712   4.138 -0.2513 -0.1126 -0.1968
  192MOL0     C25834  -0.711   2.927   4.116  0.4481  0.6611  0.3950
  192MOL0     C25835  -0.572   2.936   4.143  0.5167  0.9140  0.9388
  192MOL0     N25836  -0.166   3.444   4.581 -0.2936  0.5839 -0.9530
  192MOL0     N25837  -0.094   3.474   4.678 -1.0757 -0.4925 -1.2587
  192MOL0     C25838   0.889   3.688   5.324 -0.3434  0.0052  0.8275
  192MOL0     C25839   1.022   3.717   5.309 -0.8227 -0.8487  0.2573
  192MOL0     C25840   1.429   3.883   5.426 -1.2262  0.1153  0.0483
  192MOL0     C25841   1.490   3.874   5.297  0.1241  0.1852 -0.1920
  192MOL0     C25842   1.628   3.857   5.290  1.0538  0.4995 -0.7758
  192MOL0     C25843   1.704   3.838   5.406 -0.7128 -0.2154  0.0216
  192MOL0     O25844   1.839   3.810   5.402 -0.8692 -0.2416  0.0203
  192MOL0     C25845   1.889   3.699   5.489  0.6105 -0.4951  0.4258
  192MOL0     C25846   2.024   3.656   5.443 -0.0515 -0.0860  0.4429
  192MOL0     C25847   2.129   3.778   5.442 -0.1860  0.3227  0.5594
  192MOL0     C25848   2.278   3.732   5.404  0.0489 -0.7611  0.4494
  192MOL0     C25849   2.279   3.668   5.269 -0.4942  0.0924  0.3834
  192MOL0     C25850   2.277   3.601   5.169  0.1918 -0.4936 -0.3010
  192MOL0     C25851   1.646   3.841   5.534  0.6195  0.2497  0.4617
  192MOL0     C25852   1.505   3.871   5.538 -0.8397 -0.1702 -0.5247
  192MOL0     H25853   1.011   4.044   5.393 -4.0361  1.1965  0.0193
  192MOL0     H25854   0.780   3.995   5.429 -1.1778 -0.0764  0.1752
  192MOL0     H25855   0.629   3.547   5.366 -1.7086 -0.9832 -0.9682
  192MOL0     H25856   0.490   3.654   5.346 -0.1170 -0.4143 -1.5735
  192MOL0     H25857   0.598   3.748   5.136 -0.3858  0.4748  2.2128
  192MOL0     H25858   0.712   3.626   5.129 -2.0785 -2.2382 -3.9450
  192MOL0     H25859   0.539   3.443   5.142  3.8171  0.4308 -1.5438
  192MOL0     H25860   0.416   3.575   5.138 -1.4310  0.5156 -2.0842
  192MOL0     H25861   0.542   3.654   4.911  2.0846  0.6048  1.2634
  192MOL0     H25862   0.633   3.511   4.918  0.2207  1.3934 -0.9312
  192MOL0     H25863   0.453   3.440   4.770  2.4782 -0.6983  0.7621
  192MOL0     H25864   0.428   3.367   4.920  0.6754  0.4374  0.3693
  192MOL0     H25865   0.228   3.506   4.960 -1.1157  0.1318 -1.1928
  192MOL0     H25866   0.312   3.643   4.888  0.7525  0.4849 -3.3866
  192MOL0     H25867   0.123   3.590   4.754  0.1173  0.0251  2.3450
  192MOL0     H25868   0.262   3.522   4.661  0.8253 -0.7766 -0.0408
  192MOL0     H25869   0.086   3.352   4.855  1.6954  0.0273  0.8745
  192MOL0     H25870   0.215   3.305   4.735 -1.4386 -2.9921  1.5521
  192MOL0     H25871   0.070   3.229   4.521  1.9265  1.7427  1.7848
  192MOL0     H25872  -0.259   3.339   4.355 -0.6216 -0.4854  1.0098
  192MOL0     H25873  -0.098   3.259   4.320  2.7895  0.9552  2.4029
  192MOL0     H25874  -0.320   3.139   4.477 -1.1333  0.9981 -2.0230
  192MOL0     H25875  -0.150   3.102   4.496  1.4064  0.1073 -1.1595
  192MOL0     H25876  -0.145   3.030   4.263 -0.3988 -1.0150 -1.7107
  192MOL0     H25877  -0.296   3.109   4.221  1.2675  2.9285  0.7039
  192MOL0     H25878  -0.406   2.944   4.396  1.3709  1.0495 -0.3623
  192MOL0     H25879  -0.242   2.873   4.401  1.7208  0.1995 -1.8138
  192MOL0     H25880  -0.522   2.641   4.298  0.3711 -0.0045 -1.0855
  192MOL0     H25881  -0.699   2.509   4.281  4.2786  2.7707 -0.0758
  192MOL0     H25882  -0.841   2.590   4.338  1.9122 -1.7910  1.0973
  192MOL0     H25883  -0.835   2.549   4.162 -2.0080 -2.3658  1.8769
  192MOL0     H25884  -1.156   3.017   3.905 -0.4108  2.4931 -0.0312
  192MOL0     H25885  -1.393   3.041   3.919 -3.1863 -1.4009  2.1483
  192MOL0     H25886  -1.732   3.064   4.128  0.2598 -2.6166  1.5578
  192MOL0     H25887  -1.616   3.122   4.000  0.5538 -0.6074 -2.1441
  192MOL0     H25888  -1.636   2.892   3.920  1.1846 -0.3380  2.4444
  192MOL0     H25889  -1.745   2.850   4.054  3.2611 -2.6979 -0.6122
  192MOL0     H25890  -1.812   3.085   3.864  2.0937  1.1614  1.5976
  192MOL0     H25891  -1.920   2.996   3.974 -0.4969  1.0241 -0.3134
  192MOL0     H25892  -1.775   2.883   3.731  2.2316 -1.8640  2.2296
  192MOL0     H25893  -1.859   2.786   3.845 -0.4642 -1.7313 -3.3326
  192MOL0     H25894  -2.001   2.996   3.659 -0.3449  0.8713 -0.1935
  192MOL0     H25895  -2.076   2.915   3.797  0.3663 -0.2859 -0.3636
  192MOL0     H25896  -1.952   2.766   3.555 -0.0541  0.8296  1.0672
  192MOL0     H25897  -2.033   2.689   3.678 -1.3709 -0.9177 -1.7156
  192MOL0     H25898  -2.142   2.737   3.474 -1.7068 -0.5277  0.5094
  192MOL0     H25899  -2.177   2.905   3.525  0.1932 -0.3689 -1.9217
  192MOL0     H25900  -2.284   2.846   3.719  1.3086 -0.6618  0.0956
  192MOL0     H25901  -2.281   2.672   3.680  1.9324 -0.2079  1.4732
  192MOL0     H25902  -1.403   2.881   4.308  0.7117 -1.0328  0.1192
  192MOL0     H25903  -1.159   2.875   4.317 -1.5494 -0.1783  0.9719
  192MOL0     H25904  -0.764   3.005   4.063 -0.0039 -0.1242 -0.3227
  192MOL0     H25905  -0.519   3.025   4.111 -0.4494  0.9313 -0.7320
  192MOL0     H25906   0.847   3.589   5.307 -0.2370  0.2110 -0.7922
  192MOL0     H25907   1.088   3.633   5.288 -2.2494 -1.2734 -3.0966
  192MOL0     H25908   1.443   3.887   5.200 -0.4453  2.3051  0.3254
  192MOL0     H25909   1.674   3.856   5.191 -1.3849 -1.6582 -2.0127
  192MOL0     H25910   1.897   3.752   5.584  1.3925  0.2775 -0.0496
  192MOL0     H25911   1.827   3.609   5.502  3.2024 -2.4181  0.2233
  192MOL0     H25912   2.013   3.618   5.341 -1.0399 -1.8265  1.1519
  192MOL0     H25913   2.063   3.575   5.506  3.5019 -0.4090 -1.9093
  192MOL0     H25914   2.141   3.825   5.540 -1.7301 -0.5226  1.1999
  192MOL0     H25915   2.098   3.860   5.378  0.1852  0.4407  0.5282
  192MOL0     H25916   2.317   3.666   5.482 -0.7747 -1.9073 -0.0734
  192MOL0     H25917   2.338   3.823   5.397 -0.8854 -0.1523  0.1825
  192MOL0     H25918   2.288   3.543   5.079  2.3769  0.7869 -0.9227
  192MOL0     H25919   1.703   3.816   5.623  0.4186 -1.4012  0.1645
  192MOL0     H25920   1.465   3.882   5.638  1.2578  1.0438  0.2321
  193MOL0     O25921   8.752   1.733   5.920 -0.2354  0.2406  0.1831
  193MOL0     C25922   8.758   1.787   6.031  0.2362  0.5587  0.0441
  193MOL0     O25923   8.650   1.825   6.104 -0.2382 -0.4199 -0.3492
  193MOL0     C25924   8.525   1.833   6.043 -0.3992  0.2380 -0.6260
  193MOL0     C25925   8.475   1.964   6.042  0.4329 -0.2289  0.6234
  193MOL0     C25926   8.344   1.986   5.981 -0.7472 -0.0604  0.1266
  193MOL0     C25927   8.275   1.874   5.931  0.3927  1.0737  0.2707
  193MOL0     O25928   8.143   1.890   5.892  0.1494  0.2285 -0.1947
  193MOL0     C25929   8.116   1.846   5.760  0.1023  0.4619  0.3996
  193MOL0     C25930   8.030   1.946   5.684  0.1894  0.4510  0.6112
  193MOL0     C25931   7.889   1.943   5.733  0.3254 -0.5362  0.3089
  193MOL0     C25932   7.804   2.061   5.669 -0.2971  0.5444 -0.2174
  193MOL0     C25933   7.660   2.021   5.659  0.3170  0.0602 -0.0749
  193MOL0     C25934   7.577   2.117   5.564 -0.0825 -0.0728 -0.9587
  193MOL0     C25935   7.584   2.260   5.606  0.0328 -0.2530 -0.1707
  193MOL0     C25936   7.481   2.347   5.535  0.2399 -0.0594  0.1807
  193MOL0     N25937   7.489   2.487   5.567 -0.3954 -0.0720 -0.0280
  193MOL0     C25938   7.440   2.558   5.677 -0.1679  0.1207 -0.4886
  193MOL0     C25939   7.457   2.686   5.651  0.3723  0.1079 -0.7178
  193MOL0     C25940   7.385   2.784   5.737 -0.2337  0.2415  0.3662
  193MOL0     C25941   7.449   2.925   5.755 -0.3191  0.3415  0.6834
  193MOL0     C25942   7.543   2.933   5.879  0.0379 -0.1427 -0.6736
  193MOL0     C25943   7.643   3.051   5.866 -0.3686 -1.0334 -0.1511
  193MOL0     O25944   7.578   3.183   5.892 -0.2537  0.1356 -0.3282
  193MOL0     C25945   7.512   3.254   5.797  0.0590  0.4811  0.3668
  193MOL0     C25946   7.568   3.271   5.669 -1.2857  0.0587  0.7931
  193MOL0     C25947   7.517   3.358   5.570  0.7143  0.6890 -0.7752
  193MOL0     C25948   7.594   3.378   5.438  0.8261  0.5000 -0.5643
  193MOL0     C25949   7.386   3.409   5.596  0.0562 -0.3746 -0.6541
  193MOL0     C25950   7.306   3.468   5.491  0.5311 -0.0077  0.3393
  193MOL0     O25951   7.171   3.466   5.502  0.0877  0.1238 -1.2119
  193MOL0     C25952   7.104   3.526   5.405  0.1014  0.5247  0.4845
  193MOL0     C25953   7.123   3.502   5.267 -0.0700 -0.2321  0.3646
  193MOL0     C25954   7.071   3.578   5.164 -0.2929 -0.2310  0.4981
  193MOL0     C25955   6.990   3.687   5.184  0.2978 -0.2823  0.0130
  193MOL0     O25956   6.947   3.776   5.086  0.1061 -0.7356 -0.0675
  193MOL0     C25957   7.012   3.774   4.957 -0.1881  0.2123 -0.2694
  193MOL0     C25958   6.984   3.908   4.890 -0.6798 -0.3921 -0.2879
  193MOL0     C25959   6.835   3.928   4.869  0.1543  1.0717 -0.5504
  193MOL0     C25960   6.816   4.062   4.816 -0.1341 -0.5029 -0.2733
  193MOL0     C25961   6.670   4.106   4.796 -0.2003  0.7245  0.1328
  193MOL0     C25962   6.610   4.050   4.661 -0.1901 -0.2210  0.3999
  193MOL0     C25963   6.461   4.081   4.658  0.3863  0.9119  0.7078
  193MOL0     C25964   6.413   4.068   4.515  0.3385  0.6273  0.1131
  193MOL0    Cl25965   6.385   3.892   4.497  0.4957 -0.0422  0.0482
  193MOL0     C25966   6.957   3.710   5.323 -0.1308 -0.1854 -0.2743
  193MOL0     C25967   7.013   3.632   5.430  0.0829 -0.8631  0.7657
  193MOL0     O25968   7.367   3.525   5.399 -0.4481 -0.0652 -0.2448
  193MOL0     C25969   7.321   3.389   5.719  0.7723  0.3206 -0.1698
  193MOL0     C25970   7.386   3.310   5.818 -0.8564  0.0036  0.2646
  193MOL0     N25971   7.525   2.696   5.533  0.5807  0.1101  0.0046
  193MOL0     N25972   7.550   2.582   5.490  0.6019  0.5869  0.6426
  193MOL0     C25973   8.326   1.742   5.932  0.1300 -0.7061 -0.2928
  193MOL0     C25974   8.453   1.723   5.987  0.3299 -0.2049  0.0585
  193MOL0     C25975   8.892   1.815   6.086  0.2086  0.1908  0.7815
  193MOL0     C25976   9.009   1.822   6.001  0.1045  0.7921 -0.5416
  193MOL0     C25977   9.128   1.858   6.061  0.0144 -0.9027  0.0654
  193MOL0     C25978   9.138   1.868   6.200 -0.4629  0.6027 -0.3925
  193MOL0     O25979   9.264   1.890   6.263 -0.3702 -0.4922  0.1454
  193MOL0     C25980   9.375   1.929   6.180 -0.1680 -0.4389 -0.4460
  193MOL0     C25981   9.509   1.937   6.255 -0.2285  0.4752 -0.5883
  193MOL0     C25982   9.517   2.042   6.381 -0.1757  0.8102  0.7818
  193MOL0     C25983   9.660   2.083   6.402  0.0081  0.5791  0.5628
  193MOL0     C25984   9.725   1.979   6.478  0.8488 -0.0787  0.0321
  193MOL0     C25985   9.775   1.891   6.543 -0.6558  0.7139  0.0553
  193MOL0     C25986   9.027   1.863   6.278 -0.8707  0.9866  0.5425
  193MOL0     C25987   8.901   1.834   6.223 -0.0902  0.2985 -0.8270
  193MOL0     H25988   8.530   2.049   6.081 -0.0060  0.2691  0.1638
  193MOL0     H25989   8.312   2.089   5.987  1.4232  0.6402  0.6018
  193MOL0     H25990   8.203   1.822   5.699  0.1835  0.3434  0.5586
  193MOL0     H25991   8.061   1.751   5.757 -1.7001  1.4403 -3.3318
  193MOL0     H25992   8.070   2.046   5.706 -2.8115  1.9982 -0.2828
  193MOL0     H25993   8.032   1.924   5.577  1.9051 -0.7696  0.8632
  193MOL0     H25994   7.838   1.852   5.702  1.0178 -0.4302 -1.2131
  193MOL0     H25995   7.893   1.968   5.839  2.3991 -1.6290  0.5346
  193MOL0     H25996   7.818   2.153   5.726 -0.3445 -0.8174  2.1065
  193MOL0     H25997   7.839   2.074   5.565 -0.6095  2.9353 -0.0858
  193MOL0     H25998   7.652   1.917   5.625  0.4377 -0.1641  0.5731
  193MOL0     H25999   7.611   2.031   5.756 -1.2924  0.1015 -0.8581
  193MOL0     H26000   7.625   2.097   5.468  1.8239 -1.2440  0.1770
  193MOL0     H26001   7.474   2.079   5.566  0.0566 -0.5387  2.3317
  193MOL0     H26002   7.570   2.265   5.715 -1.3865 -0.4733 -0.3342
  193MOL0     H26003   7.680   2.302   5.573 -0.3249 -0.0826 -1.0042
  193MOL0     H26004   7.382   2.323   5.575  0.0088  1.7690  0.8028
  193MOL0     H26005   7.496   2.334   5.428  1.8137 -3.4318  0.6974
  193MOL0     H26006   7.392   2.513   5.764  2.4976 -1.1293  0.4217
  193MOL0     H26007   7.286   2.798   5.691  0.9026  0.9728 -2.0308
  193MOL0     H26008   7.365   2.741   5.835  2.1995  0.3068  0.9467
  193MOL0     H26009   7.372   3.003   5.762 -0.0081  0.7563 -0.3095
  193MOL0     H26010   7.504   2.936   5.661 -2.4271 -1.4091 -0.8588
  193MOL0     H26011   7.606   2.845   5.893  2.6015  1.5328 -0.8374
  193MOL0     H26012   7.481   2.943   5.969 -0.1707 -1.2550 -0.6835
  193MOL0     H26013   7.708   3.050   5.778 -0.0304 -1.7232  0.0976
  193MOL0     H26014   7.717   3.036   5.946 -1.0251 -1.9905  0.3022
  193MOL0     H26015   7.659   3.218   5.642 -1.7754 -0.0938 -0.6082
  193MOL0     H26016   7.687   3.321   5.435 -1.2540 -3.1950 -3.2097
  193MOL0     H26017   7.544   3.338   5.349 -0.2129  1.4647 -0.4245
  193MOL0     H26018   7.611   3.485   5.423 -1.7539  1.1773  0.7675
  193MOL0     H26019   7.193   3.422   5.242  0.8072  0.4754  0.4992
  193MOL0     H26020   7.122   3.559   5.070  0.1400  0.6503  0.5484
  193MOL0     H26021   7.120   3.759   4.962  0.4214  3.9839  1.8185
  193MOL0     H26022   6.981   3.693   4.890 -0.0920 -0.0757  0.0318
  193MOL0     H26023   7.027   3.993   4.943 -3.8204 -1.0775  3.9486
  193MOL0     H26024   7.035   3.908   4.794  2.2346 -1.0162  1.1271
  193MOL0     H26025   6.777   3.927   4.962  1.3048 -0.0236  0.1867
  193MOL0     H26026   6.810   3.839   4.811  0.6390 -0.0323  0.8765
  193MOL0     H26027   6.855   4.129   4.893 -2.5129 -0.9158  1.3822
  193MOL0     H26028   6.875   4.079   4.725  2.5750  0.3708  1.5365
  193MOL0     H26029   6.666   4.215   4.798  3.3510  0.9608  0.7257
  193MOL0     H26030   6.605   4.076   4.879 -1.4590  0.9695 -0.7225
  193MOL0     H26031   6.664   4.100   4.580 -0.7532  2.3882  1.5426
  193MOL0     H26032   6.615   3.941   4.656  1.5005 -0.2166  1.1896
  193MOL0     H26033   6.454   4.187   4.684  1.8973  0.4908  3.1931
  193MOL0     H26034   6.400   4.028   4.732 -0.7219  1.5083  0.2365
  193MOL0     H26035   6.471   4.102   4.429 -1.4924 -1.8516 -2.2576
  193MOL0     H26036   6.316   4.117   4.504  0.2563  0.3786 -0.2712
  193MOL0     H26037   6.881   3.786   5.338  1.9586  1.4740  3.1495
  193MOL0     H26038   6.978   3.660   5.529 -1.1643  0.6820 -0.0630
  193MOL0     H26039   7.226   3.434   5.743 -0.0163 -0.0391 -2.4298
  193MOL0     H26040   7.350   3.301   5.921  2.5967  0.1518  1.6201
  193MOL0     H26041   8.264   1.665   5.888  1.8860 -0.8326 -2.7517
  193MOL0     H26042   8.500   1.627   6.005  2.2650  1.0747  2.6521
  193MOL0     H26043   9.001   1.810   5.894  0.9572  1.8766 -0.7580
  193MOL0     H26044   9.205   1.873   5.986  0.3749  2.8893  0.9689
  193MOL0     H26045   9.386   1.852   6.102 -0.0291 -1.3101  0.4114
  193MOL0     H26046   9.356   2.024   6.129  0.0163  0.4989  1.1579
  193MOL0     H26047   9.594   1.957   6.189 -1.1862 -1.2237 -2.4229
  193MOL0     H26048   9.529   1.840   6.301  1.3081  1.2716  0.5287
  193MOL0     H26049   9.472   1.990   6.466 -2.6547 -1.0161 -1.4625
  193MOL0     H26050   9.458   2.133   6.364 -0.1040  0.9189  1.1050
  193MOL0     H26051   9.667   2.175   6.459  1.2750 -0.4796  2.2186
  193MOL0     H26052   9.709   2.099   6.306 -0.5937 -1.9259 -0.2367
  193MOL0     H26053   9.838   1.824   6.596  0.5350 -1.4786 -3.7322
  193MOL0     H26054   9.047   1.879   6.384  1.8978 -0.2736  0.2871
  193MOL0     H26055   8.810   1.817   6.279  0.0958 -1.0135 -0.9045
  194MOL0     O26056   5.481   4.441   0.278  0.2545 -0.3205 -0.2751
  194MOL0     C26057   5.556   4.354   0.332  0.7426  0.1845 -0.4000
  194MOL0     O26058   5.507   4.264   0.416 -0.3964  0.5381 -0.1415
  194MOL0     C26059   5.374   4.283   0.460 -0.2017  0.0707 -0.1105
  194MOL0     C26060   5.346   4.299   0.593  0.6016  0.1895  0.1110
  194MOL0     C26061   5.214   4.293   0.646 -0.0130 -0.0225  0.1090
  194MOL0     C26062   5.105   4.309   0.566  0.5217 -0.1050  0.1362
  194MOL0     O26063   4.987   4.337   0.621  0.1905 -0.4469 -0.3966
  194MOL0     C26064   4.869   4.294   0.549  0.2608  0.0691 -0.8454
  194MOL0     C26065   4.743   4.344   0.628 -0.1108 -0.7014  0.6057
  194MOL0     C26066   4.625   4.253   0.589  0.4641  0.7841  0.6482
  194MOL0     C26067   4.509   4.277   0.686  0.9345  0.5479  0.3255
  194MOL0     C26068   4.396   4.185   0.640  0.4617  0.0728  0.1772
  194MOL0     C26069   4.265   4.233   0.700 -0.5695  0.4040 -0.4041
  194MOL0     C26070   4.142   4.142   0.669 -0.2657 -0.1819  0.4075
  194MOL0     C26071   4.008   4.219   0.668 -0.5654 -0.2794 -0.3757
  194MOL0     N26072   3.896   4.124   0.660 -0.7030  0.0968 -0.5519
  194MOL0     C26073   3.784   4.135   0.733  0.7245  0.0948  0.1519
  194MOL0     C26074   3.708   4.038   0.686  0.0003  0.1310 -0.1778
  194MOL0     C26075   3.570   4.009   0.744  0.8539  0.3358 -0.4603
  194MOL0     C26076   3.601   3.913   0.863 -0.2697  0.8837 -0.5854
  194MOL0     C26077   3.475   3.865   0.920  0.0034 -0.4817 -0.5382
  194MOL0     C26078   3.492   3.758   1.030  0.4439  0.1490  0.4826
  194MOL0     O26079   3.410   3.795   1.146  0.3933 -0.2863 -0.7013
  194MOL0     C26080   3.270   3.795   1.130 -0.1908 -0.1712  0.2142
  194MOL0     C26081   3.205   3.719   1.024  0.2922 -1.0622  0.0508
  194MOL0     C26082   3.065   3.727   1.010  0.5678  0.3860 -0.1512
  194MOL0     C26083   3.001   3.639   0.901 -0.0604  0.0048 -0.8780
  194MOL0     C26084   2.988   3.816   1.091  0.1888  0.3198 -0.1433
  194MOL0     C26085   2.835   3.840   1.070 -0.6201 -0.0222  0.3935
  194MOL0     O26086   2.794   3.944   1.139 -0.0185  0.0267  0.2007
  194MOL0     C26087   2.657   3.977   1.137  0.1977 -0.0265 -0.5173
  194MOL0     C26088   2.590   3.993   1.256  0.0264 -0.1313  0.1749
  194MOL0     C26089   2.460   4.012   1.269  0.0343 -0.4293 -0.5781
  194MOL0     C26090   2.381   4.039   1.150  0.1267  0.2908 -0.6940
  194MOL0     O26091   2.246   4.064   1.166 -0.7358 -0.3293  0.7897
  194MOL0     C26092   2.204   4.179   1.245  0.1790 -0.6190  0.5362
  194MOL0     C26093   2.255   4.305   1.180 -0.1098  0.2008 -0.0535
  194MOL0     C26094   2.261   4.433   1.273 -0.0237  0.2249  0.6272
  194MOL0     C26095   2.407   4.479   1.281  0.4614 -0.7462  0.2419
  194MOL0     C26096   2.419   4.631   1.319 -0.0668  0.1698 -0.8492
  194MOL0     C26097   2.554   4.701   1.317 -0.0025 -0.2345 -0.3854
  194MOL0     C26098   2.674   4.629   1.381 -0.1827  0.4917 -0.4399
  194MOL0     C26099   2.676   4.628   1.534  0.8243  0.6474  0.0434
  194MOL0    Cl26100   2.708   4.793   1.593 -0.4201  0.2226  0.0900
  194MOL0     C26101   2.446   4.042   1.035 -0.2265 -0.7652 -0.1405
  194MOL0     C26102   2.585   4.007   1.025 -0.3684 -1.1851  0.2880
  194MOL0     O26103   2.767   3.767   1.001  0.1594 -0.2873  0.0613
  194MOL0     C26104   3.062   3.894   1.188 -0.6961  0.1149 -0.1342
  194MOL0     C26105   3.196   3.890   1.207  1.1036 -0.1839 -0.3152
  194MOL0     N26106   3.765   3.970   0.583  0.3867 -0.3079  0.3592
  194MOL0     N26107   3.881   4.030   0.563 -0.6532  0.4287  0.3123
  194MOL0     C26108   5.129   4.294   0.423  0.6625  1.0767  0.0727
  194MOL0     C26109   5.261   4.277   0.375  0.5808  0.3065  0.3144
  194MOL0     C26110   5.706   4.373   0.308 -0.4064  0.4916  0.2872
  194MOL0     C26111   5.764   4.478   0.231 -0.6169  0.7128  0.1733
  194MOL0     C26112   5.903   4.466   0.193  0.6701 -0.0463 -0.2509
  194MOL0     C26113   5.984   4.350   0.234 -0.5329 -0.3299  0.0407
  194MOL0     O26114   6.113   4.333   0.201 -0.2278  0.6847 -0.4122
  194MOL0     C26115   6.170   4.410   0.101  0.1389 -0.7464  0.8464
  194MOL0     C26116   6.307   4.342   0.072  0.4719  0.1104 -1.0938
  194MOL0     C26117   6.284   4.206   0.004 -0.4232 -0.4923  0.5555
  194MOL0     C26118   6.293   4.204  -0.155 -0.0086 -0.5580 -0.8753
  194MOL0     C26119   6.259   4.075  -0.209 -0.4877  0.4914  0.1645
  194MOL0     C26120   6.221   3.970  -0.260 -0.3416 -0.9345 -0.1617
  194MOL0     C26121   5.924   4.263   0.319  0.7255  0.5358  0.3717
  194MOL0     C26122   5.787   4.272   0.350  0.0003  0.4976 -0.3248
  194MOL0     H26123   5.425   4.303   0.667 -0.3272 -0.6999  1.1857
  194MOL0     H26124   5.207   4.292   0.755  0.3682 -0.6053  0.1357
  194MOL0     H26125   4.871   4.328   0.445  1.6063  0.6453 -0.6573
  194MOL0     H26126   4.870   4.185   0.556 -0.0551  0.1346  0.9022
  194MOL0     H26127   4.764   4.339   0.735 -0.1191  1.5646  0.7448
  194MOL0     H26128   4.715   4.445   0.596  0.7028 -0.2066  1.4155
  194MOL0     H26129   4.586   4.285   0.492 -0.4919 -0.7180  0.5014
  194MOL0     H26130   4.640   4.145   0.583  0.7396  0.7783  1.3795
  194MOL0     H26131   4.537   4.262   0.791  2.2166  0.4160 -0.0086
  194MOL0     H26132   4.472   4.379   0.689  0.3595  0.3248  1.1926
  194MOL0     H26133   4.389   4.189   0.531 -0.8235  4.5785  0.2228
  194MOL0     H26134   4.425   4.083   0.668 -0.3339 -0.2442 -0.1184
  194MOL0     H26135   4.271   4.232   0.809 -0.8214  1.8993 -0.3515
  194MOL0     H26136   4.253   4.334   0.658  0.1351  1.1402  1.0844
  194MOL0     H26137   4.166   4.089   0.576  2.1550 -0.9491  1.3816
  194MOL0     H26138   4.149   4.068   0.750  1.4935 -1.2155 -0.6396
  194MOL0     H26139   4.012   4.289   0.584  2.8389  0.2755  0.1481
  194MOL0     H26140   3.999   4.276   0.760 -1.1714  0.0281 -0.6174
  194MOL0     H26141   3.757   4.207   0.809 -1.9571  1.0370 -1.5345
  194MOL0     H26142   3.513   4.095   0.780 -1.4115 -1.1568 -0.2345
  194MOL0     H26143   3.516   3.966   0.658 -1.7689  0.5929  0.9375
  194MOL0     H26144   3.660   3.967   0.937 -2.1774  0.7454  1.1431
  194MOL0     H26145   3.659   3.824   0.836 -2.3181 -0.4441 -0.8768
  194MOL0     H26146   3.407   3.813   0.852  0.0257 -1.1190 -0.0890
  194MOL0     H26147   3.421   3.952   0.959  0.6091 -0.0400 -0.6804
  194MOL0     H26148   3.595   3.753   1.066  1.4534 -0.3674 -2.2005
  194MOL0     H26149   3.460   3.660   0.992 -2.3875  1.1774 -0.0888
  194MOL0     H26150   3.259   3.661   0.950  2.1787 -0.5671  0.9772
  194MOL0     H26151   2.922   3.572   0.936  0.2707 -2.3312 -4.1289
  194MOL0     H26152   2.954   3.707   0.829 -0.7608  0.5485  0.0634
  194MOL0     H26153   3.077   3.588   0.843  0.2961  1.5312 -1.8085
  194MOL0     H26154   2.655   3.975   1.341  0.9035 -0.5294 -0.5534
  194MOL0     H26155   2.410   4.000   1.364  1.8397  0.8155  0.5990
  194MOL0     H26156   2.096   4.177   1.264  0.3701 -2.7280  1.6446
  194MOL0     H26157   2.247   4.167   1.345 -0.7976  4.0573  1.7979
  194MOL0     H26158   2.357   4.295   1.142  0.5742 -1.1266  1.9750
  194MOL0     H26159   2.192   4.325   1.093  1.3190 -0.9858 -1.4259
  194MOL0     H26160   2.219   4.413   1.373 -0.7986  3.7063  1.1218
  194MOL0     H26161   2.197   4.517   1.245 -0.5309  0.2289  1.7107
  194MOL0     H26162   2.453   4.419   1.360 -1.0758  0.0146  1.8066
  194MOL0     H26163   2.467   4.474   1.190 -1.9792  0.1069 -1.5307
  194MOL0     H26164   2.376   4.636   1.419 -0.6909 -1.1477 -1.0332
  194MOL0     H26165   2.358   4.686   1.246 -0.8812  1.3762  0.6788
  194MOL0     H26166   2.571   4.720   1.211  0.6491  0.8603 -0.1068
  194MOL0     H26167   2.542   4.791   1.379  1.7774 -0.8014  0.8655
  194MOL0     H26168   2.772   4.666   1.350  0.0314 -0.9504 -1.5765
  194MOL0     H26169   2.658   4.523   1.359 -2.9650  1.1995 -2.5219
  194MOL0     H26170   2.764   4.568   1.558  2.0130  1.3336 -2.3531
  194MOL0     H26171   2.589   4.574   1.572  1.9780 -3.5935 -2.7059
  194MOL0     H26172   2.394   4.060   0.942 -0.4567 -0.0208  0.1256
  194MOL0     H26173   2.645   4.003   0.935  1.4748 -0.1708  1.3962
  194MOL0     H26174   3.012   3.959   1.259 -2.6834  0.0485 -1.4156
  194MOL0     H26175   3.239   3.943   1.291 -0.1433 -0.8834  0.8189
  194MOL0     H26176   5.050   4.315   0.351  0.2352  3.6449  1.1739
  194MOL0     H26177   5.271   4.270   0.267 -4.1845 -1.2559 -0.2954
  194MOL0     H26178   5.712   4.568   0.199 -0.9575 -0.2714 -2.2735
  194MOL0     H26179   5.947   4.552   0.144 -1.9219  0.1033 -2.5244
  194MOL0     H26180   6.097   4.409   0.019 -0.8694 -1.1540  1.7244
  194MOL0     H26181   6.190   4.513   0.129  0.2304  0.4430 -3.0034
  194MOL0     H26182   6.364   4.330   0.164 -1.3601  0.1142  0.0837
  194MOL0     H26183   6.357   4.405  -0.001  1.5108 -0.1827 -0.6526
  194MOL0     H26184   6.186   4.166   0.033 -0.0158 -3.0465 -1.1793
  194MOL0     H26185   6.359   4.133   0.035  1.4536  0.4701 -1.4357
  194MOL0     H26186   6.391   4.239  -0.188 -0.7029  0.9329 -1.4657
  194MOL0     H26187   6.215   4.273  -0.189 -1.3592 -2.0611 -0.9564
  194MOL0     H26188   6.190   3.876  -0.302  0.3255 -0.9857 -0.5437
  194MOL0     H26189   5.981   4.175   0.347 -0.0439  0.6936  2.5840
  194MOL0     H26190   5.752   4.199   0.422  0.2075  2.4524  1.8863
  195MOL0     O26191   7.324   0.947   4.047  0.0643 -0.1394 -0.3955
  195MOL0     C26192   7.222   0.921   3.988  0.9232 -0.0256 -1.1383
  195MOL0     O26193   7.101   0.950   4.042 -0.0313 -0.0372  0.6457
  195MOL0     C26194   7.076   0.952   4.172  0.2270 -0.0589  0.3882
  195MOL0     C26195   7.115   0.848   4.258  0.0960 -0.4628  0.4287
  195MOL0     C26196   7.075   0.843   4.395  1.2287 -0.9907  0.2481
  195MOL0     C26197   6.980   0.939   4.444 -0.2204 -0.7006  0.4239
  195MOL0     O26198   6.931   0.944   4.566  0.2894  0.1744  0.5757
  195MOL0     C26199   6.884   0.823   4.616  0.5074  0.0690 -0.8231
  195MOL0     C26200   6.778   0.851   4.725 -0.1683  0.5819 -0.1061
  195MOL0     C26201   6.649   0.896   4.665  0.1793 -0.4873 -0.0985
  195MOL0     C26202   6.544   0.916   4.778 -1.1558  0.4286  0.1173
  195MOL0     C26203   6.408   0.960   4.716  0.9445  0.3356  0.2982
  195MOL0     C26204   6.286   0.953   4.808  0.6224 -0.6306 -0.4510
  195MOL0     C26205   6.157   0.991   4.738 -1.1049  0.2829  1.3891
  195MOL0     C26206   6.039   1.008   4.837 -0.6493 -0.2313 -0.2702
  195MOL0     N26207   5.905   1.014   4.780  0.6781  0.0337  0.0091
  195MOL0     C26208   5.826   1.126   4.785 -0.0054 -0.1541  0.6606
  195MOL0     C26209   5.710   1.091   4.716 -0.2717  0.3380 -0.4746
  195MOL0     C26210   5.580   1.163   4.699  0.0610 -0.8451 -0.0737
  195MOL0     C26211   5.473   1.085   4.626  0.8211  1.0736  0.2893
  195MOL0     C26212   5.345   1.171   4.628 -0.4392  0.7844 -0.3235
  195MOL0     C26213   5.231   1.102   4.563 -0.0860 -0.0251  0.7674
  195MOL0     O26214   5.121   1.186   4.578  0.4621  1.0208  0.0330
  195MOL0     C26215   4.993   1.121   4.591  0.5189 -0.1984 -0.2892
  195MOL0     C26216   4.953   1.008   4.521  0.9017 -0.1436  0.8947
  195MOL0     C26217   4.827   0.949   4.543  0.3537  0.1742  0.1140
  195MOL0     C26218   4.803   0.828   4.456 -1.2143 -0.4996 -0.7266
  195MOL0     C26219   4.740   0.998   4.646  1.2619  0.0450  0.7699
  195MOL0     C26220   4.605   0.933   4.683 -0.0216 -0.1468  0.4037
  195MOL0     O26221   4.578   0.809   4.634 -0.6934 -0.3420  0.6305
  195MOL0     C26222   4.449   0.761   4.642  0.0750 -0.0503 -0.0679
  195MOL0     C26223   4.363   0.741   4.530  0.0018  0.2446  0.8313
  195MOL0     C26224   4.239   0.677   4.544 -0.9670  0.1866  0.4910
  195MOL0     C26225   4.193   0.627   4.663 -0.6888  0.0727  0.8912
  195MOL0     O26226   4.066   0.569   4.655 -0.1820  0.3668  0.6211
  195MOL0     C26227   3.981   0.598   4.761  0.1075  0.2613  0.0276
  195MOL0     C26228   3.845   0.514   4.745 -0.3705  0.0399  0.2461
  195MOL0     C26229   3.731   0.604   4.702 -0.1429  0.2653  0.5757
  195MOL0     C26230   3.689   0.709   4.813  0.0366 -0.3060  0.3521
  195MOL0     C26231   3.609   0.829   4.761 -0.5081  0.4263  0.6361
  195MOL0     C26232   3.484   0.801   4.672  0.2765  0.3014 -0.0709
  195MOL0     C26233   3.374   0.729   4.757  0.0462  0.6232  0.2018
  195MOL0     C26234   3.245   0.682   4.682 -0.8621 -0.0833  0.3771
  195MOL0    Cl26235   3.125   0.805   4.658  0.3706 -0.0014  0.0093
  195MOL0     C26236   4.276   0.658   4.772  0.2238  0.4701 -0.1013
  195MOL0     C26237   4.398   0.717   4.768  0.5151  0.5998  0.2847
  195MOL0     O26238   4.525   1.001   4.747 -0.0833 -0.1846 -0.4819
  195MOL0     C26239   4.781   1.119   4.707 -0.4000 -0.0509  0.2018
  195MOL0     C26240   4.903   1.175   4.689  0.1533 -0.5312  0.9728
  195MOL0     N26241   5.719   0.953   4.702 -0.1034 -0.2124 -0.1672
  195MOL0     N26242   5.833   0.909   4.737  0.2348 -0.1416 -1.0407
  195MOL0     C26243   6.944   1.047   4.357 -0.9304  0.2491 -1.4151
  195MOL0     C26244   6.990   1.052   4.225  0.1943 -0.8002 -0.4009
  195MOL0     C26245   7.230   0.854   3.860  0.2189  0.1666  0.0691
  195MOL0     C26246   7.109   0.806   3.800 -0.0362 -0.6769 -0.1887
  195MOL0     C26247   7.117   0.743   3.672  0.6355 -0.8322  0.0813
  195MOL0     C26248   7.237   0.709   3.610 -0.5875 -0.7614 -0.3853
  195MOL0     O26249   7.237   0.648   3.488  0.3270 -0.0061 -0.4294
  195MOL0     C26250   7.348   0.574   3.446  0.4403 -0.7731  0.2417
  195MOL0     C26251   7.312   0.502   3.311  0.3996 -0.0069 -0.0598
  195MOL0     C26252   7.429   0.408   3.263  0.0126 -0.0161  0.6782
  195MOL0     C26253   7.392   0.320   3.136 -0.3907  0.1793 -0.2606
  195MOL0     C26254   7.493   0.223   3.098 -0.0105  0.8529 -1.0005
  195MOL0     C26255   7.596   0.160   3.085 -0.2738 -0.0694  0.3996
  195MOL0     C26256   7.357   0.738   3.678 -0.2792 -0.1459 -0.7161
  195MOL0     C26257   7.354   0.815   3.802 -0.5397  0.0010 -0.9269
  195MOL0     H26258   7.189   0.778   4.221 -0.4563  0.5291 -2.8789
  195MOL0     H26259   7.110   0.774   4.472 -0.7571  1.0165  3.1298
  195MOL0     H26260   6.839   0.758   4.540 -0.5917 -1.6135  1.1516
  195MOL0     H26261   6.966   0.764   4.660  1.8308  2.5813  0.2597
  195MOL0     H26262   6.778   0.770   4.797 -0.0087  2.2401  1.8531
  195MOL0     H26263   6.818   0.936   4.782 -0.8194 -0.0946  1.3935
  195MOL0     H26264   6.652   0.992   4.614 -0.5397 -0.3945  0.0200
  195MOL0     H26265   6.621   0.822   4.590  0.8092  1.6235 -2.5479
  195MOL0     H26266   6.540   0.820   4.830 -0.0444  0.4575  0.2895
  195MOL0     H26267   6.572   0.999   4.844  0.5880 -0.1824  0.1976
  195MOL0     H26268   6.429   1.059   4.674  0.4777  1.5224  2.7033
  195MOL0     H26269   6.388   0.881   4.643  0.0327 -0.1457  1.0584
  195MOL0     H26270   6.278   0.850   4.844 -0.8565 -0.4535 -0.1878
  195MOL0     H26271   6.300   1.025   4.889 -1.1143 -0.2415 -0.4383
  195MOL0     H26272   6.173   1.090   4.694  0.4166 -0.1499  0.9146
  195MOL0     H26273   6.143   0.917   4.658  2.5539 -0.1004  0.9570
  195MOL0     H26274   6.050   1.101   4.895  1.2900  0.5063 -1.7064
  195MOL0     H26275   6.049   0.918   4.899 -0.1313 -0.0108 -0.0310
  195MOL0     H26276   5.837   1.224   4.832 -1.2447  1.3709 -1.9841
  195MOL0     H26277   5.543   1.189   4.798  1.6653 -0.1439  0.3797
  195MOL0     H26278   5.594   1.254   4.638  2.1746 -0.1156  1.3708
  195MOL0     H26279   5.458   0.984   4.666 -2.0640  1.3100  0.0342
  195MOL0     H26280   5.514   1.068   4.525 -0.4255 -0.1156 -0.0449
  195MOL0     H26281   5.373   1.263   4.575 -1.5406  0.7517 -0.9913
  195MOL0     H26282   5.325   1.194   4.733 -0.2959  1.4262 -0.4315
  195MOL0     H26283   5.216   1.018   4.631  2.8005  0.5531  2.2711
  195MOL0     H26284   5.254   1.068   4.461  2.3847 -1.5012  1.7426
  195MOL0     H26285   5.007   0.973   4.434  0.1829  0.7143  0.0728
  195MOL0     H26286   4.702   0.844   4.417 -1.5077  1.9971  0.7928
  195MOL0     H26287   4.862   0.833   4.365 -0.3606 -0.7620 -0.1991
  195MOL0     H26288   4.816   0.734   4.510 -0.7066  0.7249  1.3992
  195MOL0     H26289   4.387   0.775   4.430  0.4062  0.3983  0.9805
  195MOL0     H26290   4.179   0.655   4.456  0.0387  0.4459 -0.2681
  195MOL0     H26291   4.030   0.583   4.857 -0.3846 -0.3222  0.1960
  195MOL0     H26292   3.962   0.705   4.760 -1.0938  0.0630  0.1776
  195MOL0     H26293   3.863   0.440   4.667  3.5391  1.8890 -0.8990
  195MOL0     H26294   3.826   0.452   4.833  3.0553 -2.0714 -0.2875
  195MOL0     H26295   3.640   0.545   4.699  1.2886 -2.1694  1.8357
  195MOL0     H26296   3.744   0.649   4.603  0.2694 -2.4068 -0.6530
  195MOL0     H26297   3.631   0.668   4.896  1.2822  0.4203  1.6248
  195MOL0     H26298   3.776   0.755   4.860 -0.9656  2.1457 -0.0801
  195MOL0     H26299   3.670   0.904   4.708 -2.4913  1.6690 -0.0151
  195MOL0     H26300   3.575   0.888   4.846  0.4460 -0.3126  1.5475
  195MOL0     H26301   3.450   0.903   4.651 -0.7589  0.3010  1.4327
  195MOL0     H26302   3.512   0.754   4.577 -1.2143  1.5354 -1.1818
  195MOL0     H26303   3.340   0.808   4.826 -1.4911  3.3512 -3.3336
  195MOL0     H26304   3.419   0.648   4.816  0.6973  2.1103  1.8483
  195MOL0     H26305   3.198   0.606   4.745 -0.2290 -0.1150  0.8209
  195MOL0     H26306   3.260   0.633   4.585 -1.3905  0.6383 -0.0805
  195MOL0     H26307   4.241   0.619   4.867  2.0303 -0.7811  0.0830
  195MOL0     H26308   4.456   0.747   4.855  3.5622 -0.5009 -1.2200
  195MOL0     H26309   4.719   1.153   4.789 -1.1157  0.8209 -0.6789
  195MOL0     H26310   4.933   1.264   4.744 -1.1869  1.2277 -0.9740
  195MOL0     H26311   6.883   1.131   4.390 -1.9892 -0.8958 -0.3387
  195MOL0     H26312   6.962   1.137   4.163  0.1868 -1.2476 -1.0210
  195MOL0     H26313   7.011   0.836   3.837  0.7159  1.3496  0.3432
  195MOL0     H26314   7.024   0.733   3.618  1.2889  2.6750 -2.0288
  195MOL0     H26315   7.429   0.643   3.422 -0.2091 -0.5459 -1.4032
  195MOL0     H26316   7.378   0.506   3.526 -0.7511 -2.0930 -0.3820
  195MOL0     H26317   7.289   0.570   3.229  1.3083  0.9322  0.4395
  195MOL0     H26318   7.225   0.442   3.340  1.7178 -0.9228  2.3376
  195MOL0     H26319   7.460   0.337   3.340 -0.3698 -1.7669 -0.7302
  195MOL0     H26320   7.515   0.470   3.236 -1.7018  2.4075  0.4803
  195MOL0     H26321   7.382   0.389   3.052  1.8232  1.9070  0.7844
  195MOL0     H26322   7.296   0.268   3.148 -0.9937  0.5878 -2.8432
  195MOL0     H26323   7.689   0.113   3.062 -0.9894 -0.9167 -0.9635
  195MOL0     H26324   7.457   0.721   3.638  0.0761  1.1935 -0.4477
  195MOL0     H26325   7.442   0.842   3.859 -1.5589  0.8634  0.3110
  196MOL0     O26326   2.992   0.313   1.969  0.1671  0.3168  0.4451
  196MOL0     C26327   3.045   0.419   1.990 -0.6948 -0.0713  0.1456
  196MOL0     O26328   2.992   0.542   1.977  0.5457 -0.0086  0.3364
  196MOL0     C26329   2.855   0.556   1.985  0.2053  0.0295 -0.0650
  196MOL0     C26330   2.775   0.464   2.064  0.3879  0.1160 -0.0304
  196MOL0     C26331   2.641   0.493   2.057  0.4788 -0.3517  0.5313
  196MOL0     C26332   2.586   0.600   1.988  0.0021 -0.7481 -0.0485
  196MOL0     O26333   2.447   0.625   1.979 -0.1548  0.2638  0.1312
  196MOL0     C26334   2.363   0.544   2.063  0.1903 -0.0816 -0.3704
  196MOL0     C26335   2.216   0.580   2.046  0.2869 -0.2537  0.1624
  196MOL0     C26336   2.121   0.487   2.116  0.3033  0.5173 -0.3995
  196MOL0     C26337   1.979   0.526   2.068  0.1866  0.5875  0.3387
  196MOL0     C26338   1.867   0.426   2.107 -0.0951  0.3644  0.4254
  196MOL0     C26339   1.832   0.443   2.256  0.2739 -0.1023 -0.1236
  196MOL0     C26340   1.729   0.557   2.263  0.2357  1.1541 -0.4839
  196MOL0     C26341   1.700   0.585   2.412 -0.6104  0.4031 -0.5724
  196MOL0     N26342   1.599   0.686   2.404 -0.1605 -0.4652 -0.2343
  196MOL0     C26343   1.474   0.684   2.468 -0.5433 -0.1477 -0.3930
  196MOL0     C26344   1.437   0.816   2.471  0.3298  0.4651  0.3690
  196MOL0     C26345   1.315   0.860   2.546 -0.8332 -0.5821 -0.2659
  196MOL0     C26346   1.298   1.001   2.605 -0.4297 -0.1208 -0.1183
  196MOL0     C26347   1.163   1.018   2.677 -0.6187  0.2731  0.2335
  196MOL0     C26348   1.133   1.158   2.711  0.1971  0.2034 -0.1900
  196MOL0     O26349   1.103   1.229   2.586 -0.0927 -0.4870 -0.3560
  196MOL0     C26350   0.972   1.259   2.559  0.3267  0.1278  0.7232
  196MOL0     C26351   0.943   1.376   2.483 -0.1497  0.3055  0.0697
  196MOL0     C26352   0.811   1.404   2.443 -0.7067 -0.5117 -0.2283
  196MOL0     C26353   0.800   1.524   2.354 -0.5725 -0.0681 -0.7022
  196MOL0     C26354   0.702   1.316   2.481  0.9709 -0.2850  0.0957
  196MOL0     C26355   0.563   1.333   2.424 -1.0606 -0.0169 -0.3136
  196MOL0     O26356   0.477   1.238   2.470 -0.1067 -0.1192  0.1352
  196MOL0     C26357   0.342   1.264   2.464 -0.4362 -0.5800  0.5223
  196MOL0     C26358   0.271   1.385   2.482 -0.2735 -0.2410 -0.2082
  196MOL0     C26359   0.129   1.398   2.472  0.0785  0.5272  0.7482
  196MOL0     C26360   0.060   1.287   2.440  0.0381 -0.9450  0.1540
  196MOL0     O26361  -0.078   1.290   2.453 -0.1669  0.1817 -0.1954
  196MOL0     C26362  -0.147   1.285   2.325  0.2537 -0.6825 -0.2989
  196MOL0     C26363  -0.282   1.207   2.358  0.2756  0.2193  0.3656
  196MOL0     C26364  -0.396   1.220   2.250 -0.7820 -0.2631 -0.2762
  196MOL0     C26365  -0.520   1.128   2.279  0.7406 -0.7588  0.4837
  196MOL0     C26366  -0.640   1.159   2.184 -0.5644 -0.4012  0.1605
  196MOL0     C26367  -0.749   1.062   2.212 -0.3034 -0.3605 -0.2409
  196MOL0     C26368  -0.861   1.073   2.113 -0.0086 -0.0554  0.1482
  196MOL0     C26369  -0.956   0.946   2.130 -0.5718  0.3147 -0.8151
  196MOL0    Cl26370  -1.097   0.964   2.019  0.5432  0.2802  0.1410
  196MOL0     C26371   0.113   1.163   2.432 -0.3296  0.0152 -0.2496
  196MOL0     C26372   0.257   1.153   2.424 -0.1504  0.7700 -0.0885
  196MOL0     O26373   0.531   1.437   2.361 -0.5218 -0.2298 -0.1867
  196MOL0     C26374   0.728   1.196   2.549  0.3934  0.3023  0.3093
  196MOL0     C26375   0.854   1.175   2.590  0.0171  0.7888 -0.2455
  196MOL0     N26376   1.535   0.889   2.404  0.0166  0.5364  0.1729
  196MOL0     N26377   1.628   0.814   2.370 -0.8840  0.7288  0.4954
  196MOL0     C26378   2.670   0.690   1.916  0.8202 -0.0050 -0.8073
  196MOL0     C26379   2.807   0.664   1.915  0.3939  0.0656  0.3618
  196MOL0     C26380   3.189   0.407   2.034 -0.2611 -2.0619 -0.1849
  196MOL0     C26381   3.241   0.524   2.104 -0.3472 -0.1455 -0.6371
  196MOL0     C26382   3.379   0.519   2.133  0.2110  0.2350 -1.0975
  196MOL0     C26383   3.454   0.406   2.116  0.1797  0.1188 -0.2827
  196MOL0     O26384   3.585   0.418   2.158  0.3163  0.4353  0.3485
  196MOL0     C26385   3.671   0.294   2.157  0.2994 -0.0733 -0.4258
  196MOL0     C26386   3.753   0.305   2.289  0.0942  0.5762 -0.7219
  196MOL0     C26387   3.706   0.236   2.423  0.0495 -0.3574  0.4036
  196MOL0     C26388   3.730   0.079   2.408 -0.1269 -0.5623  0.4982
  196MOL0     C26389   3.690  -0.002   2.526 -1.3762 -0.3554  0.4358
  196MOL0     C26390   3.651  -0.047   2.625 -0.6289 -0.5664  0.5543
  196MOL0     C26391   3.393   0.289   2.062 -0.0559  0.4215  0.4489
  196MOL0     C26392   3.260   0.298   2.013 -0.1486  1.0536 -0.0854
  196MOL0     H26393   2.811   0.389   2.133  3.0753  1.3510  0.0575
  196MOL0     H26394   2.569   0.430   2.108 -2.2722  2.1189  0.0294
  196MOL0     H26395   2.369   0.435   2.051  2.5324 -0.0678  0.1262
  196MOL0     H26396   2.392   0.569   2.166  1.6205  0.0029 -0.7712
  196MOL0     H26397   2.196   0.674   2.099  0.0469  1.2910 -2.5074
  196MOL0     H26398   2.194   0.601   1.941 -1.0035  0.1263  0.4920
  196MOL0     H26399   2.149   0.386   2.085  1.6919  1.1468 -1.2794
  196MOL0     H26400   2.118   0.502   2.224  0.7230  1.7549 -0.5396
  196MOL0     H26401   1.952   0.626   2.105  0.8800  0.7233  0.4939
  196MOL0     H26402   1.976   0.525   1.959 -1.0680  0.1015  0.3642
  196MOL0     H26403   1.772   0.439   2.054  0.2184  1.9038  0.2024
  196MOL0     H26404   1.900   0.324   2.084 -3.6788 -0.5201 -1.6254
  196MOL0     H26405   1.794   0.351   2.301 -1.1015  1.0047  1.0687
  196MOL0     H26406   1.923   0.465   2.314  1.2968  0.3590 -1.8408
  196MOL0     H26407   1.771   0.646   2.214  1.0175  3.4330  3.8436
  196MOL0     H26408   1.630   0.531   2.226 -0.6741  0.0588  2.4816
  196MOL0     H26409   1.790   0.627   2.460  0.1528 -3.4959  1.8232
  196MOL0     H26410   1.672   0.497   2.469  1.6724  0.5366  0.8915
  196MOL0     H26411   1.406   0.608   2.506 -1.6214 -0.4952 -2.8201
  196MOL0     H26412   1.233   0.829   2.481  0.3669 -2.1697 -1.0869
  196MOL0     H26413   1.312   0.794   2.634  2.4755 -2.7193 -1.5404
  196MOL0     H26414   1.308   1.073   2.523 -2.4303  0.4226  0.0688
  196MOL0     H26415   1.370   1.020   2.685 -2.2569  0.4063  1.4848
  196MOL0     H26416   1.165   0.958   2.768 -0.0271 -0.7097 -0.4090
  196MOL0     H26417   1.098   0.973   2.601  1.3421 -1.0828 -0.7341
  196MOL0     H26418   1.226   1.203   2.748  0.2204  1.1667 -1.3474
  196MOL0     H26419   1.054   1.172   2.785 -1.6563 -0.0099 -2.0624
  196MOL0     H26420   1.027   1.440   2.456  2.1579 -1.4983  2.3881
  196MOL0     H26421   0.895   1.578   2.343 -1.1687  1.5098  1.2316
  196MOL0     H26422   0.765   1.501   2.253  3.1743 -3.7902 -1.4122
  196MOL0     H26423   0.730   1.591   2.406 -1.5234 -0.2008 -1.7836
  196MOL0     H26424   0.335   1.470   2.505 -1.7202  0.8427 -0.0612
  196MOL0     H26425   0.081   1.494   2.485 -0.9284 -0.0582  1.5259
  196MOL0     H26426  -0.167   1.388   2.292  0.1337 -0.7647 -0.4853
  196MOL0     H26427  -0.083   1.242   2.247  1.5681  0.2243  0.2291
  196MOL0     H26428  -0.251   1.103   2.374 -1.5605 -0.3018  0.8127
  196MOL0     H26429  -0.317   1.236   2.457  2.0592 -1.9119  1.7241
  196MOL0     H26430  -0.366   1.199   2.147  1.0163 -2.8715  0.6676
  196MOL0     H26431  -0.427   1.325   2.250 -1.7122 -0.5235  0.2239
  196MOL0     H26432  -0.485   1.025   2.268  0.6373 -0.8632  1.0717
  196MOL0     H26433  -0.553   1.142   2.382 -1.6909 -0.0822 -0.3274
  196MOL0     H26434  -0.602   1.158   2.082 -1.0960 -0.5088 -0.0358
  196MOL0     H26435  -0.665   1.263   2.208 -3.5001 -0.9998  0.0771
  196MOL0     H26436  -0.710   0.960   2.209 -0.2015 -0.3352 -3.6414
  196MOL0     H26437  -0.789   1.088   2.310  0.0198 -3.3053  0.7490
  196MOL0     H26438  -0.820   1.068   2.012  0.0679  1.0837  0.1125
  196MOL0     H26439  -0.925   1.162   2.123 -1.6857 -1.1930 -0.0666
  196MOL0     H26440  -0.999   0.938   2.231 -1.1079 -0.4097 -1.0912
  196MOL0     H26441  -0.911   0.847   2.119 -1.3640  0.0723 -2.2151
  196MOL0     H26442   0.053   1.074   2.423  0.5194 -0.7530  1.2647
  196MOL0     H26443   0.306   1.058   2.407 -1.9234 -0.0072 -1.1226
  196MOL0     H26444   0.648   1.125   2.569  0.8610 -0.7391 -1.3242
  196MOL0     H26445   0.867   1.079   2.639 -0.2422  0.8685 -0.0147
  196MOL0     H26446   2.624   0.773   1.863  0.4449 -1.6140 -3.1503
  196MOL0     H26447   2.863   0.725   1.845  0.9913 -0.6818  0.1755
  196MOL0     H26448   3.187   0.618   2.109  0.0051  0.0302 -0.1186
  196MOL0     H26449   3.431   0.609   2.163  2.1576 -0.0083 -3.4327
  196MOL0     H26450   3.609   0.203   2.156  0.4161 -0.1566 -0.0756
  196MOL0     H26451   3.740   0.294   2.072 -2.0310 -4.3964 -2.6974
  196MOL0     H26452   3.778   0.410   2.307 -0.3512  0.5143  0.3486
  196MOL0     H26453   3.844   0.258   2.252 -0.8165  0.7681 -3.3983
  196MOL0     H26454   3.602   0.258   2.447  0.3723 -1.3973  3.1061
  196MOL0     H26455   3.765   0.283   2.503 -0.5573  0.6023  0.3002
  196MOL0     H26456   3.836   0.059   2.390 -0.9265 -3.7501 -1.5424
  196MOL0     H26457   3.669   0.053   2.321 -0.0488  0.2951  0.1820
  196MOL0     H26458   3.612  -0.084   2.718  0.8119 -3.5901  0.0658
  196MOL0     H26459   3.433   0.191   2.040 -2.7902 -0.9800  1.2828
  196MOL0     H26460   3.218   0.212   1.962 -0.9751  0.3533  1.7147
  197MOL0     O26461   9.755   3.239   7.407 -0.1031 -1.2509 -0.1024
  197MOL0     C26462   9.793   3.223   7.288  0.3815  0.0349 -0.5039
  197MOL0     O26463   9.709   3.216   7.182  0.1629  0.0522  0.1380
  197MOL0     C26464   9.574   3.223   7.216 -0.1925  0.5651  0.4891
  197MOL0     C26465   9.482   3.108   7.228  0.6907  0.0683  0.2512
  197MOL0     C26466   9.348   3.113   7.248  0.6531 -0.6737  0.2782
  197MOL0     C26467   9.288   3.239   7.247  0.4744 -0.8749  0.1366
  197MOL0     O26468   9.153   3.259   7.272  0.2827 -0.0496  0.1665
  197MOL0     C26469   9.063   3.139   7.278 -0.3969 -1.2150 -0.8842
  197MOL0     C26470   8.931   3.189   7.312  0.6903  0.4785  0.0187
  197MOL0     C26471   8.822   3.078   7.300  0.8610  0.3506  0.4572
  197MOL0     C26472   8.686   3.146   7.329 -0.1031 -1.0055 -0.7314
  197MOL0     C26473   8.561   3.052   7.306 -1.3897 -0.0685 -0.2977
  197MOL0     C26474   8.440   3.140   7.334  0.7798  0.0833  0.3251
  197MOL0     C26475   8.301   3.084   7.302 -0.0873 -0.2476  0.3109
  197MOL0     C26476   8.276   3.089   7.149  0.1860  0.1648 -0.2137
  197MOL0     N26477   8.150   3.028   7.103  0.2531  0.2477 -0.0002
  197MOL0     C26478   8.023   3.072   7.125 -0.2219  0.2219 -0.3322
  197MOL0     C26479   7.933   2.972   7.096 -0.3005 -0.6292 -0.1390
  197MOL0     C26480   7.783   2.981   7.122  0.5915 -0.1804 -0.2201
  197MOL0     C26481   7.706   2.851   7.157 -0.1603  0.6027 -0.8428
  197MOL0     C26482   7.622   2.789   7.043 -0.3778 -0.4264 -0.8071
  197MOL0     C26483   7.557   2.657   7.092 -0.4510 -0.7902  0.0022
  197MOL0     O26484   7.434   2.685   7.161  0.0275  0.4103 -0.4664
  197MOL0     C26485   7.312   2.681   7.090 -1.0703  0.4837  0.1800
  197MOL0     C26486   7.269   2.570   7.010  0.5502 -0.0244 -0.2606
  197MOL0     C26487   7.150   2.577   6.931 -0.7681  1.2825  0.3084
  197MOL0     C26488   7.104   2.457   6.861 -0.0688  0.4293  0.3373
  197MOL0     C26489   7.069   2.692   6.936  0.1113  0.4012 -0.7901
  197MOL0     C26490   6.937   2.700   6.871 -0.3544 -0.0360 -0.2271
  197MOL0     O26491   6.858   2.584   6.865  0.1441  0.4501 -1.2410
  197MOL0     C26492   6.728   2.593   6.813 -0.5153 -0.4582 -0.5796
  197MOL0     C26493   6.638   2.515   6.880 -0.4627 -0.5934 -0.6272
  197MOL0     C26494   6.508   2.514   6.846  0.4203  0.6187  0.3641
  197MOL0     C26495   6.452   2.606   6.750 -0.5661 -0.2714 -0.5811
  197MOL0     O26496   6.318   2.616   6.718 -0.1965 -0.5723 -0.4247
  197MOL0     C26497   6.228   2.515   6.769  0.4549 -0.3684  0.9645
  197MOL0     C26498   6.086   2.545   6.729 -0.4008 -0.5542  0.6948
  197MOL0     C26499   5.977   2.490   6.818 -0.0116  0.5936  0.9935
  197MOL0     C26500   5.969   2.531   6.965 -0.1690 -0.9803  0.5773
  197MOL0     C26501   5.885   2.432   7.047  0.7733  0.1311 -0.3108
  197MOL0     C26502   5.730   2.444   7.021  0.4111  0.2947 -0.3528
  197MOL0     C26503   5.658   2.314   7.011 -0.4939 -0.3926 -1.1551
  197MOL0     C26504   5.520   2.347   6.961 -0.0005  0.2087  0.3039
  197MOL0    Cl26505   5.399   2.387   7.090 -0.2123 -0.0958 -0.1305
  197MOL0     C26506   6.541   2.692   6.685  0.7621 -0.2086 -0.4917
  197MOL0     C26507   6.677   2.680   6.710 -0.5174 -0.0581  0.1285
  197MOL0     O26508   6.894   2.807   6.833 -0.6667 -0.2125 -0.1210
  197MOL0     C26509   7.117   2.804   7.011 -0.4101  0.7858 -0.2216
  197MOL0     C26510   7.231   2.796   7.087 -0.7340  0.0539  0.0639
  197MOL0     N26511   8.016   2.879   7.026  0.0393  0.0979 -0.5390
  197MOL0     N26512   8.140   2.916   7.032  0.4370  0.2815 -0.5057
  197MOL0     C26513   9.370   3.347   7.223 -0.4167  0.0725  0.3290
  197MOL0     C26514   9.509   3.341   7.212  1.0485 -0.2966  0.0497
  197MOL0     C26515   9.935   3.191   7.262 -1.0844 -0.4822 -0.1461
  197MOL0     C26516   9.968   3.101   7.163  0.2372  0.9501 -0.2744
  197MOL0     C26517  10.098   3.064   7.138  0.7646 -0.0881 -0.2011
  197MOL0     C26518  10.198   3.117   7.217 -0.1067  0.2579 -0.0747
  197MOL0     O26519  10.326   3.073   7.202 -0.3486  0.4029 -0.1161
  197MOL0     C26520  10.362   3.011   7.080  0.0640  0.1801 -0.0441
  197MOL0     C26521  10.512   2.978   7.086 -0.2825 -0.9659  0.2898
  197MOL0     C26522  10.549   2.910   6.951 -0.7607 -0.1974 -0.7689
  197MOL0     C26523  10.682   2.825   6.933  0.0522 -0.5534  0.1564
  197MOL0     C26524  10.677   2.702   7.013 -0.4830  0.3786  0.2420
  197MOL0     C26525  10.665   2.591   7.058  0.5190  0.2349 -0.4006
  197MOL0     C26526  10.167   3.213   7.314  0.2940  0.3935 -0.5473
  197MOL0     C26527  10.040   3.245   7.339  0.3119  0.0067 -0.7343
  197MOL0     H26528   9.517   3.006   7.235 -1.1905 -0.5622  0.9990
  197MOL0     H26529   9.287   3.027   7.272  0.2530 -0.6047 -0.4546
  197MOL0     H26530   9.064   3.085   7.183  2.5311  2.1886 -3.0801
  197MOL0     H26531   9.096   3.070   7.357 -1.6825 -0.5822  0.2319
  197MOL0     H26532   8.935   3.216   7.418 -0.0577  0.5649  0.0272
  197MOL0     H26533   8.917   3.274   7.244  1.7164  0.8558  0.2523
  197MOL0     H26534   8.814   3.033   7.201 -1.9725  0.2895  0.6078
  197MOL0     H26535   8.832   3.004   7.380 -3.6881 -0.5753  0.4354
  197MOL0     H26536   8.680   3.178   7.434  0.6305  0.8967 -1.2338
  197MOL0     H26537   8.670   3.226   7.256  1.3151 -0.1504 -0.1366
  197MOL0     H26538   8.558   3.018   7.202 -1.4557 -1.9463  0.2802
  197MOL0     H26539   8.566   2.967   7.375 -0.6708 -0.1476 -0.4390
  197MOL0     H26540   8.445   3.167   7.440  3.8649  0.6889  0.1150
  197MOL0     H26541   8.447   3.233   7.277  0.7409  0.4794  0.9521
  197MOL0     H26542   8.289   2.979   7.330 -1.7195  0.0972  1.0123
  197MOL0     H26543   8.222   3.146   7.345  0.3950  0.0584  0.7626
  197MOL0     H26544   8.345   3.023   7.096 -0.2218  0.3384 -0.9676
  197MOL0     H26545   8.272   3.191   7.109 -0.4422  0.2573  0.0802
  197MOL0     H26546   8.002   3.169   7.170  1.8742  0.3180  0.5526
  197MOL0     H26547   7.779   3.043   7.212  1.2113 -0.5227  0.0566
  197MOL0     H26548   7.740   3.032   7.036 -0.3811 -1.6349 -0.6349
  197MOL0     H26549   7.641   2.865   7.244 -0.2006 -2.3534 -0.2707
  197MOL0     H26550   7.787   2.781   7.178  1.9707  2.5485 -2.1000
  197MOL0     H26551   7.689   2.767   6.959  0.3651  0.2972 -0.4281
  197MOL0     H26552   7.551   2.858   6.999  1.6217  0.8946 -2.1389
  197MOL0     H26553   7.626   2.595   7.151 -1.9562 -3.3665 -0.8108
  197MOL0     H26554   7.542   2.604   6.997 -1.2776  0.1618 -0.4182
  197MOL0     H26555   7.331   2.482   7.024 -0.2005 -0.4026  0.8899
  197MOL0     H26556   7.080   2.479   6.756 -0.5431  0.3292  0.4231
  197MOL0     H26557   7.181   2.379   6.856 -0.9030 -0.3734 -3.7890
  197MOL0     H26558   7.013   2.411   6.902  0.6630 -0.5791  0.8690
  197MOL0     H26559   6.673   2.447   6.957 -0.2855  0.6745  0.4497
  197MOL0     H26560   6.451   2.441   6.903 -0.8274 -0.2782 -1.8857
  197MOL0     H26561   6.252   2.413   6.736 -2.3518 -0.7970 -0.0447
  197MOL0     H26562   6.230   2.521   6.878 -1.7315  0.4364  0.9987
  197MOL0     H26563   6.070   2.653   6.723 -1.6227 -0.8046 -1.7262
  197MOL0     H26564   6.074   2.510   6.626  0.5338  0.8583  0.0852
  197MOL0     H26565   5.991   2.381   6.817 -0.3386  0.5084 -1.6104
  197MOL0     H26566   5.881   2.518   6.773  1.1764  2.6790 -0.4008
  197MOL0     H26567   6.069   2.542   7.009  0.8849 -0.3328 -1.8107
  197MOL0     H26568   5.925   2.630   6.961 -0.4789 -1.1252  0.4006
  197MOL0     H26569   5.900   2.458   7.152 -0.1890  1.2246 -0.4310
  197MOL0     H26570   5.918   2.330   7.025  2.2709 -0.1426  2.6789
  197MOL0     H26571   5.693   2.508   7.102  0.4968  1.8188 -1.4664
  197MOL0     H26572   5.718   2.493   6.924 -1.4770 -1.0481 -0.8488
  197MOL0     H26573   5.639   2.269   7.109 -3.2712  4.3064  0.7973
  197MOL0     H26574   5.704   2.242   6.943 -0.1660 -0.9242 -0.3918
  197MOL0     H26575   5.488   2.260   6.904  3.4212 -1.1964  0.2928
  197MOL0     H26576   5.517   2.431   6.890 -0.1959  0.8434  1.0529
  197MOL0     H26577   6.502   2.763   6.613 -2.0667 -0.7271  0.3936
  197MOL0     H26578   6.747   2.748   6.663  0.1165 -1.3340 -0.8311
  197MOL0     H26579   7.061   2.896   7.001 -0.2254  0.9855  0.5626
  197MOL0     H26580   7.278   2.879   7.140 -2.5058  2.1876 -1.5168
  197MOL0     H26581   9.335   3.446   7.195 -1.1017  0.6838  3.0329
  197MOL0     H26582   9.566   3.429   7.183  0.8264  1.1479  3.4897
  197MOL0     H26583   9.894   3.063   7.093  0.4365  2.6391 -1.4587
  197MOL0     H26584  10.112   2.991   7.059 -1.2787 -1.0937  0.2827
  197MOL0     H26585  10.304   2.919   7.071 -1.4890  1.1130  0.1539
  197MOL0     H26586  10.329   3.074   6.997 -0.7864 -0.5791 -0.2963
  197MOL0     H26587  10.540   2.910   7.167  2.9164  3.4414  3.3238
  197MOL0     H26588  10.570   3.070   7.096 -1.1965 -0.5153  1.9419
  197MOL0     H26589  10.548   2.983   6.870 -0.1448 -1.9101 -2.3821
  197MOL0     H26590  10.462   2.847   6.927 -1.9618  0.6803  1.0312
  197MOL0     H26591  10.772   2.883   6.958  0.3945  0.3590 -2.8205
  197MOL0     H26592  10.699   2.811   6.826  0.4503  2.0636 -0.1915
  197MOL0     H26593  10.675   2.500   7.114 -1.0205 -1.3093 -2.4786
  197MOL0     H26594  10.245   3.248   7.380  1.6049  0.1440 -1.9092
  197MOL0     H26595  10.013   3.310   7.422  3.1326  1.0211 -0.5333
  198MOL0     O26596   2.854   1.840   6.005  1.1093 -0.6914 -0.5195
  198MOL0     C26597   2.888   1.725   6.014  0.4393  0.0715  0.0662
  198MOL0     O26598   2.809   1.625   6.062 -0.4258  0.0752 -0.1266
  198MOL0     C26599   2.678   1.645   6.098  1.7381  0.0717  0.3207
  198MOL0     C26600   2.579   1.710   6.027 -0.3508 -0.4717 -0.2568
  198MOL0     C26601   2.443   1.704   6.066 -0.6074  0.1246 -0.9469
  198MOL0     C26602   2.406   1.617   6.169 -1.1545 -0.2223 -0.1839
  198MOL0     O26603   2.282   1.613   6.223  0.4641  0.0335 -0.4957
  198MOL0     C26604   2.176   1.680   6.165 -0.3391  0.7599  0.4655
  198MOL0     C26605   2.038   1.630   6.220 -0.4758  0.3105  0.4901
  198MOL0     C26606   1.913   1.732   6.207 -0.3102  0.1370 -0.8213
  198MOL0     C26607   1.786   1.667   6.267 -0.0987  0.7123 -0.0566
  198MOL0     C26608   1.666   1.769   6.266  0.5491  0.7178 -0.3940
  198MOL0     C26609   1.531   1.690   6.282 -0.9101  0.5011 -0.2026
  198MOL0     C26610   1.485   1.628   6.153  0.7968  0.2521 -0.2795
  198MOL0     C26611   1.364   1.537   6.180  1.0749  0.1599 -0.6965
  198MOL0     N26612   1.336   1.459   6.069  0.5967 -0.0259  0.4070
  198MOL0     C26613   1.258   1.348   6.072  0.6107  0.2245 -0.5636
  198MOL0     C26614   1.248   1.311   5.939 -0.0248 -0.2999 -1.1223
  198MOL0     C26615   1.174   1.185   5.889  0.1422 -0.6218  0.3202
  198MOL0     C26616   1.042   1.208   5.816  0.1044 -0.0680 -0.4656
  198MOL0     C26617   0.928   1.114   5.848  0.1585  0.0883  0.7477
  198MOL0     C26618   0.803   1.132   5.762  0.6577  0.6295 -0.3641
  198MOL0     O26619   0.730   1.009   5.777 -0.3538 -0.2434  0.0535
  198MOL0     C26620   0.615   1.016   5.715  0.4652  0.1864  0.8704
  198MOL0     C26621   0.590   0.940   5.602 -0.2070 -0.3137  0.7722
  198MOL0     C26622   0.455   0.916   5.551 -0.7016 -0.2398  0.3590
  198MOL0     C26623   0.438   0.830   5.423 -0.3697  0.5031 -0.6345
  198MOL0     C26624   0.350   0.978   5.623  0.5113  0.4714  0.5261
  198MOL0     C26625   0.209   0.969   5.587 -0.4735 -0.5184  0.0240
  198MOL0     O26626   0.178   0.886   5.490  0.1823  0.1640  0.9606
  198MOL0     C26627   0.052   0.861   5.448  0.4613  0.0552 -0.0283
  198MOL0     C26628  -0.049   0.956   5.428 -1.4770 -0.1361 -0.5104
  198MOL0     C26629  -0.183   0.925   5.392  0.1364  0.3359 -1.0451
  198MOL0     C26630  -0.212   0.787   5.364 -0.3006 -0.5546 -0.0007
  198MOL0     O26631  -0.330   0.722   5.355 -0.7850 -0.0948  0.2028
  198MOL0     C26632  -0.453   0.809   5.341  0.1379  0.1221 -0.0323
  198MOL0     C26633  -0.578   0.721   5.367  1.0358 -0.9294  0.4797
  198MOL0     C26634  -0.651   0.682   5.233  0.2521  0.7150  1.0737
  198MOL0     C26635  -0.804   0.677   5.251  0.3253 -0.2312  0.4617
  198MOL0     C26636  -0.889   0.627   5.129  0.3595 -0.0382 -0.2555
  198MOL0     C26637  -0.885   0.725   5.008  0.6229  0.1945  0.6819
  198MOL0     C26638  -0.937   0.658   4.886  0.1348  0.9927  0.0288
  198MOL0     C26639  -0.913   0.738   4.760  0.3577  0.7098 -0.0106
  198MOL0    Cl26640  -1.018   0.873   4.746  0.0875 -0.0518  0.0193
  198MOL0     C26641  -0.113   0.693   5.389 -1.1793  0.0958  1.6085
  198MOL0     C26642   0.015   0.732   5.422  0.8174  1.0495 -0.5426
  198MOL0     O26643   0.134   1.045   5.643  0.6116  0.0409  0.2040
  198MOL0     C26644   0.389   1.057   5.736  0.4279  0.2120 -0.5790
  198MOL0     C26645   0.518   1.080   5.779 -0.7176 -0.2406 -0.5824
  198MOL0     N26646   1.313   1.402   5.861  0.2839  0.4377 -0.6992
  198MOL0     N26647   1.358   1.494   5.940 -1.0338  0.3834  0.1097
  198MOL0     C26648   2.509   1.552   6.245  0.3600  0.8590 -0.0417
  198MOL0     C26649   2.641   1.563   6.209  0.0069  0.1664 -0.1292
  198MOL0     C26650   3.035   1.693   6.001 -0.0104 -0.0491 -0.7954
  198MOL0     C26651   3.114   1.745   5.892 -0.3929  0.8436 -0.5135
  198MOL0     C26652   3.246   1.710   5.888 -0.0100 -0.9533  0.0259
  198MOL0     C26653   3.311   1.643   5.995 -0.3587  0.6229 -0.0748
  198MOL0     O26654   3.444   1.607   6.016 -0.7686  0.2161 -1.3095
  198MOL0     C26655   3.534   1.671   5.923  0.6967 -0.2019 -0.6724
  198MOL0     C26656   3.671   1.667   5.982  0.7025 -0.0085 -0.9771
  198MOL0     C26657   3.773   1.665   5.867 -0.5644 -0.1946  0.0192
  198MOL0     C26658   3.918   1.687   5.921  0.3670 -0.1978  0.9110
  198MOL0     C26659   4.026   1.635   5.835  0.0274  0.8961 -0.1507
  198MOL0     C26660   4.116   1.601   5.759  0.5616 -1.0053 -1.0225
  198MOL0     C26661   3.230   1.597   6.094 -0.4912 -0.5086  0.4018
  198MOL0     C26662   3.092   1.627   6.109  0.0242  0.8095 -0.0738
  198MOL0     H26663   2.608   1.769   5.941  1.0011 -0.0526  0.4537
  198MOL0     H26664   2.374   1.764   6.008 -0.8965  0.1550 -0.5696
  198MOL0     H26665   2.186   1.786   6.194 -3.0152  0.7109  1.8894
  198MOL0     H26666   2.181   1.666   6.057  1.8686  1.8754  0.3557
  198MOL0     H26667   2.011   1.528   6.190  0.0485  0.5903 -1.0366
  198MOL0     H26668   2.060   1.625   6.327 -1.9429  2.0673  0.9238
  198MOL0     H26669   1.925   1.827   6.261 -1.2155 -0.7338  1.0016
  198MOL0     H26670   1.892   1.761   6.104  0.2408  2.4706 -0.3455
  198MOL0     H26671   1.769   1.571   6.217 -1.3247 -0.3972  2.3053
  198MOL0     H26672   1.819   1.641   6.368  0.5604  1.6514 -0.0231
  198MOL0     H26673   1.675   1.847   6.342  0.5668  0.1043  0.2436
  198MOL0     H26674   1.657   1.819   6.169 -3.6931  0.0773 -0.5581
  198MOL0     H26675   1.561   1.614   6.355 -3.5838 -0.2339  0.2266
  198MOL0     H26676   1.456   1.761   6.319 -0.5875  1.5007 -1.3910
  198MOL0     H26677   1.469   1.709   6.082  2.7090  2.1769  1.3449
  198MOL0     H26678   1.571   1.572   6.115 -0.1907 -0.0769 -2.1151
  198MOL0     H26679   1.274   1.595   6.204  1.7205  0.3977  1.3381
  198MOL0     H26680   1.385   1.476   6.268 -0.0691 -1.6113 -1.5957
  198MOL0     H26681   1.217   1.284   6.150  1.5722 -0.6753 -0.7769
  198MOL0     H26682   1.238   1.135   5.816  0.4177  2.2152 -1.5148
  198MOL0     H26683   1.167   1.113   5.972  0.8547 -0.9118  0.1409
  198MOL0     H26684   1.072   1.212   5.710  2.7197 -0.5501  0.1749
  198MOL0     H26685   1.002   1.307   5.835  1.1646  0.2130  0.3891
  198MOL0     H26686   0.898   1.116   5.954 -1.7843 -4.2454  0.4876
  198MOL0     H26687   0.955   1.010   5.828 -1.4896 -0.3403  0.5725
  198MOL0     H26688   0.823   1.161   5.659  0.8938  3.0249  0.2986
  198MOL0     H26689   0.745   1.214   5.805 -1.6936 -1.5895  0.9992
  198MOL0     H26690   0.680   0.901   5.555  0.9810  2.2511  0.7804
  198MOL0     H26691   0.397   0.730   5.439  2.4524 -0.3933  1.7995
  198MOL0     H26692   0.387   0.890   5.347 -0.1677  0.4075 -0.8489
  198MOL0     H26693   0.538   0.819   5.380  0.6803  1.5100  1.4035
  198MOL0     H26694  -0.022   1.058   5.456 -0.6557 -0.2292 -0.9425
  198MOL0     H26695  -0.263   0.999   5.390 -0.0362  0.3619  2.0801
  198MOL0     H26696  -0.452   0.885   5.420 -3.0519  2.0926 -1.7020
  198MOL0     H26697  -0.452   0.855   5.242  1.9980  1.3339  0.4785
  198MOL0     H26698  -0.546   0.630   5.418 -1.4812 -1.6063  1.0146
  198MOL0     H26699  -0.653   0.779   5.422  0.8478 -1.3392  0.6574
  198MOL0     H26700  -0.606   0.587   5.203  0.3984  1.1557 -0.1740
  198MOL0     H26701  -0.636   0.749   5.148 -0.8203 -2.0500 -1.5101
  198MOL0     H26702  -0.835   0.609   5.332  2.1808 -1.5957  0.0961
  198MOL0     H26703  -0.839   0.777   5.279  2.1719  0.4652  0.4301
  198MOL0     H26704  -0.996   0.621   5.149 -0.1145  0.9531 -2.2598
  198MOL0     H26705  -0.850   0.533   5.088 -0.3295 -0.2239 -0.4862
  198MOL0     H26706  -0.950   0.807   5.039  1.1082  0.6389  0.5335
  198MOL0     H26707  -0.783   0.763   4.998  1.7045 -2.4950  0.6311
  198MOL0     H26708  -1.044   0.636   4.884  0.3225 -0.0406 -2.1037
  198MOL0     H26709  -0.890   0.559   4.878 -1.2642  0.3004  0.1527
  198MOL0     H26710  -0.927   0.680   4.668  0.9505  2.4988 -1.2815
  198MOL0     H26711  -0.811   0.773   4.746  0.7445 -1.3681 -3.8467
  198MOL0     H26712  -0.133   0.589   5.369 -1.7184  0.4587  0.1346
  198MOL0     H26713   0.092   0.656   5.430  2.1815  2.4062 -0.2985
  198MOL0     H26714   0.321   1.105   5.806  1.1780 -1.7472  1.6347
  198MOL0     H26715   0.531   1.128   5.876 -0.6305  1.5970 -1.4656
  198MOL0     H26716   2.475   1.493   6.330 -0.5579  1.0032 -0.2990
  198MOL0     H26717   2.713   1.515   6.275 -0.7855  0.1435  0.7293
  198MOL0     H26718   3.063   1.808   5.821 -1.2688  0.4901 -0.2201
  198MOL0     H26719   3.305   1.730   5.800  0.6173 -1.5138  0.3121
  198MOL0     H26720   3.542   1.618   5.827  1.9907  1.0087 -1.2848
  198MOL0     H26721   3.499   1.768   5.886 -0.1554  0.1103  0.8911
  198MOL0     H26722   3.681   1.578   6.044 -0.2065  1.4707  1.4416
  198MOL0     H26723   3.691   1.749   6.052  0.0390 -1.7330  1.3561
  198MOL0     H26724   3.756   1.740   5.789 -0.2337  2.7668  2.6240
  198MOL0     H26725   3.771   1.565   5.823  3.7782  0.0094 -1.0317
  198MOL0     H26726   3.915   1.635   6.018 -3.8784  2.7542  2.6712
  198MOL0     H26727   3.929   1.793   5.945 -1.2305 -0.4167  2.8541
  198MOL0     H26728   4.204   1.582   5.701  1.0926  2.6797 -1.6215
  198MOL0     H26729   3.271   1.528   6.168 -2.4940 -0.8075  1.2946
  198MOL0     H26730   3.035   1.585   6.191  4.5090 -0.8831  2.5696
  199MOL0     O26731   3.425   8.686   6.176  0.6080  0.3460 -0.1689
  199MOL0     C26732   3.493   8.788   6.175 -0.2635 -0.8147  0.0474
  199MOL0     O26733   3.444   8.917   6.175  0.0419  0.2990  0.1766
  199MOL0     C26734   3.315   8.936   6.149  0.4004  0.5896  0.2863
  199MOL0     C26735   3.284   8.977   6.022  0.0679  0.3571 -0.1027
  199MOL0     C26736   3.153   9.022   5.992  0.0752  0.7010  0.0572
  199MOL0     C26737   3.053   9.026   6.092 -0.6857 -0.0015  0.1371
  199MOL0     O26738   2.919   9.071   6.071  0.1902  0.7137  0.2431
  199MOL0     C26739   2.862   9.040   5.944  0.4666 -1.6467  0.5143
  199MOL0     C26740   2.708   9.038   5.961 -0.2313  0.5563  0.4066
  199MOL0     C26741   2.625   9.021   5.834  0.4307  0.7100  0.5456
  199MOL0     C26742   2.479   9.031   5.868 -0.6851  0.4617  0.0121
  199MOL0     C26743   2.388   8.989   5.753 -0.2910 -0.2950 -0.0314
  199MOL0     C26744   2.251   8.947   5.810  0.5922 -0.1398 -0.5522
  199MOL0     C26745   2.163   8.891   5.700 -0.4498  0.5970  0.1339
  199MOL0     C26746   2.020   8.899   5.727 -0.2606 -0.9143  0.1789
  199MOL0     N26747   1.936   8.861   5.614  0.0199  0.3659 -0.2690
  199MOL0     C26748   1.928   8.919   5.486 -0.7499 -0.7098  0.2754
  199MOL0     C26749   1.837   8.849   5.413 -0.5380  0.0188 -0.5112
  199MOL0     C26750   1.793   8.853   5.267 -0.6526  0.0777  0.3915
  199MOL0     C26751   1.861   8.745   5.181  1.0015 -0.0934  0.0026
  199MOL0     C26752   1.842   8.765   5.031 -0.1439  0.1961 -0.2223
  199MOL0     C26753   1.700   8.790   4.973  0.4000 -0.7706 -0.9128
  199MOL0     O26754   1.611   8.704   5.041  0.3811  0.3456 -0.1957
  199MOL0     C26755   1.479   8.733   5.034  0.3028  0.1865  0.5448
  199MOL0     C26756   1.405   8.750   5.149 -0.6249  0.7581  0.0461
  199MOL0     C26757   1.271   8.787   5.151  0.2520  0.5396  0.6243
  199MOL0     C26758   1.223   8.799   5.289 -0.3874  0.3351  0.2372
  199MOL0     C26759   1.200   8.798   5.028 -0.1008  0.7713  0.5364
  199MOL0     C26760   1.058   8.816   5.012 -0.0774  0.0745  0.8013
  199MOL0     O26761   1.010   8.840   4.890  0.3858  0.3404 -0.1275
  199MOL0     C26762   0.877   8.873   4.866 -0.5756 -0.5818  0.0913
  199MOL0     C26763   0.796   8.937   4.968 -0.7055  0.0917 -0.3488
  199MOL0     C26764   0.666   8.967   4.946 -0.6222  0.6412 -1.0511
  199MOL0     C26765   0.597   8.921   4.831 -0.7068  0.1292 -0.0274
  199MOL0     O26766   0.463   8.944   4.818 -0.0748  0.2417 -0.1244
  199MOL0     C26767   0.387   8.850   4.735  0.4332  0.7370 -0.1882
  199MOL0     C26768   0.248   8.842   4.784  0.4593  0.5072 -1.1850
  199MOL0     C26769   0.179   8.990   4.796  0.5013  0.0613  0.0984
  199MOL0     C26770   0.027   8.984   4.789  0.3001 -0.5622  0.5358
  199MOL0     C26771  -0.027   9.129   4.798  0.2731 -0.2211 -0.0602
  199MOL0     C26772  -0.179   9.130   4.765  0.5988  0.0278  0.2659
  199MOL0     C26773  -0.233   9.270   4.762  0.2206  0.1193 -0.6646
  199MOL0     C26774  -0.384   9.285   4.751 -0.1042  0.0224  0.1479
  199MOL0    Cl26775  -0.442   9.182   4.621 -0.3565  0.0691  0.1241
  199MOL0     C26776   0.678   8.868   4.732  0.3805 -0.0675 -0.1929
  199MOL0     C26777   0.813   8.838   4.747 -0.3763 -0.4686 -0.1305
  199MOL0     O26778   0.998   8.797   5.110 -0.0406 -0.3619  0.3985
  199MOL0     C26779   1.270   8.769   4.915 -0.2403 -0.5017 -0.3615
  199MOL0     C26780   1.411   8.737   4.911 -0.0860  0.0672 -0.9848
  199MOL0     N26781   1.794   8.745   5.498 -0.1645  0.0639 -0.3827
  199MOL0     N26782   1.853   8.757   5.616  0.1812 -0.2952  0.9936
  199MOL0     C26783   3.085   8.985   6.221  0.5051  0.0085  0.5531
  199MOL0     C26784   3.216   8.939   6.246 -0.3757 -0.1939 -0.0891
  199MOL0     C26785   3.638   8.767   6.160  1.3994 -0.1461 -0.5865
  199MOL0     C26786   3.697   8.643   6.142 -0.1720  0.5441  0.2619
  199MOL0     C26787   3.823   8.630   6.103 -1.0639  0.1862 -0.4190
  199MOL0     C26788   3.907   8.741   6.109  0.4871  0.5789  0.2218
  199MOL0     O26789   4.042   8.739   6.095  1.1233  0.1507  0.1485
  199MOL0     C26790   4.101   8.613   6.118  0.2998 -0.0846  0.0163
  199MOL0     C26791   4.244   8.610   6.080  0.2376  0.5842 -1.0607
  199MOL0     C26792   4.336   8.695   6.172  0.5275 -0.2540  0.3694
  199MOL0     C26793   4.328   8.846   6.128  0.5604  0.0905  0.3178
  199MOL0     C26794   4.423   8.929   6.199  0.8411 -0.2476 -0.5134
  199MOL0     C26795   4.493   9.011   6.257  0.2944  0.1207  0.2071
  199MOL0     C26796   3.849   8.865   6.129  0.1726  0.0026 -0.1293
  199MOL0     C26797   3.716   8.881   6.153  0.0180 -0.3588  0.5450
  199MOL0     H26798   3.364   8.988   5.949  0.7967  0.2854  0.6717
  199MOL0     H26799   3.142   9.072   5.897  2.2568 -0.4254 -0.8708
  199MOL0     H26800   2.886   9.115   5.868 -1.0942  0.8889  2.3450
  199MOL0     H26801   2.886   8.943   5.901  0.8341  0.0987 -3.6980
  199MOL0     H26802   2.690   8.948   6.021  2.0115 -0.8930 -0.9653
  199MOL0     H26803   2.689   9.126   6.023 -2.4563  0.9500 -0.7210
  199MOL0     H26804   2.642   9.098   5.758 -2.7172 -0.0653 -1.1128
  199MOL0     H26805   2.655   8.927   5.787 -2.4331  0.3991 -0.8574
  199MOL0     H26806   2.457   8.958   5.946 -0.9855  0.4070 -0.1206
  199MOL0     H26807   2.449   9.132   5.899 -1.6459  0.3187 -0.3930
  199MOL0     H26808   2.385   9.071   5.681 -0.8885 -1.3898 -1.2860
  199MOL0     H26809   2.422   8.901   5.699  0.0636  1.4331 -2.8138
  199MOL0     H26810   2.262   8.875   5.892  1.5992 -1.4328 -1.7609
  199MOL0     H26811   2.206   9.042   5.842 -0.3187 -0.9382  0.6468
  199MOL0     H26812   2.194   8.943   5.609  1.4128 -0.5125  0.1031
  199MOL0     H26813   2.189   8.786   5.686  0.4117  0.6816  1.0068
  199MOL0     H26814   1.992   9.004   5.743  0.2247 -0.3786 -2.1188
  199MOL0     H26815   2.001   8.837   5.815  0.6354 -0.7802  0.4778
  199MOL0     H26816   1.979   9.009   5.453  0.6327 -0.2797  3.2833
  199MOL0     H26817   1.684   8.846   5.261 -0.4919 -2.0387 -1.3408
  199MOL0     H26818   1.814   8.950   5.221  0.4621 -0.8134 -1.0581
  199MOL0     H26819   1.830   8.642   5.204  1.6204 -0.2869 -0.0186
  199MOL0     H26820   1.967   8.752   5.207  1.6562 -0.0371 -2.4709
  199MOL0     H26821   1.890   8.685   4.975  0.1443  0.0942  0.1688
  199MOL0     H26822   1.900   8.853   5.001 -1.5955  1.5687  0.8577
  199MOL0     H26823   1.701   8.777   4.865 -1.2338  0.3930 -1.1058
  199MOL0     H26824   1.665   8.892   4.993  1.0591 -0.5621 -0.7897
  199MOL0     H26825   1.465   8.741   5.239 -0.4927  0.6636 -0.0512
  199MOL0     H26826   1.120   8.833   5.303 -0.7174 -0.5889  0.1466
  199MOL0     H26827   1.216   8.698   5.332 -1.4265 -1.7581 -4.2465
  199MOL0     H26828   1.295   8.861   5.342 -0.8740  1.1696 -0.0684
  199MOL0     H26829   0.841   8.969   5.062 -0.0490 -1.7356 -0.0050
  199MOL0     H26830   0.623   9.027   5.024 -0.8665  1.5297 -1.8566
  199MOL0     H26831   0.386   8.875   4.629  0.6334  0.2944 -0.2964
  199MOL0     H26832   0.424   8.747   4.734 -1.4382  0.0123 -0.7512
  199MOL0     H26833   0.193   8.777   4.716 -0.2679  1.3593 -1.4353
  199MOL0     H26834   0.247   8.789   4.880  3.0786  1.3654 -0.5991
  199MOL0     H26835   0.213   9.060   4.719  2.0503  0.9915  1.5490
  199MOL0     H26836   0.200   9.041   4.890 -0.2674  0.4678  0.0516
  199MOL0     H26837  -0.004   8.934   4.697 -0.0287 -1.4082  1.0829
  199MOL0     H26838  -0.012   8.920   4.870 -1.0219  0.7773  1.0002
  199MOL0     H26839   0.031   9.190   4.728  1.4130  0.1489  1.1837
  199MOL0     H26840  -0.020   9.170   4.899  1.0024  2.0289 -0.9459
  199MOL0     H26841  -0.198   9.080   4.670 -2.4973  1.9375 -0.2530
  199MOL0     H26842  -0.248   9.082   4.836 -2.5611  1.4304 -1.6479
  199MOL0     H26843  -0.185   9.333   4.686  3.5402  0.0157  1.1373
  199MOL0     H26844  -0.196   9.324   4.850 -0.9995  0.5177 -0.3816
  199MOL0     H26845  -0.417   9.388   4.737 -1.9433 -0.2283  2.1532
  199MOL0     H26846  -0.433   9.259   4.845  1.2681 -4.7331 -0.1932
  199MOL0     H26847   0.635   8.838   4.637  0.8762 -0.5633 -0.2719
  199MOL0     H26848   0.868   8.787   4.668 -0.9539 -2.3835  0.6500
  199MOL0     H26849   1.224   8.775   4.817  0.4285  1.6658 -0.6017
  199MOL0     H26850   1.468   8.689   4.832  0.3519 -3.4216  1.2107
  199MOL0     H26851   3.010   9.000   6.298  1.1189 -0.8372  1.3253
  199MOL0     H26852   3.236   8.918   6.351  1.7394  1.1421 -0.1636
  199MOL0     H26853   3.633   8.555   6.145  1.7206 -1.0594 -2.1782
  199MOL0     H26854   3.855   8.529   6.080 -2.2811 -0.0103 -1.3520
  199MOL0     H26855   4.090   8.585   6.223  2.3557  1.2110  0.6401
  199MOL0     H26856   4.054   8.535   6.058  0.6226 -1.1055  1.0643
  199MOL0     H26857   4.256   8.649   5.979  1.2472  0.7015 -0.9041
  199MOL0     H26858   4.282   8.507   6.082  0.5488  0.6745  1.4781
  199MOL0     H26859   4.437   8.654   6.159  0.6097 -0.8638  2.4887
  199MOL0     H26860   4.304   8.683   6.276  2.2564 -0.6360  0.8894
  199MOL0     H26861   4.232   8.897   6.137  0.0416 -0.7776 -0.1452
  199MOL0     H26862   4.357   8.854   6.023 -0.2985 -0.4701  0.0215
  199MOL0     H26863   4.563   9.076   6.304 -0.6646  0.9584  0.5094
  199MOL0     H26864   3.913   8.953   6.121  2.6508 -1.7626 -0.7622
  199MOL0     H26865   3.673   8.979   6.165  1.1754  0.3705 -1.0062
  200MOL0     O26866   8.135  10.468   3.237  0.0419  0.1460 -0.3427
  200MOL0     C26867   8.161  10.357   3.290  0.3869  0.2915  0.6786
  200MOL0     O26868   8.089  10.276   3.373 -0.6447  0.0443  0.5964
  200MOL0     C26869   7.960  10.313   3.395 -0.3538  0.0539  0.0476
  200MOL0     C26870   7.872  10.289   3.294 -0.0854  0.0265 -0.2684
  200MOL0     C26871   7.736  10.300   3.322 -0.0401  0.5417  0.1773
  200MOL0     C26872   7.686  10.345   3.446  0.4362  0.3264  1.4765
  200MOL0     O26873   7.552  10.352   3.482  1.0078  0.0643  0.9042
  200MOL0     C26874   7.454  10.358   3.377  0.1183  0.3285 -0.9649
  200MOL0     C26875   7.322  10.412   3.438  0.1683 -0.9068 -0.3674
  200MOL0     C26876   7.323  10.553   3.495  0.0187  0.1375 -0.2574
  200MOL0     C26877   7.186  10.586   3.540 -0.6609 -0.4510  0.5007
  200MOL0     C26878   7.175  10.728   3.598 -0.0663  0.5035 -0.6638
  200MOL0     C26879   7.063  10.741   3.709 -0.2915 -0.2471 -0.5006
  200MOL0     C26880   7.063  10.886   3.758  1.0644  0.6569  0.0135
  200MOL0     C26881   6.981  10.901   3.889  0.5981 -0.0018 -0.3214
  200MOL0     N26882   6.880  11.005   3.885  0.2721  0.4501 -0.0643
  200MOL0     C26883   6.889  11.135   3.921  0.1932  0.7300  0.5650
  200MOL0     C26884   6.769  11.183   3.898  1.0900  0.8056  0.8483
  200MOL0     C26885   6.721  11.330   3.916 -0.2516  0.2611 -0.2565
  200MOL0     C26886   6.651  11.335   4.055  0.6880  0.0850 -0.3722
  200MOL0     C26887   6.624  11.483   4.090 -0.0585 -1.0599 -0.2302
  200MOL0     C26888   6.551  11.484   4.219  0.5248  0.2441  0.8723
  200MOL0     O26889   6.622  11.416   4.326  0.1621 -0.2750  0.2038
  200MOL0     C26890   6.578  11.437   4.451 -0.0965  0.5476  0.3132
  200MOL0     C26891   6.675  11.417   4.549  0.5325  0.1704 -0.7037
  200MOL0     C26892   6.645  11.436   4.682 -0.2049  1.1068 -0.4312
  200MOL0     C26893   6.767  11.426   4.771 -0.5497 -0.2705 -0.4280
  200MOL0     C26894   6.512  11.471   4.725 -0.0231  0.3166  0.1758
  200MOL0     C26895   6.472  11.469   4.867  0.2517  0.2157  0.1915
  200MOL0     O26896   6.338  11.435   4.885 -0.5997 -0.4692  0.0050
  200MOL0     C26897   6.281  11.404   5.002 -0.6394 -0.9047 -0.7859
  200MOL0     C26898   6.336  11.372   5.125  0.0627  0.4238  0.1707
  200MOL0     C26899   6.261  11.372   5.239  0.1048  0.3136 -0.3676
  200MOL0     C26900   6.126  11.386   5.245  0.5099  0.7666  0.2895
  200MOL0     O26901   6.049  11.376   5.366 -0.1096  0.3952 -0.0663
  200MOL0     C26902   5.911  11.345   5.341 -0.2961 -0.4074 -1.1370
  200MOL0     C26903   5.825  11.335   5.466 -0.0357  0.0581  0.1238
  200MOL0     C26904   5.862  11.226   5.562 -0.1070  0.8808  0.5048
  200MOL0     C26905   5.826  11.086   5.514 -0.2203  0.2639 -0.3857
  200MOL0     C26906   5.679  11.054   5.496  0.8640 -1.3416 -0.9346
  200MOL0     C26907   5.601  11.064   5.628  0.7735  0.7136  0.2858
  200MOL0     C26908   5.471  10.974   5.622  0.0370 -0.6191  0.2186
  200MOL0     C26909   5.404  10.989   5.762 -0.0060  0.2454 -0.0959
  200MOL0    Cl26910   5.239  10.930   5.753 -0.2956  0.4668 -0.0242
  200MOL0     C26911   6.068  11.415   5.123  0.7031  0.2771  0.4833
  200MOL0     C26912   6.141  11.424   5.001 -0.3846  0.3178 -1.0443
  200MOL0     O26913   6.549  11.495   4.957 -0.4251 -0.0834 -0.4271
  200MOL0     C26914   6.416  11.490   4.622 -0.9610  0.1446 -0.6077
  200MOL0     C26915   6.451  11.471   4.491  0.0123 -0.9404 -0.4160
  200MOL0     N26916   6.686  11.069   3.862  0.6617  0.4141 -0.4650
  200MOL0     N26917   6.756  10.967   3.847  0.3940 -0.1967  0.1087
  200MOL0     C26918   7.778  10.392   3.533  0.0880 -0.3885 -0.3996
  200MOL0     C26919   7.914  10.373   3.511  0.3540 -0.2441 -0.4871
  200MOL0     C26920   8.300  10.325   3.273  0.1328  1.0109  0.8237
  200MOL0     C26921   8.353  10.194   3.282  0.4686  0.7004 -0.6230
  200MOL0     C26922   8.487  10.163   3.258  0.4372 -0.0443 -0.7083
  200MOL0     C26923   8.570  10.264   3.227  0.4645 -0.1687  0.3786
  200MOL0     O26924   8.700  10.225   3.211  0.1942 -0.1183  0.2816
  200MOL0     C26925   8.793  10.304   3.141  0.1583  0.0868 -0.1399
  200MOL0     C26926   8.926  10.235   3.117  0.1435  0.0843 -0.3102
  200MOL0     C26927   9.012  10.341   3.052  0.5047  0.1232  0.6678
  200MOL0     C26928   9.130  10.280   2.973  0.2272 -0.0230  0.5819
  200MOL0     C26929   9.214  10.387   2.920 -0.1606  0.7702 -0.3723
  200MOL0     C26930   9.291  10.455   2.853  0.5242  0.0932 -0.1448
  200MOL0     C26931   8.522  10.392   3.216  0.7399 -0.3386 -0.4425
  200MOL0     C26932   8.390  10.429   3.224  0.5534 -0.6287  0.1857
  200MOL0     H26933   7.900  10.259   3.194 -0.7530 -1.1177 -0.1224
  200MOL0     H26934   7.665  10.286   3.241 -0.3441  1.1458  0.3302
  200MOL0     H26935   7.491  10.428   3.301 -2.1312  3.2281  0.3950
  200MOL0     H26936   7.435  10.260   3.333 -2.1667  0.5789 -0.6532
  200MOL0     H26937   7.240  10.400   3.366 -0.7976  2.9653 -0.1190
  200MOL0     H26938   7.289  10.337   3.510 -2.2423  0.0980 -0.3362
  200MOL0     H26939   7.389  10.554   3.582 -1.6226 -2.3418  1.1182
  200MOL0     H26940   7.360  10.626   3.422  1.3851 -0.1036  0.1634
  200MOL0     H26941   7.119  10.576   3.454 -0.8031  2.9859  0.1014
  200MOL0     H26942   7.156  10.517   3.620 -0.8579 -2.0864 -0.9134
  200MOL0     H26943   7.268  10.775   3.633 -0.2304  1.1148 -1.0517
  200MOL0     H26944   7.138  10.798   3.524 -0.4040  0.3171 -0.6703
  200MOL0     H26945   6.963  10.720   3.669 -0.9245  4.1530 -1.7631
  200MOL0     H26946   7.076  10.679   3.798  2.6654  1.5400  0.4295
  200MOL0     H26947   7.165  10.921   3.775  1.4283 -0.6424  0.5816
  200MOL0     H26948   7.019  10.954   3.684  1.0236  0.7471  0.1193
  200MOL0     H26949   7.048  10.930   3.970 -2.9629  0.2824  2.8040
  200MOL0     H26950   6.934  10.806   3.916  0.0518 -0.2786 -2.1470
  200MOL0     H26951   6.977  11.186   3.957  0.9146 -0.0596 -0.0110
  200MOL0     H26952   6.804  11.401   3.923  1.5816 -1.6446 -1.5703
  200MOL0     H26953   6.653  11.345   3.832  2.3891 -2.0569 -3.0634
  200MOL0     H26954   6.723  11.295   4.128 -0.4732 -1.3535  0.0345
  200MOL0     H26955   6.562  11.271   4.053  0.5221  0.1964  1.5213
  200MOL0     H26956   6.566  11.529   4.009  0.8474 -1.4135 -1.1034
  200MOL0     H26957   6.719  11.536   4.091  1.5118 -3.6737  0.1203
  200MOL0     H26958   6.460  11.429   4.191 -1.0724  2.9130  0.4620
  200MOL0     H26959   6.530  11.588   4.244  1.2153  0.5959  0.0381
  200MOL0     H26960   6.777  11.396   4.517  0.3120  0.9660 -1.9939
  200MOL0     H26961   6.756  11.353   4.851  3.4744  1.6038  2.2157
  200MOL0     H26962   6.859  11.400   4.717 -0.3476  0.4688 -0.4542
  200MOL0     H26963   6.785  11.516   4.831  2.7329 -1.5166  0.7329
  200MOL0     H26964   6.443  11.357   5.132 -0.2485 -1.1326  3.2864
  200MOL0     H26965   6.312  11.337   5.328  0.8037 -1.0161 -1.2738
  200MOL0     H26966   5.876  11.426   5.277  1.4132  1.4087  0.1065
  200MOL0     H26967   5.911  11.250   5.286 -0.1255 -2.3742  2.0095
  200MOL0     H26968   5.825  11.430   5.521 -1.2593 -1.1506  2.3953
  200MOL0     H26969   5.722  11.327   5.431 -0.7302  1.4571  1.6480
  200MOL0     H26970   5.811  11.239   5.658 -0.3798  2.3150  0.1975
  200MOL0     H26971   5.967  11.238   5.590 -0.6349  0.8651  2.6402
  200MOL0     H26972   5.883  11.060   5.424 -1.5340 -1.9483 -0.6480
  200MOL0     H26973   5.865  11.020   5.592 -1.4037 -0.6381 -0.5336
  200MOL0     H26974   5.666  10.957   5.447 -1.5286 -2.1627  1.1592
  200MOL0     H26975   5.634  11.131   5.433  0.0773 -0.6662  0.4131
  200MOL0     H26976   5.661  11.008   5.700 -2.6831 -1.1707  1.9282
  200MOL0     H26977   5.583  11.158   5.680 -1.4273  0.1192  0.6876
  200MOL0     H26978   5.501  10.874   5.589  1.6617  0.5758 -2.2449
  200MOL0     H26979   5.413  11.012   5.538 -0.4792 -3.3723 -0.7862
  200MOL0     H26980   5.396  11.096   5.783 -1.6556 -0.0380  0.8929
  200MOL0     H26981   5.463  10.943   5.841 -1.1163  1.0444  1.2462
  200MOL0     H26982   5.962  11.432   5.107  1.0289  0.4018 -1.9597
  200MOL0     H26983   6.094  11.463   4.912  1.0987  1.3479 -1.4175
  200MOL0     H26984   6.315  11.525   4.639  0.3711  4.0749  0.4336
  200MOL0     H26985   6.366  11.474   4.423  0.4248 -1.8320 -0.9909
  200MOL0     H26986   7.738  10.439   3.622 -3.0605  0.4588 -2.0739
  200MOL0     H26987   7.984  10.418   3.582 -1.9184 -0.3541  1.9509
  200MOL0     H26988   8.303  10.100   3.301  1.1372 -0.1471 -2.6857
  200MOL0     H26989   8.516  10.059   3.265 -1.4113 -0.4510  3.4942
  200MOL0     H26990   8.757  10.324   3.040 -0.9361  0.3404  0.2916
  200MOL0     H26991   8.805  10.405   3.181  4.5879  0.2069 -1.2075
  200MOL0     H26992   8.921  10.148   3.050 -1.7407  0.7736 -1.1265
  200MOL0     H26993   8.971  10.192   3.206  0.4236  1.6616  0.3383
  200MOL0     H26994   9.047  10.410   3.129  0.7728  0.6554  0.0881
  200MOL0     H26995   8.949  10.404   2.988  0.4664 -2.1315 -1.7096
  200MOL0     H26996   9.090  10.222   2.889  1.7912  0.2792 -0.4155
  200MOL0     H26997   9.181  10.213   3.042 -1.8748 -0.6750  1.5944
  200MOL0     H26998   9.367  10.506   2.796 -0.6724  0.4503 -1.4748
  200MOL0     H26999   8.586  10.479   3.200 -0.2001  0.5710  0.5885
  200MOL0     H27000   8.366  10.533   3.206 -2.5147 -1.4010 -0.8177
  201MOL0     O27001   1.718   2.686   0.989  0.0244  0.8044 -0.5177
  201MOL0     C27002   1.734   2.564   1.008  0.0804 -0.2406  1.2085
  201MOL0     O27003   1.641   2.462   0.976 -0.0649  0.1067 -0.7256
  201MOL0     C27004   1.515   2.483   0.937  0.4769 -0.5418  0.7447
  201MOL0     C27005   1.417   2.393   0.972  0.1286 -0.6744  0.4397
  201MOL0     C27006   1.282   2.418   0.941  0.2652  0.4406 -0.3021
  201MOL0     C27007   1.240   2.525   0.860 -0.2168 -0.5360 -0.3707
  201MOL0     O27008   1.107   2.514   0.827 -0.1951 -0.1126  0.1529
  201MOL0     C27009   1.047   2.637   0.767  0.3618  0.3341 -0.0468
  201MOL0     C27010   0.894   2.608   0.754  0.2607  0.8470 -0.0361
  201MOL0     C27011   0.852   2.480   0.677  0.6197 -0.1095  0.4228
  201MOL0     C27012   0.701   2.467   0.633  0.7427 -0.5022 -0.1356
  201MOL0     C27013   0.681   2.359   0.529  0.4200 -0.3883 -0.5013
  201MOL0     C27014   0.524   2.330   0.514 -0.0351  0.1509 -1.1020
  201MOL0     C27015   0.501   2.198   0.434 -0.2363 -0.1726  0.0619
  201MOL0     C27016   0.524   2.231   0.287  0.0949 -0.1371 -0.1936
  201MOL0     N27017   0.512   2.109   0.214  0.2415  0.0416  0.0197
  201MOL0     C27018   0.395   2.038   0.185  0.4908  0.3979 -0.0378
  201MOL0     C27019   0.448   1.941   0.104 -0.2434  0.7669  0.1530
  201MOL0     C27020   0.379   1.829   0.039 -0.2460  0.1258 -0.1483
  201MOL0     C27021   0.335   1.874  -0.097 -0.2280  0.5002 -0.1373
  201MOL0     C27022   0.258   2.007  -0.110  0.2973  1.1892  0.0452
  201MOL0     C27023   0.192   2.009  -0.252 -1.0657 -0.4711  0.4797
  201MOL0     O27024   0.104   2.127  -0.254  0.3731 -0.2452 -0.5054
  201MOL0     C27025  -0.021   2.116  -0.308  0.3933 -0.5622 -0.8255
  201MOL0     C27026  -0.075   2.238  -0.355  1.0350  0.4789  0.0152
  201MOL0     C27027  -0.202   2.240  -0.413  0.1293 -0.5817 -0.1169
  201MOL0     C27028  -0.255   2.373  -0.454 -0.5661 -0.6053  0.1555
  201MOL0     C27029  -0.281   2.123  -0.415 -0.1252 -0.2307  0.0282
  201MOL0     C27030  -0.424   2.123  -0.450  0.2848 -0.0561  1.3555
  201MOL0     O27031  -0.488   2.003  -0.442 -0.4082  0.0076  0.3897
  201MOL0     C27032  -0.624   2.003  -0.473  0.3002 -0.2751 -0.3635
  201MOL0     C27033  -0.724   2.073  -0.403  0.0468  0.1760  0.8220
  201MOL0     C27034  -0.860   2.048  -0.427  0.9367  0.6129 -0.0254
  201MOL0     C27035  -0.899   1.950  -0.527 -0.3325 -0.1491 -0.6551
  201MOL0     O27036  -1.026   1.914  -0.561 -0.5827 -0.4818  0.1623
  201MOL0     C27037  -1.135   1.977  -0.500  0.4144 -0.4677  0.3483
  201MOL0     C27038  -1.265   1.973  -0.582 -1.0294  0.1600  0.3307
  201MOL0     C27039  -1.376   2.043  -0.498 -0.0468  0.4126  0.1093
  201MOL0     C27040  -1.511   2.020  -0.567  0.2904 -0.2458 -0.1071
  201MOL0     C27041  -1.626   2.065  -0.482  0.3440  0.2468  0.0498
  201MOL0     C27042  -1.637   2.220  -0.463 -1.2226 -0.1446 -0.4795
  201MOL0     C27043  -1.675   2.292  -0.593 -0.0579 -0.6072  0.6816
  201MOL0     C27044  -1.694   2.450  -0.571 -0.2270  0.6298  0.6601
  201MOL0    Cl27045  -1.804   2.482  -0.425 -0.0806  0.0881  0.4213
  201MOL0     C27046  -0.799   1.888  -0.606 -0.0837 -0.1212 -0.7887
  201MOL0     C27047  -0.667   1.909  -0.567 -0.0676 -0.5671 -0.1595
  201MOL0     O27048  -0.475   2.227  -0.483  1.0494 -0.8721 -0.3893
  201MOL0     C27049  -0.230   2.007  -0.378 -0.8902  0.0376  0.0900
  201MOL0     C27050  -0.097   2.000  -0.323 -0.1444  0.6550 -0.7918
  201MOL0     N27051   0.588   1.959   0.082  0.7156 -0.2609  0.7847
  201MOL0     N27052   0.624   2.055   0.155  0.0539  0.2111 -0.3300
  201MOL0     C27053   1.333   2.615   0.825 -0.0052 -0.2479  0.3449
  201MOL0     C27054   1.468   2.598   0.869 -0.0133 -0.2640  0.2489
  201MOL0     C27055   1.858   2.523   1.062 -0.2389  0.1084 -0.0290
  201MOL0     C27056   1.966   2.612   1.078 -0.8325 -0.1774 -0.0867
  201MOL0     C27057   2.078   2.575   1.142 -1.2079 -0.9743  0.1622
  201MOL0     C27058   2.091   2.441   1.178 -0.3644 -0.2013 -0.0696
  201MOL0     O27059   2.211   2.393   1.228 -0.7539  0.4011  1.5031
  201MOL0     C27060   2.304   2.481   1.291  0.3000 -0.0689 -0.1630
  201MOL0     C27061   2.435   2.411   1.343 -0.3390  0.5279  0.5514
  201MOL0     C27062   2.398   2.300   1.445 -0.3512 -0.6195 -0.3157
  201MOL0     C27063   2.513   2.208   1.490  0.4030  0.8601 -0.2379
  201MOL0     C27064   2.614   2.280   1.558  0.1288 -0.8847 -0.3193
  201MOL0     C27065   2.700   2.344   1.615  0.8546  0.4845  0.3103
  201MOL0     C27066   1.988   2.350   1.158 -0.3656 -0.2045  1.0818
  201MOL0     C27067   1.867   2.390   1.105  0.0603 -0.4033 -0.3274
  201MOL0     H27068   1.437   2.303   1.030 -1.9848 -3.4482 -2.7649
  201MOL0     H27069   1.212   2.337   0.959 -0.4474  0.8979 -0.9326
  201MOL0     H27070   1.070   2.720   0.835 -1.2305  0.7250  0.0653
  201MOL0     H27071   1.093   2.639   0.668 -1.9240 -4.6607 -1.5314
  201MOL0     H27072   0.851   2.597   0.854 -2.5219  3.4226 -0.7768
  201MOL0     H27073   0.840   2.691   0.707  1.4186  0.5649 -1.9262
  201MOL0     H27074   0.909   2.480   0.583 -0.3399 -2.1474 -0.2222
  201MOL0     H27075   0.882   2.390   0.731  4.2615 -0.4575 -1.8418
  201MOL0     H27076   0.639   2.452   0.721  1.2539  2.4959  0.8687
  201MOL0     H27077   0.677   2.563   0.586  0.0926  0.2603  1.6662
  201MOL0     H27078   0.714   2.409   0.437  0.4506 -0.0907 -0.3277
  201MOL0     H27079   0.736   2.270   0.560  1.8532  1.5099  2.9788
  201MOL0     H27080   0.474   2.319   0.611  0.8500  1.1676 -0.5114
  201MOL0     H27081   0.474   2.408   0.456 -1.8219 -0.0992  0.0277
  201MOL0     H27082   0.572   2.122   0.469  1.5371  1.1579 -0.4496
  201MOL0     H27083   0.399   2.160   0.443 -0.8980  1.4113 -0.3348
  201MOL0     H27084   0.622   2.276   0.272 -0.4158  1.0711 -0.0008
  201MOL0     H27085   0.450   2.303   0.252 -1.3806  0.4542  3.6533
  201MOL0     H27086   0.289   2.038   0.210 -0.2218 -0.4320 -2.7007
  201MOL0     H27087   0.442   1.740   0.038 -0.1206  0.1193  2.5277
  201MOL0     H27088   0.282   1.812   0.087  0.4491 -1.2594  0.8164
  201MOL0     H27089   0.276   1.786  -0.124  0.7463 -0.7304  1.5172
  201MOL0     H27090   0.425   1.878  -0.160  0.2600 -0.7107  0.4442
  201MOL0     H27091   0.324   2.093  -0.103  0.6957  0.7732  2.1832
  201MOL0     H27092   0.177   2.011  -0.036  0.5557  1.9888  0.2907
  201MOL0     H27093   0.134   1.916  -0.260 -0.7292 -0.7433  1.1185
  201MOL0     H27094   0.269   2.016  -0.329 -1.3156 -1.5222  0.1079
  201MOL0     H27095  -0.006   2.322  -0.357  0.5914  0.8934 -3.0763
  201MOL0     H27096  -0.184   2.450  -0.419 -3.0013  2.0905 -0.4317
  201MOL0     H27097  -0.270   2.394  -0.560 -2.6423 -0.1326  0.4997
  201MOL0     H27098  -0.347   2.398  -0.400 -0.5452 -0.9987  0.3781
  201MOL0     H27099  -0.694   2.143  -0.325 -1.7305  0.5066  1.2558
  201MOL0     H27100  -0.938   2.097  -0.369  0.9779  0.5346  0.0962
  201MOL0     H27101  -1.150   1.935  -0.401 -0.9963  1.9006  1.2320
  201MOL0     H27102  -1.111   2.083  -0.488  3.3712 -0.9741 -0.3519
  201MOL0     H27103  -1.248   2.030  -0.674  1.5035 -1.6222 -0.4062
  201MOL0     H27104  -1.291   1.874  -0.619  1.1624 -1.0668  1.8581
  201MOL0     H27105  -1.359   2.151  -0.492  1.4218  0.1771  0.6673
  201MOL0     H27106  -1.374   1.989  -0.403 -1.3232 -1.7400 -1.0265
  201MOL0     H27107  -1.508   2.074  -0.662 -0.2855  1.0647  0.6009
  201MOL0     H27108  -1.518   1.913  -0.587  3.6227 -0.6559  0.3111
  201MOL0     H27109  -1.619   2.011  -0.387 -2.3425 -1.9217 -0.8458
  201MOL0     H27110  -1.719   2.024  -0.522 -0.6250  1.4300  0.9851
  201MOL0     H27111  -1.717   2.249  -0.394 -2.2522  1.0891 -2.1136
  201MOL0     H27112  -1.539   2.256  -0.431  0.0860 -2.2031 -1.9439
  201MOL0     H27113  -1.770   2.244  -0.620  0.5224 -1.1008 -0.5435
  201MOL0     H27114  -1.596   2.282  -0.667  0.0863 -0.8710  0.8717
  201MOL0     H27115  -1.733   2.498  -0.661 -1.1871 -0.5425  0.4224
  201MOL0     H27116  -1.597   2.493  -0.544 -0.4412  0.4152  1.8101
  201MOL0     H27117  -0.825   1.837  -0.699 -0.6794 -1.1770 -0.0613
  201MOL0     H27118  -0.580   1.862  -0.612  1.3160 -0.1735  1.9146
  201MOL0     H27119  -0.280   1.910  -0.375 -1.4087  0.2074 -1.8993
  201MOL0     H27120  -0.055   1.902  -0.301 -0.0762  0.8790  0.0951
  201MOL0     H27121   1.307   2.707   0.773  0.5489  0.6699  1.6395
  201MOL0     H27122   1.540   2.674   0.839  0.4654 -0.8981 -0.2208
  201MOL0     H27123   1.963   2.717   1.049  1.3956  0.9847  3.2895
  201MOL0     H27124   2.146   2.659   1.155 -2.8432  0.9238 -2.3646
  201MOL0     H27125   2.346   2.549   1.216  3.1826 -1.2573  0.2399
  201MOL0     H27126   2.255   2.536   1.371  1.1511 -0.8993  0.9635
  201MOL0     H27127   2.498   2.476   1.404  3.0070 -1.0632 -1.0027
  201MOL0     H27128   2.496   2.369   1.263 -0.1784 -0.3590  1.1304
  201MOL0     H27129   2.323   2.236   1.398 -1.5613  2.1093 -2.3522
  201MOL0     H27130   2.344   2.343   1.529 -0.4681 -1.0415 -0.1713
  201MOL0     H27131   2.554   2.167   1.397  3.2982 -0.1646  1.3653
  201MOL0     H27132   2.477   2.128   1.555  0.8187 -0.4797 -1.6149
  201MOL0     H27133   2.774   2.409   1.657  2.8558 -1.2506 -0.3556
  201MOL0     H27134   1.996   2.250   1.201  2.6996 -1.3503 -1.7140
  201MOL0     H27135   1.786   2.318   1.114  1.2573 -2.1199 -2.4098
  202MOL0     O27136   0.309  10.274   4.402  0.2588 -0.4552 -0.1548
  202MOL0     C27137   0.408  10.225   4.350  0.0462 -0.4233 -0.5237
  202MOL0     O27138   0.422  10.207   4.211 -0.4244  0.1779  0.2476
  202MOL0     C27139   0.319  10.216   4.119  0.1317 -0.4523  0.0721
  202MOL0     C27140   0.363  10.231   3.987  0.0193 -0.2949 -0.5511
  202MOL0     C27141   0.275  10.239   3.882  0.4528 -0.9183 -0.4753
  202MOL0     C27142   0.139  10.237   3.900 -0.6462  0.1575 -1.2705
  202MOL0     O27143   0.064  10.259   3.785 -0.2116  0.4092  0.1049
  202MOL0     C27144  -0.067  10.193   3.776  0.3857 -0.1487  0.4504
  202MOL0     C27145  -0.128  10.220   3.645  0.4874  0.6414 -0.1849
  202MOL0     C27146  -0.243  10.118   3.610  0.1516  0.7159 -0.1574
  202MOL0     C27147  -0.329  10.153   3.491 -0.6895  0.0251 -0.3075
  202MOL0     C27148  -0.426  10.034   3.473  0.1418 -0.5230  0.4644
  202MOL0     C27149  -0.452  10.012   3.325 -0.3628 -0.1377  0.0354
  202MOL0     C27150  -0.518  10.126   3.250 -0.3191 -0.4908  0.1504
  202MOL0     C27151  -0.650  10.177   3.307 -0.4205 -0.9118  0.3449
  202MOL0     N27152  -0.749  10.069   3.319 -0.0793 -0.4820  0.6952
  202MOL0     C27153  -0.864  10.061   3.235  0.9898  0.0470  0.0481
  202MOL0     C27154  -0.945   9.969   3.294  0.4050 -0.2303  0.0882
  202MOL0     C27155  -1.081   9.915   3.235 -1.3914 -0.2091  0.7366
  202MOL0     C27156  -1.122   9.768   3.252  0.3587 -0.3265  0.3756
  202MOL0     C27157  -1.145   9.727   3.393 -0.5129  0.1167  0.0523
  202MOL0     C27158  -1.253   9.614   3.406 -1.2459  0.4784 -0.4938
  202MOL0     O27159  -1.373   9.645   3.338  0.4970  0.1057 -0.6102
  202MOL0     C27160  -1.485   9.573   3.376  0.2831 -0.8425  0.6913
  202MOL0     C27161  -1.498   9.474   3.478  0.0932  1.4219  0.0248
  202MOL0     C27162  -1.622   9.415   3.501  0.7623  0.0635  0.7959
  202MOL0     C27163  -1.626   9.328   3.631  0.5719  0.1842  0.8195
  202MOL0     C27164  -1.736   9.436   3.417  0.4138  0.1921  0.3043
  202MOL0     C27165  -1.860   9.351   3.411 -0.5000  1.0796 -0.8215
  202MOL0     O27166  -1.848   9.219   3.434  1.0087  0.3355 -0.5752
  202MOL0     C27167  -1.965   9.146   3.474  0.3464 -0.6389  0.6250
  202MOL0     C27168  -1.999   9.025   3.414 -0.0849  0.4033  0.5073
  202MOL0     C27169  -2.125   8.961   3.439  0.3586 -0.1187  0.4220
  202MOL0     C27170  -2.214   9.021   3.527 -0.0276 -0.3296  0.9411
  202MOL0     O27171  -2.334   8.959   3.533  0.9956  0.7994 -0.0052
  202MOL0     C27172  -2.439   9.025   3.605  0.0304 -0.3126  0.1016
  202MOL0     C27173  -2.564   8.929   3.587 -0.8737 -0.4355 -0.3810
  202MOL0     C27174  -2.661   8.985   3.693 -0.3422 -0.0427 -0.6643
  202MOL0     C27175  -2.792   8.904   3.708 -0.2907 -0.7670 -0.2947
  202MOL0     C27176  -2.912   8.985   3.765  0.2876  0.4850  0.7345
  202MOL0     C27177  -3.038   8.905   3.758 -0.3531  0.7539 -0.8194
  202MOL0     C27178  -3.148   8.992   3.832  0.4172 -0.7059  0.1006
  202MOL0     C27179  -3.294   8.959   3.792  0.5393  0.3066  0.1085
  202MOL0    Cl27180  -3.336   8.788   3.804  0.0494 -0.1693  0.2922
  202MOL0     C27181  -2.175   9.122   3.610  0.1314 -0.2391 -0.0337
  202MOL0     C27182  -2.050   9.186   3.581 -0.5839  0.3684 -0.3041
  202MOL0     O27183  -1.960   9.400   3.366  0.3358 -0.6746 -0.3775
  202MOL0     C27184  -1.715   9.536   3.319 -0.2482 -0.7867  0.0878
  202MOL0     C27185  -1.598   9.605   3.301  0.3252 -0.1640  0.1400
  202MOL0     N27186  -0.888   9.925   3.412 -0.0448  0.1307  0.1273
  202MOL0     N27187  -0.777   9.994   3.424  0.3385 -0.3673 -0.2729
  202MOL0     C27188   0.095  10.226   4.030  0.2046  0.0936 -0.4981
  202MOL0     C27189   0.179  10.215   4.142  0.0217  0.1558 -0.0175
  202MOL0     C27190   0.503  10.170   4.448 -0.4951  0.1720  0.1455
  202MOL0     C27191   0.609  10.088   4.394 -0.9107  0.6542 -0.0092
  202MOL0     C27192   0.714  10.041   4.471 -0.2613  0.6249 -0.7364
  202MOL0     C27193   0.729  10.081   4.597 -0.2643  0.8984 -0.7787
  202MOL0     O27194   0.837  10.023   4.665 -0.3494 -0.6522  0.3170
  202MOL0     C27195   0.836  10.051   4.810  0.5635 -0.3311  0.6945
  202MOL0     C27196   0.932   9.953   4.881 -0.4731 -0.0790  1.0627
  202MOL0     C27197   0.889   9.812   4.831  0.7179  0.2571  0.0656
  202MOL0     C27198   0.913   9.698   4.942 -0.0529  0.6897  0.6068
  202MOL0     C27199   1.061   9.655   4.955  1.2444 -1.0295  0.1266
  202MOL0     C27200   1.172   9.621   4.976 -0.3466  0.4212  0.8813
  202MOL0     C27201   0.622  10.161   4.657 -0.2298 -0.3965 -0.2593
  202MOL0     C27202   0.512  10.214   4.582  0.0864 -0.1089 -0.3261
  202MOL0     H27203   0.468  10.237   3.959 -0.1474  2.6009 -0.9065
  202MOL0     H27204   0.313  10.240   3.780 -0.3542 -0.3419 -0.7796
  202MOL0     H27205  -0.061  10.084   3.781 -1.7813 -0.2432  2.4642
  202MOL0     H27206  -0.127  10.226   3.861  0.2332  0.7953 -0.0061
  202MOL0     H27207  -0.161  10.324   3.644  1.9015  1.1212 -0.2935
  202MOL0     H27208  -0.054  10.206   3.565 -0.1008 -1.9903 -0.3548
  202MOL0     H27209  -0.193  10.024   3.584  0.0004  1.1151 -2.0372
  202MOL0     H27210  -0.304  10.102   3.700  1.3945  0.2229  0.6250
  202MOL0     H27211  -0.383  10.246   3.513 -0.1938  0.1445  0.4488
  202MOL0     H27212  -0.263  10.162   3.405 -2.1561 -1.5382 -1.6557
  202MOL0     H27213  -0.387   9.939   3.510 -3.6940 -2.7597 -0.6460
  202MOL0     H27214  -0.524  10.056   3.515  1.1861  3.5423  1.2128
  202MOL0     H27215  -0.356   9.992   3.278  0.1638 -0.4065  1.1779
  202MOL0     H27216  -0.502   9.915   3.323  0.8635 -0.8683  1.8029
  202MOL0     H27217  -0.445  10.204   3.228 -0.6742  0.2621  1.4696
  202MOL0     H27218  -0.547  10.077   3.157  2.8860 -1.1010 -0.6265
  202MOL0     H27219  -0.704  10.244   3.239  0.2003 -1.3172 -0.5648
  202MOL0     H27220  -0.652  10.214   3.410  1.9299  1.2292 -0.2865
  202MOL0     H27221  -0.879  10.127   3.151 -0.2797 -1.1355 -0.6927
  202MOL0     H27222  -1.152   9.984   3.281 -2.8995 -0.5108 -1.0117
  202MOL0     H27223  -1.082   9.943   3.129 -3.9844 -0.7103  0.5635
  202MOL0     H27224  -1.042   9.703   3.214 -0.9541 -0.8376 -1.6727
  202MOL0     H27225  -1.209   9.745   3.190  0.0068 -0.7164  1.0211
  202MOL0     H27226  -1.192   9.805   3.454 -0.5398  1.0863 -1.1557
  202MOL0     H27227  -1.049   9.694   3.435  0.2831  0.3690 -1.4935
  202MOL0     H27228  -1.265   9.606   3.515  0.4181  1.1285 -0.2226
  202MOL0     H27229  -1.203   9.522   3.374 -0.9844  0.4830 -0.1149
  202MOL0     H27230  -1.412   9.461   3.543  1.8157  0.3686 -2.3205
  202MOL0     H27231  -1.558   9.245   3.611  0.8669  0.7103 -0.4856
  202MOL0     H27232  -1.584   9.366   3.724 -2.3873  0.1081  2.2928
  202MOL0     H27233  -1.726   9.302   3.666 -0.6088  3.5504  0.3759
  202MOL0     H27234  -1.940   8.983   3.333 -2.7054 -0.2046 -1.1908
  202MOL0     H27235  -2.161   8.873   3.386 -1.0799  2.1120 -2.5866
  202MOL0     H27236  -2.423   9.055   3.709  0.2165  0.3929 -0.1249
  202MOL0     H27237  -2.461   9.118   3.552 -2.7553 -1.6883 -1.3502
  202MOL0     H27238  -2.608   8.947   3.488 -0.1443 -0.1445 -0.6626
  202MOL0     H27239  -2.551   8.823   3.607 -3.5739 -0.7435  0.0760
  202MOL0     H27240  -2.705   9.081   3.664 -1.2826 -0.3059 -0.1481
  202MOL0     H27241  -2.608   8.988   3.789  2.1374 -1.8537 -1.8625
  202MOL0     H27242  -2.805   8.855   3.610 -1.4308 -0.1634 -0.4602
  202MOL0     H27243  -2.777   8.820   3.777  2.4992  0.9070  1.3209
  202MOL0     H27244  -2.928   9.072   3.701 -2.7169 -0.8418 -0.4917
  202MOL0     H27245  -2.892   9.018   3.868  0.2366  0.5057  0.7373
  202MOL0     H27246  -3.061   8.880   3.654 -1.9442 -2.0566  0.1103
  202MOL0     H27247  -3.022   8.812   3.813 -1.6177 -0.0642 -1.7882
  202MOL0     H27248  -3.138   9.100   3.814 -1.7559 -0.7087 -1.6216
  202MOL0     H27249  -3.144   8.981   3.941 -2.6582 -3.2703  0.1231
  202MOL0     H27250  -3.299   8.990   3.687  0.7676 -3.8352 -1.3002
  202MOL0     H27251  -3.369   9.015   3.847  0.9816  0.9097  0.1046
  202MOL0     H27252  -2.240   9.167   3.685 -0.0966  0.6946 -0.7825
  202MOL0     H27253  -2.019   9.270   3.642  2.5208  0.9196 -2.4241
  202MOL0     H27254  -1.793   9.557   3.247  1.4558  1.1335 -1.2967
  202MOL0     H27255  -1.590   9.680   3.223  2.2473  0.8222  1.2216
  202MOL0     H27256  -0.013  10.228   4.045 -0.1162  0.1928 -2.5877
  202MOL0     H27257   0.132  10.201   4.239  1.5714  0.5981  0.8452
  202MOL0     H27258   0.604  10.060   4.289 -0.9845  3.1432 -0.7234
  202MOL0     H27259   0.793   9.983   4.426 -0.1532  1.6635 -1.9353
  202MOL0     H27260   0.862  10.155   4.833 -1.2713  0.1749  0.6699
  202MOL0     H27261   0.741  10.024   4.856 -0.6703 -0.2227 -1.6399
  202MOL0     H27262   0.917   9.964   4.989 -0.9498  2.9689  0.7536
  202MOL0     H27263   1.035   9.958   4.845 -1.3318 -1.2894 -1.7915
  202MOL0     H27264   0.950   9.795   4.741 -1.3816  2.7404 -1.9894
  202MOL0     H27265   0.789   9.810   4.787 -0.0423 -1.3032  1.7674
  202MOL0     H27266   0.845   9.613   4.926 -0.8916  1.1045  1.8083
  202MOL0     H27267   0.887   9.734   5.042 -1.7379 -1.1246  0.9050
  202MOL0     H27268   1.268   9.581   5.001 -0.3904 -0.0338  0.3416
  202MOL0     H27269   0.628  10.194   4.760  1.7622 -1.4370  0.0156
  202MOL0     H27270   0.451  10.292   4.627 -1.9896 -2.5410  1.4376
  203MOL0     O27271   2.978  10.947  11.031 -0.2992 -0.5911 -0.2047
  203MOL0     C27272   2.983  10.871  10.935 -0.9618  0.8873  0.0264
  203MOL0     O27273   2.877  10.813  10.876  0.2412 -0.0193  0.5740
  203MOL0     C27274   2.748  10.853  10.885  0.9157 -0.0379  0.4454
  203MOL0     C27275   2.644  10.763  10.856 -0.8954 -0.2434 -0.3967
  203MOL0     C27276   2.508  10.793  10.869 -0.9597  0.2177  0.2048
  203MOL0     C27277   2.467  10.924  10.890  0.7196 -0.2461  0.6140
  203MOL0     O27278   2.327  10.948  10.894 -0.2861  0.4613 -0.1648
  203MOL0     C27279   2.282  11.086  10.910  0.1974  0.2834 -0.3902
  203MOL0     C27280   2.129  11.095  10.894 -0.0755 -0.0796  0.0912
  203MOL0     C27281   2.068  11.216  10.949 -0.9130  0.1309  0.0607
  203MOL0     C27282   1.920  11.241  10.901  0.1324 -1.2924  0.3444
  203MOL0     C27283   1.844  11.328  11.007 -0.6154  0.2249 -0.3895
  203MOL0     C27284   1.702  11.356  10.955  0.1138 -0.5361  0.8658
  203MOL0     C27285   1.619  11.434  11.060  0.0260 -0.6819  1.0786
  203MOL0     C27286   1.468  11.423  11.012 -0.1682  0.5322  0.3322
  203MOL0     N27287   1.393  11.462  11.137 -0.1742  0.0210  0.8498
  203MOL0     C27288   1.369  11.586  11.186  0.5869 -0.0548 -0.3337
  203MOL0     C27289   1.290  11.565  11.290  0.4379  0.9138 -0.7321
  203MOL0     C27290   1.221  11.666  11.383  0.6183  0.4764  0.5540
  203MOL0     C27291   1.083  11.686  11.324  0.0905  0.2013  0.0435
  203MOL0     C27292   0.996  11.756  11.440 -0.4397  1.3002 -0.2233
  203MOL0     C27293   0.865  11.779  11.383  0.0080  0.2800  0.1037
  203MOL0     O27294   0.879  11.892  11.293 -0.1373 -0.4782 -0.8632
  203MOL0     C27295   0.771  11.980  11.273  0.2811  0.1553  0.0330
  203MOL0     C27296   0.792  12.116  11.252 -0.1816 -0.2312  0.0278
  203MOL0     C27297   0.691  12.211  11.249  0.8990 -0.1158 -0.4579
  203MOL0     C27298   0.738  12.353  11.232  0.2960 -1.0846  0.2828
  203MOL0     C27299   0.548  12.161  11.254 -0.2541  0.2341 -0.4754
  203MOL0     C27300   0.429  12.241  11.227 -0.9146  0.1290  0.0279
  203MOL0     O27301   0.316  12.192  11.268  0.6173  0.4230  0.6818
  203MOL0     C27302   0.193  12.251  11.228 -0.3945 -0.7484 -0.5653
  203MOL0     C27303   0.122  12.337  11.321  0.2369 -0.3376  0.1082
  203MOL0     C27304   0.010  12.412  11.281 -1.1714  0.0370  0.4456
  203MOL0     C27305  -0.056  12.367  11.164  0.0752 -0.5951 -0.1650
  203MOL0     O27306  -0.167  12.437  11.124 -0.2315 -0.2209 -0.3708
  203MOL0     C27307  -0.287  12.366  11.137  0.1847  0.8455 -0.0574
  203MOL0     C27308  -0.358  12.368  10.993 -0.6088 -0.1820 -0.9730
  203MOL0     C27309  -0.483  12.279  10.981 -0.0490 -0.0562  0.3330
  203MOL0     C27310  -0.605  12.317  11.067 -0.0238 -0.2798 -0.4395
  203MOL0     C27311  -0.666  12.453  11.044 -0.4280  0.1314 -0.0088
  203MOL0     C27312  -0.762  12.511  11.141  0.7082 -0.2101 -0.1568
  203MOL0     C27313  -0.857  12.417  11.218  0.2431  0.4254 -0.3233
  203MOL0     C27314  -0.959  12.500  11.281 -0.0171 -0.7176  0.0380
  203MOL0    Cl27315  -1.062  12.398  11.384 -0.5853  0.1167 -0.3176
  203MOL0     C27316   0.007  12.278  11.074 -0.9149 -0.1829  0.2519
  203MOL0     C27317   0.125  12.210  11.108 -0.3221 -1.1357  0.1227
  203MOL0     O27318   0.448  12.354  11.182 -0.4554 -0.0877  0.3739
  203MOL0     C27319   0.534  12.025  11.276  0.4133 -0.6854  0.4988
  203MOL0     C27320   0.639  11.937  11.277 -0.6007  0.4727 -0.5742
  203MOL0     N27321   1.278  11.428  11.305  0.6709  0.6705  0.0163
  203MOL0     N27322   1.331  11.363  11.212  0.0577 -0.2418  0.1391
  203MOL0     C27323   2.563  11.015  10.911 -0.6210 -0.6668 -0.1313
  203MOL0     C27324   2.700  10.986  10.915  0.0239 -0.0526 -0.3629
  203MOL0     C27325   3.119  10.851  10.870 -0.2048  0.1211  0.4060
  203MOL0     C27326   3.147  10.739  10.778 -0.0759 -0.0553 -0.6955
  203MOL0     C27327   3.279  10.728  10.723  0.1672  0.1916 -0.7876
  203MOL0     C27328   3.375  10.815  10.762 -0.4650  0.2469  1.0171
  203MOL0     O27329   3.498  10.786  10.711  0.5064 -0.1831 -0.1927
  203MOL0     C27330   3.611  10.851  10.769 -0.5068  0.9849  0.1104
  203MOL0     C27331   3.729  10.794  10.701 -0.5789 -0.2088 -0.2266
  203MOL0     C27332   3.738  10.848  10.551  0.6729  0.3201  0.1798
  203MOL0     C27333   3.838  10.758  10.480  0.1488  0.0863  0.1641
  203MOL0     C27334   3.972  10.778  10.529  0.0583 -0.4979 -0.6077
  203MOL0     C27335   4.084  10.782  10.580  0.4699  0.0318  0.8661
  203MOL0     C27336   3.345  10.917  10.846  0.7893  0.4146 -0.4408
  203MOL0     C27337   3.224  10.938  10.897  0.8004 -0.6765  0.3323
  203MOL0     H27338   2.659  10.658  10.833 -2.5545 -0.6557  0.2698
  203MOL0     H27339   2.446  10.704  10.871  1.0133 -1.2171 -0.0150
  203MOL0     H27340   2.314  11.125  11.007 -1.8817 -0.1856  0.5491
  203MOL0     H27341   2.324  11.147  10.829  1.4097  0.2115  0.1599
  203MOL0     H27342   2.105  11.086  10.787 -2.7365 -1.4126  0.7046
  203MOL0     H27343   2.083  11.009  10.944  1.2145  0.6251  2.6203
  203MOL0     H27344   2.083  11.206  11.057  0.2879  0.4807 -0.0543
  203MOL0     H27345   2.124  11.303  10.913 -1.6397  0.0869 -1.2286
  203MOL0     H27346   1.936  11.304  10.813  0.2219 -2.0387 -0.1858
  203MOL0     H27347   1.868  11.152  10.865 -2.3433  0.4064 -0.5264
  203MOL0     H27348   1.831  11.274  11.101 -0.3341  0.8117 -0.0082
  203MOL0     H27349   1.912  11.413  11.015 -1.2809  0.8070 -0.7779
  203MOL0     H27350   1.715  11.412  10.862 -1.2941 -1.3464  0.1587
  203MOL0     H27351   1.651  11.261  10.937  1.8854 -1.0681 -1.9718
  203MOL0     H27352   1.633  11.392  11.159  0.4653 -3.7135 -0.1473
  203MOL0     H27353   1.653  11.537  11.053  0.9958 -1.0879 -1.7564
  203MOL0     H27354   1.442  11.322  10.981  2.1940 -0.3268  0.9490
  203MOL0     H27355   1.454  11.484  10.922 -1.7636  1.7303  1.3390
  203MOL0     H27356   1.392  11.684  11.145  0.8724  0.1202  0.2451
  203MOL0     H27357   1.208  11.625  11.483 -1.3888 -1.0569 -0.2546
  203MOL0     H27358   1.277  11.759  11.393  0.2790  1.1669 -2.7560
  203MOL0     H27359   1.041  11.590  11.293  2.2582 -0.9430  0.4871
  203MOL0     H27360   1.083  11.748  11.234 -2.6905 -0.3210 -0.4007
  203MOL0     H27361   1.046  11.847  11.475  1.3374  0.5234 -0.6276
  203MOL0     H27362   0.991  11.688  11.526 -1.3224  3.1540  1.2745
  203MOL0     H27363   0.781  11.814  11.444 -1.6043 -1.3196 -1.0779
  203MOL0     H27364   0.829  11.694  11.324 -0.4974  0.7069 -0.2158
  203MOL0     H27365   0.897  12.144  11.253 -0.0304 -0.7723  0.8287
  203MOL0     H27366   0.845  12.368  11.249  0.0928 -0.9034  1.5394
  203MOL0     H27367   0.713  12.375  11.128 -1.0611  1.5910  1.0603
  203MOL0     H27368   0.680  12.408  11.307  0.1450 -2.5159  1.2429
  203MOL0     H27369   0.178  12.372  11.407 -2.0938  0.2670  1.4530
  203MOL0     H27370  -0.031  12.494  11.338 -1.5886 -0.5526  0.9988
  203MOL0     H27371  -0.280  12.262  11.169 -1.0949  0.5054 -0.7804
  203MOL0     H27372  -0.352  12.422  11.205  0.5390  1.6729 -0.3816
  203MOL0     H27373  -0.385  12.470  10.964 -0.3669 -0.0113 -0.6085
  203MOL0     H27374  -0.289  12.323  10.922  1.8985  1.2044  0.4499
  203MOL0     H27375  -0.450  12.176  10.994  0.2541 -0.1600 -1.0986
  203MOL0     H27376  -0.523  12.278  10.880  2.0722  0.4437 -0.5682
  203MOL0     H27377  -0.686  12.247  11.047  0.1671 -1.4886  2.5496
  203MOL0     H27378  -0.582  12.307  11.173 -1.8769 -2.9262 -0.2134
  203MOL0     H27379  -0.712  12.445  10.945 -0.4687 -4.6298  0.1736
  203MOL0     H27380  -0.593  12.534  11.033 -0.3196  0.3229  1.7709
  203MOL0     H27381  -0.708  12.573  11.213 -0.3738 -0.6183  1.0462
  203MOL0     H27382  -0.822  12.584  11.085  0.9217 -0.2478 -0.4351
  203MOL0     H27383  -0.804  12.350  11.286 -0.4932 -0.3389 -0.4784
  203MOL0     H27384  -0.909  12.348  11.150 -1.3214  1.0965  0.1500
  203MOL0     H27385  -1.015  12.557  11.206 -1.1971 -2.5812 -0.5656
  203MOL0     H27386  -0.901  12.565  11.347 -0.0836 -0.5620 -0.0559
  203MOL0     H27387  -0.036  12.249  10.978 -0.1433 -2.8488  0.6394
  203MOL0     H27388   0.176  12.139  11.044  3.0222  2.1870 -1.2933
  203MOL0     H27389   0.434  11.986  11.291 -0.4161  0.7391 -0.9700
  203MOL0     H27390   0.621  11.830  11.286  0.4289  0.4052  1.2663
  203MOL0     H27391   2.547  11.119  10.935  3.0584  0.1633 -0.6262
  203MOL0     H27392   2.766  11.061  10.959 -2.2471  1.2141  1.0805
  203MOL0     H27393   3.069  10.673  10.742  0.2362 -0.8250  0.0153
  203MOL0     H27394   3.302  10.652  10.649  0.4997  1.3797 -1.9388
  203MOL0     H27395   3.604  10.960  10.771  0.2937  1.0791 -1.3908
  203MOL0     H27396   3.624  10.822  10.874  2.0759 -3.4167 -1.1996
  203MOL0     H27397   3.727  10.684  10.700  1.9049 -0.2964 -1.1278
  203MOL0     H27398   3.819  10.829  10.752 -0.3301  0.8439 -1.3508
  203MOL0     H27399   3.757  10.956  10.550 -1.3488  0.7062 -0.2075
  203MOL0     H27400   3.644  10.832  10.498 -1.3554  2.9930  2.6629
  203MOL0     H27401   3.849  10.787  10.375 -1.3740 -0.8638 -0.2928
  203MOL0     H27402   3.807  10.653  10.478  1.3994 -0.3037  0.1107
  203MOL0     H27403   4.180  10.789  10.625  0.7674 -0.9848  0.4193
  203MOL0     H27404   3.425  10.983  10.880  0.0999 -0.0527  2.3216
  203MOL0     H27405   3.203  11.011  10.973  1.0604 -1.8161  1.5321
  204MOL0     O27406  10.169  10.238  10.473  0.3195 -0.9880 -0.5013
  204MOL0     C27407  10.202  10.353  10.475  0.3264 -0.0569 -0.9269
  204MOL0     O27408  10.124  10.460  10.468  0.3238  0.1555 -0.5293
  204MOL0     C27409   9.985  10.442  10.475  0.2659 -0.2627  0.0104
  204MOL0     C27410   9.910  10.356  10.397 -0.0024  0.3400  0.7377
  204MOL0     C27411   9.775  10.331  10.416 -0.6884  0.0013 -0.3110
  204MOL0     C27412   9.698  10.400  10.513 -0.1504 -0.0911 -0.5176
  204MOL0     O27413   9.567  10.385  10.544  0.2434  0.3354 -0.0847
  204MOL0     C27414   9.486  10.312  10.443  0.0535  0.2361  0.6855
  204MOL0     C27415   9.343  10.302  10.500 -0.5060 -0.8109  0.5878
  204MOL0     C27416   9.257  10.245  10.401 -0.4636  0.2643 -0.0907
  204MOL0     C27417   9.112  10.245  10.443 -0.7487  0.0688  0.4997
  204MOL0     C27418   9.011  10.164  10.353 -0.4871 -0.4802  0.0689
  204MOL0     C27419   8.873  10.155  10.417  0.1213  0.6559 -0.4217
  204MOL0     C27420   8.763  10.119  10.318 -0.9228 -0.3094  0.3584
  204MOL0     C27421   8.627  10.109  10.380  0.9658 -1.1260  0.3870
  204MOL0     N27422   8.519  10.088  10.284  0.3351 -0.5569  0.8867
  204MOL0     C27423   8.489   9.970  10.225  0.9738 -0.3490 -0.2552
  204MOL0     C27424   8.381   9.989  10.146  0.4103  0.4447  0.0795
  204MOL0     C27425   8.307   9.882  10.071 -0.1238 -0.1246 -0.0803
  204MOL0     C27426   8.212   9.809  10.165 -0.0992 -1.0148  0.6226
  204MOL0     C27427   8.141   9.705  10.088 -0.1591  0.4726 -0.6976
  204MOL0     C27428   8.005   9.654  10.148 -0.0106  0.3008 -0.4594
  204MOL0     O27429   7.940   9.762  10.214  1.1927 -0.3858  0.1272
  204MOL0     C27430   7.813   9.736  10.254 -0.3662 -0.1010 -1.0380
  204MOL0     C27431   7.759   9.610  10.285 -0.4578  0.5299 -0.2647
  204MOL0     C27432   7.630   9.589  10.333 -0.4540  0.1399  0.4111
  204MOL0     C27433   7.590   9.441  10.346  0.1562  0.5636 -0.2479
  204MOL0     C27434   7.545   9.701  10.364  0.3163  0.4385  0.2696
  204MOL0     C27435   7.408   9.690  10.429 -0.0184 -0.6123  0.8841
  204MOL0     O27436   7.359   9.808  10.480  0.0357  0.1313 -0.5444
  204MOL0     C27437   7.230   9.806  10.514  1.4402  0.9558 -0.6913
  204MOL0     C27438   7.116   9.832  10.434  0.5489  0.1210  0.6741
  204MOL0     C27439   6.985   9.831  10.484 -0.0857  0.3031  0.8534
  204MOL0     C27440   6.953   9.806  10.609 -0.3805 -0.1967 -0.1536
  204MOL0     O27441   6.827   9.792  10.664 -0.2399 -0.8038 -0.5187
  204MOL0     C27442   6.713   9.765  10.581  0.2776 -0.1829  0.2550
  204MOL0     C27443   6.594   9.771  10.673  0.3099  0.0682  0.0915
  204MOL0     C27444   6.483   9.672  10.626 -0.1646  0.5347 -1.0458
  204MOL0     C27445   6.349   9.698  10.702 -0.5757 -0.5039 -0.5392
  204MOL0     C27446   6.262   9.582  10.694  0.0805 -0.5539 -0.5281
  204MOL0     C27447   6.134   9.591  10.781 -0.3724  0.0418 -0.0748
  204MOL0     C27448   6.071   9.457  10.781 -0.2273  0.2316  0.2894
  204MOL0     C27449   5.928   9.476  10.834  0.3340  0.3006 -0.1676
  204MOL0    Cl27450   5.823   9.544  10.714 -0.0273  0.1923 -0.2381
  204MOL0     C27451   7.063   9.784  10.693  0.3090 -0.8813  0.4314
  204MOL0     C27452   7.198   9.781  10.645  0.1494  0.1581 -0.2637
  204MOL0     O27453   7.341   9.589  10.416 -0.2847  0.5521 -0.2502
  204MOL0     C27454   7.607   9.831  10.348  0.5400  0.3127 -0.4001
  204MOL0     C27455   7.736   9.847  10.287  1.0374  0.8336  0.1718
  204MOL0     N27456   8.345  10.122  10.154  0.1688  0.3423 -0.1759
  204MOL0     N27457   8.432  10.180  10.236  0.3853 -0.7762  0.7810
  204MOL0     C27458   9.767  10.510  10.568  0.2363 -0.2077 -0.4185
  204MOL0     C27459   9.908  10.519  10.563 -0.1699 -1.1930  0.4782
  204MOL0     C27460  10.347  10.377  10.497  0.6021  0.2757  1.2320
  204MOL0     C27461  10.438  10.277  10.471  0.5579  1.0916  0.2634
  204MOL0     C27462  10.577  10.306  10.479 -0.3083 -0.3922  0.0612
  204MOL0     C27463  10.623  10.442  10.509 -1.1222 -0.1694  0.5006
  204MOL0     O27464  10.762  10.450  10.508 -0.2130 -0.3646 -0.9962
  204MOL0     C27465  10.822  10.580  10.538 -0.6969  0.2574 -0.6042
  204MOL0     C27466  10.837  10.672  10.424  0.3171  0.3702  0.7448
  204MOL0     C27467  10.931  10.611  10.316 -0.1343  1.1828  0.0801
  204MOL0     C27468  10.974  10.700  10.206 -0.6662  0.0401 -0.6694
  204MOL0     C27469  10.862  10.768  10.139 -0.0056 -0.4281 -1.2550
  204MOL0     C27470  10.774  10.832  10.087  0.5883  0.3675 -0.0008
  204MOL0     C27471  10.527  10.539  10.525 -0.2101  0.1197  0.4080
  204MOL0     C27472  10.392  10.508  10.524  0.1666  0.2862  0.6296
  204MOL0     H27473   9.947  10.307  10.308  1.5076  0.2501  1.3915
  204MOL0     H27474   9.737  10.248  10.358 -0.4400  1.5366 -2.8229
  204MOL0     H27475   9.484  10.356  10.343  4.1969 -1.7714 -0.4980
  204MOL0     H27476   9.529  10.213  10.427 -1.7699 -0.7570  1.6415
  204MOL0     H27477   9.335  10.241  10.590 -0.6498 -1.3727  0.1991
  204MOL0     H27478   9.314  10.405  10.522  1.5923  0.0895 -0.5494
  204MOL0     H27479   9.269  10.292  10.303  0.7602 -0.1511 -0.1591
  204MOL0     H27480   9.293  10.142  10.390  0.3145  0.6175 -0.9982
  204MOL0     H27481   9.111  10.214  10.548  0.6673 -1.7259  0.0449
  204MOL0     H27482   9.075  10.347  10.446 -0.6795  0.0938  3.1464
  204MOL0     H27483   9.016  10.212  10.255 -1.1629  1.6707  1.0195
  204MOL0     H27484   9.047  10.062  10.337  2.5540  0.2201  1.5017
  204MOL0     H27485   8.872  10.088  10.504  1.1546  0.1235 -0.8080
  204MOL0     H27486   8.848  10.256  10.449 -0.8556  0.4839 -0.6184
  204MOL0     H27487   8.756  10.191  10.236 -1.7933 -1.5972 -0.7293
  204MOL0     H27488   8.785  10.021  10.275  1.8766 -0.7143  2.3992
  204MOL0     H27489   8.603  10.202  10.432 -0.6721 -1.4210  0.2393
  204MOL0     H27490   8.612  10.036  10.460 -2.8534 -0.6944  0.2846
  204MOL0     H27491   8.550   9.881  10.230  2.2432  0.1075 -4.3070
  204MOL0     H27492   8.257   9.935   9.990 -2.0058 -0.7649  0.6258
  204MOL0     H27493   8.378   9.810  10.028  0.9508  1.6259 -1.3614
  204MOL0     H27494   8.148   9.887  10.207 -1.5380 -0.5796 -2.1472
  204MOL0     H27495   8.269   9.760  10.244  0.5798  1.3176  1.6904
  204MOL0     H27496   8.210   9.623  10.068  2.8604  2.7387 -0.2809
  204MOL0     H27497   8.106   9.759  10.000 -0.1316  1.5366 -0.0793
  204MOL0     H27498   8.037   9.585  10.226  2.5211  1.0936 -0.6904
  204MOL0     H27499   7.935   9.604  10.080 -0.3707 -0.2755  0.3219
  204MOL0     H27500   7.829   9.529  10.264 -2.2514 -1.4818  1.1521
  204MOL0     H27501   7.530   9.417  10.257 -1.0715 -0.2361  0.7729
  204MOL0     H27502   7.672   9.370  10.356  1.2150  0.9724 -4.2129
  204MOL0     H27503   7.521   9.424  10.429 -0.0901  0.2303 -0.5176
  204MOL0     H27504   7.127   9.849  10.327 -1.5323 -1.2259  0.1851
  204MOL0     H27505   6.899   9.849  10.420 -0.6030  1.7418  1.9046
  204MOL0     H27506   6.699   9.837  10.500  1.4413 -1.6890 -1.3355
  204MOL0     H27507   6.728   9.668  10.533 -0.4931  0.5403 -1.5578
  204MOL0     H27508   6.622   9.743  10.775  1.5699 -2.0673 -0.7649
  204MOL0     H27509   6.542   9.866  10.687 -0.6524 -0.5545  0.8918
  204MOL0     H27510   6.524   9.572  10.641  0.8181  1.2260  1.5031
  204MOL0     H27511   6.456   9.681  10.520 -1.7921 -1.1940 -0.8241
  204MOL0     H27512   6.373   9.710  10.808 -1.4691  1.9354 -0.5412
  204MOL0     H27513   6.299   9.788  10.665  1.7175 -0.0025 -2.7343
  204MOL0     H27514   6.307   9.489  10.728 -0.8485 -0.5100  0.8819
  204MOL0     H27515   6.246   9.562  10.587  0.3343  0.1799 -0.7146
  204MOL0     H27516   6.162   9.618  10.883  2.9704 -1.1152 -0.5334
  204MOL0     H27517   6.065   9.664  10.738  0.1072  0.5160 -0.0519
  204MOL0     H27518   6.121   9.382  10.843  0.1778 -0.2474 -0.6008
  204MOL0     H27519   6.077   9.411  10.682  1.0290 -0.5986  0.7326
  204MOL0     H27520   5.934   9.538  10.924 -0.5929  0.9900 -0.5552
  204MOL0     H27521   5.882   9.382  10.867  3.7349 -0.7401  2.2133
  204MOL0     H27522   7.046   9.755  10.797 -1.4206 -2.2047 -0.1714
  204MOL0     H27523   7.279   9.756  10.712 -1.8636 -2.8036  1.3055
  204MOL0     H27524   7.554   9.923  10.370 -3.9001 -2.0764  0.1857
  204MOL0     H27525   7.781   9.941  10.258  1.2747  1.4399  2.3630
  204MOL0     H27526   9.713  10.578  10.634 -0.5669 -0.0171 -1.2667
  204MOL0     H27527   9.965  10.597  10.614 -2.0684 -0.2062  1.1692
  204MOL0     H27528  10.406  10.174  10.460 -2.5017  2.0369 -0.7745
  204MOL0     H27529  10.651  10.226  10.481 -1.2097 -1.3258 -1.4777
  204MOL0     H27530  10.762  10.629  10.615 -1.8430 -1.2859 -0.4619
  204MOL0     H27531  10.920  10.561  10.584 -0.9929  3.4520  1.6782
  204MOL0     H27532  10.874  10.770  10.457  3.9733 -1.0378  1.2463
  204MOL0     H27533  10.736  10.689  10.385 -1.1745 -3.9300  2.1768
  204MOL0     H27534  10.886  10.534  10.252  0.1390  1.2551 -0.2038
  204MOL0     H27535  11.023  10.566  10.354  1.8819  2.8485 -2.3956
  204MOL0     H27536  11.025  10.637  10.132 -0.3676  0.2617 -0.6536
  204MOL0     H27537  11.048  10.774  10.236  0.7089 -1.7400  0.5042
  204MOL0     H27538  10.700  10.892  10.037 -3.8158 -3.3282  1.3810
  204MOL0     H27539  10.552  10.644  10.534 -1.5057  0.2835  4.5409
  204MOL0     H27540  10.320  10.589  10.536 -0.3558 -0.1153  0.2454
  205MOL0     O27541   4.653   0.096   4.280 -0.7390  0.1252 -0.0441
  205MOL0     C27542   4.663   0.139   4.164  0.2952  0.0267 -0.2386
  205MOL0     O27543   4.554   0.181   4.086  0.3349 -0.6382  0.1427
  205MOL0     C27544   4.427   0.151   4.117 -0.2939  0.2237  0.5286
  205MOL0     C27545   4.340   0.228   4.039 -0.1001 -1.4011 -0.7068
  205MOL0     C27546   4.196   0.212   4.054 -0.2797  0.0260  1.2749
  205MOL0     C27547   4.138   0.118   4.132 -0.6564 -0.2215 -0.2159
  205MOL0     O27548   3.999   0.110   4.140 -0.7105  1.2812  0.3040
  205MOL0     C27549   3.935  -0.015   4.185 -0.2143 -0.4984 -0.0820
  205MOL0     C27550   3.792  -0.025   4.137  0.2984 -0.5199  0.1034
  205MOL0     C27551   3.716  -0.132   4.208 -0.4726 -0.1919  0.4507
  205MOL0     C27552   3.575  -0.147   4.151  0.9023 -0.1848  0.2434
  205MOL0     C27553   3.485  -0.230   4.245  0.1553  0.1235 -0.1139
  205MOL0     C27554   3.355  -0.272   4.180 -0.5658 -0.0457 -0.3535
  205MOL0     C27555   3.273  -0.360   4.270  0.1508 -0.0643 -0.7715
  205MOL0     C27556   3.162  -0.421   4.190 -0.8626 -0.9602  0.2043
  205MOL0     N27557   3.083  -0.489   4.289 -0.3115  0.1696  0.0001
  205MOL0     C27558   2.958  -0.445   4.328  0.3187 -0.5743 -0.7163
  205MOL0     C27559   2.902  -0.544   4.397 -0.6406  0.1992 -0.4446
  205MOL0     C27560   2.770  -0.531   4.467 -0.6719 -0.5249 -0.2118
  205MOL0     C27561   2.656  -0.504   4.364 -0.1272 -0.0978  0.1898
  205MOL0     C27562   2.636  -0.626   4.272 -0.1436  0.1890 -0.1228
  205MOL0     C27563   2.701  -0.604   4.131 -0.2460  0.4665 -0.0842
  205MOL0     O27564   2.687  -0.721   4.046 -0.6857 -0.3168  0.1110
  205MOL0     C27565   2.579  -0.719   3.958  0.8983 -0.0362 -0.1090
  205MOL0     C27566   2.581  -0.794   3.843 -0.3580  0.2254 -0.4927
  205MOL0     C27567   2.472  -0.792   3.752  0.0754 -0.3151  0.2339
  205MOL0     C27568   2.484  -0.870   3.624 -0.0280  0.4532  0.8080
  205MOL0     C27569   2.354  -0.720   3.783  0.5062  0.4851  0.4719
  205MOL0     C27570   2.237  -0.718   3.688 -0.9409  1.2495  0.5344
  205MOL0     O27571   2.148  -0.630   3.731 -0.2286 -0.4794 -0.8624
  205MOL0     C27572   2.030  -0.604   3.665  0.1544  0.0277  0.2967
  205MOL0     C27573   1.982  -0.471   3.645  0.0161  0.5530 -0.4068
  205MOL0     C27574   1.866  -0.450   3.569  0.2569  0.1473  0.1595
  205MOL0     C27575   1.794  -0.558   3.514 -0.2658  0.3857  0.2059
  205MOL0     O27576   1.686  -0.534   3.442 -0.0242 -0.3204  0.3979
  205MOL0     C27577   1.624  -0.636   3.369 -0.8222  0.0870  0.3784
  205MOL0     C27578   1.528  -0.566   3.267  0.2001 -0.1374  0.0608
  205MOL0     C27579   1.443  -0.671   3.202 -0.5897 -0.9401 -0.7227
  205MOL0     C27580   1.349  -0.597   3.099  0.7505  0.7056  0.3428
  205MOL0     C27581   1.259  -0.688   3.019 -0.0173  1.2907 -0.5565
  205MOL0     C27582   1.160  -0.602   2.937  0.1920  0.7581  0.5868
  205MOL0     C27583   1.072  -0.689   2.847 -0.2645  0.1321 -0.1886
  205MOL0     C27584   0.948  -0.612   2.783  0.1355 -0.0712  0.1960
  205MOL0    Cl27585   0.821  -0.573   2.892 -0.0350  0.2877 -0.0102
  205MOL0     C27586   1.834  -0.693   3.547 -0.3853  0.7496  0.5093
  205MOL0     C27587   1.956  -0.711   3.615  0.1085  0.5104 -0.4850
  205MOL0     O27588   2.226  -0.788   3.582 -0.0236 -0.0797 -0.4091
  205MOL0     C27589   2.351  -0.655   3.910  0.1002  0.1266 -0.9942
  205MOL0     C27590   2.457  -0.651   3.993 -0.0362 -0.1392  0.0212
  205MOL0     N27591   2.982  -0.657   4.385 -0.2080  0.0637 -0.5434
  205MOL0     N27592   3.095  -0.622   4.320 -0.1040 -0.5474  0.1483
  205MOL0     C27593   4.232   0.033   4.195 -0.2296  0.5574 -0.5150
  205MOL0     C27594   4.372   0.047   4.184 -0.4234  0.3813 -0.1968
  205MOL0     C27595   4.799   0.129   4.094  0.0083 -1.1156  0.3696
  205MOL0     C27596   4.908   0.060   4.150 -0.6030 -0.0706 -0.8339
  205MOL0     C27597   5.026   0.060   4.075 -0.3133  0.0329  1.3046
  205MOL0     C27598   5.053   0.138   3.957  0.2113  0.7430  0.6187
  205MOL0     O27599   5.168   0.143   3.885 -0.2718  0.3730 -0.8965
  205MOL0     C27600   5.289   0.072   3.920  0.8772  0.1852 -0.0578
  205MOL0     C27601   5.349   0.099   4.050 -0.5716 -0.9890  0.1034
  205MOL0     C27602   5.449  -0.003   4.097  0.5088 -0.0225  0.5666
  205MOL0     C27603   5.581   0.019   4.031 -0.2625 -0.0262 -0.0059
  205MOL0     C27604   5.682  -0.053   4.108  0.1278 -0.4867 -0.0561
  205MOL0     C27605   5.753  -0.109   4.189  0.4938 -0.2420 -0.2589
  205MOL0     C27606   4.942   0.221   3.912 -0.3482  0.1259  0.5990
  205MOL0     C27607   4.818   0.207   3.973  0.6373  0.4120  0.1210
  205MOL0     H27608   4.394   0.292   3.971  0.9260 -0.8628  0.5684
  205MOL0     H27609   4.129   0.287   4.012  0.0344  0.2007  1.0744
  205MOL0     H27610   3.983  -0.109   4.157  0.6868 -0.0911  0.0568
  205MOL0     H27611   3.932  -0.013   4.294  1.5600  1.0861 -0.0089
  205MOL0     H27612   3.745   0.074   4.150  1.4860  0.4309 -2.2535
  205MOL0     H27613   3.796  -0.048   4.031 -0.8435  1.1595 -0.3603
  205MOL0     H27614   3.769  -0.227   4.218  1.3664  0.8931  1.7266
  205MOL0     H27615   3.691  -0.089   4.305 -2.4286 -0.6585  0.1916
  205MOL0     H27616   3.543  -0.045   4.132 -1.4074 -1.0769 -1.0232
  205MOL0     H27617   3.577  -0.196   4.054 -2.1678 -2.0667  0.9880
  205MOL0     H27618   3.541  -0.318   4.276  3.1190  2.3143  1.1734
  205MOL0     H27619   3.464  -0.173   4.336  2.2406  3.5715 -1.5951
  205MOL0     H27620   3.313  -0.178   4.144  0.4593  1.3732  1.9641
  205MOL0     H27621   3.383  -0.327   4.089  0.6789  1.1097 -0.7110
  205MOL0     H27622   3.334  -0.443   4.307 -1.1259 -1.8050 -2.3944
  205MOL0     H27623   3.232  -0.304   4.355  0.1378 -3.1376  1.3950
  205MOL0     H27624   3.209  -0.496   4.126 -0.2056 -0.2224 -0.1974
  205MOL0     H27625   3.114  -0.342   4.131  1.8432 -1.0382 -2.3371
  205MOL0     H27626   2.909  -0.350   4.316  0.1092 -0.5245  0.4236
  205MOL0     H27627   2.743  -0.624   4.519 -1.0334 -0.0708  0.4328
  205MOL0     H27628   2.784  -0.453   4.543  3.3908 -1.5838  0.3730
  205MOL0     H27629   2.677  -0.412   4.307 -1.4478 -0.1571 -0.4280
  205MOL0     H27630   2.562  -0.493   4.418 -0.1645 -2.1095  0.6052
  205MOL0     H27631   2.532  -0.660   4.270  0.0496 -0.3916 -1.0181
  205MOL0     H27632   2.693  -0.712   4.310 -0.0994  0.9173  1.5486
  205MOL0     H27633   2.806  -0.572   4.133 -0.2324  0.6101 -1.6356
  205MOL0     H27634   2.658  -0.517   4.079 -1.2208 -0.1298 -0.2995
  205MOL0     H27635   2.668  -0.851   3.815  1.9223  4.0363 -1.8787
  205MOL0     H27636   2.407  -0.946   3.611 -0.4665  0.9010  0.7906
  205MOL0     H27637   2.478  -0.806   3.535  0.7864 -2.1654 -1.2695
  205MOL0     H27638   2.579  -0.925   3.622 -0.5670 -0.5425  1.6369
  205MOL0     H27639   2.050  -0.391   3.672  0.2005  0.8375 -1.6772
  205MOL0     H27640   1.833  -0.348   3.556  0.4333  0.2130  0.2163
  205MOL0     H27641   1.698  -0.699   3.319 -0.2037  1.5668 -0.6650
  205MOL0     H27642   1.563  -0.706   3.427  1.3212 -1.3683  0.9844
  205MOL0     H27643   1.475  -0.481   3.312  1.6282  1.3794 -0.9877
  205MOL0     H27644   1.590  -0.519   3.189  0.0544  0.1147  0.0947
  205MOL0     H27645   1.380  -0.717   3.279  1.5898  1.8483  3.0581
  205MOL0     H27646   1.515  -0.739   3.156  1.7260  1.0146 -0.1736
  205MOL0     H27647   1.284  -0.534   3.160  1.1981 -0.5395  2.1860
  205MOL0     H27648   1.409  -0.534   3.032 -0.1410 -0.2775 -1.4669
  205MOL0     H27649   1.214  -0.752   3.095  0.1806  1.8898  0.0793
  205MOL0     H27650   1.318  -0.757   2.958  0.3067  0.5369  0.6000
  205MOL0     H27651   1.090  -0.552   3.004 -3.7939  0.6879 -3.0391
  205MOL0     H27652   1.207  -0.526   2.873  0.7670  0.0919  0.1980
  205MOL0     H27653   1.020  -0.758   2.914  0.0014  0.8112  0.7317
  205MOL0     H27654   1.141  -0.729   2.772  2.8186  1.8215  1.5868
  205MOL0     H27655   0.908  -0.672   2.701  0.6800 -3.3123  2.1293
  205MOL0     H27656   0.981  -0.514   2.748 -1.4711  0.3651 -0.1741
  205MOL0     H27657   1.773  -0.776   3.513  2.1128 -0.6355 -0.8710
  205MOL0     H27658   1.997  -0.810   3.631 -0.4976  0.2765 -0.3503
  205MOL0     H27659   2.256  -0.610   3.940  0.1037  0.2582 -1.1801
  205MOL0     H27660   2.458  -0.580   4.075  2.7160  2.5455 -2.0930
  205MOL0     H27661   4.199  -0.046   4.263  1.2349 -1.4517 -2.0031
  205MOL0     H27662   4.434  -0.018   4.245 -2.3072  0.4209  1.9064
  205MOL0     H27663   4.894   0.000   4.239 -1.6257 -0.4471 -1.2290
  205MOL0     H27664   5.096  -0.010   4.119  0.9375  1.6024  1.9458
  205MOL0     H27665   5.288  -0.036   3.905  1.3557 -0.4075  3.4260
  205MOL0     H27666   5.366   0.093   3.844  0.1839  0.1446 -0.7881
  205MOL0     H27667   5.282   0.104   4.136 -0.1517 -1.2290  0.4533
  205MOL0     H27668   5.399   0.196   4.042 -1.5289 -0.4359  0.6876
  205MOL0     H27669   5.425  -0.108   4.077  2.2954 -0.0787 -1.6750
  205MOL0     H27670   5.462   0.011   4.205 -2.1162 -0.3785  1.0120
  205MOL0     H27671   5.605   0.125   4.035  0.7867 -0.2116 -0.9285
  205MOL0     H27672   5.587  -0.009   3.925 -0.3498  0.8849 -0.2620
  205MOL0     H27673   5.817  -0.158   4.259  0.0350 -0.0608  0.2966
  205MOL0     H27674   4.955   0.294   3.833  0.9860 -0.1324  0.5462
  205MOL0     H27675   4.741   0.268   3.928  0.3033 -0.9729 -1.2463
  206MOL0     O27676   9.260   3.899   3.045  0.3538  0.2374 -0.3445
  206MOL0     C27677   9.323   3.988   2.989 -0.6220 -0.6876  0.1824
  206MOL0     O27678   9.293   4.059   2.875  0.6266  0.1374  0.2482
  206MOL0     C27679   9.190   4.021   2.796 -0.0119 -0.1477  0.9237
  206MOL0     C27680   9.056   3.983   2.837 -0.5260  0.0405 -0.0318
  206MOL0     C27681   8.959   3.956   2.744 -0.1291  0.5986  0.0965
  206MOL0     C27682   8.971   3.975   2.601 -0.2943 -0.4434 -0.5708
  206MOL0     O27683   8.880   3.955   2.507 -0.2567 -0.7207 -0.1911
  206MOL0     C27684   8.744   3.945   2.551  0.1589  0.5796 -0.4118
  206MOL0     C27685   8.679   3.907   2.421  0.5539  0.0591 -0.4188
  206MOL0     C27686   8.534   3.892   2.458 -0.1266  0.3495 -0.1544
  206MOL0     C27687   8.462   3.861   2.326  0.6428  0.0700  0.6988
  206MOL0     C27688   8.332   3.785   2.353 -0.8322 -0.6286  0.1732
  206MOL0     C27689   8.287   3.747   2.206 -0.1095 -0.0795 -0.3550
  206MOL0     C27690   8.164   3.661   2.210 -0.0084 -0.7613  0.1493
  206MOL0     C27691   8.127   3.615   2.065  0.2467 -0.0512  0.3447
  206MOL0     N27692   7.991   3.566   2.058  0.4558  0.2994  0.0095
  206MOL0     C27693   7.884   3.608   1.980 -1.3772  0.0181  1.0733
  206MOL0     C27694   7.783   3.533   2.007  0.6314 -0.5170 -0.1702
  206MOL0     C27695   7.660   3.524   1.919 -0.1920  0.8143  0.0729
  206MOL0     C27696   7.536   3.458   1.970  0.2585  0.5332 -0.6594
  206MOL0     C27697   7.439   3.440   1.859  0.3298 -0.3029  0.9431
  206MOL0     C27698   7.317   3.357   1.884 -0.4419 -0.3750 -0.0581
  206MOL0     O27699   7.246   3.394   2.005  1.0383 -1.0124 -0.0199
  206MOL0     C27700   7.117   3.347   2.022  0.7001  0.4077 -0.6687
  206MOL0     C27701   7.054   3.246   1.944 -0.2652  0.1529 -1.0439
  206MOL0     C27702   6.921   3.204   1.963 -0.2142 -0.0009 -0.0434
  206MOL0     C27703   6.878   3.093   1.866 -0.3908 -0.2899  0.0668
  206MOL0     C27704   6.848   3.261   2.067  0.2211  1.0909  0.4740
  206MOL0     C27705   6.719   3.216   2.101 -0.8577  0.3219 -0.7467
  206MOL0     O27706   6.634   3.307   2.162 -0.5721 -0.8827 -0.1576
  206MOL0     C27707   6.503   3.282   2.183 -0.2894  0.0971 -0.3069
  206MOL0     C27708   6.423   3.251   2.071 -0.0368  0.1255 -0.5886
  206MOL0     C27709   6.290   3.248   2.082  0.6359  0.6641  0.1902
  206MOL0     C27710   6.232   3.251   2.217  0.3736 -0.3648  0.4150
  206MOL0     O27711   6.095   3.244   2.232  0.0343 -0.0818  0.3887
  206MOL0     C27712   6.025   3.148   2.150 -0.2445 -0.0480 -0.1945
  206MOL0     C27713   5.904   3.088   2.225 -0.6840 -0.0279  0.0714
  206MOL0     C27714   5.775   3.171   2.216 -0.1857 -0.7944 -0.5839
  206MOL0     C27715   5.647   3.098   2.264  0.5079 -0.4044 -0.6910
  206MOL0     C27716   5.513   3.181   2.243 -0.8469 -0.4884  0.1550
  206MOL0     C27717   5.517   3.319   2.319 -0.5664  0.4901 -0.8472
  206MOL0     C27718   5.378   3.381   2.326  0.7719  0.2722 -0.1552
  206MOL0     C27719   5.326   3.411   2.186  0.1850 -0.5676 -0.0093
  206MOL0    Cl27720   5.174   3.512   2.185  0.0369 -0.2336  0.1339
  206MOL0     C27721   6.311   3.271   2.329  0.3714 -0.2489 -0.7155
  206MOL0     C27722   6.445   3.292   2.309  0.6948  0.2443 -0.7821
  206MOL0     O27723   6.682   3.100   2.075 -0.2521 -0.1637 -0.1331
  206MOL0     C27724   6.907   3.363   2.148  0.7592  0.5572  0.6305
  206MOL0     C27725   7.038   3.397   2.125  0.0733 -0.0019 -0.6016
  206MOL0     N27726   7.817   3.441   2.101  0.6493 -0.5983  0.2107
  206MOL0     N27727   7.939   3.466   2.138 -1.0181 -0.3273  0.1003
  206MOL0     C27728   9.105   4.016   2.569  1.2728  0.4286 -0.0336
  206MOL0     C27729   9.207   4.039   2.661  0.1107 -0.2236 -0.0613
  206MOL0     C27730   9.442   4.040   3.062  0.0057 -0.0711 -0.2494
  206MOL0     C27731   9.494   3.994   3.190  0.1304 -0.1601  0.2240
  206MOL0     C27732   9.602   4.066   3.241  0.2431  0.3737 -1.1026
  206MOL0     C27733   9.669   4.171   3.186 -0.0176  0.9894 -0.5667
  206MOL0     O27734   9.779   4.227   3.240 -0.6083  0.2035 -0.1113
  206MOL0     C27735   9.894   4.137   3.237 -0.6693 -0.0723 -0.5070
  206MOL0     C27736  10.022   4.194   3.288 -0.1423  0.1907 -0.4811
  206MOL0     C27737  10.019   4.208   3.446 -0.4384  0.5815  1.2751
  206MOL0     C27738  10.157   4.228   3.504  0.4939  0.5942  0.3133
  206MOL0     C27739  10.215   4.357   3.472  1.0071  0.7963 -0.6798
  206MOL0     C27740  10.286   4.454   3.442 -0.9212  0.7129 -0.5888
  206MOL0     C27741   9.617   4.214   3.061  0.3577  0.5376 -0.2233
  206MOL0     C27742   9.504   4.157   3.008  0.4967 -0.0578  0.3921
  206MOL0     H27743   9.034   3.979   2.944 -1.1015  2.1051 -0.0307
  206MOL0     H27744   8.864   3.942   2.793 -0.4494 -0.9652 -0.9056
  206MOL0     H27745   8.722   3.862   2.618 -0.1720 -0.5845 -1.8888
  206MOL0     H27746   8.705   4.039   2.591 -1.4956  0.3791 -1.4808
  206MOL0     H27747   8.688   3.990   2.350  2.8121 -1.0061 -1.4807
  206MOL0     H27748   8.720   3.816   2.376  2.0595 -0.0819  1.1352
  206MOL0     H27749   8.516   3.816   2.535  0.3277  2.3216  2.0078
  206MOL0     H27750   8.505   3.989   2.500  2.5909  1.0605  0.2628
  206MOL0     H27751   8.436   3.957   2.281  0.3461  0.7818  2.3162
  206MOL0     H27752   8.526   3.794   2.268 -0.3097  0.2013 -0.5541
  206MOL0     H27753   8.348   3.708   2.430  0.4281 -0.0392  0.5316
  206MOL0     H27754   8.264   3.859   2.395  0.5465  1.1670 -0.6057
  206MOL0     H27755   8.269   3.830   2.138 -3.6207 -0.7750 -0.4526
  206MOL0     H27756   8.367   3.692   2.155  2.7386  4.7985 -1.8253
  206MOL0     H27757   8.179   3.585   2.287 -4.5256  0.0694  2.1726
  206MOL0     H27758   8.083   3.707   2.267  0.3508 -0.2125  0.2330
  206MOL0     H27759   8.202   3.541   2.036 -0.4733  0.0751 -2.0055
  206MOL0     H27760   8.139   3.699   1.996  0.8053 -0.2809  0.1590
  206MOL0     H27761   7.897   3.684   1.904 -3.4787 -1.8290 -1.2956
  206MOL0     H27762   7.642   3.630   1.896 -0.1255  0.7447 -0.3053
  206MOL0     H27763   7.691   3.477   1.825 -4.0931 -1.3937 -0.3385
  206MOL0     H27764   7.500   3.515   2.056 -0.8239  2.0105 -2.0123
  206MOL0     H27765   7.560   3.360   2.011  0.5334  0.2755 -1.4207
  206MOL0     H27766   7.497   3.391   1.780 -0.3598 -0.9615  0.8494
  206MOL0     H27767   7.414   3.536   1.812 -3.0457 -1.9001 -0.8333
  206MOL0     H27768   7.354   3.256   1.903 -0.7963 -0.5460 -0.2639
  206MOL0     H27769   7.253   3.364   1.796 -0.7210  1.3677  0.2557
  206MOL0     H27770   7.118   3.193   1.875  1.4936 -0.3302  0.8458
  206MOL0     H27771   6.871   2.994   1.911 -0.3921 -0.7205 -0.8716
  206MOL0     H27772   6.782   3.126   1.824  0.4069  0.7636 -1.0354
  206MOL0     H27773   6.954   3.082   1.788 -0.1880 -0.6803  0.3205
  206MOL0     H27774   6.483   3.252   1.981 -0.5286  1.0232 -0.9252
  206MOL0     H27775   6.229   3.228   1.994  1.0341  2.3393 -0.5141
  206MOL0     H27776   5.994   3.191   2.054 -1.9786 -3.9764 -1.6292
  206MOL0     H27777   6.089   3.065   2.120 -0.0061 -0.5784  1.6648
  206MOL0     H27778   5.885   2.990   2.179  2.0877 -0.0237 -1.2865
  206MOL0     H27779   5.922   3.065   2.330 -2.6740  2.2026  1.0164
  206MOL0     H27780   5.763   3.195   2.110 -0.7408 -0.6206 -0.4855
  206MOL0     H27781   5.794   3.267   2.266  0.2672 -0.7426 -0.8483
  206MOL0     H27782   5.634   3.000   2.216 -3.1892 -1.0622  1.2703
  206MOL0     H27783   5.658   3.065   2.368 -1.1983 -1.6962 -0.8693
  206MOL0     H27784   5.424   3.132   2.285 -2.8655  2.5352 -0.2408
  206MOL0     H27785   5.494   3.197   2.136 -1.1814  1.4178  0.4556
  206MOL0     H27786   5.578   3.305   2.409 -1.1662 -1.0786 -0.6626
  206MOL0     H27787   5.576   3.397   2.270  3.6511  0.9136  3.9777
  206MOL0     H27788   5.382   3.470   2.390  1.1614 -0.6961  1.2105
  206MOL0     H27789   5.309   3.308   2.368  0.2645 -0.1352 -1.6244
  206MOL0     H27790   5.293   3.315   2.145  1.1167  0.2782 -2.9587
  206MOL0     H27791   5.408   3.457   2.131  0.0913 -0.0325  0.2913
  206MOL0     H27792   6.274   3.294   2.428  1.8121  0.3846 -0.3118
  206MOL0     H27793   6.510   3.322   2.390 -0.8467  0.3310  0.4714
  206MOL0     H27794   6.851   3.400   2.233  0.0294 -1.1776  0.9520
  206MOL0     H27795   7.077   3.461   2.203 -0.7559  2.3631 -2.0091
  206MOL0     H27796   9.124   4.036   2.464 -1.7671  0.4521 -0.6817
  206MOL0     H27797   9.296   4.090   2.625 -0.5895  1.3272  0.3182
  206MOL0     H27798   9.437   3.919   3.244  1.1067 -2.7766 -2.1465
  206MOL0     H27799   9.638   4.043   3.340 -1.0294  1.2820 -0.3996
  206MOL0     H27800   9.877   4.050   3.301  0.5617 -0.7444 -1.0626
  206MOL0     H27801   9.910   4.105   3.134  2.2492  1.3936 -0.6125
  206MOL0     H27802  10.033   4.294   3.246  0.1663 -0.0268 -0.9279
  206MOL0     H27803  10.105   4.125   3.267  0.6615  0.1362  2.4453
  206MOL0     H27804   9.988   4.108   3.478  0.2375  0.3184  1.1376
  206MOL0     H27805   9.953   4.287   3.483  0.7422  2.1357  0.2015
  206MOL0     H27806  10.219   4.144   3.471 -1.5169 -0.2330 -1.5651
  206MOL0     H27807  10.136   4.234   3.612 -4.1256  1.9863 -0.4384
  206MOL0     H27808  10.357   4.532   3.423 -2.2636  2.2606  0.4475
  206MOL0     H27809   9.671   4.286   3.001  0.8308  0.7754  0.4719
  206MOL0     H27810   9.484   4.200   2.910  0.5969 -1.5792 -0.3184
  207MOL0     O27811   4.957   9.440   8.640 -0.8095 -0.0480  0.2287
  207MOL0     C27812   4.942   9.388   8.750  0.9963 -0.0174 -0.1457
  207MOL0     O27813   4.827   9.346   8.809  0.4031  0.5465 -0.3044
  207MOL0     C27814   4.728   9.340   8.713  0.6547 -0.2310 -0.4279
  207MOL0     C27815   4.650   9.461   8.692  0.4840  1.0778  0.3109
  207MOL0     C27816   4.526   9.459   8.627  0.4686  0.4473  0.3728
  207MOL0     C27817   4.485   9.337   8.573 -0.0339 -0.1986 -0.4213
  207MOL0     O27818   4.361   9.327   8.509 -0.1768  0.4295 -0.4183
  207MOL0     C27819   4.244   9.364   8.589 -0.0396 -0.1416 -0.7960
  207MOL0     C27820   4.117   9.337   8.518  0.2861  0.7890  0.5165
  207MOL0     C27821   3.992   9.370   8.593 -0.4905  0.8799  0.0330
  207MOL0     C27822   3.874   9.316   8.508 -0.0878  0.6804 -0.2578
  207MOL0     C27823   3.733   9.316   8.587  0.1399  0.2188  0.7617
  207MOL0     C27824   3.672   9.452   8.621 -0.0625 -0.1027  0.4001
  207MOL0     C27825   3.542   9.433   8.703  0.4242 -0.1709 -0.2117
  207MOL0     C27826   3.441   9.553   8.683  0.5413 -0.0041  0.2139
  207MOL0     N27827   3.305   9.520   8.733  0.1328 -0.2541  0.8835
  207MOL0     C27828   3.257   9.475   8.854  0.4438  0.6572  0.4490
  207MOL0     C27829   3.119   9.476   8.847 -0.0263  0.5886  0.0904
  207MOL0     C27830   3.023   9.424   8.945 -0.8000  0.3662 -0.0375
  207MOL0     C27831   3.085   9.308   9.030 -0.8359  0.4726 -0.5101
  207MOL0     C27832   2.979   9.240   9.112  0.0132  0.0154 -0.1119
  207MOL0     C27833   2.901   9.125   9.040 -0.0464  0.3775  0.1933
  207MOL0     O27834   2.817   9.053   9.137  0.3179 -0.1232  0.7787
  207MOL0     C27835   2.695   9.006   9.089  0.5668 -0.4918  0.0691
  207MOL0     C27836   2.681   8.967   8.962  0.9605 -0.0314  0.4990
  207MOL0     C27837   2.558   8.920   8.908 -0.2189 -0.5701 -0.6500
  207MOL0     C27838   2.551   8.876   8.765 -0.1030 -0.3527  0.2155
  207MOL0     C27839   2.446   8.921   8.995 -0.1087 -0.1191 -0.7169
  207MOL0     C27840   2.311   8.873   8.960  1.0975  0.1743  0.2186
  207MOL0     O27841   2.213   8.865   9.051  0.3993  0.2563 -0.2705
  207MOL0     C27842   2.086   8.813   9.038 -0.3951 -0.3369  0.8821
  207MOL0     C27843   2.009   8.848   9.150  0.3906 -0.8325 -0.3434
  207MOL0     C27844   1.881   8.816   9.154  1.0380 -0.7410  0.3066
  207MOL0     C27845   1.819   8.749   9.044 -0.2656 -0.3288  0.4544
  207MOL0     O27846   1.686   8.734   9.033 -0.1547  0.1168  0.0931
  207MOL0     C27847   1.625   8.684   9.153  0.0635  0.4113 -0.2839
  207MOL0     C27848   1.514   8.592   9.124  1.1341  0.3051 -0.0546
  207MOL0     C27849   1.381   8.671   9.086  0.3916 -0.6612 -0.6750
  207MOL0     C27850   1.260   8.570   9.112  0.2383 -0.7486 -0.0819
  207MOL0     C27851   1.118   8.639   9.109 -0.3471 -0.2802  0.0210
  207MOL0     C27852   1.021   8.533   9.164  0.0033  0.0733 -0.8022
  207MOL0     C27853   0.870   8.582   9.180 -0.0138  0.4381 -0.6264
  207MOL0     C27854   0.777   8.459   9.171 -0.3954  0.1491  0.5757
  207MOL0    Cl27855   0.842   8.328   9.282 -0.1961  0.1034  0.1607
  207MOL0     C27856   1.900   8.700   8.941  0.2262 -0.8122 -0.6604
  207MOL0     C27857   2.035   8.737   8.932  0.2937  0.1743  0.3525
  207MOL0     O27858   2.288   8.864   8.838 -0.1776  0.1633  0.2364
  207MOL0     C27859   2.470   8.953   9.132 -0.4269 -1.0496  0.7732
  207MOL0     C27860   2.594   8.991   9.177  0.7120 -0.1253  0.1037
  207MOL0     N27861   3.086   9.514   8.719  0.2752 -0.2444  0.1253
  207MOL0     N27862   3.197   9.536   8.659 -0.1639  0.5021 -0.0489
  207MOL0     C27863   4.559   9.224   8.577  0.1983  0.7006  0.0921
  207MOL0     C27864   4.689   9.229   8.639  0.3791 -0.0588  1.1000
  207MOL0     C27865   5.061   9.377   8.832 -0.3556 -0.1377  0.4122
  207MOL0     C27866   5.066   9.329   8.966 -0.2024 -0.4695 -0.2457
  207MOL0     C27867   5.176   9.335   9.048 -0.5961  0.1492  0.4529
  207MOL0     C27868   5.293   9.397   8.998 -0.4656  0.0221 -0.0232
  207MOL0     O27869   5.410   9.405   9.072  0.3167 -0.1518  0.1618
  207MOL0     C27870   5.416   9.337   9.199 -0.5379  0.1576  0.7731
  207MOL0     C27871   5.381   9.420   9.317 -0.3615  0.2332 -0.0352
  207MOL0     C27872   5.490   9.524   9.339 -0.4494 -0.5492  0.1001
  207MOL0     C27873   5.483   9.585   9.482  0.1820  0.5284 -0.1324
  207MOL0     C27874   5.563   9.702   9.497 -0.3674  0.0970  0.6195
  207MOL0     C27875   5.643   9.796   9.504  0.2762  0.3825  0.4805
  207MOL0     C27876   5.294   9.454   8.873 -0.2511  0.7922 -0.8393
  207MOL0     C27877   5.182   9.441   8.791  0.5911 -0.3607  0.2549
  207MOL0     H27878   4.689   9.548   8.744  0.4017  1.1611  0.2330
  207MOL0     H27879   4.464   9.547   8.618 -1.9780 -1.2112 -0.0218
  207MOL0     H27880   4.246   9.315   8.687 -0.6743  0.4007 -0.5033
  207MOL0     H27881   4.238   9.472   8.607 -0.9500 -0.0593 -1.5321
  207MOL0     H27882   4.110   9.402   8.430  0.5680 -2.2260 -1.9322
  207MOL0     H27883   4.118   9.233   8.482 -2.6155  1.5968 -2.4373
  207MOL0     H27884   3.993   9.325   8.692  2.3695 -0.0220 -0.2933
  207MOL0     H27885   3.982   9.478   8.603  1.1627  0.9444  1.4974
  207MOL0     H27886   3.854   9.373   8.417  0.6240  0.0177 -0.8400
  207MOL0     H27887   3.893   9.212   8.480 -1.5365  0.6755 -1.3068
  207MOL0     H27888   3.662   9.260   8.525  2.6704 -0.8787 -1.3448
  207MOL0     H27889   3.755   9.255   8.675  1.4554 -0.5463 -0.0515
  207MOL0     H27890   3.741   9.515   8.678  2.0863 -1.5919 -0.4234
  207MOL0     H27891   3.651   9.493   8.522  0.6464 -1.1557 -0.2078
  207MOL0     H27892   3.502   9.335   8.673 -0.0017  0.3010 -1.2289
  207MOL0     H27893   3.552   9.428   8.812  1.1256 -0.7367 -0.2915
  207MOL0     H27894   3.443   9.571   8.575  3.5614 -0.1196  0.1581
  207MOL0     H27895   3.485   9.643   8.726  2.4580  0.7377 -2.9773
  207MOL0     H27896   3.318   9.440   8.936 -0.4032 -0.1209  0.7591
  207MOL0     H27897   2.992   9.511   9.002  0.1978 -0.2688  1.5311
  207MOL0     H27898   2.937   9.381   8.892 -0.0174 -3.0255  1.1520
  207MOL0     H27899   3.162   9.343   9.100 -0.3073 -0.5847 -0.5375
  207MOL0     H27900   3.132   9.233   8.964 -0.4338  1.9111 -1.9370
  207MOL0     H27901   2.906   9.317   9.140 -1.1780 -1.5469  1.2438
  207MOL0     H27902   3.026   9.201   9.203  0.4482  1.7832  0.4681
  207MOL0     H27903   2.973   9.051   9.004 -1.7301 -1.9654  1.2810
  207MOL0     H27904   2.843   9.164   8.956 -0.8694 -0.8981  0.1301
  207MOL0     H27905   2.764   8.964   8.892 -0.1013  0.4973 -0.8384
  207MOL0     H27906   2.512   8.776   8.749 -0.2070 -0.0044 -2.2209
  207MOL0     H27907   2.494   8.952   8.710  1.0449  2.2694  2.3822
  207MOL0     H27908   2.648   8.876   8.714 -1.4303 -0.1279 -2.5057
  207MOL0     H27909   2.064   8.905   9.225 -1.4578  0.7563 -0.1419
  207MOL0     H27910   1.818   8.862   9.230 -0.7563  1.4747 -2.3593
  207MOL0     H27911   1.702   8.621   9.198 -1.4493 -1.3389 -0.0418
  207MOL0     H27912   1.589   8.761   9.221 -2.2291 -1.1527  0.3763
  207MOL0     H27913   1.533   8.533   9.034  1.9600  1.6028 -0.7693
  207MOL0     H27914   1.507   8.520   9.207 -0.9549 -1.5332 -1.7038
  207MOL0     H27915   1.388   8.701   8.981  3.5268  1.3181 -0.0127
  207MOL0     H27916   1.357   8.759   9.146 -1.6800 -2.1277  0.7995
  207MOL0     H27917   1.256   8.495   9.032 -3.1515 -1.7680  0.8599
  207MOL0     H27918   1.284   8.526   9.209  1.1290 -0.6557 -0.2525
  207MOL0     H27919   1.095   8.671   9.008 -2.0556  1.0892  0.7914
  207MOL0     H27920   1.116   8.723   9.180 -0.8595 -0.7034  0.5175
  207MOL0     H27921   1.033   8.455   9.088  2.0895 -0.8670  0.3809
  207MOL0     H27922   1.057   8.495   9.260 -0.0071  0.0867 -0.7934
  207MOL0     H27923   0.846   8.662   9.110  1.3663 -1.1186 -2.9944
  207MOL0     H27924   0.878   8.616   9.284  3.3381 -1.9747  0.0730
  207MOL0     H27925   0.764   8.418   9.070  1.8564  1.2232 -0.1930
  207MOL0     H27926   0.680   8.500   9.202 -0.6844 -0.7226  0.8585
  207MOL0     H27927   1.851   8.645   8.861 -0.1244 -1.0071 -0.3155
  207MOL0     H27928   2.091   8.702   8.846 -1.8627 -0.4502 -0.8923
  207MOL0     H27929   2.388   8.951   9.203 -0.7291  3.1248  0.7860
  207MOL0     H27930   2.603   8.995   9.285  1.2671 -0.4815  0.0707
  207MOL0     H27931   4.530   9.132   8.527  1.7251  0.4581 -0.4024
  207MOL0     H27932   4.740   9.134   8.632 -2.5927 -1.6807 -1.1492
  207MOL0     H27933   4.991   9.269   9.017  1.0737 -2.5864 -0.7026
  207MOL0     H27934   5.157   9.281   9.140  0.9815  0.1679  0.8271
  207MOL0     H27935   5.347   9.253   9.207 -1.5372  0.8846  0.0546
  207MOL0     H27936   5.518   9.298   9.199 -1.0717 -1.4394 -1.6488
  207MOL0     H27937   5.367   9.357   9.406 -2.1496  1.6588  0.7646
  207MOL0     H27938   5.284   9.466   9.296 -2.0566 -3.6978 -1.8911
  207MOL0     H27939   5.479   9.607   9.269 -0.3987  0.4808  1.2762
  207MOL0     H27940   5.593   9.486   9.330  0.0740  0.8478  0.0283
  207MOL0     H27941   5.525   9.506   9.544 -1.0621 -1.8079 -2.1059
  207MOL0     H27942   5.380   9.598   9.517  0.6640  0.8601  1.2071
  207MOL0     H27943   5.709   9.877   9.526 -0.5569  1.2108  0.0305
  207MOL0     H27944   5.380   9.510   8.837 -0.4808  0.7850 -1.4036
  207MOL0     H27945   5.189   9.501   8.701  1.1256  0.1227  0.6042
  208MOL0     O27946  10.194   4.294   4.857 -0.0315  0.3512 -0.0547
  208MOL0     C27947  10.222   4.369   4.768  1.0264 -0.6271  0.6391
  208MOL0     O27948  10.148   4.377   4.652 -0.3502  0.8140  0.2067
  208MOL0     C27949  10.032   4.307   4.627 -0.1663 -0.2437  0.0105
  208MOL0     C27950   9.991   4.184   4.674  0.8232 -0.3704  0.1578
  208MOL0     C27951   9.871   4.130   4.624  0.2865 -0.2027 -0.6538
  208MOL0     C27952   9.804   4.187   4.508 -0.5011 -0.1257 -0.7760
  208MOL0     O27953   9.708   4.113   4.444  0.1168 -0.2166 -0.2988
  208MOL0     C27954   9.663   4.147   4.312 -0.5318  0.2731 -1.1804
  208MOL0     C27955   9.564   4.042   4.261  0.2232 -0.4338  0.1181
  208MOL0     C27956   9.554   4.061   4.110 -0.1540 -0.1577 -0.5835
  208MOL0     C27957   9.481   3.948   4.044  0.3632 -0.1120  0.6134
  208MOL0     C27958   9.463   3.970   3.898 -0.1368  0.3784 -0.0780
  208MOL0     C27959   9.365   3.863   3.838 -0.7002  0.8902  0.0230
  208MOL0     C27960   9.218   3.902   3.852  0.6348 -0.5280  0.8856
  208MOL0     C27961   9.172   3.988   3.734 -0.1749  0.6952  0.4780
  208MOL0     N27962   9.175   3.911   3.609  0.1516 -0.1395 -0.1230
  208MOL0     C27963   9.074   3.834   3.566  0.5601  0.5326  0.8134
  208MOL0     C27964   9.105   3.800   3.441 -0.8415  0.4878 -0.6763
  208MOL0     C27965   9.019   3.715   3.346 -0.4252  0.1191  0.0037
  208MOL0     C27966   8.898   3.798   3.293  0.5146  0.0374 -0.4172
  208MOL0     C27967   8.945   3.909   3.202 -0.4686  0.5042 -0.6921
  208MOL0     C27968   8.825   3.978   3.142  0.5522 -0.0528  0.6586
  208MOL0     O27969   8.775   3.907   3.033  0.4525  0.0103 -0.8234
  208MOL0     C27970   8.645   3.880   3.019 -1.2204 -0.9204 -0.4945
  208MOL0     C27971   8.542   3.917   3.107 -0.4282  0.5173 -0.4175
  208MOL0     C27972   8.406   3.888   3.073  0.2117  1.3888  0.2578
  208MOL0     C27973   8.301   3.977   3.141 -0.0683  0.2537  1.0340
  208MOL0     C27974   8.381   3.798   2.968 -1.6785 -0.3694  0.2575
  208MOL0     C27975   8.250   3.726   2.933 -0.1404 -0.0965  0.4828
  208MOL0     O27976   8.252   3.634   2.822 -0.1348  0.6888 -0.9481
  208MOL0     C27977   8.142   3.577   2.771  0.2120  0.1092  0.1147
  208MOL0     C27978   8.096   3.627   2.647 -0.7458 -0.0779 -0.6187
  208MOL0     C27979   7.981   3.586   2.592 -1.1298  0.0184  0.2618
  208MOL0     C27980   7.898   3.493   2.657 -0.0388  0.1074 -0.1206
  208MOL0     O27981   7.790   3.433   2.596 -0.0180  0.1871  0.2059
  208MOL0     C27982   7.751   3.481   2.470 -1.3421  0.5476  0.0649
  208MOL0     C27983   7.630   3.410   2.423  0.2826  0.7063 -0.6526
  208MOL0     C27984   7.512   3.424   2.527  0.3572  0.0605 -0.2958
  208MOL0     C27985   7.383   3.365   2.475 -0.7764 -0.0258  0.2555
  208MOL0     C27986   7.267   3.383   2.572  0.6631 -0.5919  0.4120
  208MOL0     C27987   7.149   3.307   2.513  0.4151 -0.4559 -0.4931
  208MOL0     C27988   7.026   3.313   2.605 -0.0443 -0.0243  0.0328
  208MOL0     C27989   6.887   3.303   2.532 -0.2587 -0.0209  0.3060
  208MOL0    Cl27990   6.895   3.149   2.432 -0.1681 -0.1618  0.3918
  208MOL0     C27991   7.943   3.433   2.772  0.3784 -0.0186 -0.6325
  208MOL0     C27992   8.066   3.469   2.824  0.2686  0.5848 -0.6500
  208MOL0     O27993   8.149   3.757   3.002  0.3899  0.0597  0.1870
  208MOL0     C27994   8.488   3.767   2.882 -0.1693 -0.4891  0.2358
  208MOL0     C27995   8.619   3.806   2.911 -0.8601  0.4501 -0.5514
  208MOL0     N27996   9.227   3.857   3.408  0.3144  0.3033 -0.4349
  208MOL0     N27997   9.267   3.928   3.507  0.6664 -0.8514 -0.0081
  208MOL0     C27998   9.858   4.311   4.461 -0.2022 -0.0145  0.3790
  208MOL0     C27999   9.964   4.373   4.530 -0.9126 -0.2503 -0.0288
  208MOL0     C28000  10.341   4.447   4.785 -0.3029  0.1309  0.3784
  208MOL0     C28001  10.394   4.523   4.685 -0.6248 -0.2441  0.4355
  208MOL0     C28002  10.518   4.586   4.707 -0.2005  0.0755  1.1903
  208MOL0     C28003  10.590   4.572   4.826 -0.1577 -0.5904  0.7647
  208MOL0     O28004  10.713   4.638   4.835  0.4010  0.0438 -0.3559
  208MOL0     C28005  10.775   4.643   4.967  0.0966  0.6271 -0.1294
  208MOL0     C28006  10.905   4.718   4.954 -0.5387 -0.0377 -0.4046
  208MOL0     C28007  10.988   4.657   4.839 -0.4858 -0.7447 -0.7799
  208MOL0     C28008  11.140   4.676   4.872  0.2572 -0.7468 -0.4946
  208MOL0     C28009  11.200   4.806   4.835 -0.1129  0.4788  0.7921
  208MOL0     C28010  11.245   4.920   4.810  0.0571 -0.1227  0.6437
  208MOL0     C28011  10.535   4.495   4.929  0.1817  0.4207  0.0109
  208MOL0     C28012  10.415   4.432   4.903 -0.3637  1.1389  0.5260
  208MOL0     H28013  10.040   4.148   4.764 -0.8449  0.6596  1.5468
  208MOL0     H28014   9.818   4.044   4.664 -2.0751  2.3634  2.2764
  208MOL0     H28015   9.615   4.245   4.301  1.0763  1.1776 -0.4948
  208MOL0     H28016   9.755   4.149   4.253 -0.4805 -0.4004 -1.1272
  208MOL0     H28017   9.608   3.945   4.283  0.1625 -0.4521  0.1605
  208MOL0     H28018   9.464   4.046   4.306 -0.3263  0.6351 -1.1532
  208MOL0     H28019   9.514   4.159   4.083 -1.8881  0.0593  2.4085
  208MOL0     H28020   9.656   4.061   4.071  0.1685  1.7557  0.1570
  208MOL0     H28021   9.535   3.854   4.054 -1.5449 -1.4321 -0.7087
  208MOL0     H28022   9.387   3.923   4.093  0.5616 -3.0172 -0.2889
  208MOL0     H28023   9.424   4.071   3.888 -0.0696  0.6981  2.3807
  208MOL0     H28024   9.555   3.967   3.839 -1.0445 -1.1633 -1.5210
  208MOL0     H28025   9.391   3.853   3.732  1.3052 -0.5969  0.5876
  208MOL0     H28026   9.371   3.763   3.883 -1.4858  0.0673 -1.6023
  208MOL0     H28027   9.155   3.813   3.852 -0.1065 -0.0225  1.6174
  208MOL0     H28028   9.206   3.951   3.949  2.9956 -2.8586  2.4905
  208MOL0     H28029   9.255   4.057   3.718  1.6387 -1.6625 -0.9644
  208MOL0     H28030   9.079   4.042   3.755 -0.1331  1.7210 -1.6549
  208MOL0     H28031   8.981   3.815   3.619 -0.1271 -1.6868 -1.0093
  208MOL0     H28032   9.085   3.689   3.263  3.6576 -3.5499  3.8793
  208MOL0     H28033   8.989   3.622   3.396  2.4749 -0.2585  1.1944
  208MOL0     H28034   8.853   3.837   3.384  1.5035  1.6765 -0.5856
  208MOL0     H28035   8.821   3.741   3.239 -1.3412  1.1779  0.9239
  208MOL0     H28036   9.008   3.868   3.122  2.0095  0.9957  0.9130
  208MOL0     H28037   9.005   3.985   3.253 -1.3084  0.9643 -0.3606
  208MOL0     H28038   8.863   4.072   3.103 -0.3927 -0.3475 -1.0994
  208MOL0     H28039   8.753   4.003   3.221  0.3135  1.4872 -0.0302
  208MOL0     H28040   8.570   3.990   3.182  0.7936  1.4896 -1.7579
  208MOL0     H28041   8.224   3.997   3.065  0.5283  1.5555  0.7401
  208MOL0     H28042   8.264   3.915   3.223  0.8221 -4.7618 -1.9166
  208MOL0     H28043   8.354   4.070   3.163  1.2731  0.3027 -1.9221
  208MOL0     H28044   8.158   3.708   2.608 -1.0227  0.7134  0.5099
  208MOL0     H28045   7.946   3.635   2.502  0.1273  3.0533  1.2984
  208MOL0     H28046   7.738   3.590   2.474 -0.8989  0.6088 -0.0994
  208MOL0     H28047   7.830   3.463   2.397  1.1690  0.5413  2.5937
  208MOL0     H28048   7.599   3.463   2.332  0.1322  2.0471  0.1572
  208MOL0     H28049   7.655   3.306   2.402  2.5549  1.2969 -1.1234
  208MOL0     H28050   7.495   3.532   2.522 -2.0804 -0.2529 -0.2253
  208MOL0     H28051   7.535   3.382   2.625 -3.2278 -1.7753 -0.0753
  208MOL0     H28052   7.353   3.409   2.379  1.9970 -1.6329 -1.5135
  208MOL0     H28053   7.394   3.257   2.458 -1.9513 -0.0824 -0.2560
  208MOL0     H28054   7.242   3.489   2.576 -0.3375 -0.8619  1.8851
  208MOL0     H28055   7.284   3.356   2.676  2.1151  2.0139  0.9378
  208MOL0     H28056   7.133   3.335   2.409 -1.0293 -3.4675 -1.1849
  208MOL0     H28057   7.187   3.204   2.515  0.2146 -0.5361 -0.7712
  208MOL0     H28058   7.031   3.407   2.661 -1.9367  1.3647 -1.9818
  208MOL0     H28059   7.032   3.233   2.680  0.0815  1.6642  1.9242
  208MOL0     H28060   6.863   3.392   2.473 -0.7237 -1.4553 -1.7795
  208MOL0     H28061   6.804   3.300   2.603  0.2402 -1.5038  0.8565
  208MOL0     H28062   7.880   3.358   2.819 -1.2170  1.5674 -0.1133
  208MOL0     H28063   8.099   3.423   2.916 -2.5266 -1.3786 -0.5227
  208MOL0     H28064   8.470   3.709   2.792  1.8429 -0.8202 -0.0112
  208MOL0     H28065   8.705   3.768   2.855 -1.0300 -1.5220  0.4115
  208MOL0     H28066   9.819   4.350   4.368  2.6136 -1.9305 -1.7557
  208MOL0     H28067   9.998   4.468   4.489 -1.8239  0.2009  0.2501
  208MOL0     H28068  10.344   4.532   4.590  3.1429  3.0527 -1.4984
  208MOL0     H28069  10.557   4.649   4.628  1.0160 -0.8063  1.0477
  208MOL0     H28070  10.706   4.714   5.015 -1.1000  0.1027 -1.0127
  208MOL0     H28071  10.785   4.547   5.017 -0.6045  0.3358 -0.5337
  208MOL0     H28072  10.962   4.704   5.047 -0.2249 -1.2900 -0.7762
  208MOL0     H28073  10.896   4.827   4.942  0.1621  0.1427  0.5515
  208MOL0     H28074  10.961   4.711   4.748  0.6038  0.2327 -0.5531
  208MOL0     H28075  10.981   4.549   4.828 -3.8116 -0.6574 -0.7164
  208MOL0     H28076  11.204   4.601   4.825  2.9097  1.1692 -0.2369
  208MOL0     H28077  11.163   4.669   4.979  1.0297  1.2087 -0.4742
  208MOL0     H28078  11.286   5.018   4.797 -0.1082 -0.0217  0.8876
  208MOL0     H28079  10.578   4.478   5.028 -1.2697 -0.9114  0.4517
  208MOL0     H28080  10.395   4.365   4.986 -0.3345 -0.9674 -1.0854
  209MOL0     O28081   3.076   4.693   9.534 -0.2310 -0.9093 -0.6832
  209MOL0     C28082   3.147   4.767   9.611 -0.3833 -0.1386 -0.2341
  209MOL0     O28083   3.100   4.892   9.662  0.0880 -0.1947 -0.1253
  209MOL0     C28084   2.957   4.904   9.680 -0.4393 -0.5837  0.1919
  209MOL0     C28085   2.895   4.850   9.788 -0.3727  0.5559 -0.7619
  209MOL0     C28086   2.762   4.863   9.812  0.7634 -0.3675  0.7668
  209MOL0     C28087   2.686   4.968   9.738 -0.1815  0.3490  0.1093
  209MOL0     O28088   2.555   4.998   9.763  0.3722 -0.0020 -0.7120
  209MOL0     C28089   2.464   4.919   9.842  0.3241 -0.2961  0.3323
  209MOL0     C28090   2.330   4.993   9.871 -0.6796 -0.0124  0.5632
  209MOL0     C28091   2.234   4.899   9.944  0.4427  1.1912  0.1860
  209MOL0     C28092   2.114   4.971  10.002 -0.8059  0.1283 -0.5382
  209MOL0     C28093   2.000   4.884  10.033 -0.5098 -0.4606 -0.5190
  209MOL0     C28094   1.878   4.964  10.059 -0.0353  0.4231 -0.1559
  209MOL0     C28095   1.751   4.881  10.086  1.1722 -0.0894  0.8454
  209MOL0     C28096   1.633   4.981  10.077 -0.6191 -0.4935 -0.0970
  209MOL0     N28097   1.505   4.911  10.068 -0.9738  0.1079 -0.8823
  209MOL0     C28098   1.416   4.869  10.163  0.4873  0.7781  0.2806
  209MOL0     C28099   1.323   4.789  10.090 -0.6113 -0.6924 -0.8135
  209MOL0     C28100   1.209   4.715  10.154 -0.3033  0.7028  0.0181
  209MOL0     C28101   1.159   4.586  10.083  1.1237 -0.2196 -0.1510
  209MOL0     C28102   1.047   4.517  10.174  0.3478 -0.1590 -0.5213
  209MOL0     C28103   0.909   4.581  10.153 -0.1321 -0.4429 -0.1304
  209MOL0     O28104   0.825   4.530  10.260 -0.1167 -0.6312 -0.0202
  209MOL0     C28105   0.685   4.536  10.230 -1.2481 -0.3025  0.3670
  209MOL0     C28106   0.597   4.448  10.300 -0.2182  0.1503 -0.2614
  209MOL0     C28107   0.454   4.443  10.276 -0.0609 -0.3677  0.2111
  209MOL0     C28108   0.384   4.341  10.358 -0.3690 -0.4272 -0.2346
  209MOL0     C28109   0.396   4.534  10.192 -0.5077  0.0956 -0.3309
  209MOL0     C28110   0.251   4.524  10.145 -0.6706  0.3878 -0.1607
  209MOL0     O28111   0.168   4.439  10.203  0.1727 -0.4083 -0.0312
  209MOL0     C28112   0.037   4.441  10.163 -0.3577  0.1502  0.5447
  209MOL0     C28113  -0.014   4.339  10.080 -0.4919 -0.7445  0.1350
  209MOL0     C28114  -0.145   4.328  10.049  0.0377 -0.2322  0.3404
  209MOL0     C28115  -0.237   4.427  10.103  0.3471  0.4644 -0.3681
  209MOL0     O28116  -0.369   4.398  10.064  0.5720 -0.6416  0.1899
  209MOL0     C28117  -0.474   4.483  10.126  0.2130  0.6239  0.4646
  209MOL0     C28118  -0.495   4.613  10.052 -0.2825  0.7286  0.2343
  209MOL0     C28119  -0.626   4.668  10.103  1.2709 -0.5896  1.5829
  209MOL0     C28120  -0.676   4.790  10.032  0.2936 -0.6032 -0.1123
  209MOL0     C28121  -0.829   4.790  10.003 -0.6288  0.1007 -0.5093
  209MOL0     C28122  -0.881   4.672   9.906 -0.4509 -0.5370  0.3449
  209MOL0     C28123  -0.810   4.667   9.765  0.0280  1.4646 -0.5949
  209MOL0     C28124  -0.888   4.579   9.676 -1.0239 -0.1198  0.3106
  209MOL0    Cl28125  -0.938   4.415   9.718 -0.2960  0.3748  0.3071
  209MOL0     C28126  -0.185   4.511  10.201  0.1965  0.6463  0.1068
  209MOL0     C28127  -0.050   4.528  10.228 -0.3392 -0.0474 -0.7198
  209MOL0     O28128   0.232   4.598  10.046  0.0570 -0.2085  0.1136
  209MOL0     C28129   0.482   4.625  10.128 -0.7497  0.6620 -0.5814
  209MOL0     C28130   0.626   4.628  10.144  0.3609  0.2696  0.1136
  209MOL0     N28131   1.357   4.794   9.957  0.3041  0.8627  0.2029
  209MOL0     N28132   1.464   4.863   9.953  0.1904 -0.3011 -0.5548
  209MOL0     C28133   2.749   5.035   9.633 -0.6348 -0.1671 -0.2202
  209MOL0     C28134   2.883   4.996   9.605 -0.6312  0.5112 -0.2066
  209MOL0     C28135   3.282   4.721   9.646 -0.6288 -0.7293  0.0764
  209MOL0     C28136   3.321   4.588   9.613 -0.0039 -0.3924 -0.3467
  209MOL0     C28137   3.449   4.543   9.642  0.3779  0.3135  0.4259
  209MOL0     C28138   3.549   4.623   9.706 -0.1685  0.1303  0.0452
  209MOL0     O28139   3.671   4.571   9.743 -0.2336  0.1705  0.3056
  209MOL0     C28140   3.761   4.526   9.637  0.4030 -0.2811  0.0701
  209MOL0     C28141   3.802   4.627   9.530  0.2996 -0.2644  0.4643
  209MOL0     C28142   3.874   4.742   9.597  0.1266  0.2232  0.1627
  209MOL0     C28143   3.903   4.852   9.498 -0.0584  0.1591 -0.2278
  209MOL0     C28144   3.791   4.894   9.406 -0.5218 -0.5928  0.2251
  209MOL0     C28145   3.725   4.954   9.324  0.3265  0.0479  0.6541
  209MOL0     C28146   3.502   4.747   9.746 -1.0403 -0.2151  0.3217
  209MOL0     C28147   3.380   4.805   9.714 -0.3385 -0.1820  0.3196
  209MOL0     H28148   2.959   4.798   9.859  1.4904  4.3326  0.5731
  209MOL0     H28149   2.715   4.812   9.895  1.4081 -0.2700  1.2029
  209MOL0     H28150   2.450   4.820   9.796  0.2013 -0.3732  0.5306
  209MOL0     H28151   2.517   4.908   9.938  0.8133  2.5738  0.4561
  209MOL0     H28152   2.358   5.079   9.931  0.1894  0.2905 -0.2474
  209MOL0     H28153   2.288   5.027   9.776  1.0845  0.5559 -0.0546
  209MOL0     H28154   2.207   4.819   9.874  0.2414 -0.7781  2.3815
  209MOL0     H28155   2.291   4.856  10.027 -0.0516 -1.7199 -0.8636
  209MOL0     H28156   2.145   5.020  10.095  0.6468 -0.7278 -0.5466
  209MOL0     H28157   2.090   5.054   9.936  1.3466  0.8260 -0.4957
  209MOL0     H28158   1.985   4.816   9.949  1.2913  0.2831 -1.4968
  209MOL0     H28159   2.022   4.815  10.115  1.3673  0.2171 -0.4078
  209MOL0     H28160   1.899   5.019  10.152  1.7455  1.1474 -0.9350
  209MOL0     H28161   1.861   5.035   9.978  0.4507 -0.7144 -1.2814
  209MOL0     H28162   1.734   4.813  10.002  0.6309  0.4141  0.5417
  209MOL0     H28163   1.750   4.835  10.185 -1.7666 -1.1522  0.3987
  209MOL0     H28164   1.636   5.042   9.986 -0.4260  0.8712  0.8000
  209MOL0     H28165   1.644   5.035  10.172  1.5093 -1.7825  0.4510
  209MOL0     H28166   1.424   4.884  10.270  2.2761  1.1392  0.1298
  209MOL0     H28167   1.249   4.682  10.250  0.2543  0.8452 -0.1605
  209MOL0     H28168   1.123   4.782  10.166  0.9614  2.0543  2.2850
  209MOL0     H28169   1.242   4.522  10.054  1.4490 -0.5246  1.3784
  209MOL0     H28170   1.124   4.607   9.982  3.1824  0.5210 -0.7557
  209MOL0     H28171   1.077   4.525  10.279  0.3830  0.0195 -0.5441
  209MOL0     H28172   1.052   4.408  10.166  1.4436 -0.1008 -0.7998
  209MOL0     H28173   0.868   4.559  10.054 -3.0808  1.2541  0.6215
  209MOL0     H28174   0.929   4.688  10.156  1.1449 -0.6310 -0.9402
  209MOL0     H28175   0.650   4.386  10.371 -1.1547 -0.7492 -0.3189
  209MOL0     H28176   0.358   4.263  10.286  0.6234 -0.7166 -0.2876
  209MOL0     H28177   0.447   4.292  10.433  0.0716 -1.0854 -1.0238
  209MOL0     H28178   0.297   4.380  10.413 -1.0659  1.3939 -2.5006
  209MOL0     H28179   0.056   4.257  10.062  0.8573  0.6123 -1.0893
  209MOL0     H28180  -0.175   4.238   9.997  1.3187 -0.7830  0.5116
  209MOL0     H28181  -0.560   4.416  10.119  1.5324 -1.0888  0.0322
  209MOL0     H28182  -0.457   4.494  10.233 -0.2606 -0.7206  0.6957
  209MOL0     H28183  -0.410   4.678  10.074  0.3654  0.4930 -1.4382
  209MOL0     H28184  -0.498   4.586   9.946  0.2604 -1.1419  0.6636
  209MOL0     H28185  -0.618   4.698  10.208  1.6870 -0.1379  1.4277
  209MOL0     H28186  -0.692   4.583  10.082  1.2851  0.0314 -1.6188
  209MOL0     H28187  -0.649   4.877  10.092  1.0021 -1.8889  1.5039
  209MOL0     H28188  -0.623   4.797   9.936  2.3432 -3.2065  0.7003
  209MOL0     H28189  -0.857   4.887   9.961  0.3855  1.2805  1.3549
  209MOL0     H28190  -0.882   4.785  10.099 -1.2640  2.0525 -0.7069
  209MOL0     H28191  -0.876   4.574   9.956  0.1802 -0.2666  0.8143
  209MOL0     H28192  -0.985   4.701   9.889 -0.0111  1.4502  0.8025
  209MOL0     H28193  -0.709   4.627   9.780 -0.5673  0.7431  2.1854
  209MOL0     H28194  -0.800   4.770   9.729  0.5378  1.2467 -1.0845
  209MOL0     H28195  -0.839   4.573   9.578 -1.5671  0.4761 -0.0083
  209MOL0     H28196  -0.977   4.637   9.651 -3.1193 -3.1337  0.2367
  209MOL0     H28197  -0.246   4.583  10.254 -0.7072  0.5381 -0.7505
  209MOL0     H28198  -0.014   4.604  10.296  0.3843 -1.4452  0.5362
  209MOL0     H28199   0.448   4.687  10.046 -1.1909 -2.5723 -3.0278
  209MOL0     H28200   0.686   4.691  10.080 -0.5165  1.0059 -0.0203
  209MOL0     H28201   2.700   5.115   9.579  3.3584 -0.4345 -4.9277
  209MOL0     H28202   2.932   5.048   9.522 -0.9169 -0.2095 -0.8407
  209MOL0     H28203   3.252   4.530   9.552 -0.8733  1.1821 -0.8960
  209MOL0     H28204   3.481   4.446   9.608 -0.0376  0.4949 -0.4938
  209MOL0     H28205   3.849   4.474   9.676  0.8052 -1.5683 -2.3340
  209MOL0     H28206   3.704   4.447   9.587  1.2059 -1.8510  1.5343
  209MOL0     H28207   3.713   4.661   9.476  1.2712 -0.2648 -1.2094
  209MOL0     H28208   3.867   4.578   9.457 -1.8717 -2.4132 -0.1412
  209MOL0     H28209   3.971   4.708   9.635  1.9481  3.4932 -1.1406
  209MOL0     H28210   3.807   4.779   9.675 -2.0026 -0.7371 -1.1431
  209MOL0     H28211   3.988   4.831   9.433  0.4738  1.2526  0.0849
  209MOL0     H28212   3.943   4.939   9.550  0.4145  1.1704 -2.1582
  209MOL0     H28213   3.675   5.008   9.246  2.0848 -2.8977 -2.8205
  209MOL0     H28214   3.562   4.820   9.800 -1.2244  0.3580 -0.2279
  209MOL0     H28215   3.357   4.910   9.723 -1.8033 -0.4882  0.4941
  210MOL0     O28216  10.109  10.687   2.119 -0.0192 -0.0724 -0.1506
  210MOL0     C28217  10.198  10.683   2.201  0.2981  0.0182 -0.1325
  210MOL0     O28218  10.190  10.657   2.331  1.0860  0.2575 -0.9066
  210MOL0     C28219  10.081  10.589   2.382  1.0423  0.4860 -0.0029
  210MOL0     C28220  10.041  10.459   2.350  0.2517 -0.3376  0.9339
  210MOL0     C28221   9.936  10.400   2.428 -0.1162  0.5104  0.0627
  210MOL0     C28222   9.862  10.468   2.518 -0.1685  0.3262 -0.1168
  210MOL0     O28223   9.753  10.405   2.584  0.4979  0.3525  0.3924
  210MOL0     C28224   9.623  10.464   2.607  0.5815 -0.0713  0.4849
  210MOL0     C28225   9.509  10.382   2.548 -0.5225  0.8633 -0.1441
  210MOL0     C28226   9.493  10.237   2.617 -0.4439 -0.3687  0.4421
  210MOL0     C28227   9.373  10.161   2.574  0.2215 -0.0200 -0.1139
  210MOL0     C28228   9.344  10.036   2.651  0.3182  0.9037 -0.0441
  210MOL0     C28229   9.235   9.963   2.567  0.0996 -0.8665  0.0546
  210MOL0     C28230   9.245   9.810   2.585  0.0672  0.0343 -0.5433
  210MOL0     C28231   9.228   9.762   2.732 -0.1402  0.1237 -0.0190
  210MOL0     N28232   9.098   9.795   2.793  0.4817  0.1382  0.6340
  210MOL0     C28233   8.993   9.706   2.808  0.0009 -0.6768  0.4518
  210MOL0     C28234   8.905   9.763   2.898 -0.3222  0.6095  0.8344
  210MOL0     C28235   8.792   9.700   2.965 -0.6576 -0.0731  0.1693
  210MOL0     C28236   8.656   9.757   2.934  0.9190 -0.0670  0.0054
  210MOL0     C28237   8.638   9.902   2.973 -0.3610  0.6616  0.0363
  210MOL0     C28238   8.490   9.949   2.955 -0.3270 -0.1115 -0.1471
  210MOL0     O28239   8.431   9.892   3.072  0.8907  0.3089 -0.6750
  210MOL0     C28240   8.293   9.901   3.097 -0.3212  1.2415 -0.0015
  210MOL0     C28241   8.201   9.958   3.016  0.6261  0.0395 -0.4120
  210MOL0     C28242   8.065   9.969   3.057 -0.5005 -0.1847  0.2291
  210MOL0     C28243   7.951  10.011   2.959 -0.1770 -0.0323 -1.1907
  210MOL0     C28244   8.035   9.928   3.191  0.1621 -0.5097 -0.7753
  210MOL0     C28245   7.896   9.946   3.257 -0.4155 -0.2481 -0.1981
  210MOL0     O28246   7.877   9.905   3.394 -0.9945 -0.3981 -0.0992
  210MOL0     C28247   7.754   9.937   3.445 -0.2671 -0.3007 -0.8243
  210MOL0     C28248   7.754  10.033   3.553 -0.3485  0.7272  0.7507
  210MOL0     C28249   7.634  10.062   3.621  0.1222 -0.4324 -0.6783
  210MOL0     C28250   7.517   9.999   3.585 -0.6507 -0.0603 -0.1185
  210MOL0     O28251   7.405  10.024   3.662 -0.2067 -0.2138 -0.0927
  210MOL0     C28252   7.280  10.040   3.592  0.5227  0.4981  1.2244
  210MOL0     C28253   7.163  10.098   3.683 -0.5888 -0.3785 -0.1181
  210MOL0     C28254   7.021  10.049   3.646  0.1610  0.3782 -1.0098
  210MOL0     C28255   6.961  10.087   3.513 -0.0494  0.1738 -0.2832
  210MOL0     C28256   6.824  10.033   3.501 -0.0107  0.4152 -0.1141
  210MOL0     C28257   6.782  10.050   3.349 -0.5975  0.6369  0.8967
  210MOL0     C28258   6.627  10.031   3.347  0.3739  0.0622  0.0857
  210MOL0     C28259   6.586  10.037   3.209  0.0888  0.1595  0.1007
  210MOL0    Cl28260   6.424   9.965   3.208 -0.1487 -0.2280  0.8407
  210MOL0     C28261   7.521   9.905   3.485  0.6259 -0.8941 -0.6778
  210MOL0     C28262   7.638   9.872   3.412  0.3217 -0.8263  0.2304
  210MOL0     O28263   7.805  10.001   3.190 -1.1235  0.4858 -0.5586
  210MOL0     C28264   8.133   9.871   3.274 -0.5064 -0.9750 -0.0082
  210MOL0     C28265   8.263   9.860   3.226  0.2081  0.6040 -0.1612
  210MOL0     N28266   8.956   9.894   2.915 -0.8023 -0.4662 -0.0237
  210MOL0     N28267   9.068   9.908   2.856  0.1151  0.1607 -0.3953
  210MOL0     C28268   9.883  10.606   2.529  0.6997  0.3381  0.1527
  210MOL0     C28269   9.993  10.664   2.463 -0.3636 -0.6569 -0.1322
  210MOL0     C28270  10.325  10.740   2.162  0.0234 -0.3935 -0.6326
  210MOL0     C28271  10.377  10.723   2.038  0.2286 -0.0523  0.2093
  210MOL0     C28272  10.496  10.788   1.990  0.7212 -0.3745 -0.5409
  210MOL0     C28273  10.566  10.873   2.080 -0.8573  0.7958  0.3658
  210MOL0     O28274  10.686  10.936   2.049  0.4099  0.1079 -0.0972
  210MOL0     C28275  10.750  10.917   1.919  0.1453 -0.2091  0.5991
  210MOL0     C28276  10.852  10.813   1.918 -0.4866  0.1732  0.6923
  210MOL0     C28277  10.983  10.858   1.975  0.2387  0.2232 -0.1326
  210MOL0     C28278  11.101  10.757   1.988 -0.2702  0.5492  0.5020
  210MOL0     C28279  11.182  10.781   2.103 -0.0805  0.0553  0.3940
  210MOL0     C28280  11.256  10.802   2.194  0.5628  0.5096 -0.4762
  210MOL0     C28281  10.512  10.896   2.199  0.9732  0.1058  0.3119
  210MOL0     C28282  10.393  10.833   2.244  0.3128  0.1262 -0.4687
  210MOL0     H28283  10.098  10.403   2.277 -2.2890 -0.8974 -0.7630
  210MOL0     H28284   9.918  10.294   2.413 -0.7073  0.8995 -2.3701
  210MOL0     H28285   9.613  10.462   2.716  2.2699 -0.0009  0.6579
  210MOL0     H28286   9.616  10.567   2.573 -2.2853 -0.9734 -2.2012
  210MOL0     H28287   9.421  10.444   2.569  1.4931  3.2780  2.0146
  210MOL0     H28288   9.515  10.360   2.442 -0.4646 -1.6323  0.3247
  210MOL0     H28289   9.572  10.174   2.574 -2.4663 -1.3365 -2.1328
  210MOL0     H28290   9.501  10.242   2.726 -0.4136  0.5128  0.4049
  210MOL0     H28291   9.291  10.229   2.598  2.1162  1.4997  2.7101
  210MOL0     H28292   9.386  10.135   2.469 -0.7265  0.0859 -0.2660
  210MOL0     H28293   9.428   9.966   2.656  1.8650  2.6089 -0.9296
  210MOL0     H28294   9.305  10.064   2.749 -1.4421  0.3622 -0.5430
  210MOL0     H28295   9.136   9.993   2.601  0.1994 -0.4335 -0.0337
  210MOL0     H28296   9.249   9.990   2.462  0.6985  0.3093  0.4115
  210MOL0     H28297   9.165   9.772   2.521 -0.1323  2.6041 -1.9683
  210MOL0     H28298   9.345   9.775   2.555  0.3196 -0.7810  1.1125
  210MOL0     H28299   9.301   9.810   2.797 -1.6410 -0.0022  1.8615
  210MOL0     H28300   9.236   9.653   2.731  0.4112  0.0220 -4.8001
  210MOL0     H28301   8.983   9.604   2.771 -0.3398 -0.7845  0.8305
  210MOL0     H28302   8.788   9.594   2.940  0.5908  0.2180 -1.4436
  210MOL0     H28303   8.802   9.703   3.074 -3.6925  0.8697  0.5218
  210MOL0     H28304   8.588   9.705   3.003  1.5498  1.8949  2.2375
  210MOL0     H28305   8.625   9.748   2.829 -1.8146  3.2522  0.3272
  210MOL0     H28306   8.701   9.961   2.906 -2.1783 -0.6614 -3.0362
  210MOL0     H28307   8.675   9.911   3.075  0.4344  1.8249 -0.3404
  210MOL0     H28308   8.447   9.924   2.858 -1.2037  0.6082  0.0360
  210MOL0     H28309   8.481  10.057   2.969 -0.0221 -0.1773  0.6333
  210MOL0     H28310   8.222   9.983   2.912 -0.7111  1.6685 -0.3228
  210MOL0     H28311   7.895  10.098   2.996 -2.1095 -0.8659 -2.0090
  210MOL0     H28312   7.983  10.027   2.856 -0.7530 -1.6502 -1.6547
  210MOL0     H28313   7.889   9.921   2.951  0.8464 -0.7211 -1.5575
  210MOL0     H28314   7.846  10.088   3.574  0.5223 -0.2933 -0.2078
  210MOL0     H28315   7.627  10.132   3.703  0.7791 -1.9899  0.7806
  210MOL0     H28316   7.311  10.108   3.513  0.6177  0.6157  1.3622
  210MOL0     H28317   7.247   9.946   3.546 -0.7754  2.1659 -1.4818
  210MOL0     H28318   7.188  10.085   3.789 -1.8795 -2.3131  0.0023
  210MOL0     H28319   7.145  10.204   3.665 -2.9721 -0.2316  2.3972
  210MOL0     H28320   6.949  10.054   3.728  0.6435  1.1763 -0.6287
  210MOL0     H28321   7.042   9.942   3.635 -3.2227 -0.3606 -1.4295
  210MOL0     H28322   6.973  10.194   3.494  1.2052 -0.5138 -4.6115
  210MOL0     H28323   7.025  10.040   3.437 -1.0908 -1.6701 -0.0890
  210MOL0     H28324   6.760  10.085   3.573 -2.2076 -2.5282  0.2406
  210MOL0     H28325   6.811   9.928   3.529  1.2895  0.4441  0.6768
  210MOL0     H28326   6.818  10.148   3.316  1.9376 -0.2843  0.6916
  210MOL0     H28327   6.831   9.978   3.284  1.1629  2.4661  0.0800
  210MOL0     H28328   6.576  10.102   3.412 -2.1122 -0.1150 -1.5241
  210MOL0     H28329   6.600   9.934   3.389 -1.9813  1.4224  1.9490
  210MOL0     H28330   6.646   9.965   3.153  0.0055 -0.5607  0.9048
  210MOL0     H28331   6.590  10.139   3.170  0.7128  0.1197  0.0532
  210MOL0     H28332   7.427   9.856   3.461 -2.9289  4.2735  0.9741
  210MOL0     H28333   7.634   9.793   3.337 -1.3857 -1.0613  0.5211
  210MOL0     H28334   8.109   9.825   3.369  0.1826 -2.8937 -0.7016
  210MOL0     H28335   8.349   9.814   3.274  1.8651  4.2578  0.7750
  210MOL0     H28336   9.822  10.657   2.603  0.5128 -1.2837  1.1729
  210MOL0     H28337  10.011  10.771   2.466  1.9153 -0.9503 -1.2708
  210MOL0     H28338  10.321  10.662   1.968  0.6842 -2.8246  2.0978
  210MOL0     H28339  10.529  10.751   1.894  0.5917 -2.0136  0.0242
  210MOL0     H28340  10.681  10.884   1.840  0.7070  0.3087 -0.1196
  210MOL0     H28341  10.787  11.005   1.867  2.3946 -2.3333 -1.6952
  210MOL0     H28342  10.874  10.788   1.814 -0.1173  6.3706 -1.1489
  210MOL0     H28343  10.813  10.722   1.964 -2.0536 -0.1651 -1.1836
  210MOL0     H28344  10.952  10.892   2.075  2.0354  1.0677  0.1768
  210MOL0     H28345  11.019  10.941   1.914  3.2772  0.6079  1.9845
  210MOL0     H28346  11.154  10.764   1.892 -2.6991 -1.1402 -1.0984
  210MOL0     H28347  11.051  10.660   1.987 -0.3647  0.5868  1.3734
  210MOL0     H28348  11.316  10.830   2.278  0.6915  1.2569 -0.8115
  210MOL0     H28349  10.563  10.962   2.269 -2.3996  5.1599 -1.3989
  210MOL0     H28350  10.351  10.852   2.342  1.0336 -0.9814  0.0832
  211MOL0     O28351   5.205   0.113   1.564 -0.3417 -0.3286 -0.7507
  211MOL0     C28352   5.207  -0.003   1.536 -0.3835  0.2672  0.6979
  211MOL0     O28353   5.106  -0.091   1.551 -0.3226 -0.1364  0.2446
  211MOL0     C28354   4.985  -0.045   1.595  0.3679  0.3467  0.4939
  211MOL0     C28355   4.960  -0.005   1.728  0.6199  0.0845  0.3813
  211MOL0     C28356   4.831   0.044   1.773  0.0685 -0.3964  0.0009
  211MOL0     C28357   4.727   0.056   1.671  1.3800  0.4353 -0.0977
  211MOL0     O28358   4.602   0.106   1.702  0.3352 -0.1817 -0.1585
  211MOL0     C28359   4.590   0.212   1.790 -0.5729  0.5452 -1.3381
  211MOL0     C28360   4.468   0.284   1.756 -0.6589 -0.0327  0.1347
  211MOL0     C28361   4.343   0.232   1.822  0.0129 -0.5394  0.5361
  211MOL0     C28362   4.299   0.096   1.765 -0.7581  0.3754  0.5450
  211MOL0     C28363   4.156   0.067   1.793  0.3002 -0.3977 -0.8393
  211MOL0     C28364   4.131   0.046   1.947 -0.7726 -0.3850 -0.0283
  211MOL0     C28365   3.999  -0.030   1.975 -0.4385  0.4457 -0.3459
  211MOL0     C28366   3.887   0.064   2.012 -0.0893 -0.3474  0.7473
  211MOL0     N28367   3.759  -0.012   2.015 -0.0943 -0.7598 -0.4058
  211MOL0     C28368   3.647   0.014   1.937  0.6334 -0.4561  1.0632
  211MOL0     C28369   3.561  -0.087   1.968  0.5759  0.2718 -0.4035
  211MOL0     C28370   3.429  -0.124   1.904  0.6351 -0.3593  0.4672
  211MOL0     C28371   3.333  -0.202   1.999 -1.2248  0.6834  0.3352
  211MOL0     C28372   3.273  -0.107   2.102  0.1787  0.5307  0.5295
  211MOL0     C28373   3.152  -0.178   2.174 -0.1267  0.1435 -0.2632
  211MOL0     O28374   3.097  -0.070   2.260 -0.1421 -0.0198 -0.0968
  211MOL0     C28375   2.967  -0.072   2.302 -0.2198 -0.0949  0.3082
  211MOL0     C28376   2.914   0.033   2.368  0.5254 -0.1462  0.0451
  211MOL0     C28377   2.780   0.033   2.405 -0.0748  0.1339 -0.0356
  211MOL0     C28378   2.735   0.159   2.472 -0.5334  0.9886  0.4759
  211MOL0     C28379   2.694  -0.079   2.388 -0.0639 -0.7429 -1.0306
  211MOL0     C28380   2.558  -0.091   2.444  0.1600 -0.6266 -1.5086
  211MOL0     O28381   2.519   0.000   2.539 -0.4090  0.6905  0.3201
  211MOL0     C28382   2.459  -0.056   2.646 -0.6208 -0.4279  0.3853
  211MOL0     C28383   2.354   0.023   2.694 -0.4225 -0.8297  0.2710
  211MOL0     C28384   2.293  -0.016   2.808  0.1764  0.8081 -0.2768
  211MOL0     C28385   2.323  -0.131   2.874 -0.9197 -0.4012  0.7016
  211MOL0     O28386   2.240  -0.162   2.975  0.3133  0.6755 -0.0674
  211MOL0     C28387   2.251  -0.296   3.017 -0.0964 -0.1691  0.4273
  211MOL0     C28388   2.144  -0.334   3.129  0.1818  0.3738 -0.2370
  211MOL0     C28389   2.001  -0.297   3.074  0.2100 -0.1290 -0.1663
  211MOL0     C28390   1.907  -0.267   3.191  0.1423  0.5891  1.6854
  211MOL0     C28391   1.771  -0.214   3.135  0.3576 -0.3360  0.6106
  211MOL0     C28392   1.666  -0.182   3.252 -0.2667  0.3356  0.1051
  211MOL0     C28393   1.536  -0.122   3.199  0.0479  0.0695  0.6688
  211MOL0     C28394   1.427  -0.218   3.232  0.5848 -0.0495  0.1196
  211MOL0    Cl28395   1.387  -0.221   3.411 -0.3034 -0.2818 -0.0259
  211MOL0     C28396   2.424  -0.211   2.821 -0.0077  0.2236 -0.3541
  211MOL0     C28397   2.501  -0.169   2.712  0.0551  0.4678 -0.0679
  211MOL0     O28398   2.495  -0.191   2.415  0.2089 -0.4023  0.4068
  211MOL0     C28399   2.756  -0.190   2.324 -0.4024  0.5268  0.0985
  211MOL0     C28400   2.889  -0.186   2.284 -0.0895  0.8266 -0.4214
  211MOL0     N28401   3.624  -0.165   2.060 -0.8074 -0.0291 -0.5399
  211MOL0     N28402   3.746  -0.119   2.087  0.2472  0.2122 -0.6953
  211MOL0     C28403   4.754   0.014   1.540 -0.2846  0.9671 -0.1701
  211MOL0     C28404   4.884  -0.028   1.495  0.0233 -0.4767 -0.1163
  211MOL0     C28405   5.338  -0.060   1.497 -0.0857 -0.8034  0.4645
  211MOL0     C28406   5.365  -0.199   1.500  0.2720 -0.1022  0.2383
  211MOL0     C28407   5.490  -0.253   1.457  0.8380  0.2884  0.2433
  211MOL0     C28408   5.595  -0.168   1.408 -0.0252 -0.3630  0.5055
  211MOL0     O28409   5.717  -0.227   1.376  0.4874  0.7017  0.1001
  211MOL0     C28410   5.832  -0.157   1.403  0.1516  0.5447 -0.6277
  211MOL0     C28411   5.958  -0.253   1.391 -0.4319  0.0166  1.4161
  211MOL0     C28412   5.968  -0.349   1.511  0.5938 -0.5578  0.5283
  211MOL0     C28413   6.071  -0.468   1.486  0.1098  0.3181 -0.5157
  211MOL0     C28414   6.198  -0.407   1.433  0.2901  0.0450 -0.4005
  211MOL0     C28415   6.309  -0.359   1.395  0.9101  0.5313  0.3117
  211MOL0     C28416   5.564  -0.029   1.407 -0.3860  0.6185 -0.6014
  211MOL0     C28417   5.444   0.020   1.449  0.5569  0.4126 -0.6950
  211MOL0     H28418   5.036  -0.006   1.806 -1.8437  0.5631  2.9841
  211MOL0     H28419   4.809   0.080   1.873 -3.0430  1.4844 -1.2158
  211MOL0     H28420   4.577   0.174   1.891  0.2020  0.6196 -1.2075
  211MOL0     H28421   4.679   0.276   1.789 -0.2952  0.2320  0.6496
  211MOL0     H28422   4.478   0.385   1.797 -1.6965  0.2133 -0.1756
  211MOL0     H28423   4.459   0.298   1.648  0.4059 -1.1316 -0.1184
  211MOL0     H28424   4.353   0.227   1.931 -1.4329 -2.9229  0.6436
  211MOL0     H28425   4.265   0.305   1.799 -0.3060 -0.3888  1.9813
  211MOL0     H28426   4.321   0.089   1.658  1.6612  0.0126  1.0101
  211MOL0     H28427   4.366   0.028   1.819  0.8520  1.1079 -0.4470
  211MOL0     H28428   4.083   0.143   1.767 -1.9659 -1.4584  1.8917
  211MOL0     H28429   4.135  -0.025   1.737 -1.2048  0.6570 -2.0907
  211MOL0     H28430   4.211  -0.022   1.981  0.0580 -0.2001 -1.5484
  211MOL0     H28431   4.147   0.133   2.012 -0.9752  1.0219 -1.8046
  211MOL0     H28432   3.976  -0.085   1.883  3.3456 -0.6060 -0.8270
  211MOL0     H28433   4.010  -0.087   2.067 -1.4319  1.7957  0.6558
  211MOL0     H28434   3.878   0.146   1.941  3.4656  0.1960  0.7947
  211MOL0     H28435   3.912   0.095   2.113  0.4705  0.1720  0.4504
  211MOL0     H28436   3.633   0.085   1.855 -0.2087 -0.1138  1.4869
  211MOL0     H28437   3.380  -0.035   1.864  0.8099 -0.3678  0.2314
  211MOL0     H28438   3.480  -0.184   1.828 -0.0406 -1.0463  0.5487
  211MOL0     H28439   3.390  -0.275   2.057  3.2901  4.0442  0.6598
  211MOL0     H28440   3.257  -0.262   1.948 -1.4402 -0.1602  1.5925
  211MOL0     H28441   3.238  -0.017   2.050 -4.3103 -0.1820  1.8626
  211MOL0     H28442   3.344  -0.081   2.181 -2.0937  2.5129  2.0887
  211MOL0     H28443   3.198  -0.262   2.227 -0.0421 -0.5050 -1.3403
  211MOL0     H28444   3.074  -0.212   2.105  1.0976 -0.1502 -1.5273
  211MOL0     H28445   2.972   0.121   2.394 -0.7328  0.3682  1.2593
  211MOL0     H28446   2.763   0.141   2.576 -0.1231 -0.3416  0.1622
  211MOL0     H28447   2.802   0.240   2.440 -0.1494 -0.0359 -1.5239
  211MOL0     H28448   2.633   0.193   2.451 -0.7131  1.5110  2.0668
  211MOL0     H28449   2.323   0.113   2.641  0.4003 -1.4532 -1.3395
  211MOL0     H28450   2.202   0.035   2.837 -0.6581 -0.1669 -1.1227
  211MOL0     H28451   2.244  -0.359   2.928 -1.4668  0.0425  0.3664
  211MOL0     H28452   2.349  -0.309   3.065 -1.4359 -1.4914  3.0309
  211MOL0     H28453   2.152  -0.433   3.174  0.1614 -0.0338 -1.1132
  211MOL0     H28454   2.179  -0.270   3.211  1.8566  0.9942 -1.3706
  211MOL0     H28455   1.979  -0.382   3.009  0.6462 -1.5900  1.5124
  211MOL0     H28456   2.007  -0.211   3.007  2.0830 -0.0722  0.0032
  211MOL0     H28457   1.878  -0.353   3.251 -2.8530 -0.4237 -0.9280
  211MOL0     H28458   1.950  -0.189   3.254 -1.7585  2.0942  1.2144
  211MOL0     H28459   1.724  -0.286   3.067  0.0622 -0.4882  0.9742
  211MOL0     H28460   1.796  -0.133   3.066 -1.9437  0.0108  0.0983
  211MOL0     H28461   1.650  -0.275   3.308 -0.9308  1.3874  1.7135
  211MOL0     H28462   1.709  -0.108   3.320 -0.4869 -0.3737  1.0413
  211MOL0     H28463   1.542  -0.099   3.092 -2.5194 -0.4669  0.3422
  211MOL0     H28464   1.510  -0.031   3.254  1.3655  1.1752 -0.4636
  211MOL0     H28465   1.444  -0.320   3.195 -1.0245 -0.0570 -0.7139
  211MOL0     H28466   1.339  -0.194   3.171 -0.3404  1.5567  1.9886
  211MOL0     H28467   2.464  -0.306   2.854 -1.0413 -0.9094 -2.1965
  211MOL0     H28468   2.577  -0.235   2.670  0.2366  0.6116  0.0327
  211MOL0     H28469   2.684  -0.268   2.304 -0.8407  0.5572  1.4210
  211MOL0     H28470   2.927  -0.284   2.256 -0.2722  0.2564  1.1744
  211MOL0     H28471   4.669   0.021   1.472  0.6562 -1.4533 -1.6914
  211MOL0     H28472   4.913  -0.050   1.393 -4.5647 -1.2785 -1.4617
  211MOL0     H28473   5.283  -0.263   1.531  2.1866 -2.4176  0.7996
  211MOL0     H28474   5.515  -0.358   1.465  2.8290  0.7825  1.2131
  211MOL0     H28475   5.842  -0.071   1.337 -1.2714  0.3979 -1.0721
  211MOL0     H28476   5.832  -0.112   1.503 -1.8542  1.3472 -0.9530
  211MOL0     H28477   6.049  -0.194   1.380 -0.9729  0.3745 -2.8772
  211MOL0     H28478   5.938  -0.305   1.296 -1.9851  1.6918  0.7600
  211MOL0     H28479   5.863  -0.380   1.515 -0.8584  2.5321 -4.2217
  211MOL0     H28480   5.994  -0.291   1.600  1.8173 -1.2616  0.6504
  211MOL0     H28481   6.029  -0.537   1.412 -0.7541  0.5043 -0.2072
  211MOL0     H28482   6.097  -0.535   1.568 -0.8764 -2.8549 -2.6069
  211MOL0     H28483   6.402  -0.308   1.382  2.1277 -1.4062  0.9242
  211MOL0     H28484   5.632   0.046   1.367 -1.7294  0.9605 -2.3799
  211MOL0     H28485   5.428   0.127   1.452  2.2900  0.6828  0.3715
  212MOL0     O28486   8.434  10.093   4.047  0.2161  0.2884 -0.1163
  212MOL0     C28487   8.519  10.074   4.131  0.3139  0.2303  0.3516
  212MOL0     O28488   8.497  10.032   4.266  0.3543  0.0131  0.3744
  212MOL0     C28489   8.374  10.015   4.328  0.1245  0.0736 -0.3152
  212MOL0     C28490   8.247  10.039   4.276  0.7672  0.3198 -0.0832
  212MOL0     C28491   8.133  10.004   4.353  0.9455  0.0617  0.1808
  212MOL0     C28492   8.145   9.950   4.482  0.4642 -0.1736 -0.1788
  212MOL0     O28493   8.043   9.908   4.559  0.1136  0.5585 -0.8945
  212MOL0     C28494   7.980  10.013   4.646  0.4819 -0.7243 -0.3774
  212MOL0     C28495   7.908   9.956   4.764 -0.0134 -0.1625 -0.7019
  212MOL0     C28496   7.776   9.884   4.721 -0.6018 -0.7602 -0.3735
  212MOL0     C28497   7.712   9.845   4.851  0.1404 -0.4861  0.3617
  212MOL0     C28498   7.576   9.787   4.827  0.5497  0.1375 -0.5356
  212MOL0     C28499   7.575   9.634   4.809  0.0614  0.0138 -0.3732
  212MOL0     C28500   7.439   9.569   4.783  0.3944  0.5400  0.1136
  212MOL0     C28501   7.341   9.585   4.904  0.5700  1.0303 -0.4585
  212MOL0     N28502   7.209   9.528   4.885 -0.6866 -0.3193 -0.1435
  212MOL0     C28503   7.152   9.530   4.760  0.6736  0.4127  0.1334
  212MOL0     C28504   7.050   9.439   4.764  0.6276  0.2649 -0.4912
  212MOL0     C28505   6.942   9.407   4.671 -0.2789 -0.1567  0.5829
  212MOL0     C28506   6.806   9.424   4.736  1.2943  0.2653 -0.0713
  212MOL0     C28507   6.770   9.562   4.784  0.2080  0.6369  1.1072
  212MOL0     C28508   6.632   9.582   4.844  0.0331 -0.0324 -0.0159
  212MOL0     O28509   6.544   9.571   4.730 -0.3083  0.6787  0.1094
  212MOL0     C28510   6.417   9.618   4.746  0.3338  0.3484  0.5594
  212MOL0     C28511   6.349   9.676   4.635  0.0104 -0.6356  0.3691
  212MOL0     C28512   6.228   9.741   4.652 -0.0987 -1.2034 -1.2559
  212MOL0     C28513   6.169   9.811   4.529  0.1555  0.5450 -0.6079
  212MOL0     C28514   6.162   9.751   4.780 -0.0280  0.7702 -1.3566
  212MOL0     C28515   6.021   9.806   4.813 -0.2984 -0.0365  0.2038
  212MOL0     O28516   5.976   9.801   4.943 -0.1125  0.1223  0.1582
  212MOL0     C28517   5.853   9.873   4.955 -0.8830  0.2712  0.2083
  212MOL0     C28518   5.728   9.816   4.969 -0.1247  0.2643 -0.1377
  212MOL0     C28519   5.617   9.893   5.012 -0.4228 -0.0464  0.2569
  212MOL0     C28520   5.627  10.029   5.043 -1.1663  0.0661  0.2426
  212MOL0     O28521   5.513  10.082   5.090  0.4358  0.0760 -0.6216
  212MOL0     C28522   5.517  10.207   5.150  0.0604 -0.4533 -0.6447
  212MOL0     C28523   5.383  10.245   5.220  1.1370  0.4446 -0.5593
  212MOL0     C28524   5.265  10.249   5.121  0.1343 -0.2649  0.1500
  212MOL0     C28525   5.131  10.259   5.198  0.5763  0.1857  0.1082
  212MOL0     C28526   5.014  10.265   5.093 -0.1579  0.1904 -0.5494
  212MOL0     C28527   4.875  10.276   5.169  0.5717  0.6245  0.0809
  212MOL0     C28528   4.756  10.235   5.088 -0.2148  0.2650 -0.2812
  212MOL0     C28529   4.616  10.252   5.161  0.0330 -0.5687  0.1511
  212MOL0    Cl28530   4.634  10.238   5.331 -0.0249  0.1880 -0.0574
  212MOL0     C28531   5.756  10.089   5.023  0.6294  0.3027  0.5740
  212MOL0     C28532   5.863  10.008   4.987 -0.1144  0.7098 -0.2019
  212MOL0     O28533   5.958   9.855   4.718  0.1447 -0.1624  0.2852
  212MOL0     C28534   6.228   9.683   4.885 -0.2068  0.1996  0.1698
  212MOL0     C28535   6.352   9.623   4.866 -0.5603 -0.2305 -0.3386
  212MOL0     N28536   7.054   9.376   4.889  0.4214  0.0331  0.1006
  212MOL0     N28537   7.150   9.429   4.966  0.1634  0.0623  0.1475
  212MOL0     C28538   8.269   9.934   4.536  0.3841 -0.3101  0.0348
  212MOL0     C28539   8.380   9.967   4.459 -1.1961  0.5672  0.5292
  212MOL0     C28540   8.656  10.060   4.087  0.1714  0.4989  0.1514
  212MOL0     C28541   8.767  10.069   4.177  0.0596 -0.9867  0.1493
  212MOL0     C28542   8.898  10.055   4.131  0.1724  0.1487  0.3001
  212MOL0     C28543   8.932  10.034   3.993 -0.0309  0.2896  0.3445
  212MOL0     O28544   9.064  10.034   3.944 -0.6445 -0.2268 -0.6181
  212MOL0     C28545   9.172  10.006   4.031 -0.2227 -0.5636 -0.0157
  212MOL0     C28546   9.287  10.059   3.960 -0.4012  0.3259 -0.5079
  212MOL0     C28547   9.414  10.043   4.048  0.5988 -0.7251 -0.0115
  212MOL0     C28548   9.535  10.111   3.982 -0.6001  0.8006  0.0229
  212MOL0     C28549   9.538  10.255   4.012  0.0153 -0.2578  0.7205
  212MOL0     C28550   9.527  10.375   4.026  0.0673  0.0329  0.3713
  212MOL0     C28551   8.820  10.029   3.908  0.1918 -0.6992 -0.8767
  212MOL0     C28552   8.686  10.039   3.954  0.9189  0.1871 -0.3423
  212MOL0     H28553   8.228  10.066   4.173 -1.3231  2.1327  0.7031
  212MOL0     H28554   8.026  10.005   4.336  0.7793  0.8647  1.1890
  212MOL0     H28555   8.054  10.077   4.696  1.3815 -1.5877 -0.5681
  212MOL0     H28556   7.915  10.081   4.591  0.0797  0.7948  1.8447
  212MOL0     H28557   7.977   9.882   4.807  0.0403 -0.0745 -0.6377
  212MOL0     H28558   7.887  10.033   4.838 -1.8511 -0.5642 -0.7545
  212MOL0     H28559   7.711   9.955   4.670  2.2421  0.9854 -1.8691
  212MOL0     H28560   7.792   9.807   4.645  1.2764  0.4600 -1.3040
  212MOL0     H28561   7.776   9.776   4.906  1.5845  0.7586  0.3024
  212MOL0     H28562   7.698   9.933   4.914 -0.4537  0.0013 -0.4262
  212MOL0     H28563   7.525   9.799   4.923 -1.8545  0.1780 -1.7485
  212MOL0     H28564   7.528   9.838   4.744  0.9026  1.7052  0.1983
  212MOL0     H28565   7.645   9.615   4.727  1.9879 -4.2230  1.9388
  212MOL0     H28566   7.620   9.593   4.900 -1.1211  0.5365  0.4657
  212MOL0     H28567   7.393   9.599   4.688  2.5542  0.2943 -1.0801
  212MOL0     H28568   7.454   9.462   4.763 -2.1837  0.4094 -1.5697
  212MOL0     H28569   7.325   9.690   4.932 -2.2990  0.8239 -0.9716
  212MOL0     H28570   7.388   9.552   4.997 -0.4807 -1.0333 -0.5886
  212MOL0     H28571   7.177   9.597   4.678  0.1603 -0.2932 -0.6177
  212MOL0     H28572   6.943   9.466   4.579 -0.9326 -1.7962 -0.5464
  212MOL0     H28573   6.964   9.306   4.635  0.1728  0.0189  0.3584
  212MOL0     H28574   6.802   9.350   4.816  0.4595  1.8201  1.4034
  212MOL0     H28575   6.725   9.399   4.667  1.2238  1.9049 -0.6361
  212MOL0     H28576   6.788   9.639   4.709  0.8456  1.3319  1.9529
  212MOL0     H28577   6.844   9.560   4.865 -0.6202 -2.7753  1.9406
  212MOL0     H28578   6.622   9.677   4.898  0.1392  0.0090 -0.0676
  212MOL0     H28579   6.606   9.498   4.909 -0.4530 -0.6903 -1.0363
  212MOL0     H28580   6.403   9.655   4.543  1.6865 -2.5753  1.6874
  212MOL0     H28581   6.141   9.913   4.556  3.3074  1.5267 -0.6078
  212MOL0     H28582   6.230   9.823   4.439  0.3244  0.9422 -0.4456
  212MOL0     H28583   6.082   9.756   4.491  0.6549 -0.0814 -0.8587
  212MOL0     H28584   5.712   9.710   4.952 -2.6406  0.2079  1.9641
  212MOL0     H28585   5.536   9.821   5.021  0.3159 -1.2536 -1.9812
  212MOL0     H28586   5.591  10.207   5.231 -1.9998  3.7241  1.5463
  212MOL0     H28587   5.542  10.284   5.077  0.5719 -0.6985 -0.7320
  212MOL0     H28588   5.367  10.166   5.294 -0.9109 -0.7981 -2.2251
  212MOL0     H28589   5.385  10.342   5.271 -0.5496  1.1015 -1.6511
  212MOL0     H28590   5.259  10.154   5.067 -4.1286 -1.1150  1.6871
  212MOL0     H28591   5.296  10.330   5.054 -0.4830 -1.2431 -1.3719
  212MOL0     H28592   5.118  10.174   5.264  2.3068 -0.2358 -0.0479
  212MOL0     H28593   5.127  10.343   5.268 -0.9109 -0.8206  1.2854
  212MOL0     H28594   5.016  10.173   5.034 -0.3139 -0.0905 -0.1225
  212MOL0     H28595   5.024  10.347   5.021 -0.2877 -0.8092 -1.7249
  212MOL0     H28596   4.896  10.212   5.255  0.6879  1.4608  0.6843
  212MOL0     H28597   4.854  10.377   5.206  0.7331  1.8630 -2.8511
  212MOL0     H28598   4.775  10.128   5.071 -0.2321  0.1757  0.2547
  212MOL0     H28599   4.760  10.297   4.998  1.3760  4.2691  2.2838
  212MOL0     H28600   4.557  10.170   5.121 -1.8838  0.6958  0.2572
  212MOL0     H28601   4.585  10.353   5.131  0.7976 -0.5811 -0.7554
  212MOL0     H28602   5.780  10.193   5.044 -1.0801  0.6013  1.2036
  212MOL0     H28603   5.969  10.032   4.989  0.3153 -1.0796  0.9867
  212MOL0     H28604   6.186   9.690   4.985  0.1266 -2.0929  0.5298
  212MOL0     H28605   6.395   9.576   4.953  1.1709  0.8453 -0.5643
  212MOL0     H28606   8.281   9.893   4.636 -1.0559  0.8849  0.7379
  212MOL0     H28607   8.479   9.956   4.502  0.0276 -1.7507 -2.4580
  212MOL0     H28608   8.745  10.095   4.280 -0.8080 -0.7935 -0.0802
  212MOL0     H28609   8.973  10.079   4.207  1.8590  0.0665 -1.2861
  212MOL0     H28610   9.165  10.058   4.127 -1.0191 -0.5105 -0.0920
  212MOL0     H28611   9.188   9.898   4.042 -0.7742 -0.4927  1.9738
  212MOL0     H28612   9.276  10.166   3.942  1.0036  0.4607 -0.6466
  212MOL0     H28613   9.310  10.001   3.870  1.8288 -0.4945  0.5283
  212MOL0     H28614   9.424   9.937   4.073 -2.9051 -0.7733  1.7813
  212MOL0     H28615   9.400  10.094   4.144 -1.2843  1.3463 -1.2867
  212MOL0     H28616   9.537  10.092   3.875  2.0233 -0.7399  0.2624
  212MOL0     H28617   9.625  10.065   4.024  0.0283  1.6720 -0.3433
  212MOL0     H28618   9.512  10.481   4.019  2.0230  0.2372 -3.4889
  212MOL0     H28619   8.835  10.014   3.802 -1.6172  1.3677 -1.5120
  212MOL0     H28620   8.611  10.034   3.876 -1.6580 -1.5782  2.0190
  213MOL0     O28621   9.768   6.102   8.943 -0.8920 -0.0460 -0.4086
  213MOL0     C28622   9.795   6.001   8.999  0.3329 -0.7456 -0.1108
  213MOL0     O28623   9.701   5.910   9.043  0.5748 -1.0530  0.4313
  213MOL0     C28624   9.565   5.924   9.033  0.0144  0.0830  0.3900
  213MOL0     C28625   9.484   5.809   9.058 -0.2146 -0.1371  0.0711
  213MOL0     C28626   9.345   5.808   9.064 -0.9085  0.1781 -0.8879
  213MOL0     C28627   9.274   5.930   9.031 -0.0518  0.1661  0.0475
  213MOL0     O28628   9.139   5.933   9.047  0.2151 -0.4948  0.2183
  213MOL0     C28629   9.047   6.005   8.960  0.2946  0.1959 -0.2401
  213MOL0     C28630   8.958   6.097   9.035 -0.5023 -0.6364  0.9149
  213MOL0     C28631   8.862   6.037   9.133  0.3093 -0.6447 -0.2391
  213MOL0     C28632   8.756   6.132   9.189 -0.1593  0.3012 -0.1157
  213MOL0     C28633   8.660   6.074   9.294 -0.5257  0.2910  0.7528
  213MOL0     C28634   8.598   6.176   9.392 -0.0325 -0.1412 -0.4716
  213MOL0     C28635   8.487   6.107   9.478  0.0629 -0.3189 -0.7393
  213MOL0     C28636   8.386   6.206   9.533  0.0819 -0.8096  0.2991
  213MOL0     N28637   8.300   6.253   9.427 -0.1486 -0.3654  0.3788
  213MOL0     C28638   8.197   6.173   9.369  0.0147 -0.8251  1.1631
  213MOL0     C28639   8.143   6.257   9.277  0.4016 -0.7189  0.8030
  213MOL0     C28640   8.022   6.229   9.190  0.3891  0.2734 -0.1525
  213MOL0     C28641   7.898   6.218   9.276 -0.0411  0.7505  0.0575
  213MOL0     C28642   7.847   6.077   9.287 -0.5143 -0.5888  0.3238
  213MOL0     C28643   7.781   6.039   9.158 -0.5749  0.4726 -0.3262
  213MOL0     O28644   7.723   5.907   9.187  0.5274 -0.6214 -0.1452
  213MOL0     C28645   7.610   5.892   9.105 -0.5150 -0.1513 -0.5285
  213MOL0     C28646   7.609   5.901   8.965 -0.2293 -0.8311 -0.7160
  213MOL0     C28647   7.492   5.878   8.892 -0.2513  0.2507 -0.7081
  213MOL0     C28648   7.500   5.895   8.741  0.0018  0.4077  0.0765
  213MOL0     C28649   7.368   5.858   8.960  1.0681  0.2447 -0.5377
  213MOL0     C28650   7.236   5.822   8.899 -0.4046  0.3477  1.4566
  213MOL0     O28651   7.133   5.823   8.989  0.4946 -0.1185  0.2783
  213MOL0     C28652   7.007   5.803   8.933 -0.4795  0.2697 -0.0003
  213MOL0     C28653   6.917   5.906   8.938 -0.0928  0.1730 -0.5430
  213MOL0     C28654   6.793   5.886   8.881  0.1703  0.3914 -0.7863
  213MOL0     C28655   6.750   5.767   8.823 -0.7486 -0.2025  0.0120
  213MOL0     O28656   6.620   5.745   8.770 -0.7372  0.0429 -0.6413
  213MOL0     C28657   6.536   5.684   8.868 -0.1080 -0.4159  0.0411
  213MOL0     C28658   6.389   5.697   8.837 -0.2300 -0.2866 -0.1869
  213MOL0     C28659   6.353   5.841   8.796  0.0515 -0.5245 -0.1383
  213MOL0     C28660   6.190   5.855   8.773  0.1762  0.2149 -0.0816
  213MOL0     C28661   6.133   5.748   8.682  0.2779  0.0702  0.6543
  213MOL0     C28662   5.989   5.784   8.646  0.6456 -0.1127  0.0439
  213MOL0     C28663   5.934   5.692   8.535  0.2410  0.0778 -0.4297
  213MOL0     C28664   5.784   5.670   8.548 -0.8161 -0.6853  0.5514
  213MOL0    Cl28665   5.705   5.827   8.495  0.0459  0.1697 -0.0548
  213MOL0     C28666   6.839   5.658   8.828 -0.0925 -0.3993 -0.1409
  213MOL0     C28667   6.969   5.677   8.883 -0.3294  1.1120  0.6027
  213MOL0     O28668   7.226   5.793   8.777  0.2582  0.0645 -0.3310
  213MOL0     C28669   7.373   5.867   9.108  0.0381 -0.6933  0.5644
  213MOL0     C28670   7.493   5.897   9.168 -0.4524 -0.2782  0.2042
  213MOL0     N28671   8.198   6.384   9.287  0.0958  0.8523 -0.4947
  213MOL0     N28672   8.295   6.374   9.366 -0.0234 -0.2796 -0.2388
  213MOL0     C28673   9.348   6.045   9.000 -0.0266  0.2985 -0.6987
  213MOL0     C28674   9.487   6.040   8.999 -0.2091  0.1878  0.0075
  213MOL0     C28675   9.940   5.977   9.027 -0.0490  0.0298 -0.1798
  213MOL0     C28676  10.041   6.070   9.008 -0.5895 -0.2473  0.1769
  213MOL0     C28677  10.175   6.046   9.025  0.4646  0.1458  0.0759
  213MOL0     C28678  10.220   5.929   9.087 -0.0883 -0.5707  0.0759
  213MOL0     O28679  10.356   5.913   9.098 -0.6151 -0.0498 -0.4528
  213MOL0     C28680  10.390   5.821   9.200 -0.1951  1.0972 -0.1305
  213MOL0     C28681  10.542   5.833   9.230 -0.1398 -0.1227 -0.2102
  213MOL0     C28682  10.588   5.755   9.362 -0.0092  0.0001 -0.2250
  213MOL0     C28683  10.547   5.607   9.360 -0.2564 -0.0133  0.3586
  213MOL0     C28684  10.558   5.555   9.496  0.0478 -0.1807 -0.1302
  213MOL0     C28685  10.575   5.522   9.611  1.0037  0.9995 -0.1464
  213MOL0     C28686  10.122   5.829   9.105  0.2673  0.0811 -0.5641
  213MOL0     C28687   9.982   5.848   9.086  0.0497  0.3327 -0.1819
  213MOL0     H28688   9.544   5.720   9.073 -0.6885 -0.7427 -1.4363
  213MOL0     H28689   9.291   5.717   9.090 -1.4537  0.2919 -1.5863
  213MOL0     H28690   9.103   6.040   8.874  2.1875  1.7821  1.5254
  213MOL0     H28691   8.981   5.926   8.922 -0.4207  0.4098  0.5232
  213MOL0     H28692   9.023   6.162   9.093  0.2511  0.1014 -0.6947
  213MOL0     H28693   8.894   6.152   8.965  0.5027 -2.0523 -1.2536
  213MOL0     H28694   8.818   5.954   9.077  1.5936 -2.5370  1.4244
  213MOL0     H28695   8.921   6.007   9.220  1.9054  2.4949 -0.0949
  213MOL0     H28696   8.820   6.212   9.229  1.0319  0.5321 -2.3424
  213MOL0     H28697   8.698   6.179   9.109 -1.2524 -0.0174  0.4718
  213MOL0     H28698   8.577   6.029   9.238 -0.5279  0.9623  0.2094
  213MOL0     H28699   8.706   5.993   9.351  3.7019  1.7933 -0.1588
  213MOL0     H28700   8.679   6.207   9.458 -2.8833  0.9604  2.8326
  213MOL0     H28701   8.566   6.264   9.335  5.4122  2.8995  0.5010
  213MOL0     H28702   8.433   6.049   9.403 -1.4696  2.5097 -1.9955
  213MOL0     H28703   8.530   6.048   9.559  0.0422 -0.2997 -0.7141
  213MOL0     H28704   8.433   6.293   9.580  2.9829 -2.1695  0.1271
  213MOL0     H28705   8.320   6.160   9.608 -0.0790 -0.9358  0.0821
  213MOL0     H28706   8.184   6.066   9.386 -0.8150 -0.6417  1.7701
  213MOL0     H28707   8.019   6.312   9.119 -2.4177  0.8507  0.5089
  213MOL0     H28708   8.042   6.134   9.139 -1.2336 -0.9837  1.3938
  213MOL0     H28709   7.819   6.285   9.243 -0.4706 -1.4221 -3.8809
  213MOL0     H28710   7.922   6.244   9.380 -0.0432 -1.0273  0.5419
  213MOL0     H28711   7.766   6.088   9.360 -0.6159  0.5684  0.0572
  213MOL0     H28712   7.926   6.019   9.335 -0.0390  0.9294  1.4472
  213MOL0     H28713   7.837   6.033   9.064  0.0281 -1.0347  0.1072
  213MOL0     H28714   7.707   6.118   9.142  0.3665  1.9683  2.0902
  213MOL0     H28715   7.698   5.920   8.906 -0.4521  4.6825  0.1908
  213MOL0     H28716   7.455   5.811   8.688  0.8183 -0.0083  0.0209
  213MOL0     H28717   7.451   5.991   8.720  1.5890  1.0033 -1.1115
  213MOL0     H28718   7.602   5.910   8.704 -0.3363  3.4385  0.0492
  213MOL0     H28719   6.947   6.005   8.972 -0.2638 -0.1012  0.4533
  213MOL0     H28720   6.730   5.975   8.879 -0.7229  0.0548  3.4651
  213MOL0     H28721   6.560   5.581   8.895  2.8844  0.1456 -0.0533
  213MOL0     H28722   6.553   5.736   8.963 -0.8830  0.2177 -0.1568
  213MOL0     H28723   6.381   5.626   8.755 -0.3531 -0.2806 -0.1796
  213MOL0     H28724   6.334   5.656   8.922 -0.4324 -2.2524 -1.2222
  213MOL0     H28725   6.398   5.879   8.704 -1.3936  0.8582 -0.3235
  213MOL0     H28726   6.383   5.916   8.871 -2.1175 -0.4770  0.7594
  213MOL0     H28727   6.145   5.853   8.872 -0.7462 -0.8051 -0.5019
  213MOL0     H28728   6.167   5.947   8.717  0.0391 -1.1602 -2.4126
  213MOL0     H28729   6.134   5.656   8.741 -3.1915 -0.1130  0.6273
  213MOL0     H28730   6.188   5.743   8.588  1.2277 -1.2670  1.2439
  213MOL0     H28731   5.923   5.765   8.730  1.1890 -2.0281  0.0651
  213MOL0     H28732   5.974   5.889   8.619  0.8939 -0.2648 -0.7317
  213MOL0     H28733   5.991   5.599   8.544  1.5502  1.0921  5.2021
  213MOL0     H28734   5.950   5.731   8.434  0.1179  0.8965 -0.1342
  213MOL0     H28735   5.759   5.631   8.648 -2.5444 -2.8535 -0.6491
  213MOL0     H28736   5.744   5.594   8.481  2.6921 -0.3610 -2.2001
  213MOL0     H28737   6.799   5.562   8.799 -0.1617  0.4861 -3.3407
  213MOL0     H28738   7.025   5.583   8.879 -3.4454 -0.8614  0.0127
  213MOL0     H28739   7.284   5.857   9.169 -1.6777 -1.3054 -1.8865
  213MOL0     H28740   7.492   5.911   9.276  0.8709  1.8213  0.0167
  213MOL0     H28741   9.304   6.141   8.975  0.9381  1.3624  1.4403
  213MOL0     H28742   9.533   6.136   8.976  3.2946 -1.5596 -0.7876
  213MOL0     H28743  10.011   6.165   8.964  0.8442  0.3181  0.3613
  213MOL0     H28744  10.251   6.115   8.990  1.1945  1.2408  3.4745
  213MOL0     H28745  10.332   5.854   9.287 -0.5562  1.5832 -0.5535
  213MOL0     H28746  10.363   5.719   9.171 -0.1246  1.3458 -1.1001
  213MOL0     H28747  10.572   5.935   9.254 -0.5877  0.0940 -0.5395
  213MOL0     H28748  10.595   5.800   9.140 -0.3412  0.3927 -0.5269
  213MOL0     H28749  10.561   5.816   9.448  3.2441  1.0296  0.1761
  213MOL0     H28750  10.696   5.758   9.380 -0.3917 -2.4706  3.7409
  213MOL0     H28751  10.623   5.566   9.293 -1.1433  0.4956 -0.9981
  213MOL0     H28752  10.446   5.594   9.319 -0.5963  0.9283  0.8687
  213MOL0     H28753  10.579   5.494   9.714  0.0375  1.0732 -0.0780
  213MOL0     H28754  10.137   5.730   9.148 -0.1874  0.0480 -0.4718
  213MOL0     H28755   9.915   5.769   9.119  1.8850 -0.4363  1.9724
  214MOL0     O28756   7.019   2.778   5.633 -0.1662  0.5921 -0.4425
  214MOL0     C28757   6.964   2.678   5.673 -0.5831  0.3167 -0.3593
  214MOL0     O28758   6.861   2.676   5.764  0.4144 -0.7826  0.2888
  214MOL0     C28759   6.792   2.788   5.805 -0.5462  0.4616  1.1415
  214MOL0     C28760   6.848   2.910   5.845 -0.4132 -0.0768  0.3070
  214MOL0     C28761   6.774   3.018   5.880  0.3621  0.8831 -0.2591
  214MOL0     C28762   6.638   2.998   5.905  0.0894  0.4040 -0.4241
  214MOL0     O28763   6.555   3.087   5.962 -0.4909  0.6552 -0.1562
  214MOL0     C28764   6.611   3.218   5.982  0.2235  0.1773 -0.7993
  214MOL0     C28765   6.513   3.314   6.044 -0.0988 -0.1677 -0.0026
  214MOL0     C28766   6.466   3.266   6.181 -0.5180 -0.0389 -0.1102
  214MOL0     C28767   6.343   3.181   6.181  0.3351  0.2531 -0.6583
  214MOL0     C28768   6.313   3.110   6.318  0.3957 -0.2435  0.4164
  214MOL0     C28769   6.165   3.056   6.313 -0.6953 -0.8188  1.0317
  214MOL0     C28770   6.135   2.973   6.428  0.6011  0.2786 -0.5625
  214MOL0     C28771   6.129   3.044   6.564 -0.0708 -0.4085  0.2949
  214MOL0     N28772   6.072   2.962   6.667 -0.0905 -0.3178  0.3542
  214MOL0     C28773   6.126   2.940   6.799  0.1211  0.5828 -0.2442
  214MOL0     C28774   6.020   2.939   6.886  0.1110  0.3554 -0.6265
  214MOL0     C28775   6.025   2.951   7.036 -0.4443  0.3371  0.8324
  214MOL0     C28776   6.139   2.872   7.098 -0.4382  0.7091 -0.1646
  214MOL0     C28777   6.126   2.876   7.255  0.6804 -0.0534  0.5058
  214MOL0     C28778   6.027   2.775   7.315  0.2365 -0.3495 -0.3324
  214MOL0     O28779   5.888   2.807   7.272  0.4267  0.4259 -0.5685
  214MOL0     C28780   5.780   2.724   7.303  0.2062 -0.2636  0.4270
  214MOL0     C28781   5.784   2.629   7.410  0.2779 -0.5162 -0.3465
  214MOL0     C28782   5.670   2.563   7.453  0.2225  0.2867  0.2668
  214MOL0     C28783   5.688   2.471   7.563  0.3198  0.2305 -0.5622
  214MOL0     C28784   5.545   2.584   7.384 -0.1234 -0.5982 -0.4837
  214MOL0     C28785   5.415   2.519   7.419 -0.9091  0.4800 -0.5109
  214MOL0     O28786   5.305   2.570   7.364 -0.1758  0.3741 -0.2778
  214MOL0     C28787   5.181   2.517   7.388 -0.3194  0.1061  0.2271
  214MOL0     C28788   5.145   2.383   7.356 -0.4235  0.0337 -0.3949
  214MOL0     C28789   5.019   2.336   7.390  0.0332 -0.2005  0.0557
  214MOL0     C28790   4.922   2.425   7.440  0.2867 -0.3563  0.8335
  214MOL0     O28791   4.796   2.387   7.474 -0.4484  0.0091  0.7579
  214MOL0     C28792   4.764   2.246   7.487 -0.1948  0.6836 -0.1257
  214MOL0     C28793   4.635   2.241   7.584 -0.1703 -0.1483  0.6518
  214MOL0     C28794   4.518   2.309   7.512 -0.6510  0.1010  0.1035
  214MOL0     C28795   4.391   2.319   7.597  0.4156  0.3623 -0.3039
  214MOL0     C28796   4.271   2.382   7.528 -0.0747 -0.7757  0.3308
  214MOL0     C28797   4.173   2.438   7.634  0.6891  0.6128 -0.0488
  214MOL0     C28798   4.152   2.337   7.749 -0.2836 -0.2157  0.3582
  214MOL0     C28799   4.039   2.376   7.835 -0.0165  0.3039 -0.2879
  214MOL0    Cl28800   3.883   2.336   7.774 -0.3464  0.3511  0.5677
  214MOL0     C28801   4.955   2.554   7.475  0.0037 -0.7100 -0.0498
  214MOL0     C28802   5.086   2.608   7.444 -0.1603 -0.0209 -0.5185
  214MOL0     O28803   5.420   2.420   7.492  0.3143  0.0099 -0.5898
  214MOL0     C28804   5.543   2.684   7.287 -0.2708 -0.4703  0.6054
  214MOL0     C28805   5.655   2.752   7.241 -0.5726 -0.1034 -0.3944
  214MOL0     N28806   5.899   2.932   6.813  0.2618  0.5787 -0.1524
  214MOL0     N28807   5.934   2.954   6.684  0.5545 -0.1522 -1.1082
  214MOL0     C28808   6.584   2.881   5.868 -0.5753  0.5933  0.2575
  214MOL0     C28809   6.661   2.773   5.816 -0.3347 -0.0699  0.3513
  214MOL0     C28810   7.013   2.550   5.608  0.8046  0.6802  0.3342
  214MOL0     C28811   7.117   2.560   5.516  0.5434 -0.0012  0.3099
  214MOL0     C28812   7.163   2.448   5.445 -0.5731  0.0257 -0.6403
  214MOL0     C28813   7.098   2.322   5.458  0.4997  0.2440 -0.2316
  214MOL0     O28814   7.159   2.218   5.401 -0.0349  0.5918  0.2654
  214MOL0     C28815   7.096   2.092   5.393  0.1042 -0.2641 -0.1265
  214MOL0     C28816   7.183   2.011   5.289 -0.6143 -0.0195  0.5239
  214MOL0     C28817   7.335   2.002   5.323 -0.4145 -0.1292  0.3391
  214MOL0     C28818   7.410   1.912   5.225 -0.7528  0.0823 -1.2945
  214MOL0     C28819   7.554   1.902   5.257  0.4405 -0.0157 -0.5001
  214MOL0     C28820   7.673   1.892   5.287 -0.0328 -0.1245  1.1121
  214MOL0     C28821   7.000   2.309   5.559 -0.4029  0.2265  0.1228
  214MOL0     C28822   6.951   2.423   5.629 -0.3439  0.6878 -0.0469
  214MOL0     H28823   6.956   2.917   5.839 -0.3057 -1.6202  0.1306
  214MOL0     H28824   6.825   3.113   5.897 -0.7028  1.4362 -0.0964
  214MOL0     H28825   6.702   3.210   6.043 -0.0899 -1.5495 -0.4925
  214MOL0     H28826   6.642   3.263   5.888  3.4408  1.8808  0.8992
  214MOL0     H28827   6.557   3.414   6.040 -2.1924  0.8796  1.2300
  214MOL0     H28828   6.430   3.322   5.974 -0.6974 -1.4261  0.5219
  214MOL0     H28829   6.548   3.215   6.233  0.2435  1.2804  0.0235
  214MOL0     H28830   6.443   3.356   6.238 -1.2213 -0.6246  0.5628
  214MOL0     H28831   6.257   3.239   6.146 -0.8829 -1.7872 -1.2113
  214MOL0     H28832   6.348   3.102   6.105 -0.6457  0.3427 -0.8243
  214MOL0     H28833   6.384   3.028   6.336 -0.6107 -1.1402  0.4466
  214MOL0     H28834   6.321   3.184   6.397 -1.9191  0.8612 -0.2897
  214MOL0     H28835   6.089   3.134   6.306  0.6545  0.5092  0.6897
  214MOL0     H28836   6.156   2.986   6.229 -2.3163 -1.5149  1.7489
  214MOL0     H28837   6.044   2.917   6.407  0.4948 -0.4692  1.6147
  214MOL0     H28838   6.203   2.887   6.432 -1.2269 -1.3750 -2.6907
  214MOL0     H28839   6.064   3.131   6.550 -1.7271 -1.4377  1.2267
  214MOL0     H28840   6.227   3.081   6.597  0.2325  1.1382 -2.0792
  214MOL0     H28841   6.230   2.942   6.828  0.4130 -2.6369 -0.7028
  214MOL0     H28842   6.038   3.055   7.069 -1.2744  0.7239  0.0109
  214MOL0     H28843   5.932   2.911   7.077 -0.1878 -1.0528  0.1048
  214MOL0     H28844   6.238   2.910   7.068  0.0656  0.9633  1.7098
  214MOL0     H28845   6.143   2.767   7.070  0.2344  0.4548  0.8218
  214MOL0     H28846   6.095   2.977   7.284  2.1794  0.3417  0.8416
  214MOL0     H28847   6.220   2.842   7.300 -0.0287 -1.8967  0.6883
  214MOL0     H28848   6.039   2.778   7.423  0.7989 -0.9059 -0.3720
  214MOL0     H28849   6.056   2.678   7.273 -2.6472  0.0683 -3.8689
  214MOL0     H28850   5.878   2.619   7.463  1.1430  0.3684 -1.6650
  214MOL0     H28851   5.788   2.470   7.607  0.2625 -1.3345 -0.3912
  214MOL0     H28852   5.621   2.493   7.647  1.4186  3.6260 -0.4548
  214MOL0     H28853   5.673   2.365   7.536 -1.3715  0.2292  0.2281
  214MOL0     H28854   5.219   2.309   7.325 -0.2248  0.4558 -0.9354
  214MOL0     H28855   4.994   2.231   7.379 -1.6044  0.0355  1.1865
  214MOL0     H28856   4.738   2.203   7.390  0.3831 -0.3066  0.1455
  214MOL0     H28857   4.851   2.194   7.528  0.8857  1.3048 -1.5379
  214MOL0     H28858   4.599   2.139   7.600  2.6103 -1.3789 -0.3303
  214MOL0     H28859   4.660   2.289   7.679 -2.2454 -0.6026  1.4699
  214MOL0     H28860   4.496   2.254   7.420  0.4503 -1.6833  0.8550
  214MOL0     H28861   4.546   2.412   7.492 -1.5538  0.6001  1.2675
  214MOL0     H28862   4.370   2.220   7.638 -0.0660  1.3458  1.9847
  214MOL0     H28863   4.424   2.383   7.680  1.7152  1.4286 -1.5835
  214MOL0     H28864   4.226   2.316   7.452 -1.7342 -0.4636  0.9995
  214MOL0     H28865   4.298   2.471   7.470  2.4750 -1.2141  0.7231
  214MOL0     H28866   4.213   2.530   7.679 -0.5059  0.3240  1.6689
  214MOL0     H28867   4.075   2.446   7.585  1.3971 -0.3602 -1.6796
  214MOL0     H28868   4.239   2.326   7.813 -0.2428  0.2186  0.3848
  214MOL0     H28869   4.134   2.238   7.707 -1.5585 -0.2706  0.9797
  214MOL0     H28870   4.043   2.485   7.844  0.3704  0.3979 -1.4354
  214MOL0     H28871   4.052   2.344   7.939 -2.4823  2.6009  0.8636
  214MOL0     H28872   4.886   2.628   7.515  2.4460  0.9447  1.3905
  214MOL0     H28873   5.108   2.713   7.459  0.1469 -0.3430  1.5234
  214MOL0     H28874   5.449   2.707   7.237  1.1139  1.5147 -1.2726
  214MOL0     H28875   5.656   2.835   7.172 -0.6836  1.4034  1.3345
  214MOL0     H28876   6.483   2.864   5.903 -1.5564  3.6351 -0.8483
  214MOL0     H28877   6.613   2.682   5.782 -3.7831  2.0817 -1.1041
  214MOL0     H28878   7.165   2.652   5.485  3.9260 -1.3627  0.9830
  214MOL0     H28879   7.249   2.469   5.382 -1.1878  2.4381 -0.7799
  214MOL0     H28880   7.108   2.036   5.486 -0.6495 -0.5070 -0.1739
  214MOL0     H28881   6.992   2.106   5.362  0.2310  0.3040 -0.3085
  214MOL0     H28882   7.176   2.053   5.188 -0.2410 -0.5839  0.2559
  214MOL0     H28883   7.156   1.906   5.279  1.6094 -0.4871 -1.6433
  214MOL0     H28884   7.358   1.961   5.422  0.4729  1.4408  0.8326
  214MOL0     H28885   7.374   2.104   5.325 -2.0280  0.5248  0.4223
  214MOL0     H28886   7.409   1.950   5.122  2.0646  3.0199 -0.3930
  214MOL0     H28887   7.376   1.808   5.238  1.4599 -0.3934  1.4104
  214MOL0     H28888   7.776   1.891   5.313  0.1240 -2.1593  0.5936
  214MOL0     H28889   6.946   2.215   5.571 -3.0506  1.5582 -0.5768
  214MOL0     H28890   6.886   2.402   5.713  0.2812 -1.0415  0.0567
  215MOL0     O28891   7.206  10.585   5.814  0.1410 -0.2595  0.5736
  215MOL0     C28892   7.273  10.668   5.875  0.3457 -1.1893 -0.4011
  215MOL0     O28893   7.251  10.706   5.998 -0.7550  0.1028 -0.0852
  215MOL0     C28894   7.166  10.636   6.079 -0.5366  0.0258  0.3475
  215MOL0     C28895   7.096  10.705   6.178  0.3758 -1.0373 -0.2934
  215MOL0     C28896   6.998  10.648   6.256  0.2566 -0.2198 -0.0398
  215MOL0     C28897   6.980  10.512   6.242 -0.1702 -0.0077 -0.1076
  215MOL0     O28898   6.869  10.450   6.303 -0.1199 -0.0350 -0.4857
  215MOL0     C28899   6.756  10.439   6.210 -0.5934 -0.2620  0.0528
  215MOL0     C28900   6.674  10.569   6.222 -0.2684 -0.4528  0.3573
  215MOL0     C28901   6.541  10.542   6.154  0.0979 -0.8431  0.5301
  215MOL0     C28902   6.457  10.677   6.155  0.1559  0.2874  0.5787
  215MOL0     C28903   6.333  10.634   6.073  0.6583  0.6345  0.3573
  215MOL0     C28904   6.216  10.573   6.162  0.5158 -0.2327  0.2085
  215MOL0     C28905   6.088  10.575   6.080 -0.2698 -0.7242  0.6114
  215MOL0     C28906   5.963  10.497   6.135  0.1386 -0.6803 -0.0360
  215MOL0     N28907   5.913  10.553   6.263  0.3053  1.0478  0.5349
  215MOL0     C28908   5.817  10.657   6.267  0.5153 -0.6352  0.3755
  215MOL0     C28909   5.798  10.672   6.405 -0.3149  0.5303  0.4865
  215MOL0     C28910   5.703  10.763   6.472 -0.0484 -0.6508 -0.2342
  215MOL0     C28911   5.562  10.756   6.418  0.6804 -0.6981  0.5964
  215MOL0     C28912   5.492  10.628   6.467  0.1107  0.4016  0.9400
  215MOL0     C28913   5.356  10.611   6.390 -0.3521 -0.5338 -0.2739
  215MOL0     O28914   5.281  10.728   6.419  0.0623 -0.5884  0.6267
  215MOL0     C28915   5.142  10.723   6.433 -0.3055  0.4092  0.8022
  215MOL0     C28916   5.075  10.833   6.480 -0.5239 -0.4653  0.2777
  215MOL0     C28917   4.938  10.848   6.497 -0.0928 -0.3532  0.2014
  215MOL0     C28918   4.883  10.970   6.562  0.6118  0.2884  0.2138
  215MOL0     C28919   4.855  10.736   6.450  0.2326 -0.2921 -0.2141
  215MOL0     C28920   4.702  10.734   6.461  0.4961  0.8546 -1.1202
  215MOL0     O28921   4.630  10.618   6.439  0.4246  0.0109 -0.3782
  215MOL0     C28922   4.500  10.620   6.435  0.2152 -0.1416  0.0355
  215MOL0     C28923   4.435  10.512   6.498  0.1678  0.3319 -0.7317
  215MOL0     C28924   4.295  10.495   6.483  0.1196 -0.1391  0.9650
  215MOL0     C28925   4.223  10.591   6.414  0.9371 -0.6332  0.0465
  215MOL0     O28926   4.085  10.582   6.403  0.5536  0.0134  0.2126
  215MOL0     C28927   4.018  10.479   6.479 -0.1220  0.5671  0.2326
  215MOL0     C28928   3.871  10.476   6.466  1.2417  0.1373 -0.1174
  215MOL0     C28929   3.803  10.354   6.543 -0.3824  0.3602  0.3458
  215MOL0     C28930   3.654  10.347   6.479  0.1076 -0.0874  0.5625
  215MOL0     C28931   3.570  10.256   6.565  0.4043  0.2129 -0.3809
  215MOL0     C28932   3.425  10.248   6.518 -0.3000 -0.7289  0.5929
  215MOL0     C28933   3.348  10.204   6.632  0.1527  0.4056  0.2268
  215MOL0     C28934   3.200  10.181   6.592 -0.7148  0.7448 -0.2823
  215MOL0    Cl28935   3.112  10.176   6.753 -0.2267 -0.0249 -0.0173
  215MOL0     C28936   4.288  10.695   6.350 -0.2853 -0.1389  1.1211
  215MOL0     C28937   4.427  10.717   6.367 -0.2862  0.4487  0.1469
  215MOL0     O28938   4.645  10.839   6.495 -0.2362  0.0972 -0.3492
  215MOL0     C28939   4.922  10.622   6.400 -0.6975 -0.6533  0.3935
  215MOL0     C28940   5.063  10.610   6.399  0.1169 -0.0517 -0.4781
  215MOL0     N28941   5.876  10.573   6.467  0.2899 -0.6368 -0.0596
  215MOL0     N28942   5.944  10.503   6.383 -0.2055  0.6883 -0.0389
  215MOL0     C28943   7.039  10.437   6.142  0.3017 -0.9106  0.1674
  215MOL0     C28944   7.142  10.496   6.065  0.4427 -0.3078 -0.2211
  215MOL0     C28945   7.400  10.724   5.807 -0.5338 -0.0750 -0.2689
  215MOL0     C28946   7.445  10.676   5.684 -0.1360  0.3721  0.0751
  215MOL0     C28947   7.557  10.727   5.620  0.2903 -0.3852  0.1270
  215MOL0     C28948   7.641  10.822   5.681  0.6214 -0.0352 -0.4149
  215MOL0     O28949   7.746  10.877   5.621  0.5683 -0.7990  0.5651
  215MOL0     C28950   7.791  10.834   5.496 -0.5378  0.2077 -0.3364
  215MOL0     C28951   7.941  10.878   5.475  0.2358  0.6943 -0.3322
  215MOL0     C28952   7.956  11.027   5.457 -0.0185 -0.5510 -0.8940
  215MOL0     C28953   8.096  11.073   5.416 -0.4873 -0.2652 -0.2406
  215MOL0     C28954   8.185  11.091   5.531 -1.4765  0.3582 -0.2402
  215MOL0     C28955   8.273  11.107   5.620 -0.1748  0.3946  0.1520
  215MOL0     C28956   7.600  10.873   5.806  0.1667  0.2661  0.8155
  215MOL0     C28957   7.473  10.827   5.862  0.0187 -0.4128  0.5632
  215MOL0     H28958   7.118  10.807   6.205  1.6405 -0.8064 -2.0228
  215MOL0     H28959   6.939  10.703   6.328 -1.0375  0.7024 -1.7266
  215MOL0     H28960   6.784  10.427   6.105 -1.4891  1.4094 -0.4033
  215MOL0     H28961   6.700  10.352   6.243 -0.3060 -0.3571  0.3008
  215MOL0     H28962   6.658  10.610   6.322 -0.8541  0.6409 -0.1732
  215MOL0     H28963   6.729  10.643   6.164  1.7063 -1.4989  0.8098
  215MOL0     H28964   6.566  10.512   6.051 -1.3317  0.1809 -0.1576
  215MOL0     H28965   6.494  10.455   6.201 -3.6557 -0.9159 -2.7597
  215MOL0     H28966   6.426  10.709   6.256 -0.0636  2.1097 -0.0229
  215MOL0     H28967   6.508  10.760   6.105 -1.5993  2.1068  1.6270
  215MOL0     H28968   6.309  10.724   6.015 -1.4569 -0.0712  0.0229
  215MOL0     H28969   6.353  10.560   5.994  0.0135  1.3436 -0.4847
  215MOL0     H28970   6.239  10.469   6.190  0.7373 -0.7762 -1.8380
  215MOL0     H28971   6.200  10.629   6.255 -0.0239 -0.0802  0.0301
  215MOL0     H28972   6.062  10.680   6.066  3.3685  0.0696 -1.3175
  215MOL0     H28973   6.099  10.549   5.974 -3.4519 -0.2010  0.0353
  215MOL0     H28974   5.987  10.391   6.143 -1.0392 -1.0557 -1.1543
  215MOL0     H28975   5.882  10.492   6.061  0.3923 -1.0862 -0.2880
  215MOL0     H28976   5.772  10.720   6.192 -1.1039 -3.9032 -1.6182
  215MOL0     H28977   5.702  10.750   6.581  1.6213 -0.8937 -0.2204
  215MOL0     H28978   5.738  10.864   6.449 -0.5913 -0.4430 -0.1491
  215MOL0     H28979   5.573  10.758   6.309  1.2231  3.9183  0.5695
  215MOL0     H28980   5.507  10.842   6.457 -0.8491 -1.6015  0.4945
  215MOL0     H28981   5.492  10.639   6.576 -1.4701 -0.5936  1.0789
  215MOL0     H28982   5.547  10.536   6.444 -0.7404 -0.4539  2.1558
  215MOL0     H28983   5.305  10.527   6.438 -1.5774  1.0125  1.2540
  215MOL0     H28984   5.366  10.591   6.283 -1.0306  1.0464 -0.6494
  215MOL0     H28985   5.136  10.916   6.511 -0.7802 -0.8425  1.8773
  215MOL0     H28986   4.956  11.050   6.554 -0.3809  1.1274 -0.7719
  215MOL0     H28987   4.795  11.015   6.516 -0.0051 -2.2697 -1.2831
  215MOL0     H28988   4.841  10.957   6.663  0.5841 -2.1335 -0.0382
  215MOL0     H28989   4.491  10.434   6.549 -1.2362  1.2856  2.5367
  215MOL0     H28990   4.254  10.401   6.517 -0.2154 -0.9102 -1.3979
  215MOL0     H28991   4.049  10.385   6.432  1.9988  1.8554 -1.1083
  215MOL0     H28992   4.051  10.488   6.583  2.3052  2.2497 -0.5721
  215MOL0     H28993   3.833  10.566   6.514  1.3662  0.2594 -0.2458
  215MOL0     H28994   3.850  10.478   6.358 -1.0985 -0.3678  0.2677
  215MOL0     H28995   3.797  10.374   6.651 -1.0064 -0.7926  0.5368
  215MOL0     H28996   3.866  10.269   6.516  1.0898  2.2573 -2.6755
  215MOL0     H28997   3.616  10.450   6.473  0.8476  0.1507 -0.1822
  215MOL0     H28998   3.667  10.314   6.376 -1.8851  2.1465 -0.5255
  215MOL0     H28999   3.570  10.299   6.665 -0.3446 -0.0515 -0.2611
  215MOL0     H29000   3.612  10.155   6.567  1.0108  0.4017 -2.0059
  215MOL0     H29001   3.384  10.347   6.492 -2.0249 -1.8070 -1.0320
  215MOL0     H29002   3.407  10.189   6.428 -1.3180  0.3376  0.0567
  215MOL0     H29003   3.358  10.280   6.710 -0.2513  0.2478  0.4375
  215MOL0     H29004   3.380  10.107   6.670 -0.3840  0.6606  1.3864
  215MOL0     H29005   3.172  10.088   6.543  0.1592  1.3612 -2.0047
  215MOL0     H29006   3.154  10.258   6.528  0.8270  0.5727 -1.6398
  215MOL0     H29007   4.242  10.758   6.275  1.0202  0.8370  1.1080
  215MOL0     H29008   4.482  10.796   6.316  2.2974 -0.8095  0.8328
  215MOL0     H29009   4.871  10.529   6.375 -0.6194 -0.5459 -0.1707
  215MOL0     H29010   5.107  10.514   6.373 -1.0023 -1.2843  1.8077
  215MOL0     H29011   7.006  10.334   6.133 -0.6353 -0.5408 -0.8537
  215MOL0     H29012   7.201  10.440   5.993 -0.1534 -0.3502 -0.6845
  215MOL0     H29013   7.390  10.593   5.639  1.4441 -0.0037 -1.2599
  215MOL0     H29014   7.580  10.698   5.518 -1.0825  2.2274 -1.0180
  215MOL0     H29015   7.787  10.725   5.483 -2.2771  0.3537 -1.2955
  215MOL0     H29016   7.733  10.878   5.415  0.7249  0.3312 -1.2068
  215MOL0     H29017   7.966  10.824   5.383  0.5406 -1.0818  0.7484
  215MOL0     H29018   8.006  10.835   5.552  0.7539  2.7409  0.4490
  215MOL0     H29019   7.927  11.071   5.552 -0.1088 -1.7874 -0.3390
  215MOL0     H29020   7.890  11.066   5.379  0.0707  3.2987  0.7503
  215MOL0     H29021   8.087  11.169   5.366  0.5229  0.5674  1.0954
  215MOL0     H29022   8.140  11.004   5.344  0.4717  3.2892 -3.3498
  215MOL0     H29023   8.359  11.112   5.683  1.1073  0.9309 -1.5454
  215MOL0     H29024   7.660  10.949   5.856  2.4093 -0.7361 -0.2424
  215MOL0     H29025   7.443  10.866   5.958 -1.1112 -0.4094  0.2262
  216MOL0     O29026   0.501   6.666   5.134  0.1162 -0.3975  0.0187
  216MOL0     C29027   0.585   6.590   5.087 -0.2540 -0.4303 -0.2581
  216MOL0     O29028   0.569   6.464   5.040  0.9781  0.2666  0.0965
  216MOL0     C29029   0.442   6.421   5.018  0.0874 -0.0990  0.3038
  216MOL0     C29030   0.330   6.442   5.098 -0.5450 -0.2165 -0.1101
  216MOL0     C29031   0.203   6.397   5.060  0.2379 -0.1133 -0.0454
  216MOL0     C29032   0.187   6.305   4.959 -0.9353 -0.0816  0.4203
  216MOL0     O29033   0.066   6.257   4.933  0.4894 -0.0932  0.7594
  216MOL0     C29034   0.057   6.119   4.985  0.1378 -0.3003 -0.4379
  216MOL0     C29035  -0.090   6.080   4.972  0.5392  0.1349 -1.1738
  216MOL0     C29036  -0.102   5.922   4.993 -0.6188 -0.6633  0.0160
  216MOL0     C29037  -0.253   5.886   4.982  0.6025 -0.1342 -1.0679
  216MOL0     C29038  -0.277   5.741   5.025 -0.0599  0.0267  0.6051
  216MOL0     C29039  -0.235   5.643   4.902 -0.0529 -0.4141 -0.2291
  216MOL0     C29040  -0.244   5.490   4.930 -0.3973 -0.2056 -0.2844
  216MOL0     C29041  -0.388   5.442   4.939  0.5206  0.2044 -0.0925
  216MOL0     N29042  -0.398   5.299   4.914  0.8703 -0.2217 -0.6647
  216MOL0     C29043  -0.410   5.252   4.789  0.3404 -0.8849 -0.9359
  216MOL0     C29044  -0.408   5.122   4.803 -0.2156  0.8256 -0.0831
  216MOL0     C29045  -0.397   5.026   4.685 -0.0267 -1.1221 -0.2483
  216MOL0     C29046  -0.519   5.047   4.589  0.7148  0.4783 -0.1624
  216MOL0     C29047  -0.518   4.940   4.488  0.9151 -0.2357 -0.4124
  216MOL0     C29048  -0.638   4.951   4.406  0.3302  0.3901  0.1411
  216MOL0     O29049  -0.746   4.888   4.471  0.1288 -0.4875 -0.1858
  216MOL0     C29050  -0.866   4.877   4.406 -0.5984  1.0077  0.6673
  216MOL0     C29051  -0.972   4.837   4.483  0.2627 -0.9784 -0.2674
  216MOL0     C29052  -1.102   4.828   4.438  0.0664  0.2613  0.4890
  216MOL0     C29053  -1.206   4.783   4.544  0.1188  0.1535 -0.2197
  216MOL0     C29054  -1.125   4.855   4.297  0.0428  0.6941 -0.2263
  216MOL0     C29055  -1.258   4.857   4.235  0.2255  0.1390 -0.2165
  216MOL0     O29056  -1.258   4.892   4.096 -0.6931 -0.1206  0.1119
  216MOL0     C29057  -1.379   4.925   4.052  0.5572 -0.4988  1.1476
  216MOL0     C29058  -1.440   5.048   4.082  0.4701  0.2666  0.3433
  216MOL0     C29059  -1.578   5.047   4.044  0.8159 -0.2305 -0.1197
  216MOL0     C29060  -1.647   4.940   3.979  0.0575 -0.4162 -0.6584
  216MOL0     O29061  -1.782   4.941   3.964 -0.2315  0.0686 -0.0195
  216MOL0     C29062  -1.836   5.013   3.857 -0.6542  0.9803  0.3786
  216MOL0     C29063  -1.901   5.136   3.916 -0.2306 -0.3874 -0.4186
  216MOL0     C29064  -2.038   5.167   3.840 -0.4781 -0.1713 -0.2340
  216MOL0     C29065  -2.090   5.311   3.872 -0.9522  0.0828  0.2139
  216MOL0     C29066  -2.194   5.353   3.776 -0.4932 -0.4683  0.2504
  216MOL0     C29067  -2.220   5.511   3.811  0.6747 -0.1840  0.9726
  216MOL0     C29068  -2.362   5.553   3.774 -0.5262  1.0843  0.2056
  216MOL0     C29069  -2.395   5.535   3.627 -0.4273  0.2616 -0.2235
  216MOL0    Cl29070  -2.576   5.565   3.611  0.3662  0.2864 -0.3641
  216MOL0     C29071  -1.572   4.832   3.942 -0.2163 -0.1248  0.0174
  216MOL0     C29072  -1.438   4.831   3.974 -0.4914  0.0036  0.2912
  216MOL0     O29073  -1.356   4.827   4.301  0.6186 -0.4805  0.0146
  216MOL0     C29074  -1.011   4.883   4.220  0.7918  0.0949  1.1690
  216MOL0     C29075  -0.883   4.887   4.265  0.1577  1.6502  0.8711
  216MOL0     N29076  -0.411   5.095   4.936 -0.5002  1.0119  0.1903
  216MOL0     N29077  -0.400   5.203   5.003  0.3296  0.4133 -0.3408
  216MOL0     C29078   0.299   6.279   4.876  0.6108  0.0589 -0.6535
  216MOL0     C29079   0.426   6.339   4.908  0.6125 -0.5019  0.5345
  216MOL0     C29080   0.716   6.647   5.068 -0.6905 -0.4007  0.2570
  216MOL0     C29081   0.772   6.745   5.155  0.1508  0.0727 -0.4402
  216MOL0     C29082   0.897   6.795   5.126  0.1956  0.1735 -0.9821
  216MOL0     C29083   0.985   6.739   5.036  0.3293 -1.1028 -0.1899
  216MOL0     O29084   1.097   6.812   5.004  1.1069 -0.2611 -0.0556
  216MOL0     C29085   1.215   6.744   4.953 -0.6679  0.1020 -0.1519
  216MOL0     C29086   1.342   6.833   4.976  0.3632  0.1356  0.6349
  216MOL0     C29087   1.334   6.966   4.894 -0.0613  0.1395  0.5343
  216MOL0     C29088   1.450   7.052   4.939  0.5695 -0.2071  0.8280
  216MOL0     C29089   1.575   6.992   4.907 -0.1241 -0.6121 -0.7154
  216MOL0     C29090   1.692   6.951   4.884  0.2676 -0.0021  0.1761
  216MOL0     C29091   0.938   6.630   4.965 -0.5700 -0.0179  1.0014
  216MOL0     C29092   0.805   6.597   4.973  0.5252  0.7303  0.3406
  216MOL0     H29093   0.334   6.502   5.188 -2.6293  0.8883 -0.6876
  216MOL0     H29094   0.118   6.430   5.118  0.1503 -0.2178 -0.1138
  216MOL0     H29095   0.116   6.051   4.924 -1.0430 -1.9526  0.1914
  216MOL0     H29096   0.088   6.117   5.090 -1.2407  0.3405  0.0121
  216MOL0     H29097  -0.159   6.136   5.036 -1.1837 -2.1219 -0.9338
  216MOL0     H29098  -0.129   6.102   4.872 -2.1005  1.7433  0.0990
  216MOL0     H29099  -0.038   5.872   4.921  0.2721 -0.1200  0.4177
  216MOL0     H29100  -0.073   5.912   5.098 -1.6317  0.9502  0.4898
  216MOL0     H29101  -0.309   5.951   5.049  0.8298  1.7004 -2.5760
  216MOL0     H29102  -0.298   5.914   4.886  1.5833  2.8524 -0.7341
  216MOL0     H29103  -0.219   5.721   5.116  0.2566  0.3753  0.4836
  216MOL0     H29104  -0.383   5.721   5.040 -0.3967 -0.9466 -2.4321
  216MOL0     H29105  -0.283   5.668   4.807 -2.2521 -0.0085  0.9209
  216MOL0     H29106  -0.129   5.656   4.879  0.3886 -2.8825  0.1536
  216MOL0     H29107  -0.178   5.428   4.868  0.6623 -1.4124  1.9482
  216MOL0     H29108  -0.208   5.484   5.033  1.6964 -0.3906 -0.9796
  216MOL0     H29109  -0.452   5.496   4.868  1.0944  1.5646  0.3890
  216MOL0     H29110  -0.429   5.462   5.038 -0.6126  1.7730 -0.8225
  216MOL0     H29111  -0.421   5.300   4.693 -0.0075  0.8466 -0.0831
  216MOL0     H29112  -0.304   5.044   4.630  0.5124  1.6300  1.3517
  216MOL0     H29113  -0.394   4.922   4.719  1.5524 -0.6334  1.2631
  216MOL0     H29114  -0.511   5.141   4.534 -1.7503 -0.2275 -1.8999
  216MOL0     H29115  -0.619   5.057   4.633  0.4576  0.9240 -0.8312
  216MOL0     H29116  -0.513   4.842   4.538 -0.2576  0.3892  1.0181
  216MOL0     H29117  -0.433   4.938   4.419  0.9536 -0.6568 -0.3577
  216MOL0     H29118  -0.621   4.893   4.314  1.4637  0.7183  0.1394
  216MOL0     H29119  -0.647   5.059   4.390  0.1244  0.5881  1.5325
  216MOL0     H29120  -0.957   4.812   4.588 -0.3364  1.4052  0.4534
  216MOL0     H29121  -1.292   4.850   4.556 -0.6071 -0.7783 -0.0699
  216MOL0     H29122  -1.247   4.683   4.526 -1.2648  0.6915 -0.1786
  216MOL0     H29123  -1.151   4.784   4.638  3.8118  4.8429 -2.0037
  216MOL0     H29124  -1.395   5.128   4.139  0.3478  0.5370  0.0621
  216MOL0     H29125  -1.638   5.136   4.058  1.0291 -0.2667  1.1567
  216MOL0     H29126  -1.758   5.037   3.783 -0.7182  2.3206  0.7111
  216MOL0     H29127  -1.906   4.949   3.803  0.4145 -0.4605  0.6312
  216MOL0     H29128  -1.924   5.113   4.020  0.1657 -2.4944 -0.7455
  216MOL0     H29129  -1.838   5.225   3.909  0.1388 -0.6190 -0.1105
  216MOL0     H29130  -2.113   5.089   3.858  1.0796 -1.5184  0.6862
  216MOL0     H29131  -2.006   5.181   3.736  0.3528  2.0825  0.2624
  216MOL0     H29132  -2.127   5.314   3.975 -2.8611  1.8022 -0.4632
  216MOL0     H29133  -2.008   5.382   3.871 -1.1502  0.3125  0.0719
  216MOL0     H29134  -2.287   5.296   3.786 -0.7122 -0.1045  0.3379
  216MOL0     H29135  -2.160   5.348   3.673 -0.2827  1.6880  0.1662
  216MOL0     H29136  -2.204   5.547   3.913  2.7794  0.9654  0.3140
  216MOL0     H29137  -2.145   5.568   3.755 -0.6483 -0.2478 -0.9747
  216MOL0     H29138  -2.371   5.657   3.805  1.4606  1.7461 -1.1678
  216MOL0     H29139  -2.429   5.490   3.832  0.8762 -0.6805  0.0169
  216MOL0     H29140  -2.366   5.437   3.588  0.6199 -0.3325  1.8979
  216MOL0     H29141  -2.341   5.611   3.568  0.1618  1.3591  1.6436
  216MOL0     H29142  -1.616   4.748   3.889 -1.6108 -0.7157  1.9716
  216MOL0     H29143  -1.370   4.751   3.945 -0.1315  0.1471  0.7206
  216MOL0     H29144  -1.024   4.891   4.113 -2.8440  1.9508  1.6042
  216MOL0     H29145  -0.806   4.920   4.196  2.1716  1.9615  3.1074
  216MOL0     H29146   0.271   6.220   4.789 -1.1790  0.9476 -0.7193
  216MOL0     H29147   0.506   6.310   4.840  1.8704  0.8750  1.3844
  216MOL0     H29148   0.713   6.782   5.239  1.1413 -1.4196  0.9473
  216MOL0     H29149   0.936   6.885   5.172 -3.0742  1.0538  0.3644
  216MOL0     H29150   1.229   6.646   4.998 -0.9463  0.0378 -0.2026
  216MOL0     H29151   1.210   6.723   4.846  0.6695 -0.6579 -0.0743
  216MOL0     H29152   1.432   6.776   4.953  0.9924 -0.0608  3.2366
  216MOL0     H29153   1.346   6.861   5.082 -2.2693  2.3893  0.2354
  216MOL0     H29154   1.241   7.024   4.906 -0.3962  0.7207 -3.4434
  216MOL0     H29155   1.346   6.941   4.788 -0.3225  0.8739  0.3211
  216MOL0     H29156   1.457   7.070   5.047  0.9028  2.5657  0.3977
  216MOL0     H29157   1.444   7.143   4.879 -2.4639 -0.3985  0.6630
  216MOL0     H29158   1.795   6.926   4.869  0.2953  1.1206 -1.8082
  216MOL0     H29159   0.999   6.575   4.894 -1.6199  1.5476 -1.2366
  216MOL0     H29160   0.768   6.516   4.912 -2.1092  0.7282  1.8167
  217MOL0     O29161   1.065   2.643   7.745 -0.4115 -0.0463  0.2707
  217MOL0     C29162   1.027   2.730   7.667 -0.3995 -0.2405  0.8347
  217MOL0     O29163   1.105   2.817   7.599 -0.0050  0.4526  0.4218
  217MOL0     C29164   1.241   2.803   7.593  0.0379  0.2706  0.2395
  217MOL0     C29165   1.329   2.906   7.632  0.3481 -0.0533 -0.0396
  217MOL0     C29166   1.466   2.896   7.635 -0.1937  0.8066  0.6045
  217MOL0     C29167   1.530   2.778   7.610  0.0099  0.2944 -0.1630
  217MOL0     O29168   1.669   2.751   7.629  0.1847  0.2276 -0.0202
  217MOL0     C29169   1.750   2.867   7.643 -0.6117  0.5125 -0.3834
  217MOL0     C29170   1.901   2.823   7.636 -0.4171 -0.3125  0.5126
  217MOL0     C29171   1.928   2.733   7.762  0.5213  0.0271 -0.7111
  217MOL0     C29172   2.058   2.663   7.730  0.1584  0.4915  0.2535
  217MOL0     C29173   2.131   2.598   7.848 -0.1368  0.3223 -0.3434
  217MOL0     C29174   2.038   2.520   7.938  0.6082  0.2603 -0.3568
  217MOL0     C29175   1.957   2.414   7.866 -0.1805  0.5398  0.4192
  217MOL0     C29176   2.041   2.303   7.798  0.0455 -0.3029 -0.0618
  217MOL0     N29177   1.966   2.185   7.767  0.0371 -0.1566  0.3176
  217MOL0     C29178   1.898   2.098   7.857 -1.0381 -0.2123 -0.4120
  217MOL0     C29179   1.824   2.019   7.782  0.7527  0.5381 -0.3673
  217MOL0     C29180   1.741   1.901   7.840 -0.5067  0.2131  0.5923
  217MOL0     C29181   1.587   1.906   7.821  0.9953  0.7216 -0.6930
  217MOL0     C29182   1.510   1.790   7.896  0.1399 -0.3424  0.4027
  217MOL0     C29183   1.478   1.803   8.042 -0.7874 -0.0267  0.3905
  217MOL0     O29184   1.419   1.929   8.083  0.6515 -0.4657  0.4540
  217MOL0     C29185   1.288   1.960   8.051 -0.8756  0.4781  0.2939
  217MOL0     C29186   1.236   2.084   8.080  0.3569 -0.3462 -0.2825
  217MOL0     C29187   1.102   2.119   8.050  0.8200  0.1680  0.2375
  217MOL0     C29188   1.052   2.264   8.088  0.1762  0.1046 -0.5597
  217MOL0     C29189   1.024   2.032   7.966 -0.2386  0.3032  0.2374
  217MOL0     C29190   0.890   2.059   7.916 -0.0454  0.2150  0.0928
  217MOL0     O29191   0.836   1.965   7.833 -0.4910  0.0029  0.1442
  217MOL0     C29192   0.710   1.994   7.783 -0.0641 -0.3838  0.3036
  217MOL0     C29193   0.606   1.908   7.803  0.7697  0.1346 -0.8504
  217MOL0     C29194   0.474   1.942   7.759 -0.3268 -1.1856 -1.0930
  217MOL0     C29195   0.453   2.064   7.694  0.1401  0.8675  0.4403
  217MOL0     O29196   0.327   2.067   7.652  0.2717  0.0583  0.1627
  217MOL0     C29197   0.247   2.184   7.672 -0.8232  0.3863  0.0779
  217MOL0     C29198   0.143   2.168   7.782  0.6163 -0.1289 -0.3168
  217MOL0     C29199   0.013   2.110   7.732 -0.7211  0.1147 -0.4827
  217MOL0     C29200  -0.075   2.210   7.664 -0.0397  0.2506 -0.0542
  217MOL0     C29201  -0.196   2.153   7.601  0.9139  0.5146 -0.1849
  217MOL0     C29202  -0.275   2.261   7.534  0.5140  0.2919 -0.6775
  217MOL0     C29203  -0.419   2.216   7.488 -0.3349  0.2037 -0.5958
  217MOL0     C29204  -0.490   2.347   7.430  0.0480  0.7083 -0.2033
  217MOL0    Cl29205  -0.668   2.325   7.419 -0.2259 -0.3384 -0.4171
  217MOL0     C29206   0.554   2.163   7.682 -0.2817  0.5641 -0.2600
  217MOL0     C29207   0.683   2.124   7.729  0.5370  0.3491  0.5721
  217MOL0     O29208   0.826   2.163   7.955 -0.0514  0.1726 -0.0133
  217MOL0     C29209   1.078   1.901   7.953 -0.9427  0.1623 -0.6549
  217MOL0     C29210   1.201   1.862   7.998  0.1158  0.0411  0.8537
  217MOL0     N29211   1.844   2.048   7.648 -0.8429 -0.5988 -0.4327
  217MOL0     N29212   1.932   2.145   7.645  0.2522  0.7332  0.1355
  217MOL0     C29213   1.450   2.673   7.571  0.0297  0.0391  0.2792
  217MOL0     C29214   1.307   2.682   7.556 -0.0420 -0.4942 -0.4514
  217MOL0     C29215   0.876   2.714   7.641 -0.6791  0.1181  0.0997
  217MOL0     C29216   0.812   2.793   7.543  0.3321 -0.6075 -0.3214
  217MOL0     C29217   0.676   2.780   7.516  0.5612  0.5932 -0.2565
  217MOL0     C29218   0.591   2.688   7.589 -0.1869 -0.4819 -0.3609
  217MOL0     O29219   0.459   2.686   7.548 -0.3140  0.3984 -0.3581
  217MOL0     C29220   0.372   2.627   7.643  0.6676  0.5440  0.5633
  217MOL0     C29221   0.228   2.652   7.588 -0.1849 -0.0331 -0.0274
  217MOL0     C29222   0.122   2.595   7.677 -0.6271  0.5724 -0.5650
  217MOL0     C29223   0.125   2.655   7.818 -0.5508  0.5338 -0.3292
  217MOL0     C29224  -0.002   2.617   7.890  0.0817 -0.3231 -0.7769
  217MOL0     C29225  -0.107   2.598   7.948  0.1052  0.3188 -0.1475
  217MOL0     C29226   0.649   2.616   7.692 -0.2661 -0.4699 -0.8619
  217MOL0     C29227   0.794   2.631   7.719  0.5459  0.2807  0.0880
  217MOL0     H29228   1.276   2.998   7.653 -1.3442 -0.9410 -0.1904
  217MOL0     H29229   1.531   2.977   7.666  0.5456  0.0577  1.0614
  217MOL0     H29230   1.724   2.945   7.571  1.1738  1.6885  0.1883
  217MOL0     H29231   1.729   2.913   7.740 -0.8371  0.7400 -0.5351
  217MOL0     H29232   1.922   2.764   7.546 -2.0708 -2.3753  1.4046
  217MOL0     H29233   1.963   2.914   7.642 -0.4546 -0.1827 -0.7127
  217MOL0     H29234   1.935   2.802   7.847  1.8515 -2.4376  1.3232
  217MOL0     H29235   1.839   2.678   7.794 -1.5704  4.3695  1.8681
  217MOL0     H29236   2.031   2.586   7.657 -0.0835  0.3742  0.4645
  217MOL0     H29237   2.117   2.736   7.674 -3.2063  1.2379 -2.6519
  217MOL0     H29238   2.219   2.548   7.805  0.4752 -0.3402  1.5910
  217MOL0     H29239   2.185   2.674   7.904  0.1918 -0.7161  0.7991
  217MOL0     H29240   2.095   2.474   8.019  5.1627  2.0580 -2.2115
  217MOL0     H29241   1.963   2.591   7.974  1.1830 -0.2930  2.1043
  217MOL0     H29242   1.885   2.368   7.935 -2.8025  2.3490 -0.8926
  217MOL0     H29243   1.893   2.453   7.786 -0.2505 -0.3807  0.0099
  217MOL0     H29244   2.124   2.271   7.861  0.8272  0.6817 -0.5665
  217MOL0     H29245   2.096   2.338   7.710 -1.0260 -3.0750 -1.9813
  217MOL0     H29246   1.911   2.086   7.964 -1.2166 -2.4201 -0.6001
  217MOL0     H29247   1.787   1.813   7.794 -1.0325 -0.9617  2.2374
  217MOL0     H29248   1.763   1.896   7.948  0.3835  1.7790  0.5269
  217MOL0     H29249   1.559   1.900   7.715 -1.1606  1.6641 -0.2338
  217MOL0     H29250   1.557   2.007   7.852  0.3519  0.0977  0.7834
  217MOL0     H29251   1.551   1.690   7.878  3.8491  0.9651  0.7299
  217MOL0     H29252   1.420   1.785   7.834 -0.1760  2.4403  0.5162
  217MOL0     H29253   1.571   1.794   8.100  0.4889  0.7883 -1.4360
  217MOL0     H29254   1.421   1.716   8.073  0.5175 -0.6386  1.1793
  217MOL0     H29255   1.313   2.148   8.121  1.3128 -2.3441  1.2159
  217MOL0     H29256   1.054   2.337   8.006 -1.7626  0.6522 -0.1766
  217MOL0     H29257   0.955   2.260   8.137  0.4000 -0.2846 -0.1478
  217MOL0     H29258   1.123   2.304   8.161 -1.4838  1.1459  0.5323
  217MOL0     H29259   0.615   1.807   7.842 -0.7190  0.8317  1.5656
  217MOL0     H29260   0.381   1.889   7.781 -2.1716  2.1759  0.0093
  217MOL0     H29261   0.310   2.273   7.683  0.2074 -0.3979  0.6879
  217MOL0     H29262   0.198   2.188   7.575 -2.1724 -1.9445  0.5995
  217MOL0     H29263   0.177   2.111   7.870  0.0306 -0.1693 -0.1126
  217MOL0     H29264   0.115   2.266   7.824  1.0129  0.1507 -0.7007
  217MOL0     H29265  -0.039   2.086   7.826 -0.0404  2.0530  0.4453
  217MOL0     H29266   0.023   2.023   7.668  1.6369 -1.2312  1.5082
  217MOL0     H29267  -0.109   2.277   7.744 -1.0819  1.1540 -1.2148
  217MOL0     H29268  -0.025   2.262   7.582  0.6577 -1.1783 -0.5558
  217MOL0     H29269  -0.259   2.113   7.681 -1.4206  1.4553 -1.4526
  217MOL0     H29270  -0.171   2.078   7.526  0.9826  1.7546 -1.4309
  217MOL0     H29271  -0.284   2.342   7.607 -0.8838  0.3982 -0.9244
  217MOL0     H29272  -0.226   2.299   7.444  0.8726  2.8441  0.5157
  217MOL0     H29273  -0.472   2.177   7.575 -0.3161 -0.4855 -0.8816
  217MOL0     H29274  -0.419   2.142   7.408  0.4079 -0.7844  0.2853
  217MOL0     H29275  -0.450   2.364   7.330  0.0375 -0.4983 -0.4325
  217MOL0     H29276  -0.462   2.438   7.484 -1.4793 -0.4793  2.9017
  217MOL0     H29277   0.546   2.256   7.626 -2.4943 -0.5745 -2.0093
  217MOL0     H29278   0.758   2.201   7.715  0.0677  0.7831  0.3921
  217MOL0     H29279   1.029   1.827   7.891  0.2232 -0.2327 -1.1350
  217MOL0     H29280   1.230   1.761   7.970  0.6648  0.5960 -0.7051
  217MOL0     H29281   1.501   2.578   7.560 -0.2264  0.2029 -3.4511
  217MOL0     H29282   1.247   2.596   7.529 -1.2497  1.4264 -4.7423
  217MOL0     H29283   0.867   2.860   7.478 -1.0343 -0.3043 -1.2156
  217MOL0     H29284   0.636   2.832   7.430 -0.8681  0.2393  0.1599
  217MOL0     H29285   0.380   2.519   7.659 -0.5226  0.7649  3.2038
  217MOL0     H29286   0.377   2.668   7.744  0.9158  0.7773  0.4593
  217MOL0     H29287   0.214   2.620   7.484 -3.0177  2.5360 -0.5645
  217MOL0     H29288   0.228   2.761   7.579  4.0790  0.1929  0.3846
  217MOL0     H29289   0.124   2.485   7.672 -1.5673  0.5456 -0.5582
  217MOL0     H29290   0.025   2.628   7.640 -0.7287  0.0694 -0.7657
  217MOL0     H29291   0.145   2.762   7.807 -0.9187  0.7058  0.5847
  217MOL0     H29292   0.210   2.614   7.874  0.8775  2.1718 -1.2298
  217MOL0     H29293  -0.198   2.583   8.004 -1.5563 -0.1580 -2.7944
  217MOL0     H29294   0.585   2.547   7.744 -1.8128  1.1281 -0.5573
  217MOL0     H29295   0.833   2.564   7.794  1.6898 -0.8750 -1.4866
  218MOL0     O29296   3.321   6.532  10.376  0.6205 -0.1072  0.1885
  218MOL0     C29297   3.361   6.414  10.398  0.6654  0.3823  0.2980
  218MOL0     O29298   3.311   6.327  10.493 -0.5535 -0.3968 -0.8177
  218MOL0     C29299   3.188   6.358  10.548  0.0987 -1.1111 -1.2024
  218MOL0     C29300   3.067   6.341  10.488  0.1510 -0.3433 -0.3330
  218MOL0     C29301   2.940   6.376  10.552 -0.0112 -0.0736 -0.3301
  218MOL0     C29302   2.939   6.420  10.683 -0.2380 -0.1342 -0.2428
  218MOL0     O29303   2.828   6.468  10.746 -0.3168 -0.2836 -0.8729
  218MOL0     C29304   2.710   6.394  10.723 -0.9082  0.7141 -0.6301
  218MOL0     C29305   2.586   6.471  10.773  0.3866  0.0138 -0.0398
  218MOL0     C29306   2.457   6.390  10.763  0.2708 -0.1195  0.4482
  218MOL0     C29307   2.324   6.465  10.800  1.0374  0.5436 -0.0560
  218MOL0     C29308   2.205   6.364  10.781 -0.5280 -0.5513 -0.0136
  218MOL0     C29309   2.066   6.421  10.817 -0.4406  0.2924  0.6842
  218MOL0     C29310   2.007   6.530  10.722  0.4061  0.3168 -0.5962
  218MOL0     C29311   1.868   6.497  10.669  0.0483  0.4170 -0.4580
  218MOL0     N29312   1.758   6.526  10.763  0.0285 -0.5825  0.6440
  218MOL0     C29313   1.726   6.652  10.809  0.5503  0.2183 -0.6818
  218MOL0     C29314   1.618   6.636  10.884 -0.6849 -0.3567 -0.8839
  218MOL0     C29315   1.546   6.748  10.964 -0.1871  0.6925  0.8170
  218MOL0     C29316   1.438   6.812  10.879 -0.1276  0.0551  0.4017
  218MOL0     C29317   1.358   6.915  10.972  0.0024 -0.2576  0.0386
  218MOL0     C29318   1.221   6.943  10.922 -0.0200  0.4869 -0.5968
  218MOL0     O29319   1.163   7.042  11.018  0.0577 -0.3969 -0.3209
  218MOL0     C29320   1.027   7.070  11.013  0.4280  0.0083  0.0314
  218MOL0     C29321   0.976   7.156  11.110  1.0549 -0.7689 -0.3678
  218MOL0     C29322   0.841   7.193  11.118 -0.2672 -0.3572 -0.3840
  218MOL0     C29323   0.792   7.284  11.227  0.9757  0.4531 -0.1763
  218MOL0     C29324   0.757   7.143  11.025 -0.2451  0.0751  0.4119
  218MOL0     C29325   0.619   7.168  11.010  0.3566  0.2960  0.2783
  218MOL0     O29326   0.542   7.056  11.000 -0.3259 -0.1890 -0.0104
  218MOL0     C29327   0.404   7.071  10.996 -0.5240  0.9020  0.0310
  218MOL0     C29328   0.330   7.137  10.898  0.5637 -0.4795 -0.4383
  218MOL0     C29329   0.192   7.165  10.924 -0.8341  0.5468  0.3367
  218MOL0     C29330   0.121   7.096  11.024  0.2921 -0.2053  0.3272
  218MOL0     O29331  -0.021   7.101  11.061 -0.3653 -0.2172  0.0242
  218MOL0     C29332  -0.108   7.177  10.983 -0.0179 -0.0337  0.5342
  218MOL0     C29333  -0.086   7.331  10.993  0.5452 -0.3191 -0.1115
  218MOL0     C29334  -0.100   7.398  11.137 -0.3186  0.4377  0.4267
  218MOL0     C29335  -0.071   7.550  11.134 -0.9398  0.5509  0.2675
  218MOL0     C29336  -0.084   7.627  11.267  0.1458 -0.6905 -0.8675
  218MOL0     C29337  -0.238   7.644  11.305 -0.1611 -0.0737  0.7902
  218MOL0     C29338  -0.251   7.735  11.423  0.1934 -0.8660  0.4140
  218MOL0     C29339  -0.383   7.719  11.487 -0.1350 -0.0310 -0.7714
  218MOL0    Cl29340  -0.513   7.765  11.380 -0.1197  0.4776  0.2094
  218MOL0     C29341   0.194   7.020  11.116  0.2135 -0.3032  0.2124
  218MOL0     C29342   0.338   7.013  11.103 -0.0034  0.1220  0.0541
  218MOL0     O29343   0.586   7.283  10.994  0.5931 -0.7060  0.2150
  218MOL0     C29344   0.803   7.049  10.929 -0.0072 -0.0399 -0.3769
  218MOL0     C29345   0.936   7.006  10.921 -0.6666  0.1854 -0.1481
  218MOL0     N29346   1.570   6.513  10.870  0.6465  0.4684  0.6800
  218MOL0     N29347   1.655   6.442  10.803  0.0636  0.0846  0.2395
  218MOL0     C29348   3.063   6.443  10.745 -0.1738  0.8729  0.5025
  218MOL0     C29349   3.187   6.409  10.686  0.8311 -0.8378 -0.1665
  218MOL0     C29350   3.477   6.353  10.318 -0.1269 -0.5721 -0.1757
  218MOL0     C29351   3.559   6.432  10.228  0.5733  0.0135 -0.2564
  218MOL0     C29352   3.676   6.375  10.165  1.1802 -0.4422 -0.3765
  218MOL0     C29353   3.700   6.241  10.184  0.2904 -0.5840  1.5680
  218MOL0     O29354   3.813   6.190  10.114 -0.2834 -0.0720 -0.3117
  218MOL0     C29355   3.845   6.050  10.128 -0.2451  0.2101 -0.3671
  218MOL0     C29356   3.966   6.013  10.041  0.2483  0.5410 -0.4697
  218MOL0     C29357   4.093   6.069  10.095 -0.5056  0.4038 -0.9239
  218MOL0     C29358   4.227   6.010  10.041  0.2016  0.6074 -0.5589
  218MOL0     C29359   4.332   6.078  10.110 -0.7179 -0.8000 -0.0468
  218MOL0     C29360   4.419   6.136  10.171  0.3893  0.3950 -0.8833
  218MOL0     C29361   3.619   6.171  10.270 -0.3214  0.5755  0.3010
  218MOL0     C29362   3.511   6.221  10.338 -0.8004 -0.3051 -0.4277
  218MOL0     H29363   3.069   6.298  10.388  3.1077  1.8849 -1.3651
  218MOL0     H29364   2.851   6.354  10.493 -0.6970  0.2509  0.5597
  218MOL0     H29365   2.690   6.383  10.616 -0.7675  1.5385 -0.7481
  218MOL0     H29366   2.712   6.292  10.761  1.4094 -0.2355 -2.9395
  218MOL0     H29367   2.596   6.490  10.880 -2.0285 -1.7385  0.5786
  218MOL0     H29368   2.555   6.561  10.719 -2.1023 -2.3436 -2.9322
  218MOL0     H29369   2.438   6.356  10.661  1.0470  0.8690 -0.0368
  218MOL0     H29370   2.466   6.309  10.837 -0.0770 -0.0598  0.5626
  218MOL0     H29371   2.320   6.504  10.902  1.2854  2.1050 -0.6067
  218MOL0     H29372   2.297   6.546  10.731  0.4991  1.0717  0.7543
  218MOL0     H29373   2.210   6.311  10.686 -0.4488 -4.0570  1.7692
  218MOL0     H29374   2.218   6.279  10.849 -2.4770 -1.0644 -0.2037
  218MOL0     H29375   2.006   6.330  10.817  2.4573 -1.7985  2.8682
  218MOL0     H29376   2.068   6.464  10.918 -1.6098  0.5470  0.6220
  218MOL0     H29377   1.992   6.620  10.782  0.9655  0.2720 -0.3884
  218MOL0     H29378   2.080   6.553  10.644  1.8666 -1.8186  0.0642
  218MOL0     H29379   1.871   6.390  10.644  0.2782  0.0785  0.9593
  218MOL0     H29380   1.859   6.551  10.574 -0.6518 -0.6654 -1.0343
  218MOL0     H29381   1.789   6.739  10.795 -2.7042  2.7866 -0.6843
  218MOL0     H29382   1.501   6.690  11.045 -0.6144  1.0804  0.8585
  218MOL0     H29383   1.625   6.818  10.995  1.6316 -0.4406 -1.0174
  218MOL0     H29384   1.363   6.739  10.848 -0.2467 -0.7261  2.3947
  218MOL0     H29385   1.477   6.859  10.788  0.2974  0.2912  0.7015
  218MOL0     H29386   1.414   7.009  10.968 -0.6799  0.1441 -0.0874
  218MOL0     H29387   1.356   6.877  11.075  0.1868  2.0058  0.9349
  218MOL0     H29388   1.169   6.849  10.900  2.1130 -0.8357 -0.2658
  218MOL0     H29389   1.223   6.993  10.825  0.3768  2.1231  0.2184
  218MOL0     H29390   1.048   7.184  11.187  1.4221 -2.5011 -0.0335
  218MOL0     H29391   0.874   7.341  11.271  1.2273  2.3099 -2.7828
  218MOL0     H29392   0.721   7.356  11.186  0.5397 -0.1436 -0.4719
  218MOL0     H29393   0.746   7.230  11.310  0.4455  0.1552 -0.6568
  218MOL0     H29394   0.394   7.182  10.822 -2.0930  1.6108 -1.6121
  218MOL0     H29395   0.133   7.233  10.864 -0.0043  0.3085 -0.7789
  218MOL0     H29396  -0.107   7.147  10.878  1.6701  0.9261  0.2281
  218MOL0     H29397  -0.211   7.164  11.017  0.0496  0.7990  1.0852
  218MOL0     H29398  -0.002   7.368  10.933  0.1308 -1.8955 -1.7371
  218MOL0     H29399  -0.171   7.372  10.938  2.3486  2.3567 -1.1101
  218MOL0     H29400  -0.043   7.330  11.201 -1.5873 -0.9837  0.0873
  218MOL0     H29401  -0.205   7.390  11.166  0.1543 -0.5273  1.9660
  218MOL0     H29402   0.030   7.565  11.095 -1.7813 -1.1393 -2.8451
  218MOL0     H29403  -0.133   7.605  11.063  1.7502  0.4964 -2.2795
  218MOL0     H29404  -0.038   7.726  11.258 -0.4320 -0.4844 -1.6303
  218MOL0     H29405  -0.028   7.584  11.351 -0.7552 -0.6500 -0.2355
  218MOL0     H29406  -0.285   7.702  11.225  2.2805  0.9006 -0.0478
  218MOL0     H29407  -0.276   7.543  11.319  2.7532 -1.5186 -0.9008
  218MOL0     H29408  -0.242   7.841  11.396 -0.4224 -0.4716  1.6698
  218MOL0     H29409  -0.167   7.711  11.489  2.4668  0.8382 -1.6593
  218MOL0     H29410  -0.384   7.786  11.574  0.3081  0.9986 -1.5376
  218MOL0     H29411  -0.386   7.616  11.523 -1.3251  0.5078  0.7515
  218MOL0     H29412   0.156   6.969  11.204  0.3602  0.9887  1.0531
  218MOL0     H29413   0.381   6.943  11.174 -0.9757 -0.5977 -0.0351
  218MOL0     H29414   0.734   6.979  10.883 -1.5724 -0.1933  2.0323
  218MOL0     H29415   0.953   6.937  10.839  1.2598 -0.9767  1.1336
  218MOL0     H29416   3.058   6.481  10.846 -1.9170  0.3057  0.6605
  218MOL0     H29417   3.275   6.430  10.745 -0.6230 -0.1272  1.8564
  218MOL0     H29418   3.531   6.536  10.212 -3.0126 -1.0868 -2.2364
  218MOL0     H29419   3.743   6.430  10.099  2.6991  0.6417  1.9530
  218MOL0     H29420   3.863   6.023  10.232  1.3833  2.3563 -0.0286
  218MOL0     H29421   3.761   5.992  10.088  0.5564 -1.0734 -0.2413
  218MOL0     H29422   3.966   6.063   9.944  0.9996  1.5629  0.0401
  218MOL0     H29423   3.966   5.905  10.021 -0.2949 -0.1489  2.6577
  218MOL0     H29424   4.079   6.043  10.200  0.3197 -1.1104 -1.1729
  218MOL0     H29425   4.107   6.178  10.087 -0.0211  0.4410  0.2098
  218MOL0     H29426   4.231   6.021   9.932 -0.7734  1.2819 -0.5442
  218MOL0     H29427   4.229   5.902  10.056  1.3109  0.7570  0.4901
  218MOL0     H29428   4.492   6.200  10.215  0.3160  0.0493 -0.2476
  218MOL0     H29429   3.657   6.070  10.282  2.1474  1.5666  1.7053
  218MOL0     H29430   3.466   6.161  10.416 -0.2534 -0.8067 -0.4895
  219MOL0     O29431   6.017   9.875   1.551 -0.5056  0.7333 -0.2865
  219MOL0     C29432   5.928   9.821   1.487 -0.1461  0.3026 -0.9226
  219MOL0     O29433   5.843   9.880   1.398 -0.4789  0.1179  0.5134
  219MOL0     C29434   5.839  10.017   1.371  0.6418  0.4333 -0.1268
  219MOL0     C29435   5.713  10.077   1.354  0.2033 -1.1163  0.0896
  219MOL0     C29436   5.695  10.212   1.309  0.0850 -0.4111  1.1736
  219MOL0     C29437   5.808  10.286   1.285  0.0219 -0.7484 -0.4064
  219MOL0     O29438   5.786  10.409   1.241  0.2489 -0.2325 -0.0810
  219MOL0     C29439   5.888  10.513   1.226  0.6556  0.1199 -0.2982
  219MOL0     C29440   5.826  10.652   1.243  0.1951 -0.4809 -0.2769
  219MOL0     C29441   5.709  10.679   1.143 -1.3130  0.1323  0.0639
  219MOL0     C29442   5.671  10.830   1.156  0.4368  0.2829 -0.0085
  219MOL0     C29443   5.585  10.892   1.049 -0.1008 -0.4695  0.0244
  219MOL0     C29444   5.446  10.833   1.023  0.2827  0.8613  0.5761
  219MOL0     C29445   5.350  10.872   1.134  1.1167  0.2260  0.6610
  219MOL0     C29446   5.283  11.006   1.099  0.0139  0.2626 -0.0935
  219MOL0     N29447   5.175  10.998   0.997  0.1153 -0.2818 -0.3912
  219MOL0     C29448   5.048  10.965   1.028 -0.3130 -0.2759 -0.1963
  219MOL0     C29449   4.984  10.977   0.906 -0.1003  0.1582 -0.3313
  219MOL0     C29450   4.836  10.982   0.886 -0.2723  0.1902  0.1490
  219MOL0     C29451   4.782  10.876   0.783 -0.3313 -0.0825  0.0606
  219MOL0     C29452   4.639  10.827   0.815  0.1227  1.1629  0.5009
  219MOL0     C29453   4.535  10.930   0.771  0.3296 -0.6951  0.0774
  219MOL0     O29454   4.406  10.866   0.776  0.1487  0.2488  0.1110
  219MOL0     C29455   4.323  10.921   0.682 -0.3673 -0.2892 -0.1314
  219MOL0     C29456   4.277  10.846   0.578 -0.2636  0.5600  0.6896
  219MOL0     C29457   4.168  10.898   0.495 -0.7117  0.3829  0.0941
  219MOL0     C29458   4.096  10.809   0.397 -0.0981  0.1189 -0.0051
  219MOL0     C29459   4.112  11.022   0.515  0.3004 -0.0274 -0.2371
  219MOL0     C29460   4.003  11.073   0.433 -0.3957  0.0342 -0.3814
  219MOL0     O29461   3.927  11.161   0.502  0.6495 -1.0603 -0.3997
  219MOL0     C29462   3.817  11.215   0.444  0.4156  0.7614 -0.1871
  219MOL0     C29463   3.685  11.159   0.470 -0.3762 -0.4297  0.4889
  219MOL0     C29464   3.572  11.222   0.416 -0.2220  0.5339  0.0185
  219MOL0     C29465   3.597  11.333   0.332  0.2751 -0.1705  0.6836
  219MOL0     O29466   3.496  11.416   0.285  0.0966 -0.7881 -0.4837
  219MOL0     C29467   3.362  11.385   0.325  0.2889 -0.0186  0.7825
  219MOL0     C29468   3.265  11.482   0.254 -0.6116  0.5339  0.4713
  219MOL0     C29469   3.115  11.459   0.260 -0.6613  0.2771  0.6400
  219MOL0     C29470   3.041  11.572   0.186  0.3451 -0.1466  0.0346
  219MOL0     C29471   2.895  11.562   0.203 -0.6015  0.3597  0.2152
  219MOL0     C29472   2.829  11.682   0.138  0.2767 -0.8181  0.7680
  219MOL0     C29473   2.673  11.681   0.154  0.6190  0.0977  0.0023
  219MOL0     C29474   2.601  11.809   0.097 -0.4997  0.4322 -0.1100
  219MOL0    Cl29475   2.424  11.812   0.165 -0.0677 -0.2102 -0.0054
  219MOL0     C29476   3.720  11.381   0.299  0.2047  0.6270 -0.5364
  219MOL0     C29477   3.835  11.320   0.359 -0.1825  0.3681  0.4002
  219MOL0     O29478   4.009  11.068   0.312 -0.7797 -0.2620 -0.1095
  219MOL0     C29479   4.163  11.095   0.629 -0.7303  0.1251  0.0806
  219MOL0     C29480   4.278  11.053   0.699 -0.6467  0.4987 -0.3217
  219MOL0     N29481   5.078  10.997   0.804 -0.4575 -1.0079 -0.2022
  219MOL0     N29482   5.192  11.004   0.859  0.0771 -0.1652 -0.2080
  219MOL0     C29483   5.930  10.233   1.329 -0.1539 -0.4398 -0.3749
  219MOL0     C29484   5.943  10.104   1.370 -0.7443  0.3590  0.3471
  219MOL0     C29485   5.900   9.679   1.512  0.4324  0.1624 -0.6645
  219MOL0     C29486   5.991   9.605   1.596 -0.2697 -0.5272 -0.1244
  219MOL0     C29487   5.969   9.468   1.612  0.4553 -0.4802 -0.9732
  219MOL0     C29488   5.855   9.394   1.552 -0.1606 -0.5739  0.1459
  219MOL0     O29489   5.825   9.259   1.542 -0.3809 -0.4393 -0.0971
  219MOL0     C29490   5.940   9.168   1.534  0.3892 -1.3028  0.3102
  219MOL0     C29491   5.924   9.052   1.633 -0.1957  0.3182  0.7860
  219MOL0     C29492   6.047   8.971   1.617 -0.1945 -0.6997 -0.4097
  219MOL0     C29493   6.038   8.840   1.704  1.0602  0.3392 -0.4604
  219MOL0     C29494   6.155   8.750   1.693  0.1179  0.1769  0.4131
  219MOL0     C29495   6.236   8.659   1.666 -0.5361  0.6930  1.1388
  219MOL0     C29496   5.767   9.477   1.481  0.2079  0.2532 -0.0004
  219MOL0     C29497   5.789   9.617   1.462  0.3170 -0.1632  1.2214
  219MOL0     H29498   5.629  10.012   1.375  0.0464 -0.9718 -0.0822
  219MOL0     H29499   5.589  10.237   1.304 -1.2632 -5.2209  1.0435
  219MOL0     H29500   5.964  10.507   1.305  0.3847 -2.4611 -0.1514
  219MOL0     H29501   5.945  10.505   1.133  0.6396  1.1543 -0.4079
  219MOL0     H29502   5.801  10.663   1.350 -0.5088  2.4145 -0.6556
  219MOL0     H29503   5.910  10.717   1.219  2.4194 -2.9009  0.5188
  219MOL0     H29504   5.732  10.661   1.038  1.4759 -0.4475  0.6986
  219MOL0     H29505   5.627  10.614   1.175 -0.7425 -0.6464 -0.0175
  219MOL0     H29506   5.625  10.840   1.255 -0.3859  1.0561 -0.4480
  219MOL0     H29507   5.767  10.881   1.164  0.0400  0.9651  0.5211
  219MOL0     H29508   5.566  10.996   1.077 -0.8220 -0.6021  0.0387
  219MOL0     H29509   5.651  10.886   0.962 -0.2210 -3.2638  0.0538
  219MOL0     H29510   5.406  10.865   0.927 -1.0820 -0.5705  0.6345
  219MOL0     H29511   5.459  10.725   1.013 -0.1670  0.9639 -1.7873
  219MOL0     H29512   5.284  10.786   1.145  1.6024 -0.3526 -0.6381
  219MOL0     H29513   5.402  10.879   1.230 -0.9526 -0.2378  1.8796
  219MOL0     H29514   5.353  11.082   1.063 -1.5606  1.3530 -0.9851
  219MOL0     H29515   5.240  11.046   1.191 -1.1876  0.0225 -0.5349
  219MOL0     H29516   5.004  10.935   1.122  0.8496  0.5072  0.6345
  219MOL0     H29517   4.783  10.971   0.981 -1.4656 -0.5837 -0.5772
  219MOL0     H29518   4.802  11.081   0.855 -2.0835 -0.3598  0.2262
  219MOL0     H29519   4.851  10.791   0.781  0.2600  0.3893  0.0538
  219MOL0     H29520   4.790  10.912   0.680  1.5023  0.5995  0.4069
  219MOL0     H29521   4.633  10.793   0.919 -2.9879 -2.1413 -0.5714
  219MOL0     H29522   4.628  10.738   0.753  3.6599 -1.2868  2.9819
  219MOL0     H29523   4.559  10.958   0.668 -0.2537 -0.4239  0.0117
  219MOL0     H29524   4.537  11.017   0.837 -5.3191 -0.8246  0.9228
  219MOL0     H29525   4.301  10.740   0.578 -1.6956  0.2162 -0.3241
  219MOL0     H29526   4.122  10.844   0.296  2.3474  1.9306  1.1555
  219MOL0     H29527   4.128  10.707   0.421 -0.8913  0.0513  0.8181
  219MOL0     H29528   3.988  10.821   0.411 -0.3105 -0.3972 -1.0621
  219MOL0     H29529   3.686  11.073   0.536 -1.7473  0.2064  1.3888
  219MOL0     H29530   3.473  11.187   0.443 -1.1155 -0.1200 -3.5771
  219MOL0     H29531   3.337  11.282   0.296 -0.6343  0.3609  0.1645
  219MOL0     H29532   3.348  11.395   0.433 -3.7295  1.1095  0.3188
  219MOL0     H29533   3.283  11.581   0.297  0.4709  0.8893 -0.7436
  219MOL0     H29534   3.297  11.478   0.149 -0.8105  1.0667  0.3863
  219MOL0     H29535   3.085  11.463   0.365 -2.4168 -3.1846  0.3932
  219MOL0     H29536   3.081  11.369   0.209  0.1256 -0.2812  1.0716
  219MOL0     H29537   3.080  11.667   0.224 -0.7867 -0.5036  2.2388
  219MOL0     H29538   3.067  11.574   0.080  1.2939  1.6723  0.2477
  219MOL0     H29539   2.874  11.563   0.310  3.0778 -1.6785  1.1599
  219MOL0     H29540   2.851  11.471   0.163 -0.8996  0.7603 -0.3825
  219MOL0     H29541   2.875  11.778   0.161 -0.9170 -0.1590  0.4793
  219MOL0     H29542   2.846  11.668   0.031 -0.9603 -1.6609  0.6518
  219MOL0     H29543   2.655  11.668   0.261  2.1608  2.6344  0.6621
  219MOL0     H29544   2.631  11.594   0.104 -0.4036 -0.5175  1.8632
  219MOL0     H29545   2.602  11.823  -0.011  2.8080 -0.8716 -0.3972
  219MOL0     H29546   2.658  11.891   0.141  0.0703  1.6539 -2.8991
  219MOL0     H29547   3.749  11.459   0.229  2.8999  0.1007 -0.1421
  219MOL0     H29548   3.937  11.343   0.332  1.4406 -2.1604  3.6288
  219MOL0     H29549   4.127  11.193   0.660  2.0914  1.7043 -1.1803
  219MOL0     H29550   4.316  11.117   0.778  0.5119 -0.2506 -0.2527
  219MOL0     H29551   6.030  10.274   1.329 -0.7763  1.2991 -2.6378
  219MOL0     H29552   6.040  10.063   1.395 -0.1942  0.1103 -1.9280
  219MOL0     H29553   6.071   9.658   1.646  0.0665 -0.2186 -0.9684
  219MOL0     H29554   6.034   9.400   1.666 -0.0609 -0.0281  0.2804
  219MOL0     H29555   5.945   9.128   1.432  1.2433 -0.2154 -0.0925
  219MOL0     H29556   6.029   9.224   1.564 -0.3358  0.7295 -1.1639
  219MOL0     H29557   5.841   8.986   1.606 -0.9295  1.4769  0.0962
  219MOL0     H29558   5.906   9.096   1.731  0.7245 -1.8259  1.9896
  219MOL0     H29559   6.130   9.026   1.663  0.5211 -3.8074  2.4287
  219MOL0     H29560   6.062   8.938   1.514  0.3589 -3.5144  0.4845
  219MOL0     H29561   5.947   8.784   1.682  1.7962 -1.1452  0.1049
  219MOL0     H29562   6.031   8.862   1.810  0.7529 -0.7284 -0.2391
  219MOL0     H29563   6.311   8.586   1.645 -1.5448 -0.5839  1.8394
  219MOL0     H29564   5.681   9.433   1.432 -1.7194  5.0460 -1.5659
  219MOL0     H29565   5.715   9.664   1.398  0.7237 -2.2170 -0.9085
  220MOL0     O29566   4.397   2.909   9.446  0.1158  0.2872  0.6054
  220MOL0     C29567   4.437   2.865   9.550  0.2978  0.9978 -0.4611
  220MOL0     O29568   4.387   2.883   9.674 -0.5688 -0.2703 -0.0657
  220MOL0     C29569   4.286   2.965   9.700  0.0151 -0.9518  0.1994
  220MOL0     C29570   4.219   3.051   9.614 -0.3791 -1.1826 -0.5307
  220MOL0     C29571   4.109   3.128   9.658 -0.7175 -0.8035  0.4603
  220MOL0     C29572   4.061   3.124   9.792  0.7876  0.1739 -1.0769
  220MOL0     O29573   3.939   3.179   9.827 -0.2417  0.0044  0.2571
  220MOL0     C29574   3.825   3.148   9.744  0.4701 -0.9048  0.1382
  220MOL0     C29575   3.698   3.210   9.800 -0.1890 -0.3830 -0.3344
  220MOL0     C29576   3.670   3.175   9.946 -0.0957 -0.3047 -0.6834
  220MOL0     C29577   3.529   3.225   9.990 -0.5781 -0.0382 -0.6329
  220MOL0     C29578   3.553   3.364  10.056  1.0315  0.8124 -0.8180
  220MOL0     C29579   3.427   3.433  10.087 -0.4478 -0.0449  0.6815
  220MOL0     C29580   3.328   3.355  10.182 -0.5724 -1.0430 -1.0814
  220MOL0     C29581   3.223   3.450  10.239  0.5024 -0.5701  0.1245
  220MOL0     N29582   3.150   3.521  10.120 -0.0337  0.1338  0.0894
  220MOL0     C29583   3.083   3.460  10.023  0.4990 -0.4883  0.2282
  220MOL0     C29584   3.030   3.561   9.958 -0.3612  0.4675  0.2214
  220MOL0     C29585   2.940   3.529   9.841 -0.6070 -0.2703 -0.6235
  220MOL0     C29586   2.789   3.547   9.891 -0.4944  0.6504  0.1555
  220MOL0     C29587   2.697   3.506   9.768  0.3288 -1.1620 -0.3288
  220MOL0     C29588   2.557   3.476   9.818 -0.0629  0.0898 -0.2653
  220MOL0     O29589   2.557   3.359   9.899 -0.3907  0.4888 -0.1561
  220MOL0     C29590   2.435   3.294   9.917 -0.2977  0.1393  0.1389
  220MOL0     C29591   2.429   3.177   9.989 -0.2521  0.4207  0.0715
  220MOL0     C29592   2.307   3.115  10.020 -0.1308 -0.0794 -0.5062
  220MOL0     C29593   2.308   2.992  10.107  0.1038  0.5177 -0.7127
  220MOL0     C29594   2.187   3.173   9.972 -0.2199 -0.4121  0.1698
  220MOL0     C29595   2.044   3.142  10.009 -0.0716  0.3107  0.1130
  220MOL0     O29596   1.938   3.193   9.930 -0.1695 -0.2619  0.0280
  220MOL0     C29597   1.818   3.193   9.983  0.7652 -0.0194  0.8674
  220MOL0     C29598   1.717   3.119   9.915 -0.0610 -0.3162 -0.8033
  220MOL0     C29599   1.586   3.126   9.963 -0.2841 -0.4061  0.0056
  220MOL0     C29600   1.555   3.198  10.075 -0.2048  0.8522  0.8979
  220MOL0     O29601   1.427   3.216  10.111  0.4593 -0.1761  1.1133
  220MOL0     C29602   1.386   3.134  10.225  0.2714 -0.1696 -0.1914
  220MOL0     C29603   1.266   3.199  10.299  0.0516  0.7087  0.9398
  220MOL0     C29604   1.150   3.228  10.201  0.1183 -0.1161 -0.4738
  220MOL0     C29605   1.031   3.285  10.272  1.0041  0.4064  0.5420
  220MOL0     C29606   0.948   3.167  10.331 -0.5104  0.0826  0.0627
  220MOL0     C29607   0.800   3.203  10.355 -0.0864  0.1100 -0.6222
  220MOL0     C29608   0.723   3.102  10.444  0.1943 -0.4421  0.0656
  220MOL0     C29609   0.575   3.136  10.432 -0.4368  0.2359 -0.3636
  220MOL0    Cl29610   0.472   2.994  10.499  0.1516 -0.1533 -0.1010
  220MOL0     C29611   1.655   3.275  10.139  0.2363  0.6398  0.7153
  220MOL0     C29612   1.789   3.262  10.104 -0.3703 -0.1344  0.2022
  220MOL0     O29613   2.033   3.053  10.096 -0.6835 -0.3430  0.6915
  220MOL0     C29614   2.196   3.289   9.897 -0.8041 -0.9573 -0.1661
  220MOL0     C29615   2.316   3.356   9.874 -0.1727  0.5441  0.2345
  220MOL0     N29616   3.044   3.677  10.033  0.5819  0.5244 -0.4933
  220MOL0     N29617   3.145   3.652  10.109  0.9488 -0.7127 -0.2051
  220MOL0     C29618   4.138   3.044   9.885  0.1010 -0.4214  0.1549
  220MOL0     C29619   4.246   2.969   9.836  0.0247  0.3898  0.5028
  220MOL0     C29620   4.560   2.778   9.545 -0.5627 -0.3514 -0.0460
  220MOL0     C29621   4.598   2.708   9.655  0.9525 -0.7469  0.1236
  220MOL0     C29622   4.711   2.634   9.653  0.7840  1.0816 -0.4282
  220MOL0     C29623   4.792   2.620   9.545  0.4879  0.0192  0.0606
  220MOL0     O29624   4.894   2.536   9.556  0.2153  0.1018  0.1146
  220MOL0     C29625   5.007   2.539   9.462 -0.4759  0.8044  1.4627
  220MOL0     C29626   5.096   2.422   9.505 -0.6444 -0.3941 -0.4804
  220MOL0     C29627   5.021   2.283   9.499 -0.8557 -0.0181 -0.3051
  220MOL0     C29628   5.125   2.166   9.478  0.4494  0.0001  0.2090
  220MOL0     C29629   5.059   2.040   9.501 -1.0116 -0.3420  0.6066
  220MOL0     C29630   4.993   1.943   9.528  0.5928  0.6201 -0.7543
  220MOL0     C29631   4.747   2.680   9.425 -0.7603 -0.5691 -0.4641
  220MOL0     C29632   4.640   2.763   9.429  0.1022 -1.1083  0.6244
  220MOL0     H29633   4.251   3.073   9.512 -1.2031 -1.3524 -0.8301
  220MOL0     H29634   4.064   3.176   9.573  3.3840 -0.6337 -1.8753
  220MOL0     H29635   3.850   3.197   9.650  1.8443 -1.5422  0.1431
  220MOL0     H29636   3.810   3.041   9.726 -1.6988 -0.7307  0.5676
  220MOL0     H29637   3.703   3.318   9.782 -0.1592 -0.3689 -0.2453
  220MOL0     H29638   3.610   3.172   9.748 -0.7033  1.5143 -0.9296
  220MOL0     H29639   3.685   3.067   9.950  2.5079 -0.0393 -1.0462
  220MOL0     H29640   3.754   3.214  10.005 -0.6812 -0.7905  0.5050
  220MOL0     H29641   3.456   3.221   9.909 -1.1968 -1.8062 -0.0321
  220MOL0     H29642   3.490   3.154  10.063  0.2210  0.3606  0.2114
  220MOL0     H29643   3.615   3.357  10.146 -0.7836  2.9262  0.7080
  220MOL0     H29644   3.608   3.425   9.984  2.4047 -2.8236 -3.1675
  220MOL0     H29645   3.445   3.536  10.118 -0.1691  0.5927 -1.4540
  220MOL0     H29646   3.372   3.440   9.993  1.8844 -0.9812 -0.8303
  220MOL0     H29647   3.276   3.279  10.123  1.3513 -1.5349 -2.2232
  220MOL0     H29648   3.376   3.301  10.265  1.9996  0.0813 -1.7512
  220MOL0     H29649   3.249   3.525  10.315 -3.4491 -2.7837  4.1028
  220MOL0     H29650   3.153   3.389  10.296  0.1680  1.3700  1.9342
  220MOL0     H29651   3.091   3.354  10.001 -3.9777 -1.0856  0.4470
  220MOL0     H29652   2.958   3.586   9.749  1.1238 -2.0911 -1.4656
  220MOL0     H29653   2.948   3.425   9.811  1.2416 -0.2218 -0.4097
  220MOL0     H29654   2.772   3.653   9.913 -4.5485 -0.1691  1.8786
  220MOL0     H29655   2.766   3.488   9.980  0.1455  0.3489  0.1211
  220MOL0     H29656   2.735   3.418   9.715  2.1475  0.1469 -1.2866
  220MOL0     H29657   2.692   3.591   9.700  0.9725  0.6074  1.7386
  220MOL0     H29658   2.494   3.458   9.731 -0.6708  3.3206 -0.6172
  220MOL0     H29659   2.526   3.566   9.872  1.5660 -0.2185  1.2871
  220MOL0     H29660   2.517   3.135  10.036 -0.3066  0.4216  0.1766
  220MOL0     H29661   2.242   2.919  10.059 -0.8222  0.6531  0.3012
  220MOL0     H29662   2.412   2.959  10.116  0.7502  2.3046 -1.0771
  220MOL0     H29663   2.276   3.022  10.208 -1.4972 -1.8115 -0.4470
  220MOL0     H29664   1.751   3.057   9.833  0.1218 -1.9462  0.4537
  220MOL0     H29665   1.514   3.062   9.912 -0.9997 -0.6309  1.2521
  220MOL0     H29666   1.367   3.034  10.183  0.7745 -0.8963  1.2428
  220MOL0     H29667   1.467   3.132  10.298  0.4244  0.7193 -0.3328
  220MOL0     H29668   1.233   3.132  10.378 -2.0872 -0.1717 -0.6057
  220MOL0     H29669   1.293   3.288  10.356 -1.4928  1.0115  1.2439
  220MOL0     H29670   1.120   3.136  10.150 -2.2342 -0.8519  2.0228
  220MOL0     H29671   1.193   3.295  10.126  2.7630 -2.2142 -0.9851
  220MOL0     H29672   1.062   3.354  10.350  2.3976 -0.4499  0.7760
  220MOL0     H29673   0.975   3.343  10.197  1.1450 -0.7013 -0.4600
  220MOL0     H29674   1.003   3.145  10.423  0.9483  0.4616 -0.6912
  220MOL0     H29675   0.957   3.085  10.259  1.9029 -1.5463  2.0392
  220MOL0     H29676   0.800   3.294  10.416 -0.3640 -0.3099  0.0140
  220MOL0     H29677   0.765   3.214  10.252  2.6504 -2.1969 -1.9318
  220MOL0     H29678   0.751   3.118  10.548 -1.4517  0.5477  0.3950
  220MOL0     H29679   0.743   2.997  10.419  0.3534 -0.4420  0.1898
  220MOL0     H29680   0.556   3.143  10.324  2.0157  0.1591 -0.8555
  220MOL0     H29681   0.546   3.232  10.475  2.0206 -0.2504  2.7380
  220MOL0     H29682   1.622   3.343  10.217 -3.6416 -1.1950  0.8930
  220MOL0     H29683   1.873   3.306  10.158 -0.3847  1.3413 -0.9039
  220MOL0     H29684   2.107   3.336   9.855  0.1936  0.3043 -0.9485
  220MOL0     H29685   2.323   3.453   9.826  0.6815 -0.7821 -2.5422
  220MOL0     H29686   4.103   3.047   9.988  1.7219  2.7692  0.7555
  220MOL0     H29687   4.288   2.908   9.915 -3.1577 -1.8895  0.6168
  220MOL0     H29688   4.537   2.710   9.745  1.4576 -1.4517  0.4914
  220MOL0     H29689   4.747   2.580   9.741 -0.6327  0.9424  0.0959
  220MOL0     H29690   4.973   2.515   9.361 -0.4610 -4.2057  2.3999
  220MOL0     H29691   5.065   2.631   9.448  0.3631  0.1330  0.3915
  220MOL0     H29692   5.129   2.438   9.608 -0.0742  1.1449 -0.8754
  220MOL0     H29693   5.193   2.413   9.455 -0.4291 -3.0181  0.3052
  220MOL0     H29694   4.955   2.284   9.411 -0.2998 -1.7422 -0.7736
  220MOL0     H29695   4.973   2.262   9.594  4.6319 -1.0193  2.6329
  220MOL0     H29696   5.210   2.176   9.546 -1.1143  3.8238  1.9150
  220MOL0     H29697   5.156   2.169   9.374  1.7085  1.6442  0.5961
  220MOL0     H29698   4.929   1.869   9.571  1.3438  0.3407 -0.0883
  220MOL0     H29699   4.802   2.673   9.332 -1.8221 -0.0685 -1.1514
  220MOL0     H29700   4.619   2.821   9.339 -2.7208 -1.3659  1.0352
  221MOL0     O29701   7.607   0.353   8.750 -0.6384 -0.6173 -0.0341
  221MOL0     C29702   7.670   0.385   8.855 -0.2380  0.2175 -0.0518
  221MOL0     O29703   7.603   0.453   8.957 -0.9321 -0.4998  0.1873
  221MOL0     C29704   7.467   0.447   8.962 -0.0708 -0.3938 -0.1751
  221MOL0     C29705   7.383   0.555   8.920  0.6523  0.2991  0.5928
  221MOL0     C29706   7.249   0.535   8.930 -0.0489 -0.5206 -0.0480
  221MOL0     C29707   7.189   0.425   8.984  0.3927 -0.1776 -0.0124
  221MOL0     O29708   7.056   0.422   8.992 -0.1157 -0.3225  0.5554
  221MOL0     C29709   6.996   0.290   9.002 -0.2688 -0.8082 -0.0977
  221MOL0     C29710   6.847   0.288   8.978  0.2220  0.0012 -0.4774
  221MOL0     C29711   6.762   0.382   9.071  0.6906 -0.2700 -0.8389
  221MOL0     C29712   6.612   0.336   9.072 -0.5749 -0.1289 -0.1410
  221MOL0     C29713   6.536   0.406   9.185  0.2524 -0.7836  0.2051
  221MOL0     C29714   6.391   0.360   9.179  0.6379 -0.3475 -0.0242
  221MOL0     C29715   6.302   0.433   9.286  0.0781  0.0721 -0.2664
  221MOL0     C29716   6.175   0.346   9.304 -0.6332  0.2726 -0.3465
  221MOL0     N29717   6.101   0.376   9.427  0.7772  0.2026  0.7780
  221MOL0     C29718   5.964   0.352   9.433  0.3684 -0.6915  0.1481
  221MOL0     C29719   5.932   0.420   9.545 -0.5206 -0.0446 -1.3614
  221MOL0     C29720   5.796   0.445   9.615  0.0008  0.2668  0.3603
  221MOL0     C29721   5.678   0.356   9.565  0.5112 -0.6790  0.2146
  221MOL0     C29722   5.549   0.423   9.599 -0.1394  0.5473 -0.6577
  221MOL0     C29723   5.422   0.330   9.580  0.6453  0.6351  0.6143
  221MOL0     O29724   5.313   0.415   9.619  0.4532  0.1062 -0.0063
  221MOL0     C29725   5.191   0.350   9.622 -0.6201  0.3600 -0.0310
  221MOL0     C29726   5.166   0.216   9.584  0.0541  0.1260 -0.0016
  221MOL0     C29727   5.033   0.167   9.590 -0.0242  0.0040 -0.5901
  221MOL0     C29728   5.001   0.033   9.528 -0.7996 -0.5509  0.1991
  221MOL0     C29729   4.931   0.253   9.631  0.3295  0.9893 -0.2787
  221MOL0     C29730   4.786   0.218   9.630 -0.2484 -0.0456 -0.0284
  221MOL0     O29731   4.706   0.325   9.615  0.3889 -0.0423 -0.5420
  221MOL0     C29732   4.567   0.321   9.598 -0.6052 -0.2438 -0.4183
  221MOL0     C29733   4.484   0.224   9.555 -0.2623  0.2865 -0.2003
  221MOL0     C29734   4.344   0.238   9.549 -0.0449 -0.2213  0.0661
  221MOL0     C29735   4.285   0.353   9.593 -0.2862  0.3216 -0.3134
  221MOL0     O29736   4.146   0.372   9.584  0.2531  0.5312 -0.1094
  221MOL0     C29737   4.066   0.274   9.508  0.0957  0.0239 -0.6476
  221MOL0     C29738   3.931   0.321   9.476  0.2709 -0.3061  0.2880
  221MOL0     C29739   3.848   0.360   9.602 -0.7089  0.5681  0.3966
  221MOL0     C29740   3.698   0.349   9.576  0.1179  0.7164  0.5252
  221MOL0     C29741   3.617   0.426   9.675 -0.1198 -0.4197  0.0240
  221MOL0     C29742   3.468   0.392   9.670  0.1767  0.3988  0.5112
  221MOL0     C29743   3.401   0.481   9.782  1.3522 -0.4790 -0.4073
  221MOL0     C29744   3.289   0.399   9.846 -0.1221 -0.1582  0.2558
  221MOL0    Cl29745   3.183   0.348   9.711  0.3723 -0.2540  0.1074
  221MOL0     C29746   4.363   0.450   9.650  0.1727 -0.2802  0.3730
  221MOL0     C29747   4.499   0.441   9.645 -0.3181  0.9646  0.7378
  221MOL0     O29748   4.742   0.104   9.631  0.3151  0.6506  0.1432
  221MOL0     C29749   4.973   0.381   9.676  0.6349 -0.2386 -0.8577
  221MOL0     C29750   5.095   0.431   9.673 -0.3205 -0.1973  0.4200
  221MOL0     N29751   6.046   0.465   9.612  0.3131 -0.0339  0.0921
  221MOL0     N29752   6.145   0.445   9.534  1.2397  0.1292  0.6151
  221MOL0     C29753   7.269   0.323   9.030  0.1550 -0.0539 -0.0757
  221MOL0     C29754   7.408   0.331   9.012  0.3789 -0.0608  0.0701
  221MOL0     C29755   7.817   0.350   8.858 -0.7211  0.4548  0.9303
  221MOL0     C29756   7.901   0.386   8.966  0.2463 -0.0901  0.2925
  221MOL0     C29757   8.023   0.315   8.979 -0.3271 -0.8054  0.3007
  221MOL0     C29758   8.075   0.233   8.870 -0.4387 -0.4599 -0.5440
  221MOL0     O29759   8.204   0.183   8.890 -0.1703 -0.1618  0.3099
  221MOL0     C29760   8.288   0.186   8.772  0.4788 -0.4792 -0.1384
  221MOL0     C29761   8.432   0.204   8.824  0.3371  0.2521 -0.3190
  221MOL0     C29762   8.495   0.065   8.872  0.1196  0.1287 -0.1552
  221MOL0     C29763   8.643   0.030   8.848 -0.3493 -0.1919 -0.0290
  221MOL0     C29764   8.670   0.041   8.707 -0.0760  0.4516 -0.0847
  221MOL0     C29765   8.705   0.074   8.599  0.2274  0.3213  0.2696
  221MOL0     C29766   7.994   0.212   8.760 -0.1119 -0.6240 -0.3857
  221MOL0     C29767   7.869   0.267   8.758  0.1950 -0.2981  0.7711
  221MOL0     H29768   7.419   0.639   8.862  0.5556 -1.0800 -1.5696
  221MOL0     H29769   7.190   0.620   8.897  1.1254  0.5267  0.4483
  221MOL0     H29770   7.049   0.230   8.928  1.5221 -1.2059  1.4274
  221MOL0     H29771   7.026   0.252   9.100  2.2265 -0.2839 -0.6002
  221MOL0     H29772   6.831   0.318   8.874 -0.0905  1.6077  0.0079
  221MOL0     H29773   6.801   0.189   8.985 -1.0804  0.3390 -2.9717
  221MOL0     H29774   6.800   0.370   9.173  3.4268 -0.4294 -1.7888
  221MOL0     H29775   6.772   0.483   9.033  1.6962 -0.3489 -0.8065
  221MOL0     H29776   6.568   0.365   8.976 -0.2019  0.9063 -0.0094
  221MOL0     H29777   6.593   0.230   9.089 -0.6048 -0.2304 -0.7753
  221MOL0     H29778   6.577   0.393   9.286 -2.3850  2.0999  1.8374
  221MOL0     H29779   6.540   0.515   9.171 -0.7969 -1.0110 -2.5076
  221MOL0     H29780   6.350   0.369   9.078 -2.4953  0.4099  1.2043
  221MOL0     H29781   6.392   0.255   9.208 -0.0519 -0.1364  0.8061
  221MOL0     H29782   6.358   0.433   9.380  2.8847 -1.4430 -1.7895
  221MOL0     H29783   6.283   0.535   9.252  0.8142 -0.8077 -3.7303
  221MOL0     H29784   6.204   0.240   9.311  0.3864  0.4297 -1.5991
  221MOL0     H29785   6.110   0.360   9.217 -3.4665 -2.6184  1.0879
  221MOL0     H29786   5.903   0.301   9.359 -0.0960  2.2852 -1.6850
  221MOL0     H29787   5.801   0.434   9.724 -0.4391 -0.3815  0.3231
  221MOL0     H29788   5.771   0.551   9.604 -2.0749 -0.1160  0.8513
  221MOL0     H29789   5.685   0.253   9.602 -0.8189 -0.6296  0.6409
  221MOL0     H29790   5.675   0.357   9.456 -0.7733  1.8881  0.2129
  221MOL0     H29791   5.535   0.510   9.534 -0.4055  0.4043 -0.7950
  221MOL0     H29792   5.554   0.454   9.704  1.5979 -1.3441 -0.1020
  221MOL0     H29793   5.440   0.238   9.635 -0.6271  0.4306  0.7093
  221MOL0     H29794   5.418   0.318   9.471  1.3209  1.7670  0.4456
  221MOL0     H29795   5.247   0.157   9.544  2.1478  2.6226  0.2810
  221MOL0     H29796   4.959  -0.034   9.603 -0.3076 -1.2802 -0.1722
  221MOL0     H29797   4.927   0.053   9.449 -0.5893  4.0432  0.8794
  221MOL0     H29798   5.086  -0.016   9.481  0.5661  0.2339  1.7769
  221MOL0     H29799   4.526   0.130   9.521 -0.0571  0.0922  0.5636
  221MOL0     H29800   4.287   0.160   9.500  0.4571  0.4736 -1.7021
  221MOL0     H29801   4.121   0.244   9.419 -2.9614 -2.0965 -2.0011
  221MOL0     H29802   4.044   0.183   9.566 -0.1580 -0.1216 -0.9671
  221MOL0     H29803   3.938   0.407   9.408  3.0651 -0.5535  0.1674
  221MOL0     H29804   3.873   0.245   9.422 -2.8683  2.3027 -0.3505
  221MOL0     H29805   3.863   0.467   9.620 -0.4092  0.5056  0.5314
  221MOL0     H29806   3.880   0.293   9.683 -0.8201 -0.1193 -0.1243
  221MOL0     H29807   3.670   0.389   9.478 -4.8038 -0.0760  1.3293
  221MOL0     H29808   3.670   0.243   9.585  3.3371 -0.5966 -2.6856
  221MOL0     H29809   3.635   0.532   9.656  1.9292 -0.3710  1.8676
  221MOL0     H29810   3.656   0.410   9.776 -1.5374 -0.6266  0.5647
  221MOL0     H29811   3.410   0.416   9.580 -1.3671 -1.3275  0.9957
  221MOL0     H29812   3.443   0.287   9.688 -3.7833  1.4116  2.0654
  221MOL0     H29813   3.351   0.569   9.740 -0.9130 -0.0096  2.8428
  221MOL0     H29814   3.470   0.515   9.860  0.6238  0.3177 -0.0897
  221MOL0     H29815   3.242   0.460   9.924  0.1635 -0.0403  0.3361
  221MOL0     H29816   3.329   0.311   9.896  0.4288  0.2367  0.5246
  221MOL0     H29817   4.314   0.540   9.684 -1.4137 -0.4344 -1.3042
  221MOL0     H29818   4.559   0.524   9.681  3.3155 -1.6419  1.1932
  221MOL0     H29819   4.894   0.453   9.697  2.4080  1.4654  0.2329
  221MOL0     H29820   5.123   0.533   9.701 -0.2796  0.1042 -0.6881
  221MOL0     H29821   7.230   0.224   9.053 -1.3765 -0.7323 -4.6309
  221MOL0     H29822   7.464   0.250   9.057 -1.0592  0.0955  2.2511
  221MOL0     H29823   7.872   0.466   9.033  0.6409  1.1184 -0.9189
  221MOL0     H29824   8.077   0.348   9.067 -3.3149  2.4690  1.1590
  221MOL0     H29825   8.282   0.091   8.719 -1.0316  0.6079 -2.0155
  221MOL0     H29826   8.253   0.259   8.700 -2.6142 -1.5425  0.1368
  221MOL0     H29827   8.421   0.283   8.899  0.6330 -0.8797  0.9437
  221MOL0     H29828   8.499   0.240   8.745  2.9150  1.9989  2.4221
  221MOL0     H29829   8.429  -0.018   8.845 -0.4851  0.0932  1.3536
  221MOL0     H29830   8.489   0.076   8.981 -3.2982  2.6059 -0.4454
  221MOL0     H29831   8.662  -0.073   8.879  1.5876  0.0948 -0.1548
  221MOL0     H29832   8.698   0.108   8.902 -0.9845 -0.0210  0.3810
  221MOL0     H29833   8.720   0.092   8.494 -3.0212 -0.0806 -0.3745
  221MOL0     H29834   8.016   0.136   8.686 -0.2665  0.8131 -1.9644
  221MOL0     H29835   7.796   0.237   8.685 -0.7763  0.8501  1.2361
  222MOL0     O29836   0.755   4.726   9.502 -0.8930  0.3634  0.1937
  222MOL0     C29837   0.828   4.741   9.602  0.3775 -0.3439 -0.0146
  222MOL0     O29838   0.781   4.777   9.723  0.4945 -0.6876  0.0356
  222MOL0     C29839   0.653   4.819   9.728 -0.1774 -0.3098  0.6149
  222MOL0     C29840   0.539   4.750   9.767  0.0828 -0.1449  0.5903
  222MOL0     C29841   0.412   4.815   9.755 -0.0807 -0.2297 -0.3548
  222MOL0     C29842   0.390   4.949   9.724 -0.7878  0.3121  0.2474
  222MOL0     O29843   0.264   5.011   9.735 -0.1021 -0.9085 -0.4818
  222MOL0     C29844   0.246   5.146   9.691  0.2590  0.1384 -0.1450
  222MOL0     C29845   0.103   5.190   9.723 -0.5223  0.7951  0.1080
  222MOL0     C29846  -0.001   5.094   9.653  0.3109  0.3269 -0.3524
  222MOL0     C29847  -0.017   5.112   9.502  0.5634 -0.1536 -0.0545
  222MOL0     C29848  -0.117   5.008   9.452  0.4061 -0.3866  0.3781
  222MOL0     C29849  -0.146   5.047   9.304  0.5136 -0.3196  0.2022
  222MOL0     C29850  -0.268   4.956   9.260 -0.0194  0.3308 -0.2000
  222MOL0     C29851  -0.283   4.964   9.109  0.4411 -0.2014  0.5585
  222MOL0     N29852  -0.397   4.879   9.062 -0.4823  0.1644  0.6035
  222MOL0     C29853  -0.537   4.905   9.067  0.3881  0.2089 -0.0896
  222MOL0     C29854  -0.592   4.807   8.996  0.8473 -0.6322  0.2707
  222MOL0     C29855  -0.735   4.791   8.966  0.6352  0.0903 -0.1754
  222MOL0     C29856  -0.782   4.872   8.845 -0.0968 -0.2460  0.0974
  222MOL0     C29857  -0.920   4.840   8.794 -0.1637 -0.2314  0.4405
  222MOL0     C29858  -1.025   4.898   8.891 -0.4295 -0.2310  0.2280
  222MOL0     O29859  -1.157   4.865   8.842  0.0382 -0.1396  0.1972
  222MOL0     C29860  -1.266   4.929   8.908 -0.2392  0.6641  0.3856
  222MOL0     C29861  -1.396   4.889   8.869  0.1359  0.5213 -0.3353
  222MOL0     C29862  -1.515   4.956   8.899  0.2084  0.2441 -0.8437
  222MOL0     C29863  -1.636   4.888   8.840 -0.1726 -0.4834 -0.0957
  222MOL0     C29864  -1.511   5.073   8.984  0.3762 -0.1566  0.6430
  222MOL0     C29865  -1.636   5.152   9.027  1.6893 -0.2361 -0.4605
  222MOL0     O29866  -1.766   5.100   9.018 -0.0458  0.0049 -0.0847
  222MOL0     C29867  -1.871   5.169   9.080  0.0445  0.4891  0.5792
  222MOL0     C29868  -1.942   5.124   9.197  0.2471 -0.2219 -0.2532
  222MOL0     C29869  -2.039   5.207   9.258 -0.6296 -0.0763 -0.2164
  222MOL0     C29870  -2.075   5.333   9.205  0.2265 -0.0240 -0.1980
  222MOL0     O29871  -2.183   5.402   9.257  0.0857 -0.6586 -0.4912
  222MOL0     C29872  -2.219   5.527   9.200  0.5271  0.5188  0.1204
  222MOL0     C29873  -2.367   5.556   9.220  0.4376 -0.0404  0.6212
  222MOL0     C29874  -2.401   5.637   9.341 -0.3451  0.5981 -0.4469
  222MOL0     C29875  -2.339   5.582   9.472  0.1523  0.4478 -0.5942
  222MOL0     C29876  -2.394   5.448   9.501  0.5718  0.2381  0.2343
  222MOL0     C29877  -2.532   5.446   9.554 -0.4999  0.5484 -0.4377
  222MOL0     C29878  -2.544   5.480   9.695  0.3304 -0.7788  0.1753
  222MOL0     C29879  -2.665   5.418   9.759  0.7997  0.2367 -0.9533
  222MOL0    Cl29880  -2.810   5.476   9.686  0.3619 -0.2428 -0.2014
  222MOL0     C29881  -2.002   5.367   9.085  0.2839 -0.9139  0.4702
  222MOL0     C29882  -1.904   5.292   9.028 -0.0243  0.4176  0.0303
  222MOL0     O29883  -1.612   5.266   9.056 -0.5735  0.3240 -0.1182
  222MOL0     C29884  -1.382   5.120   9.029  0.8472  0.2409  0.9343
  222MOL0     C29885  -1.260   5.044   8.984  0.7429  0.3873 -0.7680
  222MOL0     N29886  -0.496   4.725   8.939 -0.0966 -0.3736 -0.6453
  222MOL0     N29887  -0.379   4.775   8.983 -0.3044 -0.8407 -0.1286
  222MOL0     C29888   0.512   5.014   9.677 -0.5768 -0.5963 -0.4012
  222MOL0     C29889   0.637   4.950   9.684 -0.9896 -0.4220  0.8851
  222MOL0     C29890   0.971   4.738   9.579 -0.3613  0.4461 -1.9061
  222MOL0     C29891   1.018   4.700   9.456 -0.2750  0.4135 -0.6348
  222MOL0     C29892   1.157   4.706   9.430  0.7095  0.0166 -0.7384
  222MOL0     C29893   1.247   4.751   9.528 -0.3003  0.7167  0.4841
  222MOL0     O29894   1.366   4.769   9.475 -0.4119  0.2139  0.0844
  222MOL0     C29895   1.461   4.843   9.556  0.3184 -0.3342  0.3696
  222MOL0     C29896   1.595   4.856   9.484  0.3294 -0.7867 -0.5146
  222MOL0     C29897   1.601   4.972   9.387  0.0888  0.7833 -0.8366
  222MOL0     C29898   1.728   4.982   9.310 -0.7330  1.0952 -0.5292
  222MOL0     C29899   1.737   4.865   9.220  0.7389 -0.6878  0.2021
  222MOL0     C29900   1.747   4.777   9.136 -0.0827  0.7505  0.0366
  222MOL0     C29901   1.203   4.802   9.652  0.2196  0.5097 -0.2485
  222MOL0     C29902   1.065   4.779   9.686  1.0881 -0.8874 -0.0997
  222MOL0     H29903   0.555   4.648   9.800  1.2179 -0.2077 -0.0879
  222MOL0     H29904   0.317   4.770   9.785  1.5379 -1.7334  3.0225
  222MOL0     H29905   0.312   5.205   9.755 -0.9064  2.1237 -0.7053
  222MOL0     H29906   0.275   5.171   9.589 -0.7967  2.3561  0.0581
  222MOL0     H29907   0.087   5.193   9.831  6.5395 -1.4654  1.7288
  222MOL0     H29908   0.100   5.288   9.674 -3.4355  1.5853  1.6229
  222MOL0     H29909   0.034   4.990   9.665 -1.2723 -0.0591  1.2039
  222MOL0     H29910  -0.097   5.108   9.703  0.6643  0.3862  0.3150
  222MOL0     H29911  -0.058   5.212   9.488 -1.1561 -0.5158  1.8539
  222MOL0     H29912   0.073   5.092   9.443  0.3812 -2.4512  0.3235
  222MOL0     H29913  -0.074   4.910   9.470  2.8901  0.4900 -0.3552
  222MOL0     H29914  -0.215   5.025   9.499 -0.0391  0.1280 -0.7118
  222MOL0     H29915  -0.181   5.149   9.287  0.3153 -0.3393  0.4773
  222MOL0     H29916  -0.067   5.029   9.231 -0.0381  1.9141 -1.0285
  222MOL0     H29917  -0.247   4.851   9.285 -3.3576 -0.9787 -2.2721
  222MOL0     H29918  -0.354   5.006   9.304  0.2455  0.6293 -0.0118
  222MOL0     H29919  -0.196   4.916   9.063  0.2838  0.0731 -0.0395
  222MOL0     H29920  -0.295   5.070   9.085  0.9683  0.2480  2.1711
  222MOL0     H29921  -0.579   4.993   9.115  0.0555  0.0014  0.0032
  222MOL0     H29922  -0.764   4.687   8.954  0.9331  0.1957 -2.0911
  222MOL0     H29923  -0.797   4.817   9.052 -1.8922 -2.1954 -1.1680
  222MOL0     H29924  -0.702   4.861   8.771 -0.9781  1.3531 -1.1445
  222MOL0     H29925  -0.777   4.979   8.865 -6.5217  0.9116 -2.2637
  222MOL0     H29926  -0.938   4.733   8.784  1.2082 -0.3289 -1.3992
  222MOL0     H29927  -0.929   4.883   8.694 -0.5803 -1.2445  0.0221
  222MOL0     H29928  -1.005   5.006   8.884 -2.2754  0.2665  1.5219
  222MOL0     H29929  -1.016   4.865   8.995  1.6610 -0.5441 -0.0107
  222MOL0     H29930  -1.396   4.791   8.822  2.5778 -1.8906  4.0090
  222MOL0     H29931  -1.621   4.787   8.801  0.3105 -1.1913  1.8319
  222MOL0     H29932  -1.718   4.877   8.911 -1.1781  0.5338 -1.0488
  222MOL0     H29933  -1.676   4.964   8.772  4.5350  1.7769 -0.8199
  222MOL0     H29934  -1.901   5.038   9.248 -1.9318 -0.6633  0.8739
  222MOL0     H29935  -2.096   5.183   9.347  1.2938 -0.7549  0.8948
  222MOL0     H29936  -2.169   5.612   9.246 -2.6442  2.5798  0.0638
  222MOL0     H29937  -2.205   5.528   9.092 -0.1937  0.2139  0.0152
  222MOL0     H29938  -2.407   5.611   9.134 -1.7302 -2.1793  0.1425
  222MOL0     H29939  -2.424   5.463   9.217  0.5980 -0.2539  2.7820
  222MOL0     H29940  -2.509   5.651   9.343 -0.1971  1.7566  1.0663
  222MOL0     H29941  -2.356   5.736   9.328 -0.5798  0.6792 -0.6493
  222MOL0     H29942  -2.233   5.565   9.453  0.0025 -0.7609 -0.4419
  222MOL0     H29943  -2.347   5.653   9.555 -1.3605 -1.6668  1.1882
  222MOL0     H29944  -2.334   5.389   9.571  1.7071 -0.4098 -1.2425
  222MOL0     H29945  -2.393   5.384   9.412  2.5849 -2.8212  2.2517
  222MOL0     H29946  -2.594   5.511   9.493 -1.4995  0.5696  0.5644
  222MOL0     H29947  -2.575   5.346   9.539 -2.0796  1.3710 -1.6600
  222MOL0     H29948  -2.545   5.589   9.701 -0.8806 -0.8283  3.6617
  222MOL0     H29949  -2.460   5.454   9.760 -0.4467 -0.2764  1.4238
  222MOL0     H29950  -2.663   5.444   9.865  1.7772 -0.6410 -0.7395
  222MOL0     H29951  -2.653   5.310   9.767  2.3210  0.4174 -0.6511
  222MOL0     H29952  -2.012   5.463   9.037  1.9859 -0.3724  1.1201
  222MOL0     H29953  -1.868   5.340   8.938  0.8555 -1.7988 -0.8545
  222MOL0     H29954  -1.363   5.212   9.083  1.0819 -0.6407  2.3977
  222MOL0     H29955  -1.163   5.081   9.017  1.2682 -2.0447  0.6612
  222MOL0     H29956   0.517   5.117   9.645 -0.6481 -0.3238  0.4485
  222MOL0     H29957   0.729   4.999   9.654 -0.8500 -1.2793 -0.1324
  222MOL0     H29958   0.948   4.657   9.386 -5.0581  1.2850  3.0779
  222MOL0     H29959   1.194   4.693   9.329 -1.2368  2.2704 -1.8442
  222MOL0     H29960   1.423   4.935   9.601  0.5555 -0.9620  1.9199
  222MOL0     H29961   1.485   4.776   9.640  1.2593 -0.8637 -0.3051
  222MOL0     H29962   1.627   4.762   9.438 -0.6878 -1.1543 -0.4877
  222MOL0     H29963   1.669   4.880   9.561 -0.4454  4.1616 -1.0037
  222MOL0     H29964   1.595   5.068   9.440 -0.1930  1.4396 -2.0026
  222MOL0     H29965   1.514   4.972   9.321  0.3489  2.3754 -1.2384
  222MOL0     H29966   1.824   4.987   9.364  1.7411  0.4669 -4.4589
  222MOL0     H29967   1.730   5.078   9.258  1.1767  1.1459 -0.4508
  222MOL0     H29968   1.749   4.693   9.070  0.7448 -0.9542  2.1062
  222MOL0     H29969   1.276   4.852   9.714  0.1275 -0.2919  0.5196
  222MOL0     H29970   1.033   4.801   9.787 -0.8165 -0.5069 -0.7470
  223MOL0     O29971  10.475   7.874   6.930  0.2547  0.1457 -0.0728
  223MOL0     C29972  10.520   7.815   7.024 -0.6787  0.6995  0.1458
  223MOL0     O29973  10.454   7.721   7.098 -0.2772 -0.1199  0.5309
  223MOL0     C29974  10.326   7.679   7.039 -0.2283 -0.7377 -0.3595
  223MOL0     C29975  10.300   7.541   6.999 -0.1703 -0.3477 -0.1543
  223MOL0     C29976  10.166   7.502   6.968  0.3205 -0.4945  0.1256
  223MOL0     C29977  10.068   7.597   6.965 -0.4731 -0.1147  0.0911
  223MOL0     O29978   9.951   7.546   6.917 -0.2989  0.1992  0.5612
  223MOL0     C29979   9.822   7.609   6.933 -0.4234 -0.1027  0.2792
  223MOL0     C29980   9.734   7.483   6.912  0.4785  0.0632 -0.7119
  223MOL0     C29981   9.592   7.520   6.886  0.9146  0.4561 -0.3133
  223MOL0     C29982   9.515   7.529   7.020  0.1730  1.2488 -0.9570
  223MOL0     C29983   9.374   7.596   6.995  0.1991  1.3128 -0.3165
  223MOL0     C29984   9.268   7.545   7.095 -0.2286 -0.1808 -0.4444
  223MOL0     C29985   9.129   7.581   7.059 -0.5106  0.1437 -0.2244
  223MOL0     C29986   9.014   7.515   7.140 -1.0205  0.6796  0.1776
  223MOL0     N29987   8.880   7.545   7.082  0.3770  0.5323  0.0468
  223MOL0     C29988   8.838   7.518   6.948 -0.3799 -1.0308 -0.8357
  223MOL0     C29989   8.709   7.523   6.941  0.2073 -0.1669  0.0824
  223MOL0     C29990   8.636   7.518   6.807  0.9027  0.4652 -0.7485
  223MOL0     C29991   8.487   7.554   6.813 -0.1087  1.0810 -0.0132
  223MOL0     C29992   8.394   7.444   6.851 -0.0517  0.4478 -0.1094
  223MOL0     C29993   8.248   7.478   6.821  0.2912 -0.4799 -0.4141
  223MOL0     O29994   8.232   7.491   6.680  0.3860 -0.2290 -0.6096
  223MOL0     C29995   8.109   7.461   6.625 -0.2352 -0.0109  0.4225
  223MOL0     C29996   8.099   7.486   6.490  0.2526  0.2583  0.3515
  223MOL0     C29997   7.984   7.476   6.421  0.7000 -0.0936  0.5873
  223MOL0     C29998   7.990   7.528   6.279  0.4256 -0.6501 -0.0813
  223MOL0     C29999   7.866   7.427   6.490  0.0903  0.2064 -0.8042
  223MOL0     C30000   7.742   7.391   6.419  0.1667 -0.0742  0.0874
  223MOL0     O30001   7.643   7.324   6.501 -0.4128  0.7023  0.0667
  223MOL0     C30002   7.524   7.289   6.445 -0.3099  0.2152 -0.3826
  223MOL0     C30003   7.407   7.295   6.517  0.2167  0.4694  0.8882
  223MOL0     C30004   7.289   7.236   6.470  0.4958 -0.4716 -0.0291
  223MOL0     C30005   7.276   7.170   6.346 -0.3551 -0.3401  0.0603
  223MOL0     O30006   7.159   7.107   6.315  0.1007  0.1144 -0.8145
  223MOL0     C30007   7.143   7.054   6.181  1.1024  0.0765  0.0406
  223MOL0     C30008   7.005   7.000   6.166  0.1766  0.0569 -0.6475
  223MOL0     C30009   6.986   6.874   6.253  0.0806 -0.7935  0.5158
  223MOL0     C30010   6.839   6.834   6.230 -0.9796 -0.7935  0.4511
  223MOL0     C30011   6.800   6.723   6.320  0.6550  0.8386 -0.6026
  223MOL0     C30012   6.874   6.595   6.287 -0.0564 -0.2168  0.3956
  223MOL0     C30013   6.794   6.468   6.331  0.1969 -0.8339  0.2549
  223MOL0     C30014   6.864   6.337   6.298  0.5792 -0.6346  0.3390
  223MOL0    Cl30015   6.792   6.204   6.388  0.1694  0.1698  0.4588
  223MOL0     C30016   7.399   7.153   6.271 -0.1237 -0.0968 -0.3146
  223MOL0     C30017   7.521   7.215   6.324 -0.7541  0.3349 -0.4366
  223MOL0     O30018   7.733   7.407   6.298  0.4947 -0.2366 -0.2997
  223MOL0     C30019   7.880   7.388   6.622  0.4249 -0.0736  0.0294
  223MOL0     C30020   7.998   7.416   6.691 -0.2761 -0.1515  0.0600
  223MOL0     N30021   8.660   7.559   7.069 -0.2754  0.4547  0.3892
  223MOL0     N30022   8.760   7.552   7.152 -0.9122  0.2611 -0.8729
  223MOL0     C30023  10.088   7.730   7.000  0.8055  0.6116 -0.0499
  223MOL0     C30024  10.217   7.771   7.033 -0.3643 -0.7053  0.3990
  223MOL0     C30025  10.661   7.858   7.064  0.2956 -0.7867 -0.2961
  223MOL0     C30026  10.746   7.928   6.984  0.6190 -0.4858 -0.6184
  223MOL0     C30027  10.878   7.955   7.027 -0.8281 -0.1326  0.2276
  223MOL0     C30028  10.931   7.904   7.140  0.1010 -1.0325 -0.1340
  223MOL0     O30029  11.056   7.925   7.191  0.1764  0.0870  0.0191
  223MOL0     C30030  11.132   8.033   7.131  0.1674 -0.2319  0.1177
  223MOL0     C30031  11.247   8.062   7.219 -1.0094 -0.6949  1.2973
  223MOL0     C30032  11.355   7.947   7.220 -0.5584 -0.4141  0.2421
  223MOL0     C30033  11.392   7.893   7.364 -0.1468 -0.0460  0.4233
  223MOL0     C30034  11.471   7.993   7.435  0.5040 -0.1973 -0.6638
  223MOL0     C30035  11.533   8.071   7.501 -0.0943  0.3943  0.2595
  223MOL0     C30036  10.852   7.816   7.216  0.7116 -0.4215 -0.4747
  223MOL0     C30037  10.712   7.812   7.188 -0.3160  0.2883  0.1992
  223MOL0     H30038  10.384   7.472   6.991 -0.4378 -0.9461  1.7024
  223MOL0     H30039  10.132   7.406   6.931  0.6352 -1.4195  2.0702
  223MOL0     H30040   9.806   7.649   7.033 -1.9519  0.6641 -0.2527
  223MOL0     H30041   9.798   7.685   6.858 -0.2507 -0.9373 -0.6416
  223MOL0     H30042   9.774   7.421   6.831  1.3144  0.1897 -0.4075
  223MOL0     H30043   9.732   7.429   7.007  0.5022 -0.5967 -1.0818
  223MOL0     H30044   9.578   7.621   6.848  0.1812  0.6146  0.3399
  223MOL0     H30045   9.534   7.461   6.815 -0.4917  0.4747  0.7584
  223MOL0     H30046   9.507   7.431   7.067 -2.9775  2.9322  2.5372
  223MOL0     H30047   9.571   7.596   7.086  0.8507 -1.8303  1.8812
  223MOL0     H30048   9.388   7.704   7.006  5.2011  0.6647  2.8838
  223MOL0     H30049   9.341   7.566   6.895 -0.7035 -2.1826  0.8615
  223MOL0     H30050   9.277   7.436   7.097  1.8297 -0.0387  0.4710
  223MOL0     H30051   9.293   7.588   7.193 -0.0725  0.4996 -0.7755
  223MOL0     H30052   9.118   7.689   7.071 -2.4906 -0.2845  3.0539
  223MOL0     H30053   9.113   7.552   6.954 -2.9641 -0.9525  0.3763
  223MOL0     H30054   9.016   7.553   7.242 -0.8302 -0.6637  0.6960
  223MOL0     H30055   9.031   7.408   7.155 -0.8326  0.2648 -2.4195
  223MOL0     H30056   8.907   7.504   6.866  0.2481 -0.4846 -0.4106
  223MOL0     H30057   8.690   7.590   6.744  1.4805  2.2769  1.6590
  223MOL0     H30058   8.648   7.417   6.767 -1.9416  0.1899 -1.1306
  223MOL0     H30059   8.461   7.584   6.712  1.3609  1.6351 -0.2535
  223MOL0     H30060   8.470   7.641   6.878 -2.5682  0.9591 -0.3944
  223MOL0     H30061   8.413   7.422   6.956  0.8812  1.1949 -0.1055
  223MOL0     H30062   8.416   7.355   6.792 -4.2011 -1.6055  1.0696
  223MOL0     H30063   8.219   7.573   6.866 -1.5303 -0.0797 -2.2406
  223MOL0     H30064   8.181   7.413   6.878 -2.2724  0.2861 -2.3480
  223MOL0     H30065   8.182   7.530   6.437 -0.1516 -1.1788 -1.5779
  223MOL0     H30066   7.896   7.567   6.239  0.9716 -0.2411 -1.0238
  223MOL0     H30067   8.050   7.620   6.276 -1.0024  0.3165 -0.1750
  223MOL0     H30068   8.028   7.461   6.201  0.7974  1.4178 -1.7972
  223MOL0     H30069   7.412   7.350   6.610 -1.3422  1.6913  0.2836
  223MOL0     H30070   7.200   7.231   6.533  0.4961 -1.8679 -0.0975
  223MOL0     H30071   7.141   7.139   6.112 -3.0371 -0.5496 -0.9041
  223MOL0     H30072   7.229   6.992   6.153  1.0166 -0.1490  0.2719
  223MOL0     H30073   6.936   7.081   6.187  2.3421  0.7201  6.4222
  223MOL0     H30074   7.005   6.963   6.063  2.9753  0.2393 -0.7912
  223MOL0     H30075   7.009   6.905   6.356  2.9683  0.0474 -0.2978
  223MOL0     H30076   7.057   6.795   6.227  1.2995  0.2773  0.5021
  223MOL0     H30077   6.774   6.919   6.250  1.3374  1.3275 -0.4614
  223MOL0     H30078   6.822   6.811   6.124 -1.6254  0.4586  0.2569
  223MOL0     H30079   6.694   6.703   6.302  0.5258 -1.2312  1.9677
  223MOL0     H30080   6.809   6.760   6.422 -0.9115 -0.6974  0.1353
  223MOL0     H30081   6.879   6.593   6.177  0.8438  0.4116  0.4061
  223MOL0     H30082   6.981   6.589   6.310  0.0921 -1.8240 -0.5539
  223MOL0     H30083   6.696   6.473   6.284  0.1415 -0.3643  0.4186
  223MOL0     H30084   6.781   6.462   6.440 -1.5152  0.5372  0.1547
  223MOL0     H30085   6.970   6.341   6.322  0.9305 -0.3488 -1.1618
  223MOL0     H30086   6.859   6.323   6.190  1.3277  1.6672 -0.0422
  223MOL0     H30087   7.416   7.094   6.182  0.2558  2.5590 -2.0835
  223MOL0     H30088   7.620   7.202   6.283 -0.0959  2.4188  0.3521
  223MOL0     H30089   7.791   7.350   6.671 -0.3077 -0.9606 -1.8848
  223MOL0     H30090   8.006   7.392   6.797  0.5801  0.5281  0.1577
  223MOL0     H30091  10.003   7.798   6.996  0.7968  0.5823 -0.4479
  223MOL0     H30092  10.236   7.873   7.064  0.8897 -1.6142  2.8631
  223MOL0     H30093  10.723   7.963   6.884 -1.1103 -1.0504 -0.4433
  223MOL0     H30094  10.941   8.003   6.953  0.2486 -0.8356  0.6664
  223MOL0     H30095  11.158   8.009   7.028  1.8735  1.1147  0.2078
  223MOL0     H30096  11.081   8.130   7.128 -0.9304 -0.7938 -0.2519
  223MOL0     H30097  11.216   8.088   7.320  0.2456  1.1058  1.2733
  223MOL0     H30098  11.291   8.148   7.166  1.7114 -2.1052  1.0838
  223MOL0     H30099  11.447   7.981   7.171  0.6430 -1.4137  1.7038
  223MOL0     H30100  11.321   7.864   7.158  2.0421 -1.1725 -0.2885
  223MOL0     H30101  11.456   7.804   7.360  0.4760  0.4097  0.0930
  223MOL0     H30102  11.309   7.861   7.428 -0.2240 -4.8058 -1.5928
  223MOL0     H30103  11.588   8.143   7.558  2.2561 -0.7471 -0.4693
  223MOL0     H30104  10.899   7.768   7.301  0.9660 -1.0945 -0.9790
  223MOL0     H30105  10.650   7.747   7.248  1.4662 -1.1825  0.5152
  224MOL0     O30106   8.770   6.408   7.537  0.1126 -0.4140 -0.4916
  224MOL0     C30107   8.796   6.406   7.420 -0.1446  0.5182  0.6908
  224MOL0     O30108   8.704   6.396   7.317  0.1071 -0.6791  0.1394
  224MOL0     C30109   8.571   6.398   7.353 -0.5000 -0.2116  0.3454
  224MOL0     C30110   8.495   6.290   7.320  0.4936 -0.6582  0.5015
  224MOL0     C30111   8.353   6.284   7.358 -0.6955 -0.3482  0.3457
  224MOL0     C30112   8.287   6.400   7.407 -0.7179 -0.4292  1.0256
  224MOL0     O30113   8.155   6.412   7.440 -0.0299  0.5038  0.4123
  224MOL0     C30114   8.064   6.330   7.364  0.4213  0.5216 -0.1012
  224MOL0     C30115   7.925   6.371   7.402  0.0066  0.4203  0.0355
  224MOL0     C30116   7.828   6.258   7.361  0.7551 -0.5055 -0.0275
  224MOL0     C30117   7.697   6.282   7.435  0.4791 -0.0353 -0.2795
  224MOL0     C30118   7.570   6.211   7.379 -0.3387 -0.4051 -0.2865
  224MOL0     C30119   7.509   6.282   7.259 -0.2413 -0.7970 -0.6374
  224MOL0     C30120   7.380   6.215   7.200 -0.4689 -0.1852 -0.6430
  224MOL0     C30121   7.270   6.197   7.309  0.1006  0.5845 -0.7116
  224MOL0     N30122   7.157   6.128   7.237 -0.2034 -0.3600  0.1743
  224MOL0     C30123   7.128   5.995   7.226 -0.5542 -0.1853  0.0499
  224MOL0     C30124   7.021   5.994   7.141  0.7945 -0.3391 -0.5625
  224MOL0     C30125   6.954   5.877   7.078 -0.0131  0.0114  1.2823
  224MOL0     C30126   6.812   5.869   7.130 -0.3199  0.2118  0.2995
  224MOL0     C30127   6.749   5.723   7.143 -0.4710 -0.3367  0.3795
  224MOL0     C30128   6.603   5.720   7.162 -0.4984 -0.1271  0.3004
  224MOL0     O30129   6.528   5.786   7.061  0.4739  0.2595 -0.1846
  224MOL0     C30130   6.395   5.788   7.068  0.0303 -0.0146 -0.2044
  224MOL0     C30131   6.326   5.836   6.957  0.5178  0.1796  0.4245
  224MOL0     C30132   6.184   5.843   6.952 -0.2565  0.5129  0.2384
  224MOL0     C30133   6.112   5.874   6.824 -0.5270  0.9797 -0.3217
  224MOL0     C30134   6.117   5.817   7.072 -0.3344 -0.0634 -0.2892
  224MOL0     C30135   5.967   5.824   7.086 -0.8690 -0.7340  0.4107
  224MOL0     O30136   5.902   5.938   7.055  0.6401  0.0375  0.3373
  224MOL0     C30137   5.777   5.921   6.998  0.5984 -0.2421  0.6758
  224MOL0     C30138   5.666   5.982   7.055 -0.3069  0.2954  0.4341
  224MOL0     C30139   5.534   5.951   6.991  1.1943  0.0142 -0.3298
  224MOL0     C30140   5.518   5.874   6.884  0.3503  0.5498  0.4285
  224MOL0     O30141   5.385   5.860   6.841 -0.7972  0.1946 -0.1832
  224MOL0     C30142   5.369   5.770   6.728 -0.4207 -0.7830 -0.5676
  224MOL0     C30143   5.225   5.725   6.685 -0.8800 -0.1293 -0.5701
  224MOL0     C30144   5.175   5.609   6.783 -0.0241 -0.5926  0.1900
  224MOL0     C30145   5.018   5.594   6.776  0.1260 -0.8052  1.0939
  224MOL0     C30146   4.975   5.473   6.852 -0.0265 -0.3010 -0.0287
  224MOL0     C30147   4.997   5.337   6.779  0.0633  0.1320  0.2797
  224MOL0     C30148   4.933   5.208   6.850  0.0683 -1.0046  0.6657
  224MOL0     C30149   4.784   5.186   6.821 -0.6513 -0.4332  0.2655
  224MOL0    Cl30150   4.753   5.023   6.848 -0.2682  0.4158  0.2193
  224MOL0     C30151   5.630   5.812   6.836  0.7518 -0.7794  0.2583
  224MOL0     C30152   5.761   5.837   6.887  0.6259 -0.1580 -0.4578
  224MOL0     O30153   5.914   5.717   7.127  0.7326 -0.3868 -0.4457
  224MOL0     C30154   6.189   5.764   7.179 -0.4884  0.1825 -0.3776
  224MOL0     C30155   6.328   5.757   7.180  0.6938  0.6682 -0.0087
  224MOL0     N30156   6.978   6.123   7.108  0.4167 -1.2516  0.0686
  224MOL0     N30157   7.064   6.203   7.165  1.0194 -0.2689 -0.3200
  224MOL0     C30158   8.369   6.508   7.436 -0.0590  0.7206  0.4324
  224MOL0     C30159   8.510   6.509   7.412  0.7222  0.1193 -0.8919
  224MOL0     C30160   8.941   6.429   7.389 -0.4298 -0.3406  0.4643
  224MOL0     C30161   8.977   6.441   7.256 -0.1675 -0.0923  0.5171
  224MOL0     C30162   9.102   6.471   7.217  0.7870 -0.5273 -0.5625
  224MOL0     C30163   9.198   6.510   7.312  0.4540 -0.4257 -0.7951
  224MOL0     O30164   9.325   6.558   7.278  0.3109 -0.3015 -0.3501
  224MOL0     C30165   9.390   6.511   7.155 -0.8970 -0.0428 -0.2413
  224MOL0     C30166   9.523   6.458   7.195 -0.1869 -0.2527 -0.9487
  224MOL0     C30167   9.648   6.557   7.187 -0.2159 -0.3181 -0.3793
  224MOL0     C30168   9.681   6.602   7.041 -0.0838 -0.1903  0.1686
  224MOL0     C30169   9.810   6.676   7.047 -0.2867 -0.3077  0.7382
  224MOL0     C30170   9.919   6.727   7.058 -0.0428 -0.1311 -0.0829
  224MOL0     C30171   9.163   6.505   7.456 -0.2282  0.6650  1.0936
  224MOL0     C30172   9.036   6.464   7.489 -0.2681  0.4984  0.3998
  224MOL0     H30173   8.535   6.201   7.272 -0.1289 -1.6775  1.8059
  224MOL0     H30174   8.286   6.199   7.353  0.2863 -1.1236  0.0218
  224MOL0     H30175   8.090   6.327   7.258  3.1877 -1.1803  0.5265
  224MOL0     H30176   8.077   6.227   7.401  0.0498 -0.0291 -1.4308
  224MOL0     H30177   7.913   6.391   7.509 -1.6789 -1.3075  0.2112
  224MOL0     H30178   7.895   6.459   7.344 -0.3422 -0.6051 -1.3766
  224MOL0     H30179   7.806   6.270   7.255 -0.0172  2.2163  0.3732
  224MOL0     H30180   7.865   6.156   7.378 -0.8207 -1.2671 -0.9352
  224MOL0     H30181   7.718   6.242   7.535 -0.7562 -1.5875 -0.5889
  224MOL0     H30182   7.668   6.387   7.443  2.8274  0.5819  0.7767
  224MOL0     H30183   7.590   6.107   7.351 -1.2223 -0.8205  0.5620
  224MOL0     H30184   7.502   6.197   7.464  0.4701 -1.0581  0.2565
  224MOL0     H30185   7.494   6.387   7.283  1.0706 -0.4707 -1.1678
  224MOL0     H30186   7.584   6.270   7.180  0.5308  0.2989 -0.0942
  224MOL0     H30187   7.342   6.282   7.122  1.1351  0.7081 -0.7143
  224MOL0     H30188   7.407   6.116   7.161  1.4822 -0.1815  0.5311
  224MOL0     H30189   7.247   6.296   7.349 -2.0308 -1.1942  3.1326
  224MOL0     H30190   7.311   6.130   7.385 -1.3098  0.9589  0.4392
  224MOL0     H30191   7.179   5.908   7.266  3.7968  1.0003 -2.3344
  224MOL0     H30192   6.957   5.908   6.973 -1.3183  1.9895  1.7821
  224MOL0     H30193   7.014   5.787   7.098  1.8280  1.1406  1.0011
  224MOL0     H30194   6.752   5.928   7.060 -1.3558 -3.3247 -2.0674
  224MOL0     H30195   6.797   5.912   7.230 -2.3102  1.2054 -0.3626
  224MOL0     H30196   6.793   5.668   7.227 -0.6243 -3.0551 -1.2263
  224MOL0     H30197   6.779   5.678   7.048 -1.7026  1.7326 -1.0728
  224MOL0     H30198   6.581   5.770   7.256 -5.4258  0.6242 -0.9843
  224MOL0     H30199   6.569   5.616   7.169  0.6511 -0.7140 -1.8138
  224MOL0     H30200   6.374   5.869   6.865  0.7637  1.2557  0.9183
  224MOL0     H30201   6.053   5.789   6.789  0.7368 -0.2450  0.4509
  224MOL0     H30202   6.049   5.964   6.829  0.3745  1.6472 -0.6880
  224MOL0     H30203   6.178   5.888   6.738 -0.5520 -2.5402 -1.0420
  224MOL0     H30204   5.657   6.042   7.145 -1.1372  1.6067 -0.4809
  224MOL0     H30205   5.447   5.990   7.043  0.9213 -0.9859 -0.0203
  224MOL0     H30206   5.417   5.811   6.639  0.2020 -0.8781 -0.2806
  224MOL0     H30207   5.420   5.677   6.754 -0.9642 -0.8836  0.1782
  224MOL0     H30208   5.166   5.817   6.690  1.1677  1.1691  0.9183
  224MOL0     H30209   5.224   5.691   6.581  2.0574 -3.4844  0.3223
  224MOL0     H30210   5.196   5.646   6.885 -2.1889 -0.6139  0.6912
  224MOL0     H30211   5.227   5.515   6.762  2.5334  1.0704 -1.4453
  224MOL0     H30212   4.963   5.682   6.812 -1.2507 -1.6212  1.0785
  224MOL0     H30213   4.987   5.580   6.671 -0.1921  0.2908  1.0325
  224MOL0     H30214   4.868   5.474   6.876 -0.0762 -1.9114 -0.0252
  224MOL0     H30215   5.028   5.473   6.948  2.3054  1.7842 -1.2167
  224MOL0     H30216   4.966   5.352   6.675  3.2161  3.0703 -0.4201
  224MOL0     H30217   5.104   5.317   6.767  0.7905  3.4846  0.2348
  224MOL0     H30218   4.947   5.220   6.958 -4.6158  1.4721  1.2679
  224MOL0     H30219   4.988   5.129   6.799  1.3378  1.2705 -1.7690
  224MOL0     H30220   4.747   5.201   6.720 -1.6676  0.2414  0.7147
  224MOL0     H30221   4.725   5.255   6.883  0.7319 -0.6180  1.8867
  224MOL0     H30222   5.630   5.741   6.754  2.7592 -1.2649  0.6140
  224MOL0     H30223   5.844   5.780   6.846  1.3997 -1.5887  2.7573
  224MOL0     H30224   6.130   5.734   7.265 -4.6439  2.2906 -2.1919
  224MOL0     H30225   6.369   5.716   7.272  0.6367 -0.7138 -0.5801
  224MOL0     H30226   8.321   6.589   7.490  0.3310  0.2372  1.5537
  224MOL0     H30227   8.569   6.598   7.430  0.7735  0.0423 -0.6723
  224MOL0     H30228   8.901   6.428   7.179 -1.2024  1.4369  1.2279
  224MOL0     H30229   9.133   6.474   7.113  1.0003  2.2846 -0.5060
  224MOL0     H30230   9.333   6.430   7.108  1.6084 -1.6308 -0.7359
  224MOL0     H30231   9.399   6.591   7.081 -0.0256 -0.2940 -0.4186
  224MOL0     H30232   9.541   6.368   7.135 -0.5512  1.1454 -3.3062
  224MOL0     H30233   9.511   6.422   7.298 -1.5106  2.1063 -0.2026
  224MOL0     H30234   9.734   6.505   7.232  0.8870 -0.4618 -2.5216
  224MOL0     H30235   9.622   6.645   7.245  1.1934  1.1114 -1.8307
  224MOL0     H30236   9.604   6.669   7.002  0.4791  1.3795  1.6293
  224MOL0     H30237   9.684   6.512   6.979  3.1863  0.6648 -1.1283
  224MOL0     H30238  10.020   6.765   7.060 -0.5697  1.3839 -1.0248
  224MOL0     H30239   9.240   6.543   7.522 -0.8605 -1.1571  2.9869
  224MOL0     H30240   9.004   6.447   7.591  0.1575  2.2917  0.8571
  225MOL0     O30241   6.902   6.771   1.127  0.1785 -0.4527 -0.0287
  225MOL0     C30242   6.904   6.693   1.034  0.5399  0.2254 -0.3837
  225MOL0     O30243   6.794   6.627   0.992 -0.6037  0.3782 -0.3523
  225MOL0     C30244   6.671   6.670   1.040 -0.0891  0.7963 -0.1458
  225MOL0     C30245   6.598   6.582   1.119  0.4529 -0.0504  0.5583
  225MOL0     C30246   6.471   6.619   1.155  0.0032  0.0207  0.5204
  225MOL0     C30247   6.416   6.742   1.128  1.4063 -0.7124  0.7850
  225MOL0     O30248   6.299   6.779   1.185  0.4312  0.3976 -0.5038
  225MOL0     C30249   6.181   6.717   1.132  0.5747 -0.0542  0.0730
  225MOL0     C30250   6.053   6.802   1.131 -0.2468  0.5201  0.9375
  225MOL0     C30251   6.069   6.930   1.048  0.0297  0.0503 -0.4231
  225MOL0     C30252   5.980   6.930   0.921  1.5138 -0.2765 -0.0316
  225MOL0     C30253   5.989   7.066   0.850 -0.0003  0.5962 -1.2126
  225MOL0     C30254   5.910   7.054   0.726 -0.4867 -1.0311 -0.2788
  225MOL0     C30255   5.919   7.189   0.649 -0.1986  0.3957  0.5081
  225MOL0     C30256   5.824   7.195   0.525  0.7963 -0.4610 -0.1425
  225MOL0     N30257   5.692   7.243   0.570 -0.2865  0.1776 -0.0836
  225MOL0     C30258   5.579   7.163   0.551  0.1533 -0.2854  0.1982
  225MOL0     C30259   5.476   7.252   0.564  0.4938 -0.3512  0.2176
  225MOL0     C30260   5.326   7.230   0.540 -0.1754  0.1540 -0.3002
  225MOL0     C30261   5.256   7.189   0.676  0.0847  0.1655 -0.4122
  225MOL0     C30262   5.246   7.304   0.774 -1.2813 -0.4604  0.3134
  225MOL0     C30263   5.144   7.271   0.891  0.0228  0.5730  0.4317
  225MOL0     O30264   5.018   7.228   0.841  1.1740  0.5800 -0.7063
  225MOL0     C30265   4.921   7.182   0.931  1.0825  0.1221 -0.5295
  225MOL0     C30266   4.940   7.175   1.069  0.1745  0.3504  0.6080
  225MOL0     C30267   4.833   7.130   1.153 -0.4386  0.4467  0.2723
  225MOL0     C30268   4.866   7.120   1.300 -0.3694 -0.1264  0.6212
  225MOL0     C30269   4.706   7.095   1.104  0.7632 -0.1310 -0.2852
  225MOL0     C30270   4.596   7.063   1.194  0.1239  0.9214  0.0000
  225MOL0     O30271   4.487   6.999   1.137  0.0952 -0.0169  0.5805
  225MOL0     C30272   4.384   6.940   1.207 -0.5850 -0.0475 -0.1158
  225MOL0     C30273   4.408   6.876   1.331 -0.3178 -0.3052  0.0636
  225MOL0     C30274   4.302   6.825   1.404  0.4539 -0.0295  1.1534
  225MOL0     C30275   4.171   6.842   1.359  0.5446  0.2332 -0.5772
  225MOL0     O30276   4.061   6.813   1.430  0.0391 -0.6176 -0.7763
  225MOL0     C30277   4.080   6.718   1.546 -0.4594  0.2112  0.3206
  225MOL0     C30278   4.110   6.782   1.678  0.1809 -0.7152  0.2981
  225MOL0     C30279   4.103   6.683   1.792  0.3403 -0.6419 -1.3481
  225MOL0     C30280   3.954   6.648   1.823 -0.0195 -0.5999 -0.2590
  225MOL0     C30281   3.960   6.575   1.952 -0.1018  0.4446  0.0111
  225MOL0     C30282   3.818   6.537   1.999 -0.2986  1.2153 -0.1922
  225MOL0     C30283   3.769   6.426   1.908  0.1235  0.0013  0.4331
  225MOL0     C30284   3.616   6.418   1.917 -0.3180 -0.0230  0.1170
  225MOL0    Cl30285   3.564   6.364   2.078  0.1482 -0.2904  0.3139
  225MOL0     C30286   4.144   6.893   1.230 -0.4404  0.6902 -0.4142
  225MOL0     C30287   4.259   6.940   1.153  0.1072 -1.1477  0.0702
  225MOL0     O30288   4.597   7.098   1.316  0.1215  0.0883 -0.4587
  225MOL0     C30289   4.691   7.086   0.970  0.0385  0.7972 -0.2129
  225MOL0     C30290   4.800   7.130   0.885  0.2507  0.1813 -0.2514
  225MOL0     N30291   5.529   7.372   0.611 -0.1986  0.7565  0.0295
  225MOL0     N30292   5.657   7.372   0.599  0.3064 -0.6926  0.1168
  225MOL0     C30293   6.489   6.827   1.050  0.8638 -0.4138 -0.2253
  225MOL0     C30294   6.609   6.793   0.999 -0.3755 -0.6897 -0.1123
  225MOL0     C30295   7.031   6.663   0.970 -0.0650  0.0217 -0.0305
  225MOL0     C30296   7.041   6.537   0.897  0.7365  0.0649 -0.2613
  225MOL0     C30297   7.154   6.509   0.822 -0.4292  1.1513  0.0692
  225MOL0     C30298   7.268   6.597   0.836  0.7425 -0.5373 -1.0536
  225MOL0     O30299   7.369   6.548   0.771  0.1931  0.0360  0.2528
  225MOL0     C30300   7.497   6.617   0.787 -0.1838  0.1213  0.5266
  225MOL0     C30301   7.604   6.537   0.716 -0.5807 -0.4820  0.3384
  225MOL0     C30302   7.744   6.583   0.752 -0.4800  0.2934 -1.0922
  225MOL0     C30303   7.859   6.514   0.666  0.1269 -0.3537  0.2197
  225MOL0     C30304   7.988   6.555   0.712 -0.2805 -0.5517  0.1041
  225MOL0     C30305   8.101   6.595   0.749  0.2610 -0.3497  0.4280
  225MOL0     C30306   7.260   6.724   0.902 -0.7830 -0.0679  0.2315
  225MOL0     C30307   7.146   6.751   0.975  0.4796 -0.0847 -0.5042
  225MOL0     H30308   6.633   6.480   1.136  2.3950  0.7308  1.5226
  225MOL0     H30309   6.412   6.543   1.206 -3.4233 -0.0629 -3.0648
  225MOL0     H30310   6.190   6.673   1.032 -3.6021  2.8816 -1.8680
  225MOL0     H30311   6.172   6.625   1.190  0.9454 -1.0145 -1.3393
  225MOL0     H30312   5.974   6.743   1.082  0.2661  1.7281 -1.4608
  225MOL0     H30313   6.026   6.823   1.235 -0.5730  1.6591  0.6360
  225MOL0     H30314   6.043   7.017   1.110  0.3821 -0.9197  1.1249
  225MOL0     H30315   6.171   6.943   1.011  0.6398  1.4500  1.5517
  225MOL0     H30316   6.008   6.850   0.853 -2.0178 -0.4203 -1.5645
  225MOL0     H30317   5.877   6.924   0.958  1.9223 -0.5382  1.1160
  225MOL0     H30318   5.946   7.143   0.914 -0.2167 -0.5965  0.1438
  225MOL0     H30319   6.095   7.084   0.830  1.2287 -1.4063  2.4382
  225MOL0     H30320   5.964   6.985   0.662 -0.3582  0.5586 -1.9724
  225MOL0     H30321   5.810   7.015   0.747 -0.8098 -0.1001 -0.0131
  225MOL0     H30322   5.902   7.279   0.709  2.4178  1.6437 -0.4345
  225MOL0     H30323   6.021   7.197   0.610 -0.4822 -0.1923 -0.3949
  225MOL0     H30324   5.818   7.097   0.478  2.1626 -0.4879 -0.3009
  225MOL0     H30325   5.860   7.267   0.451 -2.7414 -0.1830 -1.7825
  225MOL0     H30326   5.577   7.058   0.522 -0.5322 -0.1713 -0.1776
  225MOL0     H30327   5.279   7.323   0.508 -0.0396 -0.0513 -1.1232
  225MOL0     H30328   5.326   7.149   0.466  1.9769  2.3929 -2.9731
  225MOL0     H30329   5.315   7.107   0.717 -1.2028 -1.3863 -1.5142
  225MOL0     H30330   5.150   7.163   0.669 -0.8748  3.3916  0.3710
  225MOL0     H30331   5.220   7.400   0.730  2.2122  0.5051  0.0554
  225MOL0     H30332   5.343   7.320   0.823  0.7620  0.3043 -3.5857
  225MOL0     H30333   5.138   7.365   0.946  3.0152 -0.0929  2.1375
  225MOL0     H30334   5.181   7.198   0.963 -5.2008 -2.1762  0.7753
  225MOL0     H30335   5.034   7.202   1.116  0.4732 -1.1084  0.8864
  225MOL0     H30336   4.974   7.125   1.314 -0.2887  0.6420 -0.1826
  225MOL0     H30337   4.828   7.202   1.362  0.4827  0.1036  0.8499
  225MOL0     H30338   4.827   7.025   1.337 -3.0341  0.8942  0.6728
  225MOL0     H30339   4.510   6.869   1.367  0.7008 -1.0508 -2.7107
  225MOL0     H30340   4.316   6.761   1.491 -1.2545 -0.2095  1.3227
  225MOL0     H30341   3.984   6.666   1.556 -1.8571  2.3114 -1.3811
  225MOL0     H30342   4.148   6.634   1.531 -0.5201 -0.1954  2.0821
  225MOL0     H30343   4.212   6.819   1.689 -0.7549  2.3454 -0.2335
  225MOL0     H30344   4.039   6.866   1.679 -3.8813 -3.8597  0.2823
  225MOL0     H30345   4.143   6.740   1.875 -2.2574  3.4823 -2.6335
  225MOL0     H30346   4.161   6.591   1.776 -0.8110 -1.2667 -2.1270
  225MOL0     H30347   3.896   6.740   1.834 -0.2440 -0.7293 -0.3509
  225MOL0     H30348   3.913   6.585   1.743 -0.0779 -1.1148  0.1673
  225MOL0     H30349   3.996   6.648   2.026 -3.1766  1.0303  1.0583
  225MOL0     H30350   4.025   6.487   1.943 -0.6963 -0.0847  0.7310
  225MOL0     H30351   3.831   6.492   2.098  1.6014  0.4045 -0.7660
  225MOL0     H30352   3.746   6.619   2.008 -0.7938  1.4549 -4.2233
  225MOL0     H30353   3.806   6.333   1.954 -1.7334 -0.7647  0.4780
  225MOL0     H30354   3.799   6.437   1.803 -2.2279  0.0050 -0.2962
  225MOL0     H30355   3.583   6.332   1.858 -1.9781  0.2299  0.6073
  225MOL0     H30356   3.572   6.508   1.873  0.4458  1.0893  1.5283
  225MOL0     H30357   4.038   6.916   1.218 -0.4215  0.5722 -0.8031
  225MOL0     H30358   4.243   7.000   1.064  0.5534 -0.5917  0.3646
  225MOL0     H30359   4.597   7.050   0.931 -0.8528  2.7139  0.0464
  225MOL0     H30360   4.787   7.125   0.777 -0.7202 -0.9015 -0.1057
  225MOL0     H30361   6.439   6.919   1.024 -2.1140 -2.0404 -0.7301
  225MOL0     H30362   6.652   6.858   0.924 -0.9383  1.9773  1.7250
  225MOL0     H30363   6.956   6.471   0.878 -2.5425  3.5337  0.9891
  225MOL0     H30364   7.167   6.416   0.766 -3.7368 -0.6574  1.9571
  225MOL0     H30365   7.478   6.721   0.757 -1.9926 -0.5337 -0.7709
  225MOL0     H30366   7.519   6.614   0.894  2.5179  0.1234  0.0531
  225MOL0     H30367   7.587   6.553   0.609 -3.7702 -2.1778  0.4764
  225MOL0     H30368   7.605   6.431   0.740 -1.3280 -0.8041 -0.9613
  225MOL0     H30369   7.751   6.565   0.859 -1.0845  1.6047 -0.8103
  225MOL0     H30370   7.755   6.691   0.737 -1.0934  0.2852 -1.6563
  225MOL0     H30371   7.848   6.548   0.563  1.2054  0.8444  0.4722
  225MOL0     H30372   7.841   6.406   0.659 -2.7952  0.1556 -1.7301
  225MOL0     H30373   8.197   6.632   0.776  0.0263 -0.0839  0.9269
  225MOL0     H30374   7.335   6.802   0.903 -1.0738  0.2459  2.1463
  225MOL0     H30375   7.133   6.846   1.026  2.3672 -0.5328  0.9275
  226MOL0     O30376   4.794  10.849   8.675 -0.0045 -0.4839 -0.2412
  226MOL0     C30377   4.820  10.881   8.559  0.0810 -0.1176 -0.0099
  226MOL0     O30378   4.746  10.966   8.482 -0.1022 -0.3500  0.3432
  226MOL0     C30379   4.622  11.008   8.509  0.3843  0.4921 -0.6280
  226MOL0     C30380   4.532  10.957   8.606  0.4028  0.1349  0.2530
  226MOL0     C30381   4.405  11.003   8.628 -0.6388  0.4473 -0.8073
  226MOL0     C30382   4.341  11.098   8.550 -0.3487  0.4736  0.3679
  226MOL0     O30383   4.213  11.129   8.571 -0.0542  0.3173  0.0375
  226MOL0     C30384   4.123  11.055   8.485  0.3857  0.3100 -0.5326
  226MOL0     C30385   4.024  11.153   8.427 -0.3781 -0.4885 -0.5592
  226MOL0     C30386   3.926  11.086   8.334  0.0389  0.5016 -0.5017
  226MOL0     C30387   3.823  11.188   8.281 -0.1623 -0.1224 -0.4413
  226MOL0     C30388   3.732  11.124   8.181 -0.0770  0.0453 -0.4566
  226MOL0     C30389   3.621  11.216   8.137 -0.4652 -0.1898 -0.3385
  226MOL0     C30390   3.677  11.288   8.015  0.3707 -0.3224  0.2087
  226MOL0     C30391   3.584  11.396   7.973 -0.4476  0.9575 -0.1868
  226MOL0     N30392   3.469  11.341   7.890  0.9205 -0.5702  0.5038
  226MOL0     C30393   3.361  11.266   7.930 -0.5153 -0.4584  0.3533
  226MOL0     C30394   3.268  11.274   7.832  0.4163 -0.1794 -0.5729
  226MOL0     C30395   3.132  11.208   7.859  0.3462 -0.0504 -0.2955
  226MOL0     C30396   3.122  11.073   7.784  0.3646 -0.3870  0.7160
  226MOL0     C30397   3.135  11.077   7.624  0.6102  0.4605 -0.2090
  226MOL0     C30398   3.083  10.949   7.563  1.0968 -0.4746  1.2131
  226MOL0     O30399   3.096  10.963   7.422  0.4186 -0.3488  0.3775
  226MOL0     C30400   2.981  10.939   7.348 -0.5571  0.0464  0.5399
  226MOL0     C30401   2.886  10.845   7.396 -0.0199 -1.6893 -0.2168
  226MOL0     C30402   2.776  10.810   7.323  0.0499  0.2168 -0.4719
  226MOL0     C30403   2.690  10.699   7.374  0.1060 -0.4761 -0.6311
  226MOL0     C30404   2.752  10.874   7.197 -0.0300 -0.4798 -0.5730
  226MOL0     C30405   2.639  10.847   7.110 -0.0178 -0.2561 -0.4531
  226MOL0     O30406   2.623  10.921   7.002  0.2885  0.2567  1.1194
  226MOL0     C30407   2.510  10.901   6.931 -0.3677 -0.5513  0.0479
  226MOL0     C30408   2.497  10.792   6.845 -0.5675  0.1915  0.6049
  226MOL0     C30409   2.387  10.777   6.769  0.4467 -0.3992  0.6185
  226MOL0     C30410   2.274  10.861   6.795 -0.4679 -0.1989  0.6060
  226MOL0     O30411   2.161  10.855   6.717 -0.3796  0.4124  1.1512
  226MOL0     C30412   2.112  10.727   6.667 -0.3458  0.4614  0.0748
  226MOL0     C30413   1.962  10.733   6.639 -0.1808 -0.0684 -0.5758
  226MOL0     C30414   1.878  10.722   6.768  0.2834 -0.0114  0.3910
  226MOL0     C30415   1.728  10.704   6.728 -1.1739 -0.0769 -0.1788
  226MOL0     C30416   1.640  10.656   6.850 -0.0297  0.1247 -0.0009
  226MOL0     C30417   1.487  10.645   6.816  1.0184 -0.6841  0.1149
  226MOL0     C30418   1.466  10.566   6.682 -0.2872 -1.0728  0.3628
  226MOL0     C30419   1.447  10.671   6.567  0.3593 -0.2936  0.1576
  226MOL0    Cl30420   1.490  10.610   6.402  0.0617 -0.2992 -0.1729
  226MOL0     C30421   2.280  10.964   6.892 -0.2701 -1.2375 -0.1283
  226MOL0     C30422   2.403  10.992   6.949  0.4656  0.9849  0.3990
  226MOL0     O30423   2.564  10.748   7.135 -0.3905 -0.6538  0.5066
  226MOL0     C30424   2.844  10.977   7.158  0.8578  0.3076  0.3150
  226MOL0     C30425   2.959  11.003   7.229 -0.5141  0.1430 -0.4966
  226MOL0     N30426   3.321  11.349   7.728  0.1237 -0.6703 -0.3267
  226MOL0     N30427   3.441  11.380   7.764  0.2375 -0.0641  0.2291
  226MOL0     C30428   4.422  11.150   8.445  0.1076 -0.3837 -0.1464
  226MOL0     C30429   4.561  11.099   8.414  0.3919  0.1443 -1.2811
  226MOL0     C30430   4.946  10.829   8.503 -0.6330  0.0021  0.6738
  226MOL0     C30431   5.003  10.715   8.560  0.8244  0.6821  0.1507
  226MOL0     C30432   5.116  10.653   8.513  0.1147 -0.2142 -0.0450
  226MOL0     C30433   5.174  10.712   8.396  1.2088 -0.0551  0.1161
  226MOL0     O30434   5.283  10.652   8.353 -0.5648  0.5627 -0.1702
  226MOL0     C30435   5.368  10.704   8.255 -0.1894 -1.3545  0.9640
  226MOL0     C30436   5.439  10.842   8.282 -0.4609 -0.8977 -0.0848
  226MOL0     C30437   5.525  10.846   8.408  0.0429 -0.0926 -0.6899
  226MOL0     C30438   5.545  10.995   8.450  0.3849  0.0472  0.5470
  226MOL0     C30439   5.641  11.062   8.359  0.2168  0.2881 -0.0660
  226MOL0     C30440   5.723  11.121   8.293 -0.0368  0.9382  0.7066
  226MOL0     C30441   5.113  10.823   8.330  0.8361  0.4125 -0.3882
  226MOL0     C30442   5.002  10.890   8.389 -0.1160 -0.5653 -0.1119
  226MOL0     H30443   4.553  10.880   8.681 -2.3017 -0.6143  0.3270
  226MOL0     H30444   4.338  10.954   8.698 -0.0371  2.1894  1.0939
  226MOL0     H30445   4.168  11.010   8.396  3.9385  2.4913 -0.0416
  226MOL0     H30446   4.068  10.986   8.550 -1.0662  1.5558 -0.3707
  226MOL0     H30447   3.972  11.212   8.504  0.5488  1.5758 -1.4458
  226MOL0     H30448   4.082  11.227   8.372  0.0839  0.1377  0.7230
  226MOL0     H30449   3.978  11.035   8.253  0.4669  0.5330 -0.2529
  226MOL0     H30450   3.892  11.000   8.392  4.1475 -1.5452 -0.7806
  226MOL0     H30451   3.762  11.229   8.362 -0.8457  0.7464 -1.3753
  226MOL0     H30452   3.857  11.285   8.244 -0.5999 -0.2768 -1.2853
  226MOL0     H30453   3.789  11.094   8.092 -2.9110  1.2761 -2.8477
  226MOL0     H30454   3.676  11.038   8.219  0.7744 -0.2830  0.0699
  226MOL0     H30455   3.542  11.147   8.107  1.2727 -2.1587 -0.5826
  226MOL0     H30456   3.593  11.286   8.216  2.0346  0.7039 -0.1451
  226MOL0     H30457   3.774  11.337   8.033 -0.4344  1.0991  0.8307
  226MOL0     H30458   3.696  11.224   7.928  3.6768  0.8401 -0.0904
  226MOL0     H30459   3.645  11.467   7.917  0.9714 -0.1228 -0.0694
  226MOL0     H30460   3.544  11.443   8.064  1.9669  1.3831  0.7274
  226MOL0     H30461   3.349  11.225   8.031  0.9224  0.7842  1.0615
  226MOL0     H30462   3.117  11.193   7.967  0.6310  1.7083  0.0269
  226MOL0     H30463   3.056  11.283   7.832 -0.5605 -1.3399 -1.4604
  226MOL0     H30464   3.021  11.035   7.801  0.1210 -0.5759 -0.9866
  226MOL0     H30465   3.198  11.011   7.832  0.3212  1.4570  3.3255
  226MOL0     H30466   3.239  11.101   7.602  0.3501  1.3033 -0.5522
  226MOL0     H30467   3.078  11.163   7.587  0.2690 -0.0366 -0.8599
  226MOL0     H30468   2.983  10.925   7.600 -0.3122 -0.7108 -2.3486
  226MOL0     H30469   3.146  10.862   7.581 -1.3814 -2.4729  0.8423
  226MOL0     H30470   2.905  10.793   7.489 -1.4853 -0.4112  0.8459
  226MOL0     H30471   2.733  10.658   7.467  0.0870 -1.4835 -1.0550
  226MOL0     H30472   2.591  10.739   7.398  0.7840  1.1618 -0.4795
  226MOL0     H30473   2.670  10.608   7.317  0.2304 -1.1459  0.3478
  226MOL0     H30474   2.580  10.731   6.813  0.2675  2.4363 -1.9017
  226MOL0     H30475   2.378  10.703   6.690  1.6223  0.2489 -0.1626
  226MOL0     H30476   2.158  10.725   6.567  3.0225 -1.3565  1.4701
  226MOL0     H30477   2.146  10.643   6.729  2.4019  1.5050  0.1381
  226MOL0     H30478   1.946  10.823   6.578 -2.4976  0.6613  0.9689
  226MOL0     H30479   1.936  10.656   6.566 -2.9213 -0.7403  0.9638
  226MOL0     H30480   1.894  10.802   6.840  0.2141 -2.7125  3.6590
  226MOL0     H30481   1.908  10.628   6.816 -0.6379 -0.6692 -0.2881
  226MOL0     H30482   1.684  10.799   6.697 -1.2512  1.4908  4.0606
  226MOL0     H30483   1.725  10.640   6.639 -1.8613  1.2451 -1.1569
  226MOL0     H30484   1.644  10.734   6.928 -3.1493  2.5266 -1.9897
  226MOL0     H30485   1.681  10.561   6.884 -0.1612  0.1790  0.3177
  226MOL0     H30486   1.432  10.607   6.903 -4.3771  1.5057 -1.8895
  226MOL0     H30487   1.443  10.744   6.808  2.6477  0.0477 -0.1837
  226MOL0     H30488   1.380  10.497   6.682 -1.9680  0.8763 -1.7543
  226MOL0     H30489   1.556  10.508   6.664 -0.4643 -1.7346  1.4865
  226MOL0     H30490   1.511  10.758   6.585  0.1483 -0.2648  0.8063
  226MOL0     H30491   1.343  10.703   6.577  0.6409  0.7048  0.0653
  226MOL0     H30492   2.193  11.027   6.905 -0.6627 -2.0125  1.1964
  226MOL0     H30493   2.407  11.074   7.020  0.9658  0.5287  0.9098
  226MOL0     H30494   2.825  11.027   7.064  2.3956  1.3571  0.5294
  226MOL0     H30495   3.034  11.074   7.196 -0.0946 -0.1999 -0.2982
  226MOL0     H30496   4.387  11.230   8.380 -0.5688  0.2837  1.0061
  226MOL0     H30497   4.624  11.147   8.340  1.2578  2.4957  0.8405
  226MOL0     H30498   4.959  10.667   8.647  1.3606  0.3283  0.2342
  226MOL0     H30499   5.165  10.572   8.566  2.7682  1.1597 -0.2535
  226MOL0     H30500   5.445  10.631   8.227  1.3726  1.3061 -2.5192
  226MOL0     H30501   5.306  10.724   8.167  0.9699  1.5219  0.6905
  226MOL0     H30502   5.361  10.919   8.285  1.9270  1.7732 -1.0523
  226MOL0     H30503   5.501  10.873   8.197 -1.8898  4.4393  0.4779
  226MOL0     H30504   5.623  10.799   8.403 -0.2067 -0.6650 -0.2290
  226MOL0     H30505   5.464  10.804   8.488  0.6390 -0.1765 -0.2742
  226MOL0     H30506   5.578  10.992   8.554  1.2867 -0.6801  0.2517
  226MOL0     H30507   5.448  11.047   8.448  0.3314 -0.0374 -1.3185
  226MOL0     H30508   5.806  11.165   8.242  0.6405  0.5604  1.4656
  226MOL0     H30509   5.149  10.868   8.238  2.4792 -2.8378 -1.5244
  226MOL0     H30510   4.965  10.977   8.334 -1.3217 -1.2254 -0.3690
  227MOL0     O30511   7.741   2.231   8.742  0.0026  1.0500  0.3635
  227MOL0     C30512   7.792   2.118   8.748  0.0859  0.6939  0.3036
  227MOL0     O30513   7.726   2.000   8.770 -0.1020  0.5674  0.7859
  227MOL0     C30514   7.584   1.994   8.759 -0.0766  0.9958 -0.3402
  227MOL0     C30515   7.509   1.900   8.839 -0.3778 -0.2177  0.8150
  227MOL0     C30516   7.372   1.887   8.816  0.6473  0.1266  0.6323
  227MOL0     C30517   7.300   1.967   8.725 -0.5963  0.4419  1.1358
  227MOL0     O30518   7.163   1.950   8.698 -0.6174  0.2536 -0.7446
  227MOL0     C30519   7.094   1.847   8.760 -0.1036  0.7384 -0.4750
  227MOL0     C30520   6.941   1.850   8.720 -0.1100 -0.2611  0.4556
  227MOL0     C30521   6.867   1.718   8.740 -0.1519  0.2557 -0.6397
  227MOL0     C30522   6.722   1.722   8.709 -0.1115 -0.5441 -0.3855
  227MOL0     C30523   6.646   1.591   8.728 -0.9023  0.3639  0.1232
  227MOL0     C30524   6.493   1.611   8.719 -0.3658  0.4365 -0.0553
  227MOL0     C30525   6.442   1.633   8.576  0.0728 -0.0762 -0.3336
  227MOL0     C30526   6.292   1.630   8.578  0.3797  0.5084 -0.8175
  227MOL0     N30527   6.243   1.645   8.442 -0.2703 -1.0449 -0.1890
  227MOL0     C30528   6.184   1.552   8.370  0.7913  0.6769  0.6402
  227MOL0     C30529   6.146   1.617   8.260 -0.4580 -0.4219 -0.5952
  227MOL0     C30530   6.060   1.555   8.154 -0.8631 -0.0817  0.7359
  227MOL0     C30531   6.133   1.448   8.067  0.1195 -0.3858 -0.6325
  227MOL0     C30532   6.048   1.396   7.949 -1.1068  0.3271  0.2075
  227MOL0     C30533   6.135   1.307   7.857  0.5691 -0.2691 -0.4226
  227MOL0     O30534   6.067   1.182   7.829  0.1279  0.2832  0.0437
  227MOL0     C30535   5.956   1.186   7.751  0.9524  0.9448 -0.3076
  227MOL0     C30536   5.945   1.264   7.645 -0.8058 -0.0891 -0.4239
  227MOL0     C30537   5.832   1.265   7.556 -0.5905  0.7746 -0.7324
  227MOL0     C30538   5.844   1.353   7.440  0.7848  0.4234  0.2536
  227MOL0     C30539   5.727   1.174   7.584  0.7786  0.0246  0.2840
  227MOL0     C30540   5.596   1.174   7.505  0.0193 -0.4995 -0.7812
  227MOL0     O30541   5.512   1.075   7.533 -0.6163 -0.8604  0.1972
  227MOL0     C30542   5.389   1.079   7.481 -0.3127  0.3276 -0.1895
  227MOL0     C30543   5.364   1.045   7.349  1.0130 -0.2829  0.5256
  227MOL0     C30544   5.234   1.041   7.309  0.8098  0.4674  0.8610
  227MOL0     C30545   5.129   1.068   7.395  0.3638 -0.4034  0.2947
  227MOL0     O30546   5.011   1.072   7.333  0.0100 -0.1017 -0.4885
  227MOL0     C30547   4.897   1.127   7.400  0.2712  0.3936  0.6577
  227MOL0     C30548   4.834   1.041   7.508 -0.5731  0.0108 -0.1384
  227MOL0     C30549   4.678   1.069   7.518 -0.1521 -0.1974 -0.3484
  227MOL0     C30550   4.630   0.988   7.632  0.2847 -0.2179  0.4839
  227MOL0     C30551   4.472   0.999   7.639 -0.0512  0.5385  0.2568
  227MOL0     C30552   4.417   1.134   7.678 -1.2785 -0.6556  0.1005
  227MOL0     C30553   4.290   1.138   7.747  0.3464  0.1632  0.1809
  227MOL0     C30554   4.176   1.073   7.667 -0.4221 -1.4070  0.9319
  227MOL0    Cl30555   4.036   1.036   7.785  0.2475 -0.3364 -0.0405
  227MOL0     C30556   5.160   1.117   7.525 -0.4497 -0.7476  0.1519
  227MOL0     C30557   5.290   1.115   7.570 -0.1245  0.0651  0.0238
  227MOL0     O30558   5.573   1.261   7.414  0.4189  0.0784 -0.4333
  227MOL0     C30559   5.736   1.091   7.693  0.6045 -0.4549  0.3942
  227MOL0     C30560   5.850   1.097   7.774 -0.8758 -0.6074 -0.1947
  227MOL0     N30561   6.187   1.748   8.263 -0.2915  0.1881  0.7026
  227MOL0     N30562   6.251   1.761   8.373  0.6070 -0.3457 -0.3031
  227MOL0     C30563   7.376   2.047   8.641 -0.5379  0.3903  0.3575
  227MOL0     C30564   7.510   2.071   8.664  1.0004  0.0870  0.0243
  227MOL0     C30565   7.930   2.106   8.727 -0.1258 -0.4293 -0.1281
  227MOL0     C30566   8.013   2.207   8.773  0.1237 -0.1495 -0.2046
  227MOL0     C30567   8.151   2.203   8.749  0.4407  0.3272  0.5538
  227MOL0     C30568   8.215   2.096   8.681  0.6284 -0.2900 -0.0790
  227MOL0     O30569   8.352   2.082   8.663 -0.1903 -0.9765 -1.6486
  227MOL0     C30570   8.446   2.162   8.739  0.1694 -0.4179  0.2584
  227MOL0     C30571   8.557   2.077   8.778  0.2048 -0.5147 -0.5140
  227MOL0     C30572   8.660   2.174   8.850 -0.3955 -0.4580 -0.4870
  227MOL0     C30573   8.777   2.095   8.902 -0.4371  1.2671 -0.7168
  227MOL0     C30574   8.865   2.181   8.977  0.0286 -0.9898  0.7657
  227MOL0     C30575   8.939   2.252   9.045 -0.3652 -0.0755  0.4328
  227MOL0     C30576   8.130   1.999   8.636 -0.5292  0.2678 -0.1263
  227MOL0     C30577   7.988   1.997   8.666 -0.4850  0.1238  0.4202
  227MOL0     H30578   7.552   1.822   8.902 -0.2638 -1.3129 -0.5813
  227MOL0     H30579   7.318   1.825   8.887  1.0991 -1.3032 -0.2330
  227MOL0     H30580   7.138   1.749   8.740 -0.6740 -0.1913  2.3383
  227MOL0     H30581   7.095   1.859   8.869 -2.2544 -0.9532 -0.1969
  227MOL0     H30582   6.901   1.928   8.786  3.1342 -0.1510  2.4793
  227MOL0     H30583   6.933   1.870   8.613 -1.6335  0.1321  0.6103
  227MOL0     H30584   6.917   1.644   8.677 -1.0667 -1.7762  0.9449
  227MOL0     H30585   6.881   1.682   8.842 -0.2725 -2.0150 -1.3772
  227MOL0     H30586   6.677   1.798   8.772  1.4833 -0.2255  0.4327
  227MOL0     H30587   6.706   1.755   8.606 -1.0393 -1.4308 -0.5414
  227MOL0     H30588   6.686   1.510   8.665 -0.8804 -1.3731  2.2376
  227MOL0     H30589   6.669   1.553   8.828 -1.2088  0.2771  0.1626
  227MOL0     H30590   6.445   1.527   8.770 -0.9132  0.5590 -0.3636
  227MOL0     H30591   6.476   1.705   8.774  3.2918  0.5176  1.2747
  227MOL0     H30592   6.484   1.729   8.545  0.8350 -0.1313  0.5096
  227MOL0     H30593   6.477   1.554   8.509  0.7827  0.2378 -0.3370
  227MOL0     H30594   6.264   1.709   8.648 -1.6817 -1.1340  0.3450
  227MOL0     H30595   6.257   1.534   8.618  1.4402  1.0359  1.5461
  227MOL0     H30596   6.159   1.449   8.395 -0.1466  0.7499  0.0548
  227MOL0     H30597   5.975   1.510   8.206 -0.8596  2.9474  3.7139
  227MOL0     H30598   6.019   1.630   8.086 -2.1481 -0.1064  1.4557
  227MOL0     H30599   6.162   1.367   8.135 -0.3356  0.0701  0.1167
  227MOL0     H30600   6.226   1.496   8.035  0.8110 -1.0095  0.4081
  227MOL0     H30601   6.011   1.473   7.880  1.0841  0.3075 -1.0959
  227MOL0     H30602   5.966   1.339   7.993 -0.8425 -0.3876 -0.2117
  227MOL0     H30603   6.232   1.293   7.906  0.4744  1.8430  0.4764
  227MOL0     H30604   6.166   1.374   7.776  1.8074  1.0095  1.0528
  227MOL0     H30605   6.035   1.323   7.628 -0.3074  0.4151  3.2206
  227MOL0     H30606   5.815   1.310   7.344  2.2360  0.2901 -0.1466
  227MOL0     H30607   5.787   1.445   7.450 -0.4261 -0.2184 -0.4815
  227MOL0     H30608   5.950   1.374   7.425  0.4737  1.1670 -1.0567
  227MOL0     H30609   5.448   1.020   7.285  0.7248 -0.2725  0.1394
  227MOL0     H30610   5.197   1.010   7.211  2.5967 -1.5854  0.7556
  227MOL0     H30611   4.909   1.226   7.446 -0.5009 -0.2189  2.2703
  227MOL0     H30612   4.817   1.143   7.327 -3.1408 -1.7454  3.5842
  227MOL0     H30613   4.863   0.935   7.502 -1.7835 -0.3800  0.5765
  227MOL0     H30614   4.866   1.061   7.611  0.0639  0.9431 -0.5049
  227MOL0     H30615   4.627   1.043   7.425  1.4063 -1.1065 -0.9919
  227MOL0     H30616   4.658   1.175   7.532  0.1483  0.0185 -1.4714
  227MOL0     H30617   4.661   0.884   7.619  3.1996  0.4210  1.6075
  227MOL0     H30618   4.685   1.018   7.722 -0.5294 -0.1362  0.9621
  227MOL0     H30619   4.431   0.926   7.710 -0.5595 -1.1741 -1.7166
  227MOL0     H30620   4.427   0.975   7.542 -1.7120  0.5263  0.9916
  227MOL0     H30621   4.491   1.178   7.745  0.4372 -0.7948 -1.6121
  227MOL0     H30622   4.415   1.203   7.594  0.3918 -0.3068  0.3185
  227MOL0     H30623   4.260   1.241   7.770  3.7664  1.1195  0.9578
  227MOL0     H30624   4.304   1.088   7.843  0.0894  0.5971  0.4473
  227MOL0     H30625   4.204   0.974   7.631  1.4188 -0.9820  1.1010
  227MOL0     H30626   4.147   1.137   7.583  1.5477  0.0347  1.2800
  227MOL0     H30627   5.067   1.126   7.580 -1.3638  3.3546 -1.6441
  227MOL0     H30628   5.306   1.124   7.677 -2.6608 -3.3826  0.8772
  227MOL0     H30629   5.657   1.020   7.715  0.2559 -1.3393 -3.1060
  227MOL0     H30630   5.854   1.039   7.866 -0.3590  0.6761  0.6198
  227MOL0     H30631   7.332   2.103   8.559 -0.3044 -0.3012 -0.2493
  227MOL0     H30632   7.564   2.142   8.603 -0.5143 -0.9512 -2.7093
  227MOL0     H30633   7.961   2.297   8.803  0.6686 -0.2636  1.1424
  227MOL0     H30634   8.205   2.291   8.784 -1.1396  0.6137  2.4398
  227MOL0     H30635   8.478   2.249   8.680 -1.9330  0.9682  1.0465
  227MOL0     H30636   8.402   2.188   8.836  0.2154 -1.1418  0.4829
  227MOL0     H30637   8.597   2.039   8.683 -0.5288 -1.5402 -0.4286
  227MOL0     H30638   8.527   1.994   8.842 -1.1216  0.3825  0.0646
  227MOL0     H30639   8.612   2.215   8.939 -1.9194 -2.0082 -0.5355
  227MOL0     H30640   8.702   2.251   8.786  2.4555 -3.2348 -2.2289
  227MOL0     H30641   8.837   2.037   8.832 -1.7556 -1.0864 -0.0050
  227MOL0     H30642   8.742   2.020   8.973 -0.9242  2.6891  0.6170
  227MOL0     H30643   9.001   2.310   9.110 -1.7530 -0.3109  2.0227
  227MOL0     H30644   8.170   1.918   8.576 -2.1360 -0.8010  0.1593
  227MOL0     H30645   7.939   1.910   8.623 -0.3215  0.8562 -1.3511
  228MOL0     O30646   0.698   3.075   5.673  0.3152 -0.4460 -0.0502
  228MOL0     C30647   0.752   3.170   5.729  0.7717  0.4857 -0.3160
  228MOL0     O30648   0.679   3.280   5.784 -0.2608 -1.1075  0.1427
  228MOL0     C30649   0.544   3.278   5.765  0.4170 -0.5260 -0.8434
  228MOL0     C30650   0.459   3.226   5.865  0.1074 -0.5653  1.0589
  228MOL0     C30651   0.324   3.218   5.852  0.6098 -0.0216  0.4662
  228MOL0     C30652   0.268   3.260   5.728 -0.0286  0.0631  0.1519
  228MOL0     O30653   0.131   3.279   5.716  0.0977 -0.4459 -0.0800
  228MOL0     C30654   0.048   3.196   5.803 -0.0053  0.0380  0.2712
  228MOL0     C30655   0.015   3.282   5.922 -0.3194  0.4519 -0.4950
  228MOL0     C30656  -0.080   3.226   6.025 -0.0329 -1.2115 -0.2830
  228MOL0     C30657  -0.136   3.328   6.120 -0.3413  0.1117 -0.5466
  228MOL0     C30658  -0.251   3.259   6.212 -0.3032 -0.1459 -0.0273
  228MOL0     C30659  -0.308   3.359   6.319 -0.0448  0.0963  0.2977
  228MOL0     C30660  -0.413   3.314   6.418  0.0691  0.0114 -0.1087
  228MOL0     C30661  -0.553   3.378   6.404 -0.0813 -0.5461 -0.1794
  228MOL0     N30662  -0.629   3.311   6.302  0.2073 -0.1883  1.2659
  228MOL0     C30663  -0.722   3.209   6.306 -0.4901 -0.0813 -0.7407
  228MOL0     C30664  -0.779   3.209   6.186 -0.5318  0.0343 -0.0020
  228MOL0     C30665  -0.880   3.107   6.153 -0.2989 -0.4011 -0.2273
  228MOL0     C30666  -1.022   3.124   6.203 -0.9178 -0.2896 -0.0684
  228MOL0     C30667  -1.113   3.016   6.156 -0.3590  0.1992  0.3338
  228MOL0     C30668  -1.249   3.022   6.230 -0.2294  0.1570 -0.2465
  228MOL0     O30669  -1.317   2.901   6.220  0.1081 -0.7959 -0.4947
  228MOL0     C30670  -1.407   2.869   6.124 -0.1931 -0.9240  0.3821
  228MOL0     C30671  -1.426   2.944   6.004  0.0701  0.4995  0.2742
  228MOL0     C30672  -1.522   2.899   5.911  0.1754 -0.1330 -1.0762
  228MOL0     C30673  -1.537   2.971   5.774 -0.2450  0.0080  1.3125
  228MOL0     C30674  -1.608   2.788   5.944  0.5213  0.8194 -0.0842
  228MOL0     C30675  -1.714   2.733   5.854 -0.0469 -0.0755  0.2966
  228MOL0     O30676  -1.772   2.809   5.747 -0.0802 -0.2391 -0.4311
  228MOL0     C30677  -1.880   2.747   5.688  0.4192 -0.1814  0.4420
  228MOL0     C30678  -2.012   2.780   5.729 -0.2277  0.0805  1.4308
  228MOL0     C30679  -2.121   2.714   5.657 -1.0380 -0.3595 -0.1136
  228MOL0     C30680  -2.095   2.628   5.542  0.7701 -0.4680 -0.2381
  228MOL0     O30681  -2.195   2.576   5.469  0.4019 -0.1971  0.1483
  228MOL0     C30682  -2.323   2.623   5.492 -0.3837 -0.5114  0.0936
  228MOL0     C30683  -2.332   2.756   5.419  0.9404  0.2245 -0.3609
  228MOL0     C30684  -2.482   2.795   5.416  0.2896 -0.0686 -0.3078
  228MOL0     C30685  -2.554   2.749   5.290 -1.4527  1.1895  0.2109
  228MOL0     C30686  -2.676   2.834   5.257 -0.4978 -0.1006  0.0360
  228MOL0     C30687  -2.764   2.776   5.147  0.4330  0.6620 -0.7054
  228MOL0     C30688  -2.833   2.895   5.078 -0.3995 -0.5530 -0.0773
  228MOL0     C30689  -2.931   2.974   5.165  0.1918 -0.1343  0.6280
  228MOL0    Cl30690  -3.014   3.087   5.057  0.1270  0.0224 -0.2416
  228MOL0     C30691  -1.964   2.613   5.502 -0.6799 -0.6047  0.3111
  228MOL0     C30692  -1.858   2.662   5.576  0.0110 -0.4352  0.8614
  228MOL0     O30693  -1.752   2.616   5.877  0.3440 -1.0143 -0.0067
  228MOL0     C30694  -1.582   2.716   6.061  0.1465 -0.0826  0.4344
  228MOL0     C30695  -1.488   2.760   6.152 -0.5761  0.7421 -0.1106
  228MOL0     N30696  -0.715   3.301   6.101 -0.0373 -0.5455 -0.9869
  228MOL0     N30697  -0.626   3.357   6.168 -0.0096 -0.4388  0.1141
  228MOL0     C30698   0.342   3.311   5.625 -0.8020 -0.2321 -0.4019
  228MOL0     C30699   0.486   3.319   5.646 -0.0648 -0.1769 -0.0821
  228MOL0     C30700   0.898   3.161   5.756  0.8158 -0.1765 -0.0797
  228MOL0     C30701   0.971   3.057   5.709 -0.6548  0.2164 -0.1862
  228MOL0     C30702   1.117   3.050   5.740  0.3145 -0.3164  0.0604
  228MOL0     C30703   1.177   3.143   5.824  0.3316 -0.3510  0.7119
  228MOL0     O30704   1.315   3.136   5.819  0.2749 -0.4366  0.2072
  228MOL0     C30705   1.380   3.237   5.903  0.0356 -0.0254  0.3861
  228MOL0     C30706   1.528   3.229   5.897 -0.2448  0.6921 -0.2464
  228MOL0     C30707   1.580   3.261   5.757  0.0977 -0.1877 -0.2247
  228MOL0     C30708   1.732   3.239   5.753  0.4013 -0.4606  0.0174
  228MOL0     C30709   1.787   3.293   5.626 -1.1712  0.0912 -0.0922
  228MOL0     C30710   1.857   3.312   5.529 -0.5737  0.1946  0.4969
  228MOL0     C30711   1.100   3.244   5.879  0.2665  0.4133 -0.1592
  228MOL0     C30712   0.958   3.243   5.849 -0.4073 -0.9274 -0.3528
  228MOL0     H30713   0.502   3.188   5.958 -0.0038  1.4773  1.9973
  228MOL0     H30714   0.261   3.190   5.936 -1.6465  0.1002 -1.0899
  228MOL0     H30715  -0.044   3.188   5.745 -1.4139  3.5980  1.7625
  228MOL0     H30716   0.086   3.094   5.815 -1.6451 -0.6695 -0.2249
  228MOL0     H30717   0.106   3.319   5.971 -0.2117 -0.4488  0.0098
  228MOL0     H30718  -0.035   3.365   5.871  0.1759  0.6254 -0.7038
  228MOL0     H30719  -0.161   3.196   5.957 -2.1435  1.7544  0.7203
  228MOL0     H30720  -0.032   3.141   6.075  0.4246 -2.0056 -2.0007
  228MOL0     H30721  -0.059   3.369   6.185 -1.2045 -2.6153  2.4665
  228MOL0     H30722  -0.184   3.409   6.064  1.0666  2.4345  1.3998
  228MOL0     H30723  -0.327   3.212   6.150 -0.8796  0.6947  0.0255
  228MOL0     H30724  -0.195   3.183   6.267 -2.5262 -1.7761  0.0939
  228MOL0     H30725  -0.223   3.400   6.374 -1.1145  1.3949  1.0246
  228MOL0     H30726  -0.340   3.454   6.277 -0.1160  0.9034  2.0974
  228MOL0     H30727  -0.408   3.205   6.410 -1.0650 -0.0023 -0.9456
  228MOL0     H30728  -0.381   3.338   6.519  1.8207  1.0554 -0.8568
  228MOL0     H30729  -0.541   3.486   6.395 -2.6925 -0.0728  0.9029
  228MOL0     H30730  -0.596   3.372   6.505  1.1657 -0.7523  0.3634
  228MOL0     H30731  -0.750   3.139   6.385  0.5572  0.5245  0.2045
  228MOL0     H30732  -0.891   3.098   6.045  0.5274  1.1707 -0.4723
  228MOL0     H30733  -0.842   3.010   6.188 -0.4820  0.1601  1.5939
  228MOL0     H30734  -1.055   3.209   6.144 -1.0041 -2.6126 -3.7108
  228MOL0     H30735  -1.020   3.131   6.312  2.7007 -3.3119  0.2888
  228MOL0     H30736  -1.068   2.917   6.167  0.6747  0.3911 -1.8384
  228MOL0     H30737  -1.120   3.040   6.050  1.3880 -0.4165  0.0394
  228MOL0     H30738  -1.314   3.103   6.194 -0.4430  0.0429 -0.1161
  228MOL0     H30739  -1.240   3.046   6.336 -2.0791  1.5550 -0.3663
  228MOL0     H30740  -1.380   3.040   5.983  1.7896 -0.4407 -0.4306
  228MOL0     H30741  -1.621   3.040   5.764 -0.2633  0.3069  3.1313
  228MOL0     H30742  -1.446   3.029   5.754 -1.0536  0.4301 -1.4550
  228MOL0     H30743  -1.547   2.893   5.698 -2.6416 -0.2580  1.8476
  228MOL0     H30744  -2.011   2.851   5.811  3.2433  1.7261  0.1601
  228MOL0     H30745  -2.220   2.746   5.688 -2.4023  1.2508 -5.1168
  228MOL0     H30746  -2.392   2.555   5.441 -1.5321 -1.5302  2.7775
  228MOL0     H30747  -2.362   2.627   5.595  1.9508  1.2243  1.0095
  228MOL0     H30748  -2.273   2.833   5.471 -0.9711  0.2182  2.0292
  228MOL0     H30749  -2.290   2.747   5.319  2.6415 -2.3963  0.4665
  228MOL0     H30750  -2.480   2.905   5.420  0.8905 -0.1193  0.9514
  228MOL0     H30751  -2.538   2.771   5.506 -2.3655 -0.0596 -1.8395
  228MOL0     H30752  -2.482   2.760   5.208 -0.2973 -0.7918  0.8772
  228MOL0     H30753  -2.593   2.647   5.300 -1.3267  1.0197 -0.8828
  228MOL0     H30754  -2.639   2.931   5.220 -3.6620  1.0579 -0.3548
  228MOL0     H30755  -2.742   2.854   5.342  0.9203 -0.8496  1.3809
  228MOL0     H30756  -2.715   2.720   5.068 -1.2929  1.0762 -2.1197
  228MOL0     H30757  -2.832   2.703   5.191  1.3774  0.1472 -0.0632
  228MOL0     H30758  -2.891   2.861   4.992 -1.8391  1.9217 -0.2037
  228MOL0     H30759  -2.755   2.964   5.045 -0.8219  0.8251  1.6381
  228MOL0     H30760  -2.869   3.028   5.238  0.7709 -0.0734  0.1077
  228MOL0     H30761  -2.996   2.911   5.225 -1.5994 -0.0523 -1.1251
  228MOL0     H30762  -1.926   2.568   5.411 -0.0614 -1.0166  0.7698
  228MOL0     H30763  -1.757   2.638   5.546 -0.6823  0.0246 -2.1369
  228MOL0     H30764  -1.645   2.634   6.092  0.3837 -1.2335 -1.9484
  228MOL0     H30765  -1.480   2.708   6.247  0.0589 -2.2271 -1.6889
  228MOL0     H30766   0.301   3.345   5.531 -1.2810 -0.1704 -0.1693
  228MOL0     H30767   0.547   3.369   5.571  0.9136  1.3194  1.6210
  228MOL0     H30768   0.927   2.990   5.636 -3.2545  1.1306  0.4405
  228MOL0     H30769   1.172   2.973   5.686  2.3781  0.1121  1.4260
  228MOL0     H30770   1.359   3.339   5.868  1.0265  0.1272  0.2318
  228MOL0     H30771   1.335   3.219   6.001 -0.8526  0.4953  0.0958
  228MOL0     H30772   1.559   3.133   5.939  0.6660  1.4717  0.9156
  228MOL0     H30773   1.572   3.304   5.964  1.4880 -2.4826  2.4681
  228MOL0     H30774   1.554   3.365   5.733  1.7450 -0.0888 -1.7621
  228MOL0     H30775   1.536   3.188   5.689  0.7788 -0.1761 -0.6877
  228MOL0     H30776   1.761   3.134   5.769  3.0635  0.3766  1.1513
  228MOL0     H30777   1.776   3.284   5.842  1.2485  0.2642 -0.7614
  228MOL0     H30778   1.904   3.329   5.435 -0.0361 -0.9250  0.5469
  228MOL0     H30779   1.146   3.326   5.933  1.0113  1.5668 -2.4173
  228MOL0     H30780   0.902   3.327   5.888 -1.1914 -1.4651 -0.2971
  229MOL0     O30781   4.051   0.336   3.008  0.9433 -0.1265 -0.2409
  229MOL0     C30782   4.079   0.248   2.928  0.1830  0.0977  0.0646
  229MOL0     O30783   4.000   0.215   2.815 -0.1368  0.6676 -0.0845
  229MOL0     C30784   3.893   0.300   2.803  0.0327 -0.3562  0.3092
  229MOL0     C30785   3.912   0.421   2.738  0.4591  0.2956 -0.5390
  229MOL0     C30786   3.805   0.513   2.721  0.0530 -0.6045  0.6018
  229MOL0     C30787   3.676   0.479   2.769 -0.1554 -0.1143  0.0693
  229MOL0     O30788   3.568   0.550   2.743  0.5708 -0.2501  0.1226
  229MOL0     C30789   3.492   0.502   2.626  0.1214 -0.3426 -0.0834
  229MOL0     C30790   3.382   0.609   2.593 -0.1632  0.4054  0.6155
  229MOL0     C30791   3.276   0.639   2.708  0.8541 -0.1450  0.2305
  229MOL0     C30792   3.170   0.738   2.670 -0.0716 -0.4057  0.2115
  229MOL0     C30793   3.041   0.739   2.749 -0.0064 -0.6012  0.2792
  229MOL0     C30794   2.947   0.832   2.683 -0.4085 -0.7759  0.4189
  229MOL0     C30795   2.802   0.828   2.736  0.9906 -0.9533  0.4520
  229MOL0     C30796   2.786   0.912   2.860  0.5436 -0.0609 -0.0452
  229MOL0     N30797   2.652   0.911   2.918  0.3299 -0.4854  0.1832
  229MOL0     C30798   2.535   0.921   2.842  0.8029 -0.3102  0.0957
  229MOL0     C30799   2.441   0.864   2.925 -0.0030 -0.3743 -0.1600
  229MOL0     C30800   2.290   0.846   2.907 -0.2691 -0.1358  0.6767
  229MOL0     C30801   2.204   0.962   2.967  0.1257  0.5167 -0.0048
  229MOL0     C30802   2.215   0.938   3.128 -0.4289  0.4269 -0.0073
  229MOL0     C30803   2.115   1.029   3.201  0.6951 -0.0888 -0.6916
  229MOL0     O30804   2.155   1.169   3.178  0.5317  0.0613  0.4459
  229MOL0     C30805   2.050   1.263   3.167 -0.1846  0.2212 -0.1191
  229MOL0     C30806   1.924   1.238   3.218 -0.2339  0.3376  0.3267
  229MOL0     C30807   1.825   1.328   3.186  0.4276 -0.2953 -1.0024
  229MOL0     C30808   1.688   1.286   3.226 -1.1651  0.5708  0.1607
  229MOL0     C30809   1.857   1.445   3.108  0.7131 -0.5157  0.2947
  229MOL0     C30810   1.749   1.539   3.069 -0.0498 -0.3038  0.2288
  229MOL0     O30811   1.685   1.601   3.180  0.2235  0.4542  0.6690
  229MOL0     C30812   1.568   1.673   3.165 -0.2566  0.8184 -1.0959
  229MOL0     C30813   1.449   1.612   3.129  0.7106  0.2858 -0.2507
  229MOL0     C30814   1.326   1.684   3.114 -0.1518  0.4020 -0.6223
  229MOL0     C30815   1.325   1.825   3.148 -0.2957 -0.8362 -0.4922
  229MOL0     O30816   1.223   1.915   3.133  0.2308  0.2028  0.1081
  229MOL0     C30817   1.100   1.852   3.082  0.3135 -0.5828 -0.6331
  229MOL0     C30818   0.986   1.956   3.072  0.1387  0.1418  0.1463
  229MOL0     C30819   0.859   1.866   3.058  0.6091 -0.2856  1.0885
  229MOL0     C30820   0.736   1.958   3.030  0.5656 -0.7910  0.0825
  229MOL0     C30821   0.615   1.865   3.011 -0.8395  0.5628 -0.3484
  229MOL0     C30822   0.497   1.944   2.981 -0.1145  0.1263  0.2627
  229MOL0     C30823   0.370   1.849   2.971 -0.2683  0.5809  0.8965
  229MOL0     C30824   0.247   1.943   2.950 -0.2248  0.5137  0.1245
  229MOL0    Cl30825   0.099   1.850   2.950 -0.2959 -0.1580  0.1371
  229MOL0     C30826   1.441   1.882   3.194 -0.3435  0.2506  0.1901
  229MOL0     C30827   1.561   1.806   3.196 -0.6934 -0.0256 -0.4740
  229MOL0     O30828   1.738   1.570   2.953  0.2509  0.1458  0.2564
  229MOL0     C30829   1.989   1.464   3.058 -0.3188 -0.8821 -0.8932
  229MOL0     C30830   2.085   1.368   3.083  0.2991  0.1335 -0.2492
  229MOL0     N30831   2.505   0.842   3.047  0.7612 -0.4148  0.0005
  229MOL0     N30832   2.633   0.854   3.042  0.1273 -0.6936  0.6603
  229MOL0     C30833   3.654   0.354   2.832 -0.4541  0.1515 -0.1328
  229MOL0     C30834   3.767   0.268   2.856 -0.2329  0.8865  0.1098
  229MOL0     C30835   4.204   0.179   2.951 -1.0986  0.2641 -0.0885
  229MOL0     C30836   4.242   0.067   2.872  1.3512  0.8733  0.3860
  229MOL0     C30837   4.358  -0.012   2.905  0.7856  0.4134  0.3251
  229MOL0     C30838   4.444   0.031   3.015 -0.1193  0.7632  0.1267
  229MOL0     O30839   4.559  -0.041   3.054  0.3085 -0.3097  0.2749
  229MOL0     C30840   4.603  -0.151   2.968 -0.2321 -0.2209  0.5465
  229MOL0     C30841   4.745  -0.178   3.011 -0.8241  0.6803  0.3612
  229MOL0     C30842   4.773  -0.198   3.157  0.1504  0.3428  0.0112
  229MOL0     C30843   4.911  -0.251   3.187  0.7226 -0.7394  0.7303
  229MOL0     C30844   4.921  -0.390   3.130 -1.0938 -0.4609 -0.3450
  229MOL0     C30845   4.928  -0.499   3.077  1.3145  0.2098 -0.7009
  229MOL0     C30846   4.413   0.147   3.088  1.0933 -0.5095  0.0933
  229MOL0     C30847   4.298   0.220   3.053 -0.5159 -0.4038  0.8775
  229MOL0     H30848   4.013   0.446   2.709  1.0153  0.0999  1.1577
  229MOL0     H30849   3.825   0.602   2.663  0.3207 -1.7140 -1.0819
  229MOL0     H30850   3.569   0.484   2.551 -2.3213 -2.2952 -2.3246
  229MOL0     H30851   3.450   0.403   2.649 -0.6750 -0.3929 -1.6666
  229MOL0     H30852   3.444   0.696   2.571 -2.1507  1.0242 -3.4225
  229MOL0     H30853   3.323   0.589   2.503 -1.5583 -1.0450  1.7789
  229MOL0     H30854   3.214   0.557   2.743  0.1417  0.3494  0.1552
  229MOL0     H30855   3.331   0.675   2.796  1.0852 -0.7270  0.3284
  229MOL0     H30856   3.211   0.839   2.674 -1.0112 -0.0199  0.5378
  229MOL0     H30857   3.144   0.721   2.565 -1.6618  0.5840  0.4112
  229MOL0     H30858   2.988   0.643   2.752 -3.0756  0.8610 -1.8704
  229MOL0     H30859   3.071   0.778   2.847  0.1497  2.3342 -0.8647
  229MOL0     H30860   2.988   0.933   2.686 -1.5281 -0.2841 -0.1896
  229MOL0     H30861   2.951   0.815   2.575  0.6581 -0.0402  0.3279
  229MOL0     H30862   2.735   0.869   2.660  0.7951  2.1297  2.0946
  229MOL0     H30863   2.766   0.727   2.756 -0.6847 -0.3977  0.4619
  229MOL0     H30864   2.815   1.016   2.843 -1.6251  1.0093  2.1467
  229MOL0     H30865   2.854   0.885   2.941 -0.3853  0.2963  0.8754
  229MOL0     H30866   2.509   0.958   2.743  0.2597 -1.9520 -0.4109
  229MOL0     H30867   2.272   0.840   2.799 -0.4451  2.1623  0.5115
  229MOL0     H30868   2.245   0.757   2.952  1.0330  0.1138  2.5883
  229MOL0     H30869   2.098   0.946   2.948  0.4106  0.3196 -1.5410
  229MOL0     H30870   2.233   1.067   2.951 -3.6751  1.9541  1.3917
  229MOL0     H30871   2.318   0.958   3.156  1.3390 -0.2965 -5.0335
  229MOL0     H30872   2.183   0.835   3.145  0.1317  0.2729  0.1305
  229MOL0     H30873   2.118   1.006   3.308 -1.7379 -2.8925 -1.0929
  229MOL0     H30874   2.014   0.999   3.171  0.4926 -0.5003  0.3726
  229MOL0     H30875   1.900   1.155   3.284  0.6015 -0.9103 -0.8800
  229MOL0     H30876   1.621   1.373   3.230  0.7745  2.6145 -4.0567
  229MOL0     H30877   1.648   1.231   3.140 -1.1466  1.4598 -0.4421
  229MOL0     H30878   1.687   1.238   3.323 -2.0107  0.8542  0.3064
  229MOL0     H30879   1.460   1.509   3.099  2.5303  0.6685 -1.0646
  229MOL0     H30880   1.237   1.632   3.079 -0.2574 -0.5811  1.0244
  229MOL0     H30881   1.108   1.804   2.984 -2.2177  0.4719 -1.4455
  229MOL0     H30882   1.076   1.774   3.154  1.2554  0.5354  0.9481
  229MOL0     H30883   0.983   2.002   3.171  2.2065 -1.8174  1.2169
  229MOL0     H30884   1.011   2.025   2.991 -0.6171  1.6597  1.1524
  229MOL0     H30885   0.821   1.808   3.143 -3.0318  0.1673 -0.0653
  229MOL0     H30886   0.866   1.801   2.969 -0.8122  1.0976 -0.0945
  229MOL0     H30887   0.721   2.015   3.122 -0.9776 -1.3380  0.2040
  229MOL0     H30888   0.747   2.017   2.939  0.0951 -5.2862 -3.2477
  229MOL0     H30889   0.604   1.806   3.103 -3.0071  2.0311  0.4256
  229MOL0     H30890   0.639   1.797   2.929 -0.7817 -2.1309  1.7432
  229MOL0     H30891   0.487   2.014   3.065  2.4614  0.7438  0.1297
  229MOL0     H30892   0.513   1.999   2.888 -0.6382 -1.7499 -0.9797
  229MOL0     H30893   0.359   1.795   3.065  0.9496 -2.4052 -0.5495
  229MOL0     H30894   0.387   1.779   2.889  0.4706  1.4476  0.2785
  229MOL0     H30895   0.260   1.989   2.852 -2.4267 -0.6303 -0.7983
  229MOL0     H30896   0.232   2.026   3.019 -0.7687  1.7607 -1.4144
  229MOL0     H30897   1.452   1.984   3.228  1.8196  0.9113 -2.2120
  229MOL0     H30898   1.651   1.853   3.233  0.0918 -1.1198 -0.9455
  229MOL0     H30899   2.017   1.540   2.985  1.0023 -1.3313 -0.8764
  229MOL0     H30900   2.185   1.369   3.041 -0.2074  1.9103 -1.5324
  229MOL0     H30901   3.557   0.329   2.875  0.9373  0.9309  3.8659
  229MOL0     H30902   3.758   0.172   2.906 -0.0732  0.7363 -0.1441
  229MOL0     H30903   4.171   0.036   2.796  1.1795  0.1111  0.8422
  229MOL0     H30904   4.377  -0.104   2.851  0.6464 -0.7019  2.0934
  229MOL0     H30905   4.547  -0.245   2.971  0.0075 -0.3836  0.0596
  229MOL0     H30906   4.604  -0.117   2.864 -3.4576 -1.6133 -0.0588
  229MOL0     H30907   4.799  -0.089   2.979 -3.4232  1.1890 -3.1604
  229MOL0     H30908   4.786  -0.267   2.962 -1.8840 -0.6314  1.7470
  229MOL0     H30909   4.697  -0.265   3.196 -1.8047  2.1179 -0.5750
  229MOL0     H30910   4.764  -0.101   3.208  4.3290  0.9364 -0.0074
  229MOL0     H30911   4.928  -0.253   3.295 -0.1623 -1.0401  0.8766
  229MOL0     H30912   4.986  -0.186   3.141 -0.1929 -2.1059 -3.1361
  229MOL0     H30913   4.927  -0.584   3.011 -2.3313  0.0778 -0.6349
  229MOL0     H30914   4.475   0.168   3.174  0.7738 -0.8493  0.4043
  229MOL0     H30915   4.267   0.296   3.123 -2.1837 -2.9057  3.0365
  230MOL0     O30916   2.878   2.899   3.813 -0.4715 -0.1516  0.0926
  230MOL0     C30917   2.899   2.848   3.702  0.0430 -0.6087  0.1439
  230MOL0     O30918   2.808   2.784   3.628 -0.9790  0.2446  0.2247
  230MOL0     C30919   2.678   2.799   3.653 -0.1873 -0.2931 -1.3583
  230MOL0     C30920   2.587   2.708   3.607 -0.4198 -0.3760 -0.4261
  230MOL0     C30921   2.454   2.715   3.629  1.0642  0.1510 -0.2390
  230MOL0     C30922   2.397   2.826   3.685  0.3418  0.1558 -0.7143
  230MOL0     O30923   2.265   2.823   3.718  0.4035 -0.5328 -0.4470
  230MOL0     C30924   2.212   2.913   3.812  0.5176 -0.1289 -0.1271
  230MOL0     C30925   2.187   3.053   3.747 -0.1293 -0.6748  0.4332
  230MOL0     C30926   2.082   3.042   3.632 -0.1713 -0.3730  0.6882
  230MOL0     C30927   2.042   3.187   3.587  0.8210  0.7420 -1.0592
  230MOL0     C30928   1.922   3.180   3.497  0.5104 -0.5108  1.0948
  230MOL0     C30929   1.919   3.318   3.411 -0.0433  0.7195 -0.0214
  230MOL0     C30930   1.789   3.317   3.328 -0.0655  0.3388  0.5814
  230MOL0     C30931   1.782   3.429   3.215 -0.1415  0.6843  0.7894
  230MOL0     N30932   1.653   3.430   3.141 -0.6267  0.4341 -0.3214
  230MOL0     C30933   1.589   3.319   3.086  0.1264 -0.2263  0.0525
  230MOL0     C30934   1.464   3.369   3.054  0.1164  1.1382  0.6086
  230MOL0     C30935   1.350   3.277   3.001 -0.5491 -0.3171  0.0750
  230MOL0     C30936   1.212   3.348   2.972  0.1891  0.2698 -0.5942
  230MOL0     C30937   1.110   3.253   2.908  0.0019 -0.2022 -0.1890
  230MOL0     C30938   0.993   3.330   2.863 -0.0148  0.2979  0.3543
  230MOL0     O30939   0.909   3.238   2.801 -0.9072  0.0525 -0.1529
  230MOL0     C30940   0.771   3.245   2.794  1.4117 -0.4267  0.8299
  230MOL0     C30941   0.707   3.154   2.700 -0.3992  0.1465  0.0501
  230MOL0     C30942   0.573   3.149   2.677 -0.3837  0.0592  0.5380
  230MOL0     C30943   0.505   3.052   2.589 -0.6843  0.5505  0.2473
  230MOL0     C30944   0.489   3.241   2.744  0.1356  0.7039 -0.7663
  230MOL0     C30945   0.345   3.244   2.730  0.4889  0.2205 -0.4010
  230MOL0     O30946   0.293   3.346   2.657 -0.3796  0.4726  0.0145
  230MOL0     C30947   0.169   3.330   2.608 -0.2095  0.0386  0.7182
  230MOL0     C30948   0.043   3.358   2.668 -0.1378 -0.3080 -0.0265
  230MOL0     C30949  -0.075   3.332   2.595 -0.1758  0.5222  0.0123
  230MOL0     C30950  -0.075   3.274   2.465 -0.5458 -0.9392  0.7040
  230MOL0     O30951  -0.204   3.260   2.412  0.3598  0.2806  0.3967
  230MOL0     C30952  -0.221   3.168   2.301  0.0447 -0.3460  0.3925
  230MOL0     C30953  -0.365   3.173   2.249  0.3704  0.8347  1.1154
  230MOL0     C30954  -0.386   3.090   2.125  0.0584  0.1995  0.5193
  230MOL0     C30955  -0.535   3.094   2.083  0.2695 -0.5658  0.5203
  230MOL0     C30956  -0.550   3.019   1.944 -0.7363 -0.4249  0.5360
  230MOL0     C30957  -0.696   3.024   1.886  1.0823 -1.0476  0.3665
  230MOL0     C30958  -0.693   2.982   1.737 -0.2400 -0.2987 -0.1964
  230MOL0     C30959  -0.829   2.983   1.669 -0.6893 -0.4285 -0.1487
  230MOL0    Cl30960  -0.924   2.871   1.757  0.6626  0.1826  0.3480
  230MOL0     C30961   0.046   3.250   2.404 -0.2367  0.6343 -0.3382
  230MOL0     C30962   0.158   3.281   2.478  0.0797 -0.2351  1.1699
  230MOL0     O30963   0.284   3.152   2.779  0.3458 -0.4933  0.0057
  230MOL0     C30964   0.548   3.327   2.846 -0.5225 -0.2191  0.5466
  230MOL0     C30965   0.687   3.327   2.864 -0.0613  0.4240  0.5477
  230MOL0     N30966   1.452   3.503   3.080  1.2829  0.1920  0.2584
  230MOL0     N30967   1.560   3.534   3.135 -0.3909  0.4526  0.1233
  230MOL0     C30968   2.485   2.914   3.738  0.4137  0.1451 -0.1482
  230MOL0     C30969   2.618   2.910   3.719  0.3526  0.4670  0.8263
  230MOL0     C30970   3.041   2.851   3.657  0.3581 -0.5932  0.3120
  230MOL0     C30971   3.147   2.928   3.722 -0.2350 -0.7133  0.0814
  230MOL0     C30972   3.280   2.917   3.682  0.3438  0.4171 -1.1470
  230MOL0     C30973   3.315   2.840   3.566 -0.3773  0.0953  0.2849
  230MOL0     O30974   3.453   2.831   3.543  0.3206  0.2845 -0.3642
  230MOL0     C30975   3.497   2.778   3.422 -0.1316  0.3795 -0.0350
  230MOL0     C30976   3.646   2.767   3.423  0.1260  0.6404  0.0582
  230MOL0     C30977   3.720   2.899   3.438 -0.0628 -0.2161  0.6942
  230MOL0     C30978   3.879   2.892   3.447 -0.5209  0.4827  0.0128
  230MOL0     C30979   3.948   3.022   3.464 -0.4427  0.2395  0.0899
  230MOL0     C30980   4.024   3.103   3.509  0.0965  1.0410 -0.0658
  230MOL0     C30981   3.214   2.773   3.492 -0.1616  0.7888 -0.3822
  230MOL0     C30982   3.080   2.775   3.541  0.2560 -0.5746 -0.9111
  230MOL0     H30983   2.632   2.629   3.548  1.8427 -0.5546  1.4028
  230MOL0     H30984   2.388   2.632   3.605 -0.1020  0.9217  0.2652
  230MOL0     H30985   2.111   2.884   3.843  0.4442 -0.2572 -0.4887
  230MOL0     H30986   2.277   2.921   3.900 -0.5443 -0.6669  0.7388
  230MOL0     H30987   2.149   3.121   3.824  2.8592  1.4757  0.2075
  230MOL0     H30988   2.279   3.101   3.711 -0.0851 -0.0188  1.3791
  230MOL0     H30989   2.123   2.994   3.542  1.0502  2.9340 -0.6952
  230MOL0     H30990   1.991   2.994   3.668  0.0692 -1.4956 -0.1297
  230MOL0     H30991   2.011   3.251   3.670  0.8410  1.2776 -1.4558
  230MOL0     H30992   2.135   3.226   3.543  4.1280 -2.3405  2.4389
  230MOL0     H30993   1.932   3.094   3.431 -3.4950  0.0414 -0.4852
  230MOL0     H30994   1.831   3.173   3.557 -1.2561 -2.4302 -1.6336
  230MOL0     H30995   1.922   3.406   3.477 -1.5372 -2.6256  5.1069
  230MOL0     H30996   2.007   3.326   3.347 -0.5928  0.9328 -0.7709
  230MOL0     H30997   1.785   3.226   3.267  0.9914  0.3950  0.4160
  230MOL0     H30998   1.705   3.321   3.398  3.7619 -2.4020  6.1538
  230MOL0     H30999   1.857   3.418   3.136 -1.2701 -0.1332 -0.1860
  230MOL0     H31000   1.810   3.525   3.259 -1.2781  0.6245  1.6909
  230MOL0     H31001   1.630   3.219   3.074 -1.3599 -0.8810  0.2023
  230MOL0     H31002   1.382   3.229   2.908 -0.4682  1.1564 -0.6904
  230MOL0     H31003   1.336   3.209   3.087 -0.0612 -2.3396 -1.3673
  230MOL0     H31004   1.227   3.443   2.919  0.5721  0.2830 -0.4662
  230MOL0     H31005   1.169   3.382   3.067  0.3738  0.8662 -0.7159
  230MOL0     H31006   1.077   3.180   2.981  0.6155 -0.8872 -0.5869
  230MOL0     H31007   1.154   3.196   2.825 -0.0367 -1.2252  0.4799
  230MOL0     H31008   1.025   3.403   2.789 -1.7517 -1.1427 -1.9438
  230MOL0     H31009   0.942   3.373   2.950 -0.2842  2.0623 -0.6399
  230MOL0     H31010   0.774   3.079   2.657 -1.6401 -0.5140 -0.7805
  230MOL0     H31011   0.583   3.000   2.533 -0.9307  0.5652 -0.1137
  230MOL0     H31012   0.452   2.987   2.659 -0.0067 -0.2268  0.0583
  230MOL0     H31013   0.439   3.101   2.516  0.4609 -1.5851 -2.3980
  230MOL0     H31014   0.033   3.396   2.770 -1.7362  0.9984 -0.6245
  230MOL0     H31015  -0.172   3.353   2.639 -0.7685 -0.5261 -0.7610
  230MOL0     H31016  -0.144   3.181   2.224 -0.8826  0.5231 -0.4109
  230MOL0     H31017  -0.206   3.064   2.332  2.7649 -0.1184  0.1040
  230MOL0     H31018  -0.427   3.138   2.332  1.1467  0.7403  1.6648
  230MOL0     H31019  -0.400   3.274   2.223  1.0416  1.1506  1.4071
  230MOL0     H31020  -0.345   2.990   2.143 -3.3724 -2.1272 -2.9171
  230MOL0     H31021  -0.345   3.132   2.033 -1.0853  1.2083  0.4399
  230MOL0     H31022  -0.600   3.051   2.160  0.0909 -1.5282 -0.1402
  230MOL0     H31023  -0.569   3.195   2.060 -0.8881 -1.1842 -0.6591
  230MOL0     H31024  -0.532   2.911   1.957 -0.6310 -0.2551  1.9151
  230MOL0     H31025  -0.471   3.052   1.876  0.1236 -1.7309  0.8573
  230MOL0     H31026  -0.767   2.966   1.947 -0.5073  1.2904  0.8805
  230MOL0     H31027  -0.740   3.124   1.891  1.4026 -0.8997  0.2457
  230MOL0     H31028  -0.658   2.878   1.730 -1.5324 -0.6413 -4.2449
  230MOL0     H31029  -0.624   3.045   1.681  0.0181 -0.5711 -0.1854
  230MOL0     H31030  -0.831   2.934   1.571 -1.8417 -0.4026 -0.1592
  230MOL0     H31031  -0.869   3.085   1.662  1.8336  0.5854 -1.0881
  230MOL0     H31032   0.047   3.224   2.298  0.7548  1.8139 -0.6474
  230MOL0     H31033   0.250   3.273   2.420  0.6888  3.9257  1.2484
  230MOL0     H31034   0.493   3.387   2.917 -0.7784 -2.0596  1.9699
  230MOL0     H31035   0.734   3.398   2.931 -0.3414  1.0288  0.1078
  230MOL0     H31036   2.462   3.001   3.798  1.0888 -0.8021  1.5539
  230MOL0     H31037   2.673   2.994   3.761 -2.5587  2.2983  1.2165
  230MOL0     H31038   3.125   2.997   3.802  1.1409 -2.0859  1.7298
  230MOL0     H31039   3.363   2.967   3.732  0.9760 -1.6633 -0.0209
  230MOL0     H31040   3.447   2.681   3.416  2.4135 -1.1333  1.4763
  230MOL0     H31041   3.468   2.842   3.338  1.5811  1.2209 -0.0114
  230MOL0     H31042   3.669   2.706   3.335 -2.6256  0.0011 -0.2977
  230MOL0     H31043   3.680   2.704   3.506 -0.2039 -0.8453 -0.9003
  230MOL0     H31044   3.681   2.944   3.529 -0.1631 -0.2602  0.6725
  230MOL0     H31045   3.690   2.963   3.355 -1.1775 -1.0838  0.3981
  230MOL0     H31046   3.918   2.841   3.358  1.9250  1.0319  0.6980
  230MOL0     H31047   3.903   2.831   3.534  1.1536 -1.0161 -1.4137
  230MOL0     H31048   4.098   3.173   3.543  0.5898 -0.2159  1.6404
  230MOL0     H31049   3.234   2.715   3.402  2.0233 -0.2786  0.6913
  230MOL0     H31050   3.010   2.703   3.500 -0.9867 -0.5541  1.0115
  231MOL0     O31051   2.928   0.781   4.220  0.3525  0.8357  0.6364
  231MOL0     C31052   3.049   0.764   4.241 -0.2335 -0.4303 -0.1558
  231MOL0     O31053   3.098   0.656   4.292 -0.2424 -0.9273  0.5609
  231MOL0     C31054   3.009   0.558   4.326 -0.5970  0.7838 -0.9690
  231MOL0     C31055   2.925   0.585   4.432  0.2248  0.1139  0.0484
  231MOL0     C31056   2.824   0.489   4.462  0.2471  0.3770  0.6657
  231MOL0     C31057   2.817   0.365   4.398 -0.6744  0.2010  0.6067
  231MOL0     O31058   2.729   0.270   4.439 -0.2811 -0.0349  0.3740
  231MOL0     C31059   2.625   0.247   4.343  1.2045  1.2090  0.6444
  231MOL0     C31060   2.511   0.183   4.424  1.4625  0.1782 -0.2981
  231MOL0     C31061   2.403   0.139   4.327  0.4138  0.8975 -0.1486
  231MOL0     C31062   2.288   0.071   4.403 -0.5852  0.0788 -0.1083
  231MOL0     C31063   2.177   0.052   4.296 -0.7852  0.4100 -0.2361
  231MOL0     C31064   2.062  -0.032   4.361  0.3854 -0.6280  0.5282
  231MOL0     C31065   1.945  -0.058   4.268 -0.2272  0.0567  0.0115
  231MOL0     C31066   1.849  -0.156   4.333 -0.3875 -0.1097  0.1244
  231MOL0     N31067   1.764  -0.109   4.447 -0.2068 -0.7959  0.5289
  231MOL0     C31068   1.645  -0.043   4.426  0.8326 -1.4853  0.0818
  231MOL0     C31069   1.616  -0.011   4.556 -0.0677 -0.2855 -0.0851
  231MOL0     C31070   1.519   0.096   4.591 -0.1979 -0.0114  0.3684
  231MOL0     C31071   1.408   0.110   4.487  0.4186  0.2111 -0.3351
  231MOL0     C31072   1.327   0.229   4.527  0.8253 -0.0457  0.3365
  231MOL0     C31073   1.194   0.255   4.460 -0.1007 -1.1874  0.9711
  231MOL0     O31074   1.097   0.169   4.516  0.2453  0.0541  0.5322
  231MOL0     C31075   0.971   0.183   4.470  0.5774 -0.1139 -0.8161
  231MOL0     C31076   0.871   0.140   4.562 -1.4199  0.0545  0.0805
  231MOL0     C31077   0.737   0.139   4.535  0.4227 -0.1544 -0.0138
  231MOL0     C31078   0.640   0.119   4.650 -0.4329  0.3006 -0.2428
  231MOL0     C31079   0.695   0.183   4.411 -0.3365  0.9001  0.5207
  231MOL0     C31080   0.554   0.201   4.372 -0.0871  0.0221 -0.1738
  231MOL0     O31081   0.505   0.326   4.366 -0.0429  0.0869  0.1799
  231MOL0     C31082   0.370   0.348   4.321 -0.2885 -0.9113 -0.3214
  231MOL0     C31083   0.313   0.468   4.366  0.2074 -0.8448 -0.3601
  231MOL0     C31084   0.188   0.511   4.322 -0.2618 -1.1603  0.4602
  231MOL0     C31085   0.120   0.434   4.222 -0.1595 -0.8849  0.6034
  231MOL0     O31086   0.006   0.490   4.172  0.6239 -0.0537 -0.5205
  231MOL0     C31087  -0.032   0.464   4.040 -0.9628 -0.4169  0.3742
  231MOL0     C31088  -0.155   0.546   4.011 -0.3337  0.0641 -0.1190
  231MOL0     C31089  -0.230   0.524   3.881 -0.1432 -0.1387 -0.2582
  231MOL0     C31090  -0.371   0.577   3.870  0.6681  0.6080 -0.3126
  231MOL0     C31091  -0.424   0.527   3.728 -0.7897 -0.4994 -0.3196
  231MOL0     C31092  -0.537   0.606   3.696  0.1341  0.0740  0.3974
  231MOL0     C31093  -0.601   0.547   3.570 -0.1086 -0.2129 -0.4825
  231MOL0     C31094  -0.748   0.588   3.553  0.0418 -0.5238  1.0624
  231MOL0    Cl31095  -0.750   0.760   3.517  0.1404  0.0653 -0.2683
  231MOL0     C31096   0.178   0.312   4.181  1.1263  0.2763  0.1436
  231MOL0     C31097   0.302   0.267   4.229  0.8059 -0.5052  0.2456
  231MOL0     O31098   0.490   0.096   4.363  0.1619  0.3187  0.5712
  231MOL0     C31099   0.792   0.233   4.328  0.8207 -0.1599  0.8309
  231MOL0     C31100   0.924   0.247   4.352  0.1683 -0.1770 -0.2879
  231MOL0     N31101   1.708  -0.056   4.645 -0.4915  0.2698  0.2821
  231MOL0     N31102   1.802  -0.108   4.578  0.1049  0.5785  0.3471
  231MOL0     C31103   2.912   0.340   4.292 -0.1304 -0.7226  0.1488
  231MOL0     C31104   3.012   0.431   4.261 -0.1809  0.6294  0.9357
  231MOL0     C31105   3.151   0.859   4.202 -0.4489  0.0084 -0.6315
  231MOL0     C31106   3.109   0.952   4.106 -0.0603  0.0495  0.4619
  231MOL0     C31107   3.196   1.049   4.062 -0.1042 -0.4904  0.1208
  231MOL0     C31108   3.324   1.060   4.117 -0.1062 -0.1576  0.3007
  231MOL0     O31109   3.400   1.140   4.039 -0.6100  0.0582  1.4048
  231MOL0     C31110   3.543   1.106   4.018  0.6272  0.5842 -0.0412
  231MOL0     C31111   3.539   0.988   3.927 -0.9106 -0.1378 -0.3639
  231MOL0     C31112   3.676   0.971   3.857  0.5956  0.6229  0.6424
  231MOL0     C31113   3.648   0.862   3.748 -0.0781 -0.3503  0.1582
  231MOL0     C31114   3.755   0.843   3.648  0.7107  1.1576 -0.2240
  231MOL0     C31115   3.851   0.826   3.578  0.6301  0.2963  0.8263
  231MOL0     C31116   3.368   0.966   4.219  0.0356 -0.3828 -0.2442
  231MOL0     C31117   3.278   0.875   4.268  0.1778  0.3405 -0.2206
  231MOL0     H31118   2.927   0.683   4.479 -1.8341 -0.4208  1.4099
  231MOL0     H31119   2.767   0.502   4.553 -1.1796  1.7664 -0.3781
  231MOL0     H31120   2.581   0.340   4.306 -1.8266 -0.4508 -0.2152
  231MOL0     H31121   2.654   0.182   4.261  1.3463 -0.1956  1.7663
  231MOL0     H31122   2.551   0.105   4.489  0.5592  1.5302  2.0180
  231MOL0     H31123   2.477   0.264   4.490 -0.3969  0.7788 -1.9114
  231MOL0     H31124   2.363   0.226   4.275 -2.0729  1.1471  2.0119
  231MOL0     H31125   2.434   0.064   4.253 -1.5742 -2.6522  2.3003
  231MOL0     H31126   2.321  -0.022   4.451 -0.2792  1.7156  3.0945
  231MOL0     H31127   2.253   0.135   4.484 -0.9061 -2.0388  1.5257
  231MOL0     H31128   2.140   0.153   4.276 -0.3980  0.5243 -0.3870
  231MOL0     H31129   2.214   0.001   4.206 -2.0323 -0.1983 -0.4250
  231MOL0     H31130   2.101  -0.132   4.381 -0.9922 -1.8960 -2.4871
  231MOL0     H31131   2.027   0.007   4.457 -0.8237  0.2063 -0.2305
  231MOL0     H31132   1.896   0.029   4.225  2.7959  1.9118  0.0230
  231MOL0     H31133   1.986  -0.115   4.184 -0.2097 -0.0149  0.0685
  231MOL0     H31134   1.902  -0.244   4.371  1.1254  1.1863  1.1214
  231MOL0     H31135   1.786  -0.192   4.252 -0.2396  0.0920 -0.0818
  231MOL0     H31136   1.596  -0.002   4.338  0.8520  1.0568  1.1699
  231MOL0     H31137   1.481   0.065   4.689 -2.0581  3.8596  1.0364
  231MOL0     H31138   1.572   0.190   4.608 -1.4531  0.5177  1.5287
  231MOL0     H31139   1.349   0.018   4.479 -0.6635  0.8806 -0.2061
  231MOL0     H31140   1.457   0.136   4.393  0.2308 -1.5437 -0.9511
  231MOL0     H31141   1.391   0.316   4.510  0.7325 -0.1721 -0.6863
  231MOL0     H31142   1.302   0.218   4.633  0.0730  0.3787  0.2140
  231MOL0     H31143   1.201   0.240   4.352 -0.9935 -0.1745  0.7528
  231MOL0     H31144   1.172   0.362   4.468 -0.3373 -0.7421 -3.4323
  231MOL0     H31145   0.912   0.094   4.651 -1.9831  0.1108  0.3743
  231MOL0     H31146   0.637   0.012   4.672 -2.4254  0.6127  1.2769
  231MOL0     H31147   0.678   0.178   4.735 -2.8432 -1.0502  1.9032
  231MOL0     H31148   0.536   0.146   4.632 -0.6205 -1.5186 -2.2297
  231MOL0     H31149   0.371   0.530   4.434 -1.1267  1.6720 -1.3931
  231MOL0     H31150   0.154   0.603   4.369  0.6254  1.2631 -3.1702
  231MOL0     H31151   0.044   0.485   3.965 -1.9528 -0.1168 -0.5670
  231MOL0     H31152  -0.060   0.358   4.033  0.9735 -1.3650  3.9848
  231MOL0     H31153  -0.225   0.522   4.091 -1.5644  2.7131 -0.2866
  231MOL0     H31154  -0.130   0.653   4.014 -1.9581  0.5388 -1.9518
  231MOL0     H31155  -0.223   0.416   3.865 -2.2091 -0.4667  0.6380
  231MOL0     H31156  -0.174   0.577   3.803 -0.2180  1.9586  1.0620
  231MOL0     H31157  -0.436   0.535   3.948  1.8906 -2.4181 -0.7567
  231MOL0     H31158  -0.362   0.686   3.877  1.2029  0.7237 -2.3522
  231MOL0     H31159  -0.446   0.422   3.749  2.1347 -0.5191  3.6441
  231MOL0     H31160  -0.350   0.543   3.648  1.9748  0.4870  2.2433
  231MOL0     H31161  -0.612   0.611   3.776 -2.0326  2.0881 -1.6073
  231MOL0     H31162  -0.498   0.703   3.662 -2.8462  1.0434 -0.6399
  231MOL0     H31163  -0.599   0.438   3.579  2.5088 -0.1289  1.0323
  231MOL0     H31164  -0.545   0.584   3.484  1.7423  2.8451  1.8451
  231MOL0     H31165  -0.789   0.553   3.649  0.2775 -2.7326  0.4052
  231MOL0     H31166  -0.786   0.527   3.470  0.6711  1.9526 -1.1729
  231MOL0     H31167   0.129   0.247   4.109  2.4670 -0.1599 -0.4286
  231MOL0     H31168   0.337   0.173   4.187 -1.8500 -0.8915 -1.3950
  231MOL0     H31169   0.762   0.267   4.229  1.3086 -1.7388  0.1101
  231MOL0     H31170   0.989   0.299   4.283 -3.2899  0.2768 -3.5260
  231MOL0     H31171   2.905   0.246   4.239 -1.8159 -0.4014 -0.2810
  231MOL0     H31172   3.086   0.398   4.188 -2.0595  0.6738 -1.0807
  231MOL0     H31173   3.018   0.925   4.053  0.1543 -1.1532  0.6863
  231MOL0     H31174   3.153   1.111   3.983 -2.8536  0.1647  2.0036
  231MOL0     H31175   3.608   1.183   3.975  0.8942  0.7563  0.6536
  231MOL0     H31176   3.588   1.073   4.112 -4.3578 -0.7049  2.2142
  231MOL0     H31177   3.463   1.016   3.854 -0.1866  0.1829 -1.0009
  231MOL0     H31178   3.508   0.902   3.988  2.6829 -0.5547  1.1328
  231MOL0     H31179   3.753   0.934   3.924  3.1501  1.7022 -1.5368
  231MOL0     H31180   3.706   1.066   3.812  1.1969 -0.0937 -0.4992
  231MOL0     H31181   3.556   0.894   3.697  0.0769  0.3115  0.2906
  231MOL0     H31182   3.625   0.762   3.785  1.3505 -0.2557  1.3455
  231MOL0     H31183   3.938   0.804   3.519 -0.3303 -0.7019 -0.2752
  231MOL0     H31184   3.470   0.955   4.255  0.0448  0.4052 -0.0161
  231MOL0     H31185   3.308   0.808   4.347  0.2986  0.0438 -0.5179
  232MOL0     O31186   9.779   2.785   7.534  0.3384 -0.0340 -0.0611
  232MOL0     C31187   9.790   2.896   7.589 -0.0633 -0.9892 -0.6587
  232MOL0     O31188   9.682   2.980   7.623 -0.1141  0.2209 -0.7678
  232MOL0     C31189   9.557   2.942   7.602 -0.0069 -0.6035 -0.2863
  232MOL0     C31190   9.513   2.804   7.608 -0.5370 -0.8926 -0.0194
  232MOL0     C31191   9.375   2.764   7.604 -0.4544  0.3191  0.7109
  232MOL0     C31192   9.280   2.863   7.586 -0.2016 -0.5631  0.0755
  232MOL0     O31193   9.144   2.846   7.581  0.3799  0.0315 -0.5115
  232MOL0     C31194   9.102   2.707   7.562 -0.4363  0.7924  0.3184
  232MOL0     C31195   8.948   2.701   7.557 -1.3072 -0.3782 -0.4697
  232MOL0     C31196   8.879   2.728   7.693 -0.2878 -0.6992  0.1302
  232MOL0     C31197   8.725   2.699   7.683 -0.5721 -1.0547  1.0286
  232MOL0     C31198   8.651   2.737   7.810 -0.2612 -0.1856 -0.8984
  232MOL0     C31199   8.691   2.666   7.934  0.6865 -0.1427  0.1073
  232MOL0     C31200   8.653   2.514   7.932  0.4295  0.7512  0.4376
  232MOL0     C31201   8.508   2.487   7.973 -0.1168 -0.4515 -0.0522
  232MOL0     N31202   8.411   2.480   7.866 -0.0024 -0.0937 -0.4632
  232MOL0     C31203   8.403   2.397   7.753  0.0462 -0.0250  0.7065
  232MOL0     C31204   8.301   2.445   7.677  0.8664 -0.2191 -1.1689
  232MOL0     C31205   8.221   2.377   7.567 -0.0018  0.2120  0.1269
  232MOL0     C31206   8.088   2.448   7.537 -0.1178  0.1353  0.1837
  232MOL0     C31207   7.970   2.427   7.637  0.1603 -0.3121  0.3769
  232MOL0     C31208   7.849   2.523   7.619  1.0017 -0.0413 -0.2400
  232MOL0     O31209   7.783   2.520   7.492 -0.2405  0.5347 -0.5208
  232MOL0     C31210   7.647   2.498   7.488 -0.7317 -0.4150  0.2724
  232MOL0     C31211   7.594   2.374   7.510  1.2327  0.8410  0.0648
  232MOL0     C31212   7.451   2.344   7.509  0.2036 -0.4846 -0.2297
  232MOL0     C31213   7.387   2.207   7.523  0.8221  0.3404  0.2886
  232MOL0     C31214   7.355   2.452   7.481 -0.6797  0.5574 -0.3930
  232MOL0     C31215   7.205   2.443   7.469 -0.1994  0.1952 -0.1771
  232MOL0     O31216   7.124   2.561   7.471 -0.5302 -0.0456  0.4723
  232MOL0     C31217   6.993   2.549   7.436 -0.2783 -0.9151 -0.1653
  232MOL0     C31218   6.902   2.576   7.536  0.4948  0.7724 -0.4328
  232MOL0     C31219   6.767   2.572   7.501  0.5120 -0.9422  0.0077
  232MOL0     C31220   6.717   2.544   7.372  1.1142  0.4789 -0.4279
  232MOL0     O31221   6.584   2.538   7.354 -0.6177  0.0914 -0.3156
  232MOL0     C31222   6.533   2.573   7.229  0.2694  0.1907  0.0684
  232MOL0     C31223   6.383   2.570   7.236 -0.1412  1.3185 -0.5553
  232MOL0     C31224   6.325   2.424   7.258  0.4957 -0.6758 -0.0710
  232MOL0     C31225   6.175   2.431   7.303  0.1036 -0.3158  0.6473
  232MOL0     C31226   6.122   2.305   7.359  0.4947 -0.1873  0.0705
  232MOL0     C31227   5.978   2.285   7.381 -0.6092 -1.1381 -0.3243
  232MOL0     C31228   5.957   2.143   7.422 -0.4132 -0.4521  0.1308
  232MOL0     C31229   5.810   2.110   7.444 -0.7552 -0.0376  0.8440
  232MOL0    Cl31230   5.777   2.119   7.632 -0.0649 -0.4167 -0.3787
  232MOL0     C31231   6.814   2.529   7.273  0.5667 -0.0988 -0.3789
  232MOL0     C31232   6.951   2.543   7.305  0.5699  0.7512  0.4172
  232MOL0     O31233   7.160   2.333   7.446  0.7451 -0.3554 -0.2993
  232MOL0     C31234   7.417   2.580   7.479 -0.0493  0.6211  0.0938
  232MOL0     C31235   7.553   2.607   7.484 -0.1183 -0.9646  0.0718
  232MOL0     N31236   8.251   2.549   7.752  0.0989 -0.8509 -0.7590
  232MOL0     N31237   8.320   2.577   7.853  0.7719  0.3641  1.0763
  232MOL0     C31238   9.322   3.000   7.572  0.5589 -0.0964 -0.0494
  232MOL0     C31239   9.457   3.036   7.577  0.4391 -0.0597  0.1949
  232MOL0     C31240   9.919   2.960   7.610 -0.8772  0.2733  0.2043
  232MOL0     C31241   9.927   3.101   7.643 -0.0720  0.8896 -0.0180
  232MOL0     C31242  10.057   3.151   7.665  0.3948  0.3615  0.2832
  232MOL0     C31243  10.173   3.071   7.638 -0.1658  0.3049 -0.0494
  232MOL0     O31244  10.293   3.132   7.663  0.1456 -0.0096 -0.4985
  232MOL0     C31245  10.408   3.062   7.690 -0.4131 -0.2603  0.4130
  232MOL0     C31246  10.418   3.014   7.837 -0.1081 -0.4426  0.2603
  232MOL0     C31247  10.541   2.924   7.858  0.0264  1.4743  0.4606
  232MOL0     C31248  10.581   2.889   8.006  1.1899  1.0848  0.8821
  232MOL0     C31249  10.717   2.837   8.005 -0.1557  0.3902  0.3381
  232MOL0     C31250  10.837   2.818   7.984  0.3145 -0.7580 -0.7757
  232MOL0     C31251  10.156   2.939   7.595  0.2231  0.3558  0.0495
  232MOL0     C31252  10.030   2.882   7.579  0.9422 -0.4268  0.6188
  232MOL0     H31253   9.581   2.724   7.633 -0.2995  0.7516  6.2583
  232MOL0     H31254   9.340   2.666   7.633 -1.8476  1.0188  1.5313
  232MOL0     H31255   9.137   2.668   7.466  0.8271  0.9978  0.6829
  232MOL0     H31256   9.152   2.655   7.644  0.4585  0.2437 -0.5531
  232MOL0     H31257   8.913   2.779   7.488 -1.0907  0.3526  0.2295
  232MOL0     H31258   8.928   2.603   7.513  3.9693 -0.1535 -4.3973
  232MOL0     H31259   8.910   2.649   7.762 -0.6263 -0.8392  0.1272
  232MOL0     H31260   8.905   2.827   7.730  0.6557 -0.6898 -0.5255
  232MOL0     H31261   8.682   2.750   7.597 -0.0769 -1.4039  0.5693
  232MOL0     H31262   8.716   2.591   7.668  0.8880 -1.1952  0.9920
  232MOL0     H31263   8.669   2.845   7.821  0.1966 -0.4008  0.7360
  232MOL0     H31264   8.545   2.717   7.792 -0.6032  0.9765 -0.3013
  232MOL0     H31265   8.799   2.672   7.944  1.2246 -2.1622 -3.1335
  232MOL0     H31266   8.650   2.713   8.024  1.1127  2.5820 -1.0547
  232MOL0     H31267   8.671   2.460   7.839  0.6889  1.1358  0.2602
  232MOL0     H31268   8.720   2.465   8.003 -1.5037 -0.5439  1.4402
  232MOL0     H31269   8.477   2.566   8.042  1.3713  0.2839 -0.1905
  232MOL0     H31270   8.511   2.391   8.026  3.0114 -0.6216 -0.3817
  232MOL0     H31271   8.458   2.306   7.731 -2.0539 -1.3228  0.5212
  232MOL0     H31272   8.291   2.392   7.484 -0.2510  1.5725  0.1370
  232MOL0     H31273   8.217   2.270   7.589  1.5668  0.3650  1.3718
  232MOL0     H31274   8.059   2.412   7.438  1.9137 -0.3034 -0.3010
  232MOL0     H31275   8.110   2.555   7.527 -0.1152  0.2229  1.0528
  232MOL0     H31276   7.991   2.432   7.745 -0.7722 -0.8399  0.5942
  232MOL0     H31277   7.933   2.325   7.621  1.5561 -0.5389 -1.7164
  232MOL0     H31278   7.880   2.628   7.618  2.4664 -0.4431 -1.3338
  232MOL0     H31279   7.774   2.507   7.696  1.6339  0.3155  0.4647
  232MOL0     H31280   7.665   2.293   7.524 -1.3936 -1.6769 -0.1268
  232MOL0     H31281   7.448   2.121   7.551 -2.3651 -2.5866 -1.1209
  232MOL0     H31282   7.314   2.201   7.604 -0.9572  1.6464 -1.1374
  232MOL0     H31283   7.339   2.180   7.429  0.7582 -3.2502  1.2199
  232MOL0     H31284   6.941   2.576   7.638 -2.6822  3.7408  0.9531
  232MOL0     H31285   6.697   2.582   7.583  0.5827  2.1027 -0.1904
  232MOL0     H31286   6.563   2.672   7.195  0.5715 -0.8124 -2.8869
  232MOL0     H31287   6.575   2.501   7.158  0.2605 -0.7707  1.0100
  232MOL0     H31288   6.360   2.642   7.314  2.7966  1.4836  0.2691
  232MOL0     H31289   6.341   2.605   7.141  0.9886 -3.0354 -2.9663
  232MOL0     H31290   6.376   2.359   7.330 -2.1619 -1.0650  1.5903
  232MOL0     H31291   6.331   2.378   7.159 -2.6282 -0.2259 -0.5882
  232MOL0     H31292   6.158   2.509   7.378 -0.0108 -2.8398  3.4406
  232MOL0     H31293   6.114   2.461   7.217  0.7801  1.1400  0.6464
  232MOL0     H31294   6.173   2.283   7.454  0.9102 -1.0264 -0.3301
  232MOL0     H31295   6.149   2.232   7.282  0.4451 -0.9385  0.7383
  232MOL0     H31296   5.954   2.349   7.466 -4.3947  0.8587 -2.5848
  232MOL0     H31297   5.911   2.309   7.298 -2.1227 -0.0392  1.1295
  232MOL0     H31298   6.011   2.120   7.514  0.1573 -0.9016 -0.3135
  232MOL0     H31299   5.995   2.071   7.349 -1.3312  1.1644 -2.0304
  232MOL0     H31300   5.801   2.006   7.411  2.0021  0.1519 -0.8272
  232MOL0     H31301   5.749   2.173   7.379  1.4194  1.0743 -0.2215
  232MOL0     H31302   6.790   2.504   7.170 -3.1034 -2.6288  0.9002
  232MOL0     H31303   7.023   2.530   7.225 -1.7609 -1.7775 -1.4564
  232MOL0     H31304   7.346   2.661   7.470 -0.9702 -0.3486 -1.9654
  232MOL0     H31305   7.585   2.711   7.485 -0.0308 -0.9425 -1.8125
  232MOL0     H31306   9.257   3.083   7.548  0.2541 -0.2479  0.2508
  232MOL0     H31307   9.474   3.142   7.562 -0.5078  0.0281 -0.2688
  232MOL0     H31308   9.831   3.151   7.653 -1.3995 -1.3195 -1.0311
  232MOL0     H31309  10.065   3.259   7.672 -1.6956  0.5977 -0.0643
  232MOL0     H31310  10.410   2.977   7.621 -0.1126 -0.9323  1.2344
  232MOL0     H31311  10.495   3.126   7.675 -0.8621  0.0447 -1.1048
  232MOL0     H31312  10.328   2.959   7.866 -0.1440  0.1922  1.4123
  232MOL0     H31313  10.409   3.101   7.903 -0.1379 -0.0424 -0.2630
  232MOL0     H31314  10.626   2.956   7.797 -0.8730 -2.6276 -3.5143
  232MOL0     H31315  10.519   2.830   7.806  0.8932  2.0685 -1.0377
  232MOL0     H31316  10.509   2.813   8.040  0.6546  0.2010 -1.9757
  232MOL0     H31317  10.560   2.975   8.071 -2.0735  1.4584 -0.4829
  232MOL0     H31318  10.940   2.797   7.962  1.4509 -0.0306  3.1608
  232MOL0     H31319  10.235   2.870   7.568 -1.1534 -0.9704 -0.7284
  232MOL0     H31320  10.015   2.776   7.563  2.0483 -0.7502  1.5704
  233MOL0     O31321   7.535   7.730   2.271  0.3130  0.8944  0.4827
  233MOL0     C31322   7.602   7.810   2.330 -0.0207  0.3040 -0.5328
  233MOL0     O31323   7.560   7.879   2.439 -0.3409 -0.1050  0.1859
  233MOL0     C31324   7.434   7.877   2.473  0.3589 -0.5886  0.3729
  233MOL0     C31325   7.362   7.997   2.463  0.0085 -0.0059 -0.2675
  233MOL0     C31326   7.222   7.998   2.487 -0.2104  0.0269  0.7679
  233MOL0     C31327   7.145   7.880   2.502 -0.2712 -0.1131  0.4245
  233MOL0     O31328   7.002   7.873   2.511 -0.0686  0.8522 -0.0091
  233MOL0     C31329   6.935   8.000   2.474  0.2503 -0.2980 -0.9923
  233MOL0     C31330   6.783   7.990   2.505  0.3311  0.0320  0.4348
  233MOL0     C31331   6.723   8.127   2.470 -0.6615  0.3731 -0.0285
  233MOL0     C31332   6.571   8.133   2.493 -0.2399  0.2229 -0.4497
  233MOL0     C31333   6.498   8.028   2.410 -0.5471  0.0663  0.5539
  233MOL0     C31334   6.348   8.054   2.409 -0.2145  0.0741 -0.3712
  233MOL0     C31335   6.265   7.985   2.307  0.0147 -0.8100 -0.2705
  233MOL0     C31336   6.120   8.041   2.284 -0.6653 -0.7304  0.4339
  233MOL0     N31337   6.048   7.958   2.189 -0.3059  0.4831 -0.0889
  233MOL0     C31338   6.096   7.935   2.056  0.2467  0.6362  0.2166
  233MOL0     C31339   6.006   7.844   2.005 -0.1169 -0.4800 -0.6202
  233MOL0     C31340   5.996   7.799   1.867 -0.0325 -0.2759 -0.0690
  233MOL0     C31341   5.954   7.647   1.861  0.4840  0.2501  1.0454
  233MOL0     C31342   5.973   7.571   1.724  0.2526 -0.2579 -0.1870
  233MOL0     C31343   5.875   7.623   1.620  0.3060 -0.1409  0.4598
  233MOL0     O31344   5.755   7.543   1.620 -0.5602  0.1041 -0.7293
  233MOL0     C31345   5.645   7.596   1.560  0.1085 -0.4246 -0.5414
  233MOL0     C31346   5.651   7.603   1.422  0.4623  0.0721 -0.0871
  233MOL0     C31347   5.539   7.641   1.342  0.0103  0.1744 -0.3339
  233MOL0     C31348   5.557   7.648   1.192 -0.2684  0.1370 -0.0798
  233MOL0     C31349   5.420   7.666   1.406 -0.3359  0.6441  0.6745
  233MOL0     C31350   5.296   7.713   1.338  0.0478 -0.0700 -0.3388
  233MOL0     O31351   5.209   7.774   1.418 -0.6836  0.3253 -0.1588
  233MOL0     C31352   5.079   7.804   1.380  0.9908 -0.1942  0.8033
  233MOL0     C31353   5.005   7.716   1.308  0.4189 -0.0157 -0.0132
  233MOL0     C31354   4.874   7.750   1.275 -0.3767  0.6624 -0.4913
  233MOL0     C31355   4.812   7.866   1.316 -0.2588  0.4822  0.1789
  233MOL0     O31356   4.681   7.905   1.291  0.1877  0.0267 -0.3786
  233MOL0     C31357   4.587   7.805   1.268 -0.2493 -0.0042  0.6640
  233MOL0     C31358   4.450   7.859   1.269 -0.3962 -0.1678  0.1236
  233MOL0     C31359   4.344   7.745   1.269 -0.1988  0.0858  0.0029
  233MOL0     C31360   4.218   7.778   1.187 -0.2575 -0.6489  0.2770
  233MOL0     C31361   4.111   7.680   1.213  0.8290 -0.1303  0.3556
  233MOL0     C31362   4.011   7.690   1.100  0.4018  0.3215 -0.3237
  233MOL0     C31363   3.897   7.589   1.130 -0.0488 -0.3570  0.4016
  233MOL0     C31364   3.794   7.631   1.233  0.5387  1.3112  0.7311
  233MOL0    Cl31365   3.723   7.479   1.308  0.4332 -0.2440  0.4397
  233MOL0     C31366   4.884   7.949   1.404 -0.8795 -0.5355 -0.7094
  233MOL0     C31367   5.020   7.922   1.434  0.6446  0.2914 -0.6962
  233MOL0     O31368   5.278   7.695   1.220 -0.1374 -0.6389 -0.0396
  233MOL0     C31369   5.417   7.660   1.544 -0.0689  0.2894 -0.8704
  233MOL0     C31370   5.530   7.638   1.621  0.3436 -0.4381  0.4062
  233MOL0     N31371   5.904   7.827   2.106 -0.2847  0.1528  0.7782
  233MOL0     N31372   5.930   7.894   2.213  0.0096  0.0557 -0.2523
  233MOL0     C31373   7.219   7.765   2.522 -0.7259 -1.0718 -0.2609
  233MOL0     C31374   7.362   7.764   2.511 -0.6113  0.1939  0.4944
  233MOL0     C31375   7.731   7.840   2.286 -0.1543  0.2938 -0.7178
  233MOL0     C31376   7.795   7.741   2.213 -0.4924 -0.1551  0.2376
  233MOL0     C31377   7.913   7.767   2.145 -0.1987 -0.2719  0.1643
  233MOL0     C31378   7.972   7.893   2.145 -0.1665  0.0062 -0.1953
  233MOL0     O31379   8.084   7.911   2.071 -0.2486  0.2777 -0.3556
  233MOL0     C31380   8.116   8.043   2.030 -0.5308  0.4395  0.2164
  233MOL0     C31381   8.232   8.089   2.114 -0.7451 -0.3610  0.2185
  233MOL0     C31382   8.275   8.233   2.068  0.8446 -0.3583  0.1066
  233MOL0     C31383   8.412   8.266   2.139  0.5088  0.7323 -0.7693
  233MOL0     C31384   8.499   8.334   2.043 -1.1901  0.2172 -1.6332
  233MOL0     C31385   8.574   8.383   1.956 -0.3757 -0.1098  0.6493
  233MOL0     C31386   7.911   7.990   2.220 -0.5602  0.4627  0.2795
  233MOL0     C31387   7.795   7.965   2.294  0.4695  0.3428  0.3166
  233MOL0     H31388   7.419   8.088   2.447  3.1606 -1.8625 -0.5200
  233MOL0     H31389   7.182   8.099   2.483 -2.6176 -0.8408  1.1422
  233MOL0     H31390   6.976   8.074   2.544  1.7593 -0.9880 -1.0992
  233MOL0     H31391   6.954   8.030   2.371 -1.9596 -0.8966 -1.6104
  233MOL0     H31392   6.748   7.913   2.436 -0.7618  0.2475  0.7252
  233MOL0     H31393   6.768   7.961   2.609  0.7562  1.5525  0.9474
  233MOL0     H31394   6.775   8.194   2.540  2.3099 -2.0566  0.2612
  233MOL0     H31395   6.746   8.152   2.366 -0.4559 -0.9820 -0.3188
  233MOL0     H31396   6.544   8.098   2.593  1.5496  1.5049  0.5317
  233MOL0     H31397   6.528   8.233   2.483  1.9617  1.2411 -0.1612
  233MOL0     H31398   6.537   8.042   2.309  0.1959  2.5202  1.0930
  233MOL0     H31399   6.506   7.923   2.439  1.2394 -0.0661 -0.3061
  233MOL0     H31400   6.317   8.027   2.510  1.2445 -0.4823 -0.0502
  233MOL0     H31401   6.327   8.161   2.403  2.2853  0.6063 -0.7797
  233MOL0     H31402   6.317   8.006   2.213  0.1073  4.3770  0.6928
  233MOL0     H31403   6.253   7.880   2.337 -0.4723 -0.2493  1.6229
  233MOL0     H31404   6.128   8.146   2.253 -0.2015 -0.7465  0.4840
  233MOL0     H31405   6.069   8.046   2.381 -1.1186 -2.3122  0.2927
  233MOL0     H31406   6.176   7.989   2.007  0.0988  0.0231 -0.7350
  233MOL0     H31407   5.917   7.861   1.823  0.1895  0.6732  0.8261
  233MOL0     H31408   6.093   7.805   1.817  1.1875 -0.2277  2.1877
  233MOL0     H31409   5.848   7.642   1.888 -0.4956  3.1450 -1.6777
  233MOL0     H31410   6.004   7.585   1.937 -1.4447 -1.2037  1.1989
  233MOL0     H31411   5.956   7.463   1.736  2.3550 -0.6538 -0.4657
  233MOL0     H31412   6.077   7.583   1.695  0.4682  0.8180  0.9593
  233MOL0     H31413   5.923   7.611   1.522  1.3423 -1.4802  1.0916
  233MOL0     H31414   5.845   7.728   1.630  0.2514  0.0272 -1.2163
  233MOL0     H31415   5.743   7.579   1.370  0.1855  0.5070 -0.7852
  233MOL0     H31416   5.510   7.563   1.141  0.3785 -1.3618  1.7415
  233MOL0     H31417   5.524   7.744   1.149  1.3229  0.2281 -1.2072
  233MOL0     H31418   5.665   7.637   1.175 -0.7351 -1.5156 -2.4095
  233MOL0     H31419   5.053   7.623   1.279  2.2947  1.3604 -1.6061
  233MOL0     H31420   4.826   7.675   1.214 -0.2154 -2.7049  3.1486
  233MOL0     H31421   4.602   7.755   1.172 -1.0686  2.2453 -0.7372
  233MOL0     H31422   4.592   7.735   1.351 -2.8099  0.7247  1.5150
  233MOL0     H31423   4.428   7.925   1.353  2.4368  2.2056 -0.8210
  233MOL0     H31424   4.452   7.915   1.175 -0.3458  1.4505  1.0472
  233MOL0     H31425   4.318   7.720   1.372 -1.8159  0.6418 -0.2449
  233MOL0     H31426   4.395   7.660   1.225 -1.4249  0.6356 -2.6707
  233MOL0     H31427   4.180   7.877   1.213  1.7256 -0.2309  1.9125
  233MOL0     H31428   4.241   7.783   1.081 -0.3959  2.2811  0.3145
  233MOL0     H31429   4.061   7.695   1.309  0.8453  3.2790 -0.0197
  233MOL0     H31430   4.158   7.582   1.211  2.6239  0.6793 -0.6460
  233MOL0     H31431   3.975   7.793   1.091  2.2009  1.1777  1.5643
  233MOL0     H31432   4.046   7.659   1.001  0.7592 -0.3344  0.0033
  233MOL0     H31433   3.943   7.491   1.148 -0.2906 -0.3916  0.8249
  233MOL0     H31434   3.841   7.582   1.036  0.9979  0.4271 -0.3144
  233MOL0     H31435   3.701   7.670   1.190  0.5769 -1.7400 -2.4766
  233MOL0     H31436   3.830   7.696   1.314  2.1983 -1.1384  2.1009
  233MOL0     H31437   4.846   8.047   1.431  2.3025  1.1611 -1.8259
  233MOL0     H31438   5.078   7.994   1.491 -0.4680  0.6988 -0.0641
  233MOL0     H31439   5.322   7.691   1.586  0.2878  1.2449 -0.7473
  233MOL0     H31440   5.523   7.632   1.729 -0.8671 -0.7375  0.3259
  233MOL0     H31441   7.164   7.675   2.549 -1.0812 -1.4491 -2.1012
  233MOL0     H31442   7.403   7.665   2.526 -2.6121 -0.6382  0.8707
  233MOL0     H31443   7.754   7.641   2.204 -1.5256  0.2989 -0.2054
  233MOL0     H31444   7.952   7.691   2.079  3.0692  1.3633  0.0180
  233MOL0     H31445   8.151   8.037   1.927 -1.0535  0.5892  0.0271
  233MOL0     H31446   8.041   8.122   2.034 -1.2939 -0.2499 -0.3849
  233MOL0     H31447   8.317   8.019   2.115 -1.3678 -1.1248  0.4286
  233MOL0     H31448   8.202   8.106   2.218 -0.9578  1.0696 -0.0545
  233MOL0     H31449   8.206   8.314   2.094 -0.7340 -1.7259  0.3489
  233MOL0     H31450   8.295   8.232   1.961  0.0565 -2.1258 -0.0739
  233MOL0     H31451   8.461   8.179   2.183 -1.0688  0.0198 -0.3189
  233MOL0     H31452   8.404   8.332   2.226  0.1699 -0.2252 -0.0599
  233MOL0     H31453   8.627   8.424   1.873  0.7358 -2.1885  0.2693
  233MOL0     H31454   7.954   8.089   2.237 -2.8746  1.3851  1.1401
  233MOL0     H31455   7.745   8.038   2.357  2.4178  1.5547  0.5553
  234MOL0     O31456   8.128   6.523   6.813 -0.3815  0.3933  1.1665
  234MOL0     C31457   8.192   6.556   6.909 -0.8587  0.0937  0.1319
  234MOL0     O31458   8.140   6.616   7.019  0.6989  0.2511 -0.2578
  234MOL0     C31459   8.003   6.624   7.026  0.1481 -0.2950  0.9003
  234MOL0     C31460   7.928   6.524   7.076  0.0814  0.7120  0.5675
  234MOL0     C31461   7.787   6.548   7.078  0.1014 -0.5152 -0.0841
  234MOL0     C31462   7.732   6.662   7.021 -0.5792 -0.2559 -0.0329
  234MOL0     O31463   7.604   6.716   7.015  0.0843  0.5533  0.2830
  234MOL0     C31464   7.507   6.622   7.059 -0.2210 -0.7016  0.2704
  234MOL0     C31465   7.379   6.705   7.082 -0.1835  0.1900 -0.2689
  234MOL0     C31466   7.279   6.600   7.129 -0.3162 -0.2069  0.4236
  234MOL0     C31467   7.139   6.658   7.160  0.4112 -0.7218  0.8819
  234MOL0     C31468   7.042   6.554   7.224  0.3644 -0.1738 -0.0865
  234MOL0     C31469   6.914   6.636   7.251  0.2399  0.4662 -0.0731
  234MOL0     C31470   6.803   6.553   7.325  1.1804 -0.0554  0.5822
  234MOL0     C31471   6.711   6.617   7.427 -0.3054 -0.8351  0.0023
  234MOL0     N31472   6.612   6.534   7.493 -0.0786 -0.9490  0.3595
  234MOL0     C31473   6.617   6.478   7.622 -0.7838 -0.2157  0.5957
  234MOL0     C31474   6.500   6.402   7.632  0.5237  0.2577  0.5671
  234MOL0     C31475   6.465   6.319   7.744  0.2914 -0.3627 -0.9978
  234MOL0     C31476   6.314   6.349   7.776  0.5431 -0.6354  0.3847
  234MOL0     C31477   6.248   6.263   7.875 -0.3072 -0.5684 -0.9517
  234MOL0     C31478   6.266   6.115   7.845 -0.4276 -0.0898 -0.2775
  234MOL0     O31479   6.235   6.086   7.710  0.4302  0.1579  0.0459
  234MOL0     C31480   6.099   6.084   7.676 -0.5798  0.0774  0.3297
  234MOL0     C31481   6.073   6.072   7.539 -0.8838 -0.1122  1.1034
  234MOL0     C31482   5.943   6.062   7.495 -0.2140 -0.5179  0.9815
  234MOL0     C31483   5.934   6.058   7.346 -0.0205 -0.8522  0.8150
  234MOL0     C31484   5.828   6.052   7.579 -0.9967  0.9436  0.1541
  234MOL0     C31485   5.688   6.022   7.542  0.0162 -0.3925 -0.5303
  234MOL0     O31486   5.602   5.977   7.636 -0.5182  0.6158 -0.4745
  234MOL0     C31487   5.464   5.973   7.620  0.0389 -0.0833 -1.0266
  234MOL0     C31488   5.391   5.884   7.699  0.3216 -0.4437 -0.1605
  234MOL0     C31489   5.249   5.882   7.700  0.1234  0.2288  0.0187
  234MOL0     C31490   5.175   5.978   7.630  0.5972  0.7660 -0.0282
  234MOL0     O31491   5.043   6.001   7.647  0.5874  0.7772 -0.2145
  234MOL0     C31492   4.979   5.909   7.733  0.0726  0.1896  1.2956
  234MOL0     C31493   4.830   5.920   7.738  0.1534 -0.3603  0.7184
  234MOL0     C31494   4.775   5.917   7.593  0.9946  0.6676  0.9281
  234MOL0     C31495   4.624   5.929   7.595 -0.1092  0.3151 -0.3580
  234MOL0     C31496   4.548   5.799   7.601 -0.1087 -0.0971 -0.4485
  234MOL0     C31497   4.386   5.810   7.599  0.3858 -0.5152  0.3656
  234MOL0     C31498   4.342   5.860   7.455  0.4307 -0.6733 -0.3063
  234MOL0     C31499   4.295   6.009   7.447 -0.6408  1.1205 -0.1586
  234MOL0    Cl31500   4.142   6.036   7.551 -0.4546  0.1305  0.0465
  234MOL0     C31501   5.253   6.068   7.551  0.5965 -0.5354 -0.2255
  234MOL0     C31502   5.395   6.068   7.549  0.2341 -0.2532  0.0912
  234MOL0     O31503   5.655   6.044   7.426 -0.5484 -0.2088 -0.4453
  234MOL0     C31504   5.860   6.053   7.714  0.2374  0.1631 -0.5803
  234MOL0     C31505   5.992   6.075   7.763 -0.5284 -0.6163 -0.2815
  234MOL0     N31506   6.425   6.424   7.515  0.8555  0.1604 -0.6551
  234MOL0     N31507   6.492   6.497   7.437  0.0828 -0.4704  0.0978
  234MOL0     C31508   7.816   6.761   6.971 -0.0328  0.4500 -0.1764
  234MOL0     C31509   7.951   6.741   6.963 -0.1280  0.2461 -0.7145
  234MOL0     C31510   8.334   6.509   6.896 -0.0709 -0.6855 -0.4784
  234MOL0     C31511   8.417   6.515   7.012 -0.9582 -0.2715 -0.2521
  234MOL0     C31512   8.544   6.468   7.004 -0.1291  0.7127  0.0574
  234MOL0     C31513   8.596   6.419   6.878  0.0003 -0.1843 -1.2092
  234MOL0     O31514   8.720   6.374   6.881 -0.2829  0.1717  0.0466
  234MOL0     C31515   8.793   6.383   6.761 -0.5529 -0.6077  0.2113
  234MOL0     C31516   8.946   6.373   6.777 -0.2664  0.4855  0.1177
  234MOL0     C31517   8.995   6.510   6.808 -0.4022 -0.0873 -0.0482
  234MOL0     C31518   9.143   6.498   6.810  0.2469 -0.2503 -0.3801
  234MOL0     C31519   9.197   6.622   6.864 -0.6699 -0.3302  0.3005
  234MOL0     C31520   9.240   6.717   6.911  0.4179  0.1105 -0.5289
  234MOL0     C31521   8.512   6.417   6.761 -0.2216 -0.0730  0.0974
  234MOL0     C31522   8.384   6.461   6.774 -0.6078  0.0673  0.1248
  234MOL0     H31523   7.974   6.438   7.122  0.5095 -0.4588 -1.9077
  234MOL0     H31524   7.726   6.472   7.124 -1.0677 -1.4984 -2.9979
  234MOL0     H31525   7.506   6.537   6.990  3.0829 -1.3049  0.7731
  234MOL0     H31526   7.540   6.583   7.156  2.3874 -1.0882 -0.6776
  234MOL0     H31527   7.391   6.780   7.161 -4.8994  1.0539 -0.0736
  234MOL0     H31528   7.345   6.744   6.986  0.8367 -0.3628 -0.8703
  234MOL0     H31529   7.272   6.523   7.051  0.7609  1.2904 -1.2246
  234MOL0     H31530   7.316   6.564   7.225  1.3813  1.2119  0.3469
  234MOL0     H31531   7.161   6.742   7.227  0.4674 -0.9486  1.1519
  234MOL0     H31532   7.108   6.698   7.063  1.1552 -1.2150  0.4245
  234MOL0     H31533   7.013   6.471   7.160 -2.1238 -0.5163  1.3622
  234MOL0     H31534   7.083   6.520   7.320 -0.4300 -0.1388  0.2689
  234MOL0     H31535   6.933   6.728   7.307 -0.2904  0.3603  0.2926
  234MOL0     H31536   6.874   6.667   7.155 -0.9875  1.7565  0.8161
  234MOL0     H31537   6.744   6.500   7.250 -0.9290  1.5761  0.9944
  234MOL0     H31538   6.842   6.469   7.384 -2.0920 -0.6670  2.0596
  234MOL0     H31539   6.667   6.708   7.384  0.4446  0.1660  1.2979
  234MOL0     H31540   6.776   6.662   7.502  0.7310  0.1213 -1.4311
  234MOL0     H31541   6.702   6.485   7.689 -0.7913 -4.4650  1.2781
  234MOL0     H31542   6.489   6.213   7.728  1.0224 -0.7142  1.8051
  234MOL0     H31543   6.537   6.338   7.825 -1.4047 -3.7910  1.5908
  234MOL0     H31544   6.251   6.355   7.686 -0.4485 -0.3765  1.0788
  234MOL0     H31545   6.318   6.456   7.799  2.0591 -0.4581 -0.5924
  234MOL0     H31546   6.142   6.291   7.877 -0.6930 -1.9737 -0.9301
  234MOL0     H31547   6.297   6.276   7.972 -0.8417 -2.2970 -0.4134
  234MOL0     H31548   6.213   6.050   7.916 -1.3378  2.8334  1.9419
  234MOL0     H31549   6.371   6.084   7.849 -0.6051 -0.5865  1.2439
  234MOL0     H31550   6.158   6.072   7.471 -1.5422  1.6963  0.2082
  234MOL0     H31551   5.876   6.145   7.315 -0.5108 -1.5146 -0.2084
  234MOL0     H31552   6.033   6.058   7.299 -0.7596 -0.5250 -0.7887
  234MOL0     H31553   5.881   5.971   7.305  0.2919  0.5496 -3.0014
  234MOL0     H31554   5.449   5.817   7.762  1.2931 -0.2722 -0.8598
  234MOL0     H31555   5.200   5.822   7.777 -3.4392  3.0889  0.2827
  234MOL0     H31556   5.005   5.821   7.674  2.5979  2.1345 -0.7229
  234MOL0     H31557   5.024   5.916   7.833  3.3462  0.8881 -0.1195
  234MOL0     H31558   4.786   5.832   7.787 -2.9746  2.1110  2.7343
  234MOL0     H31559   4.802   6.013   7.789  0.6071 -0.1385  0.5658
  234MOL0     H31560   4.808   5.829   7.538  2.9665  3.1049 -2.1545
  234MOL0     H31561   4.808   6.004   7.535  2.3258 -1.8426 -2.3979
  234MOL0     H31562   4.599   5.988   7.684 -1.6277 -0.5617 -0.1732
  234MOL0     H31563   4.591   5.987   7.509  0.0165 -1.7452 -1.8739
  234MOL0     H31564   4.583   5.742   7.688  1.7427 -2.4448 -2.5707
  234MOL0     H31565   4.579   5.733   7.520  0.7073 -0.3758  0.0687
  234MOL0     H31566   4.350   5.708   7.617  1.9752 -1.0176  0.8717
  234MOL0     H31567   4.362   5.885   7.674  0.8231  1.0424 -0.9814
  234MOL0     H31568   4.263   5.806   7.401 -1.7735  2.7760 -0.8410
  234MOL0     H31569   4.428   5.852   7.388  1.1504 -0.6912  0.6173
  234MOL0     H31570   4.271   6.029   7.342 -1.4307 -1.8220 -0.6436
  234MOL0     H31571   4.371   6.075   7.490 -1.5960  1.4241  1.1092
  234MOL0     H31572   5.205   6.157   7.511 -0.2213  0.2646  2.3543
  234MOL0     H31573   5.442   6.141   7.484  0.6762  1.2580  2.0333
  234MOL0     H31574   5.785   6.049   7.792  1.1877  0.4643  0.3764
  234MOL0     H31575   6.011   6.082   7.870 -0.4652 -0.2038 -0.3163
  234MOL0     H31576   7.782   6.854   6.926  4.0326  2.9953  1.4539
  234MOL0     H31577   8.024   6.809   6.921  1.9759 -3.0260 -2.7993
  234MOL0     H31578   8.378   6.560   7.103 -2.7912  1.0327 -1.6204
  234MOL0     H31579   8.610   6.467   7.090  2.6125  0.7853 -1.9024
  234MOL0     H31580   8.764   6.287   6.717 -0.4066 -0.4916 -0.1372
  234MOL0     H31581   8.758   6.467   6.700 -1.7277  1.5660  3.5839
  234MOL0     H31582   8.987   6.327   6.687 -1.0862 -1.9347  0.9013
  234MOL0     H31583   8.971   6.301   6.856  0.8446 -1.1117 -1.6048
  234MOL0     H31584   8.959   6.547   6.905 -0.9183  0.8639 -0.5901
  234MOL0     H31585   8.963   6.575   6.726 -2.2141 -0.5382  0.2639
  234MOL0     H31586   9.177   6.483   6.707  1.7849 -0.9910  0.2071
  234MOL0     H31587   9.167   6.411   6.871  0.3071 -0.7078 -1.0497
  234MOL0     H31588   9.269   6.814   6.947 -2.0730  1.2779 -1.4556
  234MOL0     H31589   8.556   6.385   6.667  1.2082 -0.7643  0.9618
  234MOL0     H31590   8.331   6.444   6.681 -0.4124 -0.6043  0.1273
  235MOL0     O31591  10.019   9.889   7.302 -0.3485  0.0252 -0.8352
  235MOL0     C31592  10.097   9.881   7.210  0.5195 -0.4587  0.2756
  235MOL0     O31593  10.097   9.786   7.113 -0.0683  0.8470  0.7843
  235MOL0     C31594   9.989   9.705   7.073  0.6504 -1.0955 -0.6390
  235MOL0     C31595   9.882   9.679   7.162  0.0896  0.5790  0.8479
  235MOL0     C31596   9.783   9.590   7.124  0.4100  0.2152  0.5103
  235MOL0     C31597   9.773   9.537   6.995 -0.2199  0.0063  0.4732
  235MOL0     O31598   9.673   9.447   6.985  0.3130  0.3286  0.2022
  235MOL0     C31599   9.546   9.491   6.926  0.1251  0.6221  0.3970
  235MOL0     C31600   9.463   9.592   7.004 -0.1110 -0.8289  0.0079
  235MOL0     C31601   9.320   9.594   6.923 -0.5081 -0.3599  0.1570
  235MOL0     C31602   9.189   9.620   7.001 -0.5246 -0.0827 -0.4219
  235MOL0     C31603   9.193   9.764   7.042 -0.0894  0.1506 -0.5481
  235MOL0     C31604   9.080   9.800   7.142  0.3749 -0.3160 -0.1535
  235MOL0     C31605   8.944   9.813   7.075  0.4917  0.4135  0.3248
  235MOL0     C31606   8.835   9.865   7.169  0.7234 -0.2303  0.1874
  235MOL0     N31607   8.711   9.903   7.095  0.2585 -0.0971 -0.1694
  235MOL0     C31608   8.586   9.859   7.131  0.2228 -0.0520 -0.2559
  235MOL0     C31609   8.504   9.911   7.049  0.1691 -0.4078 -0.3346
  235MOL0     C31610   8.355   9.895   7.048 -1.0678  0.2936 -0.4910
  235MOL0     C31611   8.274   9.972   7.155  0.5825 -0.1141 -0.4739
  235MOL0     C31612   8.122   9.953   7.131 -0.4614  0.3195 -0.4386
  235MOL0     C31613   8.021  10.046   7.209 -0.4684 -0.0837  0.1341
  235MOL0     O31614   7.897   9.972   7.210  0.1515 -0.6472  0.5179
  235MOL0     C31615   7.777  10.045   7.192 -0.9499  0.3767  1.3178
  235MOL0     C31616   7.663   9.971   7.194  0.6725 -0.1968 -0.5977
  235MOL0     C31617   7.532  10.029   7.195  0.7557  0.1925  0.5186
  235MOL0     C31618   7.412   9.940   7.205  0.6203  0.0479  0.4694
  235MOL0     C31619   7.516  10.169   7.191  0.4542  0.6289  0.6551
  235MOL0     C31620   7.374  10.238   7.193 -0.1358  0.4750 -0.2312
  235MOL0     O31621   7.265  10.162   7.195 -0.0946 -0.3208 -0.1270
  235MOL0     C31622   7.151  10.177   7.123 -0.1246 -0.1083  0.8712
  235MOL0     C31623   7.053  10.102   7.172  0.0405 -0.2784  0.4312
  235MOL0     C31624   6.923  10.104   7.115 -0.6134 -0.3480  0.1343
  235MOL0     C31625   6.902  10.187   6.996 -0.5876  0.6494  0.7268
  235MOL0     O31626   6.779  10.165   6.940  0.0545  0.5755 -0.1144
  235MOL0     C31627   6.752  10.199   6.806 -1.0387  0.4912  0.1675
  235MOL0     C31628   6.613  10.151   6.785  1.0616  0.1241 -0.0351
  235MOL0     C31629   6.566  10.173   6.639 -0.0655 -0.6879 -0.6015
  235MOL0     C31630   6.523  10.319   6.614  0.0806  0.8565 -0.0937
  235MOL0     C31631   6.464  10.343   6.471  0.8008  0.9452 -0.3325
  235MOL0     C31632   6.340  10.245   6.444  0.1921 -0.2053 -0.0009
  235MOL0     C31633   6.220  10.281   6.533 -0.3569 -0.4002 -0.2070
  235MOL0     C31634   6.093  10.191   6.505 -0.3766  0.3206  0.8667
  235MOL0    Cl31635   6.128  10.015   6.488  0.2896  0.0299  0.1108
  235MOL0     C31636   7.008  10.256   6.948 -0.0621 -0.4366 -0.5118
  235MOL0     C31637   7.131  10.262   7.008  0.0226 -0.4932 -0.3731
  235MOL0     O31638   7.372  10.360   7.209 -0.1446  0.1231 -0.5288
  235MOL0     C31639   7.633  10.244   7.186 -0.3719  0.8931 -0.1017
  235MOL0     C31640   7.763  10.186   7.187  0.2114  0.6366 -1.0035
  235MOL0     N31641   8.576  10.002   6.966  0.0374 -1.0065 -0.3842
  235MOL0     N31642   8.699   9.994   6.993  0.3495  0.3016 -0.4255
  235MOL0     C31643   9.882   9.570   6.911  0.1922  0.1011 -0.2370
  235MOL0     C31644   9.985   9.665   6.942  1.0664 -0.2433 -0.3724
  235MOL0     C31645  10.200   9.981   7.198 -0.9226  0.1484  1.1422
  235MOL0     C31646  10.213  10.086   7.287  0.8264  0.2985  0.4655
  235MOL0     C31647  10.303  10.187   7.280  0.1261 -1.6000 -0.4126
  235MOL0     C31648  10.381  10.195   7.166  0.4875  0.0195 -0.3963
  235MOL0     O31649  10.464  10.301   7.159 -0.1168 -0.4062 -0.4896
  235MOL0     C31650  10.587  10.290   7.084  0.4081  1.3130 -0.6837
  235MOL0     C31651  10.671  10.418   7.094 -0.7227 -0.3001  0.2266
  235MOL0     C31652  10.798  10.411   7.003  0.2791  0.4380  0.6394
  235MOL0     C31653  10.930  10.464   7.069  0.6257 -0.0511 -0.5234
  235MOL0     C31654  10.927  10.614   7.066  0.3297 -0.3281  0.6275
  235MOL0     C31655  10.940  10.733   7.040 -0.0816  0.0689  0.6565
  235MOL0     C31656  10.378  10.088   7.073  1.1255 -0.0062  0.0035
  235MOL0     C31657  10.283   9.981   7.089 -0.6078  0.6014 -0.6112
  235MOL0     H31658   9.878   9.707   7.266 -0.0058 -1.2994  1.3860
  235MOL0     H31659   9.716   9.563   7.205 -0.1311 -0.8230 -0.2564
  235MOL0     H31660   9.570   9.534   6.829 -2.7672 -1.4550 -1.3843
  235MOL0     H31661   9.491   9.397   6.915 -1.4528  1.4492  0.8966
  235MOL0     H31662   9.451   9.565   7.109  3.3995 -2.0407  0.2193
  235MOL0     H31663   9.519   9.685   6.998 -0.2757 -0.7494 -0.3532
  235MOL0     H31664   9.324   9.666   6.841  0.6994  0.5075  0.9314
  235MOL0     H31665   9.296   9.501   6.871 -0.6783 -0.6540  0.7560
  235MOL0     H31666   9.101   9.610   6.937 -0.7526 -2.4545  0.1749
  235MOL0     H31667   9.177   9.552   7.086 -0.6323 -0.0366 -0.3997
  235MOL0     H31668   9.286   9.773   7.098  0.0228 -3.3074  0.0236
  235MOL0     H31669   9.198   9.835   6.959 -0.2403 -0.1614 -0.8288
  235MOL0     H31670   9.059   9.717   7.210  2.6788 -0.5779  0.3283
  235MOL0     H31671   9.107   9.891   7.196 -0.4896  1.1264 -2.0307
  235MOL0     H31672   8.948   9.867   6.980  0.8759 -1.2911 -0.6761
  235MOL0     H31673   8.902   9.715   7.050 -0.8461  0.7164  1.2697
  235MOL0     H31674   8.870   9.945   7.235  1.4812 -0.5174  0.1469
  235MOL0     H31675   8.819   9.782   7.238  0.2191 -1.9549 -1.8771
  235MOL0     H31676   8.568   9.790   7.213 -0.6255  1.3681  0.8102
  235MOL0     H31677   8.327   9.933   6.950  2.2030  2.1076 -0.8819
  235MOL0     H31678   8.325   9.790   7.055  0.5011 -0.1658 -0.0806
  235MOL0     H31679   8.293  10.079   7.161 -0.1858 -0.0172  0.5273
  235MOL0     H31680   8.298   9.935   7.255 -0.7058  1.4077  0.4414
  235MOL0     H31681   8.087   9.859   7.174 -1.3592  0.1093 -1.5942
  235MOL0     H31682   8.098   9.935   7.026 -0.5555 -0.8454 -0.2329
  235MOL0     H31683   8.021  10.142   7.156  0.9253  0.4359  1.0376
  235MOL0     H31684   8.055  10.054   7.313 -1.2268 -0.7095  0.4382
  235MOL0     H31685   7.684   9.865   7.187  1.6314  0.0568 -1.7806
  235MOL0     H31686   7.344   9.942   7.120 -0.5100 -0.9460  1.3212
  235MOL0     H31687   7.445   9.835   7.207  1.7086  0.3643  0.0566
  235MOL0     H31688   7.352   9.950   7.296  1.2007 -1.3899  1.0414
  235MOL0     H31689   7.073  10.038   7.258 -2.1476  0.3914  1.5102
  235MOL0     H31690   6.844  10.046   7.163 -2.0284  1.1806 -0.2844
  235MOL0     H31691   6.750  10.309   6.799  2.5568  0.6374 -0.5230
  235MOL0     H31692   6.833  10.165   6.740  0.5753  3.0585  0.6573
  235MOL0     H31693   6.606  10.043   6.801  1.7904 -0.1640 -1.4473
  235MOL0     H31694   6.546  10.196   6.858 -2.2812 -1.1280 -2.1359
  235MOL0     H31695   6.484  10.101   6.632 -1.2382  0.4153  0.9077
  235MOL0     H31696   6.640  10.143   6.565 -0.1530 -1.9707 -0.1892
  235MOL0     H31697   6.445  10.348   6.685  1.7185  2.2103  1.2543
  235MOL0     H31698   6.609  10.385   6.627  2.3654 -1.0554 -3.7034
  235MOL0     H31699   6.547  10.313   6.406  0.7221 -0.6921  0.2733
  235MOL0     H31700   6.436  10.448   6.459 -0.2493  0.5861 -1.1603
  235MOL0     H31701   6.303  10.254   6.341 -3.1762  1.4146  1.1650
  235MOL0     H31702   6.366  10.141   6.463  0.3772  0.0276  1.0460
  235MOL0     H31703   6.203  10.388   6.526  1.2307 -0.0609  0.6521
  235MOL0     H31704   6.245  10.254   6.636 -1.1341 -0.9863 -0.1640
  235MOL0     H31705   6.057  10.231   6.410 -2.2210 -1.9344  0.5303
  235MOL0     H31706   6.013  10.216   6.576 -1.6323  2.5459 -1.1419
  235MOL0     H31707   6.993  10.325   6.865 -1.7883  1.2696  1.1499
  235MOL0     H31708   7.214  10.328   6.985 -0.3583  1.7517  3.7759
  235MOL0     H31709   7.631  10.353   7.180 -0.2732  0.9260  0.4067
  235MOL0     H31710   7.842  10.259   7.197 -3.4876  4.7465  3.9542
  235MOL0     H31711   9.873   9.521   6.814  0.7367 -1.9296  0.6876
  235MOL0     H31712  10.066   9.690   6.875  1.8043 -0.5672  0.3806
  235MOL0     H31713  10.148  10.092   7.373 -2.2879 -0.2837 -1.6715
  235MOL0     H31714  10.323  10.260   7.358 -0.0371 -0.7266 -1.1856
  235MOL0     H31715  10.651  10.204   7.107  0.3656  1.1890 -1.0130
  235MOL0     H31716  10.557  10.267   6.981 -0.7775 -1.0166  0.1002
  235MOL0     H31717  10.708  10.434   7.196 -1.7865  0.7471  0.4729
  235MOL0     H31718  10.612  10.508   7.078 -0.1004  0.7718  3.3146
  235MOL0     H31719  10.767  10.474   6.919 -1.1829 -2.4910 -1.1995
  235MOL0     H31720  10.806  10.307   6.968 -1.6085  0.0031  1.4041
  235MOL0     H31721  11.013  10.435   7.002  0.6280 -0.3566 -0.3875
  235MOL0     H31722  10.951  10.427   7.170 -0.4382  1.9441  0.4787
  235MOL0     H31723  10.940  10.838   7.022 -2.5258 -0.0411 -0.3647
  235MOL0     H31724  10.439  10.089   6.983  0.8150  0.1028 -0.2068
  235MOL0     H31725  10.276   9.917   7.002 -0.9423 -0.1974 -0.0075
  236MOL0     O31726   2.854   7.497   8.936  0.1355 -0.0120  0.1647
  236MOL0     C31727   2.866   7.565   9.034 -0.6552 -0.7503  0.3327
  236MOL0     O31728   2.766   7.615   9.109  0.0042  0.4634  0.7465
  236MOL0     C31729   2.646   7.549   9.109 -0.4050  0.5951 -0.9512
  236MOL0     C31730   2.533   7.625   9.148  0.6819 -0.3909  0.9612
  236MOL0     C31731   2.409   7.570   9.178  0.9071  0.1701 -0.6653
  236MOL0     C31732   2.390   7.427   9.169 -0.3602  0.2695  0.4819
  236MOL0     O31733   2.274   7.361   9.195  0.1331 -0.2496  0.0726
  236MOL0     C31734   2.153   7.446   9.206  0.7710  0.1618  0.0713
  236MOL0     C31735   2.048   7.342   9.205  0.5054  0.1697 -0.6145
  236MOL0     C31736   1.918   7.408   9.150 -0.0591  0.0184 -0.3768
  236MOL0     C31737   1.798   7.326   9.195  0.8559 -0.0290  0.4985
  236MOL0     C31738   1.663   7.391   9.152  0.0069  0.4558  1.1219
  236MOL0     C31739   1.541   7.323   9.224 -0.6363  0.0964 -0.4990
  236MOL0     C31740   1.415   7.339   9.136  0.8110 -0.1753 -0.1287
  236MOL0     C31741   1.371   7.481   9.095 -0.1906 -0.0835 -0.0874
  236MOL0     N31742   1.244   7.466   9.015  0.4900 -0.4553 -0.5960
  236MOL0     C31743   1.122   7.443   9.071  1.1397  0.0476 -1.0292
  236MOL0     C31744   1.035   7.441   8.970 -0.0518 -0.2916  0.6084
  236MOL0     C31745   0.886   7.435   8.984  0.1138 -0.3577  0.0772
  236MOL0     C31746   0.828   7.328   9.078  0.1047 -0.8631 -0.4203
  236MOL0     C31747   0.673   7.333   9.105 -0.1435  0.5269 -0.5162
  236MOL0     C31748   0.598   7.260   9.008  0.1628  0.0844 -0.9994
  236MOL0     O31749   0.462   7.276   9.045  0.3682 -0.4531 -0.1856
  236MOL0     C31750   0.362   7.266   8.951 -0.1257  0.1234  0.1877
  236MOL0     C31751   0.375   7.177   8.843 -0.2572  0.2272  0.0576
  236MOL0     C31752   0.274   7.156   8.742 -0.5085  0.5631 -0.1841
  236MOL0     C31753   0.306   7.071   8.630  0.5550  0.3778  0.4528
  236MOL0     C31754   0.142   7.210   8.761 -0.5056  0.4451  0.7403
  236MOL0     C31755   0.019   7.174   8.689 -0.7936 -0.3336 -0.4229
  236MOL0     O31756  -0.091   7.258   8.704 -0.9218  0.4109  0.9073
  236MOL0     C31757  -0.213   7.222   8.666 -0.4119  0.7353  0.4485
  236MOL0     C31758  -0.258   7.084   8.676 -0.2042  0.1515 -0.7436
  236MOL0     C31759  -0.387   7.052   8.651  0.4419 -0.1928 -0.5892
  236MOL0     C31760  -0.484   7.145   8.608  0.6190  0.4012  0.4126
  236MOL0     O31761  -0.614   7.096   8.584  0.2351  0.6475  0.6601
  236MOL0     C31762  -0.704   7.177   8.509 -1.4691  0.1317  0.6530
  236MOL0     C31763  -0.806   7.094   8.430  0.2033  0.0294  0.2444
  236MOL0     C31764  -0.896   7.184   8.341 -0.9591  0.4921  0.1509
  236MOL0     C31765  -0.991   7.099   8.255  0.1615  0.5330  0.3180
  236MOL0     C31766  -1.084   7.189   8.181  0.2603 -0.0938  1.1337
  236MOL0     C31767  -1.189   7.110   8.104 -0.4118  1.4773  0.4051
  236MOL0     C31768  -1.324   7.184   8.078  0.4503  0.8208 -0.6595
  236MOL0     C31769  -1.438   7.086   8.045 -0.2360  0.3627 -0.4336
  236MOL0    Cl31770  -1.390   7.000   7.893 -0.3492  0.1040  0.3885
  236MOL0     C31771  -0.447   7.279   8.604 -0.7002  0.7143  0.1829
  236MOL0     C31772  -0.306   7.315   8.625 -0.2485  0.6613  0.5995
  236MOL0     O31773   0.018   7.071   8.626  0.2281 -1.0144  0.0737
  236MOL0     C31774   0.136   7.301   8.865  0.4556 -0.0178  0.1853
  236MOL0     C31775   0.246   7.333   8.949 -0.1608  0.1147  0.1087
  236MOL0     N31776   1.105   7.444   8.850  0.5574 -0.0806 -0.0845
  236MOL0     N31777   1.234   7.441   8.882 -0.4039 -0.9240  0.0249
  236MOL0     C31778   2.495   7.345   9.126 -0.1087  0.2665  0.7299
  236MOL0     C31779   2.623   7.403   9.099 -0.1466  1.0243 -0.4741
  236MOL0     C31780   3.007   7.609   9.058  0.6779 -0.3960 -0.3930
  236MOL0     C31781   3.031   7.726   9.140 -0.4089 -0.1832 -0.1832
  236MOL0     C31782   3.154   7.775   9.164 -0.1375 -0.0654 -0.0409
  236MOL0     C31783   3.273   7.713   9.119  0.4345 -0.1057  0.1714
  236MOL0     O31784   3.391   7.781   9.140 -0.0163  0.4258  0.3826
  236MOL0     C31785   3.504   7.746   9.063 -0.8498  0.5877  0.2168
  236MOL0     C31786   3.617   7.847   9.088  0.7642  0.5044 -0.1162
  236MOL0     C31787   3.670   7.840   9.233  0.0514  0.1411  0.3015
  236MOL0     C31788   3.810   7.899   9.244  0.5345  0.2487 -0.4082
  236MOL0     C31789   3.813   8.044   9.230  0.1127  0.2063 -0.9278
  236MOL0     C31790   3.807   8.159   9.198  0.0472  0.3095  0.6327
  236MOL0     C31791   3.256   7.602   9.033 -0.0754 -0.3731  0.0231
  236MOL0     C31792   3.126   7.556   8.997 -0.3777  0.5091 -0.2418
  236MOL0     H31793   2.546   7.732   9.160 -4.9885  0.7299  0.1338
  236MOL0     H31794   2.317   7.624   9.194 -0.3532 -1.8126 -0.7965
  236MOL0     H31795   2.146   7.507   9.296  2.8343 -0.4851  0.7134
  236MOL0     H31796   2.140   7.507   9.116 -0.4948 -2.2774 -1.5196
  236MOL0     H31797   2.081   7.258   9.144  0.0678  0.2827 -1.0055
  236MOL0     H31798   2.039   7.296   9.304  1.3407  1.0748 -0.0915
  236MOL0     H31799   1.902   7.504   9.201  1.7132 -1.1317  2.5735
  236MOL0     H31800   1.908   7.424   9.043 -0.0952  3.7834  0.0325
  236MOL0     H31801   1.811   7.220   9.169 -0.2655 -0.0349 -0.1030
  236MOL0     H31802   1.785   7.338   9.302 -2.0529  3.2240 -0.0505
  236MOL0     H31803   1.670   7.497   9.176 -0.3704  0.6597  0.3807
  236MOL0     H31804   1.643   7.384   9.044 -1.0282 -0.6131  1.3580
  236MOL0     H31805   1.556   7.214   9.228  0.1879  0.1827 -1.0213
  236MOL0     H31806   1.535   7.369   9.323  0.7839 -0.8347  0.0656
  236MOL0     H31807   1.434   7.270   9.053  1.5636 -2.2878  1.6986
  236MOL0     H31808   1.325   7.294   9.181 -0.2219  1.3562 -0.5921
  236MOL0     H31809   1.453   7.528   9.040  0.9320 -0.5400  1.1397
  236MOL0     H31810   1.363   7.538   9.188  2.4085 -2.7163  1.8911
  236MOL0     H31811   1.099   7.446   9.177  1.5648 -0.5415 -0.9155
  236MOL0     H31812   0.849   7.537   8.998  0.3215 -0.0327 -1.5403
  236MOL0     H31813   0.851   7.408   8.884  1.5750  0.7897 -0.7956
  236MOL0     H31814   0.873   7.343   9.177  2.9097 -2.0316 -1.4120
  236MOL0     H31815   0.868   7.234   9.038  0.0958 -0.7895 -0.6045
  236MOL0     H31816   0.647   7.439   9.107  0.1691  0.6671 -2.2976
  236MOL0     H31817   0.653   7.299   9.207  2.0780  1.5825  0.3266
  236MOL0     H31818   0.623   7.154   9.018 -2.7299 -0.4655  2.0610
  236MOL0     H31819   0.607   7.288   8.902 -2.5655 -1.8617 -1.8769
  236MOL0     H31820   0.461   7.112   8.829 -1.0795 -0.4072 -2.5856
  236MOL0     H31821   0.410   7.038   8.627  0.1288 -1.3227  2.4947
  236MOL0     H31822   0.251   6.978   8.649  2.7148 -0.8271  1.0980
  236MOL0     H31823   0.269   7.114   8.536 -0.1685 -1.1633 -0.0100
  236MOL0     H31824  -0.195   7.005   8.716  0.4296  1.1762  0.3045
  236MOL0     H31825  -0.430   6.955   8.676  0.7465  0.0940  1.2247
  236MOL0     H31826  -0.750   7.253   8.574  0.5069  2.6624 -0.7232
  236MOL0     H31827  -0.643   7.233   8.438 -1.3963 -0.1876  0.4647
  236MOL0     H31828  -0.747   7.038   8.356 -1.2530 -2.0066  0.5160
  236MOL0     H31829  -0.864   7.035   8.502  1.6560  1.3617  2.5995
  236MOL0     H31830  -0.827   7.238   8.275 -0.4911  0.1247  0.3342
  236MOL0     H31831  -0.953   7.258   8.397 -1.3395  0.3327 -0.0256
  236MOL0     H31832  -0.932   7.033   8.191 -0.1738  0.9685 -0.4493
  236MOL0     H31833  -1.047   7.029   8.318  0.3531 -0.2117 -0.3246
  236MOL0     H31834  -1.033   7.256   8.111 -2.9964  0.4893 -0.8536
  236MOL0     H31835  -1.135   7.252   8.254 -0.6211 -0.7302  1.0793
  236MOL0     H31836  -1.152   7.082   8.005 -4.6144 -1.8705 -0.5297
  236MOL0     H31837  -1.208   7.014   8.153  1.3049  0.7677 -0.2480
  236MOL0     H31838  -1.329   7.251   7.992  4.7733 -1.0983 -2.7275
  236MOL0     H31839  -1.340   7.240   8.171  0.7584 -2.0809  1.2737
  236MOL0     H31840  -1.539   7.125   8.059 -0.6743 -1.4692  2.0974
  236MOL0     H31841  -1.431   7.010   8.123  2.9931  0.7305 -0.2260
  236MOL0     H31842  -0.514   7.358   8.570 -0.0350  0.3607 -2.1668
  236MOL0     H31843  -0.276   7.418   8.613  1.3770  0.4819  2.5415
  236MOL0     H31844   0.044   7.357   8.876 -0.7086 -1.3221 -2.1230
  236MOL0     H31845   0.228   7.403   9.031 -2.5687  0.0497 -0.2892
  236MOL0     H31846   2.482   7.237   9.132 -0.4962  0.2983  0.5156
  236MOL0     H31847   2.705   7.333   9.081 -1.5158 -0.9296  0.5404
  236MOL0     H31848   2.949   7.783   9.183  0.2288 -0.8722  2.0692
  236MOL0     H31849   3.166   7.861   9.229  0.9008 -0.6590  0.5820
  236MOL0     H31850   3.539   7.644   9.080  0.4000  0.6952 -1.4195
  236MOL0     H31851   3.475   7.765   8.959 -0.8916  3.6699  0.6968
  236MOL0     H31852   3.587   7.950   9.071  1.2071  0.8912  1.3721
  236MOL0     H31853   3.698   7.838   9.015  0.1061 -0.2019 -0.7954
  236MOL0     H31854   3.682   7.733   9.252  2.1454  0.5698  1.7492
  236MOL0     H31855   3.608   7.889   9.308  0.7876 -2.1148  2.5262
  236MOL0     H31856   3.877   7.849   9.173  0.5326  1.6529 -1.4633
  236MOL0     H31857   3.845   7.883   9.346 -3.3653 -0.7938  0.9057
  236MOL0     H31858   3.798   8.264   9.179 -0.6201  0.1220 -0.1234
  236MOL0     H31859   3.344   7.562   8.983  2.9504  2.5825  2.4284
  236MOL0     H31860   3.118   7.469   8.933  4.6311 -0.0398 -0.4800
  237MOL0     O31861   5.288   8.783   8.379  0.1162 -0.5796  1.0451
  237MOL0     C31862   5.357   8.687   8.409 -0.9732  0.1983  1.4011
  237MOL0     O31863   5.339   8.560   8.360 -0.1569  0.2511 -0.8109
  237MOL0     C31864   5.252   8.539   8.251  0.3454 -0.1602 -0.4936
  237MOL0     C31865   5.260   8.616   8.129  0.8420 -0.2168  0.7938
  237MOL0     C31866   5.176   8.585   8.019 -0.2336  0.3226 -0.5068
  237MOL0     C31867   5.080   8.482   8.029  0.4741  0.1778  0.0959
  237MOL0     O31868   5.008   8.447   7.917  0.0640  0.0625  0.1403
  237MOL0     C31869   4.870   8.394   7.929 -0.3311  0.1596  0.7986
  237MOL0     C31870   4.832   8.404   7.777 -0.7207  0.1040 -0.9220
  237MOL0     C31871   4.686   8.379   7.737 -0.6963 -0.0189  0.5146
  237MOL0     C31872   4.633   8.232   7.762 -0.1934  0.5900 -0.5125
  237MOL0     C31873   4.501   8.200   7.691  0.0030  0.2377  0.0276
  237MOL0     C31874   4.380   8.282   7.734  0.4894  0.2129 -0.1301
  237MOL0     C31875   4.259   8.268   7.646  0.0456  0.2916  0.9464
  237MOL0     C31876   4.141   8.325   7.722 -0.8102 -0.5418  0.0236
  237MOL0     N31877   4.016   8.299   7.640  0.0440  0.3460  0.0059
  237MOL0     C31878   3.986   8.333   7.514 -0.3444  0.4252 -0.5241
  237MOL0     C31879   3.863   8.285   7.486  0.0863  0.4038  0.5678
  237MOL0     C31880   3.772   8.311   7.364 -0.0179 -0.5215 -0.5208
  237MOL0     C31881   3.832   8.383   7.248  0.6410  0.0491  0.3549
  237MOL0     C31882   3.727   8.403   7.132 -0.4710 -0.7101  0.9312
  237MOL0     C31883   3.619   8.502   7.161  0.1472 -0.3513 -0.6857
  237MOL0     O31884   3.534   8.509   7.051  0.8518  0.1953  0.2749
  237MOL0     C31885   3.410   8.566   7.080 -0.8335 -0.4891  0.0811
  237MOL0     C31886   3.370   8.643   7.195  0.5607 -0.0391 -0.4137
  237MOL0     C31887   3.245   8.676   7.232  0.1221  0.0200  0.4028
  237MOL0     C31888   3.216   8.754   7.363  0.1414  0.1256  0.0753
  237MOL0     C31889   3.143   8.645   7.131  0.7121  0.7903 -0.0377
  237MOL0     C31890   2.995   8.690   7.133  0.7341  0.4482 -0.8179
  237MOL0     O31891   2.908   8.626   7.053  0.4619  0.2815  0.1927
  237MOL0     C31892   2.770   8.660   7.062  0.0430  0.3055 -0.2723
  237MOL0     C31893   2.721   8.797   7.041 -0.4689  0.3662 -0.1836
  237MOL0     C31894   2.583   8.820   7.047  0.5967 -0.1965  0.6713
  237MOL0     C31895   2.493   8.716   7.055 -0.3545 -0.4260  0.3965
  237MOL0     O31896   2.359   8.730   7.041  0.2930  0.3779  0.1795
  237MOL0     C31897   2.302   8.865   7.056  0.3760  0.7344 -0.3959
  237MOL0     C31898   2.147   8.872   7.082  0.4969  0.0253 -0.0354
  237MOL0     C31899   2.100   9.020   7.084 -0.1136 -0.0227  0.3833
  237MOL0     C31900   1.969   9.031   7.163  1.3465  0.1842 -0.1148
  237MOL0     C31901   1.916   9.175   7.171  0.3388  0.5716 -0.6136
  237MOL0     C31902   1.974   9.235   7.299  0.1578 -0.0454 -0.5393
  237MOL0     C31903   1.918   9.384   7.315 -0.8525  0.6044  1.2500
  237MOL0     C31904   1.930   9.450   7.452  0.6851 -0.5136 -0.4616
  237MOL0    Cl31905   2.084   9.408   7.523 -0.1449  0.3129  0.0384
  237MOL0     C31906   2.541   8.589   7.063 -0.4170  0.3849  0.0665
  237MOL0     C31907   2.675   8.553   7.062 -0.0028  0.5108  0.2896
  237MOL0     O31908   2.962   8.760   7.228  0.2023 -0.2405 -0.1184
  237MOL0     C31909   3.181   8.574   7.016 -1.1317 -1.1517  1.3772
  237MOL0     C31910   3.312   8.530   6.990 -0.0385 -0.4299 -0.3759
  237MOL0     N31911   3.820   8.223   7.594  0.0608  0.3540  0.3101
  237MOL0     N31912   3.908   8.224   7.686 -0.2943 -0.2579  0.0160
  237MOL0     C31913   5.066   8.416   8.153  0.4967  0.3501  0.2671
  237MOL0     C31914   5.157   8.439   8.263  0.1641  0.2359  1.2828
  237MOL0     C31915   5.477   8.707   8.493 -0.4392 -1.6533  0.1668
  237MOL0     C31916   5.546   8.829   8.487  0.3272 -0.7992  0.5053
  237MOL0     C31917   5.661   8.843   8.560 -0.5938 -0.1781  0.4527
  237MOL0     C31918   5.716   8.743   8.639 -0.0565  0.0079 -0.3053
  237MOL0     O31919   5.824   8.770   8.719  0.2140 -0.4070  0.4839
  237MOL0     C31920   5.862   8.670   8.816  0.1905  0.2607  0.1311
  237MOL0     C31921   6.010   8.689   8.834 -0.3531 -0.1545 -0.2500
  237MOL0     C31922   6.088   8.679   8.704 -0.5223  0.0606 -0.2467
  237MOL0     C31923   6.234   8.647   8.731 -0.0638 -0.2934 -0.4584
  237MOL0     C31924   6.321   8.713   8.628  0.3486 -0.5916  0.1157
  237MOL0     C31925   6.387   8.760   8.534  0.2195  1.1512 -0.5247
  237MOL0     C31926   5.645   8.619   8.640 -0.8583  0.7998  0.3119
  237MOL0     C31927   5.523   8.607   8.570  0.5864  0.2098 -0.3551
  237MOL0     H31928   5.330   8.698   8.122  0.7895 -0.3196 -1.9034
  237MOL0     H31929   5.186   8.642   7.927 -3.0978 -1.3205 -1.9646
  237MOL0     H31930   4.869   8.293   7.970  3.4567  0.1239  1.1348
  237MOL0     H31931   4.799   8.449   7.991 -1.8600 -1.6596  0.7605
  237MOL0     H31932   4.859   8.502   7.736  1.7708 -0.0257  0.2299
  237MOL0     H31933   4.895   8.330   7.727 -0.4374  0.4853 -1.1327
  237MOL0     H31934   4.625   8.443   7.800  2.3434  1.5430  2.0867
  237MOL0     H31935   4.685   8.421   7.636 -0.3171  0.7792  0.8379
  237MOL0     H31936   4.703   8.151   7.736 -0.2891  0.6227 -0.8851
  237MOL0     H31937   4.623   8.211   7.868 -2.6046 -0.9687 -0.9832
  237MOL0     H31938   4.532   8.199   7.586  2.5733 -0.4863  0.7412
  237MOL0     H31939   4.479   8.095   7.712  0.5725 -0.0607 -0.8012
  237MOL0     H31940   4.358   8.276   7.841 -1.4723  2.0878 -0.3589
  237MOL0     H31941   4.415   8.384   7.719 -3.5670  1.7206 -0.6154
  237MOL0     H31942   4.274   8.320   7.551 -2.3047 -0.7141 -0.0523
  237MOL0     H31943   4.243   8.164   7.618  0.9654  0.5430 -0.6124
  237MOL0     H31944   4.154   8.433   7.735  1.1353 -0.5503 -1.3001
  237MOL0     H31945   4.124   8.285   7.822  1.2125  2.1165  1.5712
  237MOL0     H31946   4.040   8.409   7.458 -0.3258  1.1606  0.4852
  237MOL0     H31947   3.749   8.208   7.337 -1.1031 -0.9372  1.7244
  237MOL0     H31948   3.687   8.362   7.411  1.9957  1.4324  1.2100
  237MOL0     H31949   3.919   8.325   7.216 -1.2167 -1.1394 -3.1185
  237MOL0     H31950   3.870   8.477   7.288 -0.8320 -0.5020  3.2619
  237MOL0     H31951   3.674   8.308   7.114 -1.4765 -0.4454  2.2870
  237MOL0     H31952   3.778   8.430   7.040 -1.8204 -0.0329  0.3573
  237MOL0     H31953   3.661   8.600   7.185 -1.2235  0.4001 -1.2080
  237MOL0     H31954   3.561   8.465   7.246 -0.5522 -1.0069 -1.4373
  237MOL0     H31955   3.451   8.686   7.253 -0.7826  5.1113 -1.8667
  237MOL0     H31956   3.306   8.761   7.425 -0.2032  0.4613  0.5528
  237MOL0     H31957   3.179   8.849   7.324 -0.5728 -1.4724 -3.4538
  237MOL0     H31958   3.142   8.693   7.416  0.7104 -1.5383 -0.9926
  237MOL0     H31959   2.791   8.880   7.047  0.4725 -0.4948  1.4975
  237MOL0     H31960   2.558   8.924   7.028  2.0260  0.0844  0.1589
  237MOL0     H31961   2.333   8.921   7.145 -3.0133 -0.7303  1.9032
  237MOL0     H31962   2.321   8.921   6.964 -2.2909  2.4324  0.0123
  237MOL0     H31963   2.095   8.829   6.995  0.4440  2.3817 -1.2424
  237MOL0     H31964   2.125   8.811   7.171  4.8908 -3.4295 -0.9364
  237MOL0     H31965   2.096   9.052   6.980 -1.1379  1.5598  0.8660
  237MOL0     H31966   2.169   9.085   7.138  0.4941  0.3850 -0.8584
  237MOL0     H31967   1.900   8.962   7.113  0.2235 -0.4361  2.1332
  237MOL0     H31968   1.976   8.984   7.262 -1.9768 -0.3687 -0.0249
  237MOL0     H31969   1.808   9.181   7.184  0.6120 -0.1825  3.2658
  237MOL0     H31970   1.946   9.230   7.082  1.1145 -0.4271 -0.9939
  237MOL0     H31971   1.937   9.172   7.381  0.1079  2.3267  1.3537
  237MOL0     H31972   2.083   9.238   7.292  0.2157  2.5564  0.5260
  237MOL0     H31973   1.819   9.404   7.272  0.0765  0.7047 -0.9972
  237MOL0     H31974   1.984   9.440   7.249 -1.5833 -1.1273 -1.1043
  237MOL0     H31975   1.857   9.404   7.520  0.5695 -0.9245 -0.8594
  237MOL0     H31976   1.923   9.559   7.452  0.1549 -0.4547  2.7619
  237MOL0     H31977   2.460   8.517   7.053 -1.0635  0.9487  1.1037
  237MOL0     H31978   2.709   8.450   7.059 -3.4860 -0.7666 -1.4653
  237MOL0     H31979   3.108   8.554   6.938  1.2899 -3.1160 -0.5270
  237MOL0     H31980   3.341   8.477   6.900  0.5387  1.3154 -1.2723
  237MOL0     H31981   4.993   8.336   8.165  1.1112 -0.4518 -1.0225
  237MOL0     H31982   5.168   8.374   8.349  1.3088 -1.0884  0.1766
  237MOL0     H31983   5.516   8.913   8.424  0.7032 -0.8972  0.1888
  237MOL0     H31984   5.713   8.938   8.559  0.0641 -0.5067  1.6879
  237MOL0     H31985   5.817   8.698   8.912 -2.4763  1.3951 -1.3539
  237MOL0     H31986   5.839   8.568   8.782 -0.2930  1.3809 -3.2571
  237MOL0     H31987   6.053   8.619   8.907 -2.7009  1.3645  2.8234
  237MOL0     H31988   6.021   8.790   8.873  1.0073 -1.1056  2.0480
  237MOL0     H31989   6.084   8.773   8.648 -1.5708 -0.9662 -1.9976
  237MOL0     H31990   6.048   8.602   8.638  0.0053 -1.4506  1.1318
  237MOL0     H31991   6.250   8.538   8.733 -2.0673 -0.6317 -0.9284
  237MOL0     H31992   6.270   8.669   8.832 -0.6053 -2.4083  0.2606
  237MOL0     H31993   6.443   8.810   8.457  1.7896  0.4067  0.0917
  237MOL0     H31994   5.660   8.551   8.723  0.2628 -0.1241 -0.6088
  237MOL0     H31995   5.469   8.514   8.588  0.8496  0.0176 -0.5589
  238MOL0     O31996   8.975   8.114   1.191  0.9150  0.1493  0.0576
  238MOL0     C31997   9.046   8.071   1.096 -0.3479 -0.2532  0.0300
  238MOL0     O31998   9.031   7.951   1.033 -0.6037  0.2872 -0.5446
  238MOL0     C31999   8.931   7.869   1.078  0.1157  0.4475 -0.0515
  238MOL0     C32000   8.966   7.739   1.109 -0.9334  1.0560 -0.1446
  238MOL0     C32001   8.859   7.649   1.141 -0.7867 -0.8712  0.3246
  238MOL0     C32002   8.732   7.695   1.148  0.5151  0.0969 -0.9057
  238MOL0     O32003   8.627   7.603   1.171 -0.0197 -0.0339 -0.0420
  238MOL0     C32004   8.492   7.636   1.214 -0.5183 -0.5673 -0.5257
  238MOL0     C32005   8.429   7.517   1.274 -0.3080  0.5700 -0.2510
  238MOL0     C32006   8.305   7.549   1.365 -0.7753 -0.2551 -0.1096
  238MOL0     C32007   8.174   7.566   1.283 -0.0673  0.1520 -0.2940
  238MOL0     C32008   8.053   7.621   1.359  0.2593 -0.7347  0.3352
  238MOL0     C32009   7.999   7.519   1.467 -0.0163 -0.1609 -1.3091
  238MOL0     C32010   7.881   7.449   1.413 -0.1773 -0.1705 -0.2021
  238MOL0     C32011   7.815   7.382   1.529 -0.4976  0.0246 -0.9861
  238MOL0     N32012   7.705   7.290   1.501 -0.9182  1.0815 -0.7259
  238MOL0     C32013   7.604   7.293   1.408 -1.3078  0.9388 -0.0108
  238MOL0     C32014   7.521   7.186   1.443 -0.1333  0.1305 -0.0669
  238MOL0     C32015   7.392   7.160   1.365 -1.1786  0.0297 -0.7844
  238MOL0     C32016   7.278   7.104   1.452 -0.5112  0.8578  0.0594
  238MOL0     C32017   7.159   7.042   1.376  0.3682 -0.0119  0.7648
  238MOL0     C32018   7.031   7.044   1.465 -0.6532  0.6682  0.1979
  238MOL0     O32019   6.936   6.959   1.411 -0.3799 -0.3589 -0.6893
  238MOL0     C32020   6.806   6.964   1.446 -0.5953  0.0576  0.3090
  238MOL0     C32021   6.750   7.037   1.546 -0.2188 -0.1735 -0.1544
  238MOL0     C32022   6.611   7.030   1.577 -0.1786  0.4411 -0.5704
  238MOL0     C32023   6.560   7.125   1.680 -0.2435 -0.0961  0.2033
  238MOL0     C32024   6.529   6.938   1.512  0.3068  0.5520 -0.7499
  238MOL0     C32025   6.385   6.917   1.541 -0.4078  0.4347  0.0985
  238MOL0     O32026   6.324   6.813   1.486 -0.0015  0.4185 -0.5518
  238MOL0     C32027   6.194   6.778   1.506  0.3173 -0.7370  0.2172
  238MOL0     C32028   6.163   6.641   1.486  0.0132 -0.5389 -0.0853
  238MOL0     C32029   6.031   6.597   1.514 -0.1792  0.5189  0.2076
  238MOL0     C32030   5.931   6.685   1.543 -0.7613 -0.8079 -0.3899
  238MOL0     O32031   5.803   6.638   1.541 -0.1373  0.9743 -0.2222
  238MOL0     C32032   5.686   6.721   1.517 -0.1796 -0.6018  0.4665
  238MOL0     C32033   5.565   6.640   1.503  0.2002  0.1122  1.1640
  238MOL0     C32034   5.449   6.750   1.498 -0.2431  0.6411  1.1484
  238MOL0     C32035   5.312   6.685   1.459 -1.0946  0.3704 -0.3461
  238MOL0     C32036   5.201   6.772   1.501 -1.4265 -0.0114  1.0716
  238MOL0     C32037   5.069   6.704   1.505  0.2131  0.6478  0.3858
  238MOL0     C32038   4.967   6.812   1.539 -0.6403 -0.2095  1.1790
  238MOL0     C32039   4.829   6.744   1.566  0.1599  0.4054 -0.2818
  238MOL0    Cl32040   4.777   6.667   1.421 -0.1945 -0.1531 -0.3931
  238MOL0     C32041   5.960   6.815   1.555 -0.4625 -0.1129 -0.0966
  238MOL0     C32042   6.090   6.861   1.540  0.0369 -0.4594 -0.5077
  238MOL0     O32043   6.336   6.997   1.613  0.8226 -0.3396 -0.2422
  238MOL0     C32044   6.594   6.851   1.421 -0.1335  0.2054 -0.6781
  238MOL0     C32045   6.728   6.864   1.393  0.1101 -1.5819  0.5422
  238MOL0     N32046   7.561   7.139   1.566  0.1156 -0.0341  0.3235
  238MOL0     N32047   7.673   7.194   1.595  0.6159  0.2970 -0.0490
  238MOL0     C32048   8.703   7.834   1.120  0.0475 -0.0666 -0.5850
  238MOL0     C32049   8.807   7.914   1.080 -1.3011 -0.2018 -0.2609
  238MOL0     C32050   9.162   8.156   1.038  0.0287 -0.3114  0.2088
  238MOL0     C32051   9.169   8.295   1.070  0.1651  0.3893 -0.2870
  238MOL0     C32052   9.270   8.364   1.018 -0.2473 -0.2550  0.3103
  238MOL0     C32053   9.363   8.317   0.925  0.4993  0.2550 -0.1232
  238MOL0     O32054   9.453   8.400   0.865  0.1495  0.6967  0.2231
  238MOL0     C32055   9.424   8.542   0.860  0.3527  0.2872  0.4729
  238MOL0     C32056   9.503   8.622   0.964  0.0376 -0.2070  0.5765
  238MOL0     C32057   9.661   8.613   0.932  0.5874 -0.4428  0.0579
  238MOL0     C32058   9.744   8.700   1.025 -0.3449  0.0484 -0.0277
  238MOL0     C32059   9.890   8.672   1.012 -0.8214  0.0864 -0.0749
  238MOL0     C32060  10.005   8.642   1.006 -0.2067 -0.2882  1.0987
  238MOL0     C32061   9.354   8.184   0.893 -0.1291 -0.6760  0.9733
  238MOL0     C32062   9.252   8.105   0.948  0.5731  0.1945  0.4414
  238MOL0     H32063   9.061   7.687   1.098 -1.8417 -0.1598 -3.6108
  238MOL0     H32064   8.879   7.547   1.175 -0.0359 -1.2549 -1.1821
  238MOL0     H32065   8.500   7.710   1.295 -0.7119 -0.6881 -0.3972
  238MOL0     H32066   8.436   7.687   1.135  0.8395  0.3614 -0.9293
  238MOL0     H32067   8.405   7.454   1.188  0.6572 -1.0707  0.6373
  238MOL0     H32068   8.495   7.462   1.342 -2.0830 -0.7799  0.4856
  238MOL0     H32069   8.291   7.469   1.439  0.2637  0.9555  1.4569
  238MOL0     H32070   8.324   7.625   1.441 -1.8447 -1.6646  1.6660
  238MOL0     H32071   8.181   7.643   1.206 -0.0517 -0.0076 -0.4511
  238MOL0     H32072   8.154   7.475   1.227  1.3144  0.6257 -1.6215
  238MOL0     H32073   8.086   7.712   1.409  1.1632 -0.6385 -0.4204
  238MOL0     H32074   7.977   7.656   1.289 -0.6758 -0.0525  1.6414
  238MOL0     H32075   8.080   7.450   1.491 -1.3477 -1.9899 -1.8270
  238MOL0     H32076   7.962   7.565   1.559 -0.4708 -3.2211  0.1570
  238MOL0     H32077   7.811   7.524   1.376 -0.1316 -0.7543 -1.5277
  238MOL0     H32078   7.903   7.381   1.330 -1.5935  0.8222 -1.4468
  238MOL0     H32079   7.782   7.457   1.601 -2.6135 -2.7719  1.2117
  238MOL0     H32080   7.885   7.325   1.590 -1.0291  0.1093 -0.2741
  238MOL0     H32081   7.597   7.355   1.319  2.2516 -0.7683 -1.6709
  238MOL0     H32082   7.363   7.262   1.337 -0.4346  0.2585 -0.7327
  238MOL0     H32083   7.418   7.108   1.272  1.8800  2.8550 -1.7032
  238MOL0     H32084   7.251   7.189   1.516  0.0145 -0.2228  1.8124
  238MOL0     H32085   7.322   7.026   1.515  2.3546  1.1484 -1.4078
  238MOL0     H32086   7.188   6.946   1.333  0.4804  1.8984 -4.0734
  238MOL0     H32087   7.128   7.102   1.290 -0.2754 -0.6108  0.5715
  238MOL0     H32088   6.987   7.144   1.475 -0.8672  0.8296 -1.9945
  238MOL0     H32089   7.059   7.012   1.566 -2.2768 -1.1616  0.1256
  238MOL0     H32090   6.812   7.108   1.600 -0.5291  0.3302 -0.4426
  238MOL0     H32091   6.482   7.190   1.639 -0.5340 -0.3841  0.2892
  238MOL0     H32092   6.516   7.076   1.768  1.3852  1.2919  1.8655
  238MOL0     H32093   6.640   7.190   1.717 -0.5572  0.5329 -0.2106
  238MOL0     H32094   6.242   6.572   1.461  0.9594  0.4517  0.0738
  238MOL0     H32095   6.017   6.492   1.492 -1.8002  1.1386 -2.0583
  238MOL0     H32096   5.672   6.795   1.597 -1.1538 -1.0674  0.7365
  238MOL0     H32097   5.704   6.776   1.424  1.8825 -1.9992 -0.0194
  238MOL0     H32098   5.561   6.577   1.414  1.5522 -1.6773  2.3015
  238MOL0     H32099   5.542   6.576   1.589  0.9207  1.3536  2.3072
  238MOL0     H32100   5.478   6.834   1.435  0.9686 -0.5080  0.1268
  238MOL0     H32101   5.435   6.788   1.600  3.0410  1.2447  1.4669
  238MOL0     H32102   5.314   6.682   1.350 -0.7397 -1.7307 -0.3249
  238MOL0     H32103   5.321   6.588   1.509  0.6825  0.6228 -0.1298
  238MOL0     H32104   5.196   6.863   1.441  1.3293  0.2106  1.0639
  238MOL0     H32105   5.222   6.815   1.599  3.2108  1.5913 -0.3676
  238MOL0     H32106   5.050   6.660   1.407 -0.0313 -0.9327  1.1142
  238MOL0     H32107   5.078   6.627   1.583 -3.0421 -3.8254 -3.1539
  238MOL0     H32108   4.961   6.873   1.448 -2.7655  0.1163  1.4844
  238MOL0     H32109   4.994   6.884   1.616 -1.1616  1.2197  0.0814
  238MOL0     H32110   4.757   6.822   1.591 -0.5102 -0.9819  2.4546
  238MOL0     H32111   4.840   6.676   1.651  0.6240  2.3166  1.2619
  238MOL0     H32112   5.879   6.883   1.582 -0.8706 -0.7570  0.3357
  238MOL0     H32113   6.118   6.965   1.546 -2.3546  0.1740  1.4590
  238MOL0     H32114   6.529   6.777   1.375  1.3220 -0.5598 -1.5662
  238MOL0     H32115   6.770   6.787   1.329 -0.9162  1.0737 -3.6987
  238MOL0     H32116   8.602   7.874   1.125  0.1069  0.4642 -2.6409
  238MOL0     H32117   8.781   8.016   1.051  3.2124  0.7984 -1.5831
  238MOL0     H32118   9.111   8.339   1.151 -1.0299  0.3471 -1.0918
  238MOL0     H32119   9.272   8.466   1.053 -1.2688  0.2585 -1.0432
  238MOL0     H32120   9.465   8.565   0.761 -0.9948  2.1356  0.2966
  238MOL0     H32121   9.317   8.560   0.867  0.2005  0.1371 -1.0702
  238MOL0     H32122   9.482   8.587   1.065 -0.6425  4.7665  2.4422
  238MOL0     H32123   9.476   8.728   0.968  0.9226 -0.0045  1.7965
  238MOL0     H32124   9.673   8.649   0.830 -0.9107 -0.6104 -0.2023
  238MOL0     H32125   9.689   8.508   0.922  0.8904 -0.2200 -1.8348
  238MOL0     H32126   9.719   8.691   1.131  0.3711  1.9633  0.3309
  238MOL0     H32127   9.728   8.805   1.002  1.5056  0.7650  1.6981
  238MOL0     H32128  10.100   8.598   0.987  0.9283  2.6396 -0.6540
  238MOL0     H32129   9.404   8.150   0.803  1.4408  0.2874  1.4396
  238MOL0     H32130   9.242   8.003   0.911  2.9120 -0.0212  0.2728
  239MOL0     O32131   9.003   3.825   0.986  0.0277  0.3706  0.3089
  239MOL0     C32132   9.016   3.906   1.076  0.0368 -0.2468  0.1758
  239MOL0     O32133   8.917   3.957   1.147  1.1055 -0.9806 -0.2983
  239MOL0     C32134   8.788   3.917   1.115 -0.3219  0.0953  0.2459
  239MOL0     C32135   8.697   4.024   1.100  0.1012  0.3358  0.2164
  239MOL0     C32136   8.562   3.995   1.066 -0.0110 -0.1395  0.7593
  239MOL0     C32137   8.512   3.864   1.060  0.1527  0.2069 -0.4184
  239MOL0     O32138   8.383   3.821   1.035 -0.3193  0.2298  0.3397
  239MOL0     C32139   8.282   3.917   1.011  0.1260 -0.3351  0.0602
  239MOL0     C32140   8.168   3.849   0.943  0.0322  0.0509  0.1365
  239MOL0     C32141   8.066   3.788   1.042  0.1887  0.2359 -0.3345
  239MOL0     C32142   7.993   3.680   0.954 -0.0084 -1.0175  0.0462
  239MOL0     C32143   7.868   3.613   1.021  0.2567  0.4894 -0.4663
  239MOL0     C32144   7.744   3.706   1.014 -1.3243  0.0309 -0.4716
  239MOL0     C32145   7.667   3.703   0.884 -0.0591  0.0567 -0.0436
  239MOL0     C32146   7.575   3.582   0.874 -0.3889 -0.8823 -0.1660
  239MOL0     N32147   7.474   3.591   0.981 -0.7136 -0.4234 -0.0167
  239MOL0     C32148   7.464   3.531   1.108  0.3606 -0.2186 -0.4873
  239MOL0     C32149   7.344   3.576   1.156  1.0254  0.3862 -1.1794
  239MOL0     C32150   7.293   3.550   1.298  0.8091  0.8609 -0.0659
  239MOL0     C32151   7.295   3.684   1.375  0.7993  0.5346 -0.1666
  239MOL0     C32152   7.240   3.672   1.517  0.7681 -0.3805 -0.0744
  239MOL0     C32153   7.077   3.670   1.523 -0.3531 -0.5706 -0.4531
  239MOL0     O32154   7.035   3.592   1.637  0.2106 -0.2040  0.2809
  239MOL0     C32155   6.898   3.552   1.655 -0.2079 -0.3666 -0.3281
  239MOL0     C32156   6.808   3.586   1.562  0.2487 -0.3829 -0.6957
  239MOL0     C32157   6.670   3.572   1.588  0.8409  0.4085  0.9475
  239MOL0     C32158   6.578   3.616   1.476  0.7052  0.3545  0.4629
  239MOL0     C32159   6.626   3.491   1.697 -0.2275  0.1787  0.0012
  239MOL0     C32160   6.485   3.450   1.727 -0.6682  0.5055 -0.1835
  239MOL0     O32161   6.384   3.541   1.706 -0.2459 -0.0530 -0.5919
  239MOL0     C32162   6.253   3.507   1.747 -0.6761 -0.3102  0.1696
  239MOL0     C32163   6.193   3.383   1.711  0.2546 -0.6021 -0.1647
  239MOL0     C32164   6.054   3.360   1.739 -0.1993 -0.2378 -0.0915
  239MOL0     C32165   5.974   3.455   1.810 -0.0183 -0.8563 -0.4256
  239MOL0     O32166   5.839   3.432   1.829 -0.1812  0.4725 -0.3027
  239MOL0     C32167   5.755   3.390   1.713  1.3459 -0.7196 -0.4456
  239MOL0     C32168   5.657   3.503   1.684 -0.6820 -0.0460 -0.1853
  239MOL0     C32169   5.539   3.525   1.779 -0.5298  0.3304 -0.6519
  239MOL0     C32170   5.419   3.612   1.737 -0.2454 -0.4270  0.7874
  239MOL0     C32171   5.295   3.576   1.824 -0.3086  0.5923  0.0396
  239MOL0     C32172   5.170   3.667   1.790  0.0699  0.5463  0.6492
  239MOL0     C32173   5.067   3.672   1.902 -0.8753  1.1147 -0.4734
  239MOL0     C32174   4.947   3.741   1.865  0.3893 -0.5108 -0.2014
  239MOL0    Cl32175   4.885   3.697   1.709  0.3401  0.3235 -0.6850
  239MOL0     C32176   6.039   3.572   1.859 -0.5731  0.0924  0.3080
  239MOL0     C32177   6.172   3.598   1.818 -0.1102 -0.1926 -0.1989
  239MOL0     O32178   6.467   3.329   1.757 -1.1675  0.1510  0.0196
  239MOL0     C32179   6.724   3.462   1.793 -0.7855 -0.2790 -0.6585
  239MOL0     C32180   6.855   3.494   1.776 -0.0598  0.0869 -0.1859
  239MOL0     N32181   7.284   3.653   1.061 -0.5191 -0.7492 -0.0728
  239MOL0     N32182   7.360   3.660   0.957  0.2125 -0.3160  0.2076
  239MOL0     C32183   8.608   3.761   1.079  0.0370  0.0893 -0.1708
  239MOL0     C32184   8.744   3.788   1.105 -0.5536  0.7409  0.2865
  239MOL0     C32185   9.146   3.963   1.119 -0.0143 -1.5204  0.2383
  239MOL0     C32186   9.155   4.095   1.177  1.1428  0.0898  0.9629
  239MOL0     C32187   9.274   4.157   1.220  0.0599  1.5285 -0.0893
  239MOL0     C32188   9.392   4.086   1.205  0.6968 -0.2227 -0.7871
  239MOL0     O32189   9.505   4.166   1.232 -0.6639  0.6768 -0.1341
  239MOL0     C32190   9.629   4.098   1.263 -0.3419 -0.3933  0.2091
  239MOL0     C32191   9.628   4.074   1.411 -1.2040  0.2153  0.8021
  239MOL0     C32192   9.576   4.186   1.504  1.2013  0.0695  0.1379
  239MOL0     C32193   9.674   4.306   1.515 -0.2351  0.7895  0.3989
  239MOL0     C32194   9.812   4.283   1.553  0.2517 -1.0290 -0.3830
  239MOL0     C32195   9.918   4.255   1.596 -0.4177  0.1829  0.5788
  239MOL0     C32196   9.386   3.953   1.159  0.1258 -0.5528 -0.1714
  239MOL0     C32197   9.268   3.889   1.113  0.5851  0.4088 -0.3309
  239MOL0     H32198   8.725   4.129   1.108  2.3686 -0.2404  0.4515
  239MOL0     H32199   8.502   4.081   1.040  0.7337 -0.4257 -2.3740
  239MOL0     H32200   8.248   3.963   1.105  2.3226  1.1163  0.2226
  239MOL0     H32201   8.317   3.997   0.945  1.9496 -1.1966 -0.0967
  239MOL0     H32202   8.110   3.912   0.875  0.6574  0.5872  0.0888
  239MOL0     H32203   8.208   3.763   0.889 -1.5674 -0.9211  0.4096
  239MOL0     H32204   8.120   3.737   1.122 -2.0736  0.6015  1.5288
  239MOL0     H32205   8.007   3.868   1.088  2.4550  0.9892  1.4376
  239MOL0     H32206   7.953   3.730   0.865 -2.2374 -1.7332  0.5938
  239MOL0     H32207   8.067   3.602   0.933  0.1820 -1.0582  0.8126
  239MOL0     H32208   7.842   3.516   0.979 -0.6463  0.2905  0.5113
  239MOL0     H32209   7.876   3.604   1.130 -1.2677 -1.7110 -0.4648
  239MOL0     H32210   7.679   3.694   1.101 -1.2184  0.6990 -0.2892
  239MOL0     H32211   7.777   3.809   1.032 -0.4536 -0.7049  2.6812
  239MOL0     H32212   7.612   3.797   0.869  0.1700 -0.0560 -1.8655
  239MOL0     H32213   7.739   3.695   0.802  0.4293 -1.2740  0.4960
  239MOL0     H32214   7.647   3.500   0.881 -1.5060 -2.2900 -3.1416
  239MOL0     H32215   7.515   3.568   0.783 -2.8248  0.4786  1.1112
  239MOL0     H32216   7.537   3.458   1.142  1.4760  0.9091 -0.3532
  239MOL0     H32217   7.192   3.510   1.285 -0.0124  2.0451  2.1291
  239MOL0     H32218   7.354   3.473   1.347 -1.8621 -1.1037  0.3605
  239MOL0     H32219   7.236   3.755   1.318 -0.8799  0.0794  0.9225
  239MOL0     H32220   7.397   3.722   1.390  0.6356  0.3615  1.5923
  239MOL0     H32221   7.267   3.760   1.575  0.7664 -1.5614  1.7786
  239MOL0     H32222   7.273   3.583   1.570  0.1828 -1.3654 -1.3070
  239MOL0     H32223   7.039   3.628   1.429 -1.0935 -4.0751  1.2471
  239MOL0     H32224   7.042   3.771   1.544 -1.5369 -1.3037  1.2968
  239MOL0     H32225   6.840   3.630   1.467  1.5302 -0.5970 -0.3891
  239MOL0     H32226   6.516   3.529   1.454 -1.9315  1.5635  2.5755
  239MOL0     H32227   6.509   3.692   1.514 -0.8722 -0.0333 -1.4415
  239MOL0     H32228   6.628   3.647   1.384 -1.6479  3.1361 -0.0271
  239MOL0     H32229   6.243   3.312   1.646  0.5039 -0.2339 -0.3811
  239MOL0     H32230   6.015   3.269   1.695 -0.3625  0.3166 -1.1361
  239MOL0     H32231   5.820   3.364   1.629 -0.3882  0.3896 -2.2208
  239MOL0     H32232   5.700   3.296   1.724  0.2030 -0.1480 -1.1337
  239MOL0     H32233   5.722   3.591   1.678 -0.4010 -0.2505 -0.1293
  239MOL0     H32234   5.620   3.482   1.584 -1.9642 -1.0398  0.4669
  239MOL0     H32235   5.566   3.562   1.878 -1.0110 -1.1274  0.0656
  239MOL0     H32236   5.507   3.421   1.792  0.3594  0.3207  1.9533
  239MOL0     H32237   5.447   3.717   1.746  1.3694 -0.9086  1.7055
  239MOL0     H32238   5.407   3.587   1.631 -2.1855 -2.8644  1.4891
  239MOL0     H32239   5.322   3.582   1.929 -1.3242 -2.7526  0.5971
  239MOL0     H32240   5.269   3.472   1.806 -0.6508  0.8312 -0.9206
  239MOL0     H32241   5.203   3.770   1.777 -2.2510  1.0541 -2.1191
  239MOL0     H32242   5.124   3.636   1.696  0.0405  0.4397  0.6988
  239MOL0     H32243   5.109   3.725   1.988 -0.1043  2.6830 -1.7386
  239MOL0     H32244   5.050   3.571   1.938  0.6903  0.8274 -0.4509
  239MOL0     H32245   4.978   3.846   1.866  0.4346 -0.5281  0.0711
  239MOL0     H32246   4.865   3.732   1.936 -0.2214 -1.2851 -0.9747
  239MOL0     H32247   5.978   3.644   1.913 -0.8820 -2.1503  3.2726
  239MOL0     H32248   6.218   3.691   1.847  1.5159  0.9700 -5.3829
  239MOL0     H32249   6.703   3.402   1.881 -2.5694 -1.6576 -1.9475
  239MOL0     H32250   6.933   3.475   1.849  1.5513 -0.6550 -2.0145
  239MOL0     H32251   8.572   3.659   1.074 -0.7778  0.4180 -1.5079
  239MOL0     H32252   8.814   3.709   1.133 -3.2577 -1.5918  0.9038
  239MOL0     H32253   9.067   4.155   1.197  2.5068  1.9048  1.8742
  239MOL0     H32254   9.282   4.258   1.258  2.0332 -0.0070  4.2544
  239MOL0     H32255   9.647   4.004   1.211 -0.4979 -0.9888  1.2059
  239MOL0     H32256   9.712   4.163   1.233 -1.2965  0.5893 -0.3953
  239MOL0     H32257   9.730   4.055   1.446 -0.3886  1.7872 -0.5272
  239MOL0     H32258   9.572   3.981   1.420 -0.6605 -0.3049 -0.7510
  239MOL0     H32259   9.568   4.155   1.608 -0.9062  0.8429  0.2464
  239MOL0     H32260   9.475   4.214   1.473  1.0453  2.0374  2.1720
  239MOL0     H32261   9.638   4.366   1.599  2.0388  1.6275  0.8517
  239MOL0     H32262   9.679   4.363   1.422  4.2728  0.5490  0.2655
  239MOL0     H32263  10.006   4.210   1.637 -0.6291  0.9633  1.9308
  239MOL0     H32264   9.473   3.889   1.161  1.1727  0.8293  0.0711
  239MOL0     H32265   9.275   3.783   1.092  3.7367 -0.3688  3.5781
  240MOL0     O32266   9.600   3.454   9.602 -0.0593  0.0040  0.2702
  240MOL0     C32267   9.621   3.561   9.549  0.0299  0.1472  0.5698
  240MOL0     O32268   9.553   3.605   9.437  0.1842  0.1200  0.0128
  240MOL0     C32269   9.451   3.532   9.381 -0.2291  0.2556  0.0999
  240MOL0     C32270   9.356   3.460   9.454  0.9213  0.1695  1.0362
  240MOL0     C32271   9.254   3.407   9.378  0.4700  0.6564  1.1233
  240MOL0     C32272   9.244   3.418   9.239  0.4605 -1.0687 -1.0808
  240MOL0     O32273   9.139   3.356   9.181 -0.3710  0.5077  0.2261
  240MOL0     C32274   9.147   3.299   9.048  0.1266 -0.6219 -0.0229
  240MOL0     C32275   9.011   3.219   9.024 -0.1334 -0.0619  0.9116
  240MOL0     C32276   8.893   3.311   9.007  0.0877  0.1636  1.0530
  240MOL0     C32277   8.761   3.229   9.026 -0.9727  0.2387 -0.6495
  240MOL0     C32278   8.653   3.342   9.037  0.6504 -0.4355  0.8161
  240MOL0     C32279   8.514   3.288   9.057 -0.0656 -0.2604  0.2704
  240MOL0     C32280   8.480   3.260   9.202  0.3372 -0.0993  0.6939
  240MOL0     C32281   8.444   3.378   9.291 -0.4294  0.0198  0.2766
  240MOL0     N32282   8.336   3.461   9.236  0.3797  0.5100 -0.3486
  240MOL0     C32283   8.322   3.596   9.246  0.3800  0.2167  0.0239
  240MOL0     C32284   8.199   3.637   9.204  0.0493  0.2193 -0.0652
  240MOL0     C32285   8.135   3.770   9.216  0.3666 -0.1083 -0.1505
  240MOL0     C32286   8.053   3.790   9.348 -0.1799 -0.1773 -0.5523
  240MOL0     C32287   7.914   3.851   9.335 -0.0039  0.2455  0.6369
  240MOL0     C32288   7.816   3.807   9.441  0.7560 -0.3791  0.0928
  240MOL0     O32289   7.691   3.875   9.434  0.1977  0.2453 -0.2210
  240MOL0     C32290   7.619   3.878   9.546  0.5341 -0.4933 -0.2044
  240MOL0     C32291   7.646   3.821   9.668 -0.3754 -0.2121  0.4076
  240MOL0     C32292   7.566   3.832   9.779  0.8162  1.0364 -0.2463
  240MOL0     C32293   7.604   3.767   9.916  0.1795  0.0201  0.5026
  240MOL0     C32294   7.450   3.910   9.766  0.1640 -0.2112  0.2579
  240MOL0     C32295   7.344   3.928   9.867 -0.2051  0.3245 -0.1628
  240MOL0     O32296   7.262   4.040   9.854  0.9783  0.3666 -0.0664
  240MOL0     C32297   7.132   4.026   9.903 -0.2102 -0.1349  1.0303
  240MOL0     C32298   7.059   3.905   9.907  0.2778 -0.1535  0.1891
  240MOL0     C32299   6.928   3.896   9.955  0.1406  0.1520  0.5445
  240MOL0     C32300   6.868   4.013  10.001 -0.2667  0.4076  0.5005
  240MOL0     O32301   6.749   4.018  10.072 -0.0163 -0.4891  0.3786
  240MOL0     C32302   6.674   3.893  10.093 -0.1869 -0.4402  0.1798
  240MOL0     C32303   6.550   3.934  10.170 -0.0080  0.0685 -0.1998
  240MOL0     C32304   6.580   3.951  10.315  0.6193  0.1450  0.3212
  240MOL0     C32305   6.467   4.005  10.403  1.2041 -0.0482  0.5194
  240MOL0     C32306   6.502   4.021  10.545 -0.7646  0.1248 -0.0988
  240MOL0     C32307   6.371   4.019  10.634  0.3436 -0.2264 -0.1599
  240MOL0     C32308   6.290   4.139  10.650  0.7048 -0.5896  0.1390
  240MOL0     C32309   6.205   4.170  10.531  0.2576 -0.2434  0.4968
  240MOL0    Cl32310   6.087   4.297  10.578 -0.1386 -0.0467 -0.1374
  240MOL0     C32311   6.940   4.142   9.992  0.2269 -0.6352 -0.1847
  240MOL0     C32312   7.071   4.141   9.944 -0.8627 -0.3878 -0.2188
  240MOL0     O32313   7.333   3.840   9.954  1.0043  0.5882 -0.3160
  240MOL0     C32314   7.427   3.979   9.645  0.8360 -0.7553  0.1330
  240MOL0     C32315   7.510   3.958   9.541  2.0710  0.5839  0.7603
  240MOL0     N32316   8.137   3.515   9.182  0.3746 -0.2557 -0.0918
  240MOL0     N32317   8.211   3.413   9.198 -0.2869  0.1010  0.1154
  240MOL0     C32318   9.346   3.486   9.171  0.1886 -0.1740  0.1085
  240MOL0     C32319   9.449   3.550   9.241  0.0904 -0.2242  0.5569
  240MOL0     C32320   9.716   3.653   9.605 -0.0897  0.2581 -0.8123
  240MOL0     C32321   9.791   3.610   9.722  0.4585  0.4909  0.0644
  240MOL0     C32322   9.875   3.701   9.787  0.0067 -0.1951  0.2341
  240MOL0     C32323   9.898   3.833   9.743  0.4019  0.5777 -0.6732
  240MOL0     O32324   9.992   3.911   9.818  0.5359  0.2741 -0.2507
  240MOL0     C32325  10.033   4.036   9.753 -0.3870  0.0444  0.9306
  240MOL0     C32326  10.111   4.132   9.845  0.3698  0.2827  0.2062
  240MOL0     C32327  10.025   4.194   9.960 -0.3548 -0.2635  0.8903
  240MOL0     C32328  10.096   4.200  10.095 -0.1691  0.2340 -0.2042
  240MOL0     C32329  10.212   4.295  10.084 -0.3394  0.0063 -0.0435
  240MOL0     C32330  10.321   4.341  10.087 -0.2846 -0.6897  0.3432
  240MOL0     C32331   9.825   3.870   9.625  0.3400  0.2854  0.2768
  240MOL0     C32332   9.738   3.781   9.559 -0.1276 -0.6183 -0.3067
  240MOL0     H32333   9.353   3.454   9.562 -2.0222  0.4238  1.0402
  240MOL0     H32334   9.171   3.373   9.439 -0.4619  2.1493  0.7271
  240MOL0     H32335   9.174   3.383   8.984  1.2740  0.7438  2.1442
  240MOL0     H32336   9.235   3.235   9.036  1.4008  1.3283 -1.6498
  240MOL0     H32337   9.014   3.164   8.929 -0.1511 -0.0891  0.9275
  240MOL0     H32338   8.993   3.147   9.104 -3.2274 -1.0953 -0.5236
  240MOL0     H32339   8.904   3.387   9.085  1.8743  0.2337  0.7576
  240MOL0     H32340   8.897   3.360   8.910 -1.7266 -0.2005  0.7574
  240MOL0     H32341   8.742   3.163   8.941  2.7459 -1.4661 -0.3570
  240MOL0     H32342   8.760   3.163   9.113 -0.5643 -0.3634 -1.0916
  240MOL0     H32343   8.673   3.424   9.106  2.1601  0.9058 -1.1007
  240MOL0     H32344   8.652   3.393   8.940 -2.0654 -1.9629 -0.0750
  240MOL0     H32345   8.444   3.360   9.012  0.8356  0.2666 -0.3177
  240MOL0     H32346   8.506   3.198   8.995  0.1725  1.0522 -1.7940
  240MOL0     H32347   8.393   3.194   9.194  0.3529  0.1147 -2.3769
  240MOL0     H32348   8.559   3.202   9.248 -0.5459 -0.3540  1.9394
  240MOL0     H32349   8.536   3.436   9.303  0.8265 -1.6617 -0.7973
  240MOL0     H32350   8.414   3.340   9.389 -0.6457 -0.2663  0.1017
  240MOL0     H32351   8.398   3.665   9.279 -0.4559  1.4108 -0.4599
  240MOL0     H32352   8.207   3.851   9.207 -0.0029  0.0118 -2.7815
  240MOL0     H32353   8.061   3.776   9.135 -0.9513 -2.0418  0.8240
  240MOL0     H32354   8.107   3.857   9.415 -1.8042  0.1145  0.5225
  240MOL0     H32355   8.046   3.690   9.392  0.1937 -0.9012 -2.0861
  240MOL0     H32356   7.873   3.822   9.237 -1.4120 -1.4129  1.6633
  240MOL0     H32357   7.926   3.960   9.330  0.7863  0.1083 -1.2779
  240MOL0     H32358   7.866   3.828   9.536  1.4152  1.8133 -0.6817
  240MOL0     H32359   7.805   3.698   9.429  0.2300 -0.4457  1.0328
  240MOL0     H32360   7.731   3.758   9.692  0.1468  0.6797  0.9390
  240MOL0     H32361   7.580   3.831  10.002  4.6015  0.5173  1.6326
  240MOL0     H32362   7.563   3.666   9.915  0.1263  0.0439  0.2009
  240MOL0     H32363   7.713   3.755   9.915  0.2934  0.7763  1.6623
  240MOL0     H32364   7.097   3.811   9.870  0.4999 -0.5137  1.3015
  240MOL0     H32365   6.893   3.793   9.953  0.1972  0.0576 -3.9209
  240MOL0     H32366   6.657   3.851   9.994  1.5963 -2.1907  0.5447
  240MOL0     H32367   6.734   3.819  10.147  0.9219  0.3958  0.1388
  240MOL0     H32368   6.510   4.030  10.136 -0.6077  0.4810  1.5620
  240MOL0     H32369   6.477   3.855  10.154 -0.5404  0.4241  0.4323
  240MOL0     H32370   6.662   4.022  10.331 -0.4798  1.3399  0.8928
  240MOL0     H32371   6.614   3.854  10.350  2.2189 -0.6259 -2.9299
  240MOL0     H32372   6.435   4.105  10.374  0.9411  0.0918  1.2613
  240MOL0     H32373   6.386   3.932  10.393 -0.0980  1.0726  2.2550
  240MOL0     H32374   6.557   4.113  10.567 -0.7469  0.9994 -3.2803
  240MOL0     H32375   6.556   3.932  10.578  0.1216  0.3717 -0.8480
  240MOL0     H32376   6.306   3.934  10.610  0.4857 -0.4579  0.2605
  240MOL0     H32377   6.404   3.985  10.733 -1.1525  0.8110  0.7378
  240MOL0     H32378   6.336   4.234  10.677  1.0950 -1.3084  2.2134
  240MOL0     H32379   6.229   4.128  10.741  2.4771  3.5703  2.0594
  240MOL0     H32380   6.139   4.093  10.489 -1.9736  2.0125 -0.4232
  240MOL0     H32381   6.274   4.204  10.454  0.0414 -1.8174 -0.4369
  240MOL0     H32382   6.888   4.234  10.017  0.7597 -0.0162 -1.2785
  240MOL0     H32383   7.128   4.233   9.954  1.2830 -1.7135  0.6402
  240MOL0     H32384   7.339   4.042   9.637  1.2354  0.1224  1.9966
  240MOL0     H32385   7.486   3.999   9.443  0.4880 -4.2827 -1.2135
  240MOL0     H32386   9.329   3.496   9.064 -3.7240 -0.9714  0.5254
  240MOL0     H32387   9.521   3.614   9.192 -0.0663  0.9731  1.8265
  240MOL0     H32388   9.776   3.512   9.766 -0.8064  0.8589  0.4830
  240MOL0     H32389   9.946   3.658   9.857  1.8108  0.6200 -1.0273
  240MOL0     H32390  10.098   4.014   9.668 -0.3463  1.8624  0.4657
  240MOL0     H32391   9.943   4.090   9.723  0.1492  0.8742  0.8050
  240MOL0     H32392  10.146   4.215   9.783 -3.6779  2.0603 -0.0455
  240MOL0     H32393  10.201   4.084   9.884  1.0693 -0.0479 -1.7345
  240MOL0     H32394   9.942   4.126   9.983  0.4130 -0.7136  2.4680
  240MOL0     H32395   9.978   4.287   9.928  0.3045 -0.2557 -0.0810
  240MOL0     H32396  10.114   4.098  10.129 -2.0976 -0.2818 -0.6083
  240MOL0     H32397  10.032   4.244  10.172 -1.2839 -0.2636 -0.8248
  240MOL0     H32398  10.423   4.364  10.107  0.2363 -1.0635 -1.6313
  240MOL0     H32399   9.829   3.974   9.597  0.4693  0.7589  1.9377
  240MOL0     H32400   9.682   3.828   9.478  0.7231  0.5337 -0.2543
  241MOL0     O32401   4.858  10.702   4.650  0.2150 -0.1955 -0.5063
  241MOL0     C32402   4.949  10.685   4.735  0.8893 -0.3894  0.0692
  241MOL0     O32403   4.959  10.569   4.818  0.2252  0.2021  0.0230
  241MOL0     C32404   4.862  10.471   4.800  0.5284  0.0178  0.6747
  241MOL0     C32405   4.720  10.481   4.793 -0.4718 -1.1173  0.2402
  241MOL0     C32406   4.635  10.376   4.754 -0.3183  0.2284  0.1823
  241MOL0     C32407   4.689  10.262   4.711 -1.1972  0.0453  0.0336
  241MOL0     O32408   4.611  10.158   4.681 -0.3033  0.1253 -0.7063
  241MOL0     C32409   4.474  10.138   4.727  0.1409 -0.7221  0.0484
  241MOL0     C32410   4.409  10.117   4.589  0.7794 -0.1307  0.3674
  241MOL0     C32411   4.254  10.089   4.605 -1.0680 -1.1605 -0.1123
  241MOL0     C32412   4.170  10.153   4.501  0.5232  0.2725 -0.8047
  241MOL0     C32413   4.027  10.100   4.519  0.8516  0.9273  0.0781
  241MOL0     C32414   4.010   9.964   4.452  0.1167  0.2424 -0.1068
  241MOL0     C32415   3.873   9.894   4.452  0.1731 -1.0535  0.2522
  241MOL0     C32416   3.761   9.991   4.394 -0.1576 -0.2309 -0.2366
  241MOL0     N32417   3.635   9.919   4.375 -0.4965 -1.0986 -0.0394
  241MOL0     C32418   3.556   9.901   4.486 -1.1096 -0.3284 -0.0819
  241MOL0     C32419   3.435   9.869   4.425  0.1778  0.5264 -0.1467
  241MOL0     C32420   3.312   9.838   4.507  0.3687  1.3222  0.0820
  241MOL0     C32421   3.190   9.880   4.425 -1.0852 -0.2347  0.4427
  241MOL0     C32422   3.069   9.906   4.511 -0.1444 -0.6229 -0.0705
  241MOL0     C32423   2.971   9.990   4.427 -0.8885  0.4679  0.3721
  241MOL0     O32424   2.878  10.056   4.508  0.1978 -0.1867  0.1328
  241MOL0     C32425   2.759  10.100   4.455  0.3184  0.0554 -0.2014
  241MOL0     C32426   2.654  10.125   4.534 -0.6612  0.4297 -0.1268
  241MOL0     C32427   2.531  10.174   4.486 -0.4432  0.2059 -0.5629
  241MOL0     C32428   2.419  10.177   4.593 -0.0852 -0.7702 -0.2190
  241MOL0     C32429   2.513  10.210   4.351  0.2969 -0.2405  0.1162
  241MOL0     C32430   2.377  10.252   4.292  0.9615  0.4541 -0.2257
  241MOL0     O32431   2.371  10.286   4.165  0.4031 -0.0973 -0.0993
  241MOL0     C32432   2.252  10.312   4.104  0.6521 -0.2436 -0.0132
  241MOL0     C32433   2.227  10.247   3.983  0.4006 -0.2042 -0.3343
  241MOL0     C32434   2.115  10.278   3.912  0.4629  0.1012  0.1035
  241MOL0     C32435   2.017  10.361   3.955  0.1911  0.2577 -1.3140
  241MOL0     O32436   1.907  10.388   3.878  0.3052 -0.3581  0.3855
  241MOL0     C32437   1.813  10.279   3.859  0.1056 -1.0151 -0.6771
  241MOL0     C32438   1.681  10.332   3.799  0.0614  0.3889 -0.0460
  241MOL0     C32439   1.574  10.227   3.798 -0.1058  0.3716 -0.8621
  241MOL0     C32440   1.453  10.302   3.741 -0.4177  0.1024 -0.4798
  241MOL0     C32441   1.337  10.203   3.725 -0.7911 -0.5555 -0.3770
  241MOL0     C32442   1.204  10.276   3.692 -0.2320 -0.1591  0.7023
  241MOL0     C32443   1.092  10.176   3.660 -0.3675 -0.2071 -0.2003
  241MOL0     C32444   0.970  10.242   3.603  0.3236 -0.9276  0.2715
  241MOL0    Cl32445   0.904  10.132   3.470 -0.0817  0.0783 -0.0620
  241MOL0     C32446   2.035  10.420   4.080  0.1337 -0.7447  0.3046
  241MOL0     C32447   2.152  10.394   4.155 -0.6246 -0.5903 -0.3286
  241MOL0     O32448   2.278  10.242   4.363  0.2576  0.2371  1.4852
  241MOL0     C32449   2.625  10.192   4.268  0.4365  0.1622  0.4421
  241MOL0     C32450   2.740  10.136   4.321  0.9718 -0.2407  0.3437
  241MOL0     N32451   3.452   9.869   4.289  0.0046  0.1023  0.0830
  241MOL0     N32452   3.573   9.898   4.256  0.1087 -0.1206 -0.1836
  241MOL0     C32453   4.828  10.244   4.709 -0.2215  0.0549 -0.8097
  241MOL0     C32454   4.914  10.351   4.757 -0.2821  0.4383 -0.0040
  241MOL0     C32455   5.052  10.791   4.747  0.5827 -0.0130 -0.3401
  241MOL0     C32456   5.042  10.908   4.674 -0.0738  0.1516  0.1037
  241MOL0     C32457   5.149  11.007   4.667  0.1631  0.3198 -0.4479
  241MOL0     C32458   5.266  10.979   4.728 -0.1179  0.2699 -0.0905
  241MOL0     O32459   5.375  11.064   4.718 -0.3312 -0.3089  0.5454
  241MOL0     C32460   5.407  11.114   4.587 -0.9284 -1.1867 -0.3273
  241MOL0     C32461   5.546  11.076   4.542  0.0738  0.2471  0.3314
  241MOL0     C32462   5.598  10.948   4.615 -0.8725 -0.0381 -1.0877
  241MOL0     C32463   5.729  10.901   4.549  0.6637  0.0668 -0.2967
  241MOL0     C32464   5.718  10.841   4.417 -0.5418  0.2677  1.1565
  241MOL0     C32465   5.720  10.803   4.299 -0.0297  0.0277 -0.4431
  241MOL0     C32466   5.275  10.864   4.806  0.0491 -0.8307 -0.3176
  241MOL0     C32467   5.179  10.765   4.805  0.2751 -0.0930  0.3592
  241MOL0     H32468   4.673  10.577   4.815  0.0187 -0.5822 -0.9547
  241MOL0     H32469   4.527  10.387   4.750 -0.2300  0.7684 -1.1886
  241MOL0     H32470   4.459  10.057   4.799 -0.0475  0.4451  1.3592
  241MOL0     H32471   4.431  10.226   4.774  2.2181  0.6218 -0.4122
  241MOL0     H32472   4.433  10.202   4.524 -0.2816  0.2898  0.5146
  241MOL0     H32473   4.456  10.035   4.534 -0.6983  0.3644 -1.7563
  241MOL0     H32474   4.231   9.982   4.603 -3.0769 -0.7793 -0.1930
  241MOL0     H32475   4.217  10.113   4.705 -1.6732 -0.4604 -0.4941
  241MOL0     H32476   4.169  10.258   4.531 -0.5048 -0.2137  0.9861
  241MOL0     H32477   4.217  10.143   4.403 -1.8170 -2.2115 -1.7926
  241MOL0     H32478   3.998  10.080   4.623 -0.0373  0.3675 -0.2671
  241MOL0     H32479   3.956  10.174   4.481  0.2990  1.7868  2.5689
  241MOL0     H32480   4.036   9.965   4.346 -1.9119 -2.6386 -0.7439
  241MOL0     H32481   4.070   9.885   4.498 -1.3856 -3.5397 -4.0272
  241MOL0     H32482   3.871   9.795   4.406 -1.9457 -1.5161  1.2071
  241MOL0     H32483   3.837   9.886   4.555 -1.5003  0.8393 -0.1122
  241MOL0     H32484   3.790  10.035   4.297 -1.9545  0.5390 -0.4652
  241MOL0     H32485   3.742  10.072   4.465  0.6122  0.0792 -0.3669
  241MOL0     H32486   3.589   9.912   4.588  1.0627 -0.7985 -0.6794
  241MOL0     H32487   3.307   9.732   4.530 -1.7705  1.2964 -0.2708
  241MOL0     H32488   3.317   9.894   4.600 -1.1663  1.6950 -0.0348
  241MOL0     H32489   3.181   9.801   4.350 -0.3054  0.0183  0.0644
  241MOL0     H32490   3.215   9.973   4.373  1.2521 -1.6747 -1.2512
  241MOL0     H32491   3.113   9.965   4.592  0.9454 -0.6855 -0.5968
  241MOL0     H32492   3.020   9.813   4.541  0.9824 -1.7484 -1.5471
  241MOL0     H32493   2.917   9.921   4.362  0.6508 -1.3462  0.9136
  241MOL0     H32494   3.016  10.067   4.365  0.9903  0.3445  1.5082
  241MOL0     H32495   2.661  10.116   4.642 -0.8778 -0.0697 -0.1523
  241MOL0     H32496   2.360  10.269   4.584 -0.1714 -0.8697 -0.6683
  241MOL0     H32497   2.359  10.090   4.566 -0.8498  0.2455 -1.9535
  241MOL0     H32498   2.443  10.193   4.699 -0.4615 -0.4690 -0.1785
  241MOL0     H32499   2.295  10.184   3.927  1.4510  0.9549 -0.4103
  241MOL0     H32500   2.096  10.232   3.816  0.4996  1.3167 -0.5143
  241MOL0     H32501   1.849  10.200   3.793  0.9618 -2.4977  1.4411
  241MOL0     H32502   1.789  10.240   3.959  0.7221  0.6268  0.1496
  241MOL0     H32503   1.652  10.416   3.864  0.7256 -0.6088  1.6079
  241MOL0     H32504   1.708  10.354   3.696  2.2547 -1.5251  0.0269
  241MOL0     H32505   1.542  10.184   3.893 -0.2590  1.4306 -0.4187
  241MOL0     H32506   1.600  10.147   3.728 -0.4071 -0.8211  0.3514
  241MOL0     H32507   1.419  10.379   3.811  0.2777  0.7393 -0.8297
  241MOL0     H32508   1.474  10.354   3.647  1.0850 -0.7421 -0.6457
  241MOL0     H32509   1.323  10.147   3.817 -1.3218  0.9275  0.4875
  241MOL0     H32510   1.359  10.136   3.641 -0.5620 -1.3815  0.3357
  241MOL0     H32511   1.177  10.339   3.777 -1.5073  1.0947 -0.5907
  241MOL0     H32512   1.216  10.350   3.612  2.1155  1.6898  2.5921
  241MOL0     H32513   1.056  10.128   3.751  2.2579 -2.2130 -0.0919
  241MOL0     H32514   1.129  10.097   3.595 -1.7471 -1.3370  0.3531
  241MOL0     H32515   0.981  10.348   3.578  3.6985 -0.4495  3.0409
  241MOL0     H32516   0.888  10.259   3.673  0.1567 -0.5591 -0.0046
  241MOL0     H32517   1.951  10.483   4.109  0.4142  0.2109 -0.8650
  241MOL0     H32518   2.174  10.445   4.248 -1.3227  0.5428 -0.7650
  241MOL0     H32519   2.629  10.228   4.166  2.5731  1.2669  0.8587
  241MOL0     H32520   2.825  10.121   4.256  0.5989  0.4817 -0.3288
  241MOL0     H32521   4.874  10.155   4.667  1.3747 -0.8504  2.5346
  241MOL0     H32522   5.022  10.341   4.757 -0.2225  0.6861  1.7584
  241MOL0     H32523   4.945  10.935   4.633 -0.4378  1.2853  1.6252
  241MOL0     H32524   5.140  11.095   4.605 -2.1524  0.2936 -0.2419
  241MOL0     H32525   5.337  11.068   4.516  0.4040 -3.9755  0.0087
  241MOL0     H32526   5.395  11.222   4.594 -0.2595 -1.1559  0.5275
  241MOL0     H32527   5.617  11.158   4.554  0.9041 -0.2132 -1.0545
  241MOL0     H32528   5.533  11.064   4.434 -0.5165  0.9212  0.3261
  241MOL0     H32529   5.524  10.867   4.605 -1.4432  0.3543 -0.1832
  241MOL0     H32530   5.601  10.958   4.723 -2.1283  2.5695 -1.2173
  241MOL0     H32531   5.776  10.825   4.612  1.2104  0.0901 -0.6742
  241MOL0     H32532   5.796  10.987   4.541  0.8890 -0.1878 -1.2420
  241MOL0     H32533   5.712  10.753   4.204  1.8787  0.5793 -0.9355
  241MOL0     H32534   5.371  10.845   4.854  0.4225 -1.8138 -1.3932
  241MOL0     H32535   5.197  10.674   4.862  3.1231 -1.4421 -2.4305
  242MOL0     O32536  10.292   9.653   1.149  0.0730 -0.2605 -0.5891
  242MOL0     C32537  10.299   9.775   1.124 -0.1872  0.5552 -0.0762
  242MOL0     O32538  10.197   9.867   1.128 -0.0777 -0.4171 -0.2738
  242MOL0     C32539  10.069   9.812   1.117 -0.1555 -1.1372  0.2222
  242MOL0     C32540  10.001   9.804   0.995  0.3851  0.0682 -0.2427
  242MOL0     C32541   9.877   9.759   0.991  0.4700  0.9224  0.0659
  242MOL0     C32542   9.806   9.723   1.110 -0.7155 -0.0728  0.4529
  242MOL0     O32543   9.668   9.691   1.116 -1.0151  0.9695 -0.2991
  242MOL0     C32544   9.586   9.768   1.028  0.8698  0.9512  0.2656
  242MOL0     C32545   9.545   9.905   1.087  0.5938 -0.0268 -0.3286
  242MOL0     C32546   9.407   9.895   1.147 -0.1015  0.3632  0.3361
  242MOL0     C32547   9.392   9.806   1.273  0.4705 -0.4649  0.9699
  242MOL0     C32548   9.240   9.813   1.325 -0.4328  0.8817 -0.2932
  242MOL0     C32549   9.232   9.734   1.465 -0.1188  0.1691  0.0193
  242MOL0     C32550   9.080   9.719   1.510  0.0628 -0.2299 -0.3658
  242MOL0     C32551   9.075   9.638   1.639  0.3886 -0.1324  0.6852
  242MOL0     N32552   8.950   9.557   1.650 -0.8096  0.3793  0.2592
  242MOL0     C32553   8.825   9.600   1.684  0.2231  0.7059 -0.2062
  242MOL0     C32554   8.743   9.491   1.700 -0.3764  0.3339 -0.2323
  242MOL0     C32555   8.598   9.491   1.733 -0.4332  0.1155 -0.9665
  242MOL0     C32556   8.535   9.354   1.692  0.5943  0.1086 -0.2841
  242MOL0     C32557   8.382   9.375   1.712  0.5029  0.6380 -0.4511
  242MOL0     C32558   8.298   9.259   1.670 -0.4542  0.4728 -0.1957
  242MOL0     O32559   8.268   9.162   1.766 -0.2439  0.6007 -0.6613
  242MOL0     C32560   8.164   9.083   1.741  0.0960  0.1705 -0.5286
  242MOL0     C32561   8.190   8.979   1.650  0.0969  0.4748  0.7461
  242MOL0     C32562   8.090   8.894   1.602 -0.4006  0.5316  0.3682
  242MOL0     C32563   8.115   8.791   1.494 -0.2517 -0.0132  0.2520
  242MOL0     C32564   7.957   8.907   1.656 -0.3586  0.4633 -0.0692
  242MOL0     C32565   7.843   8.814   1.630 -0.5763 -0.4201  0.5030
  242MOL0     O32566   7.759   8.794   1.730  0.2485 -0.6272 -0.7150
  242MOL0     C32567   7.651   8.723   1.705 -0.6195  0.3315 -0.7097
  242MOL0     C32568   7.635   8.592   1.751 -0.4552 -0.1505 -0.8774
  242MOL0     C32569   7.507   8.538   1.748  0.0424  0.1982  0.0644
  242MOL0     C32570   7.398   8.606   1.693 -0.2846  0.4104 -0.3158
  242MOL0     O32571   7.276   8.545   1.700 -0.5731  1.0834  0.1644
  242MOL0     C32572   7.168   8.617   1.752 -0.0349 -0.2858 -0.7260
  242MOL0     C32573   7.127   8.557   1.888  0.0049  0.6957  0.2534
  242MOL0     C32574   6.997   8.617   1.957 -0.1358 -0.4923 -0.1167
  242MOL0     C32575   6.878   8.588   1.872 -0.2421 -0.9162 -0.6558
  242MOL0     C32576   6.740   8.617   1.944 -0.3090  0.1073 -0.3054
  242MOL0     C32577   6.626   8.601   1.846  0.0766 -0.8160  0.3817
  242MOL0     C32578   6.587   8.728   1.760 -0.1545 -0.4428  0.7031
  242MOL0     C32579   6.537   8.845   1.847 -0.2271 -0.0551 -0.3238
  242MOL0    Cl32580   6.536   8.992   1.741 -0.4185  0.4037 -0.0251
  242MOL0     C32581   7.414   8.731   1.640 -0.7962 -0.7019 -1.1782
  242MOL0     C32582   7.542   8.789   1.641  0.9431 -0.0094 -0.7541
  242MOL0     O32583   7.827   8.767   1.515 -0.0984  0.2557 -0.2797
  242MOL0     C32584   7.940   8.997   1.760 -0.3524  0.3116  0.2450
  242MOL0     C32585   8.038   9.092   1.804 -0.3490  0.0769  0.3394
  242MOL0     N32586   8.821   9.382   1.680  1.6274  0.4167 -0.7832
  242MOL0     N32587   8.941   9.422   1.651  0.4515  0.0195  0.0797
  242MOL0     C32588   9.874   9.722   1.234  0.2392 -0.2960  0.5793
  242MOL0     C32589  10.007   9.765   1.235  0.3788 -0.4297 -0.5523
  242MOL0     C32590  10.432   9.839   1.103 -0.3895  0.2579  0.2655
  242MOL0     C32591  10.450   9.979   1.125 -0.8705 -0.3740 -0.2895
  242MOL0     C32592  10.575  10.039   1.110 -0.1812  0.0774  0.0591
  242MOL0     C32593  10.691   9.954   1.087 -0.1091 -0.2470  1.2406
  242MOL0     O32594  10.823   9.994   1.081 -0.1312  0.5314 -0.3017
  242MOL0     C32595  10.868  10.125   1.107 -0.0560  0.2170 -0.3022
  242MOL0     C32596  11.017  10.132   1.056  0.3792  0.0341  0.0797
  242MOL0     C32597  11.012  10.108   0.901  0.1200  1.0481  0.8536
  242MOL0     C32598  11.140  10.146   0.830  0.0303 -1.2748 -0.1980
  242MOL0     C32599  11.249  10.052   0.836 -0.2313  0.2715 -0.0717
  242MOL0     C32600  11.341   9.973   0.839  0.4482 -0.2851 -0.2205
  242MOL0     C32601  10.664   9.823   1.057  0.1624  0.1221  0.0414
  242MOL0     C32602  10.542   9.760   1.077 -0.1349 -0.1972 -0.3675
  242MOL0     H32603  10.045   9.839   0.902  0.3314  1.8710  0.3815
  242MOL0     H32604   9.824   9.739   0.898 -1.7409  1.1133  1.2134
  242MOL0     H32605   9.642   9.790   0.936  0.5009  2.3078  0.3467
  242MOL0     H32606   9.495   9.712   1.003 -0.6289  2.9498  0.9540
  242MOL0     H32607   9.620   9.931   1.163  0.9891 -0.8885 -0.4152
  242MOL0     H32608   9.542   9.984   1.012  0.2700  1.2135  0.9443
  242MOL0     H32609   9.382  10.000   1.166  0.2641  0.1925  1.9009
  242MOL0     H32610   9.339   9.858   1.070 -1.0145 -0.8007  1.6604
  242MOL0     H32611   9.404   9.706   1.230  0.4947  0.2767 -0.8585
  242MOL0     H32612   9.464   9.828   1.352 -0.5001 -0.3440  1.8329
  242MOL0     H32613   9.207   9.916   1.340  0.8819  1.3114 -0.2712
  242MOL0     H32614   9.184   9.761   1.246 -1.7058 -0.5955  1.4883
  242MOL0     H32615   9.277   9.634   1.462 -0.7594 -0.0906 -1.6781
  242MOL0     H32616   9.285   9.794   1.540  0.0757 -1.2040  1.0384
  242MOL0     H32617   9.035   9.815   1.536  0.7072  0.1056 -0.4760
  242MOL0     H32618   9.021   9.668   1.434  1.7757  0.6643 -2.3737
  242MOL0     H32619   9.097   9.699   1.727  1.6996  1.8420 -0.9402
  242MOL0     H32620   9.156   9.564   1.642  0.4191 -0.1019  0.5978
  242MOL0     H32621   8.795   9.704   1.675 -0.9583  0.4221  0.2569
  242MOL0     H32622   8.585   9.499   1.841  0.6665  1.9089 -0.9284
  242MOL0     H32623   8.557   9.580   1.685  2.0308  0.9281 -1.6999
  242MOL0     H32624   8.571   9.269   1.751 -1.2499 -1.2410 -0.9959
  242MOL0     H32625   8.557   9.342   1.586  1.3145 -0.3820 -0.0827
  242MOL0     H32626   8.352   9.458   1.648  0.9695 -0.2061 -1.8081
  242MOL0     H32627   8.351   9.387   1.817 -0.8087 -0.5192 -0.6740
  242MOL0     H32628   8.345   9.203   1.589  0.6276  0.1512  0.6292
  242MOL0     H32629   8.205   9.300   1.632  0.4939  2.8900 -0.1010
  242MOL0     H32630   8.294   8.978   1.617  0.2099  1.5827  1.0364
  242MOL0     H32631   8.065   8.809   1.399  1.2716  2.7847 -0.1542
  242MOL0     H32632   8.223   8.784   1.474 -0.2797 -0.5719  0.2912
  242MOL0     H32633   8.079   8.698   1.539 -0.8965  1.1282  2.2419
  242MOL0     H32634   7.717   8.548   1.807 -1.3798 -0.2178  0.4632
  242MOL0     H32635   7.490   8.439   1.790  1.0558 -0.2498 -0.5472
  242MOL0     H32636   7.187   8.724   1.768 -1.5474 -0.3613  2.4274
  242MOL0     H32637   7.083   8.606   1.685 -1.2580 -0.1907  0.7481
  242MOL0     H32638   7.107   8.451   1.871  0.8127  0.7769 -1.4436
  242MOL0     H32639   7.215   8.569   1.952  2.4708 -0.5096 -2.6259
  242MOL0     H32640   7.018   8.723   1.969 -0.5771 -0.3702 -0.4005
  242MOL0     H32641   6.990   8.564   2.053  0.1859 -2.5831 -1.1685
  242MOL0     H32642   6.890   8.651   1.784 -1.5459  0.5229  0.1469
  242MOL0     H32643   6.879   8.481   1.847 -0.1342 -0.9521 -0.5027
  242MOL0     H32644   6.750   8.717   1.987  2.1681 -0.0978 -0.2761
  242MOL0     H32645   6.733   8.544   2.025 -2.3593  0.4679 -0.1121
  242MOL0     H32646   6.645   8.514   1.783  0.7374  0.3231 -1.0479
  242MOL0     H32647   6.541   8.569   1.907  0.9089 -2.9666  0.4714
  242MOL0     H32648   6.506   8.700   1.693 -1.7167  0.9105  1.9429
  242MOL0     H32649   6.678   8.755   1.705 -1.9299  1.9295 -1.2884
  242MOL0     H32650   6.611   8.865   1.925 -0.7605  0.4455  0.0624
  242MOL0     H32651   6.440   8.829   1.896  1.0604 -2.2825  1.7391
  242MOL0     H32652   7.331   8.785   1.596  0.0903  0.0186 -1.9967
  242MOL0     H32653   7.551   8.889   1.599 -0.0237  1.4986  2.3447
  242MOL0     H32654   7.846   9.002   1.815  0.1751 -0.0038  1.1820
  242MOL0     H32655   8.017   9.160   1.885 -1.8474  1.4388 -1.1125
  242MOL0     H32656   9.821   9.690   1.323 -1.8711  0.1571 -0.4688
  242MOL0     H32657  10.060   9.755   1.330  1.1169  1.3189 -0.7331
  242MOL0     H32658  10.369  10.047   1.147 -0.8137 -0.9091  1.6970
  242MOL0     H32659  10.589  10.145   1.124  0.4109  0.6488 -3.7160
  242MOL0     H32660  10.810  10.198   1.050  0.2057 -0.3774 -1.3661
  242MOL0     H32661  10.867  10.142   1.215 -0.1719 -0.0374 -0.2620
  242MOL0     H32662  11.070  10.049   1.104 -1.8444 -2.1449 -0.9961
  242MOL0     H32663  11.049  10.235   1.076 -1.9884  0.9259 -0.3844
  242MOL0     H32664  10.936  10.170   0.853 -0.3929  0.3400  0.7334
  242MOL0     H32665  10.982  10.004   0.883 -1.1542  0.9421  3.1783
  242MOL0     H32666  11.192  10.229   0.878 -0.1795 -1.7444  0.8766
  242MOL0     H32667  11.119  10.177   0.728 -0.9615  3.8728  1.2884
  242MOL0     H32668  11.426   9.910   0.854  2.1782  1.9545 -0.1721
  242MOL0     H32669  10.748   9.759   1.031 -1.1746 -2.5420  1.7898
  242MOL0     H32670  10.531   9.653   1.070 -1.3286 -0.1658  0.7078
  243MOL0     O32671   3.575   3.897   2.869  0.3417 -0.2284  0.2107
  243MOL0     C32672   3.546   3.837   2.771  0.2335 -0.0353 -0.4494
  243MOL0     O32673   3.422   3.820   2.724  0.2971  0.9094  0.1355
  243MOL0     C32674   3.313   3.888   2.768  0.3122 -0.5775  0.8168
  243MOL0     C32675   3.195   3.847   2.721 -0.4392 -0.4517 -0.5011
  243MOL0     C32676   3.071   3.903   2.764 -0.8930  0.3567  0.5202
  243MOL0     C32677   3.073   4.020   2.840  0.0189 -0.0112 -0.3918
  243MOL0     O32678   2.953   4.090   2.863  0.9516  0.1259 -0.7348
  243MOL0     C32679   2.956   4.188   2.968  0.1988  0.4401 -0.3077
  243MOL0     C32680   2.826   4.268   2.989  0.7540 -0.0424 -0.2370
  243MOL0     C32681   2.728   4.180   3.068  0.1780 -0.3281  0.3467
  243MOL0     C32682   2.584   4.240   3.056  0.2703  0.5629 -0.6916
  243MOL0     C32683   2.480   4.153   3.131 -1.1840  0.3508  0.2782
  243MOL0     C32684   2.337   4.201   3.085 -0.4217  0.5673 -0.2115
  243MOL0     C32685   2.240   4.095   3.143 -0.7229 -0.0693  0.0971
  243MOL0     C32686   2.231   3.971   3.047 -1.1890  0.9388 -0.6571
  243MOL0     N32687   2.108   3.894   3.058  0.0637  0.2098  0.1178
  243MOL0     C32688   2.024   3.875   2.956  0.6984  0.0406 -0.1993
  243MOL0     C32689   1.902   3.832   3.017 -0.6934 -0.0635 -0.0038
  243MOL0     C32690   1.771   3.790   2.952  0.2884  0.7429  0.2712
  243MOL0     C32691   1.693   3.915   2.908  0.0982  0.1786 -0.6779
  243MOL0     C32692   1.576   3.887   2.805 -0.1246  0.5885  0.0897
  243MOL0     C32693   1.448   3.815   2.870 -0.2712  0.0892 -0.0884
  243MOL0     O32694   1.346   3.809   2.778  0.3035 -0.7779  0.6695
  243MOL0     C32695   1.215   3.793   2.830 -0.2811  0.4900  0.1872
  243MOL0     C32696   1.188   3.745   2.956 -0.1090  0.2943 -0.0693
  243MOL0     C32697   1.056   3.718   3.000  0.4980 -0.2679  0.7366
  243MOL0     C32698   1.029   3.651   3.135  0.0072  0.5179  0.2343
  243MOL0     C32699   0.945   3.747   2.913  0.3163 -0.1742  0.3828
  243MOL0     C32700   0.802   3.727   2.945  0.4590  0.1941 -0.7337
  243MOL0     O32701   0.718   3.811   2.885 -0.1101 -1.1618  1.0635
  243MOL0     C32702   0.585   3.789   2.892  0.2405  0.7126  0.1420
  243MOL0     C32703   0.506   3.843   2.993  1.0666 -0.6396  0.7907
  243MOL0     C32704   0.367   3.817   3.007  0.3961  0.3368  0.0645
  243MOL0     C32705   0.303   3.728   2.917 -0.4515 -0.1973 -0.1281
  243MOL0     O32706   0.163   3.707   2.925  0.1642  0.8301 -0.1225
  243MOL0     C32707   0.122   3.689   3.058  0.1926  0.0601  0.4651
  243MOL0     C32708   0.006   3.592   3.052 -0.1484  0.1999 -0.1235
  243MOL0     C32709  -0.120   3.659   3.016  0.3137 -1.2016 -1.1726
  243MOL0     C32710  -0.246   3.577   3.024  0.0101 -0.0379 -0.0523
  243MOL0     C32711  -0.375   3.640   2.959  0.5152  1.0176  0.2498
  243MOL0     C32712  -0.380   3.795   2.969 -0.0491  0.2023 -0.4919
  243MOL0     C32713  -0.515   3.846   2.917  0.1483 -0.5187 -0.1280
  243MOL0     C32714  -0.538   3.984   2.952 -0.3703  0.2307 -0.6183
  243MOL0    Cl32715  -0.436   4.099   2.870  0.0358  0.4153 -0.4260
  243MOL0     C32716   0.382   3.680   2.808  0.7038  0.7001 -0.5751
  243MOL0     C32717   0.516   3.712   2.790  0.1894  0.1691  0.1580
  243MOL0     O32718   0.766   3.632   3.017 -0.1114  0.2992 -1.0380
  243MOL0     C32719   0.973   3.805   2.788  0.2252 -0.0283  0.4531
  243MOL0     C32720   1.108   3.810   2.738  0.5390  0.3854  1.0116
  243MOL0     N32721   1.926   3.829   3.150  0.0444 -0.9243  0.7757
  243MOL0     N32722   2.044   3.869   3.177  0.5438  0.2009  0.5862
  243MOL0     C32723   3.204   4.070   2.880  0.0171  0.9420  0.2940
  243MOL0     C32724   3.316   4.001   2.843 -0.6338 -0.0720  0.2239
  243MOL0     C32725   3.647   3.756   2.698 -0.3258  0.6209 -0.7654
  243MOL0     C32726   3.780   3.777   2.726 -0.4388 -0.0253 -0.2238
  243MOL0     C32727   3.883   3.721   2.649  0.1389 -0.1881 -1.1687
  243MOL0     C32728   3.858   3.626   2.556 -0.2656 -0.1051  0.0880
  243MOL0     O32729   3.957   3.558   2.487 -0.1733 -0.2122  0.0235
  243MOL0     C32730   4.090   3.570   2.542 -0.2885 -0.9517  0.1057
  243MOL0     C32731   4.187   3.488   2.452 -0.1272 -1.1494 -0.7425
  243MOL0     C32732   4.190   3.331   2.484 -0.8622  0.3609 -0.1520
  243MOL0     C32733   4.186   3.265   2.342 -0.1083 -0.2113  0.4316
  243MOL0     C32734   4.220   3.120   2.354 -0.0520  0.1074 -0.6601
  243MOL0     C32735   4.226   2.998   2.353 -0.1650  0.3285  0.1263
  243MOL0     C32736   3.724   3.596   2.521  0.7347 -0.0685 -0.6001
  243MOL0     C32737   3.621   3.671   2.588 -0.4348  0.5829 -0.3830
  243MOL0     H32738   3.201   3.761   2.655  2.0401 -0.4346 -0.3684
  243MOL0     H32739   2.974   3.861   2.741 -0.8289  0.8704 -0.7847
  243MOL0     H32740   2.980   4.125   3.054 -2.8021 -0.2805  0.1120
  243MOL0     H32741   3.031   4.264   2.943  0.7759  0.2244  0.7153
  243MOL0     H32742   2.847   4.356   3.051 -2.2938  1.0875 -0.6242
  243MOL0     H32743   2.785   4.310   2.897  1.0612  1.0152  0.0905
  243MOL0     H32744   2.718   4.089   3.008 -1.6145 -0.9170  1.4595
  243MOL0     H32745   2.751   4.162   3.173  0.6302 -2.6152 -0.0930
  243MOL0     H32746   2.580   4.343   3.092 -1.0919  0.1193  0.4961
  243MOL0     H32747   2.553   4.234   2.951  0.9531 -1.6982 -0.8217
  243MOL0     H32748   2.494   4.048   3.105  1.3976 -0.1865  3.2004
  243MOL0     H32749   2.509   4.165   3.236 -0.3896 -2.4969  0.4671
  243MOL0     H32750   2.304   4.295   3.131 -2.5191 -0.0999 -0.2411
  243MOL0     H32751   2.326   4.210   2.976  1.6066  0.6115 -0.4531
  243MOL0     H32752   2.272   4.067   3.244  0.4458  1.8597  0.3253
  243MOL0     H32753   2.143   4.141   3.166 -0.0471 -0.0112  3.3646
  243MOL0     H32754   2.313   3.906   3.078 -1.2732  0.4861 -1.3724
  243MOL0     H32755   2.249   3.992   2.942 -0.2156  1.5000 -0.3880
  243MOL0     H32756   2.046   3.898   2.852  1.8373  0.6718  0.1657
  243MOL0     H32757   1.791   3.729   2.864  0.9254  1.8393 -0.3605
  243MOL0     H32758   1.715   3.729   3.024  0.3378  0.3855  0.0088
  243MOL0     H32759   1.759   3.985   2.856  0.4091 -1.6058 -2.8985
  243MOL0     H32760   1.656   3.951   3.003  0.4286 -2.8542  0.7346
  243MOL0     H32761   1.608   3.819   2.725 -1.4690 -0.3283  0.3041
  243MOL0     H32762   1.549   3.979   2.753 -0.4077  1.6734  2.0648
  243MOL0     H32763   1.429   3.881   2.955 -0.4940  2.0465 -1.6116
  243MOL0     H32764   1.483   3.717   2.906 -0.7224  0.7925  2.4745
  243MOL0     H32765   1.267   3.719   3.026  0.5862  0.3970 -0.7901
  243MOL0     H32766   1.025   3.545   3.107  0.0411  0.8357 -1.0267
  243MOL0     H32767   1.113   3.652   3.205 -0.6928  0.9216  1.0858
  243MOL0     H32768   0.938   3.689   3.184  0.0639  0.2882  0.5184
  243MOL0     H32769   0.541   3.927   3.053 -0.9856 -0.3585  1.6948
  243MOL0     H32770   0.320   3.872   3.088 -1.1166  0.0161 -0.5512
  243MOL0     H32771   0.204   3.645   3.115  0.6348 -1.2149 -1.0835
  243MOL0     H32772   0.094   3.772   3.123  0.7580  0.4417  0.2310
  243MOL0     H32773   0.019   3.502   2.992  1.3414 -0.1318  0.6557
  243MOL0     H32774  -0.007   3.550   3.153  0.9476 -1.6734 -0.7250
  243MOL0     H32775  -0.099   3.682   2.911  4.3621 -2.5481 -0.8408
  243MOL0     H32776  -0.133   3.748   3.078  0.9988 -1.0191 -1.2768
  243MOL0     H32777  -0.233   3.478   2.981  2.0588 -0.1889  0.7774
  243MOL0     H32778  -0.259   3.565   3.132  2.5320 -1.0449  0.2091
  243MOL0     H32779  -0.459   3.589   3.005  0.1886  0.2863 -1.1248
  243MOL0     H32780  -0.379   3.603   2.857 -1.2314 -0.8777  0.9569
  243MOL0     H32781  -0.369   3.819   3.075 -0.0324 -1.4987 -0.0729
  243MOL0     H32782  -0.303   3.840   2.906 -1.0124  1.1431 -1.0163
  243MOL0     H32783  -0.582   3.774   2.965  0.5440 -3.5555 -3.6603
  243MOL0     H32784  -0.521   3.830   2.809 -0.9065  0.5178 -0.2423
  243MOL0     H32785  -0.541   3.990   3.061 -2.1354  0.2287 -0.6283
  243MOL0     H32786  -0.641   4.019   2.936 -0.7138  0.2855  1.3903
  243MOL0     H32787   0.332   3.613   2.737 -0.7319  0.2405  0.8087
  243MOL0     H32788   0.577   3.673   2.710  2.4547  2.6687  0.5196
  243MOL0     H32789   0.896   3.813   2.712  0.2251  1.6664  0.5976
  243MOL0     H32790   1.136   3.836   2.637 -0.8757  2.4079  1.0879
  243MOL0     H32791   3.215   4.154   2.948 -0.1291 -0.3860  2.0522
  243MOL0     H32792   3.407   4.048   2.879 -0.5481  1.3063 -1.6609
  243MOL0     H32793   3.812   3.852   2.798  2.7503 -1.4834  0.0471
  243MOL0     H32794   3.983   3.760   2.664 -0.6911  2.0573 -1.1144
  243MOL0     H32795   4.123   3.674   2.548  2.7093 -1.4996 -3.6032
  243MOL0     H32796   4.096   3.525   2.642  4.1323 -1.4829 -0.2086
  243MOL0     H32797   4.291   3.522   2.458 -0.1011 -1.0438 -1.6451
  243MOL0     H32798   4.158   3.512   2.349  0.0809 -0.1196 -0.5711
  243MOL0     H32799   4.103   3.309   2.546 -0.9822  0.8507 -0.1412
  243MOL0     H32800   4.280   3.313   2.542 -0.0778 -1.5006 -1.8422
  243MOL0     H32801   4.272   3.300   2.284 -0.6535 -0.0580 -0.2972
  243MOL0     H32802   4.093   3.285   2.290 -0.4711  0.7600  1.4197
  243MOL0     H32803   4.256   2.898   2.331 -3.4705 -0.4826 -1.3487
  243MOL0     H32804   3.693   3.526   2.445 -0.1632  0.9570 -1.2123
  243MOL0     H32805   3.518   3.644   2.564 -0.4715  0.6125 -0.2624
  244MOL0     O32806   7.566   8.459   9.400 -0.5963  0.5985  0.8315
  244MOL0     C32807   7.653   8.462   9.486  0.1860  0.1001  0.3944
  244MOL0     O32808   7.633   8.443   9.619 -0.3722 -0.6437  1.1558
  244MOL0     C32809   7.511   8.466   9.670  0.3814  0.1257  1.0848
  244MOL0     C32810   7.473   8.588   9.720  0.8574 -0.1610  0.0514
  244MOL0     C32811   7.335   8.604   9.757  0.3514 -0.8458 -0.1387
  244MOL0     C32812   7.241   8.501   9.733  0.1564  0.1414  0.1358
  244MOL0     O32813   7.107   8.529   9.763  0.4363  0.0791  0.2596
  244MOL0     C32814   7.014   8.425   9.758  0.5662 -0.0800  0.1464
  244MOL0     C32815   6.890   8.486   9.829 -1.0393 -0.1575 -0.3610
  244MOL0     C32816   6.782   8.377   9.853 -0.3832 -0.0334 -0.3377
  244MOL0     C32817   6.658   8.431   9.918 -0.6052 -0.7335 -0.8196
  244MOL0     C32818   6.552   8.320   9.935  0.5538 -1.0169  0.0163
  244MOL0     C32819   6.416   8.382   9.982 -0.0673 -0.1236  0.7439
  244MOL0     C32820   6.310   8.277  10.039 -0.8778  0.0037  1.1063
  244MOL0     C32821   6.167   8.336  10.047 -0.0055  0.8819  0.2824
  244MOL0     N32822   6.061   8.252  10.105  0.0459 -0.4361  0.1772
  244MOL0     C32823   6.069   8.114  10.126 -0.1214 -0.9060  0.3084
  244MOL0     C32824   5.940   8.079  10.148 -0.1575 -0.1076 -0.2519
  244MOL0     C32825   5.893   7.938  10.182  0.3289 -0.3638 -0.2553
  244MOL0     C32826   5.740   7.937  10.163 -0.0970  0.4043  0.4167
  244MOL0     C32827   5.686   7.793  10.183  0.6161 -0.6183 -0.8845
  244MOL0     C32828   5.526   7.798  10.172  0.1590  0.3002 -0.0712
  244MOL0     O32829   5.468   7.664  10.193  0.0974  0.4409 -0.1754
  244MOL0     C32830   5.327   7.660  10.194 -0.1434 -0.1184  0.4128
  244MOL0     C32831   5.274   7.538  10.204 -0.5041  0.6125 -0.6830
  244MOL0     C32832   5.134   7.522  10.219 -1.0717  0.3125 -0.1099
  244MOL0     C32833   5.084   7.385  10.254 -0.5655 -0.5841 -0.1007
  244MOL0     C32834   5.051   7.642  10.213  0.1935  0.0975 -0.0658
  244MOL0     C32835   4.895   7.635  10.237 -0.9545 -0.5524  0.5706
  244MOL0     O32836   4.845   7.531  10.306 -0.1032  0.0857  0.0032
  244MOL0     C32837   4.707   7.520  10.303 -0.3381  0.0878 -0.3672
  244MOL0     C32838   4.632   7.566  10.409  0.1952 -0.2451 -0.0712
  244MOL0     C32839   4.494   7.564  10.405  0.2097 -0.2364  0.5223
  244MOL0     C32840   4.423   7.534  10.288 -0.2684 -0.0530  0.5623
  244MOL0     O32841   4.286   7.559  10.272  0.2924 -0.0219 -0.2095
  244MOL0     C32842   4.217   7.635  10.369 -0.6731 -0.2633  0.4816
  244MOL0     C32843   4.066   7.620  10.339 -0.3977  0.3527 -0.4229
  244MOL0     C32844   3.979   7.721  10.408  0.1919  0.1678 -0.1879
  244MOL0     C32845   3.841   7.693  10.365  0.5733 -0.2507  0.5539
  244MOL0     C32846   3.736   7.801  10.399 -0.2365  0.1838  0.2467
  244MOL0     C32847   3.607   7.746  10.439  0.1820 -0.6160  0.1235
  244MOL0     C32848   3.542   7.657  10.332 -0.3596 -0.7284 -0.5674
  244MOL0     C32849   3.425   7.728  10.263  0.5779 -0.6438 -0.2390
  244MOL0    Cl32850   3.283   7.734  10.365  0.5091 -0.1341 -0.2801
  244MOL0     C32851   4.500   7.471  10.184 -1.0678 -0.4049  1.2816
  244MOL0     C32852   4.644   7.466  10.197 -0.1349 -0.3982  1.5893
  244MOL0     O32853   4.830   7.737  10.205 -0.5001  0.1674  0.0672
  244MOL0     C32854   5.105   7.773  10.193 -0.6309  0.6594 -0.1413
  244MOL0     C32855   5.248   7.775  10.187 -0.3162  0.1589 -0.5156
  244MOL0     N32856   5.863   8.193  10.137  0.2606  0.2335  0.3228
  244MOL0     N32857   5.932   8.296  10.114 -0.4855  1.0454  0.4346
  244MOL0     C32858   7.288   8.377   9.684 -0.0445  0.8343 -0.3876
  244MOL0     C32859   7.418   8.358   9.649  0.1191  0.7915 -0.4500
  244MOL0     C32860   7.786   8.501   9.445  0.6732  0.4388  0.1476
  244MOL0     C32861   7.820   8.514   9.304  0.7756  0.2601 -0.6877
  244MOL0     C32862   7.940   8.550   9.263  0.2031 -0.2591  0.4631
  244MOL0     C32863   8.036   8.568   9.354 -0.9043 -0.0025 -1.0331
  244MOL0     O32864   8.160   8.600   9.300 -0.0879  0.9559  0.4299
  244MOL0     C32865   8.272   8.626   9.380 -0.3745  0.1568 -0.4885
  244MOL0     C32866   8.290   8.779   9.385 -0.0320  0.3341  0.8002
  244MOL0     C32867   8.437   8.814   9.423  0.0903  0.8837  0.5232
  244MOL0     C32868   8.461   8.960   9.431 -0.1468 -0.1251  0.5436
  244MOL0     C32869   8.594   8.994   9.387 -0.2418  0.7969 -0.2297
  244MOL0     C32870   8.708   9.012   9.350  0.3603  0.0772  0.2831
  244MOL0     C32871   8.003   8.565   9.492  0.4929 -0.1053 -0.5925
  244MOL0     C32872   7.881   8.531   9.543  0.0696  0.1018 -0.9421
  244MOL0     H32873   7.551   8.663   9.728 -0.4550  1.4245 -1.2916
  244MOL0     H32874   7.302   8.697   9.801 -3.4260 -2.3002  0.4330
  244MOL0     H32875   6.988   8.408   9.653 -0.6959 -0.4501  0.5018
  244MOL0     H32876   7.044   8.332   9.806  0.4429 -1.6176 -2.5438
  244MOL0     H32877   6.915   8.524   9.929 -1.1786 -3.0621  0.8827
  244MOL0     H32878   6.854   8.570   9.770  0.4311  1.4565  0.9069
  244MOL0     H32879   6.748   8.331   9.760  2.1998  0.8697 -1.8182
  244MOL0     H32880   6.843   8.307   9.912  2.1676  1.0378 -1.5504
  244MOL0     H32881   6.674   8.464  10.021  0.2582  0.3664 -1.2944
  244MOL0     H32882   6.622   8.512   9.855  1.1405  1.5025  0.8991
  244MOL0     H32883   6.539   8.266   9.841  1.8463 -1.7068  0.2165
  244MOL0     H32884   6.599   8.253  10.006  2.8075 -0.1934 -0.6245
  244MOL0     H32885   6.433   8.453  10.063 -1.0374  1.5856 -0.4785
  244MOL0     H32886   6.380   8.440   9.896 -0.0567 -2.0791 -0.6458
  244MOL0     H32887   6.313   8.199   9.961 -0.6237 -2.0977  3.0997
  244MOL0     H32888   6.341   8.237  10.136 -2.1934 -1.8582  0.8178
  244MOL0     H32889   6.137   8.371   9.948 -0.5604 -0.3923 -0.0159
  244MOL0     H32890   6.175   8.422  10.115  1.6753 -0.8777  2.4841
  244MOL0     H32891   6.153   8.046  10.114 -1.6649 -2.6185 -1.4673
  244MOL0     H32892   5.942   7.870  10.112 -1.8036 -1.1584 -1.0468
  244MOL0     H32893   5.925   7.903  10.281  3.7590  0.6173 -0.8965
  244MOL0     H32894   5.705   7.960  10.062  0.8180 -0.7577 -0.1895
  244MOL0     H32895   5.693   8.011  10.228 -0.5980  1.3136 -0.9392
  244MOL0     H32896   5.716   7.748  10.278  1.8090 -1.0580 -1.4556
  244MOL0     H32897   5.726   7.738  10.098  2.8976 -0.6166  0.1248
  244MOL0     H32898   5.478   7.837  10.081 -2.4993 -0.3772  0.9323
  244MOL0     H32899   5.489   7.867  10.249 -0.7619  0.9728 -1.0947
  244MOL0     H32900   5.348   7.460  10.222 -0.9842  0.3989  0.4953
  244MOL0     H32901   5.009   7.356  10.179 -0.6985 -0.1500 -0.1353
  244MOL0     H32902   5.171   7.319  10.255  0.0117  0.1459 -1.2614
  244MOL0     H32903   5.035   7.376  10.352  0.3897 -0.2085  0.4164
  244MOL0     H32904   4.676   7.608  10.499 -1.2348 -1.4567  1.2282
  244MOL0     H32905   4.438   7.602  10.490  0.5103  1.1724  0.1224
  244MOL0     H32906   4.231   7.591  10.468  0.6209  0.1899  0.5134
  244MOL0     H32907   4.238   7.742  10.370 -1.3220 -0.1148 -0.6209
  244MOL0     H32908   4.046   7.636  10.232  0.5091  0.0542 -0.6441
  244MOL0     H32909   4.038   7.517  10.363 -2.1588  0.4896 -1.6698
  244MOL0     H32910   4.015   7.819  10.374  0.6509 -0.0600 -0.3660
  244MOL0     H32911   3.993   7.708  10.515  0.7229 -0.2098 -0.2956
  244MOL0     H32912   3.836   7.692  10.256 -2.5410  0.4849  0.6039
  244MOL0     H32913   3.814   7.599  10.412  2.2433 -0.2254  1.6476
  244MOL0     H32914   3.727   7.873  10.317 -0.9711  0.0607  0.2063
  244MOL0     H32915   3.775   7.851  10.488  3.1017  0.3763 -1.1923
  244MOL0     H32916   3.620   7.690  10.532  2.3526  1.0932  0.9310
  244MOL0     H32917   3.532   7.821  10.463  0.6599  0.1912 -0.8178
  244MOL0     H32918   3.514   7.556  10.362  0.4700 -0.3063  1.8605
  244MOL0     H32919   3.605   7.632  10.247 -2.0227 -1.4961 -1.6238
  244MOL0     H32920   3.402   7.669  10.174  2.1332 -0.3664 -0.8586
  244MOL0     H32921   3.457   7.828  10.233  0.8101  0.0051  1.9470
  244MOL0     H32922   4.452   7.428  10.097 -0.2429  1.0301  0.0654
  244MOL0     H32923   4.707   7.422  10.120  1.7026  2.8923  1.0435
  244MOL0     H32924   5.046   7.864  10.191 -1.2425  0.3037  0.8907
  244MOL0     H32925   5.289   7.874  10.167 -0.5243  0.1416 -1.0321
  244MOL0     H32926   7.220   8.294   9.672 -0.5042  1.1189  0.2473
  244MOL0     H32927   7.449   8.261   9.613 -0.9545  0.8919 -1.7425
  244MOL0     H32928   7.742   8.487   9.234 -1.1150 -1.0488  1.7323
  244MOL0     H32929   7.968   8.565   9.159 -0.7215  3.0802  0.5595
  244MOL0     H32930   8.258   8.584   9.480  0.4311 -2.3103 -1.3406
  244MOL0     H32931   8.359   8.573   9.340  0.1986  0.2497  0.5908
  244MOL0     H32932   8.229   8.831   9.459  1.1670 -1.6421  3.3759
  244MOL0     H32933   8.266   8.828   9.291 -0.4613  1.9822  1.7177
  244MOL0     H32934   8.508   8.777   9.349  1.6926  2.1635  1.3437
  244MOL0     H32935   8.461   8.774   9.522 -1.0151  2.0340  1.2911
  244MOL0     H32936   8.448   8.988   9.536  1.6665  2.1188  0.2288
  244MOL0     H32937   8.400   9.027   9.370 -1.1210 -1.5992 -0.1616
  244MOL0     H32938   8.812   9.028   9.334 -0.1753  1.2725 -2.6894
  244MOL0     H32939   8.066   8.589   9.577 -0.6266  1.9972 -0.2895
  244MOL0     H32940   7.866   8.550   9.649 -1.2731  0.0246 -1.0997
  245MOL0     O32941   5.306   5.951   3.477  0.1514 -0.9258  0.4417
  245MOL0     C32942   5.361   5.850   3.522 -1.0735 -0.9639  0.9792
  245MOL0     O32943   5.300   5.741   3.561  0.5533 -0.0901  0.4204
  245MOL0     C32944   5.165   5.742   3.576  0.0236  0.7058  0.0024
  245MOL0     C32945   5.094   5.638   3.516  0.9272 -0.0381 -0.0491
  245MOL0     C32946   4.957   5.630   3.549 -0.0125 -0.4941  0.0821
  245MOL0     C32947   4.895   5.725   3.636 -0.4491 -0.5687  0.0737
  245MOL0     O32948   4.768   5.688   3.681 -0.3033 -0.3620  0.1829
  245MOL0     C32949   4.670   5.789   3.649 -1.0701  0.2539  0.6174
  245MOL0     C32950   4.531   5.715   3.646 -0.0631 -0.1362  0.0544
  245MOL0     C32951   4.495   5.652   3.777 -0.1591 -0.6268 -0.0211
  245MOL0     C32952   4.351   5.605   3.782 -0.5869 -0.2455 -0.8629
  245MOL0     C32953   4.294   5.609   3.921 -0.0252  0.1774  0.1182
  245MOL0     C32954   4.146   5.569   3.927 -1.2887  0.0388 -0.1022
  245MOL0     C32955   4.053   5.686   3.891 -0.0826 -0.2276 -0.0351
  245MOL0     C32956   3.920   5.694   3.959  0.2577  0.3502 -0.1963
  245MOL0     N32957   3.825   5.590   3.911 -0.5280  0.0335  0.3487
  245MOL0     C32958   3.794   5.468   3.976  0.0095  0.1607 -0.1529
  245MOL0     C32959   3.708   5.413   3.883 -0.4659  0.6422 -0.6696
  245MOL0     C32960   3.659   5.275   3.884 -0.3075  0.1712 -0.1471
  245MOL0     C32961   3.511   5.253   3.872  0.3312  0.0477 -1.0708
  245MOL0     C32962   3.448   5.267   3.737  1.0230  0.6509 -0.3205
  245MOL0     C32963   3.300   5.227   3.727 -0.6385 -0.2536 -0.3426
  245MOL0     O32964   3.251   5.247   3.595  0.3731 -0.2439 -1.2981
  245MOL0     C32965   3.112   5.240   3.575  0.2342 -0.7138 -0.3945
  245MOL0     C32966   3.016   5.179   3.658 -0.0443 -0.4815 -1.3476
  245MOL0     C32967   2.878   5.170   3.625 -1.0499  0.1987  0.1082
  245MOL0     C32968   2.782   5.114   3.729  0.0537  0.6966 -0.1849
  245MOL0     C32969   2.831   5.222   3.505  0.5759 -0.4437  0.0888
  245MOL0     C32970   2.688   5.219   3.465 -0.2029 -0.5500  0.3828
  245MOL0     O32971   2.672   5.165   3.339 -0.2513 -0.2645 -0.1940
  245MOL0     C32972   2.551   5.128   3.290 -0.6147  0.4870 -0.0282
  245MOL0     C32973   2.424   5.171   3.326 -0.1091 -0.9487  0.4779
  245MOL0     C32974   2.322   5.135   3.250 -0.0363  0.9899  0.5662
  245MOL0     C32975   2.329   5.046   3.141  0.5929  0.4468  0.7799
  245MOL0     O32976   2.216   4.994   3.068  0.0281 -0.0919  0.2897
  245MOL0     C32977   2.084   5.035   3.108 -1.5930 -0.4997  0.6303
  245MOL0     C32978   1.967   4.988   3.024  0.3127  0.3080  0.6001
  245MOL0     C32979   1.828   5.026   3.087 -0.8283 -0.0718 -0.2818
  245MOL0     C32980   1.706   4.930   3.052  0.0707 -0.8102  0.3415
  245MOL0     C32981   1.576   5.005   3.045 -0.0758 -0.5658  0.1024
  245MOL0     C32982   1.470   4.921   2.985  0.3508  0.0843 -0.1480
  245MOL0     C32983   1.342   5.009   2.986 -0.8311  0.2201  0.4441
  245MOL0     C32984   1.213   4.927   2.942 -0.2896  0.2668 -0.0745
  245MOL0    Cl32985   1.082   5.046   2.944 -0.2443 -0.2275  0.1931
  245MOL0     C32986   2.456   5.001   3.105  0.2314 -0.3531 -0.3667
  245MOL0     C32987   2.570   5.043   3.179 -0.5311 -0.4801  0.9128
  245MOL0     O32988   2.601   5.253   3.540 -0.1903 -0.0683  0.4465
  245MOL0     C32989   2.927   5.267   3.415 -0.0781 -0.2181 -0.1480
  245MOL0     C32990   3.061   5.289   3.456  0.1811 -0.3358 -0.1571
  245MOL0     N32991   3.680   5.506   3.781  0.0416 -0.5839  0.1185
  245MOL0     N32992   3.752   5.613   3.799 -0.2082  0.2215 -0.8092
  245MOL0     C32993   4.967   5.821   3.697  0.4629 -0.6018 -0.4391
  245MOL0     C32994   5.105   5.833   3.665 -0.1467  1.0426  0.5127
  245MOL0     C32995   5.509   5.867   3.535 -0.4495  0.4843 -0.3119
  245MOL0     C32996   5.574   5.754   3.545 -0.7228 -0.2357 -0.1372
  245MOL0     C32997   5.719   5.752   3.574  0.4432  0.4743 -0.1981
  245MOL0     C32998   5.793   5.863   3.586  0.1396 -0.1525 -0.0864
  245MOL0     O32999   5.927   5.849   3.610  0.1322  0.1847 -0.6338
  245MOL0     C33000   6.020   5.940   3.548 -0.7033  1.1735  0.2519
  245MOL0     C33001   6.058   5.898   3.405  0.3008 -1.5482  0.9603
  245MOL0     C33002   6.165   5.788   3.386 -0.5926  0.1062 -0.7182
  245MOL0     C33003   6.309   5.828   3.401 -0.2295 -0.3350 -0.0353
  245MOL0     C33004   6.363   5.921   3.299 -0.6146 -0.5314 -0.0782
  245MOL0     C33005   6.407   5.996   3.213 -0.5705 -0.3079 -0.6836
  245MOL0     C33006   5.721   5.989   3.570 -0.6028  1.0121 -0.3347
  245MOL0     C33007   5.588   5.989   3.537 -0.4602  0.5755 -0.8534
  245MOL0     H33008   5.147   5.575   3.446 -0.7603 -0.0932 -1.3574
  245MOL0     H33009   4.894   5.563   3.491  0.3367 -0.3018 -0.5211
  245MOL0     H33010   4.672   5.866   3.726  0.7125  2.4358 -1.4532
  245MOL0     H33011   4.686   5.826   3.547  4.1111 -1.3720  0.5293
  245MOL0     H33012   4.454   5.788   3.619 -0.4581 -1.3075 -2.2694
  245MOL0     H33013   4.533   5.635   3.571 -0.3973 -0.4788  0.4117
  245MOL0     H33014   4.553   5.564   3.806 -0.7318 -1.2326 -0.6743
  245MOL0     H33015   4.517   5.718   3.861  1.4362  0.5862 -1.3205
  245MOL0     H33016   4.289   5.674   3.724 -1.4159 -0.0535  0.2036
  245MOL0     H33017   4.343   5.502   3.746 -0.2663 -1.4144  2.0875
  245MOL0     H33018   4.348   5.548   3.994 -1.7843  0.5271  1.8033
  245MOL0     H33019   4.298   5.708   3.967 -3.6245 -0.3873  2.0096
  245MOL0     H33020   4.122   5.482   3.866 -0.0453  0.0622 -0.6603
  245MOL0     H33021   4.122   5.542   4.030 -1.6269  1.1675  0.1316
  245MOL0     H33022   4.101   5.783   3.906  0.3092  0.0288 -2.4486
  245MOL0     H33023   4.042   5.675   3.783 -0.6718 -1.4483  0.1369
  245MOL0     H33024   3.877   5.794   3.945 -0.9004 -0.3838 -2.4359
  245MOL0     H33025   3.920   5.693   4.068 -1.6089  1.4649 -0.1404
  245MOL0     H33026   3.837   5.432   4.069  2.8627 -1.8732 -2.0995
  245MOL0     H33027   3.708   5.221   3.803 -0.6994  0.0808 -0.3223
  245MOL0     H33028   3.694   5.236   3.981  2.9379  0.4923 -1.0685
  245MOL0     H33029   3.455   5.306   3.949 -1.5628 -3.4831  0.2353
  245MOL0     H33030   3.500   5.152   3.913 -0.4833  1.7496  3.4428
  245MOL0     H33031   3.513   5.210   3.671  5.5009  3.0168  1.5999
  245MOL0     H33032   3.445   5.370   3.700  0.9194  0.2439 -1.5035
  245MOL0     H33033   3.236   5.279   3.798  0.2341 -1.9210  1.8140
  245MOL0     H33034   3.298   5.120   3.752 -2.7097 -0.2433 -0.3279
  245MOL0     H33035   3.049   5.157   3.759 -1.1481 -0.2870 -0.9345
  245MOL0     H33036   2.845   5.062   3.802 -0.7209 -0.5204 -0.3362
  245MOL0     H33037   2.727   5.191   3.784 -1.9833  0.5329 -1.8341
  245MOL0     H33038   2.706   5.041   3.699 -0.5241  0.6566  1.2975
  245MOL0     H33039   2.411   5.229   3.416  0.9252  0.2535 -0.1313
  245MOL0     H33040   2.223   5.169   3.278 -0.7547  0.1520 -0.8324
  245MOL0     H33041   2.074   5.002   3.212  0.7046  1.0969  1.4383
  245MOL0     H33042   2.079   5.144   3.102 -3.8942 -0.5838  0.2720
  245MOL0     H33043   1.971   5.028   2.922  0.2589 -0.0945  0.4380
  245MOL0     H33044   1.977   4.879   3.020  2.8278  0.3557  3.0262
  245MOL0     H33045   1.805   5.127   3.053  0.1141  0.1034 -0.4046
  245MOL0     H33046   1.842   5.036   3.195 -3.0555  1.9711 -0.0899
  245MOL0     H33047   1.729   4.887   2.954  1.1658  1.1123 -0.3165
  245MOL0     H33048   1.692   4.854   3.129 -0.2038 -1.8349 -0.6835
  245MOL0     H33049   1.579   5.096   2.985  1.8725  0.2478  1.3360
  245MOL0     H33050   1.543   5.038   3.144 -2.7532  0.1251 -0.9404
  245MOL0     H33051   1.495   4.895   2.882 -4.2765  2.6040 -2.1992
  245MOL0     H33052   1.452   4.840   3.057  2.1372  0.5685  0.9187
  245MOL0     H33053   1.344   5.093   2.917 -0.7889 -0.8619 -0.9110
  245MOL0     H33054   1.325   5.057   3.083 -1.0234  1.5139 -0.2145
  245MOL0     H33055   1.194   4.850   3.017 -0.2210  0.1655 -0.1602
  245MOL0     H33056   1.231   4.874   2.848  0.2014 -0.1497  0.2421
  245MOL0     H33057   2.464   4.931   3.022 -1.4162  0.5781 -1.3638
  245MOL0     H33058   2.674   5.024   3.155 -0.8637 -1.6584  0.2981
  245MOL0     H33059   2.882   5.282   3.318 -1.4138 -0.3191  0.4376
  245MOL0     H33060   3.132   5.330   3.385 -0.3343  2.0027  0.6004
  245MOL0     H33061   4.918   5.891   3.765 -1.0505  0.8578 -2.8919
  245MOL0     H33062   5.166   5.901   3.724  2.2426 -2.4637  2.4373
  245MOL0     H33063   5.514   5.665   3.530 -2.1886  0.7735 -0.4709
  245MOL0     H33064   5.767   5.655   3.577 -2.2826 -0.9354  0.4673
  245MOL0     H33065   5.990   6.044   3.560 -0.9783  1.4139 -1.9610
  245MOL0     H33066   6.110   5.915   3.605 -0.9026  1.2973  0.6236
  245MOL0     H33067   6.091   5.993   3.361  0.5960 -1.6750  0.9069
  245MOL0     H33068   5.966   5.870   3.352  1.2124  0.9266 -2.3015
  245MOL0     H33069   6.156   5.755   3.282  1.1939  0.8906 -1.1496
  245MOL0     H33070   6.144   5.707   3.456  0.0286 -1.1780 -1.9781
  245MOL0     H33071   6.375   5.740   3.394 -0.5040 -0.4440 -1.7750
  245MOL0     H33072   6.312   5.865   3.503  0.5026 -0.0866 -0.1404
  245MOL0     H33073   6.449   6.081   3.164 -2.0138  0.4688 -0.6357
  245MOL0     H33074   5.775   6.083   3.579  1.7649 -0.1895 -0.9886
  245MOL0     H33075   5.538   6.085   3.525  0.6798  1.5827  1.7749
  246MOL0     O33076  10.707   7.054   7.250  0.6223  0.5161  0.3847
  246MOL0     C33077  10.740   6.958   7.319  0.5628 -0.1175 -0.9772
  246MOL0     O33078  10.661   6.847   7.340  0.1087 -0.4771  0.4747
  246MOL0     C33079  10.557   6.829   7.249  0.4320  0.8374 -0.1416
  246MOL0     C33080  10.590   6.773   7.124  0.3261  0.8394 -0.4810
  246MOL0     C33081  10.501   6.752   7.017  0.0684 -0.4121 -1.1388
  246MOL0     C33082  10.367   6.772   7.049  0.7099 -0.6689  0.1762
  246MOL0     O33083  10.262   6.753   6.965  0.3690  0.2786 -0.1087
  246MOL0     C33084  10.279   6.683   6.843  0.4375  0.1827 -0.1736
  246MOL0     C33085  10.139   6.628   6.803  1.2194  0.3265  0.4647
  246MOL0     C33086  10.131   6.563   6.664 -0.5485  0.5529  0.2967
  246MOL0     C33087   9.987   6.517   6.630 -0.3715 -0.3257  0.3188
  246MOL0     C33088   9.879   6.625   6.642 -0.0110  0.3388  0.5902
  246MOL0     C33089   9.739   6.563   6.640 -0.8119  0.2829 -0.0778
  246MOL0     C33090   9.634   6.667   6.671 -0.0946  0.0836  0.3377
  246MOL0     C33091   9.494   6.612   6.700 -0.0891  0.0880  0.3850
  246MOL0     N33092   9.425   6.571   6.579 -0.0000 -0.5393  0.0197
  246MOL0     C33093   9.345   6.649   6.494  1.6458 -0.5228  0.6113
  246MOL0     C33094   9.295   6.567   6.405  0.3806 -0.0145  0.4726
  246MOL0     C33095   9.216   6.584   6.278 -0.0053 -0.0253  0.5210
  246MOL0     C33096   9.072   6.610   6.307 -0.4800 -0.4240 -0.9274
  246MOL0     C33097   8.996   6.508   6.395 -0.2475 -0.1324 -0.3731
  246MOL0     C33098   8.999   6.365   6.331 -0.5194 -0.2515 -0.0167
  246MOL0     O33099   8.908   6.273   6.397  0.3253  0.5363 -0.2557
  246MOL0     C33100   8.775   6.290   6.384 -0.2150 -0.6255 -0.5937
  246MOL0     C33101   8.712   6.379   6.305 -0.5076  0.1750 -0.3851
  246MOL0     C33102   8.578   6.370   6.278  0.3465 -0.0218 -0.0745
  246MOL0     C33103   8.516   6.467   6.175  0.3826  0.1591  0.0555
  246MOL0     C33104   8.494   6.283   6.358  0.8454  0.3632  0.0663
  246MOL0     C33105   8.345   6.263   6.355 -0.0617 -0.0349 -0.2277
  246MOL0     O33106   8.285   6.182   6.447 -0.7488  0.1642  0.0005
  246MOL0     C33107   8.152   6.156   6.434  1.0234  0.0888  0.8520
  246MOL0     C33108   8.059   6.223   6.506  0.2003  0.1134 -0.5503
  246MOL0     C33109   7.919   6.210   6.488 -0.1212 -0.2409  0.4229
  246MOL0     C33110   7.870   6.113   6.395  0.8396  0.1317  0.2750
  246MOL0     O33111   7.732   6.082   6.373 -0.3632  0.5593 -0.3212
  246MOL0     C33112   7.633   6.098   6.479  0.2420  0.0937 -0.3623
  246MOL0     C33113   7.508   6.021   6.444 -0.1192  0.3456  0.0548
  246MOL0     C33114   7.453   6.080   6.308 -1.1017  0.6054  0.2038
  246MOL0     C33115   7.380   6.209   6.320  0.1625 -0.4426 -0.8163
  246MOL0     C33116   7.346   6.263   6.179  0.1091  0.0714  0.8251
  246MOL0     C33117   7.226   6.195   6.111  0.5467 -0.5829  0.1205
  246MOL0     C33118   7.177   6.275   5.991  0.1255  0.8708  0.7029
  246MOL0     C33119   7.045   6.233   5.924  0.3504  0.0305  0.6623
  246MOL0    Cl33120   7.078   6.091   5.824  0.0216  0.5577 -0.0242
  246MOL0     C33121   7.968   6.038   6.327  0.8844 -0.6485  0.0178
  246MOL0     C33122   8.099   6.061   6.350 -0.1938 -0.4870  0.8568
  246MOL0     O33123   8.290   6.317   6.265 -0.5386 -0.1844  0.0705
  246MOL0     C33124   8.559   6.194   6.449  0.7155  0.8083 -0.4027
  246MOL0     C33125   8.694   6.203   6.467 -0.0534  0.2976  0.1556
  246MOL0     N33126   9.334   6.437   6.444 -0.3583  0.0169  0.0013
  246MOL0     N33127   9.405   6.442   6.551  0.3478  0.0867  0.3735
  246MOL0     C33128  10.327   6.820   7.175 -0.0751  0.4711 -0.1743
  246MOL0     C33129  10.418   6.852   7.273 -0.7141  0.8701  0.3736
  246MOL0     C33130  10.866   6.966   7.384  0.0914  0.2256  0.1270
  246MOL0     C33131  10.942   7.082   7.389  0.6470  0.8169 -0.6934
  246MOL0     C33132  11.063   7.067   7.454  0.7928  0.4492  0.4063
  246MOL0     C33133  11.122   6.954   7.518  0.0741  0.3551 -0.3060
  246MOL0     O33134  11.254   6.958   7.567  0.2778 -0.9966  0.2377
  246MOL0     C33135  11.263   6.891   7.692 -0.3478  0.1810  0.5722
  246MOL0     C33136  11.150   6.904   7.794  0.0946 -0.1810 -0.0823
  246MOL0     C33137  11.119   7.048   7.840  0.8573  0.0553 -0.0275
  246MOL0     C33138  10.970   7.072   7.892 -0.0989  0.0957 -0.3645
  246MOL0     C33139  10.875   7.073   7.789 -0.3747 -0.0430 -0.1588
  246MOL0     C33140  10.790   7.071   7.704  0.1793  0.0563 -0.5660
  246MOL0     C33141  11.043   6.838   7.512 -0.3805 -0.7660 -0.6667
  246MOL0     C33142  10.916   6.848   7.440  0.6175 -0.3478  0.1149
  246MOL0     H33143  10.697   6.774   7.105  0.1969  1.6952 -1.2477
  246MOL0     H33144  10.542   6.726   6.920 -0.7311  1.1450 -1.9360
  246MOL0     H33145  10.321   6.754   6.772  2.5928  1.7720  2.5190
  246MOL0     H33146  10.348   6.598   6.842 -1.1109 -1.1292 -0.7445
  246MOL0     H33147  10.118   6.558   6.884  3.9588 -0.5571  0.5329
  246MOL0     H33148  10.074   6.716   6.807  1.5169  0.6204 -0.7737
  246MOL0     H33149  10.172   6.630   6.588  0.8915 -0.3842  0.2037
  246MOL0     H33150  10.192   6.473   6.673 -0.3374  0.8702  4.7889
  246MOL0     H33151   9.989   6.482   6.527  2.2708  1.0133 -0.1791
  246MOL0     H33152   9.962   6.432   6.695  1.0387  0.8617  2.5423
  246MOL0     H33153   9.883   6.673   6.740  2.9623 -0.0833  0.7685
  246MOL0     H33154   9.887   6.698   6.561 -1.7376 -0.6981 -0.5886
  246MOL0     H33155   9.714   6.504   6.551  0.7988  0.0891 -0.4299
  246MOL0     H33156   9.742   6.493   6.724 -2.0586  2.0159  1.4933
  246MOL0     H33157   9.658   6.730   6.756 -2.5007  0.2660  0.9402
  246MOL0     H33158   9.619   6.735   6.587  0.2206  0.4407  0.5715
  246MOL0     H33159   9.425   6.683   6.747  0.0766  0.6916 -0.2732
  246MOL0     H33160   9.510   6.526   6.766 -0.3470  0.4779  0.9749
  246MOL0     H33161   9.335   6.757   6.490 -2.1629 -0.8006 -1.0886
  246MOL0     H33162   9.256   6.664   6.215 -0.0876 -0.8493 -0.6107
  246MOL0     H33163   9.225   6.485   6.232 -3.0028 -1.8984  3.4884
  246MOL0     H33164   9.016   6.622   6.214  0.7927  0.9492 -1.5538
  246MOL0     H33165   9.073   6.710   6.352  0.9070  0.2155 -2.2708
  246MOL0     H33166   8.896   6.553   6.393 -0.1285  0.1566 -2.7175
  246MOL0     H33167   9.041   6.509   6.495 -0.2674 -2.1179 -0.3159
  246MOL0     H33168   9.104   6.334   6.333 -0.2632  0.5827 -0.3980
  246MOL0     H33169   8.973   6.375   6.225 -2.6649  1.0871  0.5765
  246MOL0     H33170   8.769   6.439   6.236  2.5254 -2.3348 -0.2681
  246MOL0     H33171   8.469   6.413   6.092  0.1006  0.2372  0.1622
  246MOL0     H33172   8.438   6.531   6.219  0.6870  0.0594  0.7587
  246MOL0     H33173   8.589   6.537   6.133 -0.6053  0.7629 -0.6898
  246MOL0     H33174   8.094   6.294   6.581  1.2045  0.0337 -0.9313
  246MOL0     H33175   7.861   6.275   6.553 -0.2623  1.7897 -1.6029
  246MOL0     H33176   7.665   6.058   6.576  0.3596 -1.3408 -0.9632
  246MOL0     H33177   7.610   6.201   6.507  1.0189 -0.5119  2.8318
  246MOL0     H33178   7.534   5.915   6.432 -1.1858  0.3443 -2.7911
  246MOL0     H33179   7.437   6.035   6.526  0.3807  2.6041  0.1493
  246MOL0     H33180   7.384   6.017   6.250  0.2216 -0.1693 -0.5844
  246MOL0     H33181   7.537   6.090   6.239 -1.0663 -2.8244 -0.4155
  246MOL0     H33182   7.288   6.183   6.373  0.5266 -0.5490 -0.2276
  246MOL0     H33183   7.442   6.285   6.371 -1.5205 -0.3067  1.1486
  246MOL0     H33184   7.436   6.260   6.117  0.0387 -0.1960  0.7346
  246MOL0     H33185   7.323   6.369   6.196 -2.4660 -0.4150  0.7854
  246MOL0     H33186   7.248   6.089   6.096 -1.5620 -1.4250  2.3028
  246MOL0     H33187   7.139   6.188   6.177  0.7287 -3.4421  0.1611
  246MOL0     H33188   7.259   6.276   5.919 -0.2813  3.9939  0.1530
  246MOL0     H33189   7.162   6.378   6.024  3.0878  1.5137  0.3159
  246MOL0     H33190   7.016   6.308   5.849  0.2173 -1.2648 -0.6181
  246MOL0     H33191   6.958   6.220   5.988 -0.7063  0.8990 -0.5358
  246MOL0     H33192   7.919   5.971   6.258 -1.5323  0.7759  0.2155
  246MOL0     H33193   8.168   6.018   6.278 -2.4012 -0.6138 -1.3296
  246MOL0     H33194   8.501   6.132   6.517  1.6359 -2.1173 -2.1063
  246MOL0     H33195   8.737   6.133   6.538 -1.9295 -0.3242  0.7298
  246MOL0     H33196  10.220   6.811   7.191 -1.0398  0.6708 -4.9450
  246MOL0     H33197  10.375   6.879   7.369 -3.6736 -0.2350 -0.5509
  246MOL0     H33198  10.913   7.178   7.347 -4.5322  0.3865  1.1577
  246MOL0     H33199  11.111   7.164   7.464  0.7009  0.5967 -0.5335
  246MOL0     H33200  11.277   6.785   7.673  3.2738  1.2289 -4.6381
  246MOL0     H33201  11.348   6.933   7.748 -0.1873  0.2809  0.2543
  246MOL0     H33202  11.179   6.847   7.883  0.8596 -0.8064 -0.7272
  246MOL0     H33203  11.055   6.859   7.765 -1.2354  1.2428  1.7734
  246MOL0     H33204  11.146   7.112   7.756  0.4762  0.5278  0.2097
  246MOL0     H33205  11.185   7.076   7.922  0.9126  0.3862 -0.1853
  246MOL0     H33206  10.957   7.168   7.943 -1.5405  0.1760 -0.8380
  246MOL0     H33207  10.950   6.994   7.966 -0.3530  0.6714  0.1868
  246MOL0     H33208  10.708   7.059   7.635 -0.4632 -1.3909  0.4095
  246MOL0     H33209  11.077   6.744   7.553  0.8732 -0.6212 -1.3182
  246MOL0     H33210  10.868   6.751   7.435  4.5174 -2.5670  1.3169
  247MOL0     O33211   9.484   5.475   2.968  0.2157 -0.4934 -0.4572
  247MOL0     C33212   9.383   5.405   2.987 -0.5624  0.2457  0.2924
  247MOL0     O33213   9.378   5.283   3.054 -0.0526 -0.5309  0.4991
  247MOL0     C33214   9.485   5.226   3.103  0.2132  0.8973  0.0206
  247MOL0     C33215   9.600   5.283   3.153  0.6764 -0.1872  0.8488
  247MOL0     C33216   9.714   5.210   3.182  0.0783 -0.1118 -0.7169
  247MOL0     C33217   9.709   5.069   3.188  0.4913  0.4466 -0.0164
  247MOL0     O33218   9.809   4.981   3.214 -0.2563  0.0005 -0.1388
  247MOL0     C33219   9.940   5.036   3.194  0.7707 -0.4793  1.3375
  247MOL0     C33220  10.031   4.922   3.181  0.1718 -0.1498 -0.3918
  247MOL0     C33221  10.051   4.872   3.330 -0.2369  0.2230  0.2262
  247MOL0     C33222  10.168   4.938   3.403  0.0556 -0.5702  0.5583
  247MOL0     C33223  10.222   4.887   3.533 -0.3474 -0.7382 -0.0527
  247MOL0     C33224  10.111   4.879   3.640  1.0231 -0.0831  0.1032
  247MOL0     C33225  10.161   4.881   3.782  0.3273 -0.3084 -1.1497
  247MOL0     C33226  10.218   4.756   3.844 -0.1897  0.5424 -0.6474
  247MOL0     N33227  10.351   4.723   3.780  0.0379 -0.3248 -0.1242
  247MOL0     C33228  10.481   4.792   3.786 -0.3203 -0.3106  0.4463
  247MOL0     C33229  10.561   4.739   3.683  0.2226  0.0900 -0.3220
  247MOL0     C33230  10.699   4.790   3.653  0.2788  0.6146 -0.1692
  247MOL0     C33231  10.713   4.891   3.547  0.9560 -0.2878 -0.1806
  247MOL0     C33232  10.631   5.009   3.584  0.2064  0.2857  0.0679
  247MOL0     C33233  10.642   5.132   3.491  0.4805 -1.0060 -0.7637
  247MOL0     O33234  10.572   5.107   3.371  0.4154 -0.3171  0.0378
  247MOL0     C33235  10.451   5.172   3.328  0.1110 -0.4733 -0.3326
  247MOL0     C33236  10.418   5.152   3.197  0.2978 -0.1247  0.0779
  247MOL0     C33237  10.299   5.207   3.142  0.4424 -0.0818  0.7888
  247MOL0     C33238  10.269   5.173   2.993 -0.2364  0.0319  0.2679
  247MOL0     C33239  10.215   5.297   3.222  0.0388  0.8218 -0.6607
  247MOL0     C33240  10.087   5.364   3.180  0.4330 -0.5043  0.2590
  247MOL0     O33241  10.034   5.457   3.270 -0.4844  0.3888  0.2091
  247MOL0     C33242   9.922   5.530   3.247 -0.9158 -0.9153  0.2229
  247MOL0     C33243   9.884   5.608   3.359  0.2558  1.3584  0.2458
  247MOL0     C33244   9.767   5.678   3.353 -0.0138 -0.0864 -0.3598
  247MOL0     C33245   9.690   5.693   3.234  0.5211 -0.1822  0.1544
  247MOL0     O33246   9.569   5.769   3.239 -0.8504 -0.0053 -0.0287
  247MOL0     C33247   9.515   5.811   3.115  0.8512 -0.1487  0.8120
  247MOL0     C33248   9.393   5.903   3.148  0.0678 -0.4514 -0.0878
  247MOL0     C33249   9.304   5.841   3.250 -0.2487  0.3466  0.0715
  247MOL0     C33250   9.162   5.885   3.243 -0.7866  0.5488 -0.2295
  247MOL0     C33251   9.082   5.837   3.368  0.1370  0.1196 -0.8294
  247MOL0     C33252   8.943   5.908   3.373 -0.6298 -0.2381 -0.0156
  247MOL0     C33253   8.847   5.834   3.274  0.4624 -0.1915  0.0527
  247MOL0     C33254   8.736   5.913   3.219  0.0655  0.2946  0.4653
  247MOL0    Cl33255   8.788   6.037   3.099 -0.1454 -0.0063 -0.1463
  247MOL0     C33256   9.740   5.629   3.122  0.7871  0.8260 -0.5149
  247MOL0     C33257   9.846   5.548   3.130  0.3103  0.5218  0.3141
  247MOL0     O33258  10.042   5.334   3.068 -0.4236  0.2416  0.5107
  247MOL0     C33259  10.251   5.303   3.360 -1.0263 -0.0719  0.1006
  247MOL0     C33260  10.366   5.244   3.410  0.1912 -0.1362 -0.1933
  247MOL0     N33261  10.484   4.639   3.630  0.2697  0.1445  0.8223
  247MOL0     N33262  10.372   4.631   3.685 -0.3257 -0.4501  0.0468
  247MOL0     C33263   9.585   5.001   3.174  0.4221  0.2561 -0.1465
  247MOL0     C33264   9.473   5.080   3.123  0.2735 -0.1706  0.2569
  247MOL0     C33265   9.256   5.466   2.947  0.2099 -0.2626  0.6237
  247MOL0     C33266   9.245   5.585   2.873 -0.0479 -0.3749 -0.0522
  247MOL0     C33267   9.127   5.648   2.845  0.1325 -0.2653 -0.4852
  247MOL0     C33268   9.001   5.593   2.884 -0.4986 -0.3121 -0.3738
  247MOL0     O33269   8.872   5.647   2.867  0.1926  0.2923  0.5174
  247MOL0     C33270   8.866   5.775   2.801 -0.3866 -0.2481 -0.2649
  247MOL0     C33271   8.732   5.777   2.745  0.5884 -0.2374 -0.4396
  247MOL0     C33272   8.623   5.782   2.846  0.0642 -0.5138  0.4634
  247MOL0     C33273   8.478   5.806   2.796 -0.0045 -0.7163  0.2886
  247MOL0     C33274   8.404   5.682   2.748 -0.1754 -0.7958 -0.5964
  247MOL0     C33275   8.352   5.569   2.725  0.5613 -0.8258 -0.5296
  247MOL0     C33276   9.011   5.474   2.953 -0.9939 -0.9035  0.2632
  247MOL0     C33277   9.131   5.416   2.991 -0.0769 -0.2743  0.3991
  247MOL0     H33278   9.600   5.392   3.147 -1.4130  0.2518  5.0100
  247MOL0     H33279   9.800   5.272   3.204 -1.6740  2.5289 -0.8437
  247MOL0     H33280   9.946   5.079   3.094  0.5173 -1.9972  0.6385
  247MOL0     H33281   9.971   5.106   3.273  1.9505  3.1982 -2.0484
  247MOL0     H33282   9.983   4.847   3.118 -0.2600 -0.8795  0.7866
  247MOL0     H33283  10.133   4.942   3.147 -0.3799 -0.7114 -2.5091
  247MOL0     H33284   9.962   4.874   3.394 -1.3471 -2.0805 -1.0993
  247MOL0     H33285  10.067   4.765   3.315  0.0192  0.4807 -1.5151
  247MOL0     H33286  10.259   4.930   3.343  1.1344 -0.5704  2.1197
  247MOL0     H33287  10.146   5.044   3.417  3.9711  0.4321  0.4484
  247MOL0     H33288  10.271   4.790   3.516 -1.7355 -1.1226 -2.3318
  247MOL0     H33289  10.304   4.952   3.568 -0.2609 -0.5411 -0.6128
  247MOL0     H33290  10.042   4.964   3.631  1.6219  0.2560 -1.6706
  247MOL0     H33291  10.059   4.784   3.630  0.9562 -0.4973  3.2890
  247MOL0     H33292  10.229   4.964   3.800 -0.8939  0.4921 -0.0409
  247MOL0     H33293  10.068   4.903   3.836  1.3438  0.1862  0.4696
  247MOL0     H33294  10.159   4.665   3.829  1.1098 -0.0191 -2.7977
  247MOL0     H33295  10.225   4.771   3.953 -0.2968  1.6654 -0.7860
  247MOL0     H33296  10.510   4.869   3.856 -0.5747  0.5823 -0.4022
  247MOL0     H33297  10.736   4.822   3.750 -0.6682  3.9203 -0.7853
  247MOL0     H33298  10.754   4.709   3.603 -0.9332 -0.3634  0.0191
  247MOL0     H33299  10.675   4.859   3.449  1.4581  0.1515 -0.5264
  247MOL0     H33300  10.818   4.921   3.545  1.5205 -2.0958  0.6808
  247MOL0     H33301  10.675   5.040   3.680  0.6646 -1.2179  0.3617
  247MOL0     H33302  10.525   4.987   3.594  0.3006 -0.9608 -1.3478
  247MOL0     H33303  10.748   5.145   3.471  0.4929 -0.8597 -0.6079
  247MOL0     H33304  10.611   5.221   3.547  1.4621  0.2395 -2.1355
  247MOL0     H33305  10.486   5.092   3.136  1.3715 -1.6075  2.5917
  247MOL0     H33306  10.331   5.086   2.970 -1.7693 -1.0460  0.0745
  247MOL0     H33307  10.166   5.146   2.969 -0.9068  1.2928  1.5689
  247MOL0     H33308  10.291   5.258   2.929  2.2485 -0.0598  0.9003
  247MOL0     H33309   9.959   5.604   3.437  1.9636 -1.8067 -1.3148
  247MOL0     H33310   9.728   5.715   3.447 -0.4415  0.0208 -0.5745
  247MOL0     H33311   9.583   5.867   3.050 -0.6595 -0.3591 -1.0588
  247MOL0     H33312   9.476   5.728   3.056  0.6513  1.2883 -1.1853
  247MOL0     H33313   9.437   5.994   3.191  1.0762 -0.1294 -1.7166
  247MOL0     H33314   9.352   5.926   3.050 -1.0912  1.8423  0.8682
  247MOL0     H33315   9.336   5.856   3.353 -0.8425  1.4247  0.1186
  247MOL0     H33316   9.312   5.734   3.228  1.6332  0.8493 -2.0043
  247MOL0     H33317   9.182   5.992   3.252  1.5600  0.4095 -2.5482
  247MOL0     H33318   9.111   5.873   3.147 -0.3356  0.2628 -0.4347
  247MOL0     H33319   9.135   5.854   3.462  0.8361 -1.3337 -0.9300
  247MOL0     H33320   9.061   5.729   3.371 -0.0025  0.1533 -0.5256
  247MOL0     H33321   8.911   5.902   3.477  0.8430  2.0990  0.6417
  247MOL0     H33322   8.951   6.012   3.339 -0.9780 -0.4666 -0.8370
  247MOL0     H33323   8.800   5.749   3.324  0.3867 -0.7533 -0.9577
  247MOL0     H33324   8.903   5.793   3.190 -0.3620  0.4004 -0.7999
  247MOL0     H33325   8.693   5.972   3.300 -0.7221 -0.2489  0.4552
  247MOL0     H33326   8.666   5.842   3.174  0.5480  1.3498 -2.1046
  247MOL0     H33327   9.690   5.648   3.027  1.5974 -0.7045 -1.2768
  247MOL0     H33328   9.883   5.495   3.042 -1.1235 -1.0079  0.5929
  247MOL0     H33329  10.210   5.366   3.438  1.1137 -1.2077  2.2796
  247MOL0     H33330  10.401   5.266   3.511  2.7276  1.3611 -1.2996
  247MOL0     H33331   9.564   4.895   3.189  3.0051 -0.1279  1.2658
  247MOL0     H33332   9.379   5.034   3.095 -0.4243  1.5226 -0.3094
  247MOL0     H33333   9.335   5.633   2.836  0.5503 -0.3616  1.3428
  247MOL0     H33334   9.122   5.747   2.800 -0.2257  1.5605  3.1292
  247MOL0     H33335   8.882   5.849   2.879 -1.2568  2.0336 -2.1521
  247MOL0     H33336   8.937   5.780   2.717  2.7378  0.2864  2.2126
  247MOL0     H33337   8.710   5.689   2.682 -2.2036  0.0133  0.0456
  247MOL0     H33338   8.715   5.866   2.684 -0.6589 -0.6365 -0.7073
  247MOL0     H33339   8.637   5.869   2.911 -0.0991  1.5235 -2.0656
  247MOL0     H33340   8.632   5.694   2.910  0.9796 -1.2865 -0.6921
  247MOL0     H33341   8.490   5.869   2.707  0.8450  0.7001  1.3602
  247MOL0     H33342   8.426   5.863   2.873  0.4914  2.3980 -1.5200
  247MOL0     H33343   8.282   5.489   2.713 -0.0986 -0.3361 -0.0505
  247MOL0     H33344   8.927   5.424   2.999 -0.8890 -1.9725 -0.6751
  247MOL0     H33345   9.130   5.329   3.056 -1.5028  0.0529  0.8663
  248MOL0     O33346   7.846   5.234   9.663 -0.2037 -0.1755 -0.4245
  248MOL0     C33347   7.954   5.293   9.653  0.6489 -0.3535  0.1429
  248MOL0     O33348   7.972   5.414   9.586 -0.3342 -0.5945 -0.2384
  248MOL0     C33349   7.860   5.472   9.540  0.0088  0.2146  0.0643
  248MOL0     C33350   7.752   5.505   9.622  0.5152  0.4017 -0.2042
  248MOL0     C33351   7.636   5.563   9.565 -0.4506 -0.2515  0.6256
  248MOL0     C33352   7.632   5.586   9.427  0.2639  0.2443 -0.2812
  248MOL0     O33353   7.517   5.633   9.361 -0.4965 -0.3881 -0.1669
  248MOL0     C33354   7.403   5.557   9.390  0.1968  0.2255  0.1712
  248MOL0     C33355   7.286   5.654   9.420 -0.8863  0.7668  0.3212
  248MOL0     C33356   7.162   5.577   9.448 -0.3499  0.4960 -0.6101
  248MOL0     C33357   7.091   5.534   9.319 -0.6928 -0.4729  0.3460
  248MOL0     C33358   6.969   5.448   9.348 -0.1507  0.3059 -0.5101
  248MOL0     C33359   6.860   5.458   9.236  0.5027 -0.7894 -0.0862
  248MOL0     C33360   6.736   5.365   9.258 -0.0369 -0.1868 -0.5638
  248MOL0     C33361   6.656   5.395   9.388 -0.6046 -0.0041 -0.6673
  248MOL0     N33362   6.516   5.351   9.366  0.0288  0.7166  0.4383
  248MOL0     C33363   6.460   5.219   9.354  0.2531  0.0652  0.3534
  248MOL0     C33364   6.323   5.237   9.349 -0.0373 -0.2583  0.5067
  248MOL0     C33365   6.232   5.128   9.311  0.9239 -0.6790 -0.6918
  248MOL0     C33366   6.136   5.085   9.425  0.7400 -0.4826 -0.3066
  248MOL0     C33367   6.027   4.988   9.366 -0.3914 -0.0612  0.1394
  248MOL0     C33368   5.951   4.927   9.472 -0.0176 -0.3149 -0.3919
  248MOL0     O33369   5.831   5.002   9.483  0.3998  0.2441  0.2145
  248MOL0     C33370   5.715   4.944   9.545 -0.2514 -0.4732  0.5455
  248MOL0     C33371   5.603   5.022   9.542 -0.0602  0.0908  0.2548
  248MOL0     C33372   5.483   4.979   9.586 -0.2728  0.4945  0.2169
  248MOL0     C33373   5.365   5.079   9.594 -0.0792 -0.5057  0.4456
  248MOL0     C33374   5.468   4.848   9.633 -0.3811  0.4951 -0.5769
  248MOL0     C33375   5.329   4.793   9.683  0.1684  0.8764  0.0004
  248MOL0     O33376   5.308   4.656   9.671  0.5573  0.3178 -0.4304
  248MOL0     C33377   5.194   4.599   9.719 -0.2862  0.0237  0.3938
  248MOL0     C33378   5.082   4.600   9.638 -0.0942  0.1129 -0.4732
  248MOL0     C33379   4.970   4.540   9.685 -0.9858 -0.5834 -0.5877
  248MOL0     C33380   4.965   4.471   9.812  0.0761 -0.4039  0.4815
  248MOL0     O33381   4.851   4.403   9.825  0.0176  0.6442  0.1929
  248MOL0     C33382   4.809   4.396   9.952  0.5553  0.9089 -0.7585
  248MOL0     C33383   4.652   4.407   9.960 -0.0757 -0.7906 -0.1111
  248MOL0     C33384   4.581   4.266   9.978 -0.1982  0.5597  0.0211
  248MOL0     C33385   4.439   4.280  10.035 -0.0307 -0.3660  0.5583
  248MOL0     C33386   4.379   4.140  10.046  0.6839  0.2071 -0.4904
  248MOL0     C33387   4.225   4.137  10.037  0.2456 -0.0953 -0.1283
  248MOL0     C33388   4.171   3.987  10.034 -0.0103 -0.2359 -0.1107
  248MOL0     C33389   4.166   3.920  10.177 -0.3281  0.2207 -0.9531
  248MOL0    Cl33390   4.047   4.017  10.280 -0.0032 -0.2620  0.2959
  248MOL0     C33391   5.085   4.458   9.885 -0.4613 -0.0795  0.0086
  248MOL0     C33392   5.203   4.526   9.838 -0.7783  0.2419 -0.2790
  248MOL0     O33393   5.248   4.867   9.735  0.8344 -0.4895 -0.4733
  248MOL0     C33394   5.577   4.767   9.641 -0.3053  0.5046  0.4023
  248MOL0     C33395   5.696   4.812   9.589 -0.2559 -0.8303 -0.0081
  248MOL0     N33396   6.300   5.371   9.357  0.2152 -0.0777 -1.1173
  248MOL0     N33397   6.415   5.436   9.372 -0.9974 -0.1739 -0.1226
  248MOL0     C33398   7.737   5.556   9.344 -0.7558  0.0772  0.6747
  248MOL0     C33399   7.852   5.500   9.399  0.4012 -0.1180  0.0013
  248MOL0     C33400   8.065   5.213   9.699 -0.8286 -0.0536 -0.3310
  248MOL0     C33401   8.200   5.242   9.657 -0.0218 -0.1839 -0.7534
  248MOL0     C33402   8.303   5.145   9.676 -0.1310 -0.3825 -0.4772
  248MOL0     C33403   8.276   5.035   9.763 -0.7305  0.0454 -0.2292
  248MOL0     O33404   8.381   4.946   9.779  0.4286 -0.1236  0.1959
  248MOL0     C33405   8.362   4.846   9.881  0.4430 -0.1948  0.8465
  248MOL0     C33406   8.445   4.720   9.865  0.3200 -0.3090 -0.4889
  248MOL0     C33407   8.405   4.650   9.735 -0.9324 -0.1501  0.1380
  248MOL0     C33408   8.450   4.503   9.741  0.9123  0.9226  0.4042
  248MOL0     C33409   8.584   4.466   9.772 -0.9410  0.2675 -0.5488
  248MOL0     C33410   8.702   4.447   9.788 -0.6639  0.6932  0.3142
  248MOL0     C33411   8.155   5.027   9.825  0.4698  0.1209 -0.0230
  248MOL0     C33412   8.048   5.111   9.791 -0.5013  0.2206  0.6901
  248MOL0     H33413   7.758   5.498   9.730  0.4752  5.0256  0.3005
  248MOL0     H33414   7.546   5.579   9.623 -0.8757 -0.1577 -0.0410
  248MOL0     H33415   7.382   5.502   9.298  3.6702 -2.8287  0.9515
  248MOL0     H33416   7.422   5.478   9.464 -1.7455 -1.9152 -1.4626
  248MOL0     H33417   7.322   5.722   9.498  0.9499  2.2342 -1.7094
  248MOL0     H33418   7.276   5.729   9.341  3.3487  1.7098  0.4303
  248MOL0     H33419   7.180   5.490   9.511  0.0085  0.7094 -0.4120
  248MOL0     H33420   7.092   5.637   9.508  0.6454 -1.4191  2.7155
  248MOL0     H33421   7.060   5.620   9.259  2.6661 -0.7497 -2.0012
  248MOL0     H33422   7.154   5.467   9.261 -0.0558 -0.7880  1.3670
  248MOL0     H33423   7.009   5.348   9.365 -1.8140 -0.6239 -1.7711
  248MOL0     H33424   6.923   5.479   9.442 -0.9502 -3.3628  0.4697
  248MOL0     H33425   6.836   5.563   9.215 -0.1635 -1.1788 -1.3752
  248MOL0     H33426   6.899   5.417   9.143  0.3114 -2.9709  0.7441
  248MOL0     H33427   6.665   5.389   9.178 -0.5401 -1.2671 -0.4643
  248MOL0     H33428   6.761   5.258   9.260 -1.1148 -0.5405  3.9470
  248MOL0     H33429   6.654   5.502   9.408 -1.0846 -0.1180 -0.0946
  248MOL0     H33430   6.701   5.353   9.478 -1.1237 -1.2402 -0.9570
  248MOL0     H33431   6.514   5.125   9.351 -0.2508 -0.2617  1.1688
  248MOL0     H33432   6.171   5.172   9.231  1.7173  2.0144  0.0620
  248MOL0     H33433   6.287   5.040   9.277  2.1860 -0.7534  1.3971
  248MOL0     H33434   6.083   5.166   9.477 -1.1152 -2.2279  0.6911
  248MOL0     H33435   6.198   5.045   9.505  2.3306  1.7733 -0.3112
  248MOL0     H33436   6.081   4.904   9.322  0.8726  1.0215 -0.4522
  248MOL0     H33437   5.958   5.038   9.297  0.5752  2.9919  1.2101
  248MOL0     H33438   6.015   4.921   9.560  3.0459  2.3367 -2.2186
  248MOL0     H33439   5.920   4.828   9.438  2.1615 -0.4008 -2.3462
  248MOL0     H33440   5.611   5.127   9.516  1.2147 -0.2590 -0.8558
  248MOL0     H33441   5.277   5.028   9.554  0.4797 -0.5091 -0.8116
  248MOL0     H33442   5.344   5.102   9.699 -1.4845 -0.7026  0.2286
  248MOL0     H33443   5.382   5.177   9.551 -0.9213  0.0447  1.3212
  248MOL0     H33444   5.085   4.624   9.532  0.9854  0.0692 -0.4609
  248MOL0     H33445   4.888   4.544   9.614 -0.8760  0.2650 -0.6766
  248MOL0     H33446   4.838   4.305  10.006 -0.2128  0.2775 -1.3868
  248MOL0     H33447   4.843   4.483  10.009 -1.5587  1.9804 -1.0172
  248MOL0     H33448   4.626   4.466  10.049  0.9177 -1.1746  0.4463
  248MOL0     H33449   4.611   4.459   9.873 -1.2678 -0.0425  0.8632
  248MOL0     H33450   4.640   4.202  10.045 -0.7263  0.9048  0.8301
  248MOL0     H33451   4.579   4.219   9.879 -1.6815  0.9981 -0.1807
  248MOL0     H33452   4.440   4.337  10.128 -1.5713  0.7521 -0.0679
  248MOL0     H33453   4.380   4.348   9.973  0.2573  0.0752  0.7652
  248MOL0     H33454   4.407   4.079  10.133  4.0466 -1.7926 -2.7219
  248MOL0     H33455   4.420   4.086   9.960  0.6407 -0.3815 -0.1483
  248MOL0     H33456   4.180   4.198  10.116  0.4892  1.6033 -1.2508
  248MOL0     H33457   4.190   4.178   9.942 -0.4203  0.0519  0.1720
  248MOL0     H33458   4.236   3.932   9.966 -0.0557 -2.0454  1.2391
  248MOL0     H33459   4.071   3.980   9.990  0.3331 -2.4292 -0.6343
  248MOL0     H33460   4.268   3.914  10.215  0.2809  1.1011 -2.3443
  248MOL0     H33461   4.131   3.817  10.168  2.5709 -0.8614 -1.0033
  248MOL0     H33462   5.080   4.382   9.963 -1.1198  0.0329  0.0847
  248MOL0     H33463   5.290   4.512   9.901  0.2138 -2.4967 -2.0922
  248MOL0     H33464   5.560   4.669   9.686  0.9935 -0.5065 -1.1959
  248MOL0     H33465   5.774   4.738   9.603  0.6538  0.0438 -0.3106
  248MOL0     H33466   7.750   5.595   9.243 -0.0799  0.7678  1.0219
  248MOL0     H33467   7.941   5.485   9.340  0.6172  0.6883  0.1100
  248MOL0     H33468   8.220   5.328   9.594  0.5330  0.7557  0.6607
  248MOL0     H33469   8.395   5.157   9.619  0.0946 -0.5217 -0.1448
  248MOL0     H33470   8.377   4.893   9.979  2.7959  3.9475 -1.2513
  248MOL0     H33471   8.261   4.806   9.865 -0.2728  1.6524  0.4858
  248MOL0     H33472   8.422   4.663   9.956  1.8824  0.8173  0.6693
  248MOL0     H33473   8.553   4.731   9.870  0.5715 -1.5819 -2.4584
  248MOL0     H33474   8.453   4.699   9.649 -1.3130 -0.4660 -0.2566
  248MOL0     H33475   8.296   4.645   9.724 -1.0976 -0.4026  1.6987
  248MOL0     H33476   8.434   4.460   9.642  1.3400  1.1806  0.2188
  248MOL0     H33477   8.393   4.457   9.822 -1.9680  0.1400 -1.8979
  248MOL0     H33478   8.806   4.424   9.798 -0.1705  2.5099 -0.1963
  248MOL0     H33479   8.130   4.957   9.904  1.4036  0.6991  0.8120
  248MOL0     H33480   7.953   5.092   9.840  0.5209 -1.9581  2.0126
  249MOL0     O33481   3.184   0.740   3.126  0.6663 -0.2325 -0.5133
  249MOL0     C33482   3.247   0.641   3.116  0.0426  0.1579 -0.1331
  249MOL0     O33483   3.209   0.530   3.052 -0.1220  0.6739  0.3249
  249MOL0     C33484   3.079   0.491   3.004  0.9697 -1.1718 -0.2649
  249MOL0     C33485   2.958   0.567   3.021  0.5462 -0.2834 -0.2786
  249MOL0     C33486   2.834   0.521   2.975  0.3447  0.0357  0.0896
  249MOL0     C33487   2.821   0.400   2.905 -0.6548  0.8286  0.0521
  249MOL0     O33488   2.701   0.352   2.861  0.1494  0.2717  0.1129
  249MOL0     C33489   2.611   0.309   2.967 -0.3867  0.2637 -0.2625
  249MOL0     C33490   2.670   0.192   3.044 -0.9402  0.2486  0.3166
  249MOL0     C33491   2.689   0.073   2.953  0.6256  0.7265  0.3297
  249MOL0     C33492   2.746  -0.047   3.032  0.2252  0.3963 -0.2458
  249MOL0     C33493   2.820  -0.162   2.956  0.5126 -0.2874 -0.3141
  249MOL0     C33494   2.947  -0.112   2.902 -0.8751  0.0960 -0.0594
  249MOL0     C33495   3.006  -0.209   2.791  0.2579 -0.3578  0.6071
  249MOL0     C33496   3.161  -0.199   2.773  0.1177 -0.5395  0.1590
  249MOL0     N33497   3.208  -0.066   2.739 -0.4861 -0.2836  0.0828
  249MOL0     C33498   3.193  -0.018   2.613 -0.1097  0.0556 -0.0153
  249MOL0     C33499   3.233   0.108   2.624 -0.1540 -0.0222 -0.2683
  249MOL0     C33500   3.225   0.210   2.519  0.2031 -0.0231  0.3673
  249MOL0     C33501   3.107   0.304   2.538  0.1140 -0.0299 -0.3457
  249MOL0     C33502   3.089   0.373   2.403 -0.6329  0.3505  0.5915
  249MOL0     C33503   2.989   0.486   2.399  1.2614 -0.3987 -1.3306
  249MOL0     O33504   2.870   0.462   2.472  0.3567 -0.6503 -0.6207
  249MOL0     C33505   2.763   0.552   2.467  0.2330 -0.3050 -0.3567
  249MOL0     C33506   2.749   0.659   2.382 -0.2249 -0.2514  0.0290
  249MOL0     C33507   2.626   0.731   2.372 -0.0356 -0.4532  0.9978
  249MOL0     C33508   2.604   0.838   2.263 -0.6496  0.7871 -0.1596
  249MOL0     C33509   2.515   0.697   2.458 -0.4508  0.2967  0.1137
  249MOL0     C33510   2.378   0.751   2.461 -0.9108  0.2282  0.2758
  249MOL0     O33511   2.331   0.778   2.345 -0.7837 -0.1687  0.6560
  249MOL0     C33512   2.238   0.879   2.340  0.6381  0.0372  0.2078
  249MOL0     C33513   2.262   1.001   2.281  0.1835 -0.5338  0.3088
  249MOL0     C33514   2.156   1.078   2.240  0.0183  0.8361  0.0326
  249MOL0     C33515   2.026   1.059   2.286  0.0310  0.1234 -0.3305
  249MOL0     O33516   1.928   1.149   2.257 -0.0459  0.0811  0.6177
  249MOL0     C33517   1.826   1.167   2.349  0.2677 -0.6778  0.0179
  249MOL0     C33518   1.728   1.267   2.291  0.3840  1.3999 -0.3629
  249MOL0     C33519   1.633   1.331   2.388  0.1188  0.5309 -0.4086
  249MOL0     C33520   1.531   1.422   2.321 -0.1959  0.6859  0.0815
  249MOL0     C33521   1.439   1.355   2.220  0.6824 -0.4185  0.6585
  249MOL0     C33522   1.334   1.464   2.166 -0.7467 -0.6905 -0.2373
  249MOL0     C33523   1.293   1.411   2.030  0.3017  0.5554  0.2505
  249MOL0     C33524   1.180   1.479   1.953  0.0924  0.8323  0.2120
  249MOL0    Cl33525   1.033   1.494   2.044 -0.0474  0.4120 -0.3308
  249MOL0     C33526   1.999   0.944   2.367  0.5951 -0.3197 -0.0954
  249MOL0     C33527   2.102   0.849   2.390 -0.1810 -0.3026 -0.0656
  249MOL0     O33528   2.314   0.746   2.568  0.2460 -0.5066  0.7692
  249MOL0     C33529   2.549   0.603   2.551 -0.4938  0.3672 -0.0689
  249MOL0     C33530   2.663   0.528   2.548  0.1592 -0.4244  0.6298
  249MOL0     N33531   3.286   0.128   2.753 -0.3303  0.1484  0.4430
  249MOL0     N33532   3.262   0.024   2.823 -0.1576  0.3791 -0.6151
  249MOL0     C33533   2.943   0.323   2.883 -0.1396 -0.0634 -0.1184
  249MOL0     C33534   3.064   0.368   2.941  0.6521  0.0681 -0.3251
  249MOL0     C33535   3.381   0.641   3.174 -0.1276 -0.0373 -0.2262
  249MOL0     C33536   3.472   0.549   3.124  0.0137 -0.3407  0.6239
  249MOL0     C33537   3.609   0.543   3.154  0.4375  0.1601 -0.0545
  249MOL0     C33538   3.662   0.630   3.257 -0.5789  1.1539  0.0290
  249MOL0     O33539   3.795   0.642   3.297  0.0810  0.2751  0.6180
  249MOL0     C33540   3.892   0.550   3.256  0.5782 -0.5432  1.0410
  249MOL0     C33541   4.010   0.568   3.358 -0.7344  0.4134 -0.0228
  249MOL0     C33542   4.137   0.482   3.330 -0.4050  0.0919 -1.0914
  249MOL0     C33543   4.265   0.543   3.398 -0.1249  1.1613  0.2008
  249MOL0     C33544   4.373   0.436   3.394 -0.1036 -0.7294  1.1691
  249MOL0     C33545   4.451   0.342   3.403 -0.5754 -0.0611 -0.6397
  249MOL0     C33546   3.569   0.724   3.305  0.3109 -0.8160  0.1878
  249MOL0     C33547   3.431   0.740   3.265 -0.4887  0.5637  0.7987
  249MOL0     H33548   2.970   0.663   3.069  0.3754  0.9821 -2.6006
  249MOL0     H33549   2.743   0.578   2.991 -0.4543 -0.7140 -1.4778
  249MOL0     H33550   2.602   0.391   3.039  1.6695  0.4765 -0.1752
  249MOL0     H33551   2.517   0.276   2.923 -1.2008 -0.4435  1.8899
  249MOL0     H33552   2.762   0.218   3.098  0.1030  2.4050 -2.2780
  249MOL0     H33553   2.595   0.176   3.122 -0.2084 -2.5894  0.5517
  249MOL0     H33554   2.596   0.036   2.909  1.2792 -1.1077  0.4029
  249MOL0     H33555   2.758   0.092   2.871 -0.8078 -0.8219 -1.3308
  249MOL0     H33556   2.816   0.004   3.099 -1.9485  2.7019  0.4219
  249MOL0     H33557   2.666  -0.093   3.090 -0.7956 -0.2026 -2.0427
  249MOL0     H33558   2.836  -0.241   3.030 -2.2823  0.2543  1.0323
  249MOL0     H33559   2.754  -0.208   2.881 -1.8505  2.8355 -0.3610
  249MOL0     H33560   2.945  -0.006   2.873  4.0683  0.8061  1.1862
  249MOL0     H33561   3.017  -0.104   2.986 -0.6909  1.2218 -0.3042
  249MOL0     H33562   2.981  -0.309   2.828 -0.1293  0.1027  1.6553
  249MOL0     H33563   2.961  -0.194   2.693  1.4782  2.0221  0.3417
  249MOL0     H33564   3.181  -0.263   2.687 -1.1749  0.3957 -0.8718
  249MOL0     H33565   3.194  -0.245   2.867  0.3273 -1.6000 -0.4094
  249MOL0     H33566   3.150  -0.057   2.522 -2.3729  3.2184 -0.4430
  249MOL0     H33567   3.317   0.268   2.528 -0.8334  1.7078  0.1340
  249MOL0     H33568   3.233   0.158   2.423  0.7408 -3.6730  2.1885
  249MOL0     H33569   3.132   0.369   2.622  0.6944  1.2520 -1.4770
  249MOL0     H33570   3.021   0.240   2.562  1.5858 -3.0591 -2.4938
  249MOL0     H33571   3.067   0.303   2.321  3.9171  0.9317 -1.4438
  249MOL0     H33572   3.188   0.410   2.373 -0.6089 -0.4166 -0.3230
  249MOL0     H33573   2.947   0.506   2.300  0.6403  2.9384 -0.5077
  249MOL0     H33574   3.035   0.581   2.429  1.6383 -1.1347  0.5391
  249MOL0     H33575   2.834   0.675   2.316  0.4973  0.0439  0.9904
  249MOL0     H33576   2.572   0.934   2.304  1.5337  4.0887 -5.1097
  249MOL0     H33577   2.703   0.848   2.216 -0.3944 -3.6182 -0.9809
  249MOL0     H33578   2.532   0.797   2.191  1.5459  0.5641 -2.3742
  249MOL0     H33579   2.356   1.023   2.233 -1.6888  1.9028 -2.6627
  249MOL0     H33580   2.180   1.165   2.180  0.4058  0.2873 -0.6168
  249MOL0     H33581   1.771   1.076   2.372 -0.1075 -0.5911 -0.5297
  249MOL0     H33582   1.869   1.207   2.441 -1.4516  0.4046  0.3992
  249MOL0     H33583   1.790   1.345   2.246  2.2519  0.3255  0.2411
  249MOL0     H33584   1.670   1.209   2.218  1.5852 -0.4861  0.1080
  249MOL0     H33585   1.694   1.393   2.455  0.7379  0.5271 -0.9615
  249MOL0     H33586   1.565   1.269   2.447  0.9538 -0.4697 -0.4745
  249MOL0     H33587   1.476   1.473   2.400  0.9322  1.3977  0.4366
  249MOL0     H33588   1.591   1.492   2.262  1.0414 -1.5349 -1.4500
  249MOL0     H33589   1.389   1.270   2.266  0.2337  0.0612  1.0714
  249MOL0     H33590   1.503   1.320   2.139  1.8582 -1.8840  2.1566
  249MOL0     H33591   1.258   1.474   2.244  0.8836 -1.3245  1.5123
  249MOL0     H33592   1.387   1.558   2.147 -1.6607 -0.3613 -1.2067
  249MOL0     H33593   1.252   1.311   2.049  0.6436 -0.0369 -1.8701
  249MOL0     H33594   1.384   1.402   1.970  0.5264  1.2461  0.4891
  249MOL0     H33595   1.153   1.424   1.862 -1.2015  2.3328 -0.3606
  249MOL0     H33596   1.205   1.578   1.913 -0.4443  1.3326  1.0778
  249MOL0     H33597   1.902   0.916   2.407  1.9013 -1.0152  2.8829
  249MOL0     H33598   2.087   0.750   2.432  2.0898 -0.7972 -0.2835
  249MOL0     H33599   2.477   0.583   2.630 -2.2241  0.9143 -1.4399
  249MOL0     H33600   2.675   0.444   2.616 -0.8839  1.2025  2.9548
  249MOL0     H33601   2.930   0.226   2.835  1.4631  0.4411 -1.6760
  249MOL0     H33602   3.146   0.298   2.942 -0.9052 -1.8269  0.0934
  249MOL0     H33603   3.454   0.472   3.049 -2.4609  1.1419 -0.4433
  249MOL0     H33604   3.678   0.469   3.113  2.8976  1.3802  1.6752
  249MOL0     H33605   3.853   0.448   3.250  3.1962 -1.5455 -1.2824
  249MOL0     H33606   3.942   0.568   3.160 -1.1898 -1.1997 -0.0476
  249MOL0     H33607   3.973   0.546   3.459  2.6295 -3.4870  0.6630
  249MOL0     H33608   4.054   0.668   3.359  1.0913 -0.3302  1.2275
  249MOL0     H33609   4.151   0.471   3.222  2.4991  2.8969 -1.1363
  249MOL0     H33610   4.125   0.378   3.363  0.9545  0.5557  1.0692
  249MOL0     H33611   4.245   0.571   3.502 -2.7512  1.7435 -0.3710
  249MOL0     H33612   4.289   0.621   3.325  0.8697 -1.7035 -2.7956
  249MOL0     H33613   4.511   0.253   3.406  0.3384  0.5718  0.6890
  249MOL0     H33614   3.606   0.804   3.368 -1.6393 -0.6454  1.1844
  249MOL0     H33615   3.358   0.814   3.294 -1.6474  0.1598 -0.9226
  250MOL0     O33616   6.155   8.473  11.208 -0.3674  0.3259 -0.4764
  250MOL0     C33617   6.162   8.589  11.171  0.2774  0.1670 -0.2485
  250MOL0     O33618   6.056   8.672  11.130 -0.2512 -0.6537  0.2363
  250MOL0     C33619   5.929   8.617  11.112  0.2189  0.3463 -0.1935
  250MOL0     C33620   5.868   8.535  11.209  0.2185  0.8524  0.1045
  250MOL0     C33621   5.738   8.476  11.178 -0.0454 -0.6179 -0.0327
  250MOL0     C33622   5.673   8.492  11.054 -0.1080 -0.3694  0.1716
  250MOL0     O33623   5.565   8.431  11.006 -0.3503 -0.3563  0.1592
  250MOL0     C33624   5.482   8.346  11.080 -0.0197 -0.1175 -0.9222
  250MOL0     C33625   5.361   8.320  10.995 -0.7900  0.3174 -0.0533
  250MOL0     C33626   5.251   8.252  11.074  0.2300  0.5556  0.0135
  250MOL0     C33627   5.144   8.186  10.993 -0.3654 -0.4267 -0.3340
  250MOL0     C33628   5.007   8.213  11.073 -0.3136 -0.1845  0.6201
  250MOL0     C33629   4.892   8.122  11.025  0.8595 -0.3309 -0.7073
  250MOL0     C33630   4.903   7.970  11.050 -0.5946 -0.2356 -0.5450
  250MOL0     C33631   4.795   7.884  10.989  0.1394 -1.0838  0.6809
  250MOL0     N33632   4.658   7.890  11.053 -0.4690  0.3019 -0.6394
  250MOL0     C33633   4.579   7.788  11.098 -0.6861 -0.1066  0.0309
  250MOL0     C33634   4.463   7.842  11.128  0.2440  0.0507  0.5765
  250MOL0     C33635   4.346   7.768  11.183  0.8144 -0.2700 -0.4071
  250MOL0     C33636   4.250   7.723  11.078 -0.2634 -1.1010 -0.4522
  250MOL0     C33637   4.155   7.623  11.150  0.1216  0.3639 -0.4301
  250MOL0     C33638   4.008   7.677  11.161  0.5853 -0.3797  0.0633
  250MOL0     O33639   3.943   7.586  11.249  0.6730  0.8477  0.2471
  250MOL0     C33640   3.809   7.606  11.259 -0.4278  0.3779 -0.3901
  250MOL0     C33641   3.765   7.532  11.369  0.1361 -0.4130 -0.5264
  250MOL0     C33642   3.630   7.538  11.402 -0.3391 -1.1235 -0.4217
  250MOL0     C33643   3.590   7.480  11.542  0.6980  0.2283 -0.1676
  250MOL0     C33644   3.537   7.593  11.314  0.6800 -0.7501  0.9571
  250MOL0     C33645   3.390   7.591  11.311 -0.0323 -0.2304  0.3651
  250MOL0     O33646   3.324   7.685  11.230  0.1376 -0.0005 -0.4285
  250MOL0     C33647   3.189   7.697  11.245  0.2410 -0.1074 -0.3270
  250MOL0     C33648   3.107   7.682  11.358  0.3744  0.2016  0.3920
  250MOL0     C33649   2.970   7.709  11.340  0.1031 -0.0716 -1.2240
  250MOL0     C33650   2.916   7.753  11.224 -0.0064 -0.0420  0.9600
  250MOL0     O33651   2.783   7.763  11.212 -0.0578 -0.7218  0.2144
  250MOL0     C33652   2.723   7.834  11.102 -0.4149 -0.8086 -0.2654
  250MOL0     C33653   2.569   7.825  11.110 -0.4198 -0.0220 -0.5106
  250MOL0     C33654   2.493   7.924  11.018 -0.6266  0.3255 -0.0755
  250MOL0     C33655   2.346   7.898  11.023 -0.3905 -0.8689  0.5753
  250MOL0     C33656   2.273   7.950  10.898  0.7506  0.2353  0.2840
  250MOL0     C33657   2.125   7.971  10.949  1.3368 -0.0920 -0.2918
  250MOL0     C33658   2.014   8.003  10.838 -0.0346  0.0278  0.3477
  250MOL0     C33659   1.888   8.027  10.904  0.2604 -0.6080 -0.2477
  250MOL0    Cl33660   1.758   8.042  10.782  0.0729 -0.0423  0.3053
  250MOL0     C33661   2.997   7.773  11.112 -0.2876  0.4435  0.5223
  250MOL0     C33662   3.130   7.742  11.127  0.0960  0.3675  0.0329
  250MOL0     O33663   3.338   7.501  11.375  0.3061 -0.0343  0.4957
  250MOL0     C33664   3.589   7.666  11.203  0.5811  0.3311  0.2800
  250MOL0     C33665   3.725   7.680  11.178  0.0125 -0.0369  0.5450
  250MOL0     N33666   4.472   7.980  11.093 -0.6712 -0.1026 -0.2318
  250MOL0     N33667   4.589   7.999  11.040 -0.8574 -0.1989 -0.0576
  250MOL0     C33668   5.733   8.575  10.959 -0.6538 -1.1286 -0.7979
  250MOL0     C33669   5.862   8.638  10.988  0.9315  0.1516 -0.3521
  250MOL0     C33670   6.296   8.647  11.172 -1.0186 -0.1032 -0.0130
  250MOL0     C33671   6.319   8.777  11.127 -0.6340  0.5288 -0.6498
  250MOL0     C33672   6.451   8.823  11.120  0.8374 -0.1346  0.2079
  250MOL0     C33673   6.559   8.736  11.144 -0.2623 -0.1257  0.4896
  250MOL0     O33674   6.679   8.787  11.122  0.7561 -0.3902 -0.1160
  250MOL0     C33675   6.790   8.702  11.099  0.0667  0.1578 -0.9734
  250MOL0     C33676   6.907   8.794  11.070  1.3144  0.0106 -0.2070
  250MOL0     C33677   6.897   8.866  10.930 -0.0397  0.7183  0.2248
  250MOL0     C33678   6.968   9.004  10.925 -0.1172  0.1355  0.8704
  250MOL0     C33679   7.113   8.981  10.921  0.2990  0.3235 -0.5653
  250MOL0     C33680   7.229   8.960  10.905 -0.0997  0.7499 -0.4794
  250MOL0     C33681   6.537   8.603  11.178 -0.0166  0.0097  0.8085
  250MOL0     C33682   6.403   8.559  11.196  0.4496  0.2446 -0.5979
  250MOL0     H33683   5.903   8.506  11.308 -0.7697 -0.4382  0.0968
  250MOL0     H33684   5.685   8.413  11.249 -1.2202 -0.4640 -0.7468
  250MOL0     H33685   5.537   8.254  11.103  0.0024 -0.0588 -0.7378
  250MOL0     H33686   5.453   8.401  11.170 -1.3710 -2.1627 -0.0193
  250MOL0     H33687   5.324   8.419  10.966 -2.6562 -0.6779 -1.2449
  250MOL0     H33688   5.379   8.252  10.912  1.2681  1.3768 -0.5475
  250MOL0     H33689   5.287   8.179  11.147 -1.2154  0.7419  0.9564
  250MOL0     H33690   5.205   8.331  11.133 -2.5511 -2.3264  2.0528
  250MOL0     H33691   5.137   8.226  10.891  1.6207  1.1403  0.0716
  250MOL0     H33692   5.167   8.080  10.978  2.5421  0.3442 -2.2420
  250MOL0     H33693   5.017   8.189  11.180  2.8914  0.3610  0.5629
  250MOL0     H33694   4.977   8.318  11.065 -0.9292 -0.2381  2.0165
  250MOL0     H33695   4.799   8.155  11.072  1.8625  1.3526  0.2176
  250MOL0     H33696   4.881   8.142  10.918 -2.7062 -1.4337 -0.6799
  250MOL0     H33697   4.996   7.931  11.008  0.1094 -0.2709  0.9890
  250MOL0     H33698   4.909   7.954  11.158 -0.6254  1.4614 -0.2635
  250MOL0     H33699   4.822   7.778  10.988 -2.9005 -1.9554 -1.4079
  250MOL0     H33700   4.795   7.901  10.881 -0.2170  0.7682  0.9486
  250MOL0     H33701   4.609   7.684  11.108 -3.6875 -1.0586 -0.1410
  250MOL0     H33702   4.390   7.685  11.239  0.2230  0.4202  1.1404
  250MOL0     H33703   4.295   7.841  11.246  1.9708  1.6885 -1.6291
  250MOL0     H33704   4.313   7.675  11.002  0.4515  0.4754 -0.8887
  250MOL0     H33705   4.197   7.808  11.035  1.6833  0.2891 -0.2323
  250MOL0     H33706   4.188   7.598  11.251  2.0630  0.2017 -1.0634
  250MOL0     H33707   4.147   7.524  11.104 -0.3168 -1.2886  2.8802
  250MOL0     H33708   3.963   7.683  11.062 -0.4032  0.4216  0.5405
  250MOL0     H33709   4.017   7.779  11.200 -0.3040  0.3978 -1.7048
  250MOL0     H33710   3.835   7.487  11.439 -1.4931 -0.5717  1.0849
  250MOL0     H33711   3.491   7.506  11.581  0.7323 -0.8716  0.6860
  250MOL0     H33712   3.587   7.371  11.535  1.0870  0.0585  1.7831
  250MOL0     H33713   3.668   7.505  11.614  1.2297 -0.3066 -0.5455
  250MOL0     H33714   3.147   7.643  11.452  1.9143  2.6559  0.8497
  250MOL0     H33715   2.901   7.698  11.422 -1.2184  1.6808 -2.0388
  250MOL0     H33716   2.755   7.939  11.104 -0.4277 -0.7406 -2.1281
  250MOL0     H33717   2.753   7.799  11.003 -0.2320  0.6064 -0.7355
  250MOL0     H33718   2.546   7.722  11.082 -0.2482 -0.6502  1.5497
  250MOL0     H33719   2.540   7.851  11.212  0.3798 -0.1401 -0.2489
  250MOL0     H33720   2.502   7.896  10.912 -1.5151 -1.6465  0.3292
  250MOL0     H33721   2.506   8.030  11.042 -1.8545  0.4468  0.1217
  250MOL0     H33722   2.323   7.792  11.039  1.6972 -1.2781  1.1694
  250MOL0     H33723   2.311   7.950  11.112  1.2545  0.7367  0.3258
  250MOL0     H33724   2.273   7.867  10.826 -3.5135 -0.2541  0.5650
  250MOL0     H33725   2.315   8.039  10.852 -3.0966  1.3617 -1.5381
  250MOL0     H33726   2.099   7.879  11.002 -0.1604  1.5659  2.0901
  250MOL0     H33727   2.132   8.058  11.016  1.6168  0.3621 -0.9023
  250MOL0     H33728   2.008   7.905  10.789 -0.8439 -0.3869  1.2467
  250MOL0     H33729   2.040   8.078  10.763 -1.0570  3.2772  3.0359
  250MOL0     H33730   1.894   8.128  10.946 -1.1363  0.6585 -2.8573
  250MOL0     H33731   1.862   7.961  10.987  2.2212 -0.5338  0.4806
  250MOL0     H33732   2.958   7.806  11.016 -2.6185  2.0109  1.9168
  250MOL0     H33733   3.189   7.748  11.035 -0.4359  2.1878 -0.2319
  250MOL0     H33734   3.534   7.722  11.128 -0.4728 -1.8243 -0.6554
  250MOL0     H33735   3.775   7.728  11.095 -0.9067  0.7474  0.4289
  250MOL0     H33736   5.686   8.592  10.863  0.5916  1.5839 -1.0316
  250MOL0     H33737   5.902   8.702  10.910 -0.3374  2.0199  0.4578
  250MOL0     H33738   6.237   8.846  11.112 -4.0267 -3.0549 -0.2823
  250MOL0     H33739   6.471   8.924  11.085 -1.9399  1.4414  2.7335
  250MOL0     H33740   6.807   8.650  11.194 -0.3046 -0.3445 -1.1775
  250MOL0     H33741   6.776   8.625  11.023  2.8737 -0.8926 -0.5679
  250MOL0     H33742   6.999   8.736  11.081  1.5730  0.7150  1.7862
  250MOL0     H33743   6.908   8.871  11.148 -0.5210  1.2570 -1.3259
  250MOL0     H33744   6.796   8.888  10.893  0.3605 -0.3248 -1.6100
  250MOL0     H33745   6.943   8.797  10.859 -1.2590  0.5766 -0.4584
  250MOL0     H33746   6.942   9.063  11.013 -3.2223 -0.0032  0.1741
  250MOL0     H33747   6.935   9.049  10.830  1.0868  0.4277  0.5760
  250MOL0     H33748   7.336   8.960  10.900 -0.0955  2.1128 -0.8890
  250MOL0     H33749   6.621   8.534  11.182  0.2277 -0.1119 -2.9470
  250MOL0     H33750   6.399   8.453  11.219  0.5426  0.1686 -0.9226
  251MOL0     O33751   8.537   0.532   8.844 -0.4433 -0.5530 -0.6102
  251MOL0     C33752   8.584   0.521   8.738 -0.0353 -0.1143 -0.6345
  251MOL0     O33753   8.520   0.515   8.621 -0.3025 -0.1387  0.3210
  251MOL0     C33754   8.376   0.511   8.617 -1.0086  0.5499 -0.6709
  251MOL0     C33755   8.327   0.475   8.493 -1.0789  0.2267  0.1753
  251MOL0     C33756   8.192   0.459   8.466  0.1360  0.0778  0.7408
  251MOL0     C33757   8.101   0.500   8.566  0.0272 -0.1616  0.6788
  251MOL0     O33758   7.969   0.483   8.542 -0.5712  0.1973  1.0948
  251MOL0     C33759   7.878   0.578   8.585  0.0833  0.0662  0.3883
  251MOL0     C33760   7.746   0.531   8.526  0.3960  0.1278 -0.0618
  251MOL0     C33761   7.632   0.629   8.565 -0.0924 -0.2165  0.9101
  251MOL0     C33762   7.512   0.615   8.473  0.0896  0.1438  0.3634
  251MOL0     C33763   7.406   0.703   8.527 -0.0114  0.2297  0.1339
  251MOL0     C33764   7.271   0.672   8.448 -0.5328  0.2089 -0.4317
  251MOL0     C33765   7.210   0.536   8.456 -0.4065  0.3527  0.1850
  251MOL0     C33766   7.173   0.494   8.602  0.1364 -0.2918  0.5767
  251MOL0     N33767   7.084   0.375   8.616  0.2607  0.1387  0.1989
  251MOL0     C33768   6.969   0.362   8.545  0.5896  0.5926  0.4800
  251MOL0     C33769   6.933   0.235   8.570  0.1199 -0.4952  0.6383
  251MOL0     C33770   6.799   0.176   8.541  0.8775  0.6639  0.0994
  251MOL0     C33771   6.690   0.220   8.642  0.2962 -0.2505  0.3208
  251MOL0     C33772   6.543   0.206   8.593 -1.1772 -0.4175 -0.0731
  251MOL0     C33773   6.442   0.242   8.711 -0.4092  0.7011 -0.2365
  251MOL0     O33774   6.482   0.150   8.817  0.2151 -0.1435  0.2518
  251MOL0     C33775   6.383   0.113   8.904  0.0484  0.8605  0.6645
  251MOL0     C33776   6.407   0.002   8.986  0.1156 -0.5735  0.0551
  251MOL0     C33777   6.306  -0.038   9.078  0.1823  0.6485  0.4530
  251MOL0     C33778   6.330  -0.148   9.177  0.1909  0.2995 -0.5483
  251MOL0     C33779   6.180   0.028   9.078 -0.4963 -0.3518  0.2275
  251MOL0     C33780   6.067  -0.001   9.167  0.6329  0.0656 -0.3464
  251MOL0     O33781   5.997   0.100   9.231 -0.3993 -0.1177  0.3532
  251MOL0     C33782   5.893   0.061   9.307  0.2497  0.3262 -1.1644
  251MOL0     C33783   5.914   0.011   9.438  0.4846  0.2456  0.1185
  251MOL0     C33784   5.805  -0.014   9.527  0.3793  0.4466  0.0045
  251MOL0     C33785   5.675   0.007   9.477 -0.8516 -0.2713 -0.0595
  251MOL0     O33786   5.559  -0.002   9.554  0.2460  0.5674  0.4128
  251MOL0     C33787   5.571  -0.066   9.684 -0.0724 -0.3313 -0.5758
  251MOL0     C33788   5.442  -0.081   9.751  0.1874 -0.5280  0.0159
  251MOL0     C33789   5.366  -0.194   9.692 -0.1100  0.2014  0.3776
  251MOL0     C33790   5.246  -0.231   9.779 -0.6184 -0.9492 -0.1326
  251MOL0     C33791   5.168  -0.355   9.734 -0.8977  0.4782  0.1526
  251MOL0     C33792   5.256  -0.486   9.703  0.7115 -0.1567  0.3330
  251MOL0     C33793   5.171  -0.602   9.639 -0.6257 -0.4096  0.6297
  251MOL0     C33794   5.261  -0.723   9.626 -0.5457  0.3243 -0.0521
  251MOL0    Cl33795   5.402  -0.694   9.529 -0.1089  0.3614 -0.1136
  251MOL0     C33796   5.653   0.061   9.347 -0.1164 -0.0775  0.0741
  251MOL0     C33797   5.759   0.091   9.263 -0.0961  0.4921  0.3453
  251MOL0     O33798   6.044  -0.123   9.171 -0.3792  0.4780  0.0911
  251MOL0     C33799   6.150   0.128   8.988  0.1151  0.7965 -0.3461
  251MOL0     C33800   6.254   0.173   8.905 -0.3702  0.3017 -0.6861
  251MOL0     N33801   7.031   0.181   8.663 -0.2497 -0.8701 -0.7283
  251MOL0     N33802   7.129   0.266   8.686  1.1176  0.2241 -0.3275
  251MOL0     C33803   8.145   0.549   8.691  0.4576 -0.3094 -0.4652
  251MOL0     C33804   8.282   0.544   8.715  0.1212 -0.0644 -0.1118
  251MOL0     C33805   8.732   0.507   8.743  0.4300 -0.4057  0.3295
  251MOL0     C33806   8.802   0.435   8.839  0.0508  0.2813  0.7540
  251MOL0     C33807   8.940   0.419   8.835  0.4982  0.2860 -0.9587
  251MOL0     C33808   9.022   0.479   8.745  0.1167 -0.5016  0.6705
  251MOL0     O33809   9.162   0.468   8.752 -0.3126 -0.1022 -0.6476
  251MOL0     C33810   9.235   0.565   8.684 -0.4232  0.0629  0.6347
  251MOL0     C33811   9.381   0.561   8.720  0.2523  0.0094  0.2621
  251MOL0     C33812   9.443   0.421   8.698  0.1675 -0.6673  0.5661
  251MOL0     C33813   9.594   0.423   8.659 -0.3802 -0.3276  0.1051
  251MOL0     C33814   9.683   0.386   8.772  0.0229 -1.3039  0.6007
  251MOL0     C33815   9.747   0.337   8.863 -0.2193 -0.1480 -0.6190
  251MOL0     C33816   8.957   0.556   8.639  0.0613 -0.0924  0.2831
  251MOL0     C33817   8.812   0.558   8.644  0.9774 -0.0571  0.1834
  251MOL0     H33818   8.401   0.450   8.417 -2.4475 -3.1175 -0.2452
  251MOL0     H33819   8.156   0.421   8.371 -0.1499  0.4644  0.6907
  251MOL0     H33820   7.858   0.574   8.692 -3.8109 -0.8700 -0.2312
  251MOL0     H33821   7.908   0.675   8.544 -3.0912  0.0332 -2.4105
  251MOL0     H33822   7.757   0.525   8.417  2.1076 -0.8424  0.1189
  251MOL0     H33823   7.732   0.428   8.561 -0.8132  1.0817  2.4605
  251MOL0     H33824   7.604   0.601   8.667  1.2946 -1.8721  0.8875
  251MOL0     H33825   7.664   0.733   8.569  0.3592 -0.3457  0.7885
  251MOL0     H33826   7.529   0.658   8.374 -3.5306  1.8763  0.3156
  251MOL0     H33827   7.477   0.513   8.453 -2.0358  0.7826  0.5526
  251MOL0     H33828   7.400   0.690   8.635  3.6473  2.4957  0.7869
  251MOL0     H33829   7.428   0.809   8.511  0.6018  0.2553  1.1143
  251MOL0     H33830   7.196   0.745   8.478 -0.2268  0.2530  0.2326
  251MOL0     H33831   7.291   0.701   8.344 -2.1857 -0.9700 -1.1187
  251MOL0     H33832   7.113   0.540   8.406 -0.1084  2.0679 -0.3310
  251MOL0     H33833   7.269   0.462   8.402  0.5472  1.6596 -0.6093
  251MOL0     H33834   7.136   0.580   8.658 -0.4272  0.2856 -0.6423
  251MOL0     H33835   7.266   0.470   8.655 -1.2158 -3.8389  1.6441
  251MOL0     H33836   6.913   0.439   8.492 -1.1328  1.2047  3.0183
  251MOL0     H33837   6.773   0.203   8.438  2.8929 -0.9016 -0.9147
  251MOL0     H33838   6.808   0.067   8.536  2.4207  0.8087 -0.9731
  251MOL0     H33839   6.724   0.323   8.652  2.7271 -0.7206 -1.8648
  251MOL0     H33840   6.706   0.161   8.733 -0.5635  0.1433  0.7381
  251MOL0     H33841   6.520   0.102   8.570 -0.3027 -0.4208 -1.0297
  251MOL0     H33842   6.530   0.282   8.515  1.9257  2.2907  1.7780
  251MOL0     H33843   6.343   0.225   8.668 -0.9315  0.4275  1.0267
  251MOL0     H33844   6.448   0.345   8.747  0.1576  1.5979 -2.7349
  251MOL0     H33845   6.504  -0.047   8.989  0.2380 -0.3246  0.1360
  251MOL0     H33846   6.285  -0.242   9.142 -2.3369  1.1529  0.2494
  251MOL0     H33847   6.438  -0.149   9.197 -0.0665  0.8271  1.0146
  251MOL0     H33848   6.288  -0.123   9.275  1.7021  0.9250 -0.0359
  251MOL0     H33849   6.016  -0.015   9.465  1.5628  0.4109 -3.3185
  251MOL0     H33850   5.834  -0.040   9.628  1.3329 -1.0558 -0.6190
  251MOL0     H33851   5.620  -0.163   9.680 -0.2763 -0.4087 -3.5039
  251MOL0     H33852   5.638  -0.012   9.752 -0.4813 -1.0077  0.3816
  251MOL0     H33853   5.458  -0.097   9.858  2.4464 -4.3145 -0.7188
  251MOL0     H33854   5.389   0.014   9.738  3.5412  1.8309  1.9422
  251MOL0     H33855   5.434  -0.279   9.700 -0.1890  0.0749 -0.2223
  251MOL0     H33856   5.338  -0.179   9.588  1.3589 -0.0051 -0.0716
  251MOL0     H33857   5.278  -0.264   9.879 -3.1720  0.2811  1.1839
  251MOL0     H33858   5.181  -0.144   9.768 -2.2443 -2.1584 -0.4628
  251MOL0     H33859   5.119  -0.320   9.643  2.4271  2.4359 -1.0946
  251MOL0     H33860   5.087  -0.373   9.805 -0.0568  0.6862  1.1959
  251MOL0     H33861   5.342  -0.475   9.636 -0.1601 -3.7331 -1.6405
  251MOL0     H33862   5.301  -0.520   9.796  2.3660 -2.7706 -1.3056
  251MOL0     H33863   5.143  -0.562   9.542 -1.2197  2.3699  1.8386
  251MOL0     H33864   5.084  -0.619   9.703 -2.4766  1.2806 -1.3076
  251MOL0     H33865   5.206  -0.803   9.575  0.2283  0.2896 -0.8675
  251MOL0     H33866   5.297  -0.756   9.724  0.4172 -3.0641 -1.4199
  251MOL0     H33867   5.553   0.083   9.313 -0.5192  0.7951  1.7060
  251MOL0     H33868   5.749   0.143   9.168  2.8203 -0.7513 -0.7883
  251MOL0     H33869   6.051   0.174   8.982 -0.2677  0.2742  1.3411
  251MOL0     H33870   6.234   0.264   8.849  0.2108  0.5713 -0.4628
  251MOL0     H33871   8.069   0.579   8.762  1.6994  0.4134  0.5999
  251MOL0     H33872   8.301   0.585   8.813 -0.0446  1.8460 -0.8390
  251MOL0     H33873   8.754   0.385   8.922 -1.9160  1.0105  0.1247
  251MOL0     H33874   8.975   0.356   8.916 -1.3251 -2.3932 -2.1106
  251MOL0     H33875   9.233   0.557   8.575  2.4224  2.7742  0.2557
  251MOL0     H33876   9.206   0.669   8.703 -0.8421 -0.5001  3.6836
  251MOL0     H33877   9.370   0.582   8.827 -4.6014 -3.1680  0.6881
  251MOL0     H33878   9.432   0.640   8.664  0.4511  1.8365  2.8359
  251MOL0     H33879   9.387   0.380   8.614 -0.4448 -0.3125  0.7949
  251MOL0     H33880   9.420   0.358   8.784 -1.4135 -2.6838 -1.2272
  251MOL0     H33881   9.630   0.523   8.633 -2.0424 -0.6984 -4.3848
  251MOL0     H33882   9.623   0.364   8.572 -0.7604  0.6153 -0.6792
  251MOL0     H33883   9.814   0.298   8.937 -1.6342 -1.2719  0.1256
  251MOL0     H33884   9.016   0.598   8.558 -0.3954  1.1973  0.6016
  251MOL0     H33885   8.774   0.619   8.563  1.1105  0.2957  0.3863
  252MOL0     O33886   3.228   9.027   2.574  0.1184 -0.0505  0.1618
  252MOL0     C33887   3.172   8.928   2.625  0.3816  0.8484 -0.3959
  252MOL0     O33888   3.049   8.923   2.695 -0.7326  0.3092 -0.5343
  252MOL0     C33889   2.952   9.004   2.647  0.3495  0.1877  0.1321
  252MOL0     C33890   2.918   9.130   2.700 -0.5736 -0.6120 -0.4023
  252MOL0     C33891   2.813   9.204   2.654 -0.4934  0.2647 -0.1949
  252MOL0     C33892   2.732   9.153   2.545  0.7424 -0.8536  0.5558
  252MOL0     O33893   2.625   9.219   2.488  0.1790 -0.2037  0.4889
  252MOL0     C33894   2.596   9.345   2.534  0.3637  0.1302 -0.1645
  252MOL0     C33895   2.463   9.400   2.484 -0.8224 -0.3031  0.7637
  252MOL0     C33896   2.434   9.522   2.558  0.3688 -0.1620 -0.8887
  252MOL0     C33897   2.288   9.556   2.548 -0.8458  0.0252  0.2130
  252MOL0     C33898   2.265   9.646   2.422  0.4071  0.0940 -0.0055
  252MOL0     C33899   2.141   9.750   2.426 -0.1279 -1.0442 -0.1115
  252MOL0     C33900   2.114   9.825   2.296 -0.4381 -0.5915 -0.5165
  252MOL0     C33901   1.970   9.881   2.291 -0.5988  0.1879 -0.1567
  252MOL0     N33902   1.928   9.951   2.408  0.1875 -0.2730  0.1999
  252MOL0     C33903   1.985  10.072   2.433 -0.1150  0.1994 -0.5507
  252MOL0     C33904   1.959  10.100   2.558  0.0472 -0.3852  0.4792
  252MOL0     C33905   1.988  10.232   2.625 -0.3290  0.5747 -0.0347
  252MOL0     C33906   1.884  10.342   2.597 -0.0097  1.1857 -1.0847
  252MOL0     C33907   1.932  10.425   2.477 -0.2698  0.4875  0.2090
  252MOL0     C33908   1.832  10.538   2.453  0.1370 -0.5039  0.2386
  252MOL0     O33909   1.842  10.587   2.314 -0.7057 -0.6405 -0.5026
  252MOL0     C33910   1.745  10.677   2.277 -0.7353 -0.2496  0.2871
  252MOL0     C33911   1.771  10.739   2.153 -0.3198 -1.1029  0.0299
  252MOL0     C33912   1.688  10.834   2.102 -0.1301 -0.0197  0.1468
  252MOL0     C33913   1.724  10.891   1.968 -0.6626 -0.1019 -0.1124
  252MOL0     C33914   1.582  10.882   2.181 -0.5457  0.1696 -0.5599
  252MOL0     C33915   1.477  10.968   2.119  0.4657 -0.1277 -0.1828
  252MOL0     O33916   1.458  10.958   1.983 -0.0390  0.0854  0.0527
  252MOL0     C33917   1.349  11.015   1.928 -0.8944 -0.2730  1.3861
  252MOL0     C33918   1.352  11.156   1.913 -0.4934  1.1696  0.9387
  252MOL0     C33919   1.235  11.220   1.865  0.8328 -0.2002  0.8758
  252MOL0     C33920   1.117  11.154   1.816  0.4152  0.3451 -0.0315
  252MOL0     O33921   1.009  11.221   1.767 -0.5878  0.0541  0.0779
  252MOL0     C33922   0.992  11.361   1.791  0.0314  0.3448  0.1692
  252MOL0     C33923   0.851  11.394   1.727 -1.3144  0.5524 -0.6395
  252MOL0     C33924   0.853  11.376   1.577  0.2338 -0.1724  0.4459
  252MOL0     C33925   0.710  11.330   1.528 -0.6538 -0.6269  0.4325
  252MOL0     C33926   0.694  11.343   1.385  0.2909  0.7932  0.0915
  252MOL0     C33927   0.549  11.306   1.343 -0.6471 -0.2201 -0.7898
  252MOL0     C33928   0.532  11.148   1.337  0.2156 -0.6705 -0.6529
  252MOL0     C33929   0.394  11.106   1.279 -0.2842 -0.6787  0.4152
  252MOL0    Cl33930   0.253  11.185   1.370  0.0079 -0.0407 -0.1477
  252MOL0     C33931   1.124  11.016   1.836 -0.0139  0.4827  0.5198
  252MOL0     C33932   1.233  10.942   1.887 -0.1191 -0.4294  0.7531
  252MOL0     O33933   1.392  11.028   2.197 -0.8111 -0.3654 -0.5495
  252MOL0     C33934   1.561  10.838   2.315 -0.4280  0.0089 -0.2307
  252MOL0     C33935   1.645  10.729   2.357 -0.8950 -0.8538  0.3120
  252MOL0     N33936   1.877   9.998   2.612  0.3704  0.1553  0.0146
  252MOL0     N33937   1.866   9.905   2.526 -0.0677 -0.8244  0.1491
  252MOL0     C33938   2.754   9.025   2.499 -0.6985  0.0108  0.0630
  252MOL0     C33939   2.864   8.950   2.550 -0.2563  0.0523 -0.2973
  252MOL0     C33940   3.262   8.814   2.643 -0.4571 -0.2662  0.7647
  252MOL0     C33941   3.229   8.710   2.726  0.3261 -0.3256 -0.3528
  252MOL0     C33942   3.314   8.602   2.755  0.2681 -0.0398  0.7205
  252MOL0     C33943   3.430   8.586   2.686 -0.8760  0.3252 -0.0538
  252MOL0     O33944   3.520   8.482   2.692  0.4918  0.2612  0.2642
  252MOL0     C33945   3.509   8.393   2.798 -0.2140 -0.3141 -0.4463
  252MOL0     C33946   3.604   8.270   2.781  0.8520  0.2864 -0.2959
  252MOL0     C33947   3.752   8.304   2.790  1.0060  0.5678  0.0570
  252MOL0     C33948   3.840   8.179   2.807 -0.2044  0.0658  0.3266
  252MOL0     C33949   3.813   8.078   2.712  0.8106  0.6839  0.6295
  252MOL0     C33950   3.792   8.002   2.618 -0.4955 -0.1805  0.1699
  252MOL0     C33951   3.471   8.688   2.604  0.0222  0.5795 -0.8643
  252MOL0     C33952   3.393   8.801   2.581  0.2105  0.2576 -0.5169
  252MOL0     H33953   2.973   9.175   2.782 -0.4989 -0.7248 -0.3906
  252MOL0     H33954   2.788   9.303   2.691  0.4062  0.2440  0.5083
  252MOL0     H33955   2.601   9.355   2.643  0.6883  3.1256 -0.3509
  252MOL0     H33956   2.676   9.411   2.496  2.7615 -1.3556  1.9660
  252MOL0     H33957   2.463   9.421   2.377  1.3735  1.5270  1.0586
  252MOL0     H33958   2.392   9.322   2.515 -2.1114  1.0321  1.2662
  252MOL0     H33959   2.454   9.511   2.665 -1.8581  3.3755  0.0705
  252MOL0     H33960   2.487   9.604   2.509 -3.4232  1.5544 -2.6036
  252MOL0     H33961   2.230   9.467   2.523 -0.4025  0.2845 -2.0063
  252MOL0     H33962   2.248   9.600   2.639 -1.7492  1.4985 -0.8490
  252MOL0     H33963   2.344   9.719   2.398 -0.4397  0.7078 -1.0459
  252MOL0     H33964   2.250   9.581   2.335 -1.1944  2.0064 -1.2729
  252MOL0     H33965   2.052   9.695   2.456 -0.7175 -0.6925 -1.1520
  252MOL0     H33966   2.154   9.825   2.504 -3.3628  1.4276 -1.7092
  252MOL0     H33967   2.192   9.901   2.283 -1.3070  0.4073 -0.0172
  252MOL0     H33968   2.122   9.754   2.213 -0.1566  0.0302 -1.0321
  252MOL0     H33969   1.903   9.794   2.289 -0.5927  0.0252  2.7463
  252MOL0     H33970   1.957   9.945   2.204  1.7639 -0.4069 -1.0135
  252MOL0     H33971   2.044  10.137   2.368  1.4531 -1.4799 -0.8741
  252MOL0     H33972   1.991  10.216   2.733  1.3259  4.9137  0.7393
  252MOL0     H33973   2.088  10.259   2.590 -0.8334  0.5386 -1.5946
  252MOL0     H33974   1.874  10.404   2.687 -1.8035 -0.8649  0.2555
  252MOL0     H33975   1.786  10.296   2.585  0.4608 -0.5750  1.0461
  252MOL0     H33976   1.940  10.372   2.382  1.1858 -1.0511  1.1282
  252MOL0     H33977   2.025  10.480   2.494 -0.4312  0.9152 -0.2690
  252MOL0     H33978   1.861  10.623   2.515 -1.4641 -0.6338  1.2199
  252MOL0     H33979   1.731  10.508   2.482  0.5264 -1.8982  0.2517
  252MOL0     H33980   1.851  10.704   2.088  0.4242 -0.1992  0.4286
  252MOL0     H33981   1.663  10.846   1.889  1.6052 -2.4052 -0.6983
  252MOL0     H33982   1.712  10.999   1.974  0.1033 -0.0692  1.0891
  252MOL0     H33983   1.825  10.872   1.930 -1.1363  2.8554 -3.3677
  252MOL0     H33984   1.447  11.205   1.932  0.7382  0.1607 -2.1050
  252MOL0     H33985   1.241  11.327   1.847  0.3763  0.1087  2.3942
  252MOL0     H33986   0.984  11.392   1.895  0.3344  1.2830 -0.0743
  252MOL0     H33987   1.082  11.414   1.757  0.4695  1.3038  2.6005
  252MOL0     H33988   0.782  11.328   1.781 -0.4752  0.2557  0.0983
  252MOL0     H33989   0.820  11.495   1.755 -3.5442 -0.4628  0.8822
  252MOL0     H33990   0.934  11.315   1.536  0.2260  0.0928  0.0375
  252MOL0     H33991   0.853  11.479   1.542 -0.3393 -0.7755 -1.4475
  252MOL0     H33992   0.699  11.226   1.561 -1.8779 -0.0735  1.8975
  252MOL0     H33993   0.641  11.399   1.577  0.4718  1.3062 -0.5727
  252MOL0     H33994   0.759  11.270   1.335  0.3579 -0.8940  2.4720
  252MOL0     H33995   0.726  11.444   1.359  0.3310  0.4475 -1.3011
  252MOL0     H33996   0.479  11.352   1.414 -1.7763 -3.7296  0.5827
  252MOL0     H33997   0.540  11.341   1.240 -1.4986 -1.2254 -1.0723
  252MOL0     H33998   0.535  11.116   1.441 -2.8907  0.9141  0.0308
  252MOL0     H33999   0.617  11.110   1.278  2.3708  0.0509  1.7988
  252MOL0     H34000   0.377  10.998   1.285  0.0825 -0.8582 -1.3220
  252MOL0     H34001   0.380  11.127   1.173 -0.4336 -0.3726  0.4950
  252MOL0     H34002   1.041  10.962   1.793 -1.5747  2.9162  0.2965
  252MOL0     H34003   1.229  10.835   1.903 -2.2058 -1.0089 -2.6993
  252MOL0     H34004   1.482  10.881   2.376  2.6311  3.5632  1.5975
  252MOL0     H34005   1.626  10.683   2.453  1.6632 -0.1302  1.2375
  252MOL0     H34006   2.695   8.977   2.421 -0.1522 -0.3013 -0.1648
  252MOL0     H34007   2.880   8.850   2.513 -0.7789 -0.2414  0.2495
  252MOL0     H34008   3.137   8.690   2.780 -0.8903 -0.0798 -2.2379
  252MOL0     H34009   3.292   8.527   2.829 -0.1284 -1.5954 -0.9127
  252MOL0     H34010   3.526   8.435   2.897  2.6870  1.3785 -1.5324
  252MOL0     H34011   3.409   8.348   2.789 -0.3684 -0.2276  0.6973
  252MOL0     H34012   3.598   8.227   2.680  0.6051  0.5896 -0.4114
  252MOL0     H34013   3.574   8.197   2.856  0.7337  1.8294  1.2178
  252MOL0     H34014   3.768   8.373   2.873  1.0391  0.8350 -0.1708
  252MOL0     H34015   3.792   8.353   2.701  2.0023  2.4433  1.4591
  252MOL0     H34016   3.838   8.149   2.912 -0.0424 -0.3239  0.2212
  252MOL0     H34017   3.948   8.195   2.796  0.0464 -1.6486  0.0399
  252MOL0     H34018   3.766   7.952   2.527  0.0961  1.6355 -1.0556
  252MOL0     H34019   3.568   8.689   2.555  2.3742  0.7884  3.3106
  252MOL0     H34020   3.435   8.879   2.519 -0.0346  0.5843 -0.2762
  253MOL0     O34021   0.946   1.396   5.555 -0.8032 -0.4199  0.3758
  253MOL0     C34022   0.986   1.373   5.438 -0.2390 -0.6078 -0.1790
  253MOL0     O34023   0.910   1.352   5.329  0.0032  0.5973 -0.5542
  253MOL0     C34024   0.775   1.364   5.347  0.5564 -0.0191 -0.4808
  253MOL0     C34025   0.701   1.244   5.366 -0.0923  0.7399  0.0509
  253MOL0     C34026   0.560   1.251   5.362 -0.4021 -0.0036 -0.3400
  253MOL0     C34027   0.494   1.371   5.342  0.3830 -0.2471  0.0875
  253MOL0     O34028   0.364   1.379   5.325 -0.3477 -0.1711  0.0247
  253MOL0     C34029   0.284   1.269   5.368 -0.4491  0.1982 -0.3926
  253MOL0     C34030   0.138   1.299   5.312  0.2572 -0.2527 -0.3284
  253MOL0     C34031   0.107   1.241   5.173  0.3729 -0.5524  0.2368
  253MOL0     C34032  -0.037   1.298   5.130 -0.1597  0.0280 -0.6276
  253MOL0     C34033  -0.100   1.214   5.018 -0.4927  0.4204 -0.1358
  253MOL0     C34034  -0.192   1.097   5.072 -0.0950 -0.5274 -0.2521
  253MOL0     C34035  -0.278   1.048   4.959 -0.0757  1.1177  0.3385
  253MOL0     C34036  -0.417   1.120   4.966 -0.0721  0.1824  0.9991
  253MOL0     N34037  -0.509   1.067   4.870 -0.3322  0.5289  0.9750
  253MOL0     C34038  -0.539   1.103   4.744 -0.5950  0.3259  0.5157
  253MOL0     C34039  -0.597   0.994   4.679 -0.8642  0.0620 -0.1088
  253MOL0     C34040  -0.631   0.999   4.529  0.2215 -0.7857  0.0229
  253MOL0     C34041  -0.776   0.966   4.510 -0.9658 -0.5987 -0.5115
  253MOL0     C34042  -0.844   1.005   4.377 -1.5694 -0.2281 -0.1517
  253MOL0     C34043  -0.993   0.986   4.376  0.0408 -0.0741 -0.1368
  253MOL0     O34044  -1.057   1.069   4.273 -0.9831 -0.3659  0.1092
  253MOL0     C34045  -1.154   1.033   4.191  0.1560 -0.7369 -0.5661
  253MOL0     C34046  -1.274   0.991   4.246 -0.5731  0.0248  0.2674
  253MOL0     C34047  -1.382   0.955   4.159 -0.5117  0.2636  1.0270
  253MOL0     C34048  -1.525   0.917   4.207  0.8093  0.2875 -0.3487
  253MOL0     C34049  -1.363   0.967   4.017 -0.0405  0.8432 -0.0281
  253MOL0     C34050  -1.462   0.917   3.916  0.7276 -0.7304  0.0373
  253MOL0     O34051  -1.497   1.004   3.819  0.0194 -0.1441 -0.3534
  253MOL0     C34052  -1.560   0.959   3.708 -0.1338  0.5011  0.0238
  253MOL0     C34053  -1.672   1.038   3.674 -0.5357 -0.0964  0.0077
  253MOL0     C34054  -1.748   1.000   3.562 -0.8704 -0.4853  0.4218
  253MOL0     C34055  -1.710   0.898   3.479 -0.4554  0.1959 -0.0592
  253MOL0     O34056  -1.764   0.871   3.352  0.6572  0.2215 -0.0168
  253MOL0     C34057  -1.875   0.957   3.314  0.2308  0.6085  0.7427
  253MOL0     C34058  -1.898   0.934   3.164  0.1902  0.0250  0.1791
  253MOL0     C34059  -1.996   1.040   3.122 -0.0435 -1.1339  1.2277
  253MOL0     C34060  -2.019   1.051   2.966  0.0577  0.5596 -0.3816
  253MOL0     C34061  -2.103   1.168   2.927 -0.5300  0.3389  1.3895
  253MOL0     C34062  -2.182   1.138   2.795 -0.1990  1.0686 -0.4019
  253MOL0     C34063  -2.320   1.215   2.803 -0.6703  0.6095  0.4576
  253MOL0     C34064  -2.309   1.362   2.826  0.3099 -1.0825  0.0309
  253MOL0    Cl34065  -2.207   1.428   2.687 -0.3831  0.0438  0.2790
  253MOL0     C34066  -1.596   0.827   3.513 -0.2779 -0.5964  0.0441
  253MOL0     C34067  -1.522   0.851   3.632 -0.8879  0.0046  0.0629
  253MOL0     O34068  -1.507   0.803   3.929 -0.5520  0.2708  0.0696
  253MOL0     C34069  -1.244   1.015   3.958  0.0347  0.3446  0.4759
  253MOL0     C34070  -1.143   1.050   4.049  0.2244 -0.0002  0.0859
  253MOL0     N34071  -0.608   0.897   4.772 -0.1916  0.2982  0.6633
  253MOL0     N34072  -0.556   0.943   4.876  0.5048 -0.1764  0.0816
  253MOL0     C34073   0.573   1.486   5.320  0.1079 -1.0301 -0.0960
  253MOL0     C34074   0.708   1.489   5.330 -0.3516  1.3183  0.2801
  253MOL0     C34075   1.131   1.359   5.406  0.4488  0.2298  0.5072
  253MOL0     C34076   1.169   1.298   5.285 -0.4220 -0.0363  1.0328
  253MOL0     C34077   1.304   1.286   5.255 -0.5671 -0.2138 -0.0783
  253MOL0     C34078   1.404   1.335   5.340  0.5321  0.6312 -0.0885
  253MOL0     O34079   1.531   1.329   5.303 -0.6841 -0.1410 -0.2618
  253MOL0     C34080   1.623   1.270   5.395 -0.5634 -0.0659 -0.7703
  253MOL0     C34081   1.718   1.374   5.445 -0.1400 -0.8377  0.0718
  253MOL0     C34082   1.792   1.450   5.326 -0.0092 -0.1122  0.6720
  253MOL0     C34083   1.891   1.542   5.390  0.3314  0.4778 -0.7453
  253MOL0     C34084   1.958   1.623   5.296 -0.1748  0.0612 -0.5654
  253MOL0     C34085   2.006   1.707   5.217  0.1201 -0.7713 -0.3524
  253MOL0     C34086   1.365   1.392   5.461  0.6454  0.2413  1.2220
  253MOL0     C34087   1.230   1.401   5.499  0.6428  0.4787 -0.3429
  253MOL0     H34088   0.754   1.151   5.382  0.3313  1.1530  1.1943
  253MOL0     H34089   0.511   1.160   5.393 -0.6713  0.9038  2.1859
  253MOL0     H34090   0.313   1.172   5.326  0.0072 -0.4813  1.3920
  253MOL0     H34091   0.292   1.260   5.477  0.2950  0.3300 -0.4351
  253MOL0     H34092   0.065   1.256   5.381 -0.6086  0.8772 -0.5150
  253MOL0     H34093   0.115   1.406   5.309 -0.3784 -0.4077 -1.2263
  253MOL0     H34094   0.175   1.277   5.095 -0.8856 -0.0149 -0.6633
  253MOL0     H34095   0.094   1.133   5.174  0.2358 -0.5332  0.5867
  253MOL0     H34096  -0.094   1.293   5.224  2.2441 -0.7366  0.8856
  253MOL0     H34097  -0.039   1.403   5.100 -2.2459 -0.5455 -2.8931
  253MOL0     H34098  -0.162   1.280   4.957  0.1801  0.6165 -0.6117
  253MOL0     H34099  -0.026   1.167   4.953  0.9086  2.2050  0.0778
  253MOL0     H34100  -0.134   1.015   5.115  0.7669 -1.0005 -2.2076
  253MOL0     H34101  -0.252   1.141   5.152  1.0880  0.4432  0.1261
  253MOL0     H34102  -0.222   1.056   4.865  1.3564 -0.5129  0.9759
  253MOL0     H34103  -0.296   0.940   4.965  1.2887  0.6899 -1.9757
  253MOL0     H34104  -0.403   1.229   4.956  0.2021  0.7277  5.2460
  253MOL0     H34105  -0.456   1.091   5.064  0.9573  0.9863  1.6819
  253MOL0     H34106  -0.507   1.194   4.694 -2.8957 -0.3932 -2.5661
  253MOL0     H34107  -0.611   1.102   4.498 -1.4076 -0.1949  0.8023
  253MOL0     H34108  -0.567   0.937   4.467 -1.5376 -0.1942 -2.5270
  253MOL0     H34109  -0.831   1.002   4.597  2.2044  1.4995  0.8092
  253MOL0     H34110  -0.779   0.857   4.514 -0.8173 -0.8315 -3.9637
  253MOL0     H34111  -0.799   0.952   4.293  0.0928  0.2012  0.4315
  253MOL0     H34112  -0.822   1.110   4.355  3.7147  0.0442  4.2775
  253MOL0     H34113  -1.039   1.018   4.470 -1.1583  2.9604 -1.6241
  253MOL0     H34114  -1.011   0.878   4.368 -0.4517 -0.0429  0.4554
  253MOL0     H34115  -1.303   0.992   4.350 -2.2673 -2.9793 -0.0560
  253MOL0     H34116  -1.524   0.900   4.315 -3.5663  1.1815  0.0153
  253MOL0     H34117  -1.606   0.987   4.185 -1.9989 -2.9537 -1.0774
  253MOL0     H34118  -1.559   0.826   4.157 -1.6984  0.9031  0.1301
  253MOL0     H34119  -1.705   1.128   3.725  0.7190 -0.8959  2.3991
  253MOL0     H34120  -1.833   1.065   3.543 -0.3813  0.1028  0.2295
  253MOL0     H34121  -1.957   0.932   3.381 -1.6000  0.2801 -1.4950
  253MOL0     H34122  -1.850   1.063   3.326  0.5414  0.3310  2.8243
  253MOL0     H34123  -1.804   0.949   3.110  0.5877  0.0403  0.8596
  253MOL0     H34124  -1.933   0.831   3.153  0.6814  0.1580 -4.0948
  253MOL0     H34125  -1.953   1.138   3.145  1.0122 -0.8718 -1.4885
  253MOL0     H34126  -2.095   1.029   3.168 -0.1500 -0.9869  1.0384
  253MOL0     H34127  -1.920   1.043   2.923  0.3232 -2.4600  0.5501
  253MOL0     H34128  -2.075   0.960   2.941 -1.0340  0.6168  1.5694
  253MOL0     H34129  -2.046   1.260   2.916  2.0572 -1.4362 -1.9689
  253MOL0     H34130  -2.184   1.178   3.000 -0.4340 -1.6377  1.8393
  253MOL0     H34131  -2.126   1.170   2.707 -1.7470 -0.7888 -2.1724
  253MOL0     H34132  -2.213   1.033   2.792 -3.3102  1.8939 -1.2836
  253MOL0     H34133  -2.380   1.175   2.886  1.7961 -0.5227  1.8050
  253MOL0     H34134  -2.377   1.203   2.710  0.2995 -4.0748  0.1903
  253MOL0     H34135  -2.258   1.381   2.921 -0.2441 -0.3904  0.1992
  253MOL0     H34136  -2.403   1.417   2.835  1.8622  1.5961  1.2502
  253MOL0     H34137  -1.565   0.746   3.448 -1.6001 -0.2376 -1.0864
  253MOL0     H34138  -1.440   0.785   3.658 -0.1876 -1.9243 -5.5314
  253MOL0     H34139  -1.226   1.036   3.853  3.9261 -0.8916  0.7475
  253MOL0     H34140  -1.043   1.078   4.017  1.5692 -2.7532  1.4948
  253MOL0     H34141   0.523   1.581   5.304  0.5568 -0.0627  3.4441
  253MOL0     H34142   0.755   1.585   5.315 -0.0399  1.2919  1.0444
  253MOL0     H34143   1.105   1.250   5.211  1.0359  0.8960 -0.9370
  253MOL0     H34144   1.336   1.233   5.166  0.7173 -3.7361  2.2258
  253MOL0     H34145   1.581   1.225   5.486 -1.2463 -0.9577 -1.4973
  253MOL0     H34146   1.678   1.192   5.343 -1.4790 -0.0308 -1.8354
  253MOL0     H34147   1.801   1.330   5.501  0.5607 -1.7428 -1.6108
  253MOL0     H34148   1.661   1.447   5.504 -2.0158 -0.3383 -2.1890
  253MOL0     H34149   1.722   1.515   5.271  0.2784 -0.3731 -0.0121
  253MOL0     H34150   1.836   1.379   5.255  2.5919  0.5973  1.4736
  253MOL0     H34151   1.968   1.487   5.444  0.6445 -1.1577 -2.7287
  253MOL0     H34152   1.841   1.595   5.472  3.4982 -0.4269  1.9979
  253MOL0     H34153   2.049   1.776   5.148 -0.9091 -0.6276 -0.8706
  253MOL0     H34154   1.436   1.430   5.533 -0.3968 -2.0004  3.6239
  253MOL0     H34155   1.201   1.451   5.591  0.7937 -1.9827  1.1507
  254MOL0     O34156   2.345   3.501   7.405  0.2332  0.0513 -0.2512
  254MOL0     C34157   2.398   3.416   7.476 -0.1156 -0.4310  0.7322
  254MOL0     O34158   2.334   3.312   7.542  0.4991 -0.0459 -0.1470
  254MOL0     C34159   2.201   3.303   7.515  0.5390  0.8393  0.3701
  254MOL0     C34160   2.103   3.401   7.526  0.3848 -0.3133  0.1168
  254MOL0     C34161   1.965   3.370   7.511 -0.0523  0.3798 -0.7817
  254MOL0     C34162   1.931   3.239   7.484 -0.0251  0.2692  0.0801
  254MOL0     O34163   1.799   3.198   7.485  0.4891 -0.0843  0.7911
  254MOL0     C34164   1.737   3.213   7.355  1.2112  0.0817  0.4953
  254MOL0     C34165   1.582   3.195   7.377  1.0621  0.7243 -0.3429
  254MOL0     C34166   1.519   3.314   7.460  1.0494 -0.4757  0.3965
  254MOL0     C34167   1.389   3.283   7.517  0.0869  0.1206  0.2732
  254MOL0     C34168   1.334   3.414   7.587  0.0258  0.4716  0.5615
  254MOL0     C34169   1.209   3.399   7.676  0.2422  0.3791  0.0575
  254MOL0     C34170   1.106   3.295   7.624  0.1636  0.4668  0.8813
  254MOL0     C34171   1.019   3.334   7.509  0.3535  0.1266 -0.4834
  254MOL0     N34172   0.881   3.278   7.512  0.0163  0.1957  0.1657
  254MOL0     C34173   0.785   3.298   7.599  0.1904  0.4296  0.0500
  254MOL0     C34174   0.689   3.206   7.577  0.9533 -0.5582  0.5048
  254MOL0     C34175   0.563   3.183   7.657 -0.7320 -0.6483 -0.7787
  254MOL0     C34176   0.549   3.049   7.724 -0.0076 -0.3855 -0.3402
  254MOL0     C34177   0.405   3.018   7.772  0.9558  0.5510  0.2546
  254MOL0     C34178   0.295   3.056   7.667  0.2568  0.7380 -0.7717
  254MOL0     O34179   0.166   3.015   7.727 -0.7312 -1.1107  0.1830
  254MOL0     C34180   0.052   3.046   7.671  0.1594 -0.3872 -0.1657
  254MOL0     C34181   0.029   3.107   7.547  0.6689 -0.0114 -0.3288
  254MOL0     C34182  -0.100   3.137   7.493 -0.3235  0.4078 -1.0020
  254MOL0     C34183  -0.103   3.170   7.345  0.3897  0.2459 -0.7839
  254MOL0     C34184  -0.210   3.113   7.583 -0.0179 -0.3972  0.2129
  254MOL0     C34185  -0.348   3.159   7.566 -0.3825  0.7449  0.2579
  254MOL0     O34186  -0.367   3.255   7.471  0.1259 -0.3182  0.3984
  254MOL0     C34187  -0.493   3.293   7.414 -1.1218  0.1866  0.4837
  254MOL0     C34188  -0.622   3.230   7.438  0.3854 -0.1684  0.1498
  254MOL0     C34189  -0.733   3.291   7.372  0.5015  0.4450 -0.3390
  254MOL0     C34190  -0.728   3.413   7.311  0.2636 -0.2281  0.5809
  254MOL0     O34191  -0.849   3.461   7.266  0.2621  0.5240  0.3229
  254MOL0     C34192  -0.839   3.555   7.159  0.0600  0.1610  0.0162
  254MOL0     C34193  -0.976   3.588   7.094  0.3191  0.2879 -0.2098
  254MOL0     C34194  -1.069   3.472   7.055  0.8865  0.1704 -1.5955
  254MOL0     C34195  -1.217   3.523   7.039 -0.8227  0.1339 -0.4532
  254MOL0     C34196  -1.289   3.550   7.170  0.9573 -0.2201  0.2923
  254MOL0     C34197  -1.425   3.613   7.151  0.6732 -0.6638 -0.6512
  254MOL0     C34198  -1.472   3.668   7.288  1.1010 -0.2832  0.0392
  254MOL0     C34199  -1.612   3.714   7.292  0.7998 -0.4933  0.1235
  254MOL0    Cl34200  -1.693   3.606   7.415 -0.0140 -0.2787 -0.0824
  254MOL0     C34201  -0.605   3.485   7.315 -0.0518 -0.5522  0.3608
  254MOL0     C34202  -0.494   3.423   7.350  0.4750 -0.0279  0.0050
  254MOL0     O34203  -0.438   3.111   7.637 -0.2904 -0.3614  0.4209
  254MOL0     C34204  -0.184   3.054   7.709 -0.4976 -0.3087 -0.7058
  254MOL0     C34205  -0.059   3.016   7.752  0.0891 -0.3876 -0.1037
  254MOL0     N34206   0.720   3.135   7.456  0.1778  0.3703 -0.7398
  254MOL0     N34207   0.845   3.173   7.432 -0.3789  0.6984  0.7229
  254MOL0     C34208   2.026   3.138   7.472  0.3089  0.8400  0.2263
  254MOL0     C34209   2.159   3.167   7.487 -0.4586 -1.1085  0.2449
  254MOL0     C34210   2.537   3.454   7.507  1.0598  0.7260  1.1659
  254MOL0     C34211   2.616   3.358   7.574  0.3152  0.5627 -0.3285
  254MOL0     C34212   2.747   3.390   7.605 -0.4834  0.3857  0.4377
  254MOL0     C34213   2.808   3.505   7.563 -0.1458  0.2366 -0.0767
  254MOL0     O34214   2.943   3.533   7.586  0.2835 -0.4756 -0.0678
  254MOL0     C34215   3.024   3.456   7.671 -0.2785 -0.5062 -0.0318
  254MOL0     C34216   3.126   3.549   7.749  0.3099  0.1710  0.2140
  254MOL0     C34217   3.226   3.472   7.843  0.5496  0.4731 -0.1313
  254MOL0     C34218   3.334   3.404   7.769 -0.0694  1.2719 -0.3005
  254MOL0     C34219   3.411   3.499   7.686 -0.5118  0.0522  0.5294
  254MOL0     C34220   3.489   3.574   7.624 -1.0974 -0.6764 -0.7974
  254MOL0     C34221   2.739   3.594   7.485  0.1706 -0.7032  0.0482
  254MOL0     C34222   2.603   3.566   7.458  0.1828 -0.7301 -0.2159
  254MOL0     H34223   2.133   3.503   7.550 -1.4140  0.0514  0.9605
  254MOL0     H34224   1.882   3.438   7.522 -0.6294 -0.5717  1.1578
  254MOL0     H34225   1.767   3.306   7.307  1.6192 -0.7974 -1.0035
  254MOL0     H34226   1.774   3.135   7.288 -0.4607 -1.1413  0.9318
  254MOL0     H34227   1.522   3.189   7.286 -0.4720  0.6786  0.6418
  254MOL0     H34228   1.557   3.107   7.436  1.7550 -1.0052 -2.4818
  254MOL0     H34229   1.584   3.352   7.539 -0.2860 -0.9781  1.7992
  254MOL0     H34230   1.518   3.396   7.387  1.1807  0.0397  0.9654
  254MOL0     H34231   1.317   3.238   7.448 -1.7778 -3.5128  4.1300
  254MOL0     H34232   1.394   3.199   7.588 -1.5989 -1.1582 -1.0137
  254MOL0     H34233   1.407   3.447   7.661  1.3204 -0.5360 -0.2171
  254MOL0     H34234   1.312   3.493   7.515 -0.5915  0.8833  1.1856
  254MOL0     H34235   1.239   3.352   7.770 -0.3461 -2.0704 -0.9011
  254MOL0     H34236   1.163   3.497   7.691 -0.0430  0.2678 -0.0739
  254MOL0     H34237   1.163   3.202   7.618  1.3462  1.1425  1.2218
  254MOL0     H34238   1.043   3.282   7.712  0.1381 -1.9374  0.5574
  254MOL0     H34239   1.078   3.307   7.421  0.1742  1.4769 -1.0429
  254MOL0     H34240   1.001   3.442   7.510 -2.6824 -0.2960  0.5527
  254MOL0     H34241   0.798   3.371   7.678  4.5097 -1.0745  1.0269
  254MOL0     H34242   0.546   3.260   7.733  0.4491 -0.4113 -0.7449
  254MOL0     H34243   0.493   3.211   7.577  0.8013 -1.8221 -2.6152
  254MOL0     H34244   0.603   3.046   7.820 -0.0870  0.4117 -0.2668
  254MOL0     H34245   0.589   2.964   7.668 -0.9182 -2.2577  1.6703
  254MOL0     H34246   0.384   3.062   7.869 -0.8283  0.7555 -0.1782
  254MOL0     H34247   0.401   2.909   7.780  0.7985  0.4375 -1.0552
  254MOL0     H34248   0.309   3.004   7.571 -1.2357  1.6018 -1.5008
  254MOL0     H34249   0.297   3.163   7.648 -2.3202  1.1773  0.9366
  254MOL0     H34250   0.116   3.121   7.483  0.8564 -1.1769 -0.3498
  254MOL0     H34251  -0.192   3.231   7.330  0.6240  0.2802 -2.0956
  254MOL0     H34252  -0.010   3.225   7.327  0.4993  0.8948  1.4582
  254MOL0     H34253  -0.119   3.085   7.278  1.6373  0.3097 -1.1845
  254MOL0     H34254  -0.637   3.137   7.493 -1.3697 -0.7176 -1.1835
  254MOL0     H34255  -0.829   3.241   7.372  1.2341 -1.0305 -1.5655
  254MOL0     H34256  -0.797   3.649   7.196  1.4376  0.1330 -1.4189
  254MOL0     H34257  -0.777   3.509   7.082  1.8828  0.9854  0.9493
  254MOL0     H34258  -1.032   3.652   7.162 -0.1432 -1.3212  0.9699
  254MOL0     H34259  -0.950   3.639   7.001 -0.9833  0.3377 -0.5545
  254MOL0     H34260  -1.066   3.385   7.121 -3.0243  0.0504 -1.3973
  254MOL0     H34261  -1.033   3.436   6.958  2.1539 -0.3717 -0.9591
  254MOL0     H34262  -1.214   3.618   6.984  0.8519  0.6477  0.4433
  254MOL0     H34263  -1.264   3.445   6.979 -2.9241  1.7743 -1.0894
  254MOL0     H34264  -1.231   3.623   7.226  1.0710 -0.2938  0.2723
  254MOL0     H34265  -1.298   3.461   7.232 -1.0470 -0.5480 -0.4077
  254MOL0     H34266  -1.408   3.705   7.095  0.5190  0.7671  1.5373
  254MOL0     H34267  -1.495   3.556   7.090  2.0543  0.5116 -3.5001
  254MOL0     H34268  -1.412   3.751   7.327 -0.7597  0.9819  0.3600
  254MOL0     H34269  -1.466   3.581   7.354  1.1031 -0.4320 -0.1566
  254MOL0     H34270  -1.653   3.689   7.194 -1.1904 -2.0940  1.2807
  254MOL0     H34271  -1.618   3.821   7.316 -1.9190 -1.0269  2.2079
  254MOL0     H34272  -0.609   3.591   7.290  2.3229 -1.2608 -3.9461
  254MOL0     H34273  -0.401   3.480   7.353 -0.7557  2.0300  0.8190
  254MOL0     H34274  -0.253   3.042   7.792  0.1218 -0.1449 -0.1648
  254MOL0     H34275  -0.035   2.974   7.850  0.5692 -0.4688 -0.2493
  254MOL0     H34276   2.008   3.033   7.454 -0.0643  0.8753  0.3922
  254MOL0     H34277   2.232   3.087   7.486 -1.2491 -1.8283  0.0531
  254MOL0     H34278   2.577   3.266   7.615  0.3206  0.7276  0.0487
  254MOL0     H34279   2.804   3.314   7.657 -1.4695  0.1282  1.1739
  254MOL0     H34280   2.963   3.387   7.730 -1.2542 -1.9284 -2.5380
  254MOL0     H34281   3.085   3.394   7.605 -2.8276 -1.3154 -1.7633
  254MOL0     H34282   3.072   3.613   7.820  0.2087 -3.4106  3.7386
  254MOL0     H34283   3.176   3.615   7.678  2.8009 -2.6567 -0.8648
  254MOL0     H34284   3.161   3.402   7.895  1.0549 -0.5622 -0.8683
  254MOL0     H34285   3.280   3.542   7.907  1.9161 -0.2369 -0.4683
  254MOL0     H34286   3.291   3.331   7.701  0.3317  0.7331  0.0232
  254MOL0     H34287   3.405   3.354   7.835 -0.8975  1.4104  0.7410
  254MOL0     H34288   3.554   3.646   7.576  0.5693  0.1577  2.4117
  254MOL0     H34289   2.786   3.686   7.451  0.6532 -0.4088  1.4705
  254MOL0     H34290   2.538   3.631   7.400 -0.9974 -0.4729  1.3263
  255MOL0     O34291   6.964   9.417   3.603  0.0788  0.5703 -0.0925
  255MOL0     C34292   7.011   9.529   3.619 -0.0824 -0.2947 -0.9129
  255MOL0     O34293   6.954   9.644   3.590  0.3071 -0.5604  0.2698
  255MOL0     C34294   6.848   9.642   3.501  0.1991 -0.5716 -0.5216
  255MOL0     C34295   6.725   9.585   3.544 -0.1659  0.9760 -0.3008
  255MOL0     C34296   6.622   9.581   3.452  0.3219 -0.7126  0.2421
  255MOL0     C34297   6.631   9.639   3.321  0.0472  1.3441 -0.4838
  255MOL0     O34298   6.529   9.608   3.236 -0.6970 -0.2753  0.8132
  255MOL0     C34299   6.543   9.655   3.099  0.6381  0.1304 -0.4160
  255MOL0     C34300   6.419   9.597   3.026  0.3629 -0.6461  0.3407
  255MOL0     C34301   6.298   9.666   3.075  0.4333 -0.5949 -0.6312
  255MOL0     C34302   6.174   9.622   2.996  1.0865  0.2628  0.4073
  255MOL0     C34303   6.044   9.682   3.061 -0.2422 -0.2163 -0.8043
  255MOL0     C34304   5.933   9.712   2.962  0.2142 -0.1285 -0.8840
  255MOL0     C34305   5.978   9.813   2.849 -0.0145 -0.4470  0.2635
  255MOL0     C34306   5.858   9.889   2.786 -0.3391 -0.6167 -0.1249
  255MOL0     N34307   5.762   9.801   2.722  0.5296 -0.1601 -0.4506
  255MOL0     C34308   5.652   9.736   2.779 -0.5921  0.2778 -0.3318
  255MOL0     C34309   5.593   9.670   2.676  0.9785 -0.3571 -0.5211
  255MOL0     C34310   5.467   9.590   2.683  0.2827 -0.2037  0.1915
  255MOL0     C34311   5.360   9.674   2.609 -0.4620 -0.1137 -0.0845
  255MOL0     C34312   5.237   9.581   2.585 -0.6114 -0.2432  0.2658
  255MOL0     C34313   5.117   9.677   2.578  0.0714  0.3913 -0.4527
  255MOL0     O34314   4.991   9.605   2.561  0.4326 -0.4323  0.0946
  255MOL0     C34315   4.881   9.689   2.538  0.0626  0.1134  0.7473
  255MOL0     C34316   4.770   9.614   2.500  1.1660 -0.1358 -0.2885
  255MOL0     C34317   4.643   9.671   2.486 -0.2100  0.0460 -0.5749
  255MOL0     C34318   4.528   9.579   2.458  0.8498  0.9081  1.0364
  255MOL0     C34319   4.619   9.814   2.502  0.4280 -0.4758  0.5947
  255MOL0     C34320   4.475   9.885   2.495  0.0703  0.7382  0.2394
  255MOL0     O34321   4.474  10.021   2.485 -0.3170 -0.1043 -0.8231
  255MOL0     C34322   4.359  10.104   2.491  0.2760  0.7010  0.1902
  255MOL0     C34323   4.360  10.217   2.409 -0.7314 -0.1471  0.4237
  255MOL0     C34324   4.248  10.301   2.387 -0.4539  0.3709 -0.7206
  255MOL0     C34325   4.130  10.275   2.452  0.1473  0.8539  0.7108
  255MOL0     O34326   4.013  10.344   2.436  0.0165  0.0609 -0.0167
  255MOL0     C34327   3.988  10.419   2.320  0.3300 -0.2560  0.8507
  255MOL0     C34328   3.851  10.476   2.336  0.6797  0.0866 -0.3691
  255MOL0     C34329   3.816  10.573   2.226 -1.3161  0.4456  0.0064
  255MOL0     C34330   3.686  10.636   2.246 -0.3183 -0.9726  0.0671
  255MOL0     C34331   3.691  10.738   2.353  0.4864 -0.0102  0.2211
  255MOL0     C34332   3.550  10.800   2.384  0.2307 -1.0491  0.8815
  255MOL0     C34333   3.544  10.896   2.497  0.2351 -0.1602 -0.0127
  255MOL0     C34334   3.438  11.000   2.472  0.1425  0.8916  0.0391
  255MOL0    Cl34335   3.277  10.924   2.456  0.0657 -0.4710  0.0087
  255MOL0     C34336   4.136  10.161   2.546  0.2406 -0.1030 -0.1946
  255MOL0     C34337   4.247  10.073   2.562 -0.0627  0.4084  0.2429
  255MOL0     O34338   4.372   9.815   2.495 -0.3052  0.0277 -0.6641
  255MOL0     C34339   4.738   9.888   2.535 -0.4111  0.3052  0.1419
  255MOL0     C34340   4.864   9.827   2.556 -0.3021  0.5210  0.5716
  255MOL0     N34341   5.652   9.718   2.560 -0.3285 -0.6697 -0.2242
  255MOL0     N34342   5.763   9.778   2.586  0.1935 -0.8282 -0.6514
  255MOL0     C34343   6.761   9.697   3.285 -0.0441 -0.2357 -0.5086
  255MOL0     C34344   6.858   9.706   3.380 -0.7858  0.7130 -0.2580
  255MOL0     C34345   7.148   9.545   3.670  0.2667 -0.6144  0.0722
  255MOL0     C34346   7.245   9.440   3.658  1.6197 -0.2171  0.0973
  255MOL0     C34347   7.377   9.451   3.684  0.0643 -0.0985  0.1088
  255MOL0     C34348   7.423   9.570   3.734 -0.2079  0.5588  0.1664
  255MOL0     O34349   7.558   9.575   3.743  0.0135 -0.7871 -0.3817
  255MOL0     C34350   7.627   9.696   3.781  0.4624  0.3761  0.7378
  255MOL0     C34351   7.663   9.716   3.920  0.1865  0.2506 -0.5851
  255MOL0     C34352   7.750   9.593   3.970 -0.2267 -0.0509 -0.1380
  255MOL0     C34353   7.816   9.622   4.101 -0.6622 -0.3132 -0.1191
  255MOL0     C34354   7.930   9.722   4.102  0.7356 -0.7096  0.1540
  255MOL0     C34355   8.024   9.794   4.082 -0.2519  0.1686  0.4359
  255MOL0     C34356   7.336   9.678   3.761  0.1150 -0.5404 -0.3816
  255MOL0     C34357   7.200   9.661   3.729  0.7107 -0.6478 -0.1254
  255MOL0     H34358   6.726   9.544   3.644  2.3712  3.5522  0.8753
  255MOL0     H34359   6.533   9.529   3.487  0.9889 -1.3844  0.9898
  255MOL0     H34360   6.548   9.764   3.090 -1.4127  0.3136  0.1448
  255MOL0     H34361   6.627   9.606   3.049  0.5467  2.0188 -2.5747
  255MOL0     H34362   6.415   9.610   2.918  2.0001 -1.2175  0.1841
  255MOL0     H34363   6.408   9.493   3.056  1.6894 -0.7804  0.4204
  255MOL0     H34364   6.286   9.647   3.182 -0.2939 -1.2136 -0.8142
  255MOL0     H34365   6.304   9.773   3.051 -0.3585 -0.6153 -0.9420
  255MOL0     H34366   6.191   9.648   2.891  1.5255 -0.4100  0.3070
  255MOL0     H34367   6.170   9.513   2.999  5.3278 -0.1288 -1.1067
  255MOL0     H34368   6.003   9.611   3.135  2.0687 -2.1898 -1.2979
  255MOL0     H34369   6.076   9.773   3.112  1.5369 -0.8472 -0.7369
  255MOL0     H34370   5.903   9.617   2.918 -2.6991 -1.1339  2.6928
  255MOL0     H34371   5.856   9.755   3.028  1.2830 -1.1620  1.1131
  255MOL0     H34372   6.056   9.883   2.881  0.6818  1.0592 -4.0425
  255MOL0     H34373   6.028   9.755   2.771 -1.2585 -3.3143  1.4569
  255MOL0     H34374   5.911   9.953   2.716 -1.3631  0.6297  0.2152
  255MOL0     H34375   5.808   9.946   2.865 -4.2193 -0.1787 -2.6479
  255MOL0     H34376   5.622   9.730   2.883 -2.4174  0.9077 -0.7889
  255MOL0     H34377   5.485   9.498   2.627  0.9535 -0.2022  0.3874
  255MOL0     H34378   5.438   9.582   2.788  0.2026  0.8297  0.2548
  255MOL0     H34379   5.402   9.710   2.514 -1.6420  2.2745  0.2146
  255MOL0     H34380   5.329   9.764   2.664 -1.1431 -0.1556 -0.3802
  255MOL0     H34381   5.227   9.504   2.663  1.5032  2.1899  3.1892
  255MOL0     H34382   5.249   9.526   2.492  1.6609  0.1216  0.2829
  255MOL0     H34383   5.135   9.754   2.502 -1.6534  1.2210 -0.0668
  255MOL0     H34384   5.108   9.726   2.675 -0.2581 -0.1925 -0.1828
  255MOL0     H34385   4.768   9.507   2.485 -1.2361 -1.1244  4.9073
  255MOL0     H34386   4.556   9.477   2.432  0.4187  0.7816  1.0624
  255MOL0     H34387   4.453   9.570   2.537  1.1101 -1.3814  1.0784
  255MOL0     H34388   4.477   9.619   2.369  0.7601  1.5484  1.3669
  255MOL0     H34389   4.453  10.238   2.358 -0.8707 -1.0968 -0.2461
  255MOL0     H34390   4.257  10.377   2.310 -2.5113 -1.9328 -3.4348
  255MOL0     H34391   4.056  10.505   2.319  1.1917 -0.9323 -0.2250
  255MOL0     H34392   4.009  10.365   2.228  0.1332  1.2935 -0.1360
  255MOL0     H34393   3.775  10.398   2.330 -2.5169  2.3882  4.0680
  255MOL0     H34394   3.844  10.518   2.437 -0.1372  0.0080 -0.3858
  255MOL0     H34395   3.805  10.514   2.134 -1.7381 -2.7213  1.9283
  255MOL0     H34396   3.897  10.645   2.213  1.4535 -2.7363 -2.0326
  255MOL0     H34397   3.649  10.675   2.150 -0.7201 -0.4424  0.4324
  255MOL0     H34398   3.619  10.559   2.285 -0.6450 -0.0276  1.4539
  255MOL0     H34399   3.755  10.820   2.321  0.5590 -0.1629 -0.0311
  255MOL0     H34400   3.732  10.706   2.449 -1.7772 -1.2064  0.8678
  255MOL0     H34401   3.514  10.859   2.300  0.6419  1.4281  2.3349
  255MOL0     H34402   3.480  10.717   2.397 -2.9400  1.3210  0.0977
  255MOL0     H34403   3.642  10.942   2.510 -0.1922  0.1852  2.3874
  255MOL0     H34404   3.524  10.856   2.597  1.2909 -0.2332  0.1821
  255MOL0     H34405   3.468  11.052   2.381  1.7080  0.3980  0.2464
  255MOL0     H34406   3.427  11.067   2.558 -1.7813 -2.6132  2.8185
  255MOL0     H34407   4.043  10.135   2.595  0.1805  0.9633  0.2822
  255MOL0     H34408   4.237   9.979   2.617 -0.7307  0.0025 -0.5418
  255MOL0     H34409   4.728   9.991   2.569  1.7816  0.1446  1.3924
  255MOL0     H34410   4.949   9.886   2.586 -0.3133  0.4387  0.7667
  255MOL0     H34411   6.776   9.744   3.189 -1.1481  1.6091  0.1664
  255MOL0     H34412   6.953   9.756   3.359 -0.8165  0.2701 -1.5845
  255MOL0     H34413   7.213   9.339   3.635 -2.2260  0.9491 -0.4804
  255MOL0     H34414   7.447   9.369   3.674 -0.7067 -1.0476  2.0050
  255MOL0     H34415   7.720   9.698   3.723 -0.9502 -0.5261 -1.6847
  255MOL0     H34416   7.570   9.781   3.742 -0.5135  0.0238  1.3732
  255MOL0     H34417   7.576   9.727   3.985  0.8142  0.3171  0.2558
  255MOL0     H34418   7.727   9.803   3.936  2.0735 -0.9918 -1.1207
  255MOL0     H34419   7.825   9.557   3.899  0.9072  2.3107 -0.2230
  255MOL0     H34420   7.683   9.507   3.979  1.8033 -1.5770  1.4173
  255MOL0     H34421   7.847   9.529   4.150 -0.0749 -0.6052 -1.0307
  255MOL0     H34422   7.751   9.668   4.176 -1.3034 -0.0702 -0.8134
  255MOL0     H34423   8.106   9.862   4.065 -1.2241  1.2989  0.1456
  255MOL0     H34424   7.367   9.766   3.815 -3.3569  0.4978  0.1495
  255MOL0     H34425   7.128   9.736   3.759 -2.5748 -3.2774 -0.7530
  256MOL0     O34426   5.219  10.666   7.609  0.4569  0.5231  0.3189
  256MOL0     C34427   5.113  10.720   7.586  0.0275 -0.4690  0.6301
  256MOL0     O34428   4.997  10.704   7.661  0.5224  0.1632 -0.0891
  256MOL0     C34429   4.999  10.625   7.778  0.2860 -0.3799 -0.7546
  256MOL0     C34430   4.874  10.563   7.805  0.0179  0.7432 -0.5316
  256MOL0     C34431   4.854  10.494   7.922 -0.2251 -0.7254 -0.3936
  256MOL0     C34432   4.953  10.487   8.019  0.0906 -0.4159  1.0307
  256MOL0     O34433   4.930  10.410   8.131  0.4284  0.0236 -0.3348
  256MOL0     C34434   4.991  10.456   8.255  0.5392 -0.0858 -0.3384
  256MOL0     C34435   4.925  10.378   8.369  0.0500 -0.4651  0.4516
  256MOL0     C34436   4.985  10.239   8.365  0.5435  0.2987  0.3949
  256MOL0     C34437   4.948  10.146   8.477  0.2093  0.0615 -0.7417
  256MOL0     C34438   4.806  10.081   8.456 -0.7060  0.5153  0.9235
  256MOL0     C34439   4.782   9.963   8.559  0.2935  0.1786 -0.2990
  256MOL0     C34440   4.654   9.885   8.531  0.1840 -0.1459  0.3012
  256MOL0     C34441   4.528   9.964   8.506 -0.9647  0.5683  0.1629
  256MOL0     N34442   4.412   9.877   8.523  0.0308  0.5655 -0.9889
  256MOL0     C34443   4.326   9.842   8.418  0.0927  0.6337  0.0775
  256MOL0     C34444   4.223   9.783   8.480 -0.1921 -0.2699  0.0039
  256MOL0     C34445   4.094   9.744   8.420 -0.0976  0.2178  0.0964
  256MOL0     C34446   3.974   9.802   8.499  0.5185  0.0943  0.1188
  256MOL0     C34447   3.839   9.778   8.434  0.0889 -0.3954 -0.5541
  256MOL0     C34448   3.737   9.844   8.517  0.5510  0.2967 -0.5958
  256MOL0     O34449   3.608   9.801   8.468 -0.1613  0.0166 -0.4177
  256MOL0     C34450   3.497   9.835   8.536  0.0232  0.3487 -0.2467
  256MOL0     C34451   3.496   9.895   8.665 -0.5873  0.7192  0.3247
  256MOL0     C34452   3.379   9.926   8.730  0.6134 -0.0092 -0.7526
  256MOL0     C34453   3.404   9.981   8.877 -0.5446  0.3270  0.5165
  256MOL0     C34454   3.252   9.887   8.672  0.0433 -0.8557 -0.1954
  256MOL0     C34455   3.120   9.934   8.723 -0.4888 -0.2367  0.0424
  256MOL0     O34456   3.010   9.939   8.646  0.1583 -0.0883  0.1761
  256MOL0     C34457   2.890   9.979   8.697 -0.3923 -0.3920 -0.5035
  256MOL0     C34458   2.827   9.930   8.812  0.0448  0.9739  0.7118
  256MOL0     C34459   2.695   9.977   8.843 -0.1564  0.6938  0.4280
  256MOL0     C34460   2.631  10.082   8.778 -0.8215  0.1432  0.3083
  256MOL0     O34461   2.515  10.152   8.816 -0.3335  0.2705  0.2600
  256MOL0     C34462   2.425  10.091   8.905 -0.1808 -0.0085 -0.4394
  256MOL0     C34463   2.319  10.203   8.912 -0.0646 -0.3016  0.0205
  256MOL0     C34464   2.193  10.161   8.997 -0.1234 -0.3558 -0.1732
  256MOL0     C34465   2.228  10.149   9.144  0.0370  0.1328  0.1357
  256MOL0     C34466   2.106  10.109   9.222 -0.7106  0.0631  0.0450
  256MOL0     C34467   2.132  10.126   9.377  0.3040 -1.2135 -0.1562
  256MOL0     C34468   2.208  10.005   9.439 -0.0310  1.1372 -0.4172
  256MOL0     C34469   2.354  10.025   9.472 -0.1614 -0.2479 -0.1792
  256MOL0    Cl34470   2.415   9.879   9.554 -0.0319 -0.2942 -0.1646
  256MOL0     C34471   2.687  10.124   8.662 -0.8018 -0.5472  0.6051
  256MOL0     C34472   2.815  10.074   8.624  0.8953  0.4068 -0.5660
  256MOL0     O34473   3.120   9.944   8.842 -0.1077  0.0604 -0.0676
  256MOL0     C34474   3.260   9.834   8.540  0.1758  0.4337  0.0859
  256MOL0     C34475   3.377   9.800   8.472 -0.2112 -1.1061  0.1849
  256MOL0     N34476   4.258   9.778   8.621  0.2895  0.7012  0.1255
  256MOL0     N34477   4.365   9.834   8.642  0.0467 -0.1240  0.0776
  256MOL0     C34478   5.074  10.551   7.994 -0.7541  0.1515  1.3931
  256MOL0     C34479   5.095  10.626   7.874 -0.2153  0.1286 -0.0520
  256MOL0     C34480   5.105  10.808   7.464  0.5763 -0.8761 -0.4415
  256MOL0     C34481   5.223  10.845   7.387  0.2945 -0.0837  0.0156
  256MOL0     C34482   5.199  10.896   7.260  0.0713  0.6588  0.5475
  256MOL0     C34483   5.071  10.932   7.214  0.7868 -0.4931 -0.0487
  256MOL0     O34484   5.049  11.000   7.099  0.4792 -0.1554 -0.0433
  256MOL0     C34485   5.029  10.920   6.983  0.3787 -0.4794 -0.6305
  256MOL0     C34486   5.139  10.946   6.876 -0.8726  0.5474 -0.7803
  256MOL0     C34487   5.237  10.820   6.880  0.0686  0.1612  0.3942
  256MOL0     C34488   5.338  10.812   6.766  0.5432  0.0987 -0.7021
  256MOL0     C34489   5.438  10.924   6.765  0.8235 -0.6229 -0.5744
  256MOL0     C34490   5.514  11.015   6.762 -0.4359  0.9063  0.3226
  256MOL0     C34491   4.965  10.892   7.288  0.5728 -0.9895  0.0600
  256MOL0     C34492   4.980  10.830   7.408  0.0312 -0.5476 -0.2716
  256MOL0     H34493   4.788  10.579   7.740 -1.0418  0.1195  0.6577
  256MOL0     H34494   4.758  10.444   7.929 -0.1952 -0.9289 -1.3776
  256MOL0     H34495   5.099  10.444   8.260  0.6937  0.7439 -1.3662
  256MOL0     H34496   4.977  10.564   8.264  0.5853 -0.2077  1.5376
  256MOL0     H34497   4.944  10.419   8.469 -0.9912 -0.7353  0.7654
  256MOL0     H34498   4.816  10.383   8.364  0.0008 -0.9573  1.0211
  256MOL0     H34499   4.956  10.189   8.272 -0.9662 -1.2472  1.6266
  256MOL0     H34500   5.093  10.252   8.368  0.6965  1.9201 -4.2345
  256MOL0     H34501   5.019  10.064   8.494  1.2826  1.5848  3.2930
  256MOL0     H34502   4.950  10.196   8.574  0.3823 -2.1018  0.4465
  256MOL0     H34503   4.732  10.159   8.477 -0.1877  0.8960  1.3468
  256MOL0     H34504   4.796  10.033   8.358  0.7926 -1.1494  1.5399
  256MOL0     H34505   4.870   9.898   8.551  0.9728  1.3545 -5.0157
  256MOL0     H34506   4.774  10.010   8.658 -1.1828  1.8031 -1.1521
  256MOL0     H34507   4.681   9.827   8.442  1.2836  0.8998 -0.0750
  256MOL0     H34508   4.635   9.813   8.611 -0.8668  0.0540  0.2391
  256MOL0     H34509   4.535  10.020   8.412 -0.3152  0.5764  0.2148
  256MOL0     H34510   4.526  10.036   8.588 -0.5260  0.0894  0.5973
  256MOL0     H34511   4.325   9.854   8.310  0.3289 -0.5856 -0.0750
  256MOL0     H34512   4.092   9.787   8.319  1.9681 -1.0931 -0.5757
  256MOL0     H34513   4.085   9.635   8.416  0.9832  0.0967  0.5716
  256MOL0     H34514   3.992   9.909   8.510  0.1766  0.3943 -1.7802
  256MOL0     H34515   3.968   9.760   8.600  0.9293  0.2635  0.2163
  256MOL0     H34516   3.822   9.670   8.433  0.3008 -0.4286 -0.8659
  256MOL0     H34517   3.835   9.816   8.332  0.2132 -2.3885 -1.3518
  256MOL0     H34518   3.750   9.952   8.510 -0.4255  0.5734  1.2488
  256MOL0     H34519   3.754   9.815   8.621 -1.6717 -1.5385 -0.6733
  256MOL0     H34520   3.592   9.916   8.710 -0.4901  0.3592  0.2920
  256MOL0     H34521   3.507   9.959   8.907 -0.6426 -1.5964 -0.4004
  256MOL0     H34522   3.385  10.088   8.878  0.5148  0.5636 -0.8009
  256MOL0     H34523   3.337   9.932   8.948 -0.2882  1.3030  1.4465
  256MOL0     H34524   2.884   9.862   8.875  0.8959 -0.0653 -1.1068
  256MOL0     H34525   2.641   9.940   8.930 -2.2108  0.0305 -1.0324
  256MOL0     H34526   2.379  10.002   8.860  2.0368 -2.3140  1.4869
  256MOL0     H34527   2.457  10.057   9.004  0.8102  0.0235 -0.7400
  256MOL0     H34528   2.353  10.302   8.942  0.0954  0.9797 -3.9058
  256MOL0     H34529   2.300  10.212   8.805  0.4371 -0.2043 -0.0623
  256MOL0     H34530   2.148  10.073   8.949  0.5894 -0.9902  0.3182
  256MOL0     H34531   2.116  10.238   8.982 -0.6605 -0.9834 -0.7745
  256MOL0     H34532   2.310  10.077   9.148 -0.2453 -0.7224 -4.3476
  256MOL0     H34533   2.260  10.247   9.178 -0.9231  1.1812 -1.8179
  256MOL0     H34534   2.074  10.007   9.202  1.7811 -0.6493 -0.5427
  256MOL0     H34535   2.017  10.167   9.195 -2.1892 -1.9528  0.3357
  256MOL0     H34536   2.187  10.219   9.395  0.9159 -1.3123 -1.3798
  256MOL0     H34537   2.036  10.150   9.424  0.3741  0.1913 -0.6905
  256MOL0     H34538   2.192   9.906   9.395  0.4273  0.6892  0.3993
  256MOL0     H34539   2.160   9.987   9.536  2.0375  2.5900  0.9401
  256MOL0     H34540   2.358  10.112   9.538 -3.0021  1.3244 -1.8630
  256MOL0     H34541   2.412  10.044   9.381 -1.1238  0.7328 -0.6100
  256MOL0     H34542   2.633  10.184   8.589 -2.9940 -2.4307  0.5661
  256MOL0     H34543   2.852  10.119   8.533 -1.3267  0.0757 -1.6963
  256MOL0     H34544   3.168   9.813   8.486  0.2458 -0.2340  0.2233
  256MOL0     H34545   3.373   9.756   8.373 -0.2533  1.5718 -1.0953
  256MOL0     H34546   5.154  10.550   8.069  0.1039  0.5091  0.5059
  256MOL0     H34547   5.179  10.695   7.869 -1.3510  1.6039  0.6029
  256MOL0     H34548   5.322  10.821   7.423 -0.3705 -1.3894  1.0421
  256MOL0     H34549   5.293  10.915   7.208  1.0329  0.5002  2.1473
  256MOL0     H34550   5.012  10.815   7.007  0.1604 -0.1151  0.9166
  256MOL0     H34551   4.942  10.969   6.938  1.2106 -0.6631 -2.5161
  256MOL0     H34552   5.203  11.030   6.904 -0.2998 -0.2382  0.3398
  256MOL0     H34553   5.095  10.965   6.778 -2.5036  2.5963  0.2842
  256MOL0     H34554   5.188  10.722   6.880 -1.2392  0.7110 -2.5192
  256MOL0     H34555   5.287  10.821   6.977  0.7409  1.1553  0.0517
  256MOL0     H34556   5.294  10.793   6.668  0.2841 -0.3951 -0.4939
  256MOL0     H34557   5.390  10.718   6.786 -1.2518 -0.7147  0.4181
  256MOL0     H34558   5.580  11.099   6.764 -0.9579  1.4033 -1.4088
  256MOL0     H34559   4.866  10.913   7.251  0.6564 -1.5796 -0.4987
  256MOL0     H34560   4.890  10.807   7.465  1.8254 -2.7867  1.8597
  257MOL0     O34561   3.387   5.167   7.432  0.3007  0.0602  0.3580
  257MOL0     C34562   3.469   5.151   7.341 -0.4212  0.7315  0.0773
  257MOL0     O34563   3.445   5.161   7.207 -0.1774 -0.3897 -0.1169
  257MOL0     C34564   3.314   5.178   7.163 -0.3496 -0.8784  0.6600
  257MOL0     C34565   3.231   5.284   7.206 -0.4020 -0.1498  0.7207
  257MOL0     C34566   3.099   5.279   7.166 -0.4599 -0.2312 -0.5756
  257MOL0     C34567   3.046   5.178   7.093 -0.1380 -0.2967 -0.0081
  257MOL0     O34568   2.910   5.167   7.057  0.0580 -0.3865  0.0885
  257MOL0     C34569   2.836   5.289   7.053  0.9506 -0.5037 -0.0582
  257MOL0     C34570   2.741   5.293   7.163 -0.5573  0.1338 -0.0855
  257MOL0     C34571   2.599   5.342   7.108 -0.0477 -0.4168 -0.1635
  257MOL0     C34572   2.528   5.229   7.028  0.7013 -0.3341  1.0400
  257MOL0     C34573   2.380   5.266   7.009  0.1655 -0.6337 -0.6011
  257MOL0     C34574   2.353   5.402   6.931 -0.2566  0.2386 -0.5324
  257MOL0     C34575   2.203   5.421   6.918 -0.0242 -0.1247 -0.1847
  257MOL0     C34576   2.135   5.358   6.794  0.5085  0.2742  0.0590
  257MOL0     N34577   1.992   5.387   6.789  0.3677  0.5627 -0.6868
  257MOL0     C34578   1.908   5.456   6.872 -0.2440  0.9074 -0.4217
  257MOL0     C34579   1.779   5.450   6.825 -0.4961  0.3924 -0.2891
  257MOL0     C34580   1.655   5.499   6.885 -0.5521  0.0878  0.1105
  257MOL0     C34581   1.542   5.493   6.783 -0.5952  0.8460  0.2260
  257MOL0     C34582   1.409   5.532   6.830 -0.6767 -0.1923 -0.0777
  257MOL0     C34583   1.296   5.525   6.729  0.6316  0.2486 -0.2445
  257MOL0     O34584   1.182   5.581   6.793  0.1448  0.1183 -0.7820
  257MOL0     C34585   1.061   5.585   6.740 -0.1884  0.6799 -0.0050
  257MOL0     C34586   0.962   5.631   6.828 -0.7118 -1.1607  0.4822
  257MOL0     C34587   0.825   5.625   6.785 -0.3266 -0.1275  0.6259
  257MOL0     C34588   0.719   5.679   6.877  0.1324 -0.0300 -0.3065
  257MOL0     C34589   0.787   5.576   6.656  0.2302  0.0748  1.0002
  257MOL0     C34590   0.652   5.557   6.601  0.4277 -0.2549 -0.2112
  257MOL0     O34591   0.635   5.468   6.499  0.9051 -0.7685  0.5499
  257MOL0     C34592   0.536   5.501   6.405  0.2214 -0.5320 -0.0129
  257MOL0     C34593   0.438   5.407   6.373  0.4274 -0.3630  0.1413
  257MOL0     C34594   0.326   5.443   6.290 -0.4327 -0.2801  0.4591
  257MOL0     C34595   0.336   5.569   6.224  0.4964 -0.1374 -0.8574
  257MOL0     O34596   0.246   5.593   6.122 -0.3555 -0.4709  0.0530
  257MOL0     C34597   0.204   5.727   6.092 -0.1549  0.0223  1.2303
  257MOL0     C34598   0.109   5.779   6.208  0.0752  0.0343  0.0750
  257MOL0     C34599   0.013   5.678   6.271  0.4695 -0.8378 -0.3465
  257MOL0     C34600  -0.068   5.604   6.162  0.4514 -0.3884  0.5732
  257MOL0     C34601  -0.224   5.595   6.171  0.0718 -0.4539 -0.5597
  257MOL0     C34602  -0.257   5.485   6.067 -0.9858  0.7351 -0.4908
  257MOL0     C34603  -0.404   5.456   6.042 -0.3941 -0.5290 -0.4989
  257MOL0     C34604  -0.471   5.579   5.978  0.2833 -0.0804  0.6928
  257MOL0    Cl34605  -0.640   5.540   5.924 -0.2682  0.0537 -0.0888
  257MOL0     C34606   0.427   5.672   6.265 -0.4035  0.3561  0.0320
  257MOL0     C34607   0.530   5.630   6.350 -0.2517 -0.2219 -0.1821
  257MOL0     O34608   0.558   5.622   6.655  0.3781  0.1972 -0.4117
  257MOL0     C34609   0.895   5.543   6.571  0.3795  0.2744 -0.4880
  257MOL0     C34610   1.025   5.534   6.611 -0.0634 -0.0400 -0.0343
  257MOL0     N34611   1.792   5.381   6.708 -0.4568 -0.4518  0.3780
  257MOL0     N34612   1.914   5.339   6.693 -0.1994 -0.4579  0.2508
  257MOL0     C34613   3.130   5.074   7.052  0.0036 -0.4311 -0.1947
  257MOL0     C34614   3.260   5.077   7.082 -1.1230  0.5060 -0.0980
  257MOL0     C34615   3.604   5.127   7.384  0.2798  0.1678  0.1920
  257MOL0     C34616   3.716   5.144   7.303  0.2167 -0.4471  0.1963
  257MOL0     C34617   3.847   5.121   7.354  0.2631 -0.4106  0.6771
  257MOL0     C34618   3.867   5.077   7.484  0.5206  0.0517 -1.1848
  257MOL0     O34619   3.982   5.046   7.553  0.4941  0.7299  0.0546
  257MOL0     C34620   4.096   5.039   7.467  0.5556  0.4196  0.8542
  257MOL0     C34621   4.234   4.988   7.522  0.1910  0.2383  0.4479
  257MOL0     C34622   4.252   5.012   7.670  0.3310 -0.4486 -0.4434
  257MOL0     C34623   4.380   4.960   7.726  0.3463 -0.0294 -0.7723
  257MOL0     C34624   4.495   4.959   7.641 -0.0848  0.1531  0.4400
  257MOL0     C34625   4.601   4.968   7.579 -0.8392 -0.2247 -0.1518
  257MOL0     C34626   3.747   5.055   7.559 -0.9356 -0.2533 -0.1980
  257MOL0     C34627   3.620   5.076   7.512 -1.3695 -0.1841 -0.0601
  257MOL0     H34628   3.275   5.356   7.274 -0.0752 -0.3050  0.6762
  257MOL0     H34629   3.039   5.365   7.196 -0.5680  0.3321 -2.3111
  257MOL0     H34630   2.897   5.380   7.058 -0.2366  0.2583  1.7525
  257MOL0     H34631   2.782   5.300   6.959 -1.1350  1.0234  1.2418
  257MOL0     H34632   2.731   5.193   7.206 -1.3119  0.5838  0.8304
  257MOL0     H34633   2.773   5.366   7.237 -2.2621  4.1639 -2.9409
  257MOL0     H34634   2.538   5.388   7.186  2.4178  0.9544  1.0735
  257MOL0     H34635   2.626   5.427   7.045 -0.9590  0.7412  0.9595
  257MOL0     H34636   2.575   5.217   6.930  1.1093 -2.7742  1.4582
  257MOL0     H34637   2.524   5.129   7.073 -0.1339 -2.2035 -2.7381
  257MOL0     H34638   2.339   5.183   6.950  1.0937  0.9742 -3.7066
  257MOL0     H34639   2.329   5.268   7.106  0.2393  1.8430 -0.5487
  257MOL0     H34640   2.393   5.483   6.992  0.6314  0.2795 -1.1413
  257MOL0     H34641   2.405   5.410   6.834  0.6820  1.8870  0.0675
  257MOL0     H34642   2.162   5.376   7.009  2.9849 -0.6415  1.0389
  257MOL0     H34643   2.189   5.530   6.919 -0.4806 -0.1844  0.5727
  257MOL0     H34644   2.155   5.251   6.804  0.6094  0.3129  0.2572
  257MOL0     H34645   2.191   5.386   6.704 -0.6118  0.4695 -0.5979
  257MOL0     H34646   1.929   5.507   6.966 -1.4901  1.4344 -0.4077
  257MOL0     H34647   1.646   5.439   6.976  3.3935 -1.8649 -0.6111
  257MOL0     H34648   1.684   5.598   6.923  1.2301 -0.0153 -0.8980
  257MOL0     H34649   1.533   5.390   6.747  0.1326 -0.1548  2.6586
  257MOL0     H34650   1.578   5.557   6.702  4.2217 -1.0256  0.5638
  257MOL0     H34651   1.418   5.633   6.871 -0.6382 -0.4818  0.6477
  257MOL0     H34652   1.381   5.466   6.913  1.6345 -1.7717 -0.4509
  257MOL0     H34653   1.293   5.418   6.709 -0.3580  0.6153 -2.3684
  257MOL0     H34654   1.320   5.576   6.636  0.8264 -0.1986 -0.4418
  257MOL0     H34655   1.004   5.667   6.921  0.9525 -1.4158 -0.1244
  257MOL0     H34656   0.751   5.728   6.969 -2.2043 -0.4704  0.7984
  257MOL0     H34657   0.658   5.756   6.831  0.2325  1.1817  1.4913
  257MOL0     H34658   0.658   5.597   6.915  2.0524 -0.3964  2.2709
  257MOL0     H34659   0.443   5.320   6.436 -2.3825 -0.9049 -0.2405
  257MOL0     H34660   0.248   5.376   6.256  0.1984  0.1426 -2.0285
  257MOL0     H34661   0.275   5.807   6.070 -0.7202  0.0727 -0.5182
  257MOL0     H34662   0.149   5.730   5.997 -0.3698 -0.3183  1.3434
  257MOL0     H34663   0.171   5.821   6.288 -0.7824  0.2736  0.6201
  257MOL0     H34664   0.050   5.864   6.173 -0.7496 -0.7572 -0.5051
  257MOL0     H34665  -0.050   5.722   6.349  3.9811  0.3729  2.0595
  257MOL0     H34666   0.072   5.604   6.328 -0.5263 -1.2075  0.2303
  257MOL0     H34667  -0.049   5.639   6.060  2.0854 -0.7322  0.7273
  257MOL0     H34668  -0.034   5.501   6.172 -1.6216 -0.9000  3.8934
  257MOL0     H34669  -0.259   5.693   6.137 -0.2991  0.6389  2.6506
  257MOL0     H34670  -0.258   5.578   6.274 -0.8137 -0.0073 -0.7679
  257MOL0     H34671  -0.212   5.510   5.970 -4.1764  2.2109 -1.7276
  257MOL0     H34672  -0.221   5.391   6.111  0.4531  1.6154  0.2882
  257MOL0     H34673  -0.458   5.429   6.133  0.3440 -2.9979 -0.7199
  257MOL0     H34674  -0.407   5.367   5.979 -2.1049 -1.4333  0.8035
  257MOL0     H34675  -0.420   5.619   5.890 -3.6046  4.6233  0.1612
  257MOL0     H34676  -0.474   5.656   6.055 -2.8746  1.2876 -0.6355
  257MOL0     H34677   0.439   5.768   6.215 -0.5569 -0.1952 -1.1086
  257MOL0     H34678   0.611   5.701   6.363  1.2747 -2.1764  1.6359
  257MOL0     H34679   0.871   5.492   6.478  0.6002 -1.8371  0.5745
  257MOL0     H34680   1.106   5.503   6.545 -1.1195 -1.6029 -0.6529
  257MOL0     H34681   3.083   4.999   6.989 -0.4320 -1.6823  1.5305
  257MOL0     H34682   3.314   4.989   7.048 -1.8734 -0.6516  1.5406
  257MOL0     H34683   3.709   5.162   7.196  3.6268  0.5347 -0.0110
  257MOL0     H34684   3.930   5.147   7.289 -0.8911  4.1261  0.6790
  257MOL0     H34685   4.071   4.973   7.384 -0.8563  1.9973 -0.0192
  257MOL0     H34686   4.112   5.141   7.432  0.2454  0.9609  2.2025
  257MOL0     H34687   4.309   5.051   7.475 -0.6925 -1.3593 -3.4987
  257MOL0     H34688   4.255   4.883   7.501  3.9402  0.8224  0.6103
  257MOL0     H34689   4.168   4.959   7.714  1.2506  0.3080  2.4699
  257MOL0     H34690   4.234   5.120   7.678 -3.3122 -1.0172  0.6998
  257MOL0     H34691   4.360   4.857   7.759 -0.4863  0.8920  1.8711
  257MOL0     H34692   4.413   5.008   7.819  0.2634 -1.4740  0.0330
  257MOL0     H34693   4.698   4.987   7.536 -0.9159  1.6466  0.4187
  257MOL0     H34694   3.764   5.040   7.665  0.2001  0.7980 -0.1991
  257MOL0     H34695   3.536   5.048   7.574 -0.3700 -1.0139  0.9568
  258MOL0     O34696   2.344   6.693   7.070 -0.2180 -0.4650  0.9472
  258MOL0     C34697   2.379   6.730   7.184 -0.0891  0.2584  1.0820
  258MOL0     O34698   2.297   6.789   7.280  0.4245  0.3180 -0.3713
  258MOL0     C34699   2.167   6.820   7.281  0.3681  0.5420 -0.1968
  258MOL0     C34700   2.063   6.748   7.212 -0.1882 -0.3126 -0.6669
  258MOL0     C34701   1.924   6.785   7.244 -0.2440  0.8654  0.2691
  258MOL0     C34702   1.892   6.902   7.314  0.5708  0.3926 -0.5508
  258MOL0     O34703   1.759   6.944   7.328  0.1756 -0.6090  0.0654
  258MOL0     C34704   1.733   7.079   7.375 -0.4266 -0.0800 -0.3222
  258MOL0     C34705   1.585   7.111   7.407 -0.5573  0.3554 -0.6733
  258MOL0     C34706   1.517   7.006   7.502 -0.5778 -1.0684 -0.3639
  258MOL0     C34707   1.362   7.043   7.517  0.1353  0.5756  0.0203
  258MOL0     C34708   1.304   7.052   7.374  0.3110  0.1083 -0.0604
  258MOL0     C34709   1.155   7.051   7.382  0.7087  0.4334 -0.0154
  258MOL0     C34710   1.088   7.057   7.245  0.6965 -0.7201  0.3013
  258MOL0     C34711   0.936   7.088   7.261  0.1254  0.2390 -0.2142
  258MOL0     N34712   0.876   7.107   7.129 -0.0035 -0.6685 -0.2263
  258MOL0     C34713   0.875   7.022   7.024 -0.0502 -0.4368  0.2330
  258MOL0     C34714   0.810   7.095   6.925 -0.3540  0.3420  0.0701
  258MOL0     C34715   0.781   7.043   6.787  0.4627 -0.7372 -0.3095
  258MOL0     C34716   0.637   7.003   6.772 -0.5700  0.3875  0.7599
  258MOL0     C34717   0.609   6.967   6.629  0.3972 -0.3678  0.0833
  258MOL0     C34718   0.461   6.947   6.621 -0.3392  0.2487  0.3169
  258MOL0     O34719   0.411   6.946   6.489 -0.1591 -0.4433  0.6954
  258MOL0     C34720   0.283   6.949   6.467 -0.8870  0.1437  0.1619
  258MOL0     C34721   0.187   6.948   6.555 -0.0481  0.4619  0.3412
  258MOL0     C34722   0.050   6.933   6.514  0.5054  0.0787  0.4133
  258MOL0     C34723  -0.046   6.931   6.624 -0.6504  0.2771  0.1645
  258MOL0     C34724   0.013   6.918   6.380  0.0142 -1.0466 -0.3584
  258MOL0     C34725  -0.119   6.916   6.307 -0.6211  0.1866 -0.1294
  258MOL0     O34726  -0.205   6.808   6.337 -0.0816 -0.4950  0.2309
  258MOL0     C34727  -0.334   6.801   6.281 -0.5761  0.2946  0.4143
  258MOL0     C34728  -0.356   6.809   6.143 -0.0414  0.3639 -0.7407
  258MOL0     C34729  -0.488   6.779   6.099 -0.7667 -0.9265  0.0088
  258MOL0     C34730  -0.589   6.733   6.182 -0.6286  0.1170  0.4725
  258MOL0     O34731  -0.709   6.699   6.121 -0.6721 -0.4419 -0.4910
  258MOL0     C34732  -0.819   6.664   6.201  0.1733 -1.1409 -0.2322
  258MOL0     C34733  -0.947   6.640   6.109  0.7225 -0.0978 -0.1322
  258MOL0     C34734  -1.067   6.648   6.211 -0.5704 -0.7012  1.1128
  258MOL0     C34735  -1.204   6.634   6.137  0.3491  0.0976 -0.8358
  258MOL0     C34736  -1.311   6.650   6.244  0.2939 -0.0283 -0.1393
  258MOL0     C34737  -1.445   6.628   6.167 -0.3358  0.9415 -0.0939
  258MOL0     C34738  -1.573   6.669   6.245  0.2417 -0.7536 -0.1817
  258MOL0     C34739  -1.699   6.624   6.165 -0.7416 -0.4269 -0.3764
  258MOL0    Cl34740  -1.707   6.439   6.175  0.4084 -0.0014  0.3580
  258MOL0     C34741  -0.557   6.722   6.315 -0.2092 -0.4221  0.2649
  258MOL0     C34742  -0.436   6.761   6.367  0.2836  0.0794  1.1253
  258MOL0     O34743  -0.143   7.007   6.228  0.4971 -0.1104  0.2181
  258MOL0     C34744   0.122   6.929   6.290 -0.2589  0.3588 -0.5319
  258MOL0     C34745   0.257   6.952   6.333  0.7793  0.6054  0.1446
  258MOL0     N34746   0.795   7.229   6.965 -0.2206 -0.3208 -0.0975
  258MOL0     N34747   0.825   7.224   7.090 -0.0977 -0.0988  0.5591
  258MOL0     C34748   1.998   6.965   7.380 -1.2502  0.5381  0.5676
  258MOL0     C34749   2.131   6.929   7.366 -0.0932  0.1354 -0.3216
  258MOL0     C34750   2.520   6.730   7.218  0.3273  0.5621 -1.3637
  258MOL0     C34751   2.612   6.653   7.136  0.2704 -0.2595 -0.0488
  258MOL0     C34752   2.750   6.651   7.172  0.9743 -0.4013  0.2877
  258MOL0     C34753   2.793   6.709   7.297 -0.3070  0.0464  0.3561
  258MOL0     O34754   2.929   6.677   7.322  0.6554  0.9395 -0.9132
  258MOL0     C34755   2.954   6.644   7.461 -0.3637 -0.1054  0.0013
  258MOL0     C34756   2.950   6.501   7.503  0.6040 -0.0277 -0.6219
  258MOL0     C34757   2.992   6.480   7.655  0.6554  0.1862  0.3403
  258MOL0     C34758   2.973   6.340   7.717 -0.3891  0.3637  0.2085
  258MOL0     C34759   2.836   6.294   7.730  0.6585 -0.0214 -0.6397
  258MOL0     C34760   2.737   6.236   7.759 -0.0434 -0.4778 -0.1259
  258MOL0     C34761   2.700   6.783   7.374  0.2371  0.4585  0.4146
  258MOL0     C34762   2.570   6.794   7.333  0.1976  0.0109 -0.2327
  258MOL0     H34763   2.090   6.667   7.145  0.8159  0.3756 -1.1171
  258MOL0     H34764   1.840   6.734   7.198  1.4216  0.9172 -3.0887
  258MOL0     H34765   1.782   7.102   7.470  0.7518 -1.3388 -0.5846
  258MOL0     H34766   1.778   7.145   7.301  0.8854  0.7875  1.1977
  258MOL0     H34767   1.579   7.213   7.446  0.1307  0.2132 -0.1623
  258MOL0     H34768   1.538   7.091   7.311 -1.6951 -1.9074  0.2797
  258MOL0     H34769   1.528   6.904   7.464 -3.4489 -1.4805 -0.3406
  258MOL0     H34770   1.557   6.996   7.603 -2.1467 -1.7794  0.2350
  258MOL0     H34771   1.311   6.966   7.575  1.4260  0.6556  1.3414
  258MOL0     H34772   1.355   7.139   7.570  1.4698  0.3586  0.6277
  258MOL0     H34773   1.325   7.150   7.330 -1.3211  0.3281 -0.4286
  258MOL0     H34774   1.336   6.977   7.301 -1.6371 -1.3872  0.5334
  258MOL0     H34775   1.112   6.959   7.423 -0.7057  0.8073 -0.6072
  258MOL0     H34776   1.117   7.127   7.450 -0.8593  0.4882 -0.9073
  258MOL0     H34777   1.139   7.134   7.187 -2.7774  1.4014 -0.2077
  258MOL0     H34778   1.098   6.966   7.185 -0.0746 -0.4763 -0.1934
  258MOL0     H34779   0.922   7.175   7.326 -1.9975  1.8944 -2.7057
  258MOL0     H34780   0.898   7.002   7.318 -0.3011  0.5166 -0.0705
  258MOL0     H34781   0.907   6.919   7.024  1.0530 -0.1202  1.6020
  258MOL0     H34782   0.793   7.129   6.720 -4.1183  2.0067  1.8638
  258MOL0     H34783   0.852   6.964   6.763 -0.3629 -1.5933 -0.0042
  258MOL0     H34784   0.583   7.093   6.803  0.7251  1.0159  1.2521
  258MOL0     H34785   0.605   6.922   6.839  2.8004 -1.5788  0.2097
  258MOL0     H34786   0.653   6.870   6.603  1.1635  0.6377 -2.7659
  258MOL0     H34787   0.653   7.041   6.562  1.5676 -1.1472 -0.0453
  258MOL0     H34788   0.414   7.032   6.672 -0.1052  1.5430 -1.4991
  258MOL0     H34789   0.432   6.848   6.654  0.9944 -0.6964 -1.1767
  258MOL0     H34790   0.208   6.938   6.661  0.4735  0.2353  0.2183
  258MOL0     H34791   0.011   6.954   6.714 -1.4067 -0.6337  0.8923
  258MOL0     H34792  -0.123   7.007   6.609  1.3231  2.1854 -0.9827
  258MOL0     H34793  -0.079   6.827   6.633  2.6574 -1.2565 -2.6873
  258MOL0     H34794  -0.270   6.830   6.081  1.4320  0.0057  1.0965
  258MOL0     H34795  -0.502   6.797   5.993  1.3752 -0.9535 -0.3379
  258MOL0     H34796  -0.808   6.575   6.264 -0.0211 -1.8320 -1.1555
  258MOL0     H34797  -0.845   6.754   6.258 -2.0847  0.3670 -3.3051
  258MOL0     H34798  -0.951   6.711   6.026  1.1122 -1.2847 -1.2087
  258MOL0     H34799  -0.938   6.541   6.064 -0.5794 -1.8120  3.0448
  258MOL0     H34800  -1.067   6.746   6.260 -2.4593  0.7925 -1.6485
  258MOL0     H34801  -1.059   6.562   6.278 -1.8135 -0.7246  1.2599
  258MOL0     H34802  -1.205   6.706   6.055 -0.3729 -0.1663 -1.0579
  258MOL0     H34803  -1.218   6.533   6.099 -1.6303  0.4871 -1.2552
  258MOL0     H34804  -1.297   6.745   6.297  0.3556 -0.8143  1.3245
  258MOL0     H34805  -1.304   6.571   6.320  0.4409  0.6273  0.5454
  258MOL0     H34806  -1.447   6.687   6.075 -1.1409  0.7606 -0.1972
  258MOL0     H34807  -1.449   6.524   6.134 -2.9993  0.5689  1.1331
  258MOL0     H34808  -1.576   6.779   6.250  1.5315 -0.5973 -1.7338
  258MOL0     H34809  -1.570   6.633   6.348  0.2443 -1.3585 -0.3898
  258MOL0     H34810  -1.684   6.649   6.059 -1.0693 -0.1722 -0.3641
  258MOL0     H34811  -1.793   6.664   6.205 -0.2807 -1.6197  2.0409
  258MOL0     H34812  -0.633   6.689   6.386 -0.0599 -0.0422  0.6037
  258MOL0     H34813  -0.433   6.756   6.475  0.3530 -0.4143  1.1050
  258MOL0     H34814   0.102   6.931   6.184 -2.4688 -0.1835 -0.1808
  258MOL0     H34815   0.337   6.969   6.261  0.1892  0.6054 -0.5230
  258MOL0     H34816   1.983   7.042   7.455 -1.6862 -0.4687  1.5357
  258MOL0     H34817   2.198   6.984   7.431 -2.2517  0.8166  1.4501
  258MOL0     H34818   2.591   6.616   7.037  1.8962  0.2709 -0.6378
  258MOL0     H34819   2.815   6.588   7.111 -2.8398 -1.7984 -2.7521
  258MOL0     H34820   3.059   6.671   7.480 -0.4546 -0.3155  0.8469
  258MOL0     H34821   2.892   6.703   7.530 -0.9153  2.6227 -2.6150
  258MOL0     H34822   3.019   6.452   7.433  1.0601 -0.6862  0.2710
  258MOL0     H34823   2.846   6.471   7.490  0.1728  1.4759 -0.8391
  258MOL0     H34824   2.957   6.555   7.727 -1.1435  0.0492 -0.3475
  258MOL0     H34825   3.100   6.490   7.645  0.6888 -1.5439 -1.6023
  258MOL0     H34826   3.034   6.338   7.808 -0.0751 -0.1785 -0.0098
  258MOL0     H34827   3.020   6.267   7.651  0.5200 -1.6888  2.9460
  258MOL0     H34828   2.645   6.182   7.770  0.1649 -0.7039  0.5425
  258MOL0     H34829   2.719   6.837   7.466  0.4166 -1.5822  1.6306
  258MOL0     H34830   2.510   6.868   7.384  2.1354  1.7638 -0.3603
  259MOL0     O34831   3.109   4.851   2.944 -0.3741  0.1918 -0.5157
  259MOL0     C34832   3.159   4.782   2.860 -0.6443 -0.6809  1.1483
  259MOL0     O34833   3.090   4.686   2.792  0.5330 -0.6683  0.0722
  259MOL0     C34834   2.954   4.684   2.820  0.1723  0.8298 -0.7762
  259MOL0     C34835   2.893   4.607   2.922  0.3190 -0.1465  0.0907
  259MOL0     C34836   2.752   4.607   2.944 -0.1227 -0.5527 -0.5212
  259MOL0     C34837   2.674   4.681   2.860  0.3716 -0.2267  0.5034
  259MOL0     O34838   2.539   4.686   2.864  0.5411  0.2830 -0.5887
  259MOL0     C34839   2.467   4.624   2.972 -0.3543  0.2357  0.0800
  259MOL0     C34840   2.321   4.644   2.947  0.4875 -0.4082 -0.1511
  259MOL0     C34841   2.235   4.625   3.075  0.4435 -0.3612  0.0264
  259MOL0     C34842   2.112   4.527   3.043 -0.9523  0.0366 -1.1173
  259MOL0     C34843   2.003   4.555   3.147  0.0588 -0.6110  0.1434
  259MOL0     C34844   1.871   4.476   3.109  0.4960 -0.6668  0.2247
  259MOL0     C34845   1.857   4.341   3.169 -0.1180 -0.0484 -0.6881
  259MOL0     C34846   1.728   4.271   3.129  0.0304 -0.8209 -0.2992
  259MOL0     N34847   1.684   4.167   3.219  0.1657 -0.5311 -0.1291
  259MOL0     C34848   1.756   4.074   3.287 -0.6599  0.0248  0.3843
  259MOL0     C34849   1.667   4.039   3.381  0.2070  0.2273 -0.2873
  259MOL0     C34850   1.694   3.930   3.481  0.3013  0.3371  0.0900
  259MOL0     C34851   1.733   3.786   3.429 -0.2489 -0.1469 -0.4608
  259MOL0     C34852   1.714   3.667   3.533  0.3648 -0.6357 -0.7880
  259MOL0     C34853   1.577   3.652   3.582 -0.1240  0.1289  0.5470
  259MOL0     O34854   1.578   3.513   3.613  0.5131 -0.0373 -0.2255
  259MOL0     C34855   1.466   3.468   3.675 -0.5257 -0.1815 -1.0547
  259MOL0     C34856   1.464   3.330   3.692  0.1130 -0.8483  0.3577
  259MOL0     C34857   1.359   3.261   3.755  0.0255 -0.1132 -0.0363
  259MOL0     C34858   1.369   3.113   3.750 -0.3516  0.1771  0.5426
  259MOL0     C34859   1.252   3.336   3.812  0.7599 -0.6662 -0.5067
  259MOL0     C34860   1.137   3.286   3.881 -0.3549 -0.2885 -0.7503
  259MOL0     O34861   1.020   3.341   3.845  0.4326  0.7899  0.6928
  259MOL0     C34862   0.896   3.302   3.887  0.1970  0.3400  0.1171
  259MOL0     C34863   0.869   3.227   4.005  0.3170 -0.4467  0.5852
  259MOL0     C34864   0.739   3.185   4.038 -0.1281 -0.2691  0.4370
  259MOL0     C34865   0.632   3.218   3.951  0.3909  0.1951  0.1367
  259MOL0     O34866   0.511   3.180   4.003  0.7346 -0.0455  1.0242
  259MOL0     C34867   0.397   3.163   3.917 -0.1659 -1.1174  0.3512
  259MOL0     C34868   0.301   3.076   3.993  0.1724 -0.8178  0.3344
  259MOL0     C34869   0.226   2.987   3.891  0.0891 -0.2224 -1.4741
  259MOL0     C34870   0.123   2.893   3.958 -0.1666  0.1390  0.2441
  259MOL0     C34871   0.060   2.803   3.853  0.1700  0.0779  0.8226
  259MOL0     C34872  -0.031   2.684   3.890 -0.1896 -0.4721 -0.0527
  259MOL0     C34873  -0.164   2.715   3.962 -0.9552 -0.4515  0.2139
  259MOL0     C34874  -0.269   2.793   3.890 -0.4938 -0.4538  0.0397
  259MOL0    Cl34875  -0.292   2.717   3.729 -0.3727 -0.1006  0.0075
  259MOL0     C34876   0.658   3.298   3.834  0.3632 -0.9769 -0.1775
  259MOL0     C34877   0.789   3.335   3.803  0.5848 -0.2070  0.0981
  259MOL0     O34878   1.155   3.192   3.960  0.2714  0.0463  0.2742
  259MOL0     C34879   1.254   3.478   3.789 -0.2684  0.5482 -0.0370
  259MOL0     C34880   1.353   3.541   3.720 -0.6885  0.8960 -0.0602
  259MOL0     N34881   1.547   4.113   3.378  0.1243  0.0568  0.4203
  259MOL0     N34882   1.564   4.195   3.281 -0.6618 -0.4408 -0.6499
  259MOL0     C34883   2.733   4.761   2.766 -0.2874 -0.1022  1.0619
  259MOL0     C34884   2.872   4.765   2.743 -0.2192  0.5456  0.4802
  259MOL0     C34885   3.303   4.803   2.819 -0.5508  0.4534 -0.4905
  259MOL0     C34886   3.365   4.713   2.737  1.0433  0.5315 -0.0545
  259MOL0     C34887   3.498   4.727   2.707 -0.0586 -0.0826  0.4581
  259MOL0     C34888   3.581   4.835   2.740  0.3598  0.4953 -0.1114
  259MOL0     O34889   3.719   4.853   2.709 -0.4772  0.3525  1.1837
  259MOL0     C34890   3.784   4.755   2.630  0.0490  0.4131 -0.1251
  259MOL0     C34891   3.919   4.805   2.581  0.1399  0.5651  0.0726
  259MOL0     C34892   4.023   4.828   2.692 -1.0304 -0.4634 -0.1373
  259MOL0     C34893   4.036   4.724   2.803 -0.9000  0.0011  0.2586
  259MOL0     C34894   4.102   4.607   2.744 -0.2151 -0.1593 -0.6544
  259MOL0     C34895   4.159   4.499   2.713  0.3495  0.2532  0.0633
  259MOL0     C34896   3.518   4.927   2.833  0.0489 -0.7980  1.0611
  259MOL0     C34897   3.384   4.910   2.874 -0.1538 -0.4156 -0.9094
  259MOL0     H34898   2.962   4.543   2.976  2.6749 -1.1657 -3.7965
  259MOL0     H34899   2.710   4.545   3.023  1.4295  0.8343  1.4823
  259MOL0     H34900   2.490   4.517   2.965 -0.5431  0.1908  0.1365
  259MOL0     H34901   2.496   4.660   3.071  0.1850 -2.3458  0.9371
  259MOL0     H34902   2.298   4.743   2.908  1.3576 -0.4403 -0.7885
  259MOL0     H34903   2.295   4.578   2.863 -4.0165 -1.2728  1.6386
  259MOL0     H34904   2.290   4.579   3.158  4.0914 -1.8234 -2.9067
  259MOL0     H34905   2.186   4.716   3.111 -4.8433 -3.4590  1.9490
  259MOL0     H34906   2.076   4.538   2.940 -0.0600  1.2129 -1.3359
  259MOL0     H34907   2.137   4.420   3.046 -2.9954 -0.4735 -1.2770
  259MOL0     H34908   2.031   4.519   3.246 -2.0432 -2.1929  0.2454
  259MOL0     H34909   1.963   4.657   3.145 -1.0317 -1.0107  0.5416
  259MOL0     H34910   1.786   4.530   3.151  1.3047  0.3720  0.5761
  259MOL0     H34911   1.861   4.470   3.000 -0.6535  0.4949  0.2428
  259MOL0     H34912   1.940   4.273   3.150  0.0163 -0.8311  2.1666
  259MOL0     H34913   1.853   4.371   3.274 -0.7003  1.4029 -1.1046
  259MOL0     H34914   1.742   4.218   3.034 -0.9349  0.4131 -1.1556
  259MOL0     H34915   1.650   4.346   3.121  2.9841  2.6004  0.6215
  259MOL0     H34916   1.857   4.037   3.269  0.0345  1.9090  0.1211
  259MOL0     H34917   1.779   3.954   3.545  1.5414 -1.6818 -0.7075
  259MOL0     H34918   1.608   3.916   3.547 -0.5684 -0.6522 -1.1895
  259MOL0     H34919   1.840   3.794   3.404  0.1795  0.5297  1.4482
  259MOL0     H34920   1.664   3.761   3.348 -1.3072  1.0649  0.0291
  259MOL0     H34921   1.776   3.690   3.620 -0.1325  0.5443 -0.7251
  259MOL0     H34922   1.754   3.572   3.496  2.1873  0.0254 -0.5841
  259MOL0     H34923   1.507   3.667   3.498 -0.0202 -2.0338  0.0251
  259MOL0     H34924   1.554   3.723   3.662  1.1335  0.3052  0.7720
  259MOL0     H34925   1.548   3.270   3.658  1.7195  0.1403  2.3186
  259MOL0     H34926   1.456   3.076   3.805  0.7591  0.3612 -1.0230
  259MOL0     H34927   1.275   3.077   3.793 -1.0146  2.0107  0.6825
  259MOL0     H34928   1.371   3.063   3.652 -2.0105  0.1805  0.4774
  259MOL0     H34929   0.947   3.207   4.079  2.6322  3.0749 -0.6520
  259MOL0     H34930   0.719   3.132   4.130  1.1649 -0.2655  0.7498
  259MOL0     H34931   0.352   3.262   3.903  1.1388 -0.5430  0.0743
  259MOL0     H34932   0.427   3.129   3.818  1.3921  4.1736 -1.3337
  259MOL0     H34933   0.350   3.013   4.067 -1.2665 -0.6582  1.4583
  259MOL0     H34934   0.225   3.138   4.041 -0.2607 -0.0395 -1.2717
  259MOL0     H34935   0.290   2.920   3.834  1.4618 -1.8241  1.7006
  259MOL0     H34936   0.166   3.056   3.831 -0.3107  1.5161  0.7868
  259MOL0     H34937   0.179   2.834   4.031 -0.3454 -0.1131  0.1770
  259MOL0     H34938   0.047   2.950   4.013  0.3661  1.9765 -0.8457
  259MOL0     H34939   0.141   2.758   3.795 -1.1230  0.4249 -1.3356
  259MOL0     H34940   0.008   2.863   3.778  1.2824 -1.7048 -1.5086
  259MOL0     H34941  -0.055   2.631   3.798 -0.1098  4.6646 -3.4935
  259MOL0     H34942   0.033   2.624   3.954  0.5723  1.0337  0.6588
  259MOL0     H34943  -0.146   2.781   4.047 -2.0046 -0.5568  0.5354
  259MOL0     H34944  -0.209   2.619   3.992 -2.5377  0.9835  2.7492
  259MOL0     H34945  -0.229   2.895   3.882  2.7457 -1.6626 -0.6490
  259MOL0     H34946  -0.363   2.805   3.944 -0.6744  0.6592 -0.4809
  259MOL0     H34947   0.578   3.325   3.767  0.4179  0.3611  0.2720
  259MOL0     H34948   0.815   3.397   3.718  0.6415  3.3183  2.4947
  259MOL0     H34949   1.178   3.546   3.825 -0.7128  0.4210 -0.7180
  259MOL0     H34950   1.336   3.643   3.685 -1.8250  0.5584 -0.5601
  259MOL0     H34951   2.664   4.811   2.698  0.7776 -0.1869 -0.1073
  259MOL0     H34952   2.922   4.810   2.658  0.5937 -2.1124 -0.5400
  259MOL0     H34953   3.298   4.640   2.694  0.0921  0.9968  0.5921
  259MOL0     H34954   3.540   4.644   2.651  0.5958 -0.5873  1.6794
  259MOL0     H34955   3.795   4.667   2.695  3.1816  0.6902 -0.1521
  259MOL0     H34956   3.725   4.716   2.547  0.0048  0.6557 -0.2073
  259MOL0     H34957   3.900   4.904   2.538  1.6822  1.3345  1.0153
  259MOL0     H34958   3.959   4.734   2.508 -0.6771  0.0727  0.0986
  259MOL0     H34959   4.009   4.924   2.742  3.0616 -0.1741  0.8130
  259MOL0     H34960   4.120   4.827   2.642 -0.5643  0.4465  0.7109
  259MOL0     H34961   3.942   4.700   2.854 -1.4879  3.6771  1.1615
  259MOL0     H34962   4.104   4.760   2.880  2.5354 -3.2999 -0.9182
  259MOL0     H34963   4.195   4.402   2.686 -0.1209 -0.2913  1.3189
  259MOL0     H34964   3.574   5.011   2.873 -2.1698  1.6331 -0.5488
  259MOL0     H34965   3.346   4.975   2.952  1.7503 -1.8331  1.3295
  260MOL0     O34966   6.380   6.023   4.735  0.6788  0.3431 -0.8590
  260MOL0     C34967   6.345   6.087   4.635  0.4751 -0.4709  0.1213
  260MOL0     O34968   6.216   6.120   4.608 -0.5305 -0.4108 -0.1502
  260MOL0     C34969   6.110   6.060   4.680 -0.6248 -0.5769 -0.2159
  260MOL0     C34970   5.995   6.017   4.607 -0.2509  0.1793  0.0169
  260MOL0     C34971   5.881   5.980   4.672  1.1138 -0.0449  0.6408
  260MOL0     C34972   5.872   5.978   4.810  0.8409  0.2190 -0.1418
  260MOL0     O34973   5.747   5.943   4.854 -0.4201 -0.0760  0.2068
  260MOL0     C34974   5.739   5.940   4.995 -0.4042 -0.0200 -0.0762
  260MOL0     C34975   5.607   5.890   5.041 -0.0901  0.1223  0.5865
  260MOL0     C34976   5.586   5.917   5.191  0.2083  0.6105  0.0695
  260MOL0     C34977   5.446   5.895   5.239 -0.2463  0.1983  1.1013
  260MOL0     C34978   5.427   5.905   5.391 -0.1639 -0.0092  0.2714
  260MOL0     C34979   5.278   5.916   5.425 -0.3378  0.1832 -0.0480
  260MOL0     C34980   5.287   5.981   5.561 -0.1558 -0.5577 -0.6641
  260MOL0     C34981   5.144   5.987   5.630  0.6900 -1.0253  0.5866
  260MOL0     N34982   5.117   5.857   5.682  0.1475  0.2407 -0.4603
  260MOL0     C34983   5.006   5.783   5.639  0.5092  0.5407 -0.0459
  260MOL0     C34984   5.016   5.664   5.701  0.8766 -0.6530  0.5608
  260MOL0     C34985   4.917   5.554   5.683 -0.1207  0.4191  0.1160
  260MOL0     C34986   4.811   5.553   5.795 -0.7738  0.4242 -0.1305
  260MOL0     C34987   4.744   5.420   5.812 -0.0961 -0.3346  0.2990
  260MOL0     C34988   4.693   5.352   5.681 -0.0844  0.5020  0.3905
  260MOL0     O34989   4.601   5.439   5.614 -0.3028  0.0903  0.5080
  260MOL0     C34990   4.521   5.375   5.518  0.7276 -0.4711 -0.2059
  260MOL0     C34991   4.562   5.284   5.428 -0.3440 -0.0165  0.1505
  260MOL0     C34992   4.492   5.229   5.323  0.7170 -0.2768 -0.4456
  260MOL0     C34993   4.559   5.134   5.226  0.4962 -0.3456 -0.1271
  260MOL0     C34994   4.348   5.254   5.325 -0.1301 -0.9369 -0.1461
  260MOL0     C34995   4.238   5.207   5.238  0.0689  0.8121  1.4958
  260MOL0     O34996   4.281   5.162   5.116 -0.6933 -0.2998 -0.4366
  260MOL0     C34997   4.186   5.096   5.038  0.5197  0.0099  0.3920
  260MOL0     C34998   4.164   5.157   4.920 -0.1773  0.0684 -0.1643
  260MOL0     C34999   4.057   5.116   4.847 -0.1229 -0.1692 -0.4726
  260MOL0     C35000   3.980   5.004   4.883 -0.0252 -0.4563 -0.3944
  260MOL0     O35001   3.871   4.969   4.814 -0.1557 -0.4234 -0.3617
  260MOL0     C35002   3.778   5.065   4.758  0.8103 -1.2121  0.1858
  260MOL0     C35003   3.656   4.984   4.714  0.2370  0.3894  0.4006
  260MOL0     C35004   3.613   4.875   4.802 -0.3004 -0.2104 -0.3597
  260MOL0     C35005   3.455   4.860   4.788 -1.0773  0.1540 -0.2209
  260MOL0     C35006   3.408   4.745   4.872 -0.2023  0.1920  0.5206
  260MOL0     C35007   3.254   4.736   4.860  0.0785 -0.3131 -0.3507
  260MOL0     C35008   3.178   4.665   4.975  0.1231  0.0397 -0.6243
  260MOL0     C35009   3.199   4.732   5.111  0.5732  0.5970 -0.3014
  260MOL0    Cl35010   3.115   4.889   5.118 -0.4585  0.1208 -0.0326
  260MOL0     C35011   4.009   4.939   5.006  0.1441 -0.3438 -0.4186
  260MOL0     C35012   4.114   4.984   5.084 -0.5162  0.2579  0.6706
  260MOL0     O35013   4.124   5.196   5.285 -0.0967  0.1507 -0.2569
  260MOL0     C35014   4.296   5.339   5.434  0.7249  0.3991 -0.0389
  260MOL0     C35015   4.385   5.412   5.516 -0.0709 -0.8751 -0.9549
  260MOL0     N35016   5.124   5.669   5.787 -0.1120  0.0579 -0.9557
  260MOL0     N35017   5.184   5.787   5.774  0.4179 -0.1425  0.2032
  260MOL0     C35018   5.984   6.022   4.886  0.0537 -0.1906  0.2078
  260MOL0     C35019   6.105   6.060   4.819  0.3207 -0.1603 -0.9151
  260MOL0     C35020   6.446   6.141   4.549  0.6100  0.0259 -0.0514
  260MOL0     C35021   6.418   6.172   4.414  0.3612 -0.0972 -0.5193
  260MOL0     C35022   6.519   6.185   4.321 -0.1760 -0.1674 -0.1987
  260MOL0     C35023   6.651   6.177   4.362  0.1440  0.4296 -0.3438
  260MOL0     O35024   6.746   6.187   4.267  0.4204  0.5906 -0.1588
  260MOL0     C35025   6.864   6.105   4.283 -0.7379 -0.1528  0.1152
  260MOL0     C35026   6.893   6.040   4.151  1.0512 -0.9825  0.6185
  260MOL0     C35027   6.891   6.143   4.040 -0.9037 -0.9363 -0.2518
  260MOL0     C35028   6.926   6.071   3.907 -0.1410  0.3465 -0.4778
  260MOL0     C35029   6.938   6.171   3.796  0.2874  0.5625 -0.3748
  260MOL0     C35030   6.970   6.247   3.710 -0.9452  0.3737 -0.0763
  260MOL0     C35031   6.679   6.153   4.497 -0.5088 -0.0577  0.2996
  260MOL0     C35032   6.579   6.141   4.594  0.0900  1.3359  0.7114
  260MOL0     H35033   6.003   6.006   4.500  0.0955  1.3182 -0.0852
  260MOL0     H35034   5.800   5.925   4.625 -0.1295  1.2200  1.2284
  260MOL0     H35035   5.819   5.877   5.035  2.2903  2.7664 -0.6854
  260MOL0     H35036   5.751   6.039   5.038 -2.3165  0.3981 -0.3893
  260MOL0     H35037   5.534   5.939   4.975  0.1679  0.6606  0.6950
  260MOL0     H35038   5.599   5.784   5.016  2.4870 -0.1758  0.7608
  260MOL0     H35039   5.656   5.851   5.243  1.3850  0.7658 -1.2615
  260MOL0     H35040   5.616   6.019   5.216 -0.7435  1.0987 -0.7202
  260MOL0     H35041   5.387   5.975   5.192 -1.0398  0.1424  1.9716
  260MOL0     H35042   5.407   5.796   5.212 -0.2546  0.6880 -0.7800
  260MOL0     H35043   5.471   5.818   5.441 -0.0409 -0.9863 -1.4314
  260MOL0     H35044   5.481   5.995   5.421  1.7436 -0.2914 -2.0376
  260MOL0     H35045   5.226   5.974   5.348 -1.4222 -0.1821  0.3891
  260MOL0     H35046   5.235   5.815   5.423  1.0656 -0.4292 -0.2822
  260MOL0     H35047   5.360   5.931   5.625  0.1126 -0.1847 -0.6758
  260MOL0     H35048   5.330   6.081   5.547  0.8357 -1.0556 -1.2507
  260MOL0     H35049   5.074   6.029   5.558  2.5540  0.8264 -0.2613
  260MOL0     H35050   5.151   6.055   5.715  5.0908 -1.8278  1.1062
  260MOL0     H35051   4.925   5.806   5.572  0.9146  1.5125 -0.2197
  260MOL0     H35052   4.880   5.571   5.581 -0.7115  0.7536  0.3809
  260MOL0     H35053   4.965   5.456   5.684  0.6824  0.7752  2.4152
  260MOL0     H35054   4.729   5.621   5.771 -1.0363  0.6433  1.2677
  260MOL0     H35055   4.859   5.578   5.890  1.5406 -3.0199 -0.2089
  260MOL0     H35056   4.663   5.433   5.884 -0.5690 -0.9585 -0.1078
  260MOL0     H35057   4.815   5.350   5.857  0.0574  0.4022  1.2285
  260MOL0     H35058   4.637   5.263   5.711 -0.7679  0.0916 -1.9364
  260MOL0     H35059   4.775   5.311   5.623 -0.2703 -1.2951  1.3321
  260MOL0     H35060   4.664   5.247   5.431 -0.4275 -0.2032  2.2187
  260MOL0     H35061   4.488   5.054   5.203  0.7238 -1.2813  2.1029
  260MOL0     H35062   4.585   5.180   5.131 -0.0693 -0.5836 -0.4048
  260MOL0     H35063   4.646   5.089   5.275  0.0547 -0.1840  0.8456
  260MOL0     H35064   4.217   5.240   4.876 -0.0433  0.3448  0.5008
  260MOL0     H35065   4.032   5.171   4.756 -2.0433  0.1841  0.2196
  260MOL0     H35066   3.762   5.148   4.828  1.6963 -2.0284  1.4053
  260MOL0     H35067   3.820   5.109   4.667  0.6185  1.0417  1.1251
  260MOL0     H35068   3.568   5.049   4.703 -0.0276  0.5357  2.8570
  260MOL0     H35069   3.676   4.942   4.615  0.0992  2.0878 -0.4007
  260MOL0     H35070   3.635   4.899   4.906  3.3303  1.3076 -1.3193
  260MOL0     H35071   3.665   4.783   4.774 -0.1687  0.3428 -2.0582
  260MOL0     H35072   3.410   4.952   4.827 -2.4055 -0.0169 -1.2548
  260MOL0     H35073   3.424   4.851   4.683  1.1478  0.8173 -0.9901
  260MOL0     H35074   3.446   4.756   4.974  2.9642  0.3590 -0.5617
  260MOL0     H35075   3.442   4.653   4.823  2.7483  1.5954 -0.2810
  260MOL0     H35076   3.203   4.833   4.858 -1.6225 -1.1416  0.7187
  260MOL0     H35077   3.223   4.684   4.769  1.4975 -0.1085 -0.9883
  260MOL0     H35078   3.199   4.559   4.958  1.2151  0.4916 -2.3752
  260MOL0     H35079   3.070   4.670   4.958  0.1798  0.6531 -0.8266
  260MOL0     H35080   3.305   4.739   5.136  0.8003 -0.9878 -0.6895
  260MOL0     H35081   3.158   4.672   5.192  3.3841  0.5028  1.1603
  260MOL0     H35082   3.942   4.860   5.038 -1.5903  0.9289 -0.7456
  260MOL0     H35083   4.151   4.939   5.176  0.6399  1.7512  0.9727
  260MOL0     H35084   4.193   5.366   5.453  0.0597  0.7463 -3.5416
  260MOL0     H35085   4.349   5.478   5.594 -1.0185 -1.3189 -1.0090
  260MOL0     H35086   5.980   6.019   4.994 -0.9681 -1.0243  0.1520
  260MOL0     H35087   6.181   6.096   4.888 -2.3211  1.2585  1.4894
  260MOL0     H35088   6.316   6.172   4.378  0.6968  1.0963 -1.5395
  260MOL0     H35089   6.498   6.215   4.219 -0.5831 -1.4627 -0.5129
  260MOL0     H35090   6.946   6.176   4.301  0.0611 -0.4774 -1.9871
  260MOL0     H35091   6.860   6.022   4.354 -0.5750 -1.6878 -1.5718
  260MOL0     H35092   6.811   5.970   4.134  0.3849 -0.2911  0.9041
  260MOL0     H35093   6.992   5.995   4.158  1.7490  0.3749 -0.1644
  260MOL0     H35094   6.960   6.227   4.053  2.2366 -2.7492 -3.5404
  260MOL0     H35095   6.790   6.183   4.029 -1.0625 -0.4584  2.2920
  260MOL0     H35096   6.850   5.995   3.888 -1.4055  0.4190  3.4812
  260MOL0     H35097   7.022   6.020   3.911  0.1980  0.9228 -0.9532
  260MOL0     H35098   6.995   6.306   3.624 -1.2418  1.2334  0.4157
  260MOL0     H35099   6.781   6.152   4.535 -0.8362  1.3726  1.3043
  260MOL0     H35100   6.607   6.109   4.694  0.5357 -1.7052 -0.3002
  261MOL0     O35101   3.234   2.383   4.347 -0.1147  0.2015 -0.2541
  261MOL0     C35102   3.309   2.323   4.435  0.4756 -0.2741  0.4412
  261MOL0     O35103   3.270   2.244   4.534 -0.0699  0.0826  0.3766
  261MOL0     C35104   3.140   2.233   4.571  0.5410  0.3707  0.2130
  261MOL0     C35105   3.051   2.342   4.570 -0.1253 -0.4134  0.4155
  261MOL0     C35106   2.921   2.332   4.621  0.4634  0.6359  0.7398
  261MOL0     C35107   2.872   2.207   4.654  0.1203  0.6767  0.4329
  261MOL0     O35108   2.734   2.200   4.678  1.2143 -0.3225 -0.3320
  261MOL0     C35109   2.682   2.071   4.693 -0.1080 -0.7920  0.3428
  261MOL0     C35110   2.536   2.072   4.704  0.2145  0.4479  0.0187
  261MOL0     C35111   2.479   2.094   4.558  0.9237 -0.9444  0.0679
  261MOL0     C35112   2.324   2.125   4.576 -0.5736 -0.3909 -0.1944
  261MOL0     C35113   2.273   2.172   4.436  0.5186  0.1591  0.0940
  261MOL0     C35114   2.122   2.196   4.455 -0.1497  0.1268 -0.1703
  261MOL0     C35115   2.058   2.227   4.317 -0.4365  0.8281  0.3857
  261MOL0     C35116   1.917   2.296   4.330 -0.2952 -0.1131 -0.3821
  261MOL0     N35117   1.801   2.210   4.361  0.4278  0.8611  0.7573
  261MOL0     C35118   1.774   2.145   4.478  0.5056  0.1000  0.4724
  261MOL0     C35119   1.672   2.060   4.450  0.5249 -0.4520 -0.6294
  261MOL0     C35120   1.630   1.966   4.558 -0.3533 -0.1378  0.8629
  261MOL0     C35121   1.485   1.916   4.533  0.2558 -0.0672 -0.2753
  261MOL0     C35122   1.447   1.833   4.660 -0.6195  0.2720 -0.2485
  261MOL0     C35123   1.301   1.774   4.648  0.4024  0.3080  0.2220
  261MOL0     O35124   1.284   1.683   4.541  0.1586 -0.2012 -0.2131
  261MOL0     C35125   1.160   1.661   4.495 -0.1812 -0.4209 -0.2439
  261MOL0     C35126   1.148   1.600   4.369 -0.5839 -0.0222 -0.1151
  261MOL0     C35127   1.021   1.568   4.312  0.3505  0.7387  0.0439
  261MOL0     C35128   1.011   1.502   4.182 -0.0626 -0.0543  1.1079
  261MOL0     C35129   0.902   1.593   4.386 -0.3794  0.8523  0.2320
  261MOL0     C35130   0.761   1.559   4.347  0.3644  1.0951  0.1113
  261MOL0     O35131   0.660   1.575   4.440 -0.4060 -0.1342  0.5280
  261MOL0     C35132   0.527   1.567   4.407  0.5706  0.6361  0.7095
  261MOL0     C35133   0.469   1.600   4.286  0.0033  0.0562 -1.3113
  261MOL0     C35134   0.332   1.603   4.275  0.6232 -0.1741 -0.5190
  261MOL0     C35135   0.244   1.562   4.375  0.4069  1.0619 -0.0134
  261MOL0     O35136   0.115   1.575   4.339 -0.1588  0.0327 -0.8901
  261MOL0     C35137   0.015   1.517   4.417 -0.3480  0.1399  0.3105
  261MOL0     C35138  -0.119   1.558   4.365 -0.0756  0.1087 -0.4395
  261MOL0     C35139  -0.169   1.489   4.229  0.5607  0.6650  0.5536
  261MOL0     C35140  -0.322   1.498   4.209  0.4611 -0.1463 -0.3703
  261MOL0     C35141  -0.406   1.375   4.259  0.7130 -0.3108 -0.3518
  261MOL0     C35142  -0.549   1.401   4.205  0.2125  0.4830  0.1761
  261MOL0     C35143  -0.653   1.347   4.300 -0.3212 -0.2982 -0.2104
  261MOL0     C35144  -0.798   1.352   4.246 -0.0802  0.3200 -0.4299
  261MOL0    Cl35145  -0.824   1.253   4.102 -0.1279  0.6035  0.2165
  261MOL0     C35146   0.299   1.513   4.491 -0.2601 -0.0772  0.8369
  261MOL0     C35147   0.434   1.525   4.507  0.3905 -0.0304 -0.0597
  261MOL0     O35148   0.739   1.531   4.227  0.6982 -0.2743 -0.0534
  261MOL0     C35149   0.917   1.647   4.520  0.3422  1.0228  0.1322
  261MOL0     C35150   1.041   1.682   4.570 -0.1914  0.3029 -0.2450
  261MOL0     N35151   1.636   2.075   4.319  0.1221  0.6845 -0.5254
  261MOL0     N35152   1.710   2.160   4.268 -0.9298 -0.8088 -0.4950
  261MOL0     C35153   2.964   2.094   4.642  0.3525 -0.1587 -0.3839
  261MOL0     C35154   3.096   2.109   4.611  0.2497  0.2741  0.2237
  261MOL0     C35155   3.456   2.333   4.408  0.1345  0.5671 -0.0650
  261MOL0     C35156   3.543   2.296   4.511  0.3669  0.2572  0.2112
  261MOL0     C35157   3.684   2.276   4.484 -0.3912 -0.4227  0.5910
  261MOL0     C35158   3.732   2.305   4.360  0.1440 -0.2237  0.9434
  261MOL0     O35159   3.865   2.297   4.324  0.6412 -0.1041 -0.2030
  261MOL0     C35160   3.931   2.183   4.375 -0.4968  0.0104 -0.7854
  261MOL0     C35161   4.071   2.171   4.311  0.3576 -0.0170 -0.4576
  261MOL0     C35162   4.171   2.293   4.336 -0.5610 -0.1238  0.1387
  261MOL0     C35163   4.139   2.409   4.236 -0.3306  0.3604 -1.0252
  261MOL0     C35164   4.227   2.526   4.282 -0.3685 -1.2280  0.1045
  261MOL0     C35165   4.289   2.626   4.309 -0.1074  0.0210 -0.4015
  261MOL0     C35166   3.644   2.340   4.253  0.2458  0.4681  0.0022
  261MOL0     C35167   3.500   2.350   4.277 -0.5081 -0.1837  0.7636
  261MOL0     H35168   3.092   2.435   4.532 -1.8682 -0.0766 -0.7316
  261MOL0     H35169   2.859   2.421   4.624  1.5348  1.4371  0.0493
  261MOL0     H35170   2.708   2.023   4.598 -0.8209 -1.1422  0.3183
  261MOL0     H35171   2.730   2.038   4.785  0.7128  1.3754  0.7525
  261MOL0     H35172   2.493   1.973   4.726  0.7802 -0.4693 -2.6038
  261MOL0     H35173   2.503   2.150   4.773 -1.1201  0.2273 -0.3396
  261MOL0     H35174   2.528   2.179   4.510  1.1532 -0.4267  1.1836
  261MOL0     H35175   2.497   2.014   4.486  0.1377  0.4620 -1.7675
  261MOL0     H35176   2.275   2.038   4.621 -3.0080 -0.8819 -3.4378
  261MOL0     H35177   2.324   2.210   4.646  0.8519 -2.1129  2.0535
  261MOL0     H35178   2.325   2.263   4.404  1.0024 -0.5241 -1.1530
  261MOL0     H35179   2.283   2.098   4.355 -1.4475 -1.5563  1.3214
  261MOL0     H35180   2.076   2.106   4.498 -1.7280  0.2593 -1.4920
  261MOL0     H35181   2.091   2.281   4.516 -1.6041  0.6580 -1.5770
  261MOL0     H35182   2.133   2.286   4.263  2.8452 -2.6402  0.7255
  261MOL0     H35183   2.044   2.133   4.262  1.1730  1.0033 -0.3894
  261MOL0     H35184   1.898   2.342   4.232  2.2540  0.0599 -0.8741
  261MOL0     H35185   1.915   2.371   4.409  1.2151 -1.0142  0.5519
  261MOL0     H35186   1.823   2.147   4.575 -0.2227  0.7580  0.8309
  261MOL0     H35187   1.692   1.875   4.554 -0.1277  0.0120  0.9220
  261MOL0     H35188   1.641   2.003   4.660  0.5004 -0.0315  0.7426
  261MOL0     H35189   1.470   1.855   4.443 -0.1797 -0.2158 -0.1035
  261MOL0     H35190   1.422   2.006   4.530  1.2719  0.6325 -1.6281
  261MOL0     H35191   1.441   1.898   4.748 -0.7255 -1.6134  1.1798
  261MOL0     H35192   1.520   1.754   4.680  0.8370  2.1025  2.1710
  261MOL0     H35193   1.234   1.859   4.630  0.8538  1.0171  1.7275
  261MOL0     H35194   1.275   1.729   4.744  2.0590 -0.6055  0.2711
  261MOL0     H35195   1.240   1.597   4.310 -0.6936  2.7624 -0.5992
  261MOL0     H35196   0.957   1.408   4.193  0.7063 -0.8190 -1.0226
  261MOL0     H35197   0.954   1.566   4.113 -0.8529  0.9059  2.6150
  261MOL0     H35198   1.107   1.479   4.135 -0.4380 -0.3946  0.4878
  261MOL0     H35199   0.530   1.642   4.207  0.5698  0.5439 -0.6269
  261MOL0     H35200   0.286   1.642   4.185 -1.0124 -0.3053  0.2218
  261MOL0     H35201   0.025   1.408   4.411 -1.5932  0.0209  0.1648
  261MOL0     H35202   0.022   1.547   4.522  2.6311  2.7743 -0.4855
  261MOL0     H35203  -0.188   1.538   4.447  1.2069  0.6099  0.8009
  261MOL0     H35204  -0.126   1.666   4.348 -2.3631 -0.0776 -0.9653
  261MOL0     H35205  -0.149   1.382   4.228 -0.0776  0.5434  0.1415
  261MOL0     H35206  -0.121   1.534   4.142 -1.1745 -0.3671 -1.0059
  261MOL0     H35207  -0.349   1.584   4.270  2.0753  0.0950  0.0359
  261MOL0     H35208  -0.361   1.521   4.109 -3.2494  1.8319  1.3137
  261MOL0     H35209  -0.401   1.375   4.368  0.3083  0.9327 -0.3254
  261MOL0     H35210  -0.370   1.281   4.217  1.8266  0.1025 -0.3682
  261MOL0     H35211  -0.563   1.508   4.188  0.9587  0.3049 -1.8963
  261MOL0     H35212  -0.564   1.351   4.109 -1.5330  1.3251 -0.0379
  261MOL0     H35213  -0.647   1.410   4.390 -1.4681  0.4682 -0.6547
  261MOL0     H35214  -0.631   1.243   4.325 -0.9047  0.3870  3.9471
  261MOL0     H35215  -0.807   1.459   4.224  1.3506  1.2618  2.9518
  261MOL0     H35216  -0.870   1.338   4.327  0.4302 -1.4049 -0.2375
  261MOL0     H35217   0.230   1.475   4.566 -1.7179 -0.8269 -0.7977
  261MOL0     H35218   0.475   1.488   4.600 -0.4288 -1.5436 -0.2615
  261MOL0     H35219   0.831   1.669   4.583  0.5376  1.8563  0.1215
  261MOL0     H35220   1.050   1.731   4.666  1.8161  1.2664 -0.8686
  261MOL0     H35221   2.945   1.988   4.657  0.1356 -0.1149 -0.3377
  261MOL0     H35222   3.149   2.014   4.610 -0.1375  0.0561  0.1512
  261MOL0     H35223   3.503   2.284   4.611 -1.4179  2.2423 -0.1886
  261MOL0     H35224   3.754   2.238   4.557  0.8470  1.2616  0.3463
  261MOL0     H35225   3.944   2.181   4.484 -1.8217 -1.8136 -0.6078
  261MOL0     H35226   3.876   2.089   4.364 -0.6852  0.0551 -0.2313
  261MOL0     H35227   4.059   2.171   4.202 -1.5254  0.7631 -0.2892
  261MOL0     H35228   4.116   2.074   4.334 -1.6716 -0.7498  0.6861
  261MOL0     H35229   4.277   2.265   4.328 -0.7791 -0.9265  0.0008
  261MOL0     H35230   4.162   2.332   4.438 -0.8062 -2.3646  1.0333
  261MOL0     H35231   4.035   2.443   4.239 -0.4683 -0.1130 -0.2868
  261MOL0     H35232   4.168   2.382   4.134 -1.0220 -1.1113 -0.8522
  261MOL0     H35233   4.352   2.711   4.326  0.5286 -0.9252  2.6003
  261MOL0     H35234   3.688   2.372   4.160 -0.5702 -0.1607 -0.6133
  261MOL0     H35235   3.441   2.378   4.190  1.2790  0.7279 -0.2063
  262MOL0     O35236   2.288   6.035   7.854  0.2442 -0.2277 -0.1443
  262MOL0     C35237   2.356   5.995   7.757  0.6601 -0.9463 -0.9234
  262MOL0     O35238   2.340   6.034   7.630 -0.4197 -0.2315 -0.1073
  262MOL0     C35239   2.254   6.146   7.611 -0.2161 -0.6478 -0.8884
  262MOL0     C35240   2.108   6.149   7.607 -0.7755  0.7150  0.2223
  262MOL0     C35241   2.037   6.262   7.569  0.0783  0.8951 -0.5393
  262MOL0     C35242   2.097   6.381   7.530  0.0810 -0.5476 -0.4528
  262MOL0     O35243   2.030   6.503   7.498 -0.7767  0.2221  0.5827
  262MOL0     C35244   1.914   6.535   7.569 -0.1563 -0.1865 -0.6739
  262MOL0     C35245   1.793   6.485   7.489 -0.5697  0.1292 -0.6165
  262MOL0     C35246   1.673   6.586   7.494 -0.8985  0.2411  0.5812
  262MOL0     C35247   1.570   6.531   7.396 -0.7471  1.0684 -0.3689
  262MOL0     C35248   1.433   6.597   7.419 -0.2060 -0.6356 -0.0555
  262MOL0     C35249   1.322   6.501   7.359  0.8405 -0.2803 -0.1700
  262MOL0     C35250   1.182   6.562   7.375 -0.7743 -0.2753 -0.8920
  262MOL0     C35251   1.144   6.555   7.529  0.1419 -0.8068  0.1243
  262MOL0     N35252   1.015   6.631   7.554 -0.0863 -0.0582 -0.2327
  262MOL0     C35253   0.888   6.593   7.499 -0.4129 -0.5462 -1.5030
  262MOL0     C35254   0.808   6.697   7.523  0.2674 -0.2158 -0.0302
  262MOL0     C35255   0.654   6.705   7.480  0.0038  0.5445 -0.3525
  262MOL0     C35256   0.559   6.609   7.557  0.2997 -0.3333  0.0309
  262MOL0     C35257   0.417   6.643   7.504  0.6854 -0.0750  0.9970
  262MOL0     C35258   0.345   6.760   7.569 -0.1037 -0.7688  1.4358
  262MOL0     O35259   0.371   6.883   7.506  0.1239  0.2623  0.0464
  262MOL0     C35260   0.322   6.913   7.383 -1.4483  0.4399  0.2668
  262MOL0     C35261   0.408   6.993   7.302 -0.6161 -0.1295 -0.1833
  262MOL0     C35262   0.361   7.035   7.179  0.4196  1.6814  0.4365
  262MOL0     C35263   0.453   7.104   7.085 -0.6476 -0.9963  0.6832
  262MOL0     C35264   0.234   6.994   7.140  0.0061 -0.1435  0.7290
  262MOL0     C35265   0.183   7.044   7.008 -0.4668 -0.1121 -0.2684
  262MOL0     O35266   0.105   7.156   7.011 -0.3070  0.5041 -0.2465
  262MOL0     C35267   0.032   7.182   6.896 -0.5434  0.2750  0.6445
  262MOL0     C35268   0.096   7.236   6.779  0.2425  0.5601  1.1224
  262MOL0     C35269   0.027   7.274   6.666  0.3156 -0.1589 -0.4401
  262MOL0     C35270  -0.117   7.274   6.672 -0.5044  0.0500  0.0408
  262MOL0     O35271  -0.207   7.325   6.582 -0.5949 -0.5014 -0.3075
  262MOL0     C35272  -0.154   7.372   6.460  0.4522 -0.1526 -0.9484
  262MOL0     C35273  -0.277   7.422   6.380 -0.0960  0.5313 -0.0325
  262MOL0     C35274  -0.379   7.310   6.328 -0.3369 -0.5149 -0.1169
  262MOL0     C35275  -0.482   7.252   6.428 -0.3359 -0.4586  0.9513
  262MOL0     C35276  -0.599   7.185   6.361 -0.4899  0.2089  0.3110
  262MOL0     C35277  -0.702   7.150   6.475 -0.4226  1.1756  1.0811
  262MOL0     C35278  -0.833   7.090   6.414 -1.1835  0.1468 -0.5437
  262MOL0     C35279  -0.928   7.036   6.523  0.3039 -0.0198 -0.0362
  262MOL0    Cl35280  -1.041   6.923   6.458  0.1134  0.3158 -0.2481
  262MOL0     C35281  -0.179   7.212   6.783  0.3949 -0.2827  0.0178
  262MOL0     C35282  -0.106   7.169   6.893  0.6853 -0.1039 -0.5649
  262MOL0     O35283   0.204   6.973   6.913 -1.0153  0.1486 -0.4230
  262MOL0     C35284   0.151   6.919   7.215 -0.3376 -0.5940 -0.0035
  262MOL0     C35285   0.190   6.882   7.340  0.0732  0.4798  0.4776
  262MOL0     N35286   0.884   6.799   7.588 -0.5803 -0.4314 -0.6631
  262MOL0     N35287   1.000   6.761   7.603 -0.0532 -0.2975  0.2204
  262MOL0     C35288   2.231   6.379   7.534 -0.2004 -0.9125  0.7234
  262MOL0     C35289   2.308   6.266   7.570 -0.4598 -0.5439 -0.3242
  262MOL0     C35290   2.473   5.917   7.797  0.1689 -0.2402  0.3208
  262MOL0     C35291   2.570   5.880   7.696  0.1118 -0.4718  0.2506
  262MOL0     C35292   2.694   5.819   7.742  0.0395  0.1555  0.7523
  262MOL0     C35293   2.719   5.783   7.872  0.7664 -0.7005 -1.3573
  262MOL0     O35294   2.833   5.717   7.897 -0.4908  0.6016 -1.0791
  262MOL0     C35295   2.867   5.676   8.034  0.1719 -0.2829 -0.6852
  262MOL0     C35296   3.016   5.648   8.043  0.4429 -0.2244  0.3378
  262MOL0     C35297   3.067   5.524   7.971  1.6781 -0.3138  0.3849
  262MOL0     C35298   3.211   5.501   8.005  0.3860  0.1648  0.2463
  262MOL0     C35299   3.265   5.397   7.920  0.1858 -0.5436 -0.8785
  262MOL0     C35300   3.302   5.322   7.834  0.0610  0.4776  0.2477
  262MOL0     C35301   2.609   5.801   7.971 -0.3066  0.0729 -0.2287
  262MOL0     C35302   2.491   5.867   7.928 -0.4017 -0.5677  0.1124
  262MOL0     H35303   2.055   6.057   7.628  0.9037 -0.7950 -1.6247
  262MOL0     H35304   1.929   6.251   7.562  0.2923 -1.3154 -0.9796
  262MOL0     H35305   1.910   6.488   7.667 -1.5532  0.7270 -0.2577
  262MOL0     H35306   1.916   6.643   7.579 -2.1455 -0.0387 -1.3280
  262MOL0     H35307   1.814   6.480   7.382  0.9363 -2.3280 -0.2971
  262MOL0     H35308   1.755   6.388   7.522 -3.3864  1.7758  1.3933
  262MOL0     H35309   1.625   6.583   7.592 -2.6971 -5.3282 -0.1174
  262MOL0     H35310   1.719   6.681   7.467  1.4188 -1.1626 -0.7544
  262MOL0     H35311   1.596   6.552   7.292 -0.0383 -0.9149 -0.6438
  262MOL0     H35312   1.565   6.422   7.409  0.7943  0.9590 -0.4603
  262MOL0     H35313   1.417   6.603   7.527  3.5102  1.2454  0.5583
  262MOL0     H35314   1.428   6.695   7.372 -2.2267 -0.4965  0.3706
  262MOL0     H35315   1.332   6.500   7.250 -0.7604  2.6074 -0.4517
  262MOL0     H35316   1.326   6.409   7.418 -3.2024  0.3419  1.3772
  262MOL0     H35317   1.195   6.662   7.331  2.7858 -0.5003 -0.6811
  262MOL0     H35318   1.104   6.505   7.324 -1.0883 -1.2919  0.6455
  262MOL0     H35319   1.217   6.610   7.589 -2.2584  1.4568  1.1803
  262MOL0     H35320   1.124   6.452   7.561 -1.4034 -0.9939 -1.2995
  262MOL0     H35321   0.867   6.499   7.450  2.2192 -2.3865  0.5718
  262MOL0     H35322   0.619   6.806   7.504  2.9982  1.1432  2.0842
  262MOL0     H35323   0.656   6.687   7.372  1.8886 -0.6029 -0.1734
  262MOL0     H35324   0.581   6.632   7.662  4.2330  0.4132 -0.7778
  262MOL0     H35325   0.587   6.507   7.530 -0.9656 -0.8141  0.4815
  262MOL0     H35326   0.356   6.554   7.518 -0.9581  0.9541  0.6612
  262MOL0     H35327   0.422   6.674   7.399 -0.0284 -0.5721  0.8116
  262MOL0     H35328   0.392   6.776   7.666 -0.8434  1.0328  1.5388
  262MOL0     H35329   0.237   6.749   7.580 -0.5662  1.0226 -0.6414
  262MOL0     H35330   0.509   7.009   7.340  0.1673  0.6013 -2.3934
  262MOL0     H35331   0.431   7.122   6.980 -2.6630 -0.8548  1.0904
  262MOL0     H35332   0.481   7.201   7.127 -0.4529 -0.4976 -0.5717
  262MOL0     H35333   0.541   7.041   7.068  1.3987  1.7188  0.5206
  262MOL0     H35334   0.204   7.238   6.772  0.1613 -0.7543 -3.1938
  262MOL0     H35335   0.081   7.314   6.581 -0.8230 -0.6970 -1.4457
  262MOL0     H35336  -0.084   7.454   6.481  0.1615  0.2069 -1.3720
  262MOL0     H35337  -0.105   7.296   6.399 -0.8028 -0.9331 -1.0033
  262MOL0     H35338  -0.328   7.501   6.437 -1.6207  2.2531 -3.4812
  262MOL0     H35339  -0.245   7.474   6.290  1.4718 -3.2561 -1.8698
  262MOL0     H35340  -0.312   7.231   6.294 -1.6090 -0.6205 -2.6279
  262MOL0     H35341  -0.429   7.348   6.238  1.2800  1.3254 -0.3183
  262MOL0     H35342  -0.430   7.182   6.494  0.0122 -1.4831 -0.3585
  262MOL0     H35343  -0.517   7.334   6.490 -0.1641 -1.1994  2.0556
  262MOL0     H35344  -0.571   7.104   6.292 -1.9570  0.4116 -0.5626
  262MOL0     H35345  -0.658   7.246   6.291 -2.0227 -1.1250  0.3868
  262MOL0     H35346  -0.651   7.070   6.530 -0.0237 -0.0133 -0.9478
  262MOL0     H35347  -0.720   7.238   6.537  3.7245  2.4597  0.7636
  262MOL0     H35348  -0.812   7.011   6.341  0.2551 -0.7536  0.7896
  262MOL0     H35349  -0.874   7.165   6.345 -1.6708  0.7682  0.4092
  262MOL0     H35350  -0.974   7.118   6.580  0.2544 -0.1953  0.1786
  262MOL0     H35351  -0.865   6.977   6.591  1.3867  1.2018  0.0729
  262MOL0     H35352  -0.287   7.218   6.788  0.4196 -0.9348  2.5688
  262MOL0     H35353  -0.157   7.132   6.981  1.5083 -0.8279 -0.3779
  262MOL0     H35354   0.054   6.890   7.177  0.6450  0.0757 -3.3615
  262MOL0     H35355   0.116   6.843   7.409  0.4115  0.5595  0.8906
  262MOL0     H35356   2.268   6.477   7.504  0.6703 -2.0143 -2.1242
  262MOL0     H35357   2.416   6.265   7.582 -0.6883 -2.7314  2.6995
  262MOL0     H35358   2.553   5.917   7.596 -1.4839  0.0158  0.6724
  262MOL0     H35359   2.749   5.787   7.654 -0.1298  2.5940 -0.3247
  262MOL0     H35360   2.841   5.758   8.102  1.1448 -0.9476  0.5125
  262MOL0     H35361   2.811   5.589   8.071 -0.9100  1.1493  1.2272
  262MOL0     H35362   3.034   5.631   8.150 -3.1581  0.0182  1.0957
  262MOL0     H35363   3.076   5.733   8.008  0.1430 -0.3882 -0.5929
  262MOL0     H35364   3.061   5.551   7.865 -0.1182  0.4777  0.6535
  262MOL0     H35365   3.003   5.437   7.990 -1.6637  1.9934  0.7185
  262MOL0     H35366   3.218   5.476   8.112 -0.0371 -2.0409 -0.1837
  262MOL0     H35367   3.263   5.597   8.000  0.7290  0.0923  1.7501
  262MOL0     H35368   3.326   5.245   7.764  1.4867  0.2315  0.9685
  262MOL0     H35369   2.614   5.749   8.067  0.3695  0.3989 -0.0811
  262MOL0     H35370   2.417   5.882   8.006 -0.4498  1.6112 -0.2986
  263MOL0     O35371   4.532  10.363   8.635  0.0189  0.0002 -0.4138
  263MOL0     C35372   4.548  10.467   8.695 -0.5158 -0.8953 -0.4970
  263MOL0     O35373   4.453  10.565   8.713 -0.8306 -0.5751  0.3563
  263MOL0     C35374   4.321  10.541   8.677 -0.1234  0.2305 -0.5250
  263MOL0     C35375   4.272  10.491   8.556 -0.1063 -0.1167  0.1236
  263MOL0     C35376   4.134  10.498   8.544 -0.0203 -0.7668  0.2935
  263MOL0     C35377   4.038  10.547   8.633 -0.7969  0.2600  0.7355
  263MOL0     O35378   3.907  10.531   8.593 -0.1720 -0.2982  0.3720
  263MOL0     C35379   3.819  10.504   8.696 -0.2408  0.0334  0.2715
  263MOL0     C35380   3.688  10.466   8.641 -0.4294  0.2479 -0.8083
  263MOL0     C35381   3.582  10.485   8.747 -0.1935  0.5776  0.1887
  263MOL0     C35382   3.448  10.443   8.696 -0.0055  0.0656 -0.3598
  263MOL0     C35383   3.371  10.422   8.816  0.9840 -0.8176  0.1540
  263MOL0     C35384   3.226  10.390   8.791  0.7466 -0.3165  0.7996
  263MOL0     C35385   3.163  10.342   8.921  0.1551 -0.6589 -0.3508
  263MOL0     C35386   3.027  10.287   8.896  0.3488 -0.1124 -0.4467
  263MOL0     N35387   2.923  10.383   8.841  0.1665  0.0853 -0.0173
  263MOL0     C35388   2.893  10.514   8.890  0.5646 -0.2910  0.3194
  263MOL0     C35389   2.811  10.568   8.803 -0.1472 -0.1679  0.4578
  263MOL0     C35390   2.759  10.715   8.802  0.4056  0.1113 -0.1580
  263MOL0     C35391   2.612  10.740   8.764  0.0271  0.2862 -0.6724
  263MOL0     C35392   2.517  10.678   8.874 -0.2335 -0.3122  0.1659
  263MOL0     C35393   2.371  10.724   8.866  0.4417  0.9203  0.5950
  263MOL0     O35394   2.285  10.617   8.914 -0.4490  0.5549  0.0645
  263MOL0     C35395   2.148  10.631   8.905  0.0544  0.1681  0.1491
  263MOL0     C35396   2.068  10.515   8.900 -0.1424 -0.2325 -0.0530
  263MOL0     C35397   1.928  10.506   8.879  0.1093 -0.5008 -0.3398
  263MOL0     C35398   1.854  10.385   8.853 -0.6700  0.2436  0.5669
  263MOL0     C35399   1.860  10.634   8.859 -0.6667  0.7340  0.3304
  263MOL0     C35400   1.718  10.634   8.827  0.0050 -0.0824 -0.1236
  263MOL0     O35401   1.634  10.584   8.924 -0.2895  0.1437  0.1836
  263MOL0     C35402   1.498  10.580   8.895  0.0709 -0.6554 -0.1520
  263MOL0     C35403   1.408  10.665   8.953 -1.2232  0.6320 -0.8402
  263MOL0     C35404   1.271  10.635   8.943  0.1228 -0.2599 -0.6233
  263MOL0     C35405   1.217  10.527   8.868 -0.3594 -0.2009 -0.5212
  263MOL0     O35406   1.085  10.488   8.857  0.1125 -0.1505  0.3374
  263MOL0     C35407   0.982  10.568   8.913  0.1418  0.7296 -0.5392
  263MOL0     C35408   0.854  10.543   8.831  0.1398  0.5960  0.1893
  263MOL0     C35409   0.739  10.640   8.868 -0.2726  0.1792  0.0603
  263MOL0     C35410   0.604  10.594   8.814  0.7043  0.2735  0.2252
  263MOL0     C35411   0.491  10.688   8.841  0.0911  0.2269  0.7444
  263MOL0     C35412   0.353  10.631   8.810  0.0839 -0.2867  0.0723
  263MOL0     C35413   0.235  10.706   8.859 -0.2418  0.0793 -0.8426
  263MOL0     C35414   0.105  10.627   8.850  0.8161 -0.3551 -0.3952
  263MOL0    Cl35415  -0.031  10.728   8.913 -0.1550  0.5487  0.1830
  263MOL0     C35416   1.311  10.444   8.815 -0.2265  0.3461  0.5941
  263MOL0     C35417   1.451  10.465   8.825  0.4818 -0.0561 -0.0188
  263MOL0     O35418   1.676  10.692   8.729 -1.0082  0.6188  0.0609
  263MOL0     C35419   1.940  10.751   8.866 -0.5703 -0.6106 -0.1090
  263MOL0     C35420   2.081  10.748   8.879  0.1586  0.3213  0.8925
  263MOL0     N35421   2.795  10.477   8.698 -0.0606 -0.2805  0.3748
  263MOL0     N35422   2.868  10.364   8.721 -0.2574 -0.7839  0.7722
  263MOL0     C35423   4.093  10.585   8.758  0.1993 -0.7410  1.4391
  263MOL0     C35424   4.230  10.586   8.778  0.4195 -0.2680  0.5359
  263MOL0     C35425   4.673  10.483   8.774 -0.4408 -0.5304  0.7522
  263MOL0     C35426   4.701  10.608   8.836 -0.2739  1.0275  0.3035
  263MOL0     C35427   4.823  10.644   8.903  0.4564  0.0281 -0.1676
  263MOL0     C35428   4.919  10.547   8.913  1.3598 -0.8375  0.4865
  263MOL0     O35429   5.033  10.581   8.988 -0.1353  0.4281  1.0612
  263MOL0     C35430   5.083  10.476   9.073  0.1062  0.1287 -0.3111
  263MOL0     C35431   5.207  10.539   9.124  0.0900 -0.1154 -0.4026
  263MOL0     C35432   5.195  10.642   9.239  0.3233  0.2666 -0.5350
  263MOL0     C35433   5.156  10.768   9.171  0.5950  0.2461  0.2946
  263MOL0     C35434   5.159  10.877   9.269  0.4023 -0.4231  0.5379
  263MOL0     C35435   5.166  10.969   9.348  0.7411  0.0016 -0.1094
  263MOL0     C35436   4.901  10.426   8.841  1.1323 -0.5032  0.4641
  263MOL0     C35437   4.781  10.394   8.776 -0.6594  0.6717  0.4117
  263MOL0     H35438   4.329  10.452   8.472  2.3177 -0.2966  1.7271
  263MOL0     H35439   4.103  10.470   8.444 -1.0648  2.2524 -0.3619
  263MOL0     H35440   3.855  10.421   8.756 -0.2170  0.2070  0.4994
  263MOL0     H35441   3.806  10.596   8.754  2.4922 -0.4973  1.9054
  263MOL0     H35442   3.660  10.512   8.546 -1.7830  2.0908  0.4312
  263MOL0     H35443   3.690  10.358   8.621  1.2038  0.5588 -2.5659
  263MOL0     H35444   3.608  10.419   8.831 -1.5427 -2.9742 -1.9497
  263MOL0     H35445   3.586  10.588   8.784 -0.6245  0.9423 -0.7422
  263MOL0     H35446   3.406  10.529   8.643 -0.6239  0.0102  0.0343
  263MOL0     H35447   3.454  10.352   8.635 -0.9260 -0.8861  0.9323
  263MOL0     H35448   3.424  10.340   8.865  3.0634 -0.1056 -0.8142
  263MOL0     H35449   3.376  10.508   8.883  0.8554  0.6627 -1.6516
  263MOL0     H35450   3.173  10.480   8.760  1.2654 -0.2230  0.1495
  263MOL0     H35451   3.223  10.308   8.718 -1.1747 -0.2828  0.8002
  263MOL0     H35452   3.221  10.259   8.963 -1.0532 -1.1970  0.2953
  263MOL0     H35453   3.158  10.431   8.983  1.2247  1.3760 -3.0001
  263MOL0     H35454   2.981  10.250   8.988 -3.2724  2.0167 -1.1583
  263MOL0     H35455   3.028  10.203   8.827 -0.3499  1.4282 -2.4373
  263MOL0     H35456   2.941  10.571   8.969 -0.4155 -2.7882  2.8952
  263MOL0     H35457   2.768  10.751   8.905  1.0068  3.1212 -1.1521
  263MOL0     H35458   2.826  10.778   8.742 -0.7433  1.9162  0.3632
  263MOL0     H35459   2.599  10.702   8.662  0.7951  0.6848 -0.9283
  263MOL0     H35460   2.589  10.847   8.761  0.6515  0.4091 -1.6493
  263MOL0     H35461   2.558  10.718   8.967 -1.5721 -1.5689  1.3500
  263MOL0     H35462   2.529  10.570   8.882 -0.5780 -0.2974  1.0761
  263MOL0     H35463   2.340  10.764   8.769  1.3612  0.1883 -0.0125
  263MOL0     H35464   2.357  10.811   8.932 -2.4037  2.3470 -1.6431
  263MOL0     H35465   2.131  10.426   8.899  2.6358  1.6187  0.9140
  263MOL0     H35466   1.791  10.365   8.940  1.6466 -1.6722  1.9172
  263MOL0     H35467   1.778  10.391   8.774 -1.8063 -2.4393  1.3388
  263MOL0     H35468   1.915  10.297   8.832 -1.5853 -0.8146  2.1301
  263MOL0     H35469   1.436  10.750   9.015  0.1488  1.5131 -2.5562
  263MOL0     H35470   1.198  10.698   8.992  0.3498  0.1868 -0.8516
  263MOL0     H35471   0.987  10.524   9.013 -1.6395 -0.7524 -1.0636
  263MOL0     H35472   0.998  10.677   8.913 -2.5175  1.3139  2.7911
  263MOL0     H35473   0.875  10.557   8.724 -0.6061  2.1698  0.2113
  263MOL0     H35474   0.819  10.442   8.852 -1.1404  0.9107 -0.3037
  263MOL0     H35475   0.755  10.739   8.824  1.4625  0.4779  1.2847
  263MOL0     H35476   0.727  10.652   8.976 -0.1953  0.6816  0.0162
  263MOL0     H35477   0.609  10.578   8.706  0.1351  0.1740  0.2104
  263MOL0     H35478   0.593  10.493   8.855  0.5089  0.1534 -0.1252
  263MOL0     H35479   0.513  10.787   8.803 -1.2942  1.0535  1.9661
  263MOL0     H35480   0.496  10.705   8.949  2.8007  4.9441  0.1010
  263MOL0     H35481   0.350  10.606   8.704  0.3014 -0.7009  0.1602
  263MOL0     H35482   0.361  10.532   8.857  2.5452  0.2870  1.0380
  263MOL0     H35483   0.241  10.798   8.799  2.1057  1.1060  0.8436
  263MOL0     H35484   0.251  10.736   8.963  1.0319  0.6266 -1.1746
  263MOL0     H35485   0.112  10.544   8.920  1.0143 -0.3708 -0.4356
  263MOL0     H35486   0.083  10.599   8.747  0.1425  1.4541 -0.7885
  263MOL0     H35487   1.281  10.358   8.756 -0.0968  2.6504 -3.1740
  263MOL0     H35488   1.521  10.390   8.789 -0.4181 -1.3476  0.8464
  263MOL0     H35489   1.879  10.841   8.859 -0.6460 -0.4444  2.0933
  263MOL0     H35490   2.138  10.838   8.864  0.6806 -0.3478 -1.4326
  263MOL0     H35491   4.027  10.607   8.842 -0.7753  0.3386  0.4143
  263MOL0     H35492   4.267  10.634   8.868 -0.9596  0.0915  0.9356
  263MOL0     H35493   4.622  10.681   8.846  0.6199  1.6814  4.2541
  263MOL0     H35494   4.824  10.742   8.949  3.0591 -0.7581  1.6569
  263MOL0     H35495   5.024  10.442   9.159 -0.0908 -1.5798 -1.0701
  263MOL0     H35496   5.108  10.394   9.005  0.3322 -0.0881  0.0233
  263MOL0     H35497   5.268  10.578   9.042 -0.6149  0.7877 -0.5117
  263MOL0     H35498   5.264  10.456   9.168 -0.3536  0.0729  0.5381
  263MOL0     H35499   5.293  10.662   9.284 -0.2686  2.9668 -0.2821
  263MOL0     H35500   5.124  10.596   9.309 -0.3204  1.3411 -0.4685
  263MOL0     H35501   5.054  10.753   9.134  0.4711  1.0126  0.2997
  263MOL0     H35502   5.217  10.807   9.089 -2.1761  1.8130 -1.1587
  263MOL0     H35503   5.159  11.051   9.417  1.2497 -2.1534  2.6985
  263MOL0     H35504   4.986  10.360   8.823  1.2715 -0.0200 -0.7248
  263MOL0     H35505   4.786  10.302   8.718  0.0554  0.6186  0.5498
  264MOL0     O35506   3.058   0.062  11.036  0.0759 -0.2451 -1.3046
  264MOL0     C35507   3.056  -0.007  11.140  0.1443 -0.1264  0.0396
  264MOL0     O35508   2.949  -0.041  11.213  0.1029  0.2460 -0.1591
  264MOL0     C35509   2.821  -0.004  11.186  0.1245  0.3669 -0.1385
  264MOL0     C35510   2.789   0.120  11.138  0.2793 -0.0859 -0.1808
  264MOL0     C35511   2.658   0.163  11.116 -0.7714 -0.4355  0.7733
  264MOL0     C35512   2.555   0.074  11.152  0.2488  0.0052 -0.2385
  264MOL0     O35513   2.424   0.097  11.134  0.3593 -0.0098  0.2155
  264MOL0     C35514   2.357   0.177  11.241 -0.5203 -0.1376  0.6161
  264MOL0     C35515   2.211   0.142  11.232 -0.1293  0.7096  0.1461
  264MOL0     C35516   2.133   0.191  11.353 -0.6003  0.5705  0.9619
  264MOL0     C35517   2.007   0.251  11.313  0.0544  0.0568  0.0834
  264MOL0     C35518   1.928   0.331  11.416 -0.4906 -0.5247 -0.6203
  264MOL0     C35519   1.824   0.410  11.352 -0.2007 -1.0239  0.5381
  264MOL0     C35520   1.734   0.487  11.456 -0.2368  0.1091  0.6736
  264MOL0     C35521   1.637   0.581  11.386  0.5939 -0.4183  0.0684
  264MOL0     N35522   1.559   0.670  11.474  0.1041 -0.7755 -0.3299
  264MOL0     C35523   1.573   0.804  11.498 -0.6173 -0.0009  0.0876
  264MOL0     C35524   1.472   0.831  11.587  0.3611 -0.7721  0.1901
  264MOL0     C35525   1.432   0.977  11.640  0.0177  0.8320  0.6751
  264MOL0     C35526   1.326   0.965  11.756  0.2868  0.3173  0.4258
  264MOL0     C35527   1.239   1.101  11.774 -0.0817 -0.2437  0.3249
  264MOL0     C35528   1.127   1.081  11.874 -0.1293  0.4090 -0.6710
  264MOL0     O35529   1.064   1.208  11.890 -0.5315 -0.0987 -0.3906
  264MOL0     C35530   0.945   1.204  11.960  0.2703 -0.4513  0.7319
  264MOL0     C35531   0.843   1.294  11.916 -0.8762  0.3462 -0.0372
  264MOL0     C35532   0.711   1.296  11.968  0.2241  0.1626 -0.7979
  264MOL0     C35533   0.619   1.402  11.913 -0.2100 -0.1583 -0.1537
  264MOL0     C35534   0.680   1.198  12.064 -0.4511 -0.2773  0.0036
  264MOL0     C35535   0.540   1.185  12.116  0.1441 -0.1917 -0.4555
  264MOL0     O35536   0.437   1.269  12.075 -0.1366  0.5329  0.2117
  264MOL0     C35537   0.309   1.245  12.116 -0.0237  0.3762 -0.1739
  264MOL0     C35538   0.244   1.123  12.087 -0.4726 -0.6315 -0.0332
  264MOL0     C35539   0.112   1.093  12.133 -0.2323  0.6764 -0.6286
  264MOL0     C35540   0.037   1.192  12.201  0.1307 -0.0634 -0.0270
  264MOL0     O35541  -0.090   1.181  12.254 -0.4166 -0.6174 -0.7855
  264MOL0     C35542  -0.153   1.063  12.270 -0.1251 -0.2927 -0.6453
  264MOL0     C35543  -0.278   1.085  12.364 -0.4253 -0.1689  0.2306
  264MOL0     C35544  -0.418   1.102  12.285  0.2760 -0.0869  0.8565
  264MOL0     C35545  -0.543   1.079  12.368 -0.2148 -0.5645 -0.5799
  264MOL0     C35546  -0.670   1.054  12.287  0.2984 -0.1258  0.9144
  264MOL0     C35547  -0.794   0.976  12.342 -0.5939  0.0767  0.4821
  264MOL0     C35548  -0.747   0.851  12.420  0.2602 -0.0774  0.4600
  264MOL0     C35549  -0.868   0.790  12.491 -0.5223  0.0191 -0.1261
  264MOL0    Cl35550  -0.843   0.659  12.611 -0.0637 -0.6510  0.1007
  264MOL0     C35551   0.100   1.316  12.220  0.1014  0.7183 -0.1703
  264MOL0     C35552   0.235   1.345  12.182 -0.4054 -0.8891 -0.1681
  264MOL0     O35553   0.526   1.101  12.206  0.1538 -0.2115  0.7556
  264MOL0     C35554   0.785   1.118  12.124  0.1124 -1.0236 -0.8552
  264MOL0     C35555   0.914   1.122  12.068  0.8081  0.3187 -0.3748
  264MOL0     N35556   1.401   0.715  11.614  0.6350  0.2975  0.0259
  264MOL0     N35557   1.451   0.623  11.548 -0.6748  0.1257  0.1654
  264MOL0     C35558   2.587  -0.053  11.195  0.5134 -0.2008 -0.0879
  264MOL0     C35559   2.715  -0.087  11.217 -0.1590  0.1259 -0.9118
  264MOL0     C35560   3.184  -0.062  11.194  0.2148 -0.1442 -0.0661
  264MOL0     C35561   3.303  -0.043  11.133  0.4447 -0.1688  0.2431
  264MOL0     C35562   3.419  -0.103  11.188  0.0512  0.1428 -0.3831
  264MOL0     C35563   3.412  -0.183  11.303  0.1065 -0.2292 -0.3542
  264MOL0     O35564   3.518  -0.240  11.362  0.0474 -0.2427 -0.5348
  264MOL0     C35565   3.654  -0.212  11.329 -0.1202  0.0178  0.5645
  264MOL0     C35566   3.732  -0.335  11.362 -0.4317 -0.3865 -0.5087
  264MOL0     C35567   3.705  -0.464  11.291  0.3639 -0.0721 -0.2546
  264MOL0     C35568   3.775  -0.584  11.358  0.2622 -0.1673  1.0408
  264MOL0     C35569   3.769  -0.704  11.272 -0.6792 -0.6688 -0.5361
  264MOL0     C35570   3.775  -0.796  11.195  0.1265  0.1803  0.0305
  264MOL0     C35571   3.289  -0.206  11.357  1.0671  0.1139  0.3200
  264MOL0     C35572   3.177  -0.141  11.309  0.8504  0.7648  0.2565
  264MOL0     H35573   2.867   0.191  11.111 -0.5841  0.6503 -0.7639
  264MOL0     H35574   2.657   0.262  11.073  1.2635 -1.0620 -0.9203
  264MOL0     H35575   2.397   0.153  11.340 -1.0234  0.2387  0.9148
  264MOL0     H35576   2.379   0.283  11.226 -2.0425  0.3035  1.3245
  264MOL0     H35577   2.171   0.159  11.132  2.4887  0.8252 -0.9793
  264MOL0     H35578   2.219   0.033  11.245  2.8925  0.9170  0.8963
  264MOL0     H35579   2.117   0.098  11.408 -0.5438 -1.1824 -1.7829
  264MOL0     H35580   2.185   0.268  11.410 -0.7917  1.7723 -0.4509
  264MOL0     H35581   2.032   0.309  11.224 -2.4831  0.0258 -0.7335
  264MOL0     H35582   1.940   0.174  11.272 -1.1514  1.2382 -0.2318
  264MOL0     H35583   1.885   0.267  11.493 -0.8413 -0.5128 -0.8023
  264MOL0     H35584   1.995   0.398  11.471 -0.7026  0.0979 -1.1052
  264MOL0     H35585   1.879   0.478  11.286 -1.6198 -1.3243 -1.0469
  264MOL0     H35586   1.753   0.348  11.296 -0.2829 -2.0429  1.7167
  264MOL0     H35587   1.684   0.416  11.521  0.5993  0.1586  1.3891
  264MOL0     H35588   1.799   0.556  11.511 -0.0774  1.0467 -0.6173
  264MOL0     H35589   1.573   0.523  11.320  0.2477  0.3213 -0.2640
  264MOL0     H35590   1.695   0.638  11.312  0.5758 -0.9919 -0.3926
  264MOL0     H35591   1.634   0.875  11.442 -2.5334  0.0497 -2.1049
  264MOL0     H35592   1.523   1.026  11.677  0.0454  1.0724  0.2929
  264MOL0     H35593   1.394   1.033  11.555 -2.2503  0.0201  1.0680
  264MOL0     H35594   1.378   0.929  11.845  1.1902 -1.7962 -0.8704
  264MOL0     H35595   1.262   0.880  11.732  0.1931  0.4751  0.1108
  264MOL0     H35596   1.190   1.131  11.681 -2.1387 -3.0327  0.3750
  264MOL0     H35597   1.312   1.174  11.809  2.4758 -2.0266 -0.8833
  264MOL0     H35598   1.165   1.055  11.973 -0.5324  0.5521 -0.4776
  264MOL0     H35599   1.054   1.007  11.837  2.1373 -1.3549 -1.8925
  264MOL0     H35600   0.867   1.346  11.823 -0.1887 -1.9393 -1.2141
  264MOL0     H35601   0.576   1.480  11.977  0.9114  0.8473 -0.5888
  264MOL0     H35602   0.676   1.466  11.845  1.1968 -0.2561  0.9028
  264MOL0     H35603   0.550   1.351  11.845  0.6437 -0.1635 -1.0440
  264MOL0     H35604   0.302   1.046  12.036 -0.4021 -0.1281 -0.7318
  264MOL0     H35605   0.055   1.001  12.127 -0.1170  0.3945  1.7126
  264MOL0     H35606  -0.179   1.027  12.171  0.8123  0.8029 -1.3185
  264MOL0     H35607  -0.097   0.985  12.324  0.3283  0.0541 -0.6043
  264MOL0     H35608  -0.286   1.008  12.442 -0.2594  0.0519  0.4680
  264MOL0     H35609  -0.260   1.171  12.429  3.1095 -2.5491  2.8088
  264MOL0     H35610  -0.430   1.029  12.204  0.1246  1.9881 -1.1216
  264MOL0     H35611  -0.428   1.206  12.250  1.6098 -1.0154 -2.8263
  264MOL0     H35612  -0.523   1.001  12.442  1.0178  1.5679  1.4703
  264MOL0     H35613  -0.560   1.165  12.433  1.0283 -1.9107  1.6581
  264MOL0     H35614  -0.646   0.995  12.198 -0.1009  0.3232  0.5047
  264MOL0     H35615  -0.704   1.151  12.249  0.6087  0.9502  3.1669
  264MOL0     H35616  -0.839   1.047  12.412  0.9672  2.2756 -0.5785
  264MOL0     H35617  -0.877   0.948  12.277 -3.4305  0.1876  3.7976
  264MOL0     H35618  -0.676   0.876  12.500 -0.9301 -1.1663  1.9310
  264MOL0     H35619  -0.705   0.773  12.356 -0.7489 -0.6314  0.4432
  264MOL0     H35620  -0.932   0.753  12.411  1.6288  1.5879 -2.7062
  264MOL0     H35621  -0.920   0.862  12.556  2.1155  0.9255  1.0931
  264MOL0     H35622   0.046   1.383  12.287 -1.3001 -2.8710  2.5962
  264MOL0     H35623   0.292   1.433  12.208 -0.2580 -0.3040 -2.2527
  264MOL0     H35624   0.776   1.058  12.214  1.0203  1.8338  1.3281
  264MOL0     H35625   0.974   1.041  12.106 -1.9964 -1.3638  0.7421
  264MOL0     H35626   2.508  -0.124  11.218 -0.8032  0.7616 -1.4855
  264MOL0     H35627   2.731  -0.191  11.243 -0.2418  0.0886 -1.0087
  264MOL0     H35628   3.302   0.011  11.039 -2.2850  0.4149  0.5275
  264MOL0     H35629   3.504  -0.102  11.121 -0.6593  0.6395 -1.2971
  264MOL0     H35630   3.662  -0.188  11.222 -2.0333  0.8227  0.5461
  264MOL0     H35631   3.688  -0.130  11.392  0.4231  0.2222  0.0093
  264MOL0     H35632   3.719  -0.356  11.468 -3.3957 -2.7425 -1.2037
  264MOL0     H35633   3.839  -0.317  11.348 -0.5499  1.2299  0.3811
  264MOL0     H35634   3.736  -0.442  11.188 -2.1957  2.5314 -0.6019
  264MOL0     H35635   3.599  -0.490  11.280 -0.1842  0.1595  3.3572
  264MOL0     H35636   3.723  -0.598  11.453 -1.4746 -0.3442  0.0982
  264MOL0     H35637   3.880  -0.566  11.384  1.0252 -0.9620 -1.2220
  264MOL0     H35638   3.787  -0.870  11.119  0.1095  1.8027 -1.6504
  264MOL0     H35639   3.268  -0.265  11.446 -3.1524  0.9245  0.0443
  264MOL0     H35640   3.093  -0.137  11.378  1.3439  3.3094  0.8135
  265MOL0     O35641   2.780   3.098   0.113  0.1330 -0.0282 -0.3470
  265MOL0     C35642   2.778   3.099   0.234 -0.3448  0.3588 -0.2767
  265MOL0     O35643   2.680   3.157   0.309 -0.4974  0.0971  0.2283
  265MOL0     C35644   2.581   3.241   0.250  0.3747 -0.7571 -0.2291
  265MOL0     C35645   2.608   3.334   0.147  0.0678 -0.5510 -0.2285
  265MOL0     C35646   2.520   3.433   0.102 -0.0493  0.2015  0.2345
  265MOL0     C35647   2.395   3.449   0.158 -0.1258  0.1820  0.3999
  265MOL0     O35648   2.321   3.561   0.122 -1.2304 -0.3523 -0.6033
  265MOL0     C35649   2.211   3.593   0.205 -0.6041  0.6424  0.6939
  265MOL0     C35650   2.151   3.726   0.172 -0.2094  0.6469 -0.1403
  265MOL0     C35651   2.039   3.749   0.265  0.4737 -0.5518 -0.4826
  265MOL0     C35652   1.984   3.895   0.254 -0.0752 -0.0097  0.4282
  265MOL0     C35653   1.885   3.913   0.369  1.0750 -0.5407  0.5234
  265MOL0     C35654   1.785   4.039   0.342 -0.0705  0.5224 -0.0262
  265MOL0     C35655   1.688   4.020   0.225 -0.4578 -0.3169  0.4195
  265MOL0     C35656   1.594   4.132   0.228  0.9824  0.5146  0.5098
  265MOL0     N35657   1.512   4.135   0.350  0.4051  0.3227 -0.7123
  265MOL0     C35658   1.398   4.061   0.367 -0.0138  0.4738 -0.4262
  265MOL0     C35659   1.345   4.105   0.481 -0.1705 -0.6798 -0.6937
  265MOL0     C35660   1.221   4.069   0.556 -0.1283 -1.1345  0.5637
  265MOL0     C35661   1.104   4.172   0.548  1.1574 -0.4242 -0.4304
  265MOL0     C35662   0.976   4.138   0.633 -0.5983  0.3436 -0.7504
  265MOL0     C35663   0.873   4.254   0.626  0.7819  0.5639 -0.0094
  265MOL0     O35664   0.759   4.207   0.688  0.5789  0.7558 -0.5435
  265MOL0     C35665   0.640   4.266   0.644  0.7237 -0.1404 -0.0684
  265MOL0     C35666   0.622   4.402   0.605  0.1877  0.3270  0.2074
  265MOL0     C35667   0.502   4.441   0.548  0.1521  1.0217 -0.0828
  265MOL0     C35668   0.494   4.578   0.487 -0.2278  0.1707  0.5080
  265MOL0     C35669   0.394   4.346   0.538 -0.4160  0.6950 -0.1035
  265MOL0     C35670   0.261   4.381   0.478  0.2522 -0.7165 -0.1926
  265MOL0     O35671   0.151   4.309   0.516  0.6128  0.5881  0.4970
  265MOL0     C35672   0.033   4.345   0.463  0.7721  0.4589  0.5709
  265MOL0     C35673  -0.015   4.274   0.357  0.2773 -0.3500 -0.3372
  265MOL0     C35674  -0.144   4.303   0.302  0.2367 -0.1605  0.2419
  265MOL0     C35675  -0.224   4.404   0.355 -0.3704  0.7854 -0.5641
  265MOL0     O35676  -0.354   4.418   0.307 -1.1397  0.7429  0.7518
  265MOL0     C35677  -0.461   4.462   0.386 -0.7040 -0.4293 -0.0418
  265MOL0     C35678  -0.580   4.470   0.283 -0.2779  0.9178 -0.7144
  265MOL0     C35679  -0.721   4.472   0.354 -0.1212  0.2007  0.1596
  265MOL0     C35680  -0.846   4.484   0.263  0.4678  0.0942  0.2038
  265MOL0     C35681  -0.879   4.360   0.189  0.6594 -0.1691 -0.6663
  265MOL0     C35682  -1.020   4.369   0.149  0.2855 -0.0939 -0.1703
  265MOL0     C35683  -1.100   4.327   0.275 -0.5404  0.3315  0.0405
  265MOL0     C35684  -1.239   4.273   0.245 -0.5207  0.1987  0.1775
  265MOL0    Cl35685  -1.330   4.402   0.162 -0.2478  0.5917  0.4789
  265MOL0     C35686  -0.174   4.479   0.457  0.3335 -0.1300  0.2246
  265MOL0     C35687  -0.044   4.456   0.510 -0.0675  0.7279 -0.2713
  265MOL0     O35688   0.258   4.478   0.405 -0.1206  0.1928 -0.0946
  265MOL0     C35689   0.411   4.217   0.589 -0.4409 -0.7702  0.1156
  265MOL0     C35690   0.534   4.178   0.635 -0.2095 -0.3841 -0.2004
  265MOL0     N35691   1.420   4.208   0.536  0.1254  0.5275  0.4953
  265MOL0     N35692   1.516   4.223   0.456 -0.3094 -0.2355 -0.6056
  265MOL0     C35693   2.365   3.359   0.265  0.6510 -0.2353  0.7268
  265MOL0     C35694   2.451   3.257   0.312  0.2796  0.2701  0.6037
  265MOL0     C35695   2.888   3.031   0.302  0.8371 -0.1394  0.0608
  265MOL0     C35696   2.879   3.014   0.444  0.1882 -0.3127  0.7427
  265MOL0     C35697   2.989   2.950   0.517 -0.6386  0.0324  0.5186
  265MOL0     C35698   3.097   2.905   0.443  0.2993  0.5225  0.2849
  265MOL0     O35699   3.211   2.858   0.511  0.1350  0.3321  0.1788
  265MOL0     C35700   3.235   2.716   0.490 -0.1402 -0.0807 -0.0170
  265MOL0     C35701   3.375   2.676   0.536 -0.0244  0.4064  0.4663
  265MOL0     C35702   3.408   2.732   0.669  0.3702 -0.0121 -0.1960
  265MOL0     C35703   3.306   2.703   0.783  0.0240  0.2111 -0.8577
  265MOL0     C35704   3.301   2.562   0.824 -0.0945  0.1467  0.1949
  265MOL0     C35705   3.299   2.444   0.853 -0.3810  1.3187 -0.2913
  265MOL0     C35706   3.110   2.945   0.315 -0.6363  0.0142  0.4792
  265MOL0     C35707   3.011   3.001   0.242  0.5475 -0.0211  0.6706
  265MOL0     H35708   2.707   3.345   0.104  0.5653 -1.4373  0.6321
  265MOL0     H35709   2.549   3.491   0.015  1.5064 -1.3210 -0.2986
  265MOL0     H35710   2.134   3.520   0.179  0.5472 -0.4034  0.1232
  265MOL0     H35711   2.235   3.588   0.312 -0.8022 -1.0816  0.6935
  265MOL0     H35712   2.228   3.804   0.180 -0.7297  1.2607 -1.0068
  265MOL0     H35713   2.108   3.717   0.072  0.5046 -0.0834 -0.3962
  265MOL0     H35714   1.955   3.681   0.246 -2.2043  2.6779 -1.2862
  265MOL0     H35715   2.059   3.740   0.372 -0.3127  1.4937 -0.1179
  265MOL0     H35716   2.060   3.973   0.266 -0.8069  0.5750  1.3884
  265MOL0     H35717   1.944   3.911   0.153  0.0630 -1.8465  0.0447
  265MOL0     H35718   1.827   3.821   0.377  0.0131 -0.1521 -1.8987
  265MOL0     H35719   1.935   3.918   0.466  0.2364  3.0469  0.8976
  265MOL0     H35720   1.735   4.052   0.438 -0.0562 -0.6743  0.1545
  265MOL0     H35721   1.839   4.133   0.330 -3.5250  2.9746  2.0179
  265MOL0     H35722   1.742   4.016   0.130  1.7851  1.0860  1.5452
  265MOL0     H35723   1.637   3.926   0.248  1.4529 -1.2013  1.3731
  265MOL0     H35724   1.530   4.127   0.140  1.4623  0.0900  0.1822
  265MOL0     H35725   1.644   4.230   0.227 -1.1118  1.6512 -0.0904
  265MOL0     H35726   1.377   3.974   0.306 -1.7342  1.9973 -2.1028
  265MOL0     H35727   1.185   3.969   0.531 -1.4663 -0.4744 -0.3123
  265MOL0     H35728   1.244   4.064   0.662  0.1670 -0.8389  0.5159
  265MOL0     H35729   1.066   4.190   0.447  0.6416 -0.6997 -0.2892
  265MOL0     H35730   1.138   4.264   0.597 -2.8006  1.0948 -0.1928
  265MOL0     H35731   1.001   4.121   0.738  0.2143 -1.7878 -1.2361
  265MOL0     H35732   0.930   4.041   0.612  1.5026 -0.9567  0.3370
  265MOL0     H35733   0.845   4.287   0.526 -1.1854  1.2588  0.7334
  265MOL0     H35734   0.910   4.343   0.678  1.5356  1.6669 -2.2767
  265MOL0     H35735   0.711   4.464   0.607  0.8567 -0.5299 -1.2367
  265MOL0     H35736   0.407   4.623   0.536  0.1625  1.8446 -0.2521
  265MOL0     H35737   0.572   4.650   0.513  0.2971  0.4864 -1.7050
  265MOL0     H35738   0.475   4.576   0.379  1.6375  1.1375  0.1218
  265MOL0     H35739   0.058   4.205   0.317  1.7573  2.0910 -2.0521
  265MOL0     H35740  -0.164   4.255   0.207  3.0232 -2.0230  0.4798
  265MOL0     H35741  -0.477   4.394   0.470 -0.5374 -0.2547  0.1327
  265MOL0     H35742  -0.456   4.564   0.426 -2.2145 -0.1263 -0.5586
  265MOL0     H35743  -0.569   4.555   0.216 -0.7987  0.0022 -1.9908
  265MOL0     H35744  -0.577   4.389   0.210 -4.6457 -0.3424  0.2057
  265MOL0     H35745  -0.712   4.565   0.412  3.8574  0.0946  0.0221
  265MOL0     H35746  -0.734   4.392   0.427  0.4972  1.5427  1.8119
  265MOL0     H35747  -0.933   4.522   0.317  1.1034  0.7406  0.8119
  265MOL0     H35748  -0.832   4.561   0.186  3.5444 -1.1140 -0.6249
  265MOL0     H35749  -0.842   4.272   0.243  1.1141 -0.0974 -0.8528
  265MOL0     H35750  -0.815   4.348   0.101 -0.1399  1.4181 -1.5067
  265MOL0     H35751  -1.054   4.465   0.109  0.7692  0.4116  0.6026
  265MOL0     H35752  -1.027   4.291   0.072  1.7459 -0.2282 -0.2040
  265MOL0     H35753  -1.103   4.407   0.349 -2.6900 -0.9747  1.4714
  265MOL0     H35754  -1.051   4.242   0.324 -1.5270 -0.9850 -1.1560
  265MOL0     H35755  -1.295   4.252   0.336  0.5145  0.4063  0.8785
  265MOL0     H35756  -1.226   4.182   0.185 -1.1094  0.4856 -0.4128
  265MOL0     H35757  -0.228   4.559   0.507 -2.4295 -2.4018  1.1670
  265MOL0     H35758  -0.011   4.522   0.589 -0.2025 -2.0528  2.2591
  265MOL0     H35759   0.327   4.149   0.577  0.8703 -1.9848 -3.6974
  265MOL0     H35760   0.554   4.074   0.662 -0.7342 -0.2121  0.9255
  265MOL0     H35761   2.277   3.363   0.328 -1.2584  2.5659 -1.8245
  265MOL0     H35762   2.409   3.200   0.393  2.0165 -0.7051  0.8813
  265MOL0     H35763   2.798   3.044   0.510  0.2654 -2.8662  2.1086
  265MOL0     H35764   2.978   2.946   0.625  0.3165  0.9055  0.6670
  265MOL0     H35765   3.159   2.649   0.530 -1.3286  0.5186 -1.2276
  265MOL0     H35766   3.236   2.700   0.382  0.9363  1.7712 -0.3396
  265MOL0     H35767   3.449   2.707   0.462  0.2375 -0.4193  0.3708
  265MOL0     H35768   3.387   2.567   0.537 -0.3054  0.3323 -0.9942
  265MOL0     H35769   3.413   2.840   0.654 -1.6264  0.0444 -0.7847
  265MOL0     H35770   3.507   2.698   0.700 -0.5305 -0.2080  2.8696
  265MOL0     H35771   3.207   2.732   0.748 -0.2064 -1.9684 -2.1884
  265MOL0     H35772   3.324   2.767   0.870  0.7508  0.6581 -1.3326
  265MOL0     H35773   3.284   2.339   0.864  0.8151  1.0469 -1.0087
  265MOL0     H35774   3.206   2.944   0.265 -1.1307 -0.2519 -0.4986
  265MOL0     H35775   3.032   3.034   0.141 -0.5568  2.4134  1.1604
  266MOL0     O35776   6.815   9.709   6.553 -0.3278 -0.4284  0.2701
  266MOL0     C35777   6.829   9.694   6.673 -0.3345 -0.6876 -0.4341
  266MOL0     O35778   6.732   9.683   6.763 -0.0931  0.8382 -0.2493
  266MOL0     C35779   6.611   9.634   6.719 -0.2863  0.3423  0.1827
  266MOL0     C35780   6.513   9.724   6.681 -0.0392  0.7381 -0.9048
  266MOL0     C35781   6.389   9.675   6.641 -0.3816  0.0059 -0.2867
  266MOL0     C35782   6.362   9.537   6.650 -0.2059 -0.5265  0.3423
  266MOL0     O35783   6.249   9.471   6.622  0.1336  0.0025 -0.6244
  266MOL0     C35784   6.127   9.538   6.658  0.2336 -0.0822 -0.3687
  266MOL0     C35785   6.013   9.483   6.572  0.2858 -0.5462  1.0243
  266MOL0     C35786   5.869   9.545   6.604 -0.8575  0.4659  0.2291
  266MOL0     C35787   5.752   9.462   6.542  0.7868  0.0209 -0.2375
  266MOL0     C35788   5.619   9.530   6.564  0.2583 -0.8868  0.4102
  266MOL0     C35789   5.502   9.437   6.516  0.2393 -0.0715 -0.0243
  266MOL0     C35790   5.357   9.498   6.525  0.6103 -0.9533 -0.8480
  266MOL0     C35791   5.310   9.538   6.665 -0.7771  0.0225  0.5547
  266MOL0     N35792   5.163   9.554   6.650  0.4599 -0.1919  0.0525
  266MOL0     C35793   5.090   9.667   6.636  0.4964  0.1021 -0.6956
  266MOL0     C35794   4.968   9.640   6.684  0.5565 -0.7735 -0.3678
  266MOL0     C35795   4.850   9.732   6.670 -0.5174 -0.2410 -0.1262
  266MOL0     C35796   4.712   9.666   6.692  0.1139  0.0776  0.8767
  266MOL0     C35797   4.605   9.775   6.700 -0.5312 -0.2078  0.2414
  266MOL0     C35798   4.471   9.721   6.726 -0.1416 -1.3191 -0.5370
  266MOL0     O35799   4.407   9.702   6.599 -0.3239 -0.4680 -0.3485
  266MOL0     C35800   4.272   9.706   6.585  0.8419  0.0345 -0.2800
  266MOL0     C35801   4.227   9.716   6.456  0.1401  0.6568 -0.6087
  266MOL0     C35802   4.099   9.733   6.420  0.3709  0.3654  0.5918
  266MOL0     C35803   4.080   9.733   6.272 -0.1870  0.3610  0.3376
  266MOL0     C35804   3.999   9.746   6.521 -0.4288  0.4430  0.8470
  266MOL0     C35805   3.857   9.767   6.499 -0.0412  0.4571  0.3582
  266MOL0     O35806   3.767   9.734   6.597  0.7158  0.4077  0.0190
  266MOL0     C35807   3.631   9.734   6.572 -0.4460 -0.8513 -0.7151
  266MOL0     C35808   3.566   9.842   6.502 -0.3282 -0.2304  0.0357
  266MOL0     C35809   3.429   9.836   6.487  0.6167  0.9131  0.7264
  266MOL0     C35810   3.349   9.724   6.524  0.1275  0.9158  1.0971
  266MOL0     O35811   3.209   9.703   6.503 -0.0382  0.3838  0.0685
  266MOL0     C35812   3.122   9.813   6.532 -0.5440  0.3175 -0.8561
  266MOL0     C35813   2.981   9.774   6.538  0.4531 -0.5522  0.5337
  266MOL0     C35814   2.901   9.893   6.604  0.5532  0.4821 -1.1136
  266MOL0     C35815   2.754   9.869   6.595  0.1648 -0.1517 -0.0780
  266MOL0     C35816   2.700   9.913   6.461  0.7691 -0.7476 -0.0521
  266MOL0     C35817   2.553   9.874   6.463  0.9380  0.9369 -0.0395
  266MOL0     C35818   2.486   9.898   6.329  0.6338 -0.0148  0.2476
  266MOL0     C35819   2.334   9.912   6.339  0.5775  0.0906  0.1579
  266MOL0    Cl35820   2.273  10.064   6.250  0.0997 -0.2304  0.7073
  266MOL0     C35821   3.407   9.626   6.599  0.1397  0.2049  0.0038
  266MOL0     C35822   3.549   9.632   6.612  0.6165  0.0541 -0.7106
  266MOL0     O35823   3.834   9.833   6.400  0.5177 -0.3307  0.2887
  266MOL0     C35824   4.040   9.716   6.655  0.0917  0.1352  0.6551
  266MOL0     C35825   4.175   9.701   6.690 -0.3325  0.0223 -0.8179
  266MOL0     N35826   4.969   9.505   6.716 -0.3105 -0.0032  0.3217
  266MOL0     N35827   5.085   9.456   6.700  0.4982  0.0285  0.0998
  266MOL0     C35828   6.466   9.454   6.687 -0.1710  0.6513 -0.8296
  266MOL0     C35829   6.591   9.500   6.725  0.1194 -0.3572 -0.1036
  266MOL0     C35830   6.965   9.717   6.720 -0.5693 -0.0698  0.7203
  266MOL0     C35831   7.076   9.688   6.633 -0.2938 -0.1862 -0.5799
  266MOL0     C35832   7.206   9.712   6.684  0.0147  0.0892 -0.6727
  266MOL0     C35833   7.229   9.762   6.813  0.1185  0.5472 -0.7169
  266MOL0     O35834   7.352   9.792   6.867  0.5395 -0.4615 -0.3010
  266MOL0     C35835   7.464   9.787   6.783 -0.3915 -0.1050 -0.8066
  266MOL0     C35836   7.597   9.804   6.858 -0.1111 -1.1723 -0.3621
  266MOL0     C35837   7.725   9.778   6.775 -0.7101  0.7901  0.3084
  266MOL0     C35838   7.849   9.814   6.860 -0.7014 -0.4115 -0.3294
  266MOL0     C35839   7.870   9.713   6.967 -0.7700 -0.1379 -0.0192
  266MOL0     C35840   7.883   9.625   7.053  0.0387 -0.3446  0.1478
  266MOL0     C35841   7.119   9.796   6.893  0.1188 -0.6700  0.0996
  266MOL0     C35842   6.990   9.773   6.849 -0.2436 -0.3748 -0.2626
  266MOL0     H35843   6.531   9.829   6.661 -0.3608  0.8969 -0.3742
  266MOL0     H35844   6.320   9.749   6.601  0.7378  1.4718  0.3728
  266MOL0     H35845   6.110   9.514   6.763  0.5605  2.2688  0.2634
  266MOL0     H35846   6.130   9.646   6.648  1.5445 -0.0068  0.5928
  266MOL0     H35847   6.032   9.510   6.468 -1.4349 -0.0513  0.8024
  266MOL0     H35848   6.012   9.374   6.580  1.6341 -0.8396 -1.7463
  266MOL0     H35849   5.855   9.556   6.712 -1.8876 -0.3961  0.1954
  266MOL0     H35850   5.870   9.642   6.554  2.3395  0.6883  0.4927
  266MOL0     H35851   5.763   9.441   6.436 -0.2569 -1.2941 -0.1070
  266MOL0     H35852   5.757   9.365   6.593  0.5683  0.4088  0.5402
  266MOL0     H35853   5.602   9.544   6.672  1.0591 -2.1296  0.7075
  266MOL0     H35854   5.617   9.632   6.522  0.1012 -1.2207 -0.4085
  266MOL0     H35855   5.524   9.421   6.411  1.7118 -0.1814  0.2818
  266MOL0     H35856   5.503   9.340   6.567 -1.9803 -0.4169 -0.5689
  266MOL0     H35857   5.349   9.587   6.462  0.1244 -1.4540 -1.5086
  266MOL0     H35858   5.291   9.417   6.494 -2.7704  0.9557  0.7141
  266MOL0     H35859   5.363   9.626   6.704 -0.5824 -1.3018  3.5693
  266MOL0     H35860   5.327   9.455   6.734  3.1662  0.8805  0.8984
  266MOL0     H35861   5.125   9.762   6.598  0.7411 -1.9625 -6.5806
  266MOL0     H35862   4.865   9.814   6.741  1.2738 -0.0806 -0.6511
  266MOL0     H35863   4.860   9.775   6.570  1.1836  1.4128  0.6989
  266MOL0     H35864   4.699   9.599   6.778  1.5661 -1.4206 -0.0170
  266MOL0     H35865   4.714   9.605   6.601  2.2448  1.5573 -0.1455
  266MOL0     H35866   4.608   9.831   6.606  0.7301  0.4619  0.6620
  266MOL0     H35867   4.630   9.844   6.782  1.7192  0.2014 -0.7155
  266MOL0     H35868   4.417   9.801   6.777  1.0324  0.4136 -1.9224
  266MOL0     H35869   4.465   9.637   6.796 -0.4646  0.7793  2.1190
  266MOL0     H35870   4.307   9.688   6.389 -0.1900 -1.9098 -0.0377
  266MOL0     H35871   3.995   9.666   6.257  0.9238 -0.4616 -3.2029
  266MOL0     H35872   4.049   9.835   6.244  0.9286  1.3324  2.4127
  266MOL0     H35873   4.166   9.697   6.215 -0.3294 -1.5870  1.2636
  266MOL0     H35874   3.622   9.931   6.473 -2.2533  2.3323  3.4531
  266MOL0     H35875   3.392   9.924   6.436 -1.0795 -0.9383 -1.4066
  266MOL0     H35876   3.151   9.856   6.628 -3.9777 -1.7210  1.2973
  266MOL0     H35877   3.126   9.889   6.454  3.0341  0.4323 -0.7287
  266MOL0     H35878   2.941   9.751   6.438 -1.6097 -2.4921  1.7050
  266MOL0     H35879   2.969   9.684   6.598  1.4162 -0.0491  1.4944
  266MOL0     H35880   2.916   9.985   6.547 -0.5643  1.2332 -0.2392
  266MOL0     H35881   2.929   9.899   6.710 -0.5444 -0.1400 -0.7801
  266MOL0     H35882   2.731   9.763   6.605 -1.3877  0.2346  0.6994
  266MOL0     H35883   2.702   9.925   6.673 -0.7475  0.7422 -1.2763
  266MOL0     H35884   2.756   9.872   6.377  2.9126  1.7987  0.0130
  266MOL0     H35885   2.710  10.021   6.452  0.9586 -0.5695  1.8373
  266MOL0     H35886   2.539   9.768   6.489  1.1915  1.1955  1.2259
  266MOL0     H35887   2.508   9.929   6.546 -0.6972 -0.8421  0.3178
  266MOL0     H35888   2.504   9.813   6.263 -0.3177 -0.8143  0.9902
  266MOL0     H35889   2.529   9.991   6.290  0.0940 -0.2706 -1.0252
  266MOL0     H35890   2.310   9.906   6.445 -1.1440 -5.3678 -0.2284
  266MOL0     H35891   2.283   9.821   6.306  1.8756 -1.6302  2.5646
  266MOL0     H35892   3.349   9.548   6.647 -0.8952  0.3704 -0.9268
  266MOL0     H35893   3.604   9.557   6.668  0.3143 -0.4503 -1.0884
  266MOL0     H35894   3.979   9.712   6.744 -0.1476  1.5860  0.5769
  266MOL0     H35895   4.213   9.690   6.791  1.1873 -1.4360 -1.4971
  266MOL0     H35896   6.436   9.350   6.690 -3.1581  1.4475  1.4590
  266MOL0     H35897   6.669   9.429   6.749 -1.5497 -3.3556 -2.7004
  266MOL0     H35898   7.069   9.632   6.540 -1.6965 -1.4863  0.2624
  266MOL0     H35899   7.287   9.692   6.614  0.5224 -0.5322  0.0705
  266MOL0     H35900   7.463   9.693   6.727 -1.7378 -1.0176  0.6426
  266MOL0     H35901   7.452   9.877   6.722 -1.4374  0.1187 -0.3099
  266MOL0     H35902   7.602   9.740   6.946 -2.1272  0.8623  1.3439
  266MOL0     H35903   7.599   9.908   6.892  0.5039 -0.9385 -1.0850
  266MOL0     H35904   7.732   9.843   6.688  1.2067  1.0078  0.5836
  266MOL0     H35905   7.730   9.675   6.738  3.3863  0.8182  0.3468
  266MOL0     H35906   7.842   9.910   6.913  2.2222 -0.9089  1.1395
  266MOL0     H35907   7.936   9.815   6.795  0.0971  1.0998  0.7056
  266MOL0     H35908   7.877   9.555   7.135 -1.3442 -0.2270  0.1736
  266MOL0     H35909   7.149   9.848   6.983  3.4885  0.3928 -1.4349
  266MOL0     H35910   6.919   9.797   6.928  0.1528 -0.6449  0.1828
  267MOL0     O35911  11.219   8.161   5.664 -0.4244 -0.0229  0.8708
  267MOL0     C35912  11.238   8.074   5.748 -0.4936  0.0708 -0.7228
  267MOL0     O35913  11.150   7.969   5.783 -0.3425  0.5060  0.8412
  267MOL0     C35914  11.027   7.962   5.725 -0.2806  0.2814 -0.5323
  267MOL0     C35915  10.916   8.021   5.794  0.2157  0.7175  0.3579
  267MOL0     C35916  10.781   8.024   5.740  0.7167  0.0227  0.0561
  267MOL0     C35917  10.751   7.966   5.604  0.3364  0.1879 -0.2423
  267MOL0     O35918  10.633   7.966   5.550 -0.3648  0.3132  0.7061
  267MOL0     C35919  10.521   8.006   5.637 -0.4777  0.1449 -0.2139
  267MOL0     C35920  10.392   7.990   5.555  0.4064  0.2189  0.3277
  267MOL0     C35921  10.267   7.970   5.652  0.6703  0.0870  0.4092
  267MOL0     C35922  10.215   8.101   5.718 -0.3507  0.4298  0.2075
  267MOL0     C35923  10.143   8.191   5.618  0.4102  0.6576  0.3744
  267MOL0     C35924  10.005   8.138   5.582 -0.4273 -0.4330  0.1468
  267MOL0     C35925   9.961   8.202   5.445 -0.4322 -0.0089  0.2642
  267MOL0     C35926   9.827   8.147   5.378  0.4738 -0.6785 -0.3177
  267MOL0     N35927   9.830   8.004   5.353 -0.3393 -0.3116  1.0068
  267MOL0     C35928   9.727   7.925   5.372 -0.3379 -0.1248 -0.5113
  267MOL0     C35929   9.772   7.801   5.329 -0.0187 -0.1382  0.3180
  267MOL0     C35930   9.696   7.670   5.325 -0.3885 -0.5077 -0.5450
  267MOL0     C35931   9.729   7.560   5.431 -0.0535 -0.3503  0.3188
  267MOL0     C35932   9.659   7.430   5.393  0.9888 -0.2723  0.1830
  267MOL0     C35933   9.512   7.429   5.417  0.4408  0.3466 -0.4853
  267MOL0     O35934   9.497   7.481   5.549  0.5032 -0.1961  0.1063
  267MOL0     C35935   9.368   7.483   5.600 -0.1220  0.2711  0.5516
  267MOL0     C35936   9.356   7.543   5.730  0.3414 -0.5490  0.3275
  267MOL0     C35937   9.232   7.543   5.798  0.6514 -0.1601 -0.7696
  267MOL0     C35938   9.245   7.589   5.948 -0.0389 -0.5160 -0.3588
  267MOL0     C35939   9.113   7.486   5.742 -0.0462  1.0638  0.3184
  267MOL0     C35940   8.985   7.466   5.809  0.1338 -0.2413  0.3762
  267MOL0     O35941   8.907   7.362   5.765 -0.1718 -0.6216  0.2258
  267MOL0     C35942   8.791   7.334   5.834  0.3670 -0.6028 -0.2927
  267MOL0     C35943   8.792   7.296   5.973  0.5553  0.2714  0.2507
  267MOL0     C35944   8.667   7.281   6.041  0.4384  0.3509  0.2179
  267MOL0     C35945   8.541   7.287   5.969 -0.8113  0.3796 -0.5178
  267MOL0     O35946   8.418   7.250   6.014  0.0049 -0.2829 -0.2949
  267MOL0     C35947   8.389   7.231   6.149  0.4379  0.6172 -0.0962
  267MOL0     C35948   8.237   7.214   6.158  0.2242 -0.0003  0.1629
  267MOL0     C35949   8.199   7.077   6.109 -0.2015 -0.4498  0.7497
  267MOL0     C35950   8.053   7.090   6.072  0.3145 -0.0694  0.1848
  267MOL0     C35951   7.983   6.967   6.017  0.1694 -0.1719  0.4599
  267MOL0     C35952   7.847   6.997   5.960  0.7116  0.4753  1.4030
  267MOL0     C35953   7.737   7.030   6.057  0.0809  0.2113 -0.6043
  267MOL0     C35954   7.661   6.905   6.112 -0.1604  0.2989 -0.5203
  267MOL0    Cl35955   7.604   6.808   5.975  0.2231  0.4121 -0.1270
  267MOL0     C35956   8.554   7.300   5.828 -0.3295 -0.7049 -0.1873
  267MOL0     C35957   8.672   7.333   5.762 -0.4250 -0.1829  0.1859
  267MOL0     O35958   8.953   7.537   5.906 -0.0680 -0.6521 -0.2090
  267MOL0     C35959   9.126   7.418   5.615 -0.6472 -0.7612  0.0207
  267MOL0     C35960   9.252   7.412   5.552  0.5938 -0.3651 -0.8996
  267MOL0     N35961   9.905   7.818   5.295  0.0233  0.2491  0.2595
  267MOL0     N35962   9.934   7.938   5.302  0.4205  0.5917  0.5399
  267MOL0     C35963  10.867   7.909   5.544 -0.5517  0.2660 -0.3017
  267MOL0     C35964  10.994   7.904   5.605 -0.2841 -0.2906  0.4963
  267MOL0     C35965  11.362   8.085   5.828 -0.1039 -0.0595  0.9804
  267MOL0     C35966  11.392   7.983   5.923  0.5082  1.0120  0.4123
  267MOL0     C35967  11.511   7.987   5.990  0.2606  0.2110  0.4273
  267MOL0     C35968  11.609   8.090   5.965 -0.5097  0.7324 -0.0422
  267MOL0     O35969  11.731   8.107   6.029 -0.6589  0.1967 -0.4356
  267MOL0     C35970  11.760   8.016   6.138 -0.5074  0.1368 -0.2543
  267MOL0     C35971  11.813   7.869   6.098  0.1037  0.5895  0.2628
  267MOL0     C35972  11.937   7.877   6.014 -0.5278 -0.5936  1.1095
  267MOL0     C35973  11.916   7.889   5.861  0.8912 -0.1606  0.4184
  267MOL0     C35974  11.842   7.771   5.805  0.0866 -0.1475 -0.6161
  267MOL0     C35975  11.786   7.666   5.763 -1.1150 -0.2241 -0.4192
  267MOL0     C35976  11.583   8.180   5.863 -0.2732 -0.1402 -0.2832
  267MOL0     C35977  11.456   8.187   5.803 -0.5920 -0.0900  0.3449
  267MOL0     H35978  10.945   8.070   5.885  2.1797 -0.0421  0.1972
  267MOL0     H35979  10.705   8.075   5.798  2.4249  1.2728  1.3231
  267MOL0     H35980  10.515   7.952   5.732 -1.0944  3.6892  1.9359
  267MOL0     H35981  10.518   8.109   5.675 -0.3453  0.1545 -0.2270
  267MOL0     H35982  10.371   8.053   5.468 -0.5776 -1.9872 -1.1095
  267MOL0     H35983  10.408   7.892   5.509  0.6187  0.3532  0.1140
  267MOL0     H35984  10.185   7.925   5.595  2.3542  0.1332 -2.2020
  267MOL0     H35985  10.290   7.898   5.731  0.2773 -1.6086 -0.9825
  267MOL0     H35986  10.143   8.086   5.799  0.8868 -0.0463  1.2592
  267MOL0     H35987  10.308   8.142   5.758  0.0527  0.2821 -0.5695
  267MOL0     H35988  10.118   8.282   5.673 -1.2560 -0.6844  1.9633
  267MOL0     H35989  10.203   8.216   5.530  0.5607 -0.7851  0.0508
  267MOL0     H35990  10.004   8.029   5.567 -0.7964 -0.3707 -0.2842
  267MOL0     H35991   9.938   8.160   5.666 -0.0372  1.9318 -0.0976
  267MOL0     H35992   9.951   8.309   5.465  0.2480  0.3224 -1.0624
  267MOL0     H35993  10.042   8.180   5.375 -3.4977 -0.9689 -3.2739
  267MOL0     H35994   9.821   8.203   5.284 -0.0103  0.2083  0.2225
  267MOL0     H35995   9.740   8.165   5.443 -0.1580 -1.9945 -0.7666
  267MOL0     H35996   9.630   7.935   5.420 -0.3942 -4.0701  0.5429
  267MOL0     H35997   9.593   7.702   5.339  0.3008  1.0884  1.4472
  267MOL0     H35998   9.710   7.619   5.229  1.1140 -1.9459  0.3874
  267MOL0     H35999   9.703   7.603   5.529  0.3552  0.3837  0.1109
  267MOL0     H36000   9.835   7.541   5.419 -0.0834  0.4270 -1.6342
  267MOL0     H36001   9.710   7.350   5.449  3.3366  0.8371 -0.2717
  267MOL0     H36002   9.674   7.409   5.287  0.0914  1.4678 -0.3199
  267MOL0     H36003   9.464   7.332   5.402  1.7471 -0.4889  0.4252
  267MOL0     H36004   9.479   7.502   5.344 -0.1324  0.3977 -0.1762
  267MOL0     H36005   9.447   7.579   5.776  0.5646 -0.0723 -0.4632
  267MOL0     H36006   9.334   7.653   5.950 -1.0375  0.9456 -0.8918
  267MOL0     H36007   9.164   7.659   5.970  0.0686 -1.2195  2.7889
  267MOL0     H36008   9.238   7.510   6.024  0.6032  0.7444  1.0728
  267MOL0     H36009   8.880   7.267   6.028  0.8427 -4.6269 -2.2100
  267MOL0     H36010   8.662   7.259   6.147  1.3730  0.2341  0.2472
  267MOL0     H36011   8.427   7.137   6.188  0.2608 -0.4934 -2.4170
  267MOL0     H36012   8.434   7.310   6.210 -1.4859  2.1879 -0.5815
  267MOL0     H36013   8.214   7.234   6.263 -2.1895  2.0922 -0.6547
  267MOL0     H36014   8.187   7.291   6.098  0.3800 -0.5661 -0.7017
  267MOL0     H36015   8.217   6.994   6.177  1.5173 -1.0075 -0.3272
  267MOL0     H36016   8.252   7.045   6.019  0.3232 -0.4331  1.0501
  267MOL0     H36017   7.998   7.116   6.163 -3.0606  0.0143 -1.6989
  267MOL0     H36018   8.041   7.167   5.995 -2.5878 -0.2426  0.3394
  267MOL0     H36019   7.971   6.893   6.097  0.3666 -1.8594 -1.0309
  267MOL0     H36020   8.056   6.923   5.949 -1.8590  0.5822 -2.4091
  267MOL0     H36021   7.869   7.069   5.881  0.3686  0.6382  1.4536
  267MOL0     H36022   7.819   6.906   5.906  2.6159  0.4024  0.4603
  267MOL0     H36023   7.674   7.108   6.013 -1.3672 -0.9297 -0.6310
  267MOL0     H36024   7.795   7.074   6.139 -0.3207 -1.5027  0.6649
  267MOL0     H36025   7.574   6.929   6.174  1.0356  1.7537  0.6638
  267MOL0     H36026   7.726   6.844   6.177 -1.4234 -0.3839  0.1354
  267MOL0     H36027   8.460   7.304   5.775 -0.0086  0.9931 -0.6722
  267MOL0     H36028   8.672   7.358   5.656 -1.8091 -2.0358 -0.2925
  267MOL0     H36029   9.039   7.365   5.576 -1.1628 -0.3908  0.6426
  267MOL0     H36030   9.255   7.365   5.454 -0.3564  3.0141 -2.7561
  267MOL0     H36031  10.859   7.865   5.445 -0.3965  1.8899 -1.0684
  267MOL0     H36032  11.077   7.855   5.555  0.9195  2.1702 -0.0445
  267MOL0     H36033  11.323   7.900   5.933 -0.5652  1.9915  1.4448
  267MOL0     H36034  11.517   7.917   6.072 -0.6633 -0.9761 -0.4840
  267MOL0     H36035  11.836   8.070   6.195 -0.6158  1.0026 -0.9090
  267MOL0     H36036  11.674   7.998   6.204 -1.6689 -3.8596 -2.4855
  267MOL0     H36037  11.734   7.815   6.045  2.5534 -2.8181 -0.2426
  267MOL0     H36038  11.843   7.810   6.186  0.5553  1.5721  0.7771
  267MOL0     H36039  11.997   7.787   6.033  0.1333 -0.6868 -1.1722
  267MOL0     H36040  11.988   7.969   6.041  0.1488  1.1821 -4.9094
  267MOL0     H36041  12.009   7.878   5.804 -0.0139  3.1032 -1.9922
  267MOL0     H36042  11.861   7.981   5.838 -0.6446 -0.9905  0.6115
  267MOL0     H36043  11.737   7.574   5.740 -1.3018 -1.4163  3.7978
  267MOL0     H36044  11.654   8.254   5.828  1.3091 -1.2932  0.3740
  267MOL0     H36045  11.443   8.261   5.725  0.8838 -0.5141 -0.3373
  268MOL0     O36046   4.436   8.647   5.748 -0.0511 -0.5241  0.2534
  268MOL0     C36047   4.448   8.525   5.728 -0.4559 -0.4432 -0.2529
  268MOL0     O36048   4.352   8.439   5.707 -0.5093  0.2108 -0.4957
  268MOL0     C36049   4.220   8.453   5.714  0.8006 -0.3196 -0.2659
  268MOL0     C36050   4.145   8.335   5.713 -0.1513  0.0708 -0.1768
  268MOL0     C36051   4.009   8.339   5.740  0.3150 -0.2103 -0.1320
  268MOL0     C36052   3.941   8.454   5.768  0.2817  0.4353 -0.0969
  268MOL0     O36053   3.806   8.448   5.790 -0.3597 -0.4609 -0.2870
  268MOL0     C36054   3.723   8.568   5.771 -0.0368 -0.2067 -0.0322
  268MOL0     C36055   3.587   8.535   5.823  0.4336  0.9389  0.4636
  268MOL0     C36056   3.495   8.648   5.793  0.7500 -0.0018  0.2311
  268MOL0     C36057   3.354   8.607   5.828  0.6187  0.2711  1.1744
  268MOL0     C36058   3.255   8.717   5.780  0.0598  1.0580  0.2961
  268MOL0     C36059   3.122   8.702   5.857  0.5769  0.6813  0.2557
  268MOL0     C36060   3.015   8.604   5.811  0.3827 -0.1907 -0.6915
  268MOL0     C36061   3.059   8.460   5.788  0.1108  0.3642 -0.0275
  268MOL0     N36062   2.943   8.378   5.748 -0.5746 -0.2836 -0.4242
  268MOL0     C36063   2.828   8.359   5.820 -0.4127  0.0318 -0.3449
  268MOL0     C36064   2.753   8.276   5.745  0.4488  0.1840  0.6764
  268MOL0     C36065   2.610   8.241   5.759 -0.5971 -0.1256  0.4514
  268MOL0     C36066   2.552   8.188   5.629  0.0105 -0.4048 -0.0121
  268MOL0     C36067   2.420   8.130   5.662  0.0307  0.7191 -0.8303
  268MOL0     C36068   2.369   8.046   5.550 -0.2336 -0.0713  0.2938
  268MOL0     O36069   2.256   7.971   5.596 -0.6860 -0.8263  0.0947
  268MOL0     C36070   2.218   7.892   5.495 -0.1004  0.5533  0.6512
  268MOL0     C36071   2.296   7.780   5.451 -0.9647 -0.0975 -0.1829
  268MOL0     C36072   2.258   7.694   5.345 -1.0088 -0.8987  0.4054
  268MOL0     C36073   2.363   7.605   5.296  0.0594  0.7124  1.0961
  268MOL0     C36074   2.130   7.711   5.287 -0.1412 -0.0619 -0.2461
  268MOL0     C36075   2.073   7.635   5.176 -0.3694  0.0179  0.2290
  268MOL0     O36076   1.937   7.626   5.174  0.1763  0.4690 -0.5608
  268MOL0     C36077   1.874   7.540   5.087 -1.0710  0.4312  0.7738
  268MOL0     C36078   1.752   7.581   5.041 -0.4812  0.4010  0.0853
  268MOL0     C36079   1.675   7.492   4.962 -0.7316  0.6690  0.0680
  268MOL0     C36080   1.722   7.367   4.921 -0.8199  0.1828 -0.4463
  268MOL0     O36081   1.637   7.294   4.842  1.0154  0.3909 -0.0910
  268MOL0     C36082   1.688   7.278   4.717 -0.5471 -1.2493  0.1564
  268MOL0     C36083   1.591   7.215   4.622  0.6155  0.7820  0.6747
  268MOL0     C36084   1.451   7.281   4.620  0.3791 -0.1582  1.1710
  268MOL0     C36085   1.341   7.189   4.560 -0.5137  0.4006  0.2286
  268MOL0     C36086   1.207   7.260   4.545 -0.2012  0.5303  0.7108
  268MOL0     C36087   1.111   7.158   4.475  0.0639 -0.9127 -0.2127
  268MOL0     C36088   0.976   7.244   4.468  0.5576  0.3361 -0.6088
  268MOL0     C36089   0.901   7.208   4.336 -0.4168  0.3441 -0.4939
  268MOL0    Cl36090   0.858   7.034   4.326  0.0596 -0.1467 -0.2871
  268MOL0     C36091   1.852   7.328   4.963  0.9155  0.7219 -0.2111
  268MOL0     C36092   1.921   7.412   5.044 -0.4275  0.0591 -0.5822
  268MOL0     O36093   2.147   7.603   5.082 -0.3896  0.1009  0.1363
  268MOL0     C36094   2.056   7.826   5.327 -0.1690  0.0453  0.1813
  268MOL0     C36095   2.091   7.903   5.438 -1.0958 -0.2566 -0.0551
  268MOL0     N36096   2.816   8.247   5.623  0.6677 -0.5091 -0.3527
  268MOL0     N36097   2.937   8.301   5.636 -0.0928  0.0444 -0.1936
  268MOL0     C36098   4.016   8.575   5.755 -0.0997  0.0060 -1.1802
  268MOL0     C36099   4.149   8.577   5.732 -0.7693  1.3702 -0.4944
  268MOL0     C36100   4.585   8.467   5.737 -0.8494 -0.7531  0.0499
  268MOL0     C36101   4.607   8.332   5.750  0.6753 -0.4051 -0.0783
  268MOL0     C36102   4.740   8.288   5.767 -0.0421 -0.5837  0.2062
  268MOL0     C36103   4.855   8.371   5.766 -0.6235 -0.0833 -0.1354
  268MOL0     O36104   4.985   8.314   5.787  0.4294 -0.2291  0.1953
  268MOL0     C36105   5.101   8.402   5.758 -0.0841  0.2363 -0.3581
  268MOL0     C36106   5.123   8.423   5.607 -0.0660  0.2011 -0.3086
  268MOL0     C36107   5.265   8.486   5.586 -0.5265  0.2596  0.4672
  268MOL0     C36108   5.266   8.645   5.588 -0.2395 -0.1047  0.4867
  268MOL0     C36109   5.234   8.709   5.717  0.0364 -0.2702 -0.5940
  268MOL0     C36110   5.196   8.767   5.817 -0.0818  0.0136  0.0155
  268MOL0     C36111   4.829   8.505   5.756  0.1210 -1.1842  0.3005
  268MOL0     C36112   4.693   8.551   5.747  0.4606 -0.0762  0.0298
  268MOL0     H36113   4.187   8.236   5.695 -0.8234 -0.0741 -1.0033
  268MOL0     H36114   3.946   8.250   5.747 -1.9828  1.3598  0.3821
  268MOL0     H36115   3.764   8.654   5.826 -0.7255  0.0960  0.0112
  268MOL0     H36116   3.714   8.590   5.665 -0.3545  0.9249  0.2050
  268MOL0     H36117   3.552   8.450   5.763  1.8038  1.4970 -1.2156
  268MOL0     H36118   3.583   8.495   5.925 -0.4890  0.6504  0.3188
  268MOL0     H36119   3.527   8.737   5.847  1.8871  0.6790 -1.4879
  268MOL0     H36120   3.492   8.675   5.687 -0.7747  2.7109  0.8662
  268MOL0     H36121   3.326   8.508   5.790  0.1673  1.3037 -1.4037
  268MOL0     H36122   3.338   8.594   5.935 -0.7290  2.5779  1.3166
  268MOL0     H36123   3.295   8.819   5.782  3.7104  0.0099 -3.5645
  268MOL0     H36124   3.235   8.706   5.673 -1.0697  0.7107  0.5255
  268MOL0     H36125   3.137   8.680   5.964 -0.9830  0.0278  0.3661
  268MOL0     H36126   3.068   8.796   5.850 -0.3761  0.2957  1.8529
  268MOL0     H36127   2.947   8.608   5.897  0.5197  1.3249 -0.6163
  268MOL0     H36128   2.967   8.643   5.721 -0.6958 -0.2900 -0.1829
  268MOL0     H36129   3.110   8.419   5.875  2.3963 -0.1302 -1.5386
  268MOL0     H36130   3.138   8.446   5.714 -1.7768  0.1824 -2.1355
  268MOL0     H36131   2.805   8.407   5.914 -1.2558 -1.9737  0.5230
  268MOL0     H36132   2.598   8.163   5.835 -1.4019  1.4412  1.9706
  268MOL0     H36133   2.560   8.330   5.798 -0.6386 -0.3088  0.8193
  268MOL0     H36134   2.609   8.104   5.590 -0.5786 -0.0761 -1.6671
  268MOL0     H36135   2.539   8.272   5.559 -2.6083  1.0070  1.9739
  268MOL0     H36136   2.352   8.211   5.688 -0.0006  0.2658  0.6236
  268MOL0     H36137   2.437   8.071   5.753  1.5398  2.9389  0.4198
  268MOL0     H36138   2.453   7.981   5.521  1.5708  2.0207  0.6099
  268MOL0     H36139   2.342   8.105   5.462  0.4684  0.2335  0.2701
  268MOL0     H36140   2.395   7.764   5.492 -0.8144  1.3064  0.0367
  268MOL0     H36141   2.410   7.560   5.384 -0.3564 -0.4941  0.7172
  268MOL0     H36142   2.319   7.517   5.248  1.9502  0.5049 -0.4121
  268MOL0     H36143   2.443   7.645   5.233  1.0121 -0.1155  1.7444
  268MOL0     H36144   1.710   7.668   5.090  0.9233  0.2149  1.7165
  268MOL0     H36145   1.574   7.524   4.937 -0.4061  2.2808  0.6447
  268MOL0     H36146   1.710   7.379   4.679  2.1197 -2.0800 -0.7623
  268MOL0     H36147   1.781   7.221   4.727  0.7963  0.9821  1.3234
  268MOL0     H36148   1.632   7.216   4.521 -3.9601  0.9164 -1.4056
  268MOL0     H36149   1.574   7.111   4.652  3.0341  0.1033 -0.0293
  268MOL0     H36150   1.459   7.376   4.567 -0.5755 -0.5097  0.3467
  268MOL0     H36151   1.426   7.308   4.724  1.8908 -1.6577  1.9651
  268MOL0     H36152   1.383   7.164   4.463  0.0361 -2.9043  1.1936
  268MOL0     H36153   1.334   7.093   4.613 -1.6633 -0.0930 -0.7607
  268MOL0     H36154   1.209   7.347   4.479 -2.2536 -1.2826 -1.9563
  268MOL0     H36155   1.183   7.291   4.647  0.5462 -0.1085  1.0931
  268MOL0     H36156   1.152   7.132   4.377  0.1448 -0.1447 -0.3898
  268MOL0     H36157   1.098   7.068   4.536  0.1558  0.3111  1.7067
  268MOL0     H36158   0.996   7.351   4.471 -1.9487  0.8855 -0.7382
  268MOL0     H36159   0.912   7.219   4.554 -0.5694 -1.6779 -1.9592
  268MOL0     H36160   0.963   7.246   4.254  2.2091 -1.8512  0.3656
  268MOL0     H36161   0.811   7.271   4.332 -0.4200  0.9908  4.1500
  268MOL0     H36162   1.879   7.226   4.938  1.0020  0.9944 -1.2372
  268MOL0     H36163   2.026   7.392   5.064  0.0868  2.0910 -1.0173
  268MOL0     H36164   1.969   7.856   5.271  0.8886  0.5662 -1.2483
  268MOL0     H36165   2.016   7.975   5.470 -1.3501 -1.1544  1.4539
  268MOL0     H36166   3.970   8.673   5.767 -1.1905 -0.7499  1.7554
  268MOL0     H36167   4.201   8.672   5.727 -0.9344  1.4973  0.1298
  268MOL0     H36168   4.520   8.268   5.753  0.0160  0.4105 -1.1083
  268MOL0     H36169   4.761   8.182   5.769 -1.5904 -0.9381 -0.8619
  268MOL0     H36170   5.107   8.494   5.818  1.2309 -2.6944  4.6381
  268MOL0     H36171   5.173   8.340   5.811 -1.5316 -2.2101 -1.0890
  268MOL0     H36172   5.047   8.492   5.568 -3.9119 -2.6511  1.4829
  268MOL0     H36173   5.107   8.330   5.551 -0.2442 -0.4856  0.8367
  268MOL0     H36174   5.279   8.454   5.483 -1.7617  0.2850  0.2730
  268MOL0     H36175   5.352   8.441   5.635  0.5369 -0.2278 -1.7781
  268MOL0     H36176   5.192   8.680   5.516 -0.8661 -0.6545  0.8494
  268MOL0     H36177   5.361   8.686   5.553  0.7656 -0.7090  2.3648
  268MOL0     H36178   5.177   8.800   5.917  1.3408 -2.1089  1.0454
  268MOL0     H36179   4.910   8.578   5.754  0.5496 -1.6555  0.0124
  268MOL0     H36180   4.669   8.657   5.760  2.6115  0.3150  1.3094
  269MOL0     O36181   4.830   0.546   2.926 -0.2790 -0.0963 -0.1952
  269MOL0     C36182   4.806   0.439   2.990 -0.1319 -0.4884  0.3980
  269MOL0     O36183   4.687   0.405   3.043  0.1849  0.1155  0.8813
  269MOL0     C36184   4.579   0.476   3.004  0.9482 -0.1801 -0.3940
  269MOL0     C36185   4.528   0.468   2.878 -0.1463 -0.1821  0.1367
  269MOL0     C36186   4.418   0.545   2.837 -0.3625  0.0801  0.6833
  269MOL0     C36187   4.367   0.645   2.924 -0.5825  1.2380 -0.1884
  269MOL0     O36188   4.269   0.738   2.885  0.2371 -0.1811 -0.1754
  269MOL0     C36189   4.143   0.698   2.936 -0.8050  0.4092 -0.9669
  269MOL0     C36190   4.032   0.776   2.861  0.3861  0.3629  0.8478
  269MOL0     C36191   3.897   0.762   2.940 -0.2588 -0.8043  0.7745
  269MOL0     C36192   3.801   0.859   2.864  0.6812 -0.3724  0.9110
  269MOL0     C36193   3.664   0.854   2.932 -0.2751 -0.6778 -0.0501
  269MOL0     C36194   3.570   0.935   2.843  0.3848 -0.2401  0.1833
  269MOL0     C36195   3.433   0.949   2.893  0.4556  0.5629  0.0969
  269MOL0     C36196   3.371   1.088   2.849  0.6035  0.0993  0.3868
  269MOL0     N36197   3.237   1.096   2.907 -0.9156  0.0438  0.0853
  269MOL0     C36198   3.207   1.137   3.038  0.7228 -0.2007 -0.0661
  269MOL0     C36199   3.073   1.167   3.045 -0.2882 -0.8649 -0.2134
  269MOL0     C36200   2.998   1.227   3.160  0.1753 -0.9713  0.5356
  269MOL0     C36201   3.019   1.142   3.289  0.8793 -0.4161 -0.3382
  269MOL0     C36202   2.927   1.021   3.303 -0.4150 -0.9186  1.1306
  269MOL0     C36203   2.779   1.062   3.318  0.0383  0.5941 -0.2219
  269MOL0     O36204   2.722   0.988   3.429 -0.0801  0.1150 -0.5955
  269MOL0     C36205   2.593   1.028   3.467 -0.0088  0.7795  0.2748
  269MOL0     C36206   2.544   0.961   3.580  0.7207 -1.0322 -0.4731
  269MOL0     C36207   2.414   0.977   3.630  0.2973  0.5691  0.5316
  269MOL0     C36208   2.363   0.882   3.730 -0.7570  0.5654 -1.1946
  269MOL0     C36209   2.334   1.075   3.567 -0.8615 -0.8838 -0.4093
  269MOL0     C36210   2.187   1.105   3.606  0.0458  0.6155 -0.5274
  269MOL0     O36211   2.111   1.171   3.519  0.1553  0.0767 -0.9454
  269MOL0     C36212   1.983   1.193   3.550 -0.3369  0.4173 -0.2920
  269MOL0     C36213   1.881   1.104   3.584 -0.4133  0.2952 -0.6864
  269MOL0     C36214   1.752   1.150   3.614 -1.1693  0.8640 -1.1014
  269MOL0     C36215   1.713   1.286   3.604 -0.4389  0.4354 -0.5397
  269MOL0     O36216   1.575   1.310   3.630 -0.7111  0.5335 -0.2223
  269MOL0     C36217   1.532   1.443   3.630 -0.0232  0.6685 -0.8270
  269MOL0     C36218   1.424   1.445   3.524 -0.7712  0.0792  0.9360
  269MOL0     C36219   1.381   1.584   3.493  0.2583  0.5154  0.3443
  269MOL0     C36220   1.227   1.578   3.503 -0.7439  0.1018  0.3098
  269MOL0     C36221   1.174   1.719   3.477  0.2526  0.3371 -0.2647
  269MOL0     C36222   1.027   1.731   3.483  0.6479  1.1382  0.0017
  269MOL0     C36223   0.998   1.883   3.476  0.2898 -0.3454  0.7923
  269MOL0     C36224   0.845   1.912   3.463  0.0790 -0.0394  0.6110
  269MOL0    Cl36225   0.811   2.082   3.417  0.1386 -0.2705 -0.1536
  269MOL0     C36226   1.815   1.370   3.562  0.2228  0.5601  0.1182
  269MOL0     C36227   1.943   1.329   3.554 -1.3161 -0.6623  0.3996
  269MOL0     O36228   2.160   1.084   3.721  0.3960  0.7860 -0.6891
  269MOL0     C36229   2.389   1.151   3.452  1.2002  0.1635  0.0314
  269MOL0     C36230   2.518   1.124   3.397  1.0539 -0.4912 -0.4674
  269MOL0     N36231   3.017   1.137   2.925  0.3582  0.4016 -0.2910
  269MOL0     N36232   3.115   1.081   2.846  0.7228 -0.5955 -0.4769
  269MOL0     C36233   4.420   0.652   3.055  0.4702  0.0523 -0.0294
  269MOL0     C36234   4.521   0.564   3.093  0.8036 -0.0690 -0.8533
  269MOL0     C36235   4.915   0.339   2.991 -1.3982  0.9311  1.1702
  269MOL0     C36236   4.898   0.204   3.040 -0.3780 -0.1800  0.9211
  269MOL0     C36237   5.003   0.113   3.033  0.2982 -0.5439 -0.4871
  269MOL0     C36238   5.137   0.151   2.995 -0.4015 -0.5416  0.9954
  269MOL0     O36239   5.245   0.077   3.003  0.1144  0.7169 -0.5254
  269MOL0     C36240   5.221  -0.054   2.948 -0.3331  0.0516 -0.2180
  269MOL0     C36241   5.346  -0.126   2.934 -0.1683 -0.3160  0.1416
  269MOL0     C36242   5.424  -0.074   2.807  0.6347  0.4530  0.3312
  269MOL0     C36243   5.358  -0.113   2.670 -0.5360 -0.3910 -1.0986
  269MOL0     C36244   5.364  -0.261   2.639  0.1119 -0.6060 -0.5206
  269MOL0     C36245   5.388  -0.378   2.611  0.8309 -0.5203  0.6254
  269MOL0     C36246   5.159   0.281   2.965 -0.2209  0.4456 -0.3443
  269MOL0     C36247   5.048   0.378   2.959 -0.0095  0.4322  0.2115
  269MOL0     H36248   4.577   0.404   2.806  1.1174 -0.2629  1.0314
  269MOL0     H36249   4.366   0.534   2.743 -2.4164  1.0808  1.6504
  269MOL0     H36250   4.131   0.589   2.931  0.9675 -0.1291  2.9483
  269MOL0     H36251   4.150   0.722   3.043  1.2301 -0.7138 -0.7919
  269MOL0     H36252   4.062   0.881   2.852  0.0508  0.2874 -1.7500
  269MOL0     H36253   4.021   0.743   2.758 -5.8406  1.8659  0.5966
  269MOL0     H36254   3.869   0.656   2.940  2.3599 -1.6387 -1.7654
  269MOL0     H36255   3.897   0.797   3.044 -1.3490  0.8472  0.2469
  269MOL0     H36256   3.830   0.965   2.866 -3.7155  1.0113  2.1625
  269MOL0     H36257   3.788   0.812   2.766 -2.5980 -1.8937  1.9453
  269MOL0     H36258   3.628   0.754   2.960 -0.2072 -1.2012 -1.7282
  269MOL0     H36259   3.672   0.896   3.033 -1.0395 -3.8065  1.4382
  269MOL0     H36260   3.629   1.026   2.832  1.9853 -1.2204  0.3103
  269MOL0     H36261   3.561   0.890   2.743 -0.6630 -4.0323  1.8200
  269MOL0     H36262   3.375   0.874   2.838  3.0809 -1.1678 -0.5227
  269MOL0     H36263   3.428   0.936   3.002  2.0722 -0.4700  0.0859
  269MOL0     H36264   3.356   1.082   2.741  0.5468 -0.7266  0.4352
  269MOL0     H36265   3.439   1.169   2.878  2.4847 -1.3400  0.1957
  269MOL0     H36266   3.279   1.161   3.117 -0.5884  2.0823  0.5366
  269MOL0     H36267   3.050   1.322   3.176  1.4224 -1.5005 -0.2281
  269MOL0     H36268   2.894   1.231   3.126  0.2900 -3.3317 -0.2741
  269MOL0     H36269   3.001   1.204   3.377  0.4197  1.5087 -1.7157
  269MOL0     H36270   3.122   1.106   3.289  0.9211 -0.3041  0.1833
  269MOL0     H36271   2.947   0.983   3.403 -0.2598  1.8377  2.2356
  269MOL0     H36272   2.939   0.951   3.220 -1.1641  2.7876 -2.4470
  269MOL0     H36273   2.732   1.039   3.222 -2.0079 -0.0034  0.8938
  269MOL0     H36274   2.766   1.171   3.319 -0.0762  0.6092  1.9740
  269MOL0     H36275   2.601   0.876   3.617  1.2490 -0.9275 -1.0315
  269MOL0     H36276   2.263   0.841   3.707 -1.3145 -1.6009  3.8603
  269MOL0     H36277   2.428   0.795   3.743 -0.5969  0.5547 -1.9920
  269MOL0     H36278   2.357   0.934   3.826 -2.7853  1.0332 -1.5313
  269MOL0     H36279   1.896   0.997   3.579 -1.2373  0.2449 -2.8497
  269MOL0     H36280   1.684   1.076   3.655  2.6416 -2.4734 -0.2535
  269MOL0     H36281   1.489   1.479   3.724 -0.1493  2.8020 -1.6593
  269MOL0     H36282   1.612   1.514   3.609  2.9340 -1.7212  1.4083
  269MOL0     H36283   1.450   1.399   3.428 -0.3933 -2.2454  2.0995
  269MOL0     H36284   1.337   1.386   3.555 -0.9886 -0.3150 -0.3623
  269MOL0     H36285   1.405   1.605   3.388 -0.2526 -3.4648 -0.7450
  269MOL0     H36286   1.425   1.662   3.554 -0.2264  0.6068  0.5850
  269MOL0     H36287   1.175   1.510   3.435  0.1462 -0.8634  0.5670
  269MOL0     H36288   1.213   1.556   3.609  0.1308 -0.5445  0.3075
  269MOL0     H36289   1.211   1.756   3.381 -0.1226 -2.5544 -1.6534
  269MOL0     H36290   1.207   1.787   3.556  0.1963  0.1538 -0.0803
  269MOL0     H36291   0.986   1.668   3.403 -2.2405 -1.3970  3.1848
  269MOL0     H36292   0.989   1.676   3.569  2.8276 -0.5028  0.0035
  269MOL0     H36293   1.042   1.923   3.385 -0.0372  3.3250  2.0802
  269MOL0     H36294   1.036   1.936   3.564 -2.1779  0.2478  1.6037
  269MOL0     H36295   0.798   1.890   3.560  1.3322  0.0827  1.2691
  269MOL0     H36296   0.801   1.852   3.383  0.8629 -0.1928  0.2806
  269MOL0     H36297   1.788   1.475   3.569  0.3527  0.7059 -1.3260
  269MOL0     H36298   2.008   1.413   3.533  0.2280 -1.9425 -0.1749
  269MOL0     H36299   2.328   1.213   3.388  0.7993  1.0088  1.1942
  269MOL0     H36300   2.551   1.171   3.305 -0.0043 -1.1704 -1.2092
  269MOL0     H36301   4.373   0.718   3.127 -0.1541 -2.1208  1.6461
  269MOL0     H36302   4.549   0.577   3.197 -0.9878  2.7691 -0.6191
  269MOL0     H36303   4.798   0.169   3.065  0.0195 -1.5382  0.7376
  269MOL0     H36304   4.991   0.018   3.085  0.8101 -1.5640 -2.1688
  269MOL0     H36305   5.159  -0.119   3.012 -1.2171 -0.0083 -1.1153
  269MOL0     H36306   5.169  -0.046   2.853  1.3445  0.9861 -1.1072
  269MOL0     H36307   5.331  -0.233   2.915  0.9999 -0.0713 -2.7098
  269MOL0     H36308   5.403  -0.111   3.027  1.5805  0.8392 -1.0398
  269MOL0     H36309   5.530  -0.105   2.809  0.3451 -0.5608  0.8215
  269MOL0     H36310   5.436   0.034   2.805  0.6654  0.4732 -2.5741
  269MOL0     H36311   5.399  -0.056   2.585  0.6367 -0.5449 -0.6574
  269MOL0     H36312   5.251  -0.090   2.667 -0.4852 -0.0822 -0.6673
  269MOL0     H36313   5.419  -0.475   2.579 -2.0191 -0.8135 -1.6754
  269MOL0     H36314   5.261   0.315   2.951 -0.7621  1.6643 -1.5270
  269MOL0     H36315   5.068   0.479   2.927  1.8543  0.4915  1.4149
  270MOL0     O36316   9.427   3.223  10.809  0.6152  0.1581  0.4997
  270MOL0     C36317   9.484   3.320  10.764  0.6624  0.0531  0.0314
  270MOL0     O36318   9.433   3.419  10.686 -0.0900 -0.4810 -0.3996
  270MOL0     C36319   9.296   3.431  10.679  0.0025  0.2405 -0.1856
  270MOL0     C36320   9.244   3.459  10.556  0.0028  0.9539  0.6734
  270MOL0     C36321   9.103   3.470  10.535  0.9485  0.2904  0.0651
  270MOL0     C36322   9.014   3.457  10.643  0.2298  0.0864 -1.2502
  270MOL0     O36323   8.876   3.478  10.636 -0.4119  0.4625  0.5214
  270MOL0     C36324   8.808   3.594  10.697 -0.2337  1.4677 -0.1605
  270MOL0     C36325   8.711   3.525  10.790  0.4712 -0.3137 -0.1543
  270MOL0     C36326   8.594   3.626  10.829 -0.0633 -0.2775 -0.1795
  270MOL0     C36327   8.481   3.558  10.912  0.7208 -0.2272  0.5240
  270MOL0     C36328   8.361   3.653  10.935  1.0383  0.0337 -0.1062
  270MOL0     C36329   8.262   3.643  10.819 -0.0781 -0.3473 -0.5947
  270MOL0     C36330   8.158   3.750  10.837  0.1444  0.6156 -0.5138
  270MOL0     C36331   8.063   3.733  10.710 -0.3581  0.1567 -0.0275
  270MOL0     N36332   7.958   3.630  10.725  0.0492 -0.3664 -0.1355
  270MOL0     C36333   7.978   3.498  10.712 -0.4893 -0.4403 -0.3273
  270MOL0     C36334   7.854   3.443  10.726 -0.3986 -0.0873  0.0191
  270MOL0     C36335   7.830   3.294  10.734  0.1685 -0.3814  0.1881
  270MOL0     C36336   7.694   3.261  10.806 -0.7770 -0.1574 -0.0209
  270MOL0     C36337   7.646   3.118  10.780 -1.4301 -0.0244 -0.1829
  270MOL0     C36338   7.592   3.110  10.638  0.5681 -0.1625  0.6666
  270MOL0     O36339   7.519   2.987  10.625 -0.0538  0.2770  0.0514
  270MOL0     C36340   7.380   3.006  10.621  0.0157 -0.1640 -0.2002
  270MOL0     C36341   7.303   2.923  10.545  0.4059  0.1782 -0.3564
  270MOL0     C36342   7.165   2.923  10.545 -0.1334 -0.0884  1.0837
  270MOL0     C36343   7.103   2.836  10.439 -0.3522  0.2624 -0.1437
  270MOL0     C36344   7.094   3.008  10.635  0.5947  0.5089  0.5631
  270MOL0     C36345   6.944   3.009  10.651 -0.3845 -0.3376 -0.1118
  270MOL0     O36346   6.901   3.108  10.735 -0.4140 -0.0805 -0.4302
  270MOL0     C36347   6.761   3.116  10.742  0.4542  0.0071  0.9649
  270MOL0     C36348   6.689   3.187  10.636  0.6153  0.2812 -0.2073
  270MOL0     C36349   6.549   3.194  10.640  0.0523 -0.6204 -0.3216
  270MOL0     C36350   6.480   3.118  10.746 -0.5253 -0.3308  1.0589
  270MOL0     O36351   6.342   3.116  10.759 -0.1418  0.1261 -0.5148
  270MOL0     C36352   6.250   3.168  10.665 -0.1518  0.2662 -0.1558
  270MOL0     C36353   6.126   3.216  10.734  0.5960  0.4482  0.2594
  270MOL0     C36354   6.062   3.101  10.816 -0.8724 -0.4735 -0.4520
  270MOL0     C36355   5.983   3.151  10.941 -0.4628 -0.6860  0.8078
  270MOL0     C36356   5.865   3.235  10.918  0.4964 -0.1617  1.1392
  270MOL0     C36357   5.824   3.315  11.038  0.1053  0.0416  0.1198
  270MOL0     C36358   5.689   3.391  11.025  0.2858  0.0852  0.5171
  270MOL0     C36359   5.685   3.538  10.979  0.3730 -0.0983 -0.6096
  270MOL0    Cl36360   5.738   3.546  10.815  0.1913 -0.2522  0.0874
  270MOL0     C36361   6.554   3.045  10.843  0.5732  0.2956  0.1569
  270MOL0     C36362   6.692   3.057  10.845 -0.4707  0.3987 -0.2266
  270MOL0     O36363   6.876   2.929  10.595 -0.0788  0.3541  0.6590
  270MOL0     C36364   7.175   3.087  10.715 -0.3371 -0.1510 -0.2734
  270MOL0     C36365   7.313   3.091  10.703  0.4136 -0.3317  0.1461
  270MOL0     N36366   7.763   3.541  10.751  0.2891  0.5005  0.0957
  270MOL0     N36367   7.825   3.653  10.740  0.8941 -0.6136  0.1656
  270MOL0     C36368   9.073   3.426  10.764 -0.2326 -0.0318 -0.1411
  270MOL0     C36369   9.212   3.415  10.786 -0.2149  0.1535  0.1751
  270MOL0     C36370   9.616   3.343  10.817  0.1016  0.6395  0.2718
  270MOL0     C36371   9.668   3.274  10.929  0.2168  0.4328 -1.0010
  270MOL0     C36372   9.793   3.314  10.978 -0.1167 -0.5404  1.0266
  270MOL0     C36373   9.871   3.419  10.916 -0.5607 -0.4562 -0.8519
  270MOL0     O36374   9.985   3.456  10.980 -1.0278 -0.8871 -0.7927
  270MOL0     C36375   9.985   3.603  11.006  0.1044  0.1821 -0.1977
  270MOL0     C36376  10.083   3.675  10.904  0.6745  0.0837 -0.0590
  270MOL0     C36377  10.228   3.618  10.903  0.4197 -0.0079  0.2129
  270MOL0     C36378  10.339   3.690  10.831 -0.2378 -0.2540  0.3092
  270MOL0     C36379  10.467   3.617  10.851  0.2741 -0.5619  0.4952
  270MOL0     C36380  10.558   3.543  10.854 -0.3663 -0.6156 -1.0169
  270MOL0     C36381   9.825   3.478  10.805 -0.0804 -0.9700 -0.5607
  270MOL0     C36382   9.694   3.444  10.759  0.0139  0.4076 -1.0301
  270MOL0     H36383   9.315   3.466  10.474 -1.1205  3.0279 -0.2067
  270MOL0     H36384   9.062   3.478  10.435 -1.9078  0.2996  1.1537
  270MOL0     H36385   8.876   3.668  10.741  0.7074  2.5444 -3.1587
  270MOL0     H36386   8.763   3.653  10.617  2.1757  2.1450 -1.1054
  270MOL0     H36387   8.664   3.437  10.745  0.7335  0.0631 -1.1773
  270MOL0     H36388   8.766   3.491  10.879 -0.7736 -1.7756  0.1106
  270MOL0     H36389   8.641   3.717  10.866 -0.1383 -0.2542 -0.1397
  270MOL0     H36390   8.545   3.659  10.737  1.6326  3.3437  0.0807
  270MOL0     H36391   8.438   3.466  10.869 -1.6182  0.1170  1.9431
  270MOL0     H36392   8.515   3.530  11.012  4.7794 -1.3033 -0.9504
  270MOL0     H36393   8.313   3.617  11.026  2.5844  0.3976  0.8817
  270MOL0     H36394   8.384   3.759  10.951 -3.5367  1.1868  0.2704
  270MOL0     H36395   8.314   3.662  10.724  0.6019  0.6220 -0.0461
  270MOL0     H36396   8.219   3.543  10.819 -0.9018 -0.0251 -2.1481
  270MOL0     H36397   8.095   3.731  10.925  3.0887  0.0888  1.6558
  270MOL0     H36398   8.205   3.847  10.854 -1.8121  1.3175  1.3787
  270MOL0     H36399   8.122   3.713  10.621 -2.5574  0.9675 -1.7696
  270MOL0     H36400   8.007   3.827  10.701 -0.1374  0.2726 -0.1903
  270MOL0     H36401   8.072   3.451  10.686  0.7681  0.6685  1.8988
  270MOL0     H36402   7.829   3.246  10.636 -3.0004 -0.1552  0.0368
  270MOL0     H36403   7.908   3.250  10.798  1.2614  2.5894  1.0460
  270MOL0     H36404   7.619   3.341  10.799 -0.9828 -0.4632 -1.8219
  270MOL0     H36405   7.712   3.249  10.913 -0.1063 -2.0848 -0.3104
  270MOL0     H36406   7.566   3.096  10.851  0.8444  0.8631  2.8817
  270MOL0     H36407   7.726   3.046  10.797  0.4925  2.2347  0.9763
  270MOL0     H36408   7.677   3.103  10.569  0.8002 -1.8270  1.0506
  270MOL0     H36409   7.533   3.199  10.617  1.3746  0.2422  0.0657
  270MOL0     H36410   7.358   2.855  10.481 -0.7013  0.0123 -1.1482
  270MOL0     H36411   7.032   2.884  10.372 -1.1859 -1.9421 -0.9377
  270MOL0     H36412   7.189   2.795  10.384 -0.6351 -1.4581  0.6036
  270MOL0     H36413   7.056   2.754  10.494 -0.4330  0.1388 -0.3947
  270MOL0     H36414   6.739   3.236  10.553 -0.9818  1.4706 -0.5132
  270MOL0     H36415   6.487   3.256  10.575 -0.8032 -0.0116  1.0412
  270MOL0     H36416   6.290   3.257  10.615 -0.8110 -0.3311 -1.8154
  270MOL0     H36417   6.223   3.097  10.587 -0.9288 -1.1157  1.3189
  270MOL0     H36418   6.154   3.299  10.799 -0.7104  2.3088 -1.4244
  270MOL0     H36419   6.054   3.246  10.657 -0.9860 -1.2762  0.9726
  270MOL0     H36420   6.137   3.034  10.857  0.2791  0.7126 -0.5617
  270MOL0     H36421   5.987   3.042  10.761 -0.2649  0.7258 -2.7018
  270MOL0     H36422   5.954   3.061  10.996 -2.3574 -1.0992 -0.7349
  270MOL0     H36423   6.052   3.212  11.000  2.7958 -1.9820 -1.3851
  270MOL0     H36424   5.789   3.165  10.882  1.5361 -1.3303  1.1427
  270MOL0     H36425   5.891   3.311  10.844  0.6610 -1.5524 -0.2868
  270MOL0     H36426   5.817   3.240  11.117 -2.7342  0.7430  0.6492
  270MOL0     H36427   5.901   3.386  11.068 -1.1315  0.8994  1.4535
  270MOL0     H36428   5.635   3.381  11.120 -1.2487  0.5865 -0.2542
  270MOL0     H36429   5.630   3.323  10.963 -0.2230 -1.8885  3.0051
  270MOL0     H36430   5.578   3.561  10.980 -0.3700 -2.8438 -2.8656
  270MOL0     H36431   5.736   3.603  11.051 -1.8554  0.1371  0.8535
  270MOL0     H36432   6.504   2.988  10.921  1.8490 -1.4663 -0.2691
  270MOL0     H36433   6.754   2.998  10.912 -0.8413  0.6925  0.3813
  270MOL0     H36434   7.126   3.157  10.783 -1.6419  0.6920 -2.0197
  270MOL0     H36435   7.372   3.160  10.764  0.3928 -0.6791  0.5648
  270MOL0     H36436   9.014   3.409  10.853  4.3311 -3.1864  2.7333
  270MOL0     H36437   9.243   3.388  10.887  2.4894 -1.3763 -0.9659
  270MOL0     H36438   9.607   3.204  10.984  0.5648  0.6744 -0.2903
  270MOL0     H36439   9.831   3.272  11.070 -0.4741  0.9705  1.8993
  270MOL0     H36440   9.884   3.645  11.010  0.0479  0.1723 -1.2274
  270MOL0     H36441  10.011   3.615  11.112 -1.9413  2.4003  0.1230
  270MOL0     H36442  10.088   3.776  10.946 -1.6448 -0.3026  1.3147
  270MOL0     H36443  10.033   3.669  10.807  0.7051 -0.0873 -0.0650
  270MOL0     H36444  10.208   3.529  10.842  0.5728 -2.2870  3.2543
  270MOL0     H36445  10.248   3.570  10.999 -0.2335  0.8496  0.7981
  270MOL0     H36446  10.354   3.793  10.866  1.8755 -0.0501 -1.0605
  270MOL0     H36447  10.319   3.706  10.725 -0.3282 -0.2349  0.3284
  270MOL0     H36448  10.650   3.488  10.848  0.4408  0.0736  2.6064
  270MOL0     H36449   9.888   3.554  10.760  0.1196  0.3047  1.7208
  270MOL0     H36450   9.669   3.502  10.670  2.0148 -0.5713 -2.2968
  271MOL0     O36451   7.691   6.386   2.851  0.6590 -0.4043  0.1072
  271MOL0     C36452   7.704   6.467   2.760 -0.7165 -0.4730 -0.2541
  271MOL0     O36453   7.624   6.499   2.663  0.1806  0.5386  0.1106
  271MOL0     C36454   7.497   6.457   2.673 -0.0301 -0.3550 -0.3987
  271MOL0     C36455   7.434   6.379   2.574  0.3502  0.4667 -0.6334
  271MOL0     C36456   7.297   6.351   2.573  0.7614 -0.6154 -0.2422
  271MOL0     C36457   7.213   6.405   2.669  0.4503 -0.7204 -0.0790
  271MOL0     O36458   7.079   6.396   2.678  0.3208  0.3677 -0.2434
  271MOL0     C36459   7.025   6.275   2.615  0.4970 -0.6572 -0.5365
  271MOL0     C36460   6.880   6.243   2.662 -0.2759 -0.1255  0.1602
  271MOL0     C36461   6.798   6.143   2.571 -0.5482 -0.6489 -0.1529
  271MOL0     C36462   6.676   6.093   2.639  0.2133 -0.5195  0.0064
  271MOL0     C36463   6.589   6.204   2.709 -0.2837 -0.3502  0.1015
  271MOL0     C36464   6.461   6.137   2.756 -0.2489 -0.2461 -0.3865
  271MOL0     C36465   6.378   6.234   2.841 -0.9420 -0.4505  0.6792
  271MOL0     C36466   6.245   6.161   2.888  0.4798  0.3065 -0.0054
  271MOL0     N36467   6.139   6.250   2.950 -0.2430  0.5491  0.8339
  271MOL0     C36468   6.039   6.313   2.871 -0.7074  0.4783 -0.5132
  271MOL0     C36469   5.944   6.349   2.965  0.3667 -1.1801 -0.3424
  271MOL0     C36470   5.818   6.434   2.948  0.9116  0.2714 -0.2275
  271MOL0     C36471   5.722   6.337   2.875 -0.1915  0.0534 -0.7721
  271MOL0     C36472   5.572   6.325   2.916  0.0727  0.2254 -0.0072
  271MOL0     C36473   5.486   6.436   2.854 -0.3726  0.0865  0.2788
  271MOL0     O36474   5.465   6.535   2.955  0.5857  0.1620 -0.0368
  271MOL0     C36475   5.371   6.636   2.924 -0.4603 -0.5707 -0.1678
  271MOL0     C36476   5.279   6.637   2.819  0.0385  0.6556 -0.0039
  271MOL0     C36477   5.186   6.743   2.808 -0.3765 -0.0353  0.3750
  271MOL0     C36478   5.099   6.738   2.688  0.7867 -0.1908  0.0377
  271MOL0     C36479   5.178   6.847   2.906 -0.1234  0.2899  0.0031
  271MOL0     C36480   5.092   6.960   2.895 -0.2405 -0.4696 -0.2736
  271MOL0     O36481   5.131   7.070   2.951 -0.2690  0.0827 -0.4410
  271MOL0     C36482   5.045   7.178   2.944 -0.3898  0.9993 -0.3744
  271MOL0     C36483   4.913   7.183   2.998 -0.9609  0.0293 -0.3876
  271MOL0     C36484   4.833   7.294   2.997 -0.6299 -0.5226  0.5796
  271MOL0     C36485   4.876   7.407   2.926  0.3062  0.8915  0.3422
  271MOL0     O36486   4.801   7.529   2.909  0.0417  0.9379  0.5462
  271MOL0     C36487   4.657   7.517   2.913 -1.4401  0.5891 -1.6047
  271MOL0     C36488   4.594   7.657   2.895  0.0470 -0.0609 -0.1860
  271MOL0     C36489   4.440   7.642   2.903 -0.6644 -0.1103 -0.5010
  271MOL0     C36490   4.375   7.772   2.881  0.4343  0.3333 -0.8831
  271MOL0     C36491   4.362   7.810   2.729  0.8131 -1.0402 -0.2112
  271MOL0     C36492   4.280   7.938   2.711 -0.0047  0.1680  0.5565
  271MOL0     C36493   4.286   7.983   2.564 -0.0582 -0.1737 -0.0238
  271MOL0     C36494   4.234   8.131   2.551  0.0163 -0.2849 -0.7027
  271MOL0    Cl36495   4.262   8.192   2.396  0.0858  0.1316  0.2180
  271MOL0     C36496   5.009   7.402   2.878 -0.0702  0.3054  0.2817
  271MOL0     C36497   5.098   7.294   2.892  0.0638 -0.1538  0.0930
  271MOL0     O36498   4.981   6.938   2.847  0.2784 -0.0570  0.8624
  271MOL0     C36499   5.262   6.834   3.019  0.0848  0.5559 -0.1557
  271MOL0     C36500   5.358   6.736   3.016 -1.2932 -0.5932 -0.7622
  271MOL0     N36501   5.981   6.298   3.085 -0.0351  0.0126 -0.3395
  271MOL0     N36502   6.093   6.243   3.080  0.1172  0.4365  0.1512
  271MOL0     C36503   7.274   6.482   2.768  0.9594 -0.0569  0.2781
  271MOL0     C36504   7.413   6.504   2.773 -0.2618  0.1861 -0.3213
  271MOL0     C36505   7.834   6.529   2.763  0.5653  0.2449 -0.2929
  271MOL0     C36506   7.851   6.658   2.722  0.0919 -0.0811  0.1824
  271MOL0     C36507   7.980   6.721   2.713 -1.1543  0.0431 -0.4528
  271MOL0     C36508   8.095   6.643   2.758  0.1928 -0.2299  0.8631
  271MOL0     O36509   8.235   6.668   2.734  0.1366  0.0110  0.3029
  271MOL0     C36510   8.269   6.801   2.700 -1.3051  0.4421 -1.0458
  271MOL0     C36511   8.414   6.825   2.744  0.4995 -0.1805  1.0260
  271MOL0     C36512   8.473   6.956   2.685 -0.6602 -0.2509  0.6688
  271MOL0     C36513   8.630   6.940   2.651 -0.2897  0.6751  0.1718
  271MOL0     C36514   8.668   7.024   2.544 -1.0446 -0.3978 -0.3245
  271MOL0     C36515   8.699   7.115   2.473  0.5721  0.2255  0.2964
  271MOL0     C36516   8.076   6.523   2.821  0.5337  1.0775  0.8876
  271MOL0     C36517   7.948   6.463   2.823 -0.4473  0.4221  1.1521
  271MOL0     H36518   7.495   6.347   2.490  1.0876  1.5333 -0.5311
  271MOL0     H36519   7.248   6.295   2.495 -0.6513  2.5385 -1.7940
  271MOL0     H36520   7.033   6.292   2.507  1.5778 -1.1996 -0.5520
  271MOL0     H36521   7.093   6.194   2.644 -1.4421 -1.2550  2.9379
  271MOL0     H36522   6.884   6.208   2.765 -1.3347  0.3948  0.3939
  271MOL0     H36523   6.825   6.338   2.664  0.3285  0.2206  0.8114
  271MOL0     H36524   6.767   6.187   2.476 -0.7334 -1.0808 -0.2977
  271MOL0     H36525   6.861   6.055   2.554 -0.4629 -1.0752  2.0194
  271MOL0     H36526   6.622   6.031   2.566  3.0463 -0.6544 -2.1469
  271MOL0     H36527   6.703   6.035   2.728  2.9242  2.6308  1.4414
  271MOL0     H36528   6.636   6.259   2.791 -2.4064 -0.9335  1.7742
  271MOL0     H36529   6.573   6.272   2.625  1.7199 -0.3480 -0.3440
  271MOL0     H36530   6.404   6.104   2.669 -0.8728  0.9576 -0.4546
  271MOL0     H36531   6.480   6.052   2.823 -0.9956 -0.3738 -0.3256
  271MOL0     H36532   6.436   6.262   2.929 -2.1081  0.4399  1.1943
  271MOL0     H36533   6.346   6.316   2.777  0.1867  0.3669  1.1360
  271MOL0     H36534   6.271   6.075   2.951 -0.1971 -0.4364 -0.7150
  271MOL0     H36535   6.203   6.126   2.794  1.1151  0.3616 -0.3197
  271MOL0     H36536   6.043   6.331   2.764  0.9035  1.2801 -0.3547
  271MOL0     H36537   5.774   6.468   3.043 -1.4743  1.5125 -1.6931
  271MOL0     H36538   5.847   6.522   2.890  2.9566 -0.0561  0.2463
  271MOL0     H36539   5.766   6.237   2.873  0.2924  0.2648 -2.4273
  271MOL0     H36540   5.728   6.368   2.770  0.1379  0.1281 -0.7315
  271MOL0     H36541   5.559   6.327   3.024 -1.3039 -1.7507 -0.0822
  271MOL0     H36542   5.530   6.231   2.879  0.7776  0.4818 -1.5470
  271MOL0     H36543   5.386   6.396   2.836 -0.2999 -0.0209  0.1170
  271MOL0     H36544   5.531   6.469   2.760 -0.9687  0.1965  0.0220
  271MOL0     H36545   5.283   6.558   2.745  0.0599  0.3240  0.3522
  271MOL0     H36546   5.131   6.654   2.625  1.4817 -0.1539  0.3328
  271MOL0     H36547   4.998   6.714   2.723 -0.0358  0.5508 -1.7251
  271MOL0     H36548   5.097   6.837   2.643 -1.8003  0.1354  0.7009
  271MOL0     H36549   4.879   7.103   3.062  1.3358 -2.6824 -2.3102
  271MOL0     H36550   4.733   7.292   3.041 -0.8815  1.9551  0.2447
  271MOL0     H36551   4.631   7.448   2.832  0.8050 -2.3951  0.0349
  271MOL0     H36552   4.630   7.478   3.011  1.3200 -0.1226 -1.0636
  271MOL0     H36553   4.641   7.724   2.967  3.6039  0.9190 -3.1075
  271MOL0     H36554   4.623   7.692   2.795 -1.2266  1.0319 -0.2045
  271MOL0     H36555   4.409   7.614   3.004 -1.2674 -1.4400 -1.0344
  271MOL0     H36556   4.403   7.569   2.830  0.1597 -0.5340 -0.5074
  271MOL0     H36557   4.275   7.776   2.926  0.9944  2.0293  0.3340
  271MOL0     H36558   4.434   7.847   2.935 -0.9945  0.4114  0.6577
  271MOL0     H36559   4.310   7.729   2.675 -0.9544  0.4793 -0.8878
  271MOL0     H36560   4.459   7.840   2.687  0.0247  1.7388 -0.2255
  271MOL0     H36561   4.177   7.933   2.749  0.6748 -0.3169  2.4291
  271MOL0     H36562   4.310   8.018   2.779  1.7309 -1.5390  1.9325
  271MOL0     H36563   4.223   7.913   2.507 -0.8649 -0.5024  1.2296
  271MOL0     H36564   4.389   7.987   2.528  0.3669 -2.2720  0.7669
  271MOL0     H36565   4.287   8.197   2.620 -2.2218  2.4668 -1.4103
  271MOL0     H36566   4.126   8.127   2.573 -0.8062  2.2296 -3.6389
  271MOL0     H36567   5.048   7.494   2.835 -0.4663  0.7503  0.8580
  271MOL0     H36568   5.200   7.299   2.852  0.2320  1.6786  0.6652
  271MOL0     H36569   5.250   6.893   3.109  1.5925 -0.8673  1.0391
  271MOL0     H36570   5.424   6.739   3.103 -3.4661 -0.4988  0.9678
  271MOL0     H36571   7.206   6.531   2.838 -0.9946  0.6042 -1.9414
  271MOL0     H36572   7.456   6.560   2.856 -0.4461 -0.7374  0.4239
  271MOL0     H36573   7.767   6.707   2.675  1.0672  1.2942 -0.1890
  271MOL0     H36574   7.985   6.821   2.671 -1.4585  0.8341  1.3137
  271MOL0     H36575   8.254   6.799   2.592  0.7456 -3.1617 -1.4229
  271MOL0     H36576   8.210   6.881   2.746 -0.7610  1.8490 -2.6697
  271MOL0     H36577   8.474   6.746   2.698 -1.7705 -0.6319 -1.4828
  271MOL0     H36578   8.420   6.820   2.853  2.1916 -2.7068  0.8847
  271MOL0     H36579   8.467   7.018   2.775  0.8329 -1.3621  1.5847
  271MOL0     H36580   8.425   6.988   2.592  1.6484 -0.5838 -0.7177
  271MOL0     H36581   8.640   6.835   2.622 -1.6473  1.0754 -1.9824
  271MOL0     H36582   8.687   6.954   2.743 -2.8050  0.2950  1.8922
  271MOL0     H36583   8.721   7.200   2.412  1.0081  0.5474  0.8972
  271MOL0     H36584   8.161   6.461   2.848  1.5648  2.4953  1.0642
  271MOL0     H36585   7.931   6.360   2.855 -2.0983 -0.2234 -1.4671
  272MOL0     O36586  10.715   4.715   2.484 -0.0934 -0.4679 -0.0335
  272MOL0     C36587  10.770   4.694   2.379 -0.1795  0.2066 -0.8200
  272MOL0     O36588  10.710   4.690   2.259  0.4375 -0.1249  0.9855
  272MOL0     C36589  10.572   4.698   2.244  0.1242  0.0998 -0.6109
  272MOL0     C36590  10.510   4.611   2.154 -0.4720  0.3232  0.0810
  272MOL0     C36591  10.372   4.610   2.128 -0.1366 -0.2316 -0.5643
  272MOL0     C36592  10.283   4.701   2.202 -0.0568 -0.0373 -1.3596
  272MOL0     O36593  10.145   4.698   2.188 -0.4784  0.2401  0.1276
  272MOL0     C36594  10.093   4.833   2.158  0.0257  0.6528 -0.0156
  272MOL0     C36595   9.947   4.797   2.120 -0.7767  0.1778  0.6681
  272MOL0     C36596   9.848   4.900   2.156  1.1543 -0.2360  0.5751
  272MOL0     C36597   9.757   4.861   2.275 -0.1396 -0.4702 -0.0150
  272MOL0     C36598   9.652   4.971   2.323  0.1299  0.0233  0.3005
  272MOL0     C36599   9.553   5.028   2.214 -0.0029  0.4828  0.6446
  272MOL0     C36600   9.442   4.939   2.164 -0.3320  0.5317 -0.1304
  272MOL0     C36601   9.372   4.991   2.040  0.1038  0.3218  1.0619
  272MOL0     N36602   9.460   4.977   1.922  0.2689  0.2787 -0.2719
  272MOL0     C36603   9.521   4.862   1.867 -0.1503 -0.3112  0.2269
  272MOL0     C36604   9.597   4.908   1.766 -0.8201 -0.9382  0.5571
  272MOL0     C36605   9.675   4.812   1.678  0.7920  0.3713 -0.4834
  272MOL0     C36606   9.826   4.807   1.717  0.3056  0.5757 -0.3341
  272MOL0     C36607   9.927   4.740   1.623 -0.1592 -0.2775 -0.5235
  272MOL0     C36608   9.917   4.592   1.621  0.1559 -0.2850 -0.5342
  272MOL0     O36609   9.990   4.524   1.726 -0.2918 -0.1357 -0.2828
  272MOL0     C36610  10.131   4.512   1.721  0.4770 -0.1922 -0.6112
  272MOL0     C36611  10.216   4.569   1.629  0.3637 -0.1953 -0.0450
  272MOL0     C36612  10.353   4.553   1.626  1.1664 -0.4289 -0.1128
  272MOL0     C36613  10.428   4.611   1.504  0.6714 -0.1667 -0.1206
  272MOL0     C36614  10.414   4.472   1.728 -0.0394  0.4798  0.0733
  272MOL0     C36615  10.554   4.467   1.749 -0.2163 -0.5845  0.2388
  272MOL0     O36616  10.595   4.393   1.850  0.1934  0.2012 -0.4976
  272MOL0     C36617  10.718   4.399   1.914  0.5565 -0.2611  0.9636
  272MOL0     C36618  10.719   4.330   2.035  0.0206  0.7451  0.0314
  272MOL0     C36619  10.822   4.325   2.127  1.0054  0.1863  0.3715
  272MOL0     C36620  10.943   4.369   2.076  0.4252  0.7381 -0.1371
  272MOL0     O36621  11.058   4.355   2.151 -0.2770  0.3707 -0.0507
  272MOL0     C36622  11.063   4.238   2.225  0.8101  0.0436 -0.0089
  272MOL0     C36623  11.197   4.239   2.292 -0.0256  0.1756 -0.4248
  272MOL0     C36624  11.309   4.226   2.191  0.4221 -0.0908 -0.8015
  272MOL0     C36625  11.378   4.084   2.191  0.0066 -1.1324  0.1748
  272MOL0     C36626  11.474   4.072   2.071  0.1734 -0.7644  0.2102
  272MOL0     C36627  11.528   3.935   2.039  0.4628  0.0761 -0.6271
  272MOL0     C36628  11.604   3.932   1.904  0.2814 -0.5398 -0.4977
  272MOL0     C36629  11.725   3.838   1.927  0.4152 -0.5442 -0.4495
  272MOL0    Cl36630  11.687   3.670   1.959  0.1776 -0.0106 -0.4674
  272MOL0     C36631  10.956   4.441   1.957 -0.2167  0.0185  0.8858
  272MOL0     C36632  10.842   4.461   1.874  0.5197 -0.1006 -0.2433
  272MOL0     O36633  10.628   4.532   1.675  0.6070  0.0199 -0.3224
  272MOL0     C36634  10.328   4.405   1.823  0.0557 -0.4873  0.0104
  272MOL0     C36635  10.190   4.431   1.821 -0.1329  0.3890 -0.2428
  272MOL0     N36636   9.568   5.047   1.749  0.6357  0.4522  0.1855
  272MOL0     N36637   9.479   5.082   1.834  0.5090  1.2436  0.6296
  272MOL0     C36638  10.343   4.792   2.291 -0.3892  0.3523  0.4341
  272MOL0     C36639  10.487   4.789   2.315 -0.9561  0.3137  0.1527
  272MOL0     C36640  10.920   4.701   2.382  0.2146 -0.0582  0.1516
  272MOL0     C36641  10.989   4.766   2.485  0.2735 -0.1247 -0.3535
  272MOL0     C36642  11.124   4.783   2.473  0.7184  0.1711 -0.2677
  272MOL0     C36643  11.198   4.716   2.374 -0.9571  0.0432  0.4454
  272MOL0     O36644  11.335   4.737   2.365  0.2289  0.1670 -0.5319
  272MOL0     C36645  11.374   4.804   2.241  0.6291  0.5136 -0.3186
  272MOL0     C36646  11.516   4.860   2.251 -0.1173 -1.3756  0.0505
  272MOL0     C36647  11.545   4.973   2.356  0.4871  0.4737 -0.7788
  272MOL0     C36648  11.674   5.034   2.348  0.0590  0.4049 -0.4522
  272MOL0     C36649  11.703   5.150   2.439 -1.1289 -0.2932 -0.1113
  272MOL0     C36650  11.744   5.233   2.517  0.4370  0.8172  0.3243
  272MOL0     C36651  11.129   4.640   2.273 -0.5110 -0.3396 -0.0138
  272MOL0     C36652  10.991   4.644   2.269 -0.0859 -0.7880  0.4645
  272MOL0     H36653  10.578   4.545   2.102  0.1368 -0.1849  1.4526
  272MOL0     H36654  10.338   4.535   2.056  1.3095 -1.6893  0.1916
  272MOL0     H36655  10.097   4.908   2.238 -1.3787  0.7065  0.0228
  272MOL0     H36656  10.142   4.866   2.066  0.8570 -0.4197  0.0298
  272MOL0     H36657   9.925   4.764   2.018  1.3423 -1.4167  0.6591
  272MOL0     H36658   9.919   4.709   2.178 -2.0655  1.0315  1.4096
  272MOL0     H36659   9.909   4.983   2.193  1.8869 -0.4679 -0.0975
  272MOL0     H36660   9.783   4.937   2.076  0.3469 -0.7952  0.9547
  272MOL0     H36661   9.694   4.776   2.246  1.2896 -1.9425  0.9626
  272MOL0     H36662   9.816   4.839   2.365  0.6905  3.0931  0.4516
  272MOL0     H36663   9.590   4.934   2.405 -0.8769  1.1749  0.1038
  272MOL0     H36664   9.710   5.058   2.355 -1.0191  1.9950 -2.5151
  272MOL0     H36665   9.512   5.120   2.254  2.3213  1.1078  1.7590
  272MOL0     H36666   9.612   5.057   2.126  0.0843 -1.9771 -0.1899
  272MOL0     H36667   9.484   4.838   2.152 -1.2221  0.1486 -0.0859
  272MOL0     H36668   9.364   4.930   2.240 -2.9519  0.6268 -2.6440
  272MOL0     H36669   9.341   5.095   2.056 -1.5232 -0.5514  4.3987
  272MOL0     H36670   9.290   4.922   2.020  1.6402 -1.4679  0.6856
  272MOL0     H36671   9.511   4.755   1.886  0.7469 -0.3180  0.7225
  272MOL0     H36672   9.627   4.714   1.680  1.0562  0.2320  1.9351
  272MOL0     H36673   9.660   4.848   1.576 -0.7211 -0.1659 -0.4610
  272MOL0     H36674   9.829   4.758   1.814 -1.1878  4.1022  1.6714
  272MOL0     H36675   9.852   4.913   1.726  2.6869  0.2972 -2.4534
  272MOL0     H36676  10.026   4.779   1.646  0.0695 -0.0760 -1.7916
  272MOL0     H36677   9.895   4.773   1.524  0.6745  0.5338 -0.5292
  272MOL0     H36678   9.955   4.559   1.524  0.0415 -0.1339 -0.6318
  272MOL0     H36679   9.820   4.546   1.640  1.5077 -3.7809 -1.2174
  272MOL0     H36680  10.175   4.630   1.550 -0.4090  0.6275  0.9608
  272MOL0     H36681  10.497   4.690   1.536  3.1308 -2.6620  1.2325
  272MOL0     H36682  10.481   4.532   1.450  2.8534 -1.3002  3.3161
  272MOL0     H36683  10.356   4.658   1.437  3.2765  1.8741 -1.6837
  272MOL0     H36684  10.629   4.275   2.062  1.1105  0.5169  3.7055
  272MOL0     H36685  10.814   4.279   2.225 -0.6702 -0.7688 -0.1801
  272MOL0     H36686  10.992   4.237   2.308  1.0596 -2.2182  0.2583
  272MOL0     H36687  11.053   4.149   2.163 -2.7904 -0.5895  1.2556
  272MOL0     H36688  11.207   4.333   2.349  1.3446 -0.0760 -0.2202
  272MOL0     H36689  11.199   4.157   2.364 -0.7885 -0.1719 -0.7937
  272MOL0     H36690  11.384   4.303   2.211 -0.1751  0.1618  0.5441
  272MOL0     H36691  11.283   4.253   2.089  0.2765 -1.5185 -1.1667
  272MOL0     H36692  11.437   4.065   2.281  1.1366 -0.6771 -0.4469
  272MOL0     H36693  11.301   4.006   2.188  1.6054 -2.7953  0.3949
  272MOL0     H36694  11.557   4.144   2.073  1.5645 -2.2556 -1.0270
  272MOL0     H36695  11.415   4.108   1.986  0.9705 -2.0184 -0.9161
  272MOL0     H36696  11.590   3.905   2.125 -2.8947 -1.1834  1.5620
  272MOL0     H36697  11.446   3.864   2.032  0.6058 -0.4322  1.8206
  272MOL0     H36698  11.641   4.033   1.884 -0.8623  0.0884  0.4659
  272MOL0     H36699  11.550   3.903   1.813  1.6267  0.5121 -1.6836
  272MOL0     H36700  11.791   3.877   2.006 -0.9520 -0.0849  0.4987
  272MOL0     H36701  11.766   3.840   1.826 -1.4416  0.0593 -1.2223
  272MOL0     H36702  11.052   4.487   1.936 -0.5916 -0.3828 -2.0933
  272MOL0     H36703  10.857   4.515   1.780  0.1710  1.9255  0.8157
  272MOL0     H36704  10.368   4.331   1.892 -0.2557 -0.4894  0.1910
  272MOL0     H36705  10.126   4.388   1.897  0.5198 -0.1226  0.0231
  272MOL0     H36706  10.285   4.861   2.351  1.1426  1.4510  0.7111
  272MOL0     H36707  10.518   4.863   2.388 -0.5458 -0.4909  0.8116
  272MOL0     H36708  10.946   4.804   2.577  2.9531  1.8108  0.2404
  272MOL0     H36709  11.166   4.855   2.542 -1.4822  0.3308  0.9818
  272MOL0     H36710  11.374   4.740   2.152 -3.2494 -0.1253 -0.0261
  272MOL0     H36711  11.304   4.887   2.223  0.3869  0.3487 -0.1496
  272MOL0     H36712  11.555   4.905   2.160  1.6063 -0.3531  1.2313
  272MOL0     H36713  11.581   4.773   2.266  0.2711 -1.2253 -0.7151
  272MOL0     H36714  11.528   4.939   2.459  1.4449  1.1716 -0.3710
  272MOL0     H36715  11.475   5.056   2.345  2.6703  2.5753  0.4060
  272MOL0     H36716  11.692   5.070   2.246 -3.1058 -0.8230 -1.5361
  272MOL0     H36717  11.739   4.954   2.385 -2.2564 -1.4433 -0.2066
  272MOL0     H36718  11.785   5.313   2.576 -0.2576  1.4471 -0.0259
  272MOL0     H36719  11.190   4.597   2.193 -0.6695 -0.3490 -0.1303
  272MOL0     H36720  10.927   4.608   2.189  2.0725  0.7166 -2.1298
  273MOL0     O36721  10.380  10.102   9.969  0.1155 -0.0339 -0.9435
  273MOL0     C36722  10.426  10.013   9.896 -0.1592 -0.1597 -0.3344
  273MOL0     O36723  10.353   9.935   9.814  0.1948 -0.2781  0.4186
  273MOL0     C36724  10.224   9.985   9.790  0.1920  0.2991 -0.0699
  273MOL0     C36725  10.197  10.073   9.690  1.1769 -1.5180  0.6100
  273MOL0     C36726  10.064  10.118   9.668 -0.3627 -0.6529 -0.4825
  273MOL0     C36727   9.962  10.073   9.760 -0.3141  0.0697 -0.0902
  273MOL0     O36728   9.824  10.095   9.750  0.7477  0.5040  0.3672
  273MOL0     C36729   9.794  10.171   9.631  0.6874 -1.1612 -0.0692
  273MOL0     C36730   9.645  10.204   9.635  1.0708  0.4059  0.4181
  273MOL0     C36731   9.562  10.071   9.649 -1.1467 -0.3175 -0.2010
  273MOL0     C36732   9.416  10.092   9.632  0.1648  0.1681 -0.2706
  273MOL0     C36733   9.336   9.965   9.604 -0.1902  0.3446 -0.0793
  273MOL0     C36734   9.192   9.996   9.564  1.6554  0.3571 -0.6514
  273MOL0     C36735   9.092   9.868   9.570 -0.1309 -0.1149 -0.0673
  273MOL0     C36736   8.941   9.907   9.581 -0.0967 -0.3392 -0.1543
  273MOL0     N36737   8.850   9.792   9.594  0.4600 -0.2746 -0.0147
  273MOL0     C36738   8.862   9.703   9.696  0.2719  0.1229  0.4933
  273MOL0     C36739   8.727   9.658   9.714 -0.2162 -0.3842  0.6482
  273MOL0     C36740   8.681   9.545   9.803  0.0141  0.3283 -0.4656
  273MOL0     C36741   8.612   9.588   9.928 -0.9161 -0.6784 -0.2814
  273MOL0     C36742   8.595   9.497  10.047  0.5308  0.2171 -0.5939
  273MOL0     C36743   8.565   9.347  10.023  0.2130  0.9990  0.6444
  273MOL0     O36744   8.462   9.322   9.928 -0.1182  0.0502 -0.5438
  273MOL0     C36745   8.332   9.314   9.981 -0.4297  0.2799  0.5187
  273MOL0     C36746   8.287   9.279  10.114  0.4897  0.1846 -0.1324
  273MOL0     C36747   8.151   9.286  10.144  0.0036 -0.7303 -0.5876
  273MOL0     C36748   8.120   9.279  10.288  0.6248 -0.2609  0.2898
  273MOL0     C36749   8.055   9.306  10.037 -0.4847 -0.1647 -0.3283
  273MOL0     C36750   7.906   9.295  10.055 -1.1954  0.6535  0.1240
  273MOL0     O36751   7.838   9.287   9.941  0.0587  0.2933 -0.0707
  273MOL0     C36752   7.708   9.252   9.962 -0.3189 -0.7851  0.4493
  273MOL0     C36753   7.676   9.118   9.974  0.2534 -0.2812  0.0138
  273MOL0     C36754   7.540   9.083   9.997  0.4864 -0.0538  0.0676
  273MOL0     C36755   7.442   9.183  10.000 -0.1732  0.1575 -0.1976
  273MOL0     O36756   7.309   9.156  10.026  0.1212  0.2151  0.4322
  273MOL0     C36757   7.268   9.020  10.026 -0.2346  0.7031 -0.2665
  273MOL0     C36758   7.118   9.009  10.029 -0.1459  0.3056 -0.0550
  273MOL0     C36759   7.066   9.062  10.165  0.4567  0.8003 -0.3106
  273MOL0     C36760   6.917   9.032  10.180  0.3861  1.2488 -0.4377
  273MOL0     C36761   6.838   9.126  10.088 -1.0695 -0.5473 -0.0321
  273MOL0     C36762   6.693   9.106  10.133  0.1135 -0.7806  0.0855
  273MOL0     C36763   6.639   8.992  10.049 -0.2455 -0.4200 -0.2573
  273MOL0     C36764   6.502   8.963  10.097  0.2720  0.5525  0.2678
  273MOL0    Cl36765   6.466   8.818   9.996  0.1336 -0.3043  0.0556
  273MOL0     C36766   7.481   9.319   9.985 -0.1112  0.0536 -0.2800
  273MOL0     C36767   7.613   9.350   9.965  0.5719 -0.3048  0.2367
  273MOL0     O36768   7.858   9.303  10.168  0.7013  0.0442  0.1664
  273MOL0     C36769   8.113   9.345   9.911 -0.0706 -0.4137  0.8097
  273MOL0     C36770   8.245   9.362   9.889  0.8209 -0.4159 -0.5791
  273MOL0     N36771   8.645   9.721   9.624  0.1006 -0.4057 -0.5250
  273MOL0     N36772   8.725   9.785   9.544  1.0575 -0.1899  0.6640
  273MOL0     C36773   9.993   9.976   9.861  0.6953  0.1142  0.4732
  273MOL0     C36774  10.122   9.934   9.877 -0.2883 -0.5436  0.0568
  273MOL0     C36775  10.563   9.966   9.919  0.5329 -0.1394 -0.6885
  273MOL0     C36776  10.648  10.042   9.995  0.0361 -0.3392 -0.2442
  273MOL0     C36777  10.783  10.007  10.002  0.1040 -1.2344 -0.4467
  273MOL0     C36778  10.833   9.898   9.929  0.2177 -0.0340 -0.3491
  273MOL0     O36779  10.969   9.876   9.920  0.4323 -0.0106 -0.6442
  273MOL0     C36780  11.064   9.948  10.005  0.0323 -0.4908  0.8163
  273MOL0     C36781  11.210   9.906   9.993 -0.4915  0.3243  0.5054
  273MOL0     C36782  11.279   9.923   9.853  0.2885  0.5912 -0.4114
  273MOL0     C36783  11.345  10.057   9.827 -0.0383 -0.4692 -0.0494
  273MOL0     C36784  11.452  10.098   9.907  0.4098 -0.0396 -0.2573
  273MOL0     C36785  11.551  10.131   9.969 -1.0752  0.8537  0.0919
  273MOL0     C36786  10.747   9.813   9.867 -0.2922 -0.3525  0.3115
  273MOL0     C36787  10.615   9.843   9.855 -0.4636 -1.0723  0.3777
  273MOL0     H36788  10.269  10.097   9.613 -1.7394  1.6427 -1.3895
  273MOL0     H36789  10.047  10.195   9.593 -1.5896  0.3802  0.7855
  273MOL0     H36790   9.856  10.261   9.624 -3.9886  2.3814 -0.5792
  273MOL0     H36791   9.807  10.100   9.549 -2.4669 -0.5648 -1.2333
  273MOL0     H36792   9.629  10.262   9.726  0.6740  1.5264 -0.3466
  273MOL0     H36793   9.613  10.266   9.551  1.4543  2.0152  1.4186
  273MOL0     H36794   9.602   9.996   9.580  0.7119 -2.1369  2.6769
  273MOL0     H36795   9.580  10.031   9.749 -2.8907  1.7537  1.0260
  273MOL0     H36796   9.367  10.133   9.720  1.8229  0.3287  0.6116
  273MOL0     H36797   9.392  10.154   9.545  0.7253 -3.4423 -3.2797
  273MOL0     H36798   9.378   9.898   9.528 -0.5498 -2.0477  1.7426
  273MOL0     H36799   9.330   9.907   9.696 -0.0886 -1.5119 -1.2022
  273MOL0     H36800   9.148  10.080   9.620 -1.4689 -1.5214 -0.0754
  273MOL0     H36801   9.201  10.028   9.460 -1.2618  0.5737 -0.9013
  273MOL0     H36802   9.110   9.800   9.486 -0.0995  0.7071 -0.7374
  273MOL0     H36803   9.121   9.823   9.665 -0.7376  1.9200  1.1436
  273MOL0     H36804   8.918   9.969   9.494  2.7354  2.7326  1.0904
  273MOL0     H36805   8.919   9.972   9.666 -0.1478 -0.3972 -0.1231
  273MOL0     H36806   8.952   9.671   9.747  0.9312 -0.9997 -1.3040
  273MOL0     H36807   8.611   9.480   9.750 -1.1453  1.5704 -0.4830
  273MOL0     H36808   8.771   9.494   9.840  0.4293  1.5341  0.2488
  273MOL0     H36809   8.512   9.626   9.902 -0.3023 -0.0247 -1.7799
  273MOL0     H36810   8.664   9.671   9.976 -0.2429 -0.4572 -1.3649
  273MOL0     H36811   8.525   9.534  10.123  0.8541  0.4788 -0.4186
  273MOL0     H36812   8.684   9.485  10.110 -1.8268 -0.4240  2.9419
  273MOL0     H36813   8.544   9.298  10.119  1.1563  2.7160  1.7636
  273MOL0     H36814   8.652   9.302   9.975 -0.4729  1.2889 -0.9453
  273MOL0     H36815   8.359   9.241  10.185  1.1971  1.0132 -0.3870
  273MOL0     H36816   8.041   9.204  10.302 -0.3326  0.4803 -0.8888
  273MOL0     H36817   8.193   9.246  10.362  0.7731  1.5242  1.0080
  273MOL0     H36818   8.095   9.383  10.314  0.4741 -0.2175 -0.0166
  273MOL0     H36819   7.754   9.042   9.975  2.5116  1.8190  2.9095
  273MOL0     H36820   7.515   8.978  10.001  1.0003 -0.1522  0.7162
  273MOL0     H36821   7.295   8.960   9.939 -1.4240  1.5849 -1.2678
  273MOL0     H36822   7.310   8.975  10.117  0.0805  3.0016  0.7863
  273MOL0     H36823   7.082   9.071   9.946 -0.6631 -1.6102 -1.3133
  273MOL0     H36824   7.083   8.906  10.029  3.9294 -1.2420 -0.5924
  273MOL0     H36825   7.082   9.169  10.177 -2.8305  1.2598  1.0081
  273MOL0     H36826   7.121   9.005  10.240  1.1275 -2.0688 -2.7712
  273MOL0     H36827   6.899   8.925  10.166 -3.6058  1.3556  2.1890
  273MOL0     H36828   6.898   9.039  10.287  0.7209 -0.9070 -0.1847
  273MOL0     H36829   6.853   9.113   9.980  0.2165 -1.0923  0.1979
  273MOL0     H36830   6.873   9.229  10.100 -2.8623  0.2627 -1.2162
  273MOL0     H36831   6.687   9.095  10.241 -1.6866  3.4607  0.6076
  273MOL0     H36832   6.633   9.194  10.105  0.5356 -0.6496 -0.4294
  273MOL0     H36833   6.696   8.902  10.074 -0.5893 -0.0057  2.3494
  273MOL0     H36834   6.649   9.006   9.941 -0.2637  0.9666 -0.1032
  273MOL0     H36835   6.436   9.047  10.078  3.4239  3.3581  0.7938
  273MOL0     H36836   6.494   8.945  10.205 -0.0405 -0.4490  0.0893
  273MOL0     H36837   7.416   9.406   9.976  1.6322  1.3029 -1.5032
  273MOL0     H36838   7.649   9.450   9.943 -0.1588 -0.4427 -1.7795
  273MOL0     H36839   8.052   9.381   9.829  2.8280  1.7218 -0.5842
  273MOL0     H36840   8.282   9.401   9.794  0.0337 -0.5809 -0.9584
  273MOL0     H36841   9.914   9.950   9.931 -0.5891  1.9238 -0.2403
  273MOL0     H36842  10.160   9.873   9.959  0.8459  0.2796  0.1677
  273MOL0     H36843  10.610  10.128  10.048 -0.4613 -1.5039  1.3380
  273MOL0     H36844  10.853  10.071  10.055 -1.5147  2.0115 -1.9961
  273MOL0     H36845  11.053  10.056   9.991  0.9389 -0.4162  0.6095
  273MOL0     H36846  11.044   9.915  10.108 -1.1525 -0.3573  0.6455
  273MOL0     H36847  11.219   9.800  10.015 -0.5298 -0.0437 -1.1485
  273MOL0     H36848  11.269   9.956  10.071 -1.9105  1.2584  1.0278
  273MOL0     H36849  11.211   9.905   9.769 -0.8761  2.5878  0.0370
  273MOL0     H36850  11.361   9.853   9.837 -1.0470 -0.7926 -1.4393
  273MOL0     H36851  11.273  10.140   9.819 -1.3426 -1.5296  0.2735
  273MOL0     H36852  11.390  10.050   9.728 -0.6156  0.7172 -0.4124
  273MOL0     H36853  11.645  10.165  10.009  0.6303 -1.8505 -1.3436
  273MOL0     H36854  10.785   9.735   9.801  0.9005  0.5102 -0.0469
  273MOL0     H36855  10.556   9.780   9.790  0.7877 -1.2420 -0.6480
  274MOL0     O36856   2.448   7.943   6.575  0.1068  0.7455 -0.1676
  274MOL0     C36857   2.541   8.014   6.605 -0.0356 -0.6109  0.5357
  274MOL0     O36858   2.545   8.144   6.581  0.3347 -0.4420 -0.1039
  274MOL0     C36859   2.437   8.195   6.509  0.0594 -0.4003 -0.8606
  274MOL0     C36860   2.317   8.220   6.579 -0.1854  0.8549  0.5309
  274MOL0     C36861   2.211   8.287   6.517  0.1336  0.4787 -0.0167
  274MOL0     C36862   2.216   8.326   6.378 -0.7512 -0.4099 -0.3324
  274MOL0     O36863   2.114   8.374   6.300 -0.2111  1.0876  0.1908
  274MOL0     C36864   1.974   8.342   6.339 -0.4155 -0.2652  0.3138
  274MOL0     C36865   1.880   8.376   6.220 -0.1804 -0.9111 -0.5996
  274MOL0     C36866   1.809   8.256   6.163  0.4437 -0.9688  0.5004
  274MOL0     C36867   1.894   8.172   6.079 -1.0377  0.6953  0.3474
  274MOL0     C36868   1.865   8.022   6.093  0.5058  0.2486  0.2398
  274MOL0     C36869   1.723   7.981   6.049 -0.1591 -0.3429 -0.7942
  274MOL0     C36870   1.705   7.835   6.095  1.0753 -0.3243 -0.1744
  274MOL0     C36871   1.556   7.793   6.091 -0.9180 -0.2856  0.7519
  274MOL0     N36872   1.494   7.803   5.963  0.5504  0.2838 -0.3849
  274MOL0     C36873   1.469   7.688   5.891 -0.4252  0.2460  0.1372
  274MOL0     C36874   1.383   7.712   5.795 -0.0781 -0.1381  0.2629
  274MOL0     C36875   1.328   7.622   5.688  0.6150  0.0724 -0.6243
  274MOL0     C36876   1.200   7.682   5.635  0.4497 -0.3077 -0.2936
  274MOL0     C36877   1.143   7.606   5.519  0.3697  0.4914  0.4908
  274MOL0     C36878   1.001   7.650   5.489 -0.4459 -0.1781  0.7393
  274MOL0     O36879   0.946   7.561   5.384 -0.7092 -0.2268  0.0646
  274MOL0     C36880   0.816   7.561   5.358  0.9564 -0.3488  0.7313
  274MOL0     C36881   0.774   7.496   5.234  0.2473 -0.6906 -1.0826
  274MOL0     C36882   0.645   7.481   5.194 -0.0923  0.4701 -0.3786
  274MOL0     C36883   0.632   7.397   5.067  0.8537 -0.0482  0.6071
  274MOL0     C36884   0.541   7.537   5.270  0.2294  0.2387 -0.4545
  274MOL0     C36885   0.396   7.541   5.236 -0.5749 -0.5143  0.5738
  274MOL0     O36886   0.320   7.639   5.298 -0.4728 -0.3268  0.2041
  274MOL0     C36887   0.195   7.687   5.264  0.0002  1.0303 -0.3954
  274MOL0     C36888   0.138   7.758   5.365 -0.1521 -0.1360  0.8749
  274MOL0     C36889   0.011   7.803   5.357  0.5302  1.2217 -0.0140
  274MOL0     C36890  -0.066   7.774   5.243 -0.3098 -0.3704  0.6948
  274MOL0     O36891  -0.197   7.817   5.243  0.0640 -0.3779  0.0479
  274MOL0     C36892  -0.280   7.787   5.133 -0.0875  0.0634  0.7825
  274MOL0     C36893  -0.426   7.820   5.154 -0.0655  0.0615 -0.4869
  274MOL0     C36894  -0.454   7.967   5.128 -1.0889 -0.6144  0.6294
  274MOL0     C36895  -0.583   8.014   5.189 -0.6263 -1.0745  0.2449
  274MOL0     C36896  -0.702   7.971   5.100  0.1770  0.2007  0.6414
  274MOL0     C36897  -0.835   7.999   5.171 -0.0331  0.5613  0.2055
  274MOL0     C36898  -0.952   7.961   5.084 -0.0600 -0.3539 -0.4843
  274MOL0     C36899  -1.084   8.014   5.142  0.7642 -0.4225 -0.0317
  274MOL0    Cl36900  -1.120   8.188   5.127  0.0401 -0.0213  0.4064
  274MOL0     C36901  -0.008   7.704   5.135 -0.2861 -0.3380 -0.2632
  274MOL0     C36902   0.120   7.663   5.145  0.1912 -0.4754 -0.0360
  274MOL0     O36903   0.355   7.460   5.156  0.2638  0.5836 -0.3460
  274MOL0     C36904   0.581   7.596   5.395 -0.1457  0.7733 -0.2853
  274MOL0     C36905   0.710   7.602   5.442 -0.5014 -0.1452  0.4281
  274MOL0     N36906   1.355   7.851   5.805 -0.1993 -0.5976 -0.5096
  274MOL0     N36907   1.414   7.900   5.911 -0.6016  0.6508 -0.2142
  274MOL0     C36908   2.336   8.300   6.313 -0.9008 -0.2799  0.3564
  274MOL0     C36909   2.444   8.234   6.374  0.5047 -0.3165  0.5815
  274MOL0     C36910   2.662   7.955   6.661  0.1281  0.5034  0.2214
  274MOL0     C36911   2.658   7.834   6.730 -0.2208 -0.4934 -0.4759
  274MOL0     C36912   2.772   7.792   6.801 -0.1491 -0.5843 -0.1370
  274MOL0     C36913   2.897   7.858   6.800  0.6730  0.6944  0.8438
  274MOL0     O36914   3.009   7.829   6.863 -0.4309 -0.3986 -0.3854
  274MOL0     C36915   3.002   7.736   6.974  0.8152 -0.6229 -0.4790
  274MOL0     C36916   3.136   7.719   7.050  0.3229 -0.5137 -0.3672
  274MOL0     C36917   3.169   7.846   7.129  0.1636  0.2432  0.3865
  274MOL0     C36918   3.081   7.851   7.252 -0.0985 -0.8958 -0.4838
  274MOL0     C36919   3.140   7.783   7.368 -1.2977 -0.3418  0.0400
  274MOL0     C36920   3.178   7.739   7.473 -0.6452 -0.5471  0.3905
  274MOL0     C36921   2.897   7.974   6.723 -0.0113 -0.2776  0.1515
  274MOL0     C36922   2.787   8.025   6.667  0.4726 -0.6224  0.1193
  274MOL0     H36923   2.308   8.191   6.683 -0.1001  0.9338  0.5601
  274MOL0     H36924   2.119   8.307   6.570  0.2553 -2.2850  1.4267
  274MOL0     H36925   1.964   8.237   6.368  0.6727 -0.3339  0.4706
  274MOL0     H36926   1.945   8.408   6.420  1.5766  2.0011 -0.6925
  274MOL0     H36927   1.805   8.452   6.244 -0.1715 -1.1501  0.2226
  274MOL0     H36928   1.937   8.426   6.140 -2.9796 -0.3289 -2.3644
  274MOL0     H36929   1.769   8.201   6.249  1.2750  0.5991  1.9449
  274MOL0     H36930   1.732   8.287   6.092  0.7300 -0.8172  0.2549
  274MOL0     H36931   1.879   8.206   5.976  3.8753  2.0184 -0.1593
  274MOL0     H36932   2.000   8.187   6.100 -0.8034 -0.8030  0.3914
  274MOL0     H36933   1.932   7.956   6.037  1.0602 -2.5614  3.8461
  274MOL0     H36934   1.872   8.000   6.200  0.7957  0.9357  0.3671
  274MOL0     H36935   1.641   8.032   6.101  1.0824 -1.6428  2.7557
  274MOL0     H36936   1.719   7.994   5.941 -0.5277 -0.4194 -0.7918
  274MOL0     H36937   1.767   7.766   6.036 -2.0999 -3.2113 -0.4074
  274MOL0     H36938   1.731   7.818   6.200  0.5314 -1.8945 -0.2721
  274MOL0     H36939   1.498   7.858   6.157  0.0201  0.8941  0.4440
  274MOL0     H36940   1.553   7.690   6.130  3.5881 -0.5125  1.0796
  274MOL0     H36941   1.511   7.594   5.923  1.8035  1.0088 -0.3846
  274MOL0     H36942   1.396   7.627   5.602 -1.3041 -1.6557 -2.3665
  274MOL0     H36943   1.316   7.518   5.720 -0.1021 -0.5109 -2.6642
  274MOL0     H36944   1.219   7.783   5.597  0.4129  0.2288  1.0767
  274MOL0     H36945   1.133   7.683   5.721 -0.7043 -4.0707 -0.9856
  274MOL0     H36946   1.146   7.498   5.539  1.9459  0.4970  0.3703
  274MOL0     H36947   1.201   7.640   5.433  1.2355 -1.5751  0.2015
  274MOL0     H36948   0.995   7.753   5.454 -1.4672  0.8162  3.5906
  274MOL0     H36949   0.937   7.653   5.578 -2.9969  1.2674 -1.0020
  274MOL0     H36950   0.853   7.455   5.173  2.6754  1.1963  0.5423
  274MOL0     H36951   0.597   7.455   4.981  2.2041 -0.6394 -0.3836
  274MOL0     H36952   0.728   7.357   5.035  1.1740  1.3331 -0.2465
  274MOL0     H36953   0.568   7.309   5.079  0.8404  0.0401  1.2345
  274MOL0     H36954   0.208   7.779   5.446  2.4145  2.1194 -1.6897
  274MOL0     H36955  -0.027   7.867   5.436 -1.4426 -0.9846  0.9390
  274MOL0     H36956  -0.228   7.836   5.050  2.6946 -1.3021  1.5739
  274MOL0     H36957  -0.272   7.680   5.114  2.2651 -0.1624  2.5025
  274MOL0     H36958  -0.476   7.753   5.082  1.4360 -3.7927  1.7330
  274MOL0     H36959  -0.459   7.782   5.252 -0.2601 -1.3625 -1.0706
  274MOL0     H36960  -0.463   7.982   5.020 -0.7965  0.7376  0.7697
  274MOL0     H36961  -0.367   8.023   5.164 -1.4079  0.3062  0.0210
  274MOL0     H36962  -0.595   7.974   5.290  1.7203  0.5334  1.2523
  274MOL0     H36963  -0.584   8.123   5.190 -1.7292 -1.0785  0.7701
  274MOL0     H36964  -0.693   7.868   5.064 -0.8846  0.3385 -0.0544
  274MOL0     H36965  -0.708   8.032   5.009 -1.6320 -0.3039  0.3906
  274MOL0     H36966  -0.839   7.946   5.267 -2.0458  0.4264  0.0894
  274MOL0     H36967  -0.837   8.099   5.214 -0.4175 -0.1307  1.8961
  274MOL0     H36968  -0.954   7.852   5.069 -1.1501 -0.2276 -1.3606
  274MOL0     H36969  -0.940   8.011   4.988  2.1067  0.3888  0.1284
  274MOL0     H36970  -1.078   7.979   5.245  2.5688 -0.1762 -0.0227
  274MOL0     H36971  -1.169   7.967   5.093  0.4540  0.0898  0.0158
  274MOL0     H36972  -0.055   7.665   5.045  1.0790  1.0293 -1.6286
  274MOL0     H36973   0.161   7.608   5.062  0.4567 -0.2854 -0.0331
  274MOL0     H36974   0.500   7.630   5.459 -0.9085  1.1721 -1.4186
  274MOL0     H36975   0.723   7.633   5.545 -0.9888 -0.1258  0.4876
  274MOL0     H36976   2.352   8.322   6.208 -2.0715 -1.1226 -0.0146
  274MOL0     H36977   2.530   8.229   6.307 -0.4964  2.4954 -1.0681
  274MOL0     H36978   2.567   7.775   6.725 -0.2748 -0.3726 -0.9491
  274MOL0     H36979   2.770   7.698   6.856 -0.8460  0.1837  1.2012
  274MOL0     H36980   2.936   7.789   7.044  2.7023 -3.1603  3.5971
  274MOL0     H36981   2.956   7.638   6.957  0.4378 -1.0274  2.3555
  274MOL0     H36982   3.211   7.703   6.973 -1.5555  0.3220 -2.4791
  274MOL0     H36983   3.137   7.634   7.119  1.4232  0.9734  1.5548
  274MOL0     H36984   3.155   7.925   7.055  3.5463 -0.0716 -0.7690
  274MOL0     H36985   3.277   7.836   7.144  0.8117 -0.3930 -3.5282
  274MOL0     H36986   2.980   7.813   7.230 -0.4677 -0.4300  0.3704
  274MOL0     H36987   3.055   7.952   7.285 -0.0789 -0.8767 -0.5268
  274MOL0     H36988   3.231   7.706   7.560 -2.1487 -1.1936  1.1006
  274MOL0     H36989   2.991   8.025   6.710 -0.5658  0.9739  0.9424
  274MOL0     H36990   2.804   8.117   6.613 -1.5300 -0.3304 -0.0813
  275MOL0     O36991   0.023   7.832   6.393 -0.3337  0.9344  0.3834
  275MOL0     C36992   0.108   7.915   6.407 -0.1386  0.1654  0.0719
  275MOL0     O36993   0.081   8.051   6.389  0.3561 -0.1241  0.1320
  275MOL0     C36994  -0.040   8.082   6.339 -0.5480 -0.5463 -0.1068
  275MOL0     C36995  -0.121   8.172   6.412  0.6211  0.7790 -0.6523
  275MOL0     C36996  -0.257   8.199   6.373  0.3391  0.9085  0.5586
  275MOL0     C36997  -0.310   8.136   6.257  0.8485  0.4439  0.2799
  275MOL0     O36998  -0.444   8.153   6.219  0.8441  0.1768  0.1209
  275MOL0     C36999  -0.495   8.291   6.251 -0.0302  0.2025  0.1081
  275MOL0     C37000  -0.627   8.313   6.171  0.4462 -0.2888  0.0373
  275MOL0     C37001  -0.605   8.342   6.021 -0.1876  0.6814  0.8423
  275MOL0     C37002  -0.738   8.334   5.942 -0.1812  0.6308  0.0432
  275MOL0     C37003  -0.851   8.403   6.013 -0.8957  0.5858 -0.6066
  275MOL0     C37004  -0.967   8.440   5.924  0.3328 -0.9352  0.6149
  275MOL0     C37005  -0.947   8.527   5.804 -0.3397 -1.1043 -0.5646
  275MOL0     C37006  -0.884   8.663   5.844  1.0993 -0.3773 -0.0181
  275MOL0     N37007  -0.885   8.762   5.736  0.0045 -0.1491  0.3052
  275MOL0     C37008  -0.802   8.757   5.633 -0.0738  0.2397 -0.2433
  275MOL0     C37009  -0.843   8.855   5.554  0.6179 -0.0737  0.2701
  275MOL0     C37010  -0.793   8.898   5.418 -0.5643  0.0985 -0.2441
  275MOL0     C37011  -0.670   8.998   5.438 -0.9481 -0.1622 -0.2587
  275MOL0     C37012  -0.538   8.915   5.473 -0.1028  0.8884  0.8498
  275MOL0     C37013  -0.420   9.005   5.498 -0.9367 -0.6616  0.8439
  275MOL0     O37014  -0.300   8.930   5.528  0.3996  0.4515 -0.3949
  275MOL0     C37015  -0.262   8.897   5.658 -1.3279  0.2383  0.1268
  275MOL0     C37016  -0.340   8.909   5.776 -1.0189 -0.0252  0.0824
  275MOL0     C37017  -0.270   8.885   5.904 -0.6407  0.1075  1.0927
  275MOL0     C37018  -0.350   8.923   6.022  1.1879 -0.7375  0.3440
  275MOL0     C37019  -0.136   8.840   5.904  0.0264  0.5106  0.7469
  275MOL0     C37020  -0.069   8.801   6.028  0.2874  0.0408  0.3580
  275MOL0     O37021   0.069   8.805   6.017  0.2941 -0.1481 -0.1226
  275MOL0     C37022   0.144   8.795   6.138 -0.1974  0.0288  0.3409
  275MOL0     C37023   0.098   8.848   6.263 -0.3805  0.2671  0.1015
  275MOL0     C37024   0.183   8.851   6.376 -0.0693 -0.0538  0.2413
  275MOL0     C37025   0.313   8.801   6.368  0.1715 -0.2426  0.2950
  275MOL0     O37026   0.375   8.792   6.491  0.2627  0.2961 -0.3901
  275MOL0     C37027   0.484   8.697   6.508 -0.4700 -1.2929  0.4791
  275MOL0     C37028   0.546   8.732   6.643 -0.1449 -0.1772 -0.1569
  275MOL0     C37029   0.658   8.647   6.699 -0.8639 -0.4350 -0.4451
  275MOL0     C37030   0.742   8.713   6.800 -0.3885  0.8011  0.1182
  275MOL0     C37031   0.861   8.620   6.817 -0.1926  0.2466 -0.6126
  275MOL0     C37032   0.967   8.681   6.903 -0.3980  0.2467 -0.0066
  275MOL0     C37033   1.080   8.587   6.921 -0.4490  0.8926  0.1822
  275MOL0     C37034   1.190   8.641   7.012  0.7054 -0.5881  0.0657
  275MOL0    Cl37035   1.331   8.536   7.010 -0.1660  0.4334 -0.2626
  275MOL0     C37036   0.371   8.765   6.243 -0.4612  0.5481  0.0436
  275MOL0     C37037   0.279   8.757   6.130  0.3418 -0.1438 -0.0094
  275MOL0     O37038  -0.129   8.762   6.126 -0.4246 -0.2339  0.0394
  275MOL0     C37039  -0.065   8.828   5.784  0.0688  0.1873 -0.3121
  275MOL0     C37040  -0.123   8.863   5.665  0.0531  0.7348  0.3411
  275MOL0     N37041  -0.944   8.927   5.614 -0.3172  0.6937  0.0224
  275MOL0     N37042  -0.966   8.866   5.729 -0.3224  0.1052 -0.1790
  275MOL0     C37043  -0.230   8.047   6.182 -0.3657  0.1384  0.0267
  275MOL0     C37044  -0.093   8.027   6.220 -0.1895  0.0727 -0.2643
  275MOL0     C37045   0.241   7.872   6.445 -0.1266 -0.3332 -0.2587
  275MOL0     C37046   0.289   7.740   6.424  0.3382 -0.1319 -0.5558
  275MOL0     C37047   0.420   7.706   6.452  0.2737  0.1664 -0.1265
  275MOL0     C37048   0.503   7.808   6.497 -0.4768 -0.0283  0.2075
  275MOL0     O37049   0.646   7.795   6.516  0.5171  0.0725  0.1692
  275MOL0     C37050   0.696   7.663   6.515  0.6126 -0.1723 -0.6968
  275MOL0     C37051   0.820   7.682   6.603  0.5432 -0.0852 -0.1556
  275MOL0     C37052   0.883   7.550   6.627 -0.2130 -0.0647  1.6372
  275MOL0     C37053   0.975   7.551   6.752  0.3555  0.0619  0.6135
  275MOL0     C37054   1.108   7.608   6.734  0.8078  0.5411  0.2952
  275MOL0     C37055   1.221   7.652   6.710 -0.6359 -0.0073  0.5742
  275MOL0     C37056   0.457   7.940   6.521  0.8644 -0.0457  0.2423
  275MOL0     C37057   0.325   7.973   6.503 -0.6704 -0.2737  0.7008
  275MOL0     H37058  -0.087   8.227   6.499  1.3957 -0.0952 -0.3927
  275MOL0     H37059  -0.313   8.271   6.432 -1.0678 -0.1708  0.6207
  275MOL0     H37060  -0.532   8.308   6.352 -3.4782  1.9035 -1.2898
  275MOL0     H37061  -0.419   8.368   6.233  0.0785 -0.1918 -1.2877
  275MOL0     H37062  -0.690   8.224   6.187 -0.7116  0.8889  2.5936
  275MOL0     H37063  -0.690   8.394   6.208 -2.4807 -1.1393 -2.6032
  275MOL0     H37064  -0.566   8.444   6.011  1.8054  0.0135  1.1965
  275MOL0     H37065  -0.536   8.274   5.970 -1.5926  0.0782 -0.3046
  275MOL0     H37066  -0.721   8.376   5.843  0.3617 -0.0237 -0.1458
  275MOL0     H37067  -0.766   8.229   5.929  0.6175  0.4065  0.0933
  275MOL0     H37068  -0.888   8.355   6.104  1.8363  2.7994  1.8586
  275MOL0     H37069  -0.805   8.491   6.059 -1.6192  0.6497  0.0268
  275MOL0     H37070  -1.019   8.350   5.888 -0.6523 -0.1182 -0.0612
  275MOL0     H37071  -1.029   8.498   5.992 -0.7744  0.0938 -1.1861
  275MOL0     H37072  -0.891   8.477   5.724  0.3256  0.2927 -1.0032
  275MOL0     H37073  -1.045   8.559   5.767 -0.0095  1.2791  0.4561
  275MOL0     H37074  -0.783   8.655   5.885  1.2369 -0.4913 -0.3772
  275MOL0     H37075  -0.955   8.701   5.918 -0.4346  2.0737 -2.5676
  275MOL0     H37076  -0.722   8.686   5.616 -1.6078 -1.7301  0.2616
  275MOL0     H37077  -0.766   8.806   5.365  4.3015  1.2061 -0.1762
  275MOL0     H37078  -0.880   8.934   5.363 -0.4226 -0.6613 -0.9999
  275MOL0     H37079  -0.689   9.060   5.526  1.8968  1.0535 -0.3970
  275MOL0     H37080  -0.662   9.062   5.350 -0.2153 -0.0170 -0.0876
  275MOL0     H37081  -0.519   8.850   5.387  1.1931  1.6562  0.5292
  275MOL0     H37082  -0.552   8.841   5.552 -0.7655 -1.1030 -1.0574
  275MOL0     H37083  -0.440   9.078   5.577  0.2739  0.8383 -0.1922
  275MOL0     H37084  -0.403   9.060   5.405 -0.9478 -0.4750  0.9520
  275MOL0     H37085  -0.445   8.932   5.763 -0.5238  2.2837 -0.2597
  275MOL0     H37086  -0.391   8.832   6.068  0.4078  0.4788  2.2021
  275MOL0     H37087  -0.289   8.975   6.098  1.5418  0.4767 -0.7386
  275MOL0     H37088  -0.431   8.992   5.997  1.7158  0.7478  2.4046
  275MOL0     H37089  -0.004   8.879   6.284 -0.4949 -0.2580  0.3265
  275MOL0     H37090   0.152   8.876   6.477 -0.4786  0.3240  0.0251
  275MOL0     H37091   0.424   8.606   6.517 -1.9698 -0.3652  0.1249
  275MOL0     H37092   0.556   8.693   6.426 -2.4508  1.4570 -1.5827
  275MOL0     H37093   0.573   8.838   6.641  2.4961 -0.7410  1.3073
  275MOL0     H37094   0.465   8.715   6.715 -0.2390 -1.8725 -0.6150
  275MOL0     H37095   0.721   8.627   6.611  1.0764  2.5256  0.1251
  275MOL0     H37096   0.621   8.553   6.741 -2.4109  0.0655 -0.6241
  275MOL0     H37097   0.767   8.816   6.771  2.0751 -0.2459 -1.7920
  275MOL0     H37098   0.701   8.728   6.900  0.7296  1.0449  0.5528
  275MOL0     H37099   0.900   8.591   6.719  0.8684 -1.6674  0.3101
  275MOL0     H37100   0.831   8.526   6.865 -0.3874 -0.3182 -1.8166
  275MOL0     H37101   1.010   8.771   6.859 -0.0538 -0.4290 -1.0930
  275MOL0     H37102   0.922   8.712   6.998 -1.2017  1.7060 -0.8332
  275MOL0     H37103   1.127   8.566   6.824  0.5771 -0.7537  0.9708
  275MOL0     H37104   1.041   8.489   6.950  0.1955  0.3993 -0.5664
  275MOL0     H37105   1.161   8.652   7.117  3.7240  1.6737  0.7722
  275MOL0     H37106   1.216   8.741   6.977 -3.0243 -0.0329 -1.5969
  275MOL0     H37107   0.471   8.724   6.235  0.0163  1.9623 -2.6652
  275MOL0     H37108   0.321   8.733   6.033  0.8862  1.3074 -0.1541
  275MOL0     H37109   0.043   8.820   5.779  0.6740  5.0771 -0.3848
  275MOL0     H37110  -0.055   8.862   5.581 -1.0778 -1.5095 -0.6209
  275MOL0     H37111  -0.274   8.002   6.094  0.3373 -0.5132  0.0040
  275MOL0     H37112  -0.041   7.954   6.158 -3.5397 -0.2806 -3.0125
  275MOL0     H37113   0.221   7.669   6.380 -0.7177  0.8453 -0.5598
  275MOL0     H37114   0.458   7.610   6.421 -1.5162 -0.6439  0.1363
  275MOL0     H37115   0.628   7.601   6.573  0.9826 -1.5495 -1.6768
  275MOL0     H37116   0.714   7.614   6.418 -2.5515 -3.1866  0.0669
  275MOL0     H37117   0.805   7.734   6.699  1.2574  1.5053 -0.8743
  275MOL0     H37118   0.880   7.754   6.547 -0.2460 -0.1167 -1.0654
  275MOL0     H37119   0.922   7.514   6.532 -0.9433  1.0305  0.8887
  275MOL0     H37120   0.802   7.479   6.649  1.0969 -2.5875 -1.0522
  275MOL0     H37121   0.991   7.448   6.787 -0.8371  0.1026  1.3361
  275MOL0     H37122   0.925   7.609   6.831  0.4356 -0.3168  0.9521
  275MOL0     H37123   1.323   7.669   6.682 -0.8952 -0.8044 -0.9832
  275MOL0     H37124   0.527   8.017   6.554  1.5920 -1.7409  2.9392
  275MOL0     H37125   0.293   8.075   6.522 -0.5106  0.0153 -0.4894
  276MOL0     O37126   9.675   9.604   1.527  0.0057 -0.6224  0.3791
  276MOL0     C37127   9.762   9.520   1.512 -0.5976  0.9103  0.6978
  276MOL0     O37128   9.747   9.407   1.442  0.8585 -0.0462 -0.0344
  276MOL0     C37129   9.616   9.376   1.415 -0.7179  0.0676 -0.1167
  276MOL0     C37130   9.534   9.299   1.500 -0.8085  0.1124  0.0102
  276MOL0     C37131   9.402   9.269   1.464  0.9986  0.1344 -0.0022
  276MOL0     C37132   9.359   9.316   1.334 -0.1977 -0.2939 -0.2000
  276MOL0     O37133   9.237   9.284   1.278 -0.8604  0.0666 -0.0821
  276MOL0     C37134   9.129   9.294   1.374  0.4832 -0.3460 -0.5578
  276MOL0     C37135   8.986   9.287   1.315 -0.1122 -0.1559 -0.2513
  276MOL0     C37136   8.974   9.193   1.189 -1.2144  0.7565  0.2198
  276MOL0     C37137   8.844   9.195   1.101  0.3103 -0.2051  0.1953
  276MOL0     C37138   8.714   9.162   1.179 -0.0194 -0.1270  0.1515
  276MOL0     C37139   8.696   9.012   1.219 -0.0242 -1.0563 -0.8700
  276MOL0     C37140   8.578   8.999   1.313 -0.6086  1.4941 -0.1660
  276MOL0     C37141   8.433   9.025   1.263  0.0254 -0.2284  0.9144
  276MOL0     N37142   8.402   8.916   1.171  0.2794  0.0662  0.4093
  276MOL0     C37143   8.430   8.897   1.042  0.0926 -0.0168  0.8883
  276MOL0     C37144   8.385   8.770   1.014 -0.7546 -1.1035 -0.0807
  276MOL0     C37145   8.379   8.707   0.877  0.7378  0.8312  0.2246
  276MOL0     C37146   8.310   8.568   0.863  0.1367 -0.1294  0.6593
  276MOL0     C37147   8.302   8.524   0.707  0.3058  0.1089  0.9177
  276MOL0     C37148   8.436   8.480   0.645 -0.3111 -0.7460  0.1786
  276MOL0     O37149   8.507   8.603   0.603 -0.1992  0.8308  0.7515
  276MOL0     C37150   8.510   8.644   0.470  0.0096 -0.0771 -0.2355
  276MOL0     C37151   8.617   8.722   0.434  0.2136 -0.0873  0.1192
  276MOL0     C37152   8.623   8.762   0.301  0.2977  0.2890  0.2454
  276MOL0     C37153   8.748   8.848   0.269 -0.2172  0.3127 -0.3331
  276MOL0     C37154   8.528   8.718   0.199 -0.0793  0.8991  0.5608
  276MOL0     C37155   8.560   8.729   0.056  1.0828 -0.6563 -0.5765
  276MOL0     O37156   8.499   8.633  -0.017 -0.2336 -0.7192  0.0318
  276MOL0     C37157   8.554   8.600  -0.145  0.5663 -0.0035 -0.1288
  276MOL0     C37158   8.693   8.587  -0.171 -0.3105 -0.0892 -0.0023
  276MOL0     C37159   8.743   8.537  -0.292  0.3682 -0.5414  0.7396
  276MOL0     C37160   8.665   8.518  -0.403  0.0232 -0.2447 -0.0119
  276MOL0     O37161   8.722   8.463  -0.513 -0.1252  0.2904  0.3748
  276MOL0     C37162   8.631   8.425  -0.621 -0.0745 -1.1536 -0.2077
  276MOL0     C37163   8.705   8.342  -0.725  0.1163 -0.0964 -0.2274
  276MOL0     C37164   8.756   8.216  -0.660  0.1807  0.5685  0.4401
  276MOL0     C37165   8.838   8.131  -0.754  0.3301  1.3692 -0.7296
  276MOL0     C37166   8.904   8.022  -0.665  0.0007  0.6664 -0.0628
  276MOL0     C37167   9.023   7.963  -0.737  0.4130 -0.2174 -0.0821
  276MOL0     C37168   9.108   7.881  -0.645 -0.4882 -0.5556  0.1393
  276MOL0     C37169   9.030   7.763  -0.581  0.0972  0.0977  0.2853
  276MOL0    Cl37170   9.135   7.640  -0.499 -0.1408  0.7344 -0.0137
  276MOL0     C37171   8.529   8.532  -0.376 -0.5410  0.3267  0.6953
  276MOL0     C37172   8.477   8.589  -0.262 -0.1257  0.2700 -0.0091
  276MOL0     O37173   8.621   8.831   0.005 -0.2172  0.4967 -0.2863
  276MOL0     C37174   8.413   8.649   0.246 -0.5054  0.0807  0.1889
  276MOL0     C37175   8.408   8.602   0.381 -0.2174 -0.0851 -0.0431
  276MOL0     N37176   8.341   8.715   1.128 -0.2291 -0.0172 -0.2189
  276MOL0     N37177   8.352   8.801   1.224  0.1575 -0.3218  0.2993
  276MOL0     C37178   9.443   9.389   1.254  0.2278  0.1588  0.6133
  276MOL0     C37179   9.570   9.422   1.288 -0.1241 -0.1615 -0.1819
  276MOL0     C37180   9.897   9.562   1.535 -0.7548  1.0144  0.0015
  276MOL0     C37181   9.927   9.674   1.609 -0.6804 -0.5363  0.1115
  276MOL0     C37182  10.057   9.717   1.635 -0.4547  1.0893 -0.3140
  276MOL0     C37183  10.168   9.655   1.567  0.3680 -0.1863  0.0491
  276MOL0     O37184  10.292   9.718   1.578 -0.3280 -0.1717 -0.2274
  276MOL0     C37185  10.374   9.731   1.460  0.0997 -0.7086 -0.0943
  276MOL0     C37186  10.500   9.814   1.480 -0.4290 -0.7643 -0.0555
  276MOL0     C37187  10.604   9.739   1.566  0.2252 -0.1141  0.3729
  276MOL0     C37188  10.698   9.838   1.637 -0.8718 -0.9965  0.4399
  276MOL0     C37189  10.787   9.920   1.543 -0.1176 -0.1891 -0.3929
  276MOL0     C37190  10.850   9.986   1.461  0.7844 -0.4192 -0.4264
  276MOL0     C37191  10.137   9.548   1.479 -0.8825  0.2448 -0.3919
  276MOL0     C37192  10.003   9.501   1.473 -0.1854 -0.2236  0.1761
  276MOL0     H37193   9.582   9.273   1.593  2.7420 -0.0688 -1.6961
  276MOL0     H37194   9.331   9.212   1.524  1.2511  0.5369  0.6882
  276MOL0     H37195   9.134   9.222   1.456 -1.0040 -0.6900 -0.7469
  276MOL0     H37196   9.137   9.393   1.421 -2.5826 -1.3181  2.3796
  276MOL0     H37197   8.928   9.246   1.398 -1.4893 -0.1696 -1.1902
  276MOL0     H37198   8.952   9.387   1.285  0.4672  0.7018  1.7580
  276MOL0     H37199   9.062   9.209   1.126  0.0949 -1.3290  1.4159
  276MOL0     H37200   8.988   9.091   1.225 -2.2485 -0.2805 -2.0646
  276MOL0     H37201   8.834   9.299   1.069 -0.6355  0.6817  3.1117
  276MOL0     H37202   8.857   9.121   1.021  0.8526 -3.5847  3.1501
  276MOL0     H37203   8.710   9.220   1.272  1.3690  0.4307 -0.1186
  276MOL0     H37204   8.624   9.190   1.123 -1.3688 -0.3974  2.0709
  276MOL0     H37205   8.702   8.949   1.129  2.6093 -0.8600 -0.9109
  276MOL0     H37206   8.782   8.978   1.277  0.1253  0.3675 -0.2164
  276MOL0     H37207   8.573   8.904   1.366 -3.3060  2.2313  1.1092
  276MOL0     H37208   8.601   9.077   1.386 -3.2832  0.4462  1.9733
  276MOL0     H37209   8.421   9.121   1.212 -0.2203 -1.3186 -1.2145
  276MOL0     H37210   8.367   9.023   1.350 -1.9148  1.4502 -0.4236
  276MOL0     H37211   8.457   8.970   0.966  0.9501 -1.4174 -0.1791
  276MOL0     H37212   8.328   8.778   0.811  2.6291 -1.6055 -4.2289
  276MOL0     H37213   8.479   8.696   0.834 -0.0279 -3.7066 -0.8479
  276MOL0     H37214   8.205   8.574   0.894 -0.2997 -1.1803 -0.5156
  276MOL0     H37215   8.344   8.487   0.927 -0.1356 -0.4851  0.3565
  276MOL0     H37216   8.273   8.611   0.647  4.3144  1.9436  1.3131
  276MOL0     H37217   8.239   8.435   0.699 -0.6779  0.6808  1.9713
  276MOL0     H37218   8.429   8.404   0.568  1.2324 -1.3124  0.5712
  276MOL0     H37219   8.499   8.441   0.725 -2.3935 -1.7104  1.4285
  276MOL0     H37220   8.698   8.744   0.503  0.5969 -0.3776 -0.2383
  276MOL0     H37221   8.710   8.934   0.213 -1.4894 -0.5160 -0.8010
  276MOL0     H37222   8.796   8.887   0.359  1.7501 -0.0733 -1.1794
  276MOL0     H37223   8.822   8.800   0.205 -0.7667  1.0011 -1.5200
  276MOL0     H37224   8.765   8.600  -0.091 -0.1751 -2.5578  0.3763
  276MOL0     H37225   8.850   8.517  -0.297  1.0632  0.8852  5.3675
  276MOL0     H37226   8.550   8.363  -0.583 -1.3309 -1.1402 -2.6371
  276MOL0     H37227   8.599   8.523  -0.659  3.1687 -0.8751 -2.7522
  276MOL0     H37228   8.648   8.323  -0.816 -2.5491  0.5799  1.1815
  276MOL0     H37229   8.791   8.396  -0.766  0.1956  0.4553  0.6263
  276MOL0     H37230   8.673   8.155  -0.624  0.7339  0.1634  1.0510
  276MOL0     H37231   8.814   8.243  -0.571 -3.3163  1.4848  2.6044
  276MOL0     H37232   8.760   8.081  -0.812 -0.6874  1.1900  0.7644
  276MOL0     H37233   8.901   8.194  -0.818 -0.2896 -0.7803 -3.6729
  276MOL0     H37234   8.829   7.944  -0.650 -0.3475  1.0403  0.1772
  276MOL0     H37235   8.941   8.069  -0.573 -1.0523  2.5991 -0.5550
  276MOL0     H37236   9.001   7.894  -0.820  2.0551 -1.7898  0.7031
  276MOL0     H37237   9.082   8.046  -0.776  1.9112 -0.9390  0.5554
  276MOL0     H37238   9.156   7.941  -0.567 -1.5050  0.8204 -0.2580
  276MOL0     H37239   9.192   7.845  -0.704  1.1070  0.3576  1.7431
  276MOL0     H37240   8.978   7.715  -0.665  0.9942  0.9175 -0.7662
  276MOL0     H37241   8.950   7.800  -0.517 -1.1911  1.9872 -2.2385
  276MOL0     H37242   8.458   8.503  -0.454 -0.0426  0.7259  0.0823
  276MOL0     H37243   8.370   8.604  -0.252  0.1673  0.9419  3.1553
  276MOL0     H37244   8.340   8.611   0.175 -1.2996  0.3334  0.8654
  276MOL0     H37245   8.329   8.537   0.417 -0.1728 -0.1577 -0.0778
  276MOL0     H37246   9.398   9.413   1.158  0.9270 -1.1934 -0.0882
  276MOL0     H37247   9.639   9.470   1.219 -0.6809 -1.9445 -2.0516
  276MOL0     H37248   9.845   9.734   1.648 -1.0691 -0.7203 -0.4211
  276MOL0     H37249  10.069   9.801   1.702 -1.5266  0.9914  0.0179
  276MOL0     H37250  10.395   9.631   1.422 -3.1281 -2.3417  1.9701
  276MOL0     H37251  10.313   9.774   1.381 -0.2845 -2.3081 -0.6958
  276MOL0     H37252  10.482   9.911   1.527 -2.1413 -0.2505 -1.6126
  276MOL0     H37253  10.538   9.827   1.378  0.6333 -1.4356  0.2355
  276MOL0     H37254  10.653   9.681   1.487 -3.5315  0.6383 -2.7928
  276MOL0     H37255  10.559   9.674   1.641  0.5612 -1.8025 -0.8473
  276MOL0     H37256  10.766   9.792   1.710  0.8479 -2.1246 -1.7522
  276MOL0     H37257  10.637   9.914   1.687  1.2815  2.0645 -1.2167
  276MOL0     H37258  10.896  10.056   1.394  0.1800  0.0111 -0.4043
  276MOL0     H37259  10.219   9.499   1.427 -1.4511 -0.6529 -0.4663
  276MOL0     H37260   9.986   9.410   1.416 -3.3134  1.4388 -1.7816
  277MOL0     O37261   3.440   2.856   9.116 -0.7149  0.2906 -0.3369
  277MOL0     C37262   3.468   2.744   9.149  0.2089 -0.3634 -0.1480
  277MOL0     O37263   3.386   2.668   9.225  0.4452 -0.6528  0.2236
  277MOL0     C37264   3.270   2.729   9.276  0.0861 -0.0015  0.4760
  277MOL0     C37265   3.148   2.654   9.254 -0.1193  0.6708  0.2823
  277MOL0     C37266   3.025   2.700   9.305  0.3301 -0.2864 -0.1635
  277MOL0     C37267   3.027   2.810   9.390 -0.8109 -0.9656 -0.0819
  277MOL0     O37268   2.922   2.856   9.462  0.4430 -0.0758  0.0625
  277MOL0     C37269   2.795   2.794   9.458  0.7539 -1.0113  0.5990
  277MOL0     C37270   2.688   2.889   9.517 -0.6717 -0.0117  0.3583
  277MOL0     C37271   2.556   2.825   9.533 -0.2191 -0.4790 -1.1351
  277MOL0     C37272   2.458   2.915   9.594 -0.2475  0.5832  0.3140
  277MOL0     C37273   2.311   2.851   9.603 -1.4790  0.0791  0.1110
  277MOL0     C37274   2.221   2.956   9.665  0.3526  0.6142 -0.1720
  277MOL0     C37275   2.074   2.912   9.671  0.4223  1.1849  0.2191
  277MOL0     C37276   2.055   2.790   9.765  0.3856  0.0361 -0.1706
  277MOL0     N37277   1.912   2.757   9.785 -0.5173  0.3107 -0.2371
  277MOL0     C37278   1.838   2.796   9.896 -0.1322 -1.0671 -0.8054
  277MOL0     C37279   1.726   2.730   9.894  0.6203  0.2009 -0.1157
  277MOL0     C37280   1.613   2.739  10.003 -0.6813  0.2463 -0.3441
  277MOL0     C37281   1.486   2.679   9.956 -0.3749  0.2971  0.3063
  277MOL0     C37282   1.369   2.714  10.047 -0.1127 -0.7532 -0.6048
  277MOL0     C37283   1.246   2.623  10.030  0.9829 -0.7560  0.0131
  277MOL0     O37284   1.121   2.686  10.074 -0.6074 -0.0046 -0.0878
  277MOL0     C37285   1.089   2.706  10.203  0.8120 -0.5427 -0.7652
  277MOL0     C37286   1.168   2.661  10.314 -0.7349  0.2107 -0.0113
  277MOL0     C37287   1.128   2.685  10.444  0.2834 -0.6543  0.6325
  277MOL0     C37288   1.224   2.646  10.554  0.3273 -0.3361 -0.2326
  277MOL0     C37289   0.996   2.729  10.468 -0.5743 -0.2960  0.8852
  277MOL0     C37290   0.936   2.751  10.601  0.3352  0.3086 -1.0333
  277MOL0     O37291   0.867   2.861  10.624  0.0494 -0.2173 -0.1179
  277MOL0     C37292   0.768   2.846  10.713 -0.3023 -0.0568 -0.2930
  277MOL0     C37293   0.794   2.867  10.853  0.1973 -0.2693 -0.2844
  277MOL0     C37294   0.680   2.857  10.933  0.1198  0.1327  0.2570
  277MOL0     C37295   0.555   2.820  10.888 -0.0728  0.3935  0.3278
  277MOL0     O37296   0.440   2.813  10.961  0.6697  0.1942  0.4747
  277MOL0     C37297   0.439   2.790  11.107  0.1714 -0.2053 -0.3575
  277MOL0     C37298   0.301   2.831  11.169 -0.7554  0.4092 -1.3996
  277MOL0     C37299   0.193   2.750  11.114  0.3398  1.0624  0.1884
  277MOL0     C37300   0.051   2.790  11.167  0.3987 -0.6621  0.1039
  277MOL0     C37301  -0.074   2.720  11.107 -0.9236 -0.0447  0.3914
  277MOL0     C37302  -0.110   2.767  10.964  0.4139 -0.0370 -0.0000
  277MOL0     C37303  -0.265   2.765  10.951  0.5025 -0.5346 -0.8517
  277MOL0     C37304  -0.307   2.793  10.803 -0.2140 -0.2560 -0.1707
  277MOL0    Cl37305  -0.483   2.829  10.801 -0.3201  0.1141 -0.1284
  277MOL0     C37306   0.541   2.791  10.755  0.2183 -0.2295 -0.2817
  277MOL0     C37307   0.645   2.789  10.668  0.1057  0.7427 -1.6002
  277MOL0     O37308   0.969   2.676  10.692 -0.1627  0.3529  0.1070
  277MOL0     C37309   0.922   2.768  10.358  0.0629 -0.3133  0.0857
  277MOL0     C37310   0.960   2.757  10.226 -0.1602 -1.0528  0.2795
  277MOL0     N37311   1.719   2.651   9.783  0.4364  0.8818  0.0617
  277MOL0     N37312   1.833   2.673   9.715  0.1144  0.1294 -0.6149
  277MOL0     C37313   3.146   2.887   9.408  0.5044 -0.1689  0.2051
  277MOL0     C37314   3.269   2.843   9.354  0.1791 -0.3638  0.3746
  277MOL0     C37315   3.576   2.654   9.103  0.4434 -0.4770  0.6360
  277MOL0     C37316   3.602   2.633   8.967 -0.0558  0.5691  0.3870
  277MOL0     C37317   3.679   2.520   8.926  0.4183  0.2179 -0.3759
  277MOL0     C37318   3.751   2.452   9.021  0.7363 -0.7222  1.1033
  277MOL0     O37319   3.832   2.345   9.000  0.6452 -0.5781  0.2831
  277MOL0     C37320   3.834   2.276   8.877  0.3684 -0.6664  0.4022
  277MOL0     C37321   3.705   2.191   8.852  0.4876 -1.0227  0.1638
  277MOL0     C37322   3.654   2.106   8.968 -0.8910 -0.1817  0.2266
  277MOL0     C37323   3.526   2.027   8.937 -0.1766  0.5170  0.6486
  277MOL0     C37324   3.561   1.885   8.918 -0.9023 -0.5117 -0.5424
  277MOL0     C37325   3.576   1.766   8.912  0.4738  0.4186 -0.0649
  277MOL0     C37326   3.736   2.495   9.152 -0.0242  0.6075 -0.0901
  277MOL0     C37327   3.646   2.591   9.192  0.0876  0.6891  0.3185
  277MOL0     H37328   3.156   2.555   9.210 -0.9082 -0.2982  2.2169
  277MOL0     H37329   2.932   2.650   9.279  0.3343  0.6854 -2.2094
  277MOL0     H37330   2.753   2.776   9.359 -0.2946 -1.8848  1.1833
  277MOL0     H37331   2.804   2.698   9.508 -0.5108 -1.7196 -0.4808
  277MOL0     H37332   2.727   2.938   9.607 -0.9549 -0.7331  0.8777
  277MOL0     H37333   2.672   2.973   9.449 -0.2713 -0.1643  0.0695
  277MOL0     H37334   2.523   2.794   9.433 -2.2391  0.7076 -0.8953
  277MOL0     H37335   2.562   2.735   9.595 -0.2686  0.6009  0.4893
  277MOL0     H37336   2.491   2.954   9.690 -3.0102  0.3930  1.4357
  277MOL0     H37337   2.450   3.005   9.533  0.1451 -0.0727 -0.7365
  277MOL0     H37338   2.275   2.826   9.503 -1.0356 -1.9033  0.4116
  277MOL0     H37339   2.313   2.759   9.662 -1.0715  0.7847  1.2258
  277MOL0     H37340   2.257   2.986   9.763  1.9656  1.4927 -0.9936
  277MOL0     H37341   2.236   3.041   9.598  0.6862 -0.5052 -1.5690
  277MOL0     H37342   2.018   2.999   9.709  3.5380  3.1407  0.6729
  277MOL0     H37343   2.028   2.892   9.574  0.0933  1.2867  0.3532
  277MOL0     H37344   2.103   2.797   9.863  1.2096 -2.1696 -0.3568
  277MOL0     H37345   2.087   2.693   9.727 -0.9864 -0.0325 -1.2220
  277MOL0     H37346   1.883   2.863   9.968 -0.8846  0.1607 -1.4473
  277MOL0     H37347   1.652   2.685  10.090  0.8044 -1.3547 -1.9212
  277MOL0     H37348   1.590   2.845  10.017  0.0786  0.1926  1.5831
  277MOL0     H37349   1.507   2.572   9.962  0.3259  0.4935  1.8469
  277MOL0     H37350   1.466   2.713   9.854 -3.0283  1.0893  0.9939
  277MOL0     H37351   1.340   2.817  10.027  2.1216  0.6790  2.5635
  277MOL0     H37352   1.394   2.711  10.153 -0.0988  0.6109 -0.5598
  277MOL0     H37353   1.274   2.528  10.076  0.3493  0.4905  3.2924
  277MOL0     H37354   1.221   2.594   9.928 -1.3469 -0.0592  0.3287
  277MOL0     H37355   1.264   2.609  10.314 -1.1102 -0.6975  3.1413
  277MOL0     H37356   1.240   2.732  10.620 -4.8647  2.0423 -1.5842
  277MOL0     H37357   1.181   2.562  10.611 -0.5780 -0.2133 -0.7157
  277MOL0     H37358   1.325   2.626  10.519  1.9875  1.6315  2.9612
  277MOL0     H37359   0.880   2.924  10.884 -2.3448  3.9935 -0.3451
  277MOL0     H37360   0.701   2.859  11.039  0.4678 -0.5872  0.2069
  277MOL0     H37361   0.451   2.681  11.105 -3.9252 -0.8290 -0.9333
  277MOL0     H37362   0.522   2.830  11.165 -0.3532 -1.3425  1.2602
  277MOL0     H37363   0.308   2.822  11.278  0.9757  0.5424 -1.4691
  277MOL0     H37364   0.298   2.937  11.144  2.4663  0.8765 -0.3131
  277MOL0     H37365   0.209   2.644  11.135  0.5600  0.8297 -1.0948
  277MOL0     H37366   0.203   2.760  11.006 -0.7054 -0.3009 -0.0484
  277MOL0     H37367   0.048   2.765  11.273 -1.6545 -0.1176  0.2184
  277MOL0     H37368   0.045   2.898  11.150  0.3240 -0.3266  2.0405
  277MOL0     H37369  -0.155   2.749  11.175 -0.9885 -0.5070  0.5155
  277MOL0     H37370  -0.064   2.611  11.102 -2.4748 -0.1605 -1.0443
  277MOL0     H37371  -0.074   2.865  10.930  0.2707  0.1679  0.4342
  277MOL0     H37372  -0.080   2.689  10.894 -2.8154  0.1664 -1.7904
  277MOL0     H37373  -0.307   2.844  11.014  0.6135  0.0944 -1.5477
  277MOL0     H37374  -0.303   2.666  10.979 -1.9754  0.4816 -0.3597
  277MOL0     H37375  -0.284   2.708  10.738  1.5806  0.1968 -0.1616
  277MOL0     H37376  -0.260   2.881  10.758 -0.9109  0.6957  0.9291
  277MOL0     H37377   0.442   2.760  10.724 -0.7092  2.0652  0.1675
  277MOL0     H37378   0.612   2.759  10.569 -1.2152  1.4265 -1.3951
  277MOL0     H37379   0.820   2.802  10.369 -1.5982 -3.8078 -2.5698
  277MOL0     H37380   0.892   2.780  10.145 -1.6054 -2.9365  0.8991
  277MOL0     H37381   3.157   2.977   9.467  2.0519 -0.4974  0.4578
  277MOL0     H37382   3.362   2.898   9.365 -0.7589  1.3730  0.0432
  277MOL0     H37383   3.547   2.694   8.896 -1.0949  0.1601  0.8172
  277MOL0     H37384   3.681   2.483   8.824  0.2472  2.6803 -1.3206
  277MOL0     H37385   3.846   2.346   8.794 -2.5064  0.8416  1.1398
  277MOL0     H37386   3.921   2.209   8.879  0.2099 -0.8629  1.0639
  277MOL0     H37387   3.715   2.130   8.762  3.2123  1.7585 -1.6780
  277MOL0     H37388   3.626   2.257   8.815 -0.7317 -2.7461 -0.4061
  277MOL0     H37389   3.633   2.179   9.047  0.5004 -0.7804  1.1871
  277MOL0     H37390   3.731   2.039   9.006 -3.0710 -2.5050  0.8127
  277MOL0     H37391   3.469   2.067   8.853 -0.2943  0.0635  0.5052
  277MOL0     H37392   3.459   2.021   9.023 -2.6104  0.0789 -1.1506
  277MOL0     H37393   3.572   1.660   8.894  1.6255  0.1286  1.2109
  277MOL0     H37394   3.786   2.446   9.235  2.8963  1.6542 -1.1261
  277MOL0     H37395   3.629   2.618   9.296  0.6188  1.7885  0.1330
  278MOL0     O37396   1.243   9.826   1.599  0.3141 -0.2609  0.2829
  278MOL0     C37397   1.318   9.728   1.597  0.7131 -0.4533  0.0378
  278MOL0     O37398   1.283   9.602   1.624 -0.8550  0.1031  0.1699
  278MOL0     C37399   1.152   9.570   1.652  0.1032  0.2923  0.7924
  278MOL0     C37400   1.123   9.490   1.764  0.2366 -0.8734 -0.4023
  278MOL0     C37401   0.992   9.457   1.794  0.5403 -0.1000 -0.7151
  278MOL0     C37402   0.891   9.511   1.710  0.0237  0.5546 -0.1383
  278MOL0     O37403   0.759   9.485   1.732  0.4299 -0.3515  0.1216
  278MOL0     C37404   0.700   9.601   1.802  0.7383 -0.7798 -1.2762
  278MOL0     C37405   0.680   9.553   1.953 -0.3624 -0.0381  0.5228
  278MOL0     C37406   0.593   9.640   2.038 -0.3886  0.1930 -0.7550
  278MOL0     C37407   0.456   9.680   1.983  0.1351  0.7510  0.2390
  278MOL0     C37408   0.364   9.729   2.095  0.7703 -0.3745 -0.9505
  278MOL0     C37409   0.414   9.865   2.156  1.1311 -0.4432 -0.6255
  278MOL0     C37410   0.326   9.918   2.269  0.1142  0.1365  0.1061
  278MOL0     C37411   0.213  10.008   2.217 -0.8227 -0.2627 -1.0293
  278MOL0     N37412   0.106   9.930   2.156  0.1126  0.3190  0.3369
  278MOL0     C37413   0.030   9.847   2.229  0.6247  0.0702  0.2591
  278MOL0     C37414  -0.056   9.796   2.140  0.4924  0.3275  0.2966
  278MOL0     C37415  -0.177   9.713   2.176  0.2106 -1.1302  0.0680
  278MOL0     C37416  -0.157   9.596   2.275 -0.6454  0.3979  0.6333
  278MOL0     C37417  -0.279   9.554   2.363 -0.6864  0.5367  0.7548
  278MOL0     C37418  -0.358   9.656   2.437  0.3577 -0.3547 -0.2092
  278MOL0     O37419  -0.285   9.728   2.531  0.2534  0.0382 -0.0823
  278MOL0     C37420  -0.348   9.825   2.602  0.1609 -0.2151  0.4263
  278MOL0     C37421  -0.292   9.857   2.729  0.4195 -0.7427  0.0998
  278MOL0     C37422  -0.358   9.957   2.813 -0.4100 -0.0634  0.3419
  278MOL0     C37423  -0.287   9.985   2.942 -0.2706 -0.0254  0.0780
  278MOL0     C37424  -0.472  10.034   2.769  0.4162  0.8513  0.2746
  278MOL0     C37425  -0.527  10.136   2.855 -0.3437  0.0940 -0.3333
  278MOL0     O37426  -0.650  10.133   2.902  0.4505  0.0277  0.1566
  278MOL0     C37427  -0.718  10.017   2.892 -0.7265  0.2268 -0.5826
  278MOL0     C37428  -0.689   9.899   2.966 -0.5342 -0.5921  0.6233
  278MOL0     C37429  -0.780   9.794   2.966  1.4799 -0.3890 -0.2431
  278MOL0     C37430  -0.905   9.799   2.901 -0.3125 -0.0966 -0.5968
  278MOL0     O37431  -1.006   9.707   2.932  0.1255 -0.2372 -0.0055
  278MOL0     C37432  -0.973   9.578   2.981 -0.3214 -0.4378  0.4073
  278MOL0     C37433  -1.088   9.471   2.951 -0.1712  0.3735 -0.4114
  278MOL0     C37434  -1.209   9.476   3.039  0.8211 -0.0618  0.3196
  278MOL0     C37435  -1.305   9.359   3.009 -0.0895  0.5599  0.3574
  278MOL0     C37436  -1.413   9.339   3.110  1.0181 -0.1844  0.2830
  278MOL0     C37437  -1.508   9.226   3.072 -0.0451  0.5871 -0.3992
  278MOL0     C37438  -1.630   9.235   3.162  0.5825  0.1006 -0.0569
  278MOL0     C37439  -1.715   9.103   3.135  0.4162 -0.3848  0.3589
  278MOL0    Cl37440  -1.648   8.978   3.244  0.2243 -0.3280 -0.1563
  278MOL0     C37441  -0.927   9.904   2.820 -0.0860  0.5574 -0.0312
  278MOL0     C37442  -0.833  10.008   2.811  0.1758 -0.4001 -0.3241
  278MOL0     O37443  -0.451  10.237   2.858 -0.1335  0.1898  0.0664
  278MOL0     C37444  -0.531   9.994   2.649 -0.3603  0.5254 -0.2572
  278MOL0     C37445  -0.468   9.896   2.566 -0.0143 -0.5880  0.1732
  278MOL0     N37446  -0.029   9.852   2.015  0.3686 -0.0080  0.2083
  278MOL0     N37447   0.061   9.941   2.028 -0.3000 -0.1141  0.2796
  278MOL0     C37448   0.923   9.580   1.596 -0.7448 -0.5381  0.8370
  278MOL0     C37449   1.052   9.610   1.559  0.4175  0.3694 -0.6596
  278MOL0     C37450   1.457   9.760   1.565 -1.0450  0.6857 -0.1651
  278MOL0     C37451   1.550   9.655   1.537 -0.6351  0.6569 -0.3299
  278MOL0     C37452   1.686   9.680   1.502  0.2594 -1.3374  0.0498
  278MOL0     C37453   1.736   9.804   1.524 -0.4750  0.0535 -0.0980
  278MOL0     O37454   1.875   9.810   1.497 -0.3427  0.1587  0.1310
  278MOL0     C37455   1.947   9.923   1.552 -1.0418  0.0489  0.3973
  278MOL0     C37456   2.097   9.890   1.576  0.3171 -0.2944 -0.1078
  278MOL0     C37457   2.174   9.887   1.449  0.6071  0.0909 -1.0542
  278MOL0     C37458   2.321   9.857   1.473 -0.1394  0.3626  0.3329
  278MOL0     C37459   2.344   9.730   1.543  1.3266  0.4705  0.4195
  278MOL0     C37460   2.358   9.615   1.578  0.5029  0.3271  0.5759
  278MOL0     C37461   1.647   9.911   1.551 -0.4323  0.0105 -0.0396
  278MOL0     C37462   1.511   9.885   1.567 -1.0758 -0.0036  0.1016
  278MOL0     H37463   1.201   9.441   1.820  1.2214  1.2826  0.2325
  278MOL0     H37464   0.969   9.396   1.880  1.7000  0.4416 -0.0022
  278MOL0     H37465   0.766   9.688   1.808  1.0282 -1.0600 -0.0722
  278MOL0     H37466   0.602   9.621   1.757 -0.9034 -1.2513  1.8004
  278MOL0     H37467   0.628   9.458   1.943 -0.9192  0.2933  0.1929
  278MOL0     H37468   0.777   9.532   1.998 -1.3892  1.6929  3.8971
  278MOL0     H37469   0.576   9.588   2.133  0.1551  0.6617 -0.4003
  278MOL0     H37470   0.652   9.728   2.065 -0.3305  0.6836 -2.4024
  278MOL0     H37471   0.471   9.756   1.906 -2.0030  0.7445 -0.2375
  278MOL0     H37472   0.409   9.595   1.934  2.9986  0.3909 -2.1966
  278MOL0     H37473   0.261   9.749   2.064 -1.0220 -1.0079  3.6696
  278MOL0     H37474   0.363   9.655   2.176 -1.1840 -0.0480 -0.6192
  278MOL0     H37475   0.511   9.840   2.201  0.0975 -2.3855  0.7173
  278MOL0     H37476   0.421   9.949   2.087  3.2354 -0.8641 -0.9743
  278MOL0     H37477   0.277   9.843   2.331 -1.6735 -0.9329 -2.4286
  278MOL0     H37478   0.385   9.980   2.337 -2.3117 -0.1196  2.5698
  278MOL0     H37479   0.255  10.086   2.153  2.1025 -1.1332 -0.2777
  278MOL0     H37480   0.166  10.056   2.304 -1.8439 -1.4631 -0.8923
  278MOL0     H37481   0.029   9.834   2.336 -1.5694  0.8993  0.3781
  278MOL0     H37482  -0.235   9.785   2.236 -0.7692 -1.3704 -0.5657
  278MOL0     H37483  -0.245   9.686   2.095 -0.9283  4.2364 -1.1802
  278MOL0     H37484  -0.075   9.615   2.346  1.8658 -4.1170 -0.6318
  278MOL0     H37485  -0.114   9.513   2.217 -0.0942  0.0329  1.5453
  278MOL0     H37486  -0.239   9.478   2.431  0.8665 -2.3536 -3.0351
  278MOL0     H37487  -0.353   9.500   2.303 -0.9968 -0.0275  1.6088
  278MOL0     H37488  -0.433   9.601   2.494  0.8573 -0.4750  0.3416
  278MOL0     H37489  -0.410   9.725   2.369  0.7741  2.0675  1.7951
  278MOL0     H37490  -0.207   9.806   2.774  0.5432  1.0935  2.0761
  278MOL0     H37491  -0.228   9.896   2.969 -1.2400 -0.8687 -0.5109
  278MOL0     H37492  -0.220  10.069   2.924 -0.3571  0.4415  1.7276
  278MOL0     H37493  -0.351  10.010   3.027  2.0821  2.5336  1.2480
  278MOL0     H37494  -0.596   9.906   3.021 -1.1393  3.1125  1.4660
  278MOL0     H37495  -0.763   9.716   3.039  0.2208 -1.0170 -0.5944
  278MOL0     H37496  -0.884   9.546   2.925 -0.9825  0.8259 -1.4690
  278MOL0     H37497  -0.944   9.575   3.086 -1.3596 -2.9115  0.7000
  278MOL0     H37498  -1.121   9.469   2.847 -1.3040  0.0258 -0.0548
  278MOL0     H37499  -1.032   9.379   2.974 -0.8984  0.1844  0.6689
  278MOL0     H37500  -1.252   9.576   3.026 -1.3097 -1.1886 -2.0352
  278MOL0     H37501  -1.192   9.467   3.147 -4.0571  1.3564  1.4977
  278MOL0     H37502  -1.344   9.353   2.907 -0.9004 -1.0863  0.7373
  278MOL0     H37503  -1.238   9.272   3.017 -0.1930  0.4725  0.2882
  278MOL0     H37504  -1.483   9.423   3.106 -0.4264 -1.3503  0.0508
  278MOL0     H37505  -1.376   9.335   3.213  0.2965 -1.2665  0.5176
  278MOL0     H37506  -1.536   9.230   2.966  0.8179 -0.8775 -0.7085
  278MOL0     H37507  -1.468   9.125   3.084 -2.2475 -0.3170 -0.1191
  278MOL0     H37508  -1.694   9.320   3.138  0.1651 -0.0857  0.3539
  278MOL0     H37509  -1.596   9.236   3.267 -0.9167  0.9501  0.4491
  278MOL0     H37510  -1.702   9.076   3.030  1.6278 -1.0825  0.6665
  278MOL0     H37511  -1.820   9.124   3.157  0.9940  0.7076  2.2203
  278MOL0     H37512  -1.022   9.890   2.769 -0.1735  0.2362  0.2229
  278MOL0     H37513  -0.859  10.098   2.756  0.6752  1.8037  2.8341
  278MOL0     H37514  -0.611  10.053   2.606  2.1283  3.2457 -1.4803
  278MOL0     H37515  -0.509   9.880   2.466  0.1297  0.2202 -0.0245
  278MOL0     H37516   0.854   9.621   1.523  2.0163 -0.2369 -1.8577
  278MOL0     H37517   1.075   9.669   1.471 -0.5861  1.1813 -0.3994
  278MOL0     H37518   1.507   9.555   1.538 -2.7226  1.4698  1.9950
  278MOL0     H37519   1.744   9.592   1.476 -0.8217 -1.3909 -2.5260
  278MOL0     H37520   1.925  10.011   1.490 -1.9822 -0.0258  0.6262
  278MOL0     H37521   1.895   9.943   1.646 -0.6534  0.2745  0.5676
  278MOL0     H37522   2.106   9.789   1.617  1.0115 -2.1441 -4.3005
  278MOL0     H37523   2.137   9.963   1.646  2.3116  0.3564 -1.8206
  278MOL0     H37524   2.156   9.983   1.400  0.1177 -0.4486 -1.9554
  278MOL0     H37525   2.145   9.807   1.380  4.5697 -2.5643 -0.0197
  278MOL0     H37526   2.358   9.938   1.538  0.8546 -0.3242  0.6579
  278MOL0     H37527   2.373   9.859   1.377 -2.9454 -1.9562 -1.3823
  278MOL0     H37528   2.375   9.516   1.614 -1.6509  0.3290  1.7917
  278MOL0     H37529   1.685  10.013   1.559  2.0192 -0.8870  0.5438
  278MOL0     H37530   1.440   9.962   1.596 -2.0558 -0.9543  0.2803
  279MOL0     O37531   0.010   6.150  10.331  0.5521 -0.6461 -0.4497
  279MOL0     C37532  -0.025   6.156  10.450 -0.1800 -0.0166  0.3989
  279MOL0     O37533  -0.157   6.138  10.497 -0.0862 -0.0607  0.1087
  279MOL0     C37534  -0.259   6.127  10.409  0.3475  0.2160  0.2173
  279MOL0     C37535  -0.256   6.058  10.281 -0.6466 -0.4242  0.8705
  279MOL0     C37536  -0.365   6.055  10.198  0.3670 -0.0168  0.0486
  279MOL0     C37537  -0.478   6.128  10.223 -0.7301 -0.6843  0.1619
  279MOL0     O37538  -0.586   6.103  10.136  0.5058  0.0015  0.2473
  279MOL0     C37539  -0.717   6.147  10.163  0.6223  0.0269  0.9415
  279MOL0     C37540  -0.807   6.044  10.094 -1.0673  0.4622 -0.6339
  279MOL0     C37541  -0.947   6.098  10.091  0.0482 -0.1269 -1.2414
  279MOL0     C37542  -1.039   5.989  10.052 -0.4597 -0.2039  0.2785
  279MOL0     C37543  -1.178   6.025  10.008  0.2890 -0.0498 -0.3461
  279MOL0     C37544  -1.252   6.063  10.124  0.9722 -0.5792 -0.3817
  279MOL0     C37545  -1.388   6.148  10.068  0.5671 -0.1322  0.3012
  279MOL0     C37546  -1.479   6.186  10.183  0.5709 -0.3588  1.3158
  279MOL0     N37547  -1.412   6.299  10.258 -0.6207 -0.0426  1.5328
  279MOL0     C37548  -1.419   6.433  10.220 -0.2892  0.1072  0.4010
  279MOL0     C37549  -1.353   6.501  10.320  0.5378 -0.2568 -0.1421
  279MOL0     C37550  -1.333   6.647  10.345 -0.1480 -1.2454 -0.6039
  279MOL0     C37551  -1.461   6.745  10.329 -0.3158  0.2945  1.0103
  279MOL0     C37552  -1.571   6.725  10.444 -0.5085  0.9124  0.6090
  279MOL0     C37553  -1.688   6.808  10.397  0.0288  0.6484  0.4968
  279MOL0     O37554  -1.753   6.750  10.275  0.5395 -0.1803 -0.2866
  279MOL0     C37555  -1.869   6.806  10.227 -1.2368 -0.4796  0.4123
  279MOL0     C37556  -1.921   6.737  10.118 -0.7072  0.2044  0.1845
  279MOL0     C37557  -2.052   6.764  10.069 -0.2879 -0.4381  0.3664
  279MOL0     C37558  -2.106   6.671   9.963  0.7409 -0.0515 -0.1760
  279MOL0     C37559  -2.133   6.877  10.118 -0.5467 -0.5848 -0.8328
  279MOL0     C37560  -2.273   6.914  10.061 -0.2208 -0.8507  0.1654
  279MOL0     O37561  -2.333   7.007  10.134  1.2280  0.5546 -0.7181
  279MOL0     C37562  -2.468   7.029  10.096 -0.1253  0.6669  0.5983
  279MOL0     C37563  -2.492   7.126   9.998  0.9166  0.1762  0.2709
  279MOL0     C37564  -2.623   7.157   9.962  0.0600 -0.2001 -0.2423
  279MOL0     C37565  -2.730   7.091  10.021  0.2558  0.5285  0.3214
  279MOL0     O37566  -2.861   7.127   9.986 -0.1287  0.3139  0.0421
  279MOL0     C37567  -2.921   7.069   9.874  0.3310 -0.1054  0.0753
  279MOL0     C37568  -2.901   7.148   9.738 -0.0493  0.1963  0.8668
  279MOL0     C37569  -3.035   7.211   9.689 -0.5873  0.7231  0.4482
  279MOL0     C37570  -3.060   7.341   9.761 -0.9157 -0.1988  0.3691
  279MOL0     C37571  -3.200   7.394   9.748  0.1607 -0.4044 -0.4310
  279MOL0     C37572  -3.239   7.490   9.860  0.7221  1.1457 -0.3503
  279MOL0     C37573  -3.375   7.561   9.835  0.8470 -0.5030 -0.7049
  279MOL0     C37574  -3.431   7.648   9.950  0.1251  0.5608 -0.0540
  279MOL0    Cl37575  -3.585   7.735   9.914 -0.0513  0.2084 -0.0175
  279MOL0     C37576  -2.707   6.984  10.114 -0.9232 -0.1536  0.2574
  279MOL0     C37577  -2.574   6.960  10.161  1.0402  0.7946  0.2575
  279MOL0     O37578  -2.307   6.874   9.952 -0.0413  0.8577  0.1315
  279MOL0     C37579  -2.072   6.951  10.212 -0.7497  0.0158  0.3123
  279MOL0     C37580  -1.947   6.912  10.274 -0.1945 -0.4648 -0.5876
  279MOL0     N37581  -1.300   6.410  10.409  0.1951  0.3435  0.2859
  279MOL0     N37582  -1.339   6.292  10.370  0.7656  0.3861 -0.1094
  279MOL0     C37583  -0.481   6.193  10.347 -0.7643  0.3383 -0.1216
  279MOL0     C37584  -0.378   6.194  10.437  0.0500  0.3702  0.0249
  279MOL0     C37585   0.090   6.141  10.540 -0.2767  0.2970 -0.3132
  279MOL0     C37586   0.064   6.074  10.664 -0.8496 -0.3632 -0.6937
  279MOL0     C37587   0.166   6.069  10.757  0.1283 -0.2018 -0.1954
  279MOL0     C37588   0.296   6.106  10.722 -0.7487  0.6986  0.3519
  279MOL0     O37589   0.389   6.077  10.818 -0.2656 -0.7069  0.2675
  279MOL0     C37590   0.529   6.092  10.780  1.1349 -0.4896  1.0112
  279MOL0     C37591   0.614   6.034  10.886  0.0772  0.5237  0.5403
  279MOL0     C37592   0.608   5.879  10.873 -0.0516  0.3766 -0.2546
  279MOL0     C37593   0.642   5.794  11.006  0.9215  0.1289  0.2349
  279MOL0     C37594   0.786   5.814  11.040 -0.1326  0.4350  0.3272
  279MOL0     C37595   0.908   5.837  11.052 -0.0578  0.9001  0.2983
  279MOL0     C37596   0.322   6.155  10.593 -0.3136  0.0305  0.0297
  279MOL0     C37597   0.223   6.182  10.505  0.7119 -0.5490 -0.4774
  279MOL0     H37598  -0.166   6.006  10.252 -1.1192 -0.7697 -0.0151
  279MOL0     H37599  -0.356   5.997  10.106 -0.8874  1.2751 -0.9254
  279MOL0     H37600  -0.731   6.146  10.271 -0.2463 -2.3459  0.8597
  279MOL0     H37601  -0.736   6.242  10.111  1.2817  0.7574  1.9985
  279MOL0     H37602  -0.783   6.032   9.988 -1.4456  2.3164 -0.9714
  279MOL0     H37603  -0.789   5.947  10.141  0.9995  0.7286 -0.7844
  279MOL0     H37604  -0.975   6.145  10.186  0.5490 -3.3191  0.6042
  279MOL0     H37605  -0.943   6.174  10.012  3.1395  1.4386  0.2342
  279MOL0     H37606  -0.997   5.944   9.962 -1.4505 -2.4608  0.8718
  279MOL0     H37607  -1.037   5.918  10.135  3.3404  0.6118  1.0829
  279MOL0     H37608  -1.187   6.106   9.934 -3.9809 -0.1004 -0.1565
  279MOL0     H37609  -1.219   5.932   9.969  0.8063 -0.8136  0.8884
  279MOL0     H37610  -1.292   5.975  10.175 -1.6564  1.5329  1.5671
  279MOL0     H37611  -1.208   6.138  10.191 -2.5011  3.0600 -1.7553
  279MOL0     H37612  -1.368   6.238  10.009 -2.7759  1.2461  1.0182
  279MOL0     H37613  -1.428   6.072  10.000  2.5567 -0.3410 -0.7083
  279MOL0     H37614  -1.509   6.101  10.245  0.2679 -0.6468  0.7780
  279MOL0     H37615  -1.579   6.219  10.153 -0.1315 -2.6723  0.9076
  279MOL0     H37616  -1.474   6.471  10.135 -3.8887  0.3158  2.6041
  279MOL0     H37617  -1.295   6.656  10.447 -0.9499 -0.5001 -0.3646
  279MOL0     H37618  -1.258   6.688  10.276 -1.2952  0.5928 -0.8218
  279MOL0     H37619  -1.501   6.707  10.235 -0.4127  0.3506  1.0290
  279MOL0     H37620  -1.426   6.848  10.316  1.3059 -0.3744 -0.4066
  279MOL0     H37621  -1.539   6.763  10.541 -0.4387  1.7508  0.2572
  279MOL0     H37622  -1.603   6.620  10.440  0.2831  0.6854  0.0160
  279MOL0     H37623  -1.650   6.905  10.367  0.3791 -0.2199 -2.1041
  279MOL0     H37624  -1.761   6.823  10.477  0.3473 -0.0977  0.9418
  279MOL0     H37625  -1.859   6.656  10.080 -1.8872  0.6536 -2.9072
  279MOL0     H37626  -2.199   6.630  10.002  0.9044  0.9395  1.3319
  279MOL0     H37627  -2.127   6.717   9.865 -1.4873 -1.9454 -0.6587
  279MOL0     H37628  -2.038   6.586   9.951  1.2503  0.2417  0.5572
  279MOL0     H37629  -2.403   7.170   9.952  0.5592  0.6972  0.0637
  279MOL0     H37630  -2.655   7.237   9.895 -0.0162 -1.7053 -2.0902
  279MOL0     H37631  -2.880   6.970   9.850 -1.0214 -1.2618  2.2007
  279MOL0     H37632  -3.028   7.064   9.897 -0.0182  3.6936 -0.0929
  279MOL0     H37633  -2.819   7.220   9.739  2.4412 -2.3414 -1.7118
  279MOL0     H37634  -2.873   7.073   9.663  0.5328  1.0939  0.1619
  279MOL0     H37635  -3.123   7.146   9.703  1.0649 -1.9060 -0.5799
  279MOL0     H37636  -3.033   7.230   9.582  1.5781  0.2010  0.3518
  279MOL0     H37637  -3.044   7.333   9.869  2.0073 -1.7487 -0.0589
  279MOL0     H37638  -2.994   7.425   9.737 -0.3001 -0.2494  1.8259
  279MOL0     H37639  -3.267   7.308   9.752  1.0647 -1.1406 -0.9313
  279MOL0     H37640  -3.216   7.448   9.654  0.3586  1.7769  0.7207
  279MOL0     H37641  -3.246   7.431   9.952 -0.9997  3.0071  0.7876
  279MOL0     H37642  -3.159   7.562   9.874  1.8306  0.6033 -3.1994
  279MOL0     H37643  -3.457   7.493   9.811 -1.3749  1.2168  1.3706
  279MOL0     H37644  -3.350   7.619   9.746  1.7053  1.7421  0.8808
  279MOL0     H37645  -3.350   7.720   9.969 -0.0006  1.1231 -1.4860
  279MOL0     H37646  -3.439   7.584  10.038  1.1427 -0.0834 -0.4253
  279MOL0     H37647  -2.791   6.944  10.170 -0.7611 -1.8826 -0.6864
  279MOL0     H37648  -2.566   6.899  10.250 -1.8960  1.2900  0.9571
  279MOL0     H37649  -2.126   7.035  10.256 -1.8534 -0.4908 -0.0296
  279MOL0     H37650  -1.917   6.972  10.360 -1.7936  1.5638 -1.3763
  279MOL0     H37651  -0.564   6.260  10.366  1.2859  3.3448 -1.0551
  279MOL0     H37652  -0.377   6.259  10.524  2.5317  2.3652 -1.3314
  279MOL0     H37653  -0.035   6.037  10.690  0.3421 -1.6308  2.5935
  279MOL0     H37654   0.137   6.038  10.857 -0.3841  0.9345  0.0235
  279MOL0     H37655   0.537   6.049  10.679 -1.1942  1.7436 -0.2474
  279MOL0     H37656   0.541   6.201  10.779  1.8197 -0.5574 -0.2840
  279MOL0     H37657   0.574   6.060  10.985  0.3381  0.3757  0.6863
  279MOL0     H37658   0.720   6.057  10.871  0.7759 -2.3505  0.4847
  279MOL0     H37659   0.678   5.853  10.793 -0.6051 -1.9641 -0.0510
  279MOL0     H37660   0.510   5.854  10.831 -0.4712  0.9543  0.3652
  279MOL0     H37661   0.618   5.691  10.978 -3.8051  0.9894  0.3063
  279MOL0     H37662   0.574   5.830  11.084 -0.6074  2.1504 -1.8866
  279MOL0     H37663   1.012   5.860  11.059 -0.1813  1.1159  1.5479
  279MOL0     H37664   0.424   6.176  10.562 -0.4136  0.9192  0.2887
  279MOL0     H37665   0.258   6.219  10.410  1.6495  0.0258  0.0684
  280MOL0     O37666   3.612   6.942   6.825 -0.7297  0.3816 -0.4891
  280MOL0     C37667   3.656   7.014   6.730  1.0333  0.7170 -1.4004
  280MOL0     O37668   3.570   7.062   6.636  0.4300 -0.4697  0.3943
  280MOL0     C37669   3.435   7.021   6.622  0.4880  0.8123 -0.2550
  280MOL0     C37670   3.394   6.890   6.636 -0.0008 -0.0700  0.1135
  280MOL0     C37671   3.250   6.871   6.635 -0.0195  0.6425  0.6943
  280MOL0     C37672   3.154   6.972   6.605  0.1054 -0.6133 -0.1731
  280MOL0     O37673   3.015   6.945   6.611 -0.1619  0.3454  0.5144
  280MOL0     C37674   2.922   7.051   6.574 -0.3912 -0.1818 -0.1622
  280MOL0     C37675   2.786   6.980   6.577 -0.0966  0.0333  0.8288
  280MOL0     C37676   2.671   7.082   6.558 -0.3941  0.2803  0.8553
  280MOL0     C37677   2.538   7.013   6.564  0.1349  0.2130  0.0043
  280MOL0     C37678   2.422   7.109   6.574  0.4517 -0.3451 -0.3865
  280MOL0     C37679   2.303   7.006   6.580  0.4743 -0.6994  0.6684
  280MOL0     C37680   2.163   7.078   6.565  0.1429 -0.7671 -0.3969
  280MOL0     C37681   2.057   6.977   6.544 -0.0805  0.2012  0.3948
  280MOL0     N37682   1.926   7.022   6.519  0.3937 -0.2450 -0.6965
  280MOL0     C37683   1.838   6.991   6.415 -0.0437  0.8532  0.2719
  280MOL0     C37684   1.718   7.036   6.455  0.8413 -0.5263 -0.5423
  280MOL0     C37685   1.574   7.018   6.391 -1.1942 -0.0212  0.3927
  280MOL0     C37686   1.515   6.879   6.420  0.1750  0.3790 -0.2887
  280MOL0     C37687   1.403   6.849   6.317  0.5772  0.0504  0.9071
  280MOL0     C37688   1.343   6.707   6.334  0.6288 -0.5762  0.2709
  280MOL0     O37689   1.303   6.675   6.467 -0.0341  0.1122 -0.0842
  280MOL0     C37690   1.173   6.653   6.487  0.2440  0.0814 -0.0489
  280MOL0     C37691   1.117   6.536   6.427 -0.2547  0.0991 -0.2113
  280MOL0     C37692   0.983   6.497   6.450  0.8503  0.3148  0.0736
  280MOL0     C37693   0.925   6.376   6.385 -0.2477  0.3659  0.5575
  280MOL0     C37694   0.901   6.581   6.525 -0.0465 -0.2743 -1.0747
  280MOL0     C37695   0.757   6.561   6.558  0.5402 -0.8081 -0.4051
  280MOL0     O37696   0.677   6.519   6.461 -0.6500 -0.4117  0.1659
  280MOL0     C37697   0.542   6.508   6.482  0.0125 -0.5033  0.1698
  280MOL0     C37698   0.446   6.611   6.448 -0.0077  0.3848 -1.3181
  280MOL0     C37699   0.303   6.589   6.462 -0.2392  0.1972  0.1473
  280MOL0     C37700   0.255   6.473   6.522  0.5682 -0.0051  0.2864
  280MOL0     O37701   0.128   6.456   6.563  0.7869 -0.1228 -0.2199
  280MOL0     C37702   0.041   6.566   6.576 -0.1684  0.6184 -0.1498
  280MOL0     C37703  -0.094   6.523   6.628  0.3492  0.0111  0.5437
  280MOL0     C37704  -0.165   6.412   6.545 -0.2017 -0.6797 -0.2713
  280MOL0     C37705  -0.201   6.464   6.395 -0.4994 -0.3795  0.3505
  280MOL0     C37706  -0.267   6.366   6.304 -0.3912 -0.1805 -0.8858
  280MOL0     C37707  -0.314   6.431   6.174 -0.1585 -0.6216  0.3985
  280MOL0     C37708  -0.404   6.327   6.102 -0.0050 -0.2237 -0.3029
  280MOL0     C37709  -0.442   6.374   5.958 -0.2910 -0.5603  0.2945
  280MOL0    Cl37710  -0.496   6.239   5.849  0.0511 -0.2337 -0.2093
  280MOL0     C37711   0.349   6.384   6.564 -0.5131  0.2674  0.0391
  280MOL0     C37712   0.487   6.397   6.544 -0.3641  0.2860 -0.4535
  280MOL0     O37713   0.722   6.595   6.676  0.3575 -0.6714  0.1702
  280MOL0     C37714   0.958   6.695   6.579  0.5521  0.5464  1.4809
  280MOL0     C37715   1.091   6.727   6.565 -0.0236 -0.3124  0.5831
  280MOL0     N37716   1.728   7.107   6.572  0.0634  0.6649  0.1068
  280MOL0     N37717   1.854   7.101   6.608  0.2766 -0.0836 -0.6639
  280MOL0     C37718   3.210   7.098   6.582  0.2824 -0.2564  0.8898
  280MOL0     C37719   3.346   7.120   6.589  0.8548 -0.3693 -0.3239
  280MOL0     C37720   3.794   7.065   6.734  0.2884  0.2939 -0.0360
  280MOL0     C37721   3.834   7.170   6.645 -0.1091 -0.3076 -0.9052
  280MOL0     C37722   3.965   7.221   6.645  0.5895 -0.2532 -0.4297
  280MOL0     C37723   4.061   7.176   6.735  0.1397  0.0456  0.1038
  280MOL0     O37724   4.190   7.226   6.742  0.0345  1.0414  0.0989
  280MOL0     C37725   4.225   7.316   6.634 -0.8311 -0.4436 -0.0973
  280MOL0     C37726   4.374   7.363   6.638 -0.1895  0.3254 -0.0031
  280MOL0     C37727   4.393   7.478   6.536 -0.1752  0.3254  0.2973
  280MOL0     C37728   4.539   7.470   6.502 -0.7853  0.7955  0.5647
  280MOL0     C37729   4.639   7.501   6.606 -0.4082 -0.6518 -0.3851
  280MOL0     C37730   4.732   7.532   6.673 -0.0747 -0.1598 -0.4607
  280MOL0     C37731   4.022   7.076   6.822  0.3283  0.5138  0.4059
  280MOL0     C37732   3.897   7.022   6.823  0.8673 -0.3252 -0.5384
  280MOL0     H37733   3.464   6.809   6.655 -0.3774 -0.4013  0.1084
  280MOL0     H37734   3.223   6.769   6.658  2.0260 -1.1634 -3.7801
  280MOL0     H37735   2.922   7.119   6.659  0.2948 -0.5965  0.1767
  280MOL0     H37736   2.937   7.108   6.481  0.1422  2.3830  1.3957
  280MOL0     H37737   2.783   6.915   6.489 -1.1294  0.7603  0.3057
  280MOL0     H37738   2.780   6.913   6.663  0.6952 -2.0700 -0.6737
  280MOL0     H37739   2.675   7.157   6.638  1.1929 -1.1894  2.2442
  280MOL0     H37740   2.674   7.125   6.457 -1.5066  0.1869  0.7641
  280MOL0     H37741   2.533   6.963   6.468  0.1667 -0.5142  0.3779
  280MOL0     H37742   2.545   6.936   6.642 -1.5485 -0.6798 -0.6752
  280MOL0     H37743   2.421   7.169   6.665 -3.8203 -1.9247  0.8489
  280MOL0     H37744   2.423   7.170   6.483 -1.4598  0.8100  0.3044
  280MOL0     H37745   2.311   6.939   6.495  1.9867  1.7257 -1.2448
  280MOL0     H37746   2.301   6.952   6.675  1.8627 -0.3141  0.9380
  280MOL0     H37747   2.139   7.144   6.649  0.4274 -1.9339  0.6219
  280MOL0     H37748   2.166   7.130   6.468 -1.0771  0.4954  0.2066
  280MOL0     H37749   2.052   6.913   6.633  1.9548  1.5291  1.5655
  280MOL0     H37750   2.092   6.914   6.463  1.8959 -0.2473  1.5292
  280MOL0     H37751   1.860   6.932   6.326  0.6166 -3.7566  3.1051
  280MOL0     H37752   1.503   7.082   6.445 -0.5269  1.3263 -0.2675
  280MOL0     H37753   1.571   7.042   6.284 -3.1549  1.7904  0.7775
  280MOL0     H37754   1.493   6.874   6.527  0.8030  2.3397 -0.0336
  280MOL0     H37755   1.594   6.808   6.392 -0.8161 -0.0936 -2.1053
  280MOL0     H37756   1.443   6.849   6.214  0.0315  0.9987  0.6881
  280MOL0     H37757   1.318   6.917   6.326 -1.3421 -2.1224  0.2564
  280MOL0     H37758   1.419   6.634   6.305  0.6534 -0.7920  0.8776
  280MOL0     H37759   1.261   6.699   6.262  1.3033 -1.8716 -0.3768
  280MOL0     H37760   1.176   6.469   6.365 -3.0069 -0.3489 -2.5107
  280MOL0     H37761   0.873   6.394   6.290 -0.9814 -2.5109  0.3040
  280MOL0     H37762   1.006   6.304   6.371 -1.5127 -1.8306  3.4365
  280MOL0     H37763   0.846   6.335   6.449 -2.1602  0.1266 -1.8009
  280MOL0     H37764   0.485   6.705   6.410  0.2944 -0.1466 -2.3740
  280MOL0     H37765   0.239   6.671   6.433  0.7153  0.8099 -0.2934
  280MOL0     H37766   0.080   6.638   6.650 -0.3421 -0.2585  0.8244
  280MOL0     H37767   0.024   6.616   6.481 -1.2794  3.6890  1.5258
  280MOL0     H37768  -0.066   6.482   6.726  0.1566  3.2910  2.0895
  280MOL0     H37769  -0.157   6.612   6.629  0.7592  0.3156 -0.2796
  280MOL0     H37770  -0.257   6.378   6.594  1.5053  1.5961  5.2940
  280MOL0     H37771  -0.099   6.325   6.541  1.3442  0.3799  1.0426
  280MOL0     H37772  -0.270   6.546   6.416 -0.3906 -0.6738  1.9996
  280MOL0     H37773  -0.113   6.513   6.353 -0.9629 -0.3662 -0.6190
  280MOL0     H37774  -0.357   6.325   6.351  0.1029 -1.3287 -0.9237
  280MOL0     H37775  -0.195   6.287   6.280  0.6079  0.0183  1.1935
  280MOL0     H37776  -0.363   6.529   6.185 -0.6483 -0.6979 -0.9385
  280MOL0     H37777  -0.227   6.452   6.111 -0.6678  0.2380 -0.0356
  280MOL0     H37778  -0.494   6.303   6.160 -1.0702  0.0368 -1.7900
  280MOL0     H37779  -0.346   6.235   6.103  0.6464  0.1387  1.6861
  280MOL0     H37780  -0.349   6.404   5.909 -0.6288 -1.3130 -0.8592
  280MOL0     H37781  -0.520   6.451   5.960  1.8888  1.8152  3.4481
  280MOL0     H37782   0.310   6.289   6.599 -1.0938 -0.0826 -1.4664
  280MOL0     H37783   0.557   6.320   6.574  1.8686  1.6750 -1.7900
  280MOL0     H37784   0.912   6.757   6.656  1.1542  0.6237  1.7850
  280MOL0     H37785   1.128   6.812   6.623  3.5591 -0.7545 -0.8173
  280MOL0     H37786   3.142   7.180   6.565  0.4736 -0.6723 -2.7476
  280MOL0     H37787   3.387   7.220   6.585  0.1159 -0.0731 -0.5621
  280MOL0     H37788   3.768   7.222   6.576  0.1192 -0.4866 -1.2594
  280MOL0     H37789   3.985   7.302   6.575  1.3028 -1.2257 -1.3894
  280MOL0     H37790   4.201   7.273   6.536 -2.6981 -2.7305  1.2654
  280MOL0     H37791   4.167   7.407   6.653 -1.4414 -1.2285  2.0935
  280MOL0     H37792   4.439   7.277   6.621 -0.8240  0.0816 -1.2917
  280MOL0     H37793   4.393   7.409   6.736  0.3813 -2.7253  1.4281
  280MOL0     H37794   4.367   7.580   6.565  0.7194  1.6849 -3.1693
  280MOL0     H37795   4.346   7.448   6.441 -1.3889 -0.1619  1.0355
  280MOL0     H37796   4.569   7.544   6.427 -0.5534 -0.5897 -0.7585
  280MOL0     H37797   4.551   7.374   6.451 -4.2954  0.8107 -0.5753
  280MOL0     H37798   4.819   7.563   6.729 -1.3678  1.5242  0.7283
  280MOL0     H37799   4.098   7.044   6.893 -0.6056  0.4836  1.4317
  280MOL0     H37800   3.873   6.938   6.887  2.6855 -1.5106 -1.3156
  281MOL0     O37801   1.531   8.091   8.195 -0.4357 -0.4893  0.4412
  281MOL0     C37802   1.582   8.197   8.157 -0.5690  0.4006 -0.0298
  281MOL0     O37803   1.536   8.323   8.164 -0.8276 -0.4756  0.3774
  281MOL0     C37804   1.407   8.355   8.206 -0.1098  0.0292 -0.6785
  281MOL0     C37805   1.386   8.480   8.265  0.6665  0.1798 -1.2452
  281MOL0     C37806   1.264   8.519   8.310 -0.5289  0.4458 -0.0243
  281MOL0     C37807   1.156   8.444   8.283 -0.9437 -0.4885  0.2691
  281MOL0     O37808   1.032   8.496   8.312  0.1002 -0.1404 -0.1024
  281MOL0     C37809   0.912   8.442   8.257 -0.0924 -0.6009  0.1564
  281MOL0     C37810   0.796   8.532   8.314  0.1881  0.1383 -0.1241
  281MOL0     C37811   0.665   8.501   8.240 -0.2690 -0.1085 -0.4048
  281MOL0     C37812   0.587   8.376   8.296  0.8684  1.6464  0.8657
  281MOL0     C37813   0.437   8.383   8.255  0.2770 -0.6046  0.2996
  281MOL0     C37814   0.347   8.281   8.330  0.0628 -0.1884 -0.1250
  281MOL0     C37815   0.200   8.290   8.291  0.5179  0.3172 -0.2833
  281MOL0     C37816   0.127   8.410   8.356  0.6040 -0.3783  0.2749
  281MOL0     N37817  -0.007   8.420   8.309  0.0917  0.0510 -0.2992
  281MOL0     C37818  -0.100   8.322   8.325 -0.6623 -0.0945 -0.1523
  281MOL0     C37819  -0.216   8.373   8.312  0.3253  0.1797 -0.0071
  281MOL0     C37820  -0.347   8.303   8.290 -1.2429 -0.2329  0.0065
  281MOL0     C37821  -0.472   8.371   8.357  0.3671  0.1876 -0.4418
  281MOL0     C37822  -0.609   8.302   8.311 -0.0379 -0.2470 -0.1950
  281MOL0     C37823  -0.719   8.391   8.369 -1.0614 -0.6291  0.6979
  281MOL0     O37824  -0.838   8.316   8.358  0.4413 -0.2102  0.1140
  281MOL0     C37825  -0.949   8.392   8.387  0.8085  0.0113 -0.2362
  281MOL0     C37826  -1.068   8.324   8.428  0.4457 -0.5024 -0.9325
  281MOL0     C37827  -1.184   8.394   8.462 -0.0543 -0.0943 -0.7798
  281MOL0     C37828  -1.302   8.312   8.520 -0.3605 -0.4681 -0.0038
  281MOL0     C37829  -1.191   8.535   8.449  0.7933  0.4484  0.0338
  281MOL0     C37830  -1.313   8.619   8.469  0.3699 -0.5547 -0.9008
  281MOL0     O37831  -1.291   8.753   8.477 -0.0657  0.6798 -0.7737
  281MOL0     C37832  -1.398   8.836   8.500  0.1598  0.4180  0.4037
  281MOL0     C37833  -1.382   8.933   8.598  0.5349  0.4112  0.2090
  281MOL0     C37834  -1.495   9.019   8.632 -0.5861 -0.9337  0.3098
  281MOL0     C37835  -1.608   9.004   8.571 -0.3492  0.0776 -0.0766
  281MOL0     O37836  -1.719   9.073   8.604  0.5521 -0.7653  0.1789
  281MOL0     C37837  -1.737   9.135   8.735  0.4020  0.6319 -0.9142
  281MOL0     C37838  -1.881   9.180   8.763 -0.1608 -0.3709  0.1352
  281MOL0     C37839  -1.963   9.059   8.835 -0.2274  0.0568  0.2296
  281MOL0     C37840  -2.097   9.112   8.882 -0.9611  1.3776  0.2175
  281MOL0     C37841  -2.197   9.000   8.894 -0.2086 -0.3885  0.3478
  281MOL0     C37842  -2.341   9.036   8.914 -0.2213  0.2702  0.0442
  281MOL0     C37843  -2.377   9.148   9.012  0.6725  0.8102 -0.0536
  281MOL0     C37844  -2.524   9.189   8.993  0.8383 -0.1089 -0.0341
  281MOL0    Cl37845  -2.628   9.043   9.029 -0.1229 -0.2002  0.1906
  281MOL0     C37846  -1.626   8.912   8.468 -0.2069  0.8927  0.0681
  281MOL0     C37847  -1.515   8.833   8.427  0.6512  0.6105  0.2577
  281MOL0     O37848  -1.427   8.574   8.483  0.7376 -0.6897  0.8827
  281MOL0     C37849  -1.078   8.597   8.406  0.3578 -0.5152 -0.0916
  281MOL0     C37850  -0.962   8.533   8.379 -0.3876  0.7562  0.1142
  281MOL0     N37851  -0.190   8.506   8.277  0.9511 -0.6735 -0.3929
  281MOL0     N37852  -0.068   8.533   8.289 -0.6482 -1.0480 -0.7147
  281MOL0     C37853   1.168   8.323   8.224 -0.0108  0.1912  0.3744
  281MOL0     C37854   1.291   8.281   8.175 -0.4544 -0.2034  0.1123
  281MOL0     C37855   1.724   8.181   8.102  0.3011  0.0855  0.1247
  281MOL0     C37856   1.776   8.048   8.077  0.4801  0.1691  0.1063
  281MOL0     C37857   1.908   8.029   8.030  1.1043  0.1092 -0.1712
  281MOL0     C37858   1.996   8.139   8.015 -0.5880  0.4973 -0.0441
  281MOL0     O37859   2.122   8.128   7.956 -0.1964 -0.4215  0.4927
  281MOL0     C37860   2.195   8.003   7.982 -0.0568  0.3974 -0.2958
  281MOL0     C37861   2.339   8.016   7.935  0.2059  0.7642  0.5133
  281MOL0     C37862   2.360   8.063   7.794  0.7137 -0.5203  0.8112
  281MOL0     C37863   2.495   8.032   7.748  0.4331  0.5028 -0.2983
  281MOL0     C37864   2.483   8.049   7.598  0.1604  0.6106 -0.6597
  281MOL0     C37865   2.449   8.055   7.481 -0.0634 -0.1330  0.4023
  281MOL0     C37866   1.946   8.265   8.040 -0.4504 -0.5719 -0.3319
  281MOL0     C37867   1.810   8.286   8.088 -0.1814  0.7966  0.1378
  281MOL0     H37868   1.464   8.550   8.293 -1.4196  0.9097  3.8240
  281MOL0     H37869   1.239   8.615   8.354  4.0722  1.3725  1.1155
  281MOL0     H37870   0.917   8.448   8.147 -2.6566  0.8509  0.0488
  281MOL0     H37871   0.898   8.335   8.277 -0.0398 -0.7920 -0.7561
  281MOL0     H37872   0.776   8.533   8.422  1.0755  0.6195  0.0520
  281MOL0     H37873   0.819   8.639   8.300  1.6282  0.0162  1.0538
  281MOL0     H37874   0.614   8.596   8.259 -0.4078 -0.1250 -0.6947
  281MOL0     H37875   0.677   8.475   8.134 -1.0294  1.5971 -0.9487
  281MOL0     H37876   0.629   8.283   8.256  1.7401  2.3990  0.0131
  281MOL0     H37877   0.604   8.366   8.404 -1.1543  0.9964  1.1785
  281MOL0     H37878   0.407   8.488   8.270  3.3928  0.6669 -1.5039
  281MOL0     H37879   0.428   8.371   8.146 -1.0870  4.0649 -0.3321
  281MOL0     H37880   0.384   8.182   8.303 -1.8504 -0.9547 -0.1066
  281MOL0     H37881   0.351   8.302   8.437 -0.7337  2.9642 -0.6140
  281MOL0     H37882   0.182   8.281   8.184 -1.2440  1.8343 -0.1690
  281MOL0     H37883   0.150   8.205   8.339 -0.0272 -0.7185 -2.5643
  281MOL0     H37884   0.172   8.509   8.343 -3.2465  2.2000  3.8915
  281MOL0     H37885   0.126   8.389   8.463 -1.9883 -0.8047  0.2402
  281MOL0     H37886  -0.088   8.216   8.348  0.6188  0.4275  1.8354
  281MOL0     H37887  -0.352   8.300   8.181  0.0260  3.0652 -0.2814
  281MOL0     H37888  -0.337   8.201   8.327 -0.6023  0.1339  0.8965
  281MOL0     H37889  -0.477   8.477   8.330 -1.2664  0.0877 -0.6145
  281MOL0     H37890  -0.457   8.370   8.465 -2.2560  2.6302  0.0684
  281MOL0     H37891  -0.630   8.203   8.351 -3.4615  0.2326 -0.5024
  281MOL0     H37892  -0.616   8.315   8.202  0.0721  3.7568  0.1095
  281MOL0     H37893  -0.709   8.472   8.296 -0.0520  0.3774  1.9030
  281MOL0     H37894  -0.702   8.430   8.470  0.2321  0.4911  0.0813
  281MOL0     H37895  -1.078   8.219   8.450  0.1879 -0.3701 -0.4165
  281MOL0     H37896  -1.339   8.381   8.596 -0.2403 -0.8040  0.3568
  281MOL0     H37897  -1.374   8.288   8.441 -1.5521 -0.4160  1.0412
  281MOL0     H37898  -1.268   8.224   8.574  1.7092 -0.4347 -1.1410
  281MOL0     H37899  -1.287   8.930   8.650  0.4692 -4.0700  0.4455
  281MOL0     H37900  -1.483   9.086   8.717 -1.1119 -1.9488  1.1987
  281MOL0     H37901  -1.708   9.071   8.818  2.6399  3.2232  0.4533
  281MOL0     H37902  -1.674   9.223   8.753  1.7240 -0.5331  0.4541
  281MOL0     H37903  -1.865   9.248   8.848  0.4095 -2.2759  1.6298
  281MOL0     H37904  -1.925   9.229   8.676 -0.5779  1.1718  1.1723
  281MOL0     H37905  -1.908   9.022   8.922 -0.9011 -0.6621  0.3545
  281MOL0     H37906  -1.966   8.986   8.754  0.7030  3.1145 -2.8280
  281MOL0     H37907  -2.079   9.166   8.975  0.0531  1.5319 -0.0633
  281MOL0     H37908  -2.138   9.177   8.804  1.9160 -0.0595 -2.7295
  281MOL0     H37909  -2.172   8.943   8.984  2.1657  0.7873  0.5199
  281MOL0     H37910  -2.186   8.928   8.812 -0.5171  1.6707 -1.5838
  281MOL0     H37911  -2.389   9.046   8.816 -1.1122  0.3810  0.4768
  281MOL0     H37912  -2.388   8.944   8.952  0.3433  0.1723  0.5274
  281MOL0     H37913  -2.318   9.238   8.995 -0.4869  1.2718 -1.8986
  281MOL0     H37914  -2.360   9.113   9.114 -4.1578  1.1334  1.1108
  281MOL0     H37915  -2.541   9.228   8.892  0.4075  2.6076  0.9946
  281MOL0     H37916  -2.546   9.271   9.062 -0.1023 -2.3300  2.4503
  281MOL0     H37917  -1.720   8.902   8.414 -0.7820  1.3121  0.9812
  281MOL0     H37918  -1.537   8.768   8.343  1.5943  1.9598 -1.0819
  281MOL0     H37919  -1.080   8.705   8.391  0.2232 -0.3858  0.7742
  281MOL0     H37920  -0.870   8.586   8.357  1.6017 -3.2252 -2.1978
  281MOL0     H37921   1.083   8.263   8.192  0.6692 -0.2681 -0.6430
  281MOL0     H37922   1.307   8.189   8.120 -1.8125 -0.8744  0.7640
  281MOL0     H37923   1.711   7.962   8.088  0.6430  0.0894  0.4711
  281MOL0     H37924   1.936   7.925   8.017  0.5518 -0.6372  3.5751
  281MOL0     H37925   2.194   7.983   8.089  1.7262 -0.1004 -0.3416
  281MOL0     H37926   2.151   7.920   7.926  0.1588  0.0856 -0.0050
  281MOL0     H37927   2.373   7.912   7.943 -3.2719 -0.3851  5.1934
  281MOL0     H37928   2.395   8.078   8.006 -0.2160 -1.4833  2.9873
  281MOL0     H37929   2.342   8.170   7.782 -2.1851 -1.1608 -1.7243
  281MOL0     H37930   2.295   8.008   7.725  0.6678  0.3575  0.1379
  281MOL0     H37931   2.514   7.925   7.761 -3.2386 -0.1662  0.4683
  281MOL0     H37932   2.572   8.094   7.796 -0.2550  1.9602 -0.9917
  281MOL0     H37933   2.419   8.067   7.379  0.2351 -2.4346 -0.0116
  281MOL0     H37934   2.014   8.348   8.026 -1.7893  0.4753 -0.8360
  281MOL0     H37935   1.771   8.386   8.105 -0.7448  0.8114 -1.1854
  282MOL0     O37936   7.792   3.288  11.170  0.4072 -0.8425 -0.3884
  282MOL0     C37937   7.793   3.409  11.180  0.6364  0.2646  0.5380
  282MOL0     O37938   7.697   3.490  11.141  0.2447 -0.6168  0.3716
  282MOL0     C37939   7.571   3.436  11.116  1.4710 -0.1966 -0.2774
  282MOL0     C37940   7.493   3.364  11.212 -0.5361  0.2390  0.1353
  282MOL0     C37941   7.369   3.320  11.174  0.2943 -0.1545 -0.1037
  282MOL0     C37942   7.313   3.344  11.048 -0.0642  0.2241  0.4186
  282MOL0     O37943   7.199   3.284  10.995  0.3130  0.1072  0.3551
  282MOL0     C37944   7.102   3.216  11.075 -0.7933 -0.5266  0.1276
  282MOL0     C37945   6.972   3.281  11.036  1.1404 -0.7224 -0.6289
  282MOL0     C37946   6.856   3.240  11.128  0.9485 -0.3507 -0.6943
  282MOL0     C37947   6.727   3.319  11.117  0.4215  1.2298  0.2553
  282MOL0     C37948   6.618   3.249  11.205 -0.4447  0.0844 -0.5024
  282MOL0     C37949   6.488   3.333  11.200 -0.1992  0.1983  0.2571
  282MOL0     C37950   6.372   3.240  11.201 -0.0460  0.1562  0.0726
  282MOL0     C37951   6.244   3.298  11.256 -0.4462  0.7539  0.4772
  282MOL0     N37952   6.264   3.330  11.397 -0.2079  0.2840  0.0912
  282MOL0     C37953   6.297   3.248  11.505  0.2628  0.4087  0.2409
  282MOL0     C37954   6.280   3.325  11.610  0.5504 -0.5241  0.3320
  282MOL0     C37955   6.288   3.297  11.765 -0.2901 -0.1450 -0.6102
  282MOL0     C37956   6.138   3.282  11.820 -0.9756 -1.0346  0.3410
  282MOL0     C37957   6.084   3.414  11.857  0.1090 -0.0768  0.9788
  282MOL0     C37958   5.961   3.411  11.942 -0.0415 -0.1004 -0.2211
  282MOL0     O37959   5.852   3.353  11.873 -0.2786 -0.5548 -0.5486
  282MOL0     C37960   5.738   3.367  11.940 -0.1019 -0.9744  0.5782
  282MOL0     C37961   5.712   3.361  12.076  1.1647 -0.3266 -0.2768
  282MOL0     C37962   5.586   3.362  12.135 -0.0446 -0.1860  0.4994
  282MOL0     C37963   5.592   3.349  12.287  0.0630 -1.5222 -0.8266
  282MOL0     C37964   5.472   3.376  12.057 -0.4939  0.2480 -0.1857
  282MOL0     C37965   5.340   3.368  12.118 -0.2321 -0.1755  1.0074
  282MOL0     O37966   5.245   3.345  12.024 -0.3309  0.5006 -0.1028
  282MOL0     C37967   5.124   3.336  12.080  0.0265  0.0676 -0.0703
  282MOL0     C37968   5.068   3.200  12.089 -0.2952 -0.2868 -0.0884
  282MOL0     C37969   4.950   3.178  12.162 -0.5871 -0.0028 -0.0409
  282MOL0     C37970   4.872   3.283  12.202 -0.6310 -0.0446 -0.6497
  282MOL0     O37971   4.746   3.255  12.256 -0.8111  0.0045  0.4623
  282MOL0     C37972   4.643   3.352  12.237 -0.7956  0.6227  0.1368
  282MOL0     C37973   4.503   3.299  12.269  0.9241  0.1320  0.3144
  282MOL0     C37974   4.437   3.209  12.165 -0.5292 -0.0387  0.7198
  282MOL0     C37975   4.520   3.082  12.131  0.3059 -0.3089 -0.0253
  282MOL0     C37976   4.449   3.001  12.029  0.1054  0.3372  0.1057
  282MOL0     C37977   4.495   2.859  12.020 -0.2080  0.2252  0.4713
  282MOL0     C37978   4.486   2.831  11.875 -0.6660  0.2893  0.0412
  282MOL0     C37979   4.525   2.692  11.835  0.2357  0.7139  0.6023
  282MOL0    Cl37980   4.388   2.574  11.855 -0.4407  0.3582  0.0000
  282MOL0     C37981   4.916   3.416  12.179 -0.5603 -1.0287 -0.2531
  282MOL0     C37982   5.039   3.438  12.123  0.6534  0.1986  0.1617
  282MOL0     O37983   5.318   3.388  12.232 -0.1445 -0.0887  0.7266
  282MOL0     C37984   5.493   3.388  11.920 -0.2957 -0.9177  0.1403
  282MOL0     C37985   5.622   3.386  11.865 -0.0773  0.0991 -0.1445
  282MOL0     N37986   6.237   3.452  11.566 -0.6646 -0.1868  0.1375
  282MOL0     N37987   6.253   3.458  11.440  0.1785 -0.0679  0.6377
  282MOL0     C37988   7.380   3.425  10.961  0.4492 -0.5050 -1.0725
  282MOL0     C37989   7.505   3.471  10.993 -1.0292 -0.2027  1.0494
  282MOL0     C37990   7.906   3.473  11.256 -0.4140 -0.3395  0.3342
  282MOL0     C37991   7.998   3.393  11.327 -0.4273  0.1164 -0.0918
  282MOL0     C37992   8.093   3.465  11.399  0.8425 -0.8436 -0.7219
  282MOL0     C37993   8.102   3.609  11.406 -0.1325  0.2457  0.4112
  282MOL0     O37994   8.210   3.681  11.457  0.0255 -0.4241 -0.6287
  282MOL0     C37995   8.314   3.607  11.537 -0.0623  0.4847  0.9108
  282MOL0     C37996   8.431   3.594  11.447 -1.0634 -0.1287  0.1102
  282MOL0     C37997   8.491   3.728  11.394 -0.3360  0.6730  0.9304
  282MOL0     C37998   8.641   3.740  11.386 -0.7160 -1.4736  0.3961
  282MOL0     C37999   8.696   3.634  11.297 -0.7439 -0.6089 -0.5972
  282MOL0     C38000   8.742   3.563  11.214  0.1432  0.6935 -0.0313
  282MOL0     C38001   8.019   3.681  11.324 -0.4033 -0.6704  0.2902
  282MOL0     C38002   7.917   3.615  11.255 -0.1274 -0.9551  0.0647
  282MOL0     H38003   7.528   3.342  11.313 -1.6463  2.2281  1.0216
  282MOL0     H38004   7.326   3.246  11.240  1.4749 -2.5662 -1.8915
  282MOL0     H38005   7.097   3.109  11.053 -2.4192 -0.6079  0.7194
  282MOL0     H38006   7.123   3.229  11.181 -0.4446 -0.4161  0.0452
  282MOL0     H38007   6.978   3.390  11.042 -1.5834 -0.5568  0.0140
  282MOL0     H38008   6.949   3.249  10.934 -4.3229  0.0867  0.0538
  282MOL0     H38009   6.840   3.134  11.104  2.4654 -0.8926  0.5275
  282MOL0     H38010   6.895   3.236  11.230  0.5432 -2.2408 -0.5657
  282MOL0     H38011   6.747   3.416  11.165  2.1281  1.2862 -0.4671
  282MOL0     H38012   6.696   3.326  11.012  1.6044 -1.1924 -0.3203
  282MOL0     H38013   6.605   3.144  11.178 -1.7620 -0.5366  2.1662
  282MOL0     H38014   6.654   3.236  11.308 -1.4819  1.0536  0.0043
  282MOL0     H38015   6.495   3.399  11.287 -0.4982 -0.8104  1.0756
  282MOL0     H38016   6.489   3.395  11.111  1.6938  0.6272  0.5376
  282MOL0     H38017   6.355   3.199  11.101  1.0403 -0.7607  0.2361
  282MOL0     H38018   6.395   3.150  11.260  1.1596  0.1024 -0.4355
  282MOL0     H38019   6.162   3.227  11.247 -0.7195  0.9920  1.0256
  282MOL0     H38020   6.215   3.379  11.189  2.8586  2.0760  0.4388
  282MOL0     H38021   6.318   3.142  11.500 -2.2895 -0.1296 -0.7045
  282MOL0     H38022   6.338   3.199  11.773 -1.5119 -0.6498  3.2107
  282MOL0     H38023   6.346   3.373  11.818 -1.3017  0.1653  0.0780
  282MOL0     H38024   6.147   3.216  11.906  1.6133  0.2395  1.1465
  282MOL0     H38025   6.077   3.241  11.738  2.1515 -0.7286 -2.3439
  282MOL0     H38026   6.059   3.476  11.770 -1.2296  0.5590  1.7950
  282MOL0     H38027   6.159   3.469  11.915  1.6469 -0.8018 -0.2546
  282MOL0     H38028   5.943   3.509  11.987  3.8888  0.4619  0.5163
  282MOL0     H38029   5.985   3.347  12.028 -1.0925  2.3277  2.0345
  282MOL0     H38030   5.796   3.371  12.144 -0.3357  3.0514  1.2850
  282MOL0     H38031   5.551   3.442  12.326  1.9085 -1.0060 -0.0100
  282MOL0     H38032   5.540   3.256  12.313  1.8992 -1.8974  1.9528
  282MOL0     H38033   5.696   3.342  12.323 -0.7920 -0.7154  2.0893
  282MOL0     H38034   5.127   3.122  12.043  0.1656  1.9367 -3.6463
  282MOL0     H38035   4.925   3.073  12.151  1.6479 -0.3889 -2.7857
  282MOL0     H38036   4.672   3.432  12.306  0.8710 -1.7764  2.4522
  282MOL0     H38037   4.646   3.380  12.132  0.0405  3.2574  0.7901
  282MOL0     H38038   4.521   3.247  12.363  2.3120  3.4824  2.0303
  282MOL0     H38039   4.426   3.375  12.282 -1.0801 -1.5767 -0.9809
  282MOL0     H38040   4.431   3.273  12.077 -0.1558 -0.9926 -0.0110
  282MOL0     H38041   4.337   3.172  12.189 -0.9825 -1.5646 -2.9666
  282MOL0     H38042   4.620   3.112  12.097 -0.3525  0.7064 -1.1812
  282MOL0     H38043   4.526   3.028  12.225 -4.1578 -1.1642 -0.0165
  282MOL0     H38044   4.455   3.057  11.936  0.1873  1.4310  0.7579
  282MOL0     H38045   4.345   3.007  12.061 -0.4395  1.8672 -1.8343
  282MOL0     H38046   4.599   2.845  12.051 -0.2073 -1.3895 -0.1452
  282MOL0     H38047   4.429   2.796  12.081 -1.5580  1.5273  0.3971
  282MOL0     H38048   4.551   2.905  11.827  0.5187 -0.5406  0.3128
  282MOL0     H38049   4.383   2.842  11.839 -1.5584 -0.4662  2.2119
  282MOL0     H38050   4.612   2.652  11.887  1.5464  1.0677 -1.1906
  282MOL0     H38051   4.554   2.705  11.730 -1.1293  2.1561  0.3748
  282MOL0     H38052   4.868   3.504  12.222  1.5495 -0.5433  1.2527
  282MOL0     H38053   5.080   3.538  12.108 -1.5352  1.2941  1.0915
  282MOL0     H38054   5.422   3.403  11.840  3.5380 -0.0472 -3.4161
  282MOL0     H38055   5.628   3.400  11.757  1.9066  3.7407  0.2775
  282MOL0     H38056   7.327   3.453  10.871 -2.2114 -1.6384  0.0039
  282MOL0     H38057   7.545   3.533  10.914 -2.4366 -1.6715 -0.9059
  282MOL0     H38058   8.001   3.285  11.336 -0.3319  0.1853  0.9016
  282MOL0     H38059   8.161   3.402  11.456  1.2043 -0.1412 -0.3679
  282MOL0     H38060   8.336   3.670  11.624 -2.5533 -0.7661  2.5570
  282MOL0     H38061   8.286   3.506  11.567 -1.4942  1.1274  1.8482
  282MOL0     H38062   8.410   3.527  11.364  1.6739  0.2611 -1.0125
  282MOL0     H38063   8.512   3.556  11.511 -0.1790 -0.3974 -1.1308
  282MOL0     H38064   8.466   3.803  11.470  1.0184 -0.5173  2.6369
  282MOL0     H38065   8.452   3.744  11.293 -0.7090  0.1051  0.9790
  282MOL0     H38066   8.690   3.730  11.483  1.6153  6.2864  0.6793
  282MOL0     H38067   8.669   3.839  11.350 -0.0894 -0.8154  2.5419
  282MOL0     H38068   8.782   3.475  11.168 -2.5664 -0.5875 -0.1390
  282MOL0     H38069   8.043   3.786  11.310  1.9339 -1.4875 -3.1114
  282MOL0     H38070   7.856   3.679  11.193 -1.0606 -3.6800 -2.0344
  283MOL0     O38071   9.897   4.071   2.489 -0.0526  0.9404  0.8034
  283MOL0     C38072   9.861   4.136   2.582 -1.1133  0.4793  0.0678
  283MOL0     O38073   9.743   4.185   2.595  0.0796 -0.2475  0.5787
  283MOL0     C38074   9.637   4.186   2.507  0.3657  0.6062  1.3042
  283MOL0     C38075   9.546   4.293   2.518  0.0271 -0.2986  0.5580
  283MOL0     C38076   9.429   4.310   2.440 -0.0033  0.3494 -0.5542
  283MOL0     C38077   9.408   4.198   2.349 -0.4728 -0.0185  0.1345
  283MOL0     O38078   9.293   4.176   2.285  1.0790 -0.0888 -0.2588
  283MOL0     C38079   9.293   4.180   2.146  0.1853  0.4876 -0.3634
  283MOL0     C38080   9.170   4.235   2.091  0.1207 -0.4916 -0.0513
  283MOL0     C38081   9.051   4.141   2.093  0.5424 -0.0246 -0.7521
  283MOL0     C38082   9.001   4.088   1.954  0.3750  0.0025  0.4014
  283MOL0     C38083   8.860   4.040   1.958 -1.1220  0.0122 -0.5354
  283MOL0     C38084   8.842   3.901   2.032  0.5784 -0.5139  0.2555
  283MOL0     C38085   8.698   3.849   2.025  0.2441  0.0079  0.0282
  283MOL0     C38086   8.664   3.839   1.872  0.1767  0.1919 -0.0041
  283MOL0     N38087   8.593   3.717   1.846  0.2143 -0.4256  0.5134
  283MOL0     C38088   8.644   3.598   1.805  0.2316  0.3628  0.0510
  283MOL0     C38089   8.551   3.506   1.839  0.2173  0.0162 -0.9292
  283MOL0     C38090   8.567   3.358   1.841  0.0119 -0.1331  0.0157
  283MOL0     C38091   8.646   3.297   1.717  0.0363  0.4032 -0.2094
  283MOL0     C38092   8.684   3.145   1.728  0.1165 -1.3123 -0.7027
  283MOL0     C38093   8.572   3.050   1.773 -0.0419 -0.4740 -0.0678
  283MOL0     O38094   8.464   3.064   1.675 -0.3082 -0.3687 -0.4981
  283MOL0     C38095   8.341   3.003   1.689 -0.5945  0.5263  0.1492
  283MOL0     C38096   8.315   2.875   1.755  0.1788  0.6341  0.8943
  283MOL0     C38097   8.192   2.813   1.750 -0.6369  0.5208  0.7214
  283MOL0     C38098   8.172   2.690   1.848 -0.0893 -0.4907  0.3428
  283MOL0     C38099   8.077   2.878   1.685 -0.4988  0.2072  0.9162
  283MOL0     C38100   7.943   2.820   1.686  0.3236 -0.7894  0.8412
  283MOL0     O38101   7.908   2.722   1.763  0.8595 -0.1994  0.5309
  283MOL0     C38102   7.788   2.649   1.744  0.2825 -1.5428 -0.8978
  283MOL0     C38103   7.785   2.517   1.783  0.1376 -0.5366  0.5797
  283MOL0     C38104   7.666   2.441   1.774 -0.2026  0.3869  0.7530
  283MOL0     C38105   7.541   2.503   1.758  0.1319  0.1935  1.1639
  283MOL0     O38106   7.418   2.439   1.769 -0.5930  0.5371  0.3854
  283MOL0     C38107   7.415   2.300   1.737 -0.0375  0.1188 -0.7974
  283MOL0     C38108   7.263   2.256   1.757 -0.6960  1.1384  0.5084
  283MOL0     C38109   7.175   2.286   1.636 -0.7982 -0.3067 -0.4151
  283MOL0     C38110   7.031   2.259   1.674  0.1785  0.4801 -0.3332
  283MOL0     C38111   6.943   2.255   1.549  0.8565 -0.2402 -0.6086
  283MOL0     C38112   6.802   2.214   1.559  0.2666  0.5915 -0.0472
  283MOL0     C38113   6.722   2.297   1.658 -0.6157  0.0787  0.1823
  283MOL0     C38114   6.568   2.269   1.679  0.5143  0.1258  1.3458
  283MOL0    Cl38115   6.511   2.104   1.710  0.3120 -0.1991  0.5063
  283MOL0     C38116   7.546   2.646   1.744 -0.3842  0.2231  0.4593
  283MOL0     C38117   7.667   2.712   1.726 -0.2701 -0.0294 -0.4137
  283MOL0     O38118   7.873   2.862   1.591  0.2011  0.3288  0.4071
  283MOL0     C38119   8.107   2.996   1.624  0.2272 -0.0962  0.3880
  283MOL0     C38120   8.232   3.055   1.619  0.0315 -0.6342 -0.5043
  283MOL0     N38121   8.440   3.573   1.889  0.0921  0.5721 -0.4015
  283MOL0     N38122   8.463   3.702   1.894 -0.0940  0.0088  0.1086
  283MOL0     C38123   9.503   4.095   2.324  0.0202  0.2045 -0.0723
  283MOL0     C38124   9.613   4.090   2.412 -0.5593  0.5480 -0.6432
  283MOL0     C38125   9.971   4.172   2.680 -0.5177  0.6428 -0.4899
  283MOL0     C38126  10.102   4.167   2.634 -0.1286 -0.1943 -0.0125
  283MOL0     C38127  10.204   4.205   2.724 -1.2030  0.7042 -0.6234
  283MOL0     C38128  10.179   4.230   2.859 -0.4192 -0.3861  0.7155
  283MOL0     O38129  10.267   4.275   2.956  0.1757  0.2116  0.7587
  283MOL0     C38130  10.379   4.350   2.910  0.0718 -0.1088  0.4396
  283MOL0     C38131  10.466   4.363   3.030  0.2989  0.1913  0.2164
  283MOL0     C38132  10.608   4.392   2.996 -0.1491 -0.3036 -0.1197
  283MOL0     C38133  10.706   4.393   3.114 -0.3758  0.7069 -1.2363
  283MOL0     C38134  10.662   4.480   3.227 -0.0279  0.0643 -0.2474
  283MOL0     C38135  10.633   4.553   3.323  0.9465  0.2153  0.2908
  283MOL0     C38136  10.045   4.217   2.904 -0.1271 -1.0910  0.2232
  283MOL0     C38137   9.940   4.201   2.815 -1.2222 -0.3621 -0.1734
  283MOL0     H38138   9.572   4.362   2.598  0.4289 -0.1910  0.3344
  283MOL0     H38139   9.355   4.389   2.449 -0.1096  0.1375  0.6008
  283MOL0     H38140   9.374   4.240   2.103  2.5608 -0.3796  2.5823
  283MOL0     H38141   9.301   4.078   2.106  0.2512  1.2270 -2.3197
  283MOL0     H38142   9.144   4.322   2.152 -1.4572 -1.2022  0.3357
  283MOL0     H38143   9.191   4.258   1.986  0.5010 -0.0750  0.1154
  283MOL0     H38144   9.066   4.057   2.162  0.7148  0.2459 -0.4535
  283MOL0     H38145   8.964   4.197   2.128  0.8813  1.4257 -2.1067
  283MOL0     H38146   9.014   4.161   1.873  1.8849  0.6368  1.1701
  283MOL0     H38147   9.061   4.000   1.932 -1.6066 -1.2273 -0.2811
  283MOL0     H38148   8.794   4.109   2.012 -1.1087  0.6824 -1.3521
  283MOL0     H38149   8.821   4.025   1.857 -3.1636 -0.1149  0.2048
  283MOL0     H38150   8.916   3.828   1.998  0.4086 -0.6654  0.2104
  283MOL0     H38151   8.859   3.925   2.137  1.4702 -0.0785  0.0249
  283MOL0     H38152   8.693   3.751   2.075  0.9893 -0.9193 -1.6275
  283MOL0     H38153   8.621   3.906   2.077 -0.5346 -1.3218  0.4006
  283MOL0     H38154   8.753   3.830   1.810 -0.7061 -1.8400 -1.0895
  283MOL0     H38155   8.605   3.928   1.848 -1.5299 -1.1227 -0.9603
  283MOL0     H38156   8.745   3.576   1.774  0.9685  0.2794  2.3922
  283MOL0     H38157   8.622   3.340   1.934 -1.1564  0.1220  0.7757
  283MOL0     H38158   8.468   3.314   1.846 -0.2268  0.3684 -0.1869
  283MOL0     H38159   8.738   3.349   1.688 -0.4296 -0.1218 -2.9572
  283MOL0     H38160   8.572   3.305   1.636  0.0158 -4.5224 -0.9533
  283MOL0     H38161   8.771   3.124   1.792 -1.0713 -2.4154  0.6189
  283MOL0     H38162   8.705   3.106   1.628 -0.8777 -0.7186 -1.1611
  283MOL0     H38163   8.545   3.077   1.875 -2.7239  1.1965 -1.1045
  283MOL0     H38164   8.614   2.949   1.781  3.3732  0.7943 -0.5237
  283MOL0     H38165   8.397   2.821   1.802  0.6572 -1.1970 -1.7809
  283MOL0     H38166   8.098   2.712   1.926  1.3559  1.7284  1.1500
  283MOL0     H38167   8.142   2.602   1.790  2.7437 -0.9230 -0.5881
  283MOL0     H38168   8.265   2.664   1.900  0.2500 -0.4943 -0.2649
  283MOL0     H38169   7.877   2.465   1.809  2.5822  2.6927 -0.7764
  283MOL0     H38170   7.662   2.336   1.801  0.8092  0.3465  0.7875
  283MOL0     H38171   7.456   2.269   1.640  2.0503  0.9846 -0.2512
  283MOL0     H38172   7.469   2.253   1.820 -0.0837  1.0874 -0.1958
  283MOL0     H38173   7.250   2.150   1.777  0.0216  0.9733  0.1245
  283MOL0     H38174   7.215   2.320   1.832 -1.9404  2.8528 -1.6378
  283MOL0     H38175   7.210   2.221   1.555  1.2466  0.5257 -0.2519
  283MOL0     H38176   7.184   2.390   1.604 -2.3118  0.1956  0.6974
  283MOL0     H38177   7.029   2.157   1.714 -3.0969  0.0219 -1.3889
  283MOL0     H38178   6.992   2.330   1.747  1.1636 -0.5036  1.2302
  283MOL0     H38179   7.001   2.198   1.477  1.0011  0.3323 -0.9521
  283MOL0     H38180   6.945   2.359   1.514  0.9807 -1.1869 -3.6964
  283MOL0     H38181   6.762   2.218   1.457  0.2563  0.6316 -0.0414
  283MOL0     H38182   6.805   2.114   1.603  4.7734  0.7781  0.5414
  283MOL0     H38183   6.730   2.403   1.628  1.7924 -0.4178 -1.2433
  283MOL0     H38184   6.768   2.297   1.757 -1.3187 -0.2170  0.5189
  283MOL0     H38185   6.521   2.311   1.590  0.9409  0.6557  1.3626
  283MOL0     H38186   6.533   2.331   1.762 -0.9446 -0.3029  1.0823
  283MOL0     H38187   7.455   2.703   1.732 -0.7019 -0.5884 -1.3044
  283MOL0     H38188   7.671   2.820   1.722  0.9208 -0.0568 -0.1594
  283MOL0     H38189   8.026   3.043   1.570 -0.5449 -1.0754  0.6514
  283MOL0     H38190   8.257   3.138   1.554  1.2004 -3.1860 -3.5598
  283MOL0     H38191   9.473   4.013   2.261 -0.4577 -2.8665  3.7625
  283MOL0     H38192   9.681   4.005   2.413 -0.9830  0.2005 -1.2345
  283MOL0     H38193  10.134   4.131   2.537  2.0116  0.7413  0.3039
  283MOL0     H38194  10.304   4.180   2.690 -2.1025 -1.5923 -1.8320
  283MOL0     H38195  10.446   4.306   2.835 -1.7330 -0.7357 -0.8729
  283MOL0     H38196  10.341   4.446   2.874 -1.3887  0.5011  3.3226
  283MOL0     H38197  10.464   4.266   3.082 -0.0122 -0.1504 -0.4188
  283MOL0     H38198  10.429   4.438   3.101  0.6232 -0.9833  1.6873
  283MOL0     H38199  10.601   4.489   2.946 -0.6605  1.0222  2.3486
  283MOL0     H38200  10.649   4.320   2.925 -2.4862  0.0826 -1.9839
  283MOL0     H38201  10.811   4.414   3.093  0.7929 -1.5955  1.5570
  283MOL0     H38202  10.726   4.294   3.157 -0.0602  0.8383 -1.0712
  283MOL0     H38203  10.612   4.617   3.407 -0.3895  1.8095 -1.1508
  283MOL0     H38204  10.039   4.245   3.009 -1.4615  0.6071 -0.2645
  283MOL0     H38205   9.845   4.202   2.868 -1.4318 -3.0706 -0.3682
  284MOL0     O38206   9.971   4.938   0.846  0.2081 -0.1939  0.2964
  284MOL0     C38207  10.079   4.992   0.839  0.0940 -1.1114  0.7764
  284MOL0     O38208  10.130   5.068   0.737 -0.1033  0.1723  0.3944
  284MOL0     C38209  10.044   5.092   0.633 -0.0672 -0.8291  0.2414
  284MOL0     C38210   9.907   5.127   0.660 -0.1452 -1.5329 -0.2320
  284MOL0     C38211   9.818   5.165   0.556  0.1431 -0.2529 -0.4108
  284MOL0     C38212   9.868   5.161   0.420 -0.5723  0.8038 -0.1896
  284MOL0     O38213   9.807   5.211   0.310  0.6117 -0.6038 -0.1285
  284MOL0     C38214   9.710   5.321   0.344  0.0671  0.0685 -0.3946
  284MOL0     C38215   9.681   5.403   0.222 -0.1642  0.4304 -0.5827
  284MOL0     C38216   9.631   5.313   0.105 -0.3897 -0.2210 -0.5146
  284MOL0     C38217   9.532   5.378   0.001  0.6913 -1.0475 -0.0564
  284MOL0     C38218   9.399   5.430   0.047 -0.4866 -0.3336  0.2612
  284MOL0     C38219   9.404   5.585   0.060  0.1113  0.0488  0.4546
  284MOL0     C38220   9.276   5.651   0.108 -0.9053  0.1543 -0.3764
  284MOL0     C38221   9.155   5.640   0.015  0.1284 -0.4851  0.3790
  284MOL0     N38222   9.034   5.706   0.072  1.0930 -0.1066  0.4688
  284MOL0     C38223   8.996   5.835   0.054  0.3095  0.0255 -0.5452
  284MOL0     C38224   8.900   5.846   0.150 -0.9553 -0.3741 -0.0247
  284MOL0     C38225   8.814   5.966   0.162 -0.1666 -0.0769 -0.5599
  284MOL0     C38226   8.676   5.956   0.105  0.1216  0.1502  0.2729
  284MOL0     C38227   8.598   6.086   0.118  0.3498  0.3231 -0.1556
  284MOL0     C38228   8.448   6.074   0.086 -1.1973 -0.0457  0.5999
  284MOL0     O38229   8.393   6.204   0.105  0.4227  0.4103  0.3502
  284MOL0     C38230   8.263   6.196   0.151 -0.1190  0.1946 -0.2283
  284MOL0     C38231   8.243   6.254   0.276  0.3378 -0.3897 -1.4192
  284MOL0     C38232   8.115   6.260   0.341  0.5510 -0.3357  0.0234
  284MOL0     C38233   8.111   6.296   0.490  0.1329 -0.4844  0.2449
  284MOL0     C38234   8.003   6.229   0.264  0.2297  0.1952  0.9769
  284MOL0     C38235   7.857   6.245   0.296  0.0412  0.0704  0.0813
  284MOL0     O38236   7.764   6.181   0.221 -0.0147  0.1961  0.1496
  284MOL0     C38237   7.635   6.221   0.238  0.5330 -0.3909 -0.0371
  284MOL0     C38238   7.532   6.130   0.279 -0.3469 -0.7709 -0.0464
  284MOL0     C38239   7.398   6.171   0.292 -0.5867  0.4991 -0.3178
  284MOL0     C38240   7.359   6.301   0.256  0.4888  0.0391 -0.5708
  284MOL0     O38241   7.227   6.327   0.267 -0.1028 -0.2645  0.3571
  284MOL0     C38242   7.191   6.463   0.233 -0.0896 -0.5476 -0.0652
  284MOL0     C38243   7.045   6.482   0.268  0.5447 -0.4803  0.5991
  284MOL0     C38244   7.022   6.474   0.421 -0.0370 -0.5310 -0.0049
  284MOL0     C38245   6.879   6.508   0.448  0.2100 -0.5279 -0.5018
  284MOL0     C38246   6.852   6.536   0.605 -0.0022  0.1654  0.8120
  284MOL0     C38247   6.705   6.543   0.635  0.8888  0.4465 -0.0388
  284MOL0     C38248   6.635   6.655   0.570 -0.3412 -0.0114 -0.3630
  284MOL0     C38249   6.482   6.649   0.586  0.2556  0.4211  0.2005
  284MOL0    Cl38250   6.402   6.802   0.541 -0.2163 -0.1989 -0.1986
  284MOL0     C38251   7.456   6.388   0.210  0.0291 -0.3674 -0.1633
  284MOL0     C38252   7.591   6.351   0.197  1.1612 -0.4990 -0.7236
  284MOL0     O38253   7.839   6.313   0.392 -0.3529 -0.4859  0.7718
  284MOL0     C38254   8.026   6.153   0.134 -0.6194  0.6146 -0.1591
  284MOL0     C38255   8.158   6.130   0.087  0.3546 -0.8618  0.3863
  284MOL0     N38256   8.878   5.731   0.218  1.0653 -0.2002  0.0695
  284MOL0     N38257   8.959   5.647   0.173 -0.3523 -0.1873 -0.2575
  284MOL0     C38258   9.993   5.117   0.390 -0.5745 -0.2672 -1.1022
  284MOL0     C38259  10.085   5.100   0.498  0.4959  0.0631 -0.2879
  284MOL0     C38260  10.164   4.971   0.958 -0.6388 -0.0019 -0.2384
  284MOL0     C38261  10.126   4.889   1.069  0.2480  0.4251  0.1098
  284MOL0     C38262  10.209   4.863   1.175 -0.5993  0.3800  0.3009
  284MOL0     C38263  10.345   4.905   1.175  0.3644 -0.6181  0.3188
  284MOL0     O38264  10.434   4.874   1.281  0.0486  0.2291 -0.4021
  284MOL0     C38265  10.569   4.923   1.287  0.5660  0.2645 -0.3854
  284MOL0     C38266  10.650   4.831   1.182  0.3272  0.2417 -0.2261
  284MOL0     C38267  10.661   4.678   1.222 -0.1997  0.3545 -0.3981
  284MOL0     C38268  10.728   4.597   1.106  0.8942 -0.3979 -0.0762
  284MOL0     C38269  10.861   4.655   1.080  0.3393  1.5766  0.1018
  284MOL0     C38270  10.971   4.695   1.066 -0.3478  0.2325  0.7936
  284MOL0     C38271  10.383   4.980   1.059 -0.0607 -0.4149  0.0319
  284MOL0     C38272  10.297   5.023   0.958  0.2321 -0.0823 -0.6506
  284MOL0     H38273   9.869   5.127   0.762 -0.1729 -0.9953 -0.2368
  284MOL0     H38274   9.720   5.207   0.578 -0.4788 -1.7147 -0.2582
  284MOL0     H38275   9.615   5.276   0.372  0.4731 -0.7779 -0.3483
  284MOL0     H38276   9.750   5.374   0.431 -0.4307 -3.2165  2.0441
  284MOL0     H38277   9.604   5.475   0.252 -0.3591 -0.7754  2.0910
  284MOL0     H38278   9.773   5.449   0.185 -0.4049  0.5104 -1.0992
  284MOL0     H38279   9.713   5.268   0.048 -2.1437 -2.0600 -1.6785
  284MOL0     H38280   9.577   5.228   0.147  0.1229 -0.6789 -0.7639
  284MOL0     H38281   9.581   5.454  -0.061  0.6997  0.8510  2.1304
  284MOL0     H38282   9.506   5.295  -0.065  1.2140  0.0980 -1.7623
  284MOL0     H38283   9.320   5.400  -0.023  0.1903 -2.7507  0.4366
  284MOL0     H38284   9.375   5.378   0.140 -1.6038 -1.8014 -0.7782
  284MOL0     H38285   9.489   5.607   0.126 -0.8853 -1.8156  2.4825
  284MOL0     H38286   9.430   5.631  -0.035  2.6824  2.6349  2.2293
  284MOL0     H38287   9.253   5.595   0.199  0.0001 -1.0633 -0.8638
  284MOL0     H38288   9.290   5.755   0.139  2.3311 -1.0746  3.2238
  284MOL0     H38289   9.131   5.534   0.005 -2.8780  0.2562 -2.0181
  284MOL0     H38290   9.173   5.679  -0.086  0.2384 -0.7271  0.3038
  284MOL0     H38291   9.028   5.907  -0.020 -1.4510 -0.4715 -1.8536
  284MOL0     H38292   8.796   5.989   0.268  0.3813 -0.1661 -0.4403
  284MOL0     H38293   8.857   6.058   0.121 -4.6009  1.7984 -1.5606
  284MOL0     H38294   8.621   5.872   0.149  0.5484  0.6280  1.7701
  284MOL0     H38295   8.682   5.943  -0.004 -1.8942 -0.5195  0.1992
  284MOL0     H38296   8.648   6.159   0.054  0.0724 -0.4898 -1.3362
  284MOL0     H38297   8.603   6.119   0.222 -0.3454 -0.9709  0.3129
  284MOL0     H38298   8.396   6.000   0.148 -0.2580 -0.5478  0.8179
  284MOL0     H38299   8.424   6.045  -0.016 -0.7680 -2.1180  1.0376
  284MOL0     H38300   8.325   6.302   0.329 -2.0414  1.3860  0.9601
  284MOL0     H38301   8.023   6.253   0.539  0.1829 -1.6261 -0.6217
  284MOL0     H38302   8.199   6.248   0.534 -0.8735 -0.7813  2.0550
  284MOL0     H38303   8.121   6.405   0.495  3.6341 -0.6750 -0.1864
  284MOL0     H38304   7.568   6.032   0.305  3.5717  0.6658  0.5059
  284MOL0     H38305   7.319   6.105   0.327 -1.7902  0.8813 -2.1578
  284MOL0     H38306   7.247   6.545   0.280 -0.1328  0.1013 -1.1103
  284MOL0     H38307   7.205   6.471   0.125  0.8694  0.7143  0.1222
  284MOL0     H38308   7.014   6.576   0.221  0.7697 -0.6546  0.0985
  284MOL0     H38309   6.979   6.412   0.215 -0.7005  3.1440 -3.1865
  284MOL0     H38310   7.085   6.552   0.464  0.5412 -1.6681  1.3139
  284MOL0     H38311   7.048   6.377   0.464 -3.0167 -1.0820  0.8359
  284MOL0     H38312   6.861   6.600   0.391  0.9970 -0.4559 -0.6602
  284MOL0     H38313   6.811   6.436   0.403  0.3200 -1.1689  0.3463
  284MOL0     H38314   6.884   6.636   0.633  0.1988  0.9788 -1.9846
  284MOL0     H38315   6.889   6.452   0.664 -2.3543 -0.0081  2.1454
  284MOL0     H38316   6.652   6.452   0.605 -1.6208  1.1703  1.8362
  284MOL0     H38317   6.690   6.560   0.742  2.1619 -0.8725  0.3819
  284MOL0     H38318   6.658   6.657   0.463 -1.0477 -2.2687 -0.6181
  284MOL0     H38319   6.677   6.744   0.617 -0.8065  0.8572 -1.5501
  284MOL0     H38320   6.464   6.627   0.691  0.3658 -3.1004 -0.4106
  284MOL0     H38321   6.437   6.567   0.529 -1.1239  0.9538  0.4840
  284MOL0     H38322   7.432   6.493   0.196  0.5136 -0.2845 -0.3521
  284MOL0     H38323   7.658   6.432   0.169 -0.4092  1.1814  0.1185
  284MOL0     H38324   7.950   6.107   0.071  1.2048 -0.8490 -1.3684
  284MOL0     H38325   8.173   6.075  -0.005  1.1850 -2.1657  1.2619
  284MOL0     H38326  10.028   5.098   0.290 -0.4374 -1.2987 -0.8704
  284MOL0     H38327  10.190   5.082   0.480  0.2281  1.5566 -4.3257
  284MOL0     H38328  10.027   4.846   1.060  0.3759  0.2706 -0.6004
  284MOL0     H38329  10.167   4.802   1.255 -0.6837 -0.5675 -0.4379
  284MOL0     H38330  10.583   5.029   1.264 -0.9109  0.8573  1.2227
  284MOL0     H38331  10.614   4.917   1.386 -0.8985 -0.8045  0.2453
  284MOL0     H38332  10.751   4.871   1.191 -0.2646  2.1760 -1.6106
  284MOL0     H38333  10.616   4.854   1.081 -0.2805  1.7329  0.2846
  284MOL0     H38334  10.560   4.643   1.245 -0.2087  1.0217  0.6049
  284MOL0     H38335  10.724   4.678   1.311 -0.6958  0.1924 -0.0400
  284MOL0     H38336  10.666   4.605   1.016 -0.8329  0.6171  1.1596
  284MOL0     H38337  10.736   4.494   1.141 -2.2353 -1.0901 -1.0550
  284MOL0     H38338  11.073   4.723   1.053 -0.2129  1.6099  3.8156
  284MOL0     H38339  10.479   5.030   1.068 -0.5201  0.5582 -0.3564
  284MOL0     H38340  10.318   5.095   0.879 -1.7629 -0.7208 -1.8327
  285MOL0     O38341   5.228   6.643   7.778  0.6864 -1.0038  0.5480
  285MOL0     C38342   5.242   6.569   7.684  0.3253 -0.0500  0.5158
  285MOL0     O38343   5.142   6.504   7.629 -0.2256 -0.7511  0.5736
  285MOL0     C38344   5.014   6.487   7.677  0.1585 -0.9585  0.3028
  285MOL0     C38345   4.972   6.355   7.685  0.1275  0.2397 -0.7171
  285MOL0     C38346   4.840   6.336   7.741  0.3145  0.4307 -0.1051
  285MOL0     C38347   4.755   6.442   7.783  0.8919 -0.5391  0.2955
  285MOL0     O38348   4.637   6.430   7.849  0.4003  0.2391  0.3623
  285MOL0     C38349   4.590   6.297   7.876  0.0044 -0.1551 -0.5538
  285MOL0     C38350   4.482   6.302   7.984  0.1742 -0.4050  0.0903
  285MOL0     C38351   4.439   6.156   8.011  0.0696  0.1752 -0.2370
  285MOL0     C38352   4.348   6.096   7.901 -0.1751  0.7409 -0.1523
  285MOL0     C38353   4.289   5.956   7.935 -0.5568 -0.2358  0.4581
  285MOL0     C38354   4.392   5.844   7.969 -0.1493  1.1093 -0.5132
  285MOL0     C38355   4.335   5.700   7.970  0.4604 -0.0975 -0.2831
  285MOL0     C38356   4.208   5.676   8.066 -0.7124  0.8247 -0.4762
  285MOL0     N38357   4.079   5.681   8.003 -0.2810 -0.4181  0.4253
  285MOL0     C38358   3.969   5.672   8.079  0.2625 -0.1994 -0.4818
  285MOL0     C38359   3.867   5.683   7.986  0.1101 -0.1963 -0.2967
  285MOL0     C38360   3.722   5.683   8.022 -0.2963  0.1733 -0.0959
  285MOL0     C38361   3.658   5.789   7.942 -0.3918  0.2005  0.8220
  285MOL0     C38362   3.509   5.759   7.925 -0.2620 -0.0590  0.3644
  285MOL0     C38363   3.432   5.878   7.877 -0.1333  0.2957  0.6745
  285MOL0     O38364   3.388   5.956   7.990  0.2052 -0.2959 -0.2054
  285MOL0     C38365   3.409   6.092   7.996 -0.9463 -0.6658  0.6510
  285MOL0     C38366   3.395   6.183   7.897 -0.2674  0.2218 -0.2853
  285MOL0     C38367   3.410   6.322   7.912  1.2162  0.6255 -0.2603
  285MOL0     C38368   3.389   6.404   7.785 -0.0222  0.0227 -0.0772
  285MOL0     C38369   3.431   6.374   8.035  0.3843  0.5369  0.1592
  285MOL0     C38370   3.469   6.519   8.067 -0.5006  0.1629  0.2986
  285MOL0     O38371   3.459   6.556   8.196  0.1351  1.1951 -0.3999
  285MOL0     C38372   3.484   6.691   8.224  0.5278 -0.4565 -0.3219
  285MOL0     C38373   3.386   6.783   8.189  0.0282  0.2106  0.9284
  285MOL0     C38374   3.400   6.916   8.209  0.0580 -0.1838 -0.5415
  285MOL0     C38375   3.513   6.967   8.270  0.1601 -0.4759  0.7454
  285MOL0     O38376   3.529   7.098   8.292  0.8267 -0.1398 -0.1244
  285MOL0     C38377   3.583   7.179   8.188 -0.1777  0.6843 -0.8696
  285MOL0     C38378   3.574   7.321   8.229 -0.4809  0.2299  0.0092
  285MOL0     C38379   3.639   7.415   8.130 -0.1488  0.3000 -0.9743
  285MOL0     C38380   3.797   7.426   8.137  0.3035  0.0190  0.0105
  285MOL0     C38381   3.855   7.511   8.030  0.1349 -0.0284 -0.4301
  285MOL0     C38382   4.006   7.500   8.030 -0.2534 -0.2259  0.4286
  285MOL0     C38383   4.065   7.577   8.143 -0.3447  0.8693 -1.1384
  285MOL0     C38384   4.216   7.574   8.134  0.8673 -0.7058  0.4549
  285MOL0    Cl38385   4.264   7.637   7.972  0.2595  0.3428 -0.2512
  285MOL0     C38386   3.616   6.874   8.302 -0.0382 -0.1417  0.0742
  285MOL0     C38387   3.605   6.735   8.276  0.0242 -0.0443 -0.3861
  285MOL0     O38388   3.518   6.589   7.977 -0.6781 -0.4076 -0.1700
  285MOL0     C38389   3.457   6.277   8.134  0.4290 -0.5691 -0.2263
  285MOL0     C38390   3.438   6.140   8.118 -0.7161 -0.1786  0.1669
  285MOL0     N38391   3.922   5.693   7.859  0.1725 -0.5698  0.7517
  285MOL0     N38392   4.053   5.703   7.867 -0.6685 -0.4427 -0.2342
  285MOL0     C38393   4.805   6.572   7.765 -0.0690 -0.1181 -0.8260
  285MOL0     C38394   4.936   6.590   7.722 -0.0284 -0.1861 -0.9196
  285MOL0     C38395   5.372   6.547   7.619  0.2831 -0.8737 -0.6442
  285MOL0     C38396   5.394   6.454   7.533  0.4200 -0.0653  0.4385
  285MOL0     C38397   5.525   6.425   7.490  0.1266 -0.3266  0.2785
  285MOL0     C38398   5.635   6.479   7.549 -0.1305 -0.2939 -0.0345
  285MOL0     O38399   5.758   6.434   7.518 -0.1343 -0.2651 -1.0287
  285MOL0     C38400   5.874   6.494   7.571  0.6582 -0.3600 -0.3896
  285MOL0     C38401   5.996   6.417   7.532  0.2712 -0.3135  0.6216
  285MOL0     C38402   6.013   6.419   7.377  0.2059 -0.5061 -0.3669
  285MOL0     C38403   6.016   6.568   7.323 -0.3148 -0.1044  0.1519
  285MOL0     C38404   6.123   6.593   7.222  1.1965  0.1805 -0.3246
  285MOL0     C38405   6.198   6.609   7.132  0.5658 -0.6201  0.2111
  285MOL0     C38406   5.611   6.577   7.643 -0.7041  0.6741 -0.0420
  285MOL0     C38407   5.482   6.617   7.672  0.4708  0.2316  0.3586
  285MOL0     H38408   5.040   6.277   7.653 -0.4078 -1.8661  2.7474
  285MOL0     H38409   4.801   6.235   7.734  2.3385 -0.6444  2.5193
  285MOL0     H38410   4.558   6.244   7.786  1.9255 -1.9078 -0.2936
  285MOL0     H38411   4.676   6.241   7.915  0.5518  0.3571 -1.0156
  285MOL0     H38412   4.535   6.326   8.077  1.0622 -1.1107 -0.2261
  285MOL0     H38413   4.391   6.358   7.961  0.0294 -0.7402 -0.1467
  285MOL0     H38414   4.531   6.097   8.013  1.3742  1.9544 -2.1607
  285MOL0     H38415   4.388   6.156   8.108  0.4145  0.8893 -0.0434
  285MOL0     H38416   4.264   6.165   7.887  0.0500  1.0018 -0.2202
  285MOL0     H38417   4.409   6.084   7.811  1.8130 -0.1269  1.2460
  285MOL0     H38418   4.207   5.966   8.007 -0.6995  0.6512  0.1766
  285MOL0     H38419   4.234   5.931   7.844  1.9995 -1.2901 -0.8882
  285MOL0     H38420   4.476   5.848   7.899  0.6120  1.0701  0.3786
  285MOL0     H38421   4.443   5.874   8.061  0.3776  1.1907 -0.8273
  285MOL0     H38422   4.301   5.665   7.872 -1.5473  0.7808  0.0508
  285MOL0     H38423   4.411   5.634   8.014 -0.5037  0.1715  1.9464
  285MOL0     H38424   4.222   5.750   8.145  0.7286  0.8216 -0.6891
  285MOL0     H38425   4.230   5.576   8.104  0.9164  0.9378 -1.0317
  285MOL0     H38426   3.955   5.662   8.186 -1.4520  1.0910 -0.5536
  285MOL0     H38427   3.669   5.588   8.011 -1.1800  0.6272  0.1839
  285MOL0     H38428   3.710   5.711   8.127 -1.3474  1.3366 -0.5007
  285MOL0     H38429   3.705   5.805   7.845 -2.0745 -0.1267 -0.0886
  285MOL0     H38430   3.660   5.877   8.007 -3.0102 -0.4111  1.8892
  285MOL0     H38431   3.470   5.726   8.022 -0.1782  2.2455  1.2342
  285MOL0     H38432   3.515   5.684   7.846 -1.4175  1.3326 -1.1015
  285MOL0     H38433   3.339   5.842   7.832  1.4829 -0.9201 -1.8823
  285MOL0     H38434   3.502   5.925   7.808  0.9670 -2.8907 -0.5282
  285MOL0     H38435   3.386   6.147   7.795  3.4551 -0.5939 -0.4830
  285MOL0     H38436   3.361   6.508   7.804 -0.5172 -0.4103  1.8289
  285MOL0     H38437   3.479   6.398   7.723  0.2695 -4.0815  0.4735
  285MOL0     H38438   3.300   6.361   7.739 -0.8034  0.0287  1.3482
  285MOL0     H38439   3.296   6.737   8.152  0.8580  0.5372 -1.6918
  285MOL0     H38440   3.329   6.992   8.178 -1.5555 -1.0930  0.7298
  285MOL0     H38441   3.686   7.143   8.189 -1.1728 -2.5985  1.9986
  285MOL0     H38442   3.550   7.155   8.087 -1.0521  0.5423 -0.5610
  285MOL0     H38443   3.473   7.359   8.245 -1.3507 -2.1677  0.6844
  285MOL0     H38444   3.624   7.327   8.326  4.0198  0.8272 -2.0889
  285MOL0     H38445   3.609   7.519   8.142 -0.2014  0.1874 -0.0747
  285MOL0     H38446   3.601   7.387   8.031 -0.5772  1.0314 -1.0206
  285MOL0     H38447   3.812   7.471   8.236 -0.3737  0.6072 -0.1505
  285MOL0     H38448   3.843   7.326   8.138 -1.6712 -0.9940 -2.0980
  285MOL0     H38449   3.825   7.615   8.048 -0.1390 -0.2684  0.5603
  285MOL0     H38450   3.823   7.486   7.928  0.4615  0.4407 -0.6519
  285MOL0     H38451   4.042   7.400   8.003  0.3214  0.7461 -2.9634
  285MOL0     H38452   4.030   7.558   7.940 -3.1792 -1.0676 -1.0304
  285MOL0     H38453   4.033   7.523   8.233  3.6030 -0.3912 -0.2842
  285MOL0     H38454   4.019   7.676   8.139  0.0599  1.0161 -2.9414
  285MOL0     H38455   4.264   7.478   8.156  2.1963 -0.1062  0.2748
  285MOL0     H38456   4.256   7.630   8.219 -0.2440 -2.7117  2.4157
  285MOL0     H38457   3.706   6.914   8.349  1.0357 -2.5426  0.2300
  285MOL0     H38458   3.668   6.670   8.335 -0.8207  0.3783  1.0412
  285MOL0     H38459   3.490   6.304   8.234 -0.3250 -2.0693  0.4621
  285MOL0     H38460   3.460   6.083   8.208  3.5905  1.3515  0.3590
  285MOL0     H38461   4.754   6.659   7.803 -0.1306 -0.9552  1.0982
  285MOL0     H38462   4.970   6.693   7.720 -2.1374  0.5930  0.1085
  285MOL0     H38463   5.305   6.409   7.490 -0.0982 -0.0207  1.4335
  285MOL0     H38464   5.528   6.347   7.415 -0.0525  2.9533 -3.4901
  285MOL0     H38465   5.879   6.601   7.545 -2.1537  0.6719  2.6958
  285MOL0     H38466   5.872   6.484   7.680  1.1996  2.1008 -0.0790
  285MOL0     H38467   5.987   6.318   7.577  2.1781  0.4389  2.9073
  285MOL0     H38468   6.091   6.449   7.576  0.3116 -1.5950  1.5071
  285MOL0     H38469   5.934   6.366   7.323  0.0985  0.3111 -1.0465
  285MOL0     H38470   6.105   6.364   7.357  1.2056  0.4233  1.4628
  285MOL0     H38471   6.040   6.633   7.408 -0.7555  2.4156 -1.5101
  285MOL0     H38472   5.924   6.607   7.278  0.3253 -1.0842 -2.1372
  285MOL0     H38473   6.278   6.620   7.062 -0.7665  0.6823 -1.2163
  285MOL0     H38474   5.699   6.632   7.673  3.1608 -2.9455 -3.4712
  285MOL0     H38475   5.468   6.698   7.743 -0.7593 -0.2123  0.6508
  286MOL0     O38476   5.982   5.824   3.075 -0.1126 -0.3529  0.0436
  286MOL0     C38477   5.978   5.869   2.956 -0.3438  0.9902 -0.2263
  286MOL0     O38478   5.877   5.942   2.906  0.3179  0.4857  0.3553
  286MOL0     C38479   5.784   5.987   2.994 -0.7251  0.1704 -0.7550
  286MOL0     C38480   5.800   6.045   3.118 -0.3835 -0.5583 -0.9198
  286MOL0     C38481   5.693   6.090   3.192  1.3507  0.3099 -0.7821
  286MOL0     C38482   5.560   6.070   3.149 -0.1241 -0.6754 -1.5616
  286MOL0     O38483   5.471   6.125   3.243 -0.1689  0.0614 -0.1242
  286MOL0     C38484   5.333   6.118   3.216  0.6639 -0.5779 -0.5653
  286MOL0     C38485   5.283   6.224   3.115 -0.0391 -0.0197 -0.5736
  286MOL0     C38486   5.150   6.291   3.141  0.8324  0.5188  0.2420
  286MOL0     C38487   5.138   6.421   3.058  0.0379 -0.7839 -0.0462
  286MOL0     C38488   5.003   6.480   3.050  0.5345 -0.4382 -0.3868
  286MOL0     C38489   4.950   6.530   3.186 -0.0433 -0.0444 -0.2303
  286MOL0     C38490   4.829   6.616   3.157 -0.4441 -0.7447  0.4102
  286MOL0     C38491   4.863   6.764   3.157  0.3827 -0.0947 -0.0360
  286MOL0     N38492   4.742   6.851   3.121 -0.1186  0.5026  0.4278
  286MOL0     C38493   4.687   6.834   2.991  0.4361 -0.3138 -0.2478
  286MOL0     C38494   4.572   6.913   2.989  0.0126 -0.2784 -0.0146
  286MOL0     C38495   4.474   6.925   2.865  0.3406  0.4193  0.1454
  286MOL0     C38496   4.514   7.060   2.804 -0.8603 -0.4066  0.4003
  286MOL0     C38497   4.455   7.188   2.871  0.1911  0.1260 -0.4725
  286MOL0     C38498   4.308   7.193   2.847  0.1724  0.9838 -0.1535
  286MOL0     O38499   4.265   7.323   2.831  0.1298  0.2342  0.0364
  286MOL0     C38500   4.134   7.347   2.840 -0.4088  0.0440  0.4336
  286MOL0     C38501   4.101   7.481   2.816  0.3046 -0.2041 -0.2941
  286MOL0     C38502   3.964   7.531   2.818 -0.0740 -0.0281 -0.0610
  286MOL0     C38503   3.942   7.675   2.778 -0.3783 -0.2226 -0.0819
  286MOL0     C38504   3.864   7.436   2.848  0.1017 -0.3613 -0.6232
  286MOL0     C38505   3.720   7.465   2.835 -0.4536  0.5672 -0.4364
  286MOL0     O38506   3.649   7.353   2.827 -0.0294  0.1574 -0.1090
  286MOL0     C38507   3.510   7.354   2.844 -0.4027 -0.1661  0.0530
  286MOL0     C38508   3.454   7.331   2.974  0.8738  0.0675  0.7170
  286MOL0     C38509   3.308   7.333   2.991  0.3984  0.0311 -0.1514
  286MOL0     C38510   3.224   7.345   2.879  0.4236 -0.2456  0.3050
  286MOL0     O38511   3.091   7.352   2.909  0.0165 -0.0642  0.6029
  286MOL0     C38512   3.010   7.248   2.843  0.2164 -0.1156 -0.9745
  286MOL0     C38513   2.912   7.206   2.952 -0.6948 -0.4676  0.6581
  286MOL0     C38514   2.837   7.086   2.888  1.1459 -0.4346  0.3125
  286MOL0     C38515   2.737   7.034   2.995  0.0301  0.4263 -0.3209
  286MOL0     C38516   2.638   6.937   2.940  0.3863 -1.3904  0.1672
  286MOL0     C38517   2.531   6.892   3.038  0.7216  0.2550  0.4472
  286MOL0     C38518   2.431   6.799   2.973 -0.3521  0.7255  0.2755
  286MOL0     C38519   2.481   6.669   2.905  0.2562 -0.9834 -0.1802
  286MOL0    Cl38520   2.565   6.558   3.011 -0.1140 -0.2615  0.0853
  286MOL0     C38521   3.282   7.360   2.754  0.8973  0.3208  0.1447
  286MOL0     C38522   3.420   7.367   2.743 -0.1957 -0.0543  0.1980
  286MOL0     O38523   3.675   7.574   2.829  0.2838  0.2822 -0.3808
  286MOL0     C38524   3.907   7.302   2.868  0.2042 -0.0052 -0.5464
  286MOL0     C38525   4.035   7.259   2.868  0.4325  0.1200 -0.6292
  286MOL0     N38526   4.576   6.983   3.117  0.2544 -0.3356  0.4088
  286MOL0     N38527   4.680   6.955   3.192 -0.1711  0.3590 -0.2321
  286MOL0     C38528   5.536   5.998   3.038 -0.1624  0.0390  0.1928
  286MOL0     C38529   5.646   5.960   2.956  0.3039 -0.2129 -0.5581
  286MOL0     C38530   6.097   5.840   2.871  0.2465 -0.6238  0.2576
  286MOL0     C38531   6.094   5.874   2.732  0.6423 -0.5711 -0.0208
  286MOL0     C38532   6.209   5.858   2.652 -0.1338 -0.1795  0.5967
  286MOL0     C38533   6.325   5.799   2.703 -0.3595 -0.3145  0.2721
  286MOL0     O38534   6.420   5.763   2.605 -0.6611  0.1125  0.1356
  286MOL0     C38535   6.549   5.704   2.632  0.4584  0.3300 -1.0047
  286MOL0     C38536   6.608   5.610   2.530  0.4052 -0.1718 -0.4842
  286MOL0     C38537   6.618   5.680   2.394 -0.4371  0.1320  0.0837
  286MOL0     C38538   6.728   5.782   2.385 -0.4633 -0.3992 -0.2106
  286MOL0     C38539   6.749   5.838   2.251  0.7827  0.8110  0.3210
  286MOL0     C38540   6.776   5.886   2.149 -0.3343 -0.6628 -0.3479
  286MOL0     C38541   6.326   5.769   2.843  0.2515  0.9279  0.4045
  286MOL0     C38542   6.218   5.791   2.929 -0.1230 -0.2443  1.7448
  286MOL0     H38543   5.901   6.048   3.158 -0.0574 -1.2209 -1.6856
  286MOL0     H38544   5.711   6.146   3.284  2.3942 -0.3476 -0.5690
  286MOL0     H38545   5.301   6.017   3.189 -1.9751  0.7006 -2.6307
  286MOL0     H38546   5.282   6.145   3.309 -1.8419 -1.6391 -1.5470
  286MOL0     H38547   5.349   6.311   3.119 -1.2372  0.9134 -0.3774
  286MOL0     H38548   5.285   6.181   3.014 -3.3904  0.8886 -1.1551
  286MOL0     H38549   5.067   6.220   3.132  1.7666 -0.6465  0.5589
  286MOL0     H38550   5.145   6.310   3.249  0.3412 -1.8951  0.7082
  286MOL0     H38551   5.205   6.494   3.104 -0.4655 -1.1727  1.3691
  286MOL0     H38552   5.160   6.404   2.952 -1.2792 -0.7469 -0.3429
  286MOL0     H38553   5.014   6.561   2.977 -0.5447  1.0592  1.0551
  286MOL0     H38554   4.934   6.412   2.998  0.5512 -0.1163 -0.8424
  286MOL0     H38555   4.904   6.449   3.243 -0.5616  1.4890  1.6753
  286MOL0     H38556   5.028   6.580   3.245  0.5236 -0.6540 -0.4501
  286MOL0     H38557   4.788   6.589   3.059 -0.0587  0.3693 -0.0831
  286MOL0     H38558   4.757   6.597   3.237  1.4157  2.0899  2.9801
  286MOL0     H38559   4.939   6.779   3.080  0.5311  0.2695  0.1790
  286MOL0     H38560   4.891   6.791   3.259 -0.0243  1.6031 -0.3480
  286MOL0     H38561   4.724   6.789   2.899  1.7544  1.8142 -0.8201
  286MOL0     H38562   4.492   6.844   2.794  1.0800  2.0158 -1.5756
  286MOL0     H38563   4.370   6.934   2.899 -0.7037 -1.1461 -2.3789
  286MOL0     H38564   4.488   7.071   2.699  3.0826  1.6632 -0.5268
  286MOL0     H38565   4.622   7.077   2.809 -0.8891  0.0476 -0.3971
  286MOL0     H38566   4.495   7.285   2.841 -0.8796  0.7597  0.0769
  286MOL0     H38567   4.473   7.189   2.979 -0.0145  2.5150 -0.3976
  286MOL0     H38568   4.258   7.129   2.920  0.3479 -0.7310 -1.4789
  286MOL0     H38569   4.275   7.138   2.759 -0.6797 -0.6825  1.1584
  286MOL0     H38570   4.182   7.551   2.801  2.2391 -2.8094 -3.0774
  286MOL0     H38571   4.032   7.734   2.761 -1.0984  0.8399 -0.3115
  286MOL0     H38572   3.876   7.681   2.691  0.2118  1.4750 -0.4442
  286MOL0     H38573   3.893   7.718   2.866  0.0295  0.0116  0.0298
  286MOL0     H38574   3.516   7.324   3.062  1.2849  2.3469  0.6586
  286MOL0     H38575   3.269   7.329   3.093  2.1273 -1.7540  0.5145
  286MOL0     H38576   2.953   7.285   2.757 -2.2388 -1.3926  0.0007
  286MOL0     H38577   3.074   7.163   2.816  1.7798  0.8755 -0.5019
  286MOL0     H38578   2.963   7.175   3.044 -3.0074 -0.3225  2.0559
  286MOL0     H38579   2.849   7.293   2.974 -0.0067 -0.0914  1.1869
  286MOL0     H38580   2.909   7.013   2.851  0.8362 -0.7022  0.2294
  286MOL0     H38581   2.782   7.122   2.800  1.0210  2.0139  1.3018
  286MOL0     H38582   2.793   6.999   3.082 -1.8203 -0.1152  0.7148
  286MOL0     H38583   2.684   7.121   3.036  0.7475  1.1079 -0.8039
  286MOL0     H38584   2.677   6.845   2.896 -1.9145 -1.1372 -2.6284
  286MOL0     H38585   2.587   6.987   2.858  1.1298 -2.2572 -0.8518
  286MOL0     H38586   2.583   6.857   3.128  1.7886  2.1913  0.6267
  286MOL0     H38587   2.473   6.984   3.053 -0.9991 -0.2354 -2.4297
  286MOL0     H38588   2.370   6.851   2.899  0.5436  1.9406  0.3579
  286MOL0     H38589   2.364   6.776   3.057  2.0545 -3.9703  1.2462
  286MOL0     H38590   2.540   6.698   2.818  0.3600  0.8784  0.4767
  286MOL0     H38591   2.398   6.603   2.876  0.2217 -1.6633  1.3743
  286MOL0     H38592   3.229   7.374   2.661  0.9788  1.7134  0.2884
  286MOL0     H38593   3.444   7.390   2.640 -1.5626  0.5939 -0.0088
  286MOL0     H38594   3.833   7.224   2.883 -0.4680  0.6943 -0.1464
  286MOL0     H38595   4.056   7.155   2.890  1.4761  0.3920 -0.2746
  286MOL0     H38596   5.433   5.986   3.008  0.1107 -1.7798 -0.1615
  286MOL0     H38597   5.620   5.886   2.881 -2.0809 -0.0432  0.0214
  286MOL0     H38598   6.002   5.913   2.690  1.7846  0.6536 -1.4826
  286MOL0     H38599   6.199   5.876   2.545 -0.3575 -0.5915  0.5462
  286MOL0     H38600   6.618   5.786   2.654  0.5416  0.1772 -0.6793
  286MOL0     H38601   6.548   5.649   2.727 -0.2016 -2.4073 -2.4812
  286MOL0     H38602   6.539   5.530   2.501 -2.0896  1.7435 -0.1508
  286MOL0     H38603   6.703   5.561   2.553 -0.1555 -2.0775 -2.0177
  286MOL0     H38604   6.532   5.738   2.359  0.5218  2.0840  0.7990
  286MOL0     H38605   6.642   5.593   2.332 -2.6142 -1.7484  1.7360
  286MOL0     H38606   6.825   5.739   2.412 -0.6228  0.6631  2.4046
  286MOL0     H38607   6.707   5.860   2.459  2.0076 -1.9513  2.3298
  286MOL0     H38608   6.818   5.922   2.057  2.8474  2.6284  2.1208
  286MOL0     H38609   6.424   5.738   2.879  0.9677  0.6914 -1.6239
  286MOL0     H38610   6.233   5.761   3.032  1.6962 -0.6777  1.3979
  287MOL0     O38611   8.721   2.304   5.944 -0.0388 -0.5988  0.0974
  287MOL0     C38612   8.818   2.360   5.884 -0.3240  1.6303  0.2705
  287MOL0     O38613   8.811   2.435   5.772 -0.0118  0.1607 -0.8142
  287MOL0     C38614   8.693   2.463   5.715 -0.0958 -0.1418  0.4914
  287MOL0     C38615   8.585   2.514   5.784 -0.2748 -1.0896  0.7600
  287MOL0     C38616   8.459   2.540   5.717 -0.6219  0.3947  0.5276
  287MOL0     C38617   8.445   2.517   5.576 -0.4652 -0.0962  0.1575
  287MOL0     O38618   8.322   2.533   5.523 -0.6507 -0.2147 -0.3605
  287MOL0     C38619   8.303   2.479   5.388 -0.4109  0.3190  0.6530
  287MOL0     C38620   8.166   2.517   5.329  0.4275 -0.2203  0.8969
  287MOL0     C38621   8.159   2.660   5.272  0.3799  1.0911 -0.0672
  287MOL0     C38622   8.016   2.679   5.238 -0.5666 -0.2678  0.1855
  287MOL0     C38623   7.998   2.816   5.172  1.0327 -0.4248  0.2900
  287MOL0     C38624   7.843   2.847   5.154  0.1148 -0.0084  0.0182
  287MOL0     C38625   7.790   2.739   5.057  0.5642  0.3255  0.0623
  287MOL0     C38626   7.656   2.782   4.985 -0.3626 -0.5066  0.4396
  287MOL0     N38627   7.570   2.876   5.064 -0.4396  0.5562  0.0603
  287MOL0     C38628   7.513   2.847   5.188  0.2446 -0.1020 -0.2111
  287MOL0     C38629   7.461   2.968   5.229 -0.0348  0.3388  0.1670
  287MOL0     C38630   7.390   2.997   5.358 -0.3182  0.3714  0.4692
  287MOL0     C38631   7.270   3.091   5.346  0.7755  0.5716  0.0164
  287MOL0     C38632   7.202   3.100   5.482 -0.4762 -0.4640 -0.3052
  287MOL0     C38633   7.062   3.161   5.468  0.3142 -0.3765  1.2965
  287MOL0     O38634   7.017   3.212   5.590  0.7036 -0.7142 -0.5267
  287MOL0     C38635   6.924   3.317   5.575 -0.1681 -0.0949 -0.1527
  287MOL0     C38636   6.909   3.397   5.695  0.7472 -0.3359  0.2935
  287MOL0     C38637   6.816   3.503   5.710 -0.1832 -0.5555  0.0615
  287MOL0     C38638   6.821   3.593   5.837 -0.7632 -0.4425 -0.5591
  287MOL0     C38639   6.726   3.524   5.603 -0.0829  0.2133  0.7835
  287MOL0     C38640   6.622   3.617   5.616 -0.0624  0.5535  0.1259
  287MOL0     O38641   6.565   3.644   5.740  0.7937 -0.8698  0.2475
  287MOL0     C38642   6.473   3.748   5.759 -0.6088 -0.3887 -0.2507
  287MOL0     C38643   6.351   3.734   5.830 -1.0454 -0.4429 -0.1220
  287MOL0     C38644   6.261   3.835   5.854 -0.5122 -0.4218  0.4019
  287MOL0     C38645   6.297   3.959   5.798  0.1616  0.0638  0.7169
  287MOL0     O38646   6.193   4.048   5.809 -0.6553 -0.4512 -0.2485
  287MOL0     C38647   6.220   4.183   5.757  0.1143 -0.0152 -0.5227
  287MOL0     C38648   6.098   4.264   5.796  0.8982  0.2247  0.1956
  287MOL0     C38649   6.098   4.404   5.747 -0.3253 -0.2750 -0.3305
  287MOL0     C38650   6.123   4.431   5.591 -0.7721 -0.3126  0.1042
  287MOL0     C38651   6.086   4.571   5.540  0.3414 -0.4699  0.5923
  287MOL0     C38652   5.938   4.599   5.554  0.6804  0.6459  0.1829
  287MOL0     C38653   5.914   4.731   5.482 -0.0974 -0.3839 -0.1921
  287MOL0     C38654   5.771   4.757   5.445 -0.0859  0.3851  0.3739
  287MOL0    Cl38655   5.659   4.673   5.562 -0.0554  0.0924  0.4605
  287MOL0     C38656   6.416   3.980   5.722 -0.5198 -0.0777  0.3983
  287MOL0     C38657   6.502   3.872   5.700 -0.8373 -0.5753 -0.1268
  287MOL0     O38658   6.594   3.667   5.504 -0.1839 -0.0082  0.3857
  287MOL0     C38659   6.733   3.439   5.485 -0.6068 -1.0755  0.5140
  287MOL0     C38660   6.831   3.335   5.472  0.4065 -0.0812 -0.1521
  287MOL0     N38661   7.484   3.065   5.127  0.3471  0.1712 -0.3779
  287MOL0     N38662   7.543   3.006   5.028 -0.5348  0.1437  0.2961
  287MOL0     C38663   8.558   2.468   5.504  0.0880 -0.1762 -0.3061
  287MOL0     C38664   8.679   2.442   5.575 -1.2379 -1.0177 -0.0712
  287MOL0     C38665   8.954   2.333   5.944  0.2060 -0.2116 -0.4617
  287MOL0     C38666   9.065   2.397   5.882 -0.1619 -0.6459 -0.2565
  287MOL0     C38667   9.195   2.397   5.933 -0.0035  0.3523 -0.9641
  287MOL0     C38668   9.222   2.310   6.039 -0.4092 -0.1322  0.3066
  287MOL0     O38669   9.349   2.281   6.081 -0.1668  0.0370 -0.4821
  287MOL0     C38670   9.459   2.325   6.000 -0.1184 -0.2910  0.2896
  287MOL0     C38671   9.587   2.243   6.024 -0.4249 -0.7131 -0.1715
  287MOL0     C38672   9.706   2.323   5.970  0.5320 -0.5666 -0.0652
  287MOL0     C38673   9.835   2.247   5.976  0.3649 -0.2069 -0.1696
  287MOL0     C38674   9.925   2.286   5.871 -0.0230  0.1911  0.2578
  287MOL0     C38675  10.001   2.309   5.775  0.5626  0.3305 -0.2708
  287MOL0     C38676   9.112   2.243   6.102 -0.5638  0.7896  0.2712
  287MOL0     C38677   8.979   2.253   6.058  0.0727  1.0626  0.8525
  287MOL0     H38678   8.586   2.527   5.892 -1.2369 -1.1334  0.7846
  287MOL0     H38679   8.382   2.577   5.783 -1.0370 -0.7763  0.7175
  287MOL0     H38680   8.379   2.499   5.312  1.1304 -2.8450  1.1958
  287MOL0     H38681   8.290   2.371   5.399  1.0065  0.3431  3.6734
  287MOL0     H38682   8.131   2.444   5.256  1.0574  2.2361 -2.0619
  287MOL0     H38683   8.101   2.516   5.417  1.3663 -0.0989  1.6038
  287MOL0     H38684   8.189   2.736   5.344  0.7081  1.2584 -0.3818
  287MOL0     H38685   8.214   2.684   5.180 -0.8631 -0.1063 -1.1815
  287MOL0     H38686   7.985   2.592   5.180 -0.2645  1.3621 -2.6051
  287MOL0     H38687   7.966   2.687   5.336 -0.9010 -1.3077  0.1131
  287MOL0     H38688   8.035   2.901   5.230  0.6970  1.3210 -1.8987
  287MOL0     H38689   8.053   2.826   5.078 -0.4550  3.0611 -0.3473
  287MOL0     H38690   7.795   2.842   5.252 -2.0728 -1.7453 -1.0483
  287MOL0     H38691   7.828   2.950   5.119 -0.0363 -0.1054 -0.2104
  287MOL0     H38692   7.858   2.711   4.976 -0.6848  0.1090 -0.9253
  287MOL0     H38693   7.771   2.647   5.113 -1.4712 -0.2943 -1.5086
  287MOL0     H38694   7.594   2.694   4.964  0.6428 -1.1818  0.1969
  287MOL0     H38695   7.679   2.822   4.886  0.3446 -0.3865  0.6508
  287MOL0     H38696   7.513   2.758   5.251 -2.5705 -0.7315 -0.9668
  287MOL0     H38697   7.354   2.898   5.387 -0.7187  0.5053  0.4213
  287MOL0     H38698   7.453   3.039   5.437  0.3692 -3.1079  1.9593
  287MOL0     H38699   7.210   3.044   5.267  1.1353 -1.1672  0.7343
  287MOL0     H38700   7.303   3.188   5.307 -2.5368  1.5088 -0.8049
  287MOL0     H38701   7.266   3.168   5.540 -2.8702  0.9762  0.7779
  287MOL0     H38702   7.196   2.999   5.524  1.5342 -0.8419 -0.8376
  287MOL0     H38703   6.995   3.085   5.427 -0.0060  0.6202 -0.0825
  287MOL0     H38704   7.064   3.240   5.392  0.1669 -1.9666 -0.4295
  287MOL0     H38705   6.976   3.379   5.778  0.3356 -0.8062  0.5324
  287MOL0     H38706   6.754   3.559   5.916 -0.1522  2.2488  1.2155
  287MOL0     H38707   6.926   3.593   5.869 -0.9949  1.9075  0.3150
  287MOL0     H38708   6.796   3.696   5.815  0.9651 -0.1580 -1.4128
  287MOL0     H38709   6.322   3.633   5.858  0.0615 -2.1210 -4.2132
  287MOL0     H38710   6.167   3.820   5.906 -0.6258 -1.2120 -0.0095
  287MOL0     H38711   6.302   4.236   5.805  0.3534  1.0939 -2.0738
  287MOL0     H38712   6.239   4.175   5.650  0.7957 -0.7132 -0.3570
  287MOL0     H38713   6.005   4.215   5.765 -0.1562  1.5229  1.1582
  287MOL0     H38714   6.088   4.258   5.904 -1.0026 -3.1518 -0.0196
  287MOL0     H38715   6.169   4.451   5.816  1.5887 -3.5139  0.1197
  287MOL0     H38716   5.997   4.439   5.772  0.0883  1.0110 -0.4040
  287MOL0     H38717   6.229   4.410   5.573 -0.3609 -0.5967  2.5756
  287MOL0     H38718   6.070   4.351   5.539 -0.1766 -1.3000  0.9826
  287MOL0     H38719   6.110   4.576   5.433 -0.5315 -0.6035  0.3803
  287MOL0     H38720   6.142   4.648   5.593  0.0968  0.7829 -0.9071
  287MOL0     H38721   5.882   4.518   5.506 -1.0492  1.1331  1.3153
  287MOL0     H38722   5.924   4.597   5.662  1.4058 -0.0008  0.2791
  287MOL0     H38723   5.970   4.747   5.390  0.6100  0.9003  0.4379
  287MOL0     H38724   5.944   4.820   5.538  4.0609 -1.6118 -0.1796
  287MOL0     H38725   5.749   4.733   5.341  0.4926 -1.6322  0.6741
  287MOL0     H38726   5.754   4.866   5.446 -1.7113  0.1777 -1.1627
  287MOL0     H38727   6.442   4.076   5.680  2.0796 -0.2358  1.4615
  287MOL0     H38728   6.585   3.890   5.632  0.2044  2.0788  1.6669
  287MOL0     H38729   6.669   3.465   5.402  3.9688 -1.2940 -3.5199
  287MOL0     H38730   6.836   3.276   5.381  0.6542 -0.9040  0.3909
  287MOL0     H38731   8.549   2.447   5.398  1.3722  0.4359 -0.5454
  287MOL0     H38732   8.758   2.391   5.521  0.9978  0.2100  1.8226
  287MOL0     H38733   9.047   2.447   5.788  0.2731 -2.4436 -1.3494
  287MOL0     H38734   9.268   2.452   5.874 -0.2873  1.9371  0.1141
  287MOL0     H38735   9.440   2.330   5.892  1.7807 -2.2631 -0.2152
  287MOL0     H38736   9.471   2.430   6.029  3.2922 -0.8646  1.3679
  287MOL0     H38737   9.586   2.155   5.960 -1.6110  1.0237 -2.7035
  287MOL0     H38738   9.587   2.228   6.133  0.7366  0.7627  0.0730
  287MOL0     H38739   9.723   2.418   6.022  0.7883 -0.1836 -0.8313
  287MOL0     H38740   9.677   2.356   5.870 -2.3634 -1.8925  0.2431
  287MOL0     H38741   9.827   2.138   5.977 -2.8574 -0.1000  2.6369
  287MOL0     H38742   9.887   2.269   6.070 -1.1461  1.3067  0.3451
  287MOL0     H38743  10.070   2.339   5.699 -0.0594  1.0941 -0.5564
  287MOL0     H38744   9.133   2.182   6.188  1.7468 -1.2487 -1.5990
  287MOL0     H38745   8.894   2.205   6.105 -2.4511  3.4626 -0.9189
  288MOL0     O38746   1.354   4.217   9.512  0.0515 -0.3221  0.0779
  288MOL0     C38747   1.353   4.167   9.397 -0.3621 -0.1946 -1.2597
  288MOL0     O38748   1.237   4.140   9.325  0.0977  0.7553 -0.5121
  288MOL0     C38749   1.111   4.187   9.344 -0.5095  0.5784 -0.1449
  288MOL0     C38750   1.013   4.112   9.279 -0.6486  0.1630  0.2609
  288MOL0     C38751   0.879   4.158   9.290  0.1961  0.1503 -0.3116
  288MOL0     C38752   0.838   4.265   9.366  0.0539  0.0884  0.6665
  288MOL0     O38753   0.704   4.280   9.394 -0.5633  0.2030 -0.0129
  288MOL0     C38754   0.654   4.411   9.439 -0.3849  0.8967 -0.6539
  288MOL0     C38755   0.505   4.410   9.419  0.1783  0.2584 -0.1240
  288MOL0     C38756   0.427   4.506   9.506  0.9432 -0.0786 -0.3685
  288MOL0     C38757   0.276   4.483   9.515  0.2540  0.3837  0.1063
  288MOL0     C38758   0.198   4.571   9.612 -0.3259  0.3495 -0.0909
  288MOL0     C38759   0.045   4.538   9.596  0.5732 -1.0364  0.3103
  288MOL0     C38760  -0.031   4.656   9.657  0.1023 -0.1793  0.0293
  288MOL0     C38761  -0.168   4.606   9.708  0.0631 -0.0109 -0.0801
  288MOL0     N38762  -0.272   4.614   9.600  0.4282 -0.6923 -0.4692
  288MOL0     C38763  -0.270   4.552   9.481 -0.3097  0.3523  0.0889
  288MOL0     C38764  -0.395   4.571   9.429 -0.1657 -0.0708 -0.7841
  288MOL0     C38765  -0.446   4.544   9.287 -0.0751  0.1374 -0.3132
  288MOL0     C38766  -0.585   4.493   9.273 -0.5148  0.7549  0.5333
  288MOL0     C38767  -0.614   4.392   9.156  0.3009 -0.1742 -0.8364
  288MOL0     C38768  -0.762   4.359   9.124  0.0864 -0.3450  0.0488
  288MOL0     O38769  -0.822   4.323   9.247 -0.3690  0.5232 -0.4090
  288MOL0     C38770  -0.954   4.287   9.251 -0.3134 -0.5107  0.8037
  288MOL0     C38771  -1.041   4.269   9.140 -0.5816  0.8794  0.0264
  288MOL0     C38772  -1.171   4.234   9.159  0.1412  0.6660  0.5555
  288MOL0     C38773  -1.252   4.205   9.024  0.2050 -0.1241 -0.2988
  288MOL0     C38774  -1.221   4.231   9.289  0.4012  0.5111 -0.7847
  288MOL0     C38775  -1.369   4.205   9.308 -0.2552  0.0299 -0.4194
  288MOL0     O38776  -1.456   4.284   9.242  0.4142  0.2167  0.2352
  288MOL0     C38777  -1.594   4.301   9.281 -0.7930  0.2652 -0.8268
  288MOL0     C38778  -1.698   4.324   9.194 -0.2073 -0.1007 -0.4442
  288MOL0     C38779  -1.830   4.324   9.236  0.0783  0.2320  0.0900
  288MOL0     C38780  -1.866   4.329   9.369 -0.0109 -0.2370 -0.4342
  288MOL0     O38781  -1.988   4.354   9.421  0.6488  0.6241  0.2279
  288MOL0     C38782  -2.103   4.345   9.333  0.3959 -0.0382  0.1490
  288MOL0     C38783  -2.229   4.394   9.410  0.5478 -0.3807 -0.1303
  288MOL0     C38784  -2.244   4.536   9.423 -0.0335 -0.0435 -0.7077
  288MOL0     C38785  -2.378   4.592   9.491  0.4349  0.0630 -0.1549
  288MOL0     C38786  -2.392   4.738   9.456 -0.2564  0.6033  0.7229
  288MOL0     C38787  -2.503   4.803   9.531 -0.0002 -0.5636 -0.0918
  288MOL0     C38788  -2.551   4.938   9.468 -0.4012 -0.5393 -0.6116
  288MOL0     C38789  -2.445   5.053   9.469  0.2378  0.4707  0.5514
  288MOL0    Cl38790  -2.392   5.100   9.632 -0.0150 -0.1059  0.1984
  288MOL0     C38791  -1.759   4.312   9.459  0.2826 -0.2720  0.0455
  288MOL0     C38792  -1.625   4.295   9.415  0.2713  0.2981 -0.7410
  288MOL0     O38793  -1.400   4.117   9.390  0.4619 -0.1488  0.2118
  288MOL0     C38794  -1.136   4.245   9.403  0.1327  0.0992 -0.4593
  288MOL0     C38795  -1.003   4.279   9.381  0.9496  0.2308  0.5508
  288MOL0     N38796  -0.466   4.633   9.528 -0.2319 -0.3381  0.4339
  288MOL0     N38797  -0.387   4.665   9.622  0.8775  0.3872  0.6724
  288MOL0     C38798   0.935   4.345   9.425  0.0653  0.0519 -0.6369
  288MOL0     C38799   1.070   4.306   9.421 -0.4545  0.6603  0.8707
  288MOL0     C38800   1.476   4.105   9.351 -0.2320  0.8221 -0.3594
  288MOL0     C38801   1.590   4.131   9.423 -0.1420  0.0792  1.0094
  288MOL0     C38802   1.715   4.065   9.394 -0.2529 -0.4161  0.0617
  288MOL0     C38803   1.706   3.982   9.281 -0.5784 -0.3589  0.7027
  288MOL0     O38804   1.823   3.921   9.251 -0.2515  0.2884  0.1779
  288MOL0     C38805   1.877   3.954   9.121  0.0652 -0.3981 -1.0937
  288MOL0     C38806   2.017   4.016   9.131 -0.2363  0.6428  0.7053
  288MOL0     C38807   2.133   3.915   9.161  0.3767 -0.5416 -0.3921
  288MOL0     C38808   2.270   3.987   9.189 -0.3777 -0.3840 -0.1858
  288MOL0     C38809   2.386   3.898   9.166 -0.1779  0.3558  0.2754
  288MOL0     C38810   2.485   3.833   9.142  0.1639 -0.4063  0.8072
  288MOL0     C38811   1.592   3.954   9.206 -0.1730 -1.2182  0.3897
  288MOL0     C38812   1.470   4.011   9.245  0.2278  1.1131 -0.0870
  288MOL0     H38813   1.044   4.027   9.220  4.7718 -0.5960  3.5138
  288MOL0     H38814   0.798   4.096   9.254 -0.3371  0.1814  0.7815
  288MOL0     H38815   0.675   4.407   9.546 -1.9097 -2.2661 -0.3732
  288MOL0     H38816   0.711   4.489   9.388 -2.1600  1.7785 -1.3758
  288MOL0     H38817   0.486   4.424   9.312 -2.0608 -0.0457  0.1754
  288MOL0     H38818   0.469   4.308   9.435 -0.2985  0.5985  1.1763
  288MOL0     H38819   0.477   4.494   9.603  2.8064  1.7450 -1.0118
  288MOL0     H38820   0.447   4.606   9.467 -1.1452 -0.0130 -1.3864
  288MOL0     H38821   0.236   4.516   9.419 -0.0987 -0.2760  0.0187
  288MOL0     H38822   0.253   4.379   9.541  0.1002 -0.0413 -1.5964
  288MOL0     H38823   0.238   4.559   9.713  1.4155 -0.9407 -0.8960
  288MOL0     H38824   0.211   4.677   9.590 -0.0590  0.5909  1.1636
  288MOL0     H38825   0.022   4.529   9.489 -0.5418 -1.2384  0.5519
  288MOL0     H38826   0.015   4.446   9.645 -1.5140 -1.6414 -1.9051
  288MOL0     H38827   0.031   4.693   9.739  2.0938 -0.8927 -1.0684
  288MOL0     H38828  -0.045   4.732   9.579 -0.2071  0.7037  0.9362
  288MOL0     H38829  -0.203   4.681   9.780 -0.9527  1.1163 -1.6757
  288MOL0     H38830  -0.160   4.508   9.755  0.4878  0.2718  0.4536
  288MOL0     H38831  -0.194   4.492   9.433 -0.6111  1.4148 -1.8450
  288MOL0     H38832  -0.435   4.635   9.228 -0.4562 -0.2767 -1.0327
  288MOL0     H38833  -0.381   4.470   9.239  3.4274  1.9390  1.2769
  288MOL0     H38834  -0.652   4.580   9.272 -4.4511 -1.9746  2.1187
  288MOL0     H38835  -0.611   4.438   9.364 -1.2348  2.2038  1.2533
  288MOL0     H38836  -0.555   4.302   9.173 -0.2697 -0.2837  0.7461
  288MOL0     H38837  -0.581   4.448   9.068  1.1951  0.3675 -0.1651
  288MOL0     H38838  -0.771   4.285   9.044  0.6418  0.4050 -0.7273
  288MOL0     H38839  -0.818   4.444   9.084 -2.6156 -1.0078  2.1317
  288MOL0     H38840  -1.007   4.253   9.038 -2.0266  1.0598 -0.5092
  288MOL0     H38841  -1.307   4.294   8.992 -1.4561 -1.8542 -2.6691
  288MOL0     H38842  -1.182   4.172   8.946  0.3835 -1.6861  0.4943
  288MOL0     H38843  -1.326   4.126   9.038  0.4284 -1.0350 -3.3312
  288MOL0     H38844  -1.666   4.318   9.090  0.4186  0.1861 -0.2710
  288MOL0     H38845  -1.913   4.326   9.166 -0.9812  2.0263  1.2962
  288MOL0     H38846  -2.088   4.416   9.251 -2.3220  0.8558  0.3406
  288MOL0     H38847  -2.115   4.244   9.292 -1.7672  0.8723 -1.6637
  288MOL0     H38848  -2.318   4.351   9.363  0.0604 -2.7350  2.6435
  288MOL0     H38849  -2.226   4.353   9.511 -1.1678 -0.8052 -0.2278
  288MOL0     H38850  -2.231   4.581   9.324  0.7948  0.9862 -0.1506
  288MOL0     H38851  -2.156   4.578   9.473  0.4026 -0.0077 -1.4869
  288MOL0     H38852  -2.472   4.541   9.466  0.1047  1.4669 -2.0433
  288MOL0     H38853  -2.368   4.591   9.600  1.4188 -0.1384 -0.2391
  288MOL0     H38854  -2.413   4.743   9.349  0.5236 -5.5076 -0.0501
  288MOL0     H38855  -2.299   4.789   9.480 -1.8049  2.5924  3.0824
  288MOL0     H38856  -2.586   4.733   9.542  0.3171 -0.7721  1.1480
  288MOL0     H38857  -2.468   4.812   9.635  2.9921 -1.9300 -0.8494
  288MOL0     H38858  -2.640   4.972   9.521 -0.0204 -0.3167 -0.1114
  288MOL0     H38859  -2.576   4.917   9.364  0.4019  0.2020 -0.9585
  288MOL0     H38860  -2.483   5.141   9.416  2.4899  0.9175 -0.4555
  288MOL0     H38861  -2.358   5.025   9.408 -0.2299  1.6845 -0.7167
  288MOL0     H38862  -1.774   4.332   9.564  0.7367 -0.0477  0.0722
  288MOL0     H38863  -1.550   4.290   9.494 -1.1957  0.1849  0.6846
  288MOL0     H38864  -1.163   4.241   9.508 -0.7054 -0.0823 -0.6786
  288MOL0     H38865  -0.939   4.298   9.466  2.6328 -2.2193 -0.0795
  288MOL0     H38866   0.901   4.424   9.490 -0.8105  0.8596 -2.0124
  288MOL0     H38867   1.148   4.353   9.480  0.3832 -0.3453  0.5891
  288MOL0     H38868   1.582   4.201   9.505 -1.9204  0.0831  0.8810
  288MOL0     H38869   1.807   4.080   9.449  0.8701 -1.6255 -1.4006
  288MOL0     H38870   1.872   3.859   9.066  0.4271 -1.8018  1.1391
  288MOL0     H38871   1.806   4.025   9.078 -1.1181  0.7980  2.4476
  288MOL0     H38872   2.010   4.106   9.194 -2.3887  1.4246 -0.5409
  288MOL0     H38873   2.042   4.058   9.034 -0.7811  0.5079  0.4979
  288MOL0     H38874   2.147   3.851   9.073  2.9423 -0.3326 -0.2174
  288MOL0     H38875   2.105   3.852   9.246 -0.7594  2.1208  1.3224
  288MOL0     H38876   2.269   4.011   9.296  1.1266 -2.1345  0.2758
  288MOL0     H38877   2.267   4.077   9.126  0.1770  0.4230  0.8994
  288MOL0     H38878   2.574   3.778   9.119  0.7663  1.5343 -1.9777
  288MOL0     H38879   1.601   3.894   9.116 -0.9193 -1.2686  0.3387
  288MOL0     H38880   1.378   3.995   9.189 -0.3398  1.6692  0.6559
  289MOL0     O38881   8.984   5.351   6.709 -0.3516  0.7946  0.1046
  289MOL0     C38882   9.027   5.297   6.609  0.1828 -0.7861 -0.5682
  289MOL0     O38883   8.953   5.275   6.495 -0.0866 -0.0692 -0.3961
  289MOL0     C38884   8.832   5.326   6.485 -0.0386  0.1343  0.3937
  289MOL0     C38885   8.744   5.297   6.586  0.4149  0.5424 -0.5141
  289MOL0     C38886   8.612   5.341   6.582 -0.1765  0.0707 -0.2586
  289MOL0     C38887   8.562   5.407   6.474 -0.7451 -0.9083  0.5443
  289MOL0     O38888   8.436   5.456   6.461  0.4882  0.2768 -0.1969
  289MOL0     C38889   8.351   5.476   6.573 -0.3191 -0.7902 -0.6831
  289MOL0     C38890   8.257   5.362   6.569  0.9090  1.0433  0.5036
  289MOL0     C38891   8.126   5.392   6.648  0.6964  0.1240 -0.3547
  289MOL0     C38892   8.014   5.290   6.621  0.0475  1.2383 -0.0069
  289MOL0     C38893   7.935   5.268   6.757  0.0630  0.2115 -0.7882
  289MOL0     C38894   7.815   5.173   6.750 -0.1419 -0.4718 -0.2822
  289MOL0     C38895   7.774   5.113   6.885 -0.7671 -0.3606 -0.4716
  289MOL0     C38896   7.661   5.007   6.868  0.1269 -0.1845 -0.3308
  289MOL0     N38897   7.642   4.924   6.982  0.2668 -0.4921 -0.4737
  289MOL0     C38898   7.608   4.968   7.109  0.0393 -0.5991  0.5662
  289MOL0     C38899   7.592   4.855   7.183  0.5132  0.1781  0.2660
  289MOL0     C38900   7.571   4.844   7.334 -0.1340 -1.2128  0.4259
  289MOL0     C38901   7.428   4.818   7.362  0.4644 -0.5538  0.7503
  289MOL0     C38902   7.412   4.790   7.504  0.2086  0.1885 -0.0158
  289MOL0     C38903   7.271   4.771   7.548  0.6231 -0.1919  0.5649
  289MOL0     O38904   7.217   4.662   7.478 -0.1594  0.2936 -0.7087
  289MOL0     C38905   7.110   4.598   7.546 -0.6989 -0.7468 -0.2758
  289MOL0     C38906   7.073   4.477   7.495  0.0428 -0.0500 -0.3111
  289MOL0     C38907   6.983   4.393   7.552 -0.0799  0.6088 -0.1179
  289MOL0     C38908   6.971   4.260   7.483 -0.4187 -0.1051  0.5642
  289MOL0     C38909   6.909   4.441   7.672  0.0449  0.3049  1.1712
  289MOL0     C38910   6.794   4.365   7.735 -0.3312  0.1195 -0.1549
  289MOL0     O38911   6.757   4.411   7.862  0.2547 -0.6594 -0.0013
  289MOL0     C38912   6.652   4.357   7.929  0.0673 -0.1524 -0.0279
  289MOL0     C38913   6.575   4.455   7.991 -0.5591  0.1438 -0.5842
  289MOL0     C38914   6.470   4.407   8.060  0.5905 -0.0834 -0.1805
  289MOL0     C38915   6.426   4.272   8.072 -0.5849  0.3433 -0.1003
  289MOL0     O38916   6.317   4.242   8.150 -0.4581  0.3103  0.6374
  289MOL0     C38917   6.238   4.121   8.128 -0.3864  0.1629 -0.7424
  289MOL0     C38918   6.108   4.120   8.219 -0.3265  0.5407 -0.1831
  289MOL0     C38919   6.007   4.222   8.176  0.3148 -0.7577 -0.2881
  289MOL0     C38920   5.875   4.200   8.238  0.2809  0.3970 -0.0601
  289MOL0     C38921   5.777   4.307   8.220  0.5569 -0.1253  0.1056
  289MOL0     C38922   5.634   4.254   8.224  0.2540 -0.1779  0.6822
  289MOL0     C38923   5.542   4.371   8.247  0.5366  0.4920  0.3742
  289MOL0     C38924   5.412   4.322   8.305  0.6629  0.2359 -0.4436
  289MOL0    Cl38925   5.274   4.446   8.307  0.0398  0.3230  0.2659
  289MOL0     C38926   6.510   4.175   8.012  0.2087  0.0263 -0.0647
  289MOL0     C38927   6.626   4.221   7.941  0.4041  0.0497 -0.3312
  289MOL0     O38928   6.751   4.265   7.686 -0.0710  0.0912  0.5926
  289MOL0     C38929   6.944   4.569   7.715 -0.1570 -0.4768 -0.0482
  289MOL0     C38930   7.049   4.645   7.659  0.5644 -0.5451 -0.5327
  289MOL0     N38931   7.622   4.745   7.100  1.1997 -0.3504  0.7075
  289MOL0     N38932   7.651   4.787   6.982  0.0741 -0.2335  0.7031
  289MOL0     C38933   8.659   5.440   6.371  0.0520  0.5656 -0.0980
  289MOL0     C38934   8.789   5.392   6.372 -0.1683  0.7845 -0.0620
  289MOL0     C38935   9.167   5.268   6.615  0.6345 -0.1752 -0.0113
  289MOL0     C38936   9.239   5.209   6.512  0.3132  1.0672  0.0269
  289MOL0     C38937   9.371   5.173   6.523  0.4481  0.4300 -1.3235
  289MOL0     C38938   9.455   5.224   6.633 -0.2960 -0.2828  0.0601
  289MOL0     O38939   9.592   5.229   6.628  0.4944 -0.2679  0.3748
  289MOL0     C38940   9.653   5.168   6.519 -0.0576  0.6848  0.2426
  289MOL0     C38941   9.806   5.182   6.519  0.1198 -0.1171  0.5158
  289MOL0     C38942   9.847   5.332   6.483  0.7872  0.7641  0.4397
  289MOL0     C38943   9.990   5.364   6.517  0.0188 -0.5975 -0.4067
  289MOL0     C38944  10.092   5.283   6.456 -0.4410  0.1296 -1.0116
  289MOL0     C38945  10.167   5.216   6.390  1.4747  0.2550 -0.4595
  289MOL0     C38946   9.384   5.291   6.739  0.4066 -0.0322 -0.0858
  289MOL0     C38947   9.243   5.303   6.731 -0.2117 -0.1121  0.2644
  289MOL0     H38948   8.773   5.245   6.676  0.6926 -0.2841 -1.0694
  289MOL0     H38949   8.537   5.316   6.656 -1.1364  1.7421 -0.6211
  289MOL0     H38950   8.398   5.478   6.671  0.1330 -2.5139 -0.8337
  289MOL0     H38951   8.301   5.573   6.567  0.3263 -0.2162  1.8990
  289MOL0     H38952   8.227   5.345   6.465  0.9266 -0.8871  0.7759
  289MOL0     H38953   8.308   5.275   6.611 -0.0485  0.4688  0.5133
  289MOL0     H38954   8.159   5.393   6.752  1.1653 -0.8936 -0.4792
  289MOL0     H38955   8.087   5.492   6.625  1.4524  0.4735 -0.1490
  289MOL0     H38956   7.955   5.334   6.540  0.7814  0.5240 -0.9422
  289MOL0     H38957   8.065   5.197   6.594  0.6710  1.1620  1.3526
  289MOL0     H38958   8.008   5.243   6.835  0.2923  1.7763 -0.4601
  289MOL0     H38959   7.896   5.367   6.783  1.8472  0.6522  0.4084
  289MOL0     H38960   7.723   5.227   6.723 -1.0538 -1.0105  1.6263
  289MOL0     H38961   7.838   5.102   6.670  0.3957  0.8174 -1.3184
  289MOL0     H38962   7.861   5.058   6.923 -0.7898 -0.0942 -0.0280
  289MOL0     H38963   7.734   5.188   6.953 -0.4140  0.2815 -0.9600
  289MOL0     H38964   7.674   4.942   6.780 -0.6635  0.8843 -1.2698
  289MOL0     H38965   7.562   5.051   6.849  0.7171  0.9450 -0.8202
  289MOL0     H38966   7.602   5.067   7.152  0.1402 -0.5406  0.4464
  289MOL0     H38967   7.639   4.768   7.374 -0.2675 -0.2553  2.6192
  289MOL0     H38968   7.606   4.930   7.392  0.7651 -2.0076  1.0816
  289MOL0     H38969   7.397   4.737   7.296  0.2358  0.5062 -0.4771
  289MOL0     H38970   7.374   4.908   7.333  1.7944 -0.0387 -0.1913
  289MOL0     H38971   7.453   4.871   7.565  1.2677 -1.4604  1.5492
  289MOL0     H38972   7.474   4.704   7.533  3.8846  3.1941  1.9934
  289MOL0     H38973   7.206   4.857   7.533  0.1427 -0.1968  2.4075
  289MOL0     H38974   7.282   4.740   7.652  1.6842  0.9458  0.8175
  289MOL0     H38975   7.118   4.460   7.397 -0.0904  2.0825 -0.7954
  289MOL0     H38976   6.983   4.182   7.558 -2.6908  0.1339  1.2450
  289MOL0     H38977   6.877   4.244   7.430  0.1893 -0.4632 -0.4420
  289MOL0     H38978   7.042   4.254   7.399 -0.8925  1.6555 -0.0169
  289MOL0     H38979   6.604   4.560   7.987 -0.5822  0.4603  3.3605
  289MOL0     H38980   6.399   4.480   8.098  0.1912  0.4510 -1.8527
  289MOL0     H38981   6.212   4.114   8.022  2.5813 -0.5884 -1.5179
  289MOL0     H38982   6.299   4.032   8.147  2.0656  1.8128 -0.4907
  289MOL0     H38983   6.063   4.021   8.209 -2.0143  1.2644 -0.2091
  289MOL0     H38984   6.146   4.140   8.320  1.2880  0.3958 -0.7290
  289MOL0     H38985   5.992   4.220   8.067  0.6601  1.3758 -0.4165
  289MOL0     H38986   6.038   4.321   8.209  0.9870 -1.6846  2.0736
  289MOL0     H38987   5.822   4.112   8.199  0.1281 -1.0399  3.0589
  289MOL0     H38988   5.896   4.187   8.345  2.3477 -0.2136 -0.5090
  289MOL0     H38989   5.786   4.367   8.129  1.7297  0.7477  0.7821
  289MOL0     H38990   5.802   4.367   8.307  1.7443  2.5672 -1.9374
  289MOL0     H38991   5.602   4.201   8.133 -0.3556  0.3464  0.5832
  289MOL0     H38992   5.627   4.178   8.302 -0.3513 -0.6192  0.2050
  289MOL0     H38993   5.518   4.413   8.149 -1.2436 -0.6497  0.2770
  289MOL0     H38994   5.589   4.452   8.303  0.1199  1.3976 -0.5379
  289MOL0     H38995   5.433   4.287   8.407  0.4791 -1.2930 -0.9100
  289MOL0     H38996   5.372   4.234   8.255 -2.0641  1.2825 -0.2542
  289MOL0     H38997   6.501   4.068   8.029  0.4846  0.1035  0.5949
  289MOL0     H38998   6.695   4.150   7.897  1.3099  0.6590  0.0734
  289MOL0     H38999   6.903   4.608   7.808  2.8819 -1.7366  1.9678
  289MOL0     H39000   7.072   4.741   7.705  2.2409 -1.6917  1.1522
  289MOL0     H39001   8.625   5.494   6.283 -3.1856 -3.6094 -1.7274
  289MOL0     H39002   8.855   5.406   6.286 -0.5143  0.4416 -0.3846
  289MOL0     H39003   9.184   5.172   6.426 -0.3021  4.5910 -1.2599
  289MOL0     H39004   9.403   5.122   6.432 -0.3523 -1.8011 -0.4472
  289MOL0     H39005   9.625   5.062   6.519  0.7349  0.4685 -0.1379
  289MOL0     H39006   9.611   5.217   6.431 -1.6402 -0.9379  0.0438
  289MOL0     H39007   9.849   5.103   6.458  0.4289  0.4021  0.0580
  289MOL0     H39008   9.833   5.166   6.624 -0.3923  0.3662  0.7321
  289MOL0     H39009   9.782   5.410   6.525  0.2882  0.7042 -0.1950
  289MOL0     H39010   9.832   5.345   6.375 -1.0430  2.9451  0.8674
  289MOL0     H39011  10.011   5.375   6.624  1.0476 -1.3943 -0.5120
  289MOL0     H39012   9.998   5.463   6.471  2.5445 -1.8020 -2.8385
  289MOL0     H39013  10.233   5.152   6.334  0.7510  0.7865 -1.9721
  289MOL0     H39014   9.447   5.333   6.817  1.1628 -0.8993 -0.2102
  289MOL0     H39015   9.196   5.339   6.823 -2.1491 -2.9328  0.5180
  290MOL0     O39016   3.582   9.211  10.343 -0.5275  0.2718  0.5495
  290MOL0     C39017   3.551   9.214  10.462  0.0872 -0.4014 -0.3067
  290MOL0     O39018   3.636   9.229  10.566  0.9543  0.1503  1.2294
  290MOL0     C39019   3.770   9.262  10.546  0.2768 -0.3241  0.5584
  290MOL0     C39020   3.857   9.209  10.641  0.0588 -0.0084  0.6442
  290MOL0     C39021   3.994   9.227  10.633 -0.2532 -0.4633 -0.3996
  290MOL0     C39022   4.048   9.305  10.528  0.2296 -0.1824  0.2518
  290MOL0     O39023   4.183   9.347  10.531  0.5638 -0.2351 -0.4689
  290MOL0     C39024   4.209   9.483  10.499  0.7890 -0.5752  1.0589
  290MOL0     C39025   4.323   9.548  10.585 -0.3541  0.6074  0.1197
  290MOL0     C39026   4.473   9.507  10.552 -1.0544  0.2087  0.0353
  290MOL0     C39027   4.573   9.599  10.615 -0.2739 -0.1939 -0.0009
  290MOL0     C39028   4.722   9.553  10.603 -0.8503  0.4289  0.0406
  290MOL0     C39029   4.781   9.450  10.702 -0.2394  0.1325 -0.5501
  290MOL0     C39030   4.788   9.476  10.850 -0.5628 -0.6211 -0.0866
  290MOL0     C39031   4.757   9.351  10.936  0.4430 -0.0861  0.2835
  290MOL0     N39032   4.616   9.339  10.972 -0.3691 -0.6086 -0.5246
  290MOL0     C39033   4.534   9.272  10.886  0.2260 -0.6029 -0.7980
  290MOL0     C39034   4.411   9.300  10.932 -0.4228  0.3278 -0.1049
  290MOL0     C39035   4.294   9.220  10.887  0.0626  0.3602 -0.3823
  290MOL0     C39036   4.289   9.089  10.974  0.0696  0.2351 -0.6557
  290MOL0     C39037   4.155   9.042  11.021  0.1374  0.2780  0.4965
  290MOL0     C39038   4.126   9.090  11.158  0.1343  0.3209  0.0656
  290MOL0     O39039   4.014   8.997  11.191  0.6237  0.3908  0.3693
  290MOL0     C39040   3.884   9.006  11.133 -0.8055 -0.1162 -0.4550
  290MOL0     C39041   3.840   9.119  11.066  0.0549  0.3315 -0.1093
  290MOL0     C39042   3.710   9.134  11.010  0.0547 -0.2632  0.5316
  290MOL0     C39043   3.671   9.268  10.953 -0.4965 -0.2905  0.1540
  290MOL0     C39044   3.618   9.023  11.028 -0.4277 -0.4214 -0.0352
  290MOL0     C39045   3.477   9.024  10.986  0.6346 -0.2591  0.2331
  290MOL0     O39046   3.413   8.911  11.023  0.8734  0.4481  0.4804
  290MOL0     C39047   3.285   8.904  10.984  0.1475  0.1233  0.5439
  290MOL0     C39048   3.239   8.916  10.849 -0.3308 -0.8108 -0.5830
  290MOL0     C39049   3.100   8.896  10.815 -0.3960 -0.4080 -1.0302
  290MOL0     C39050   3.008   8.877  10.919  0.9215  0.5869  0.2969
  290MOL0     O39051   2.875   8.858  10.879  0.2494  0.4419  0.0802
  290MOL0     C39052   2.771   8.878  10.969  0.5642  0.9027  0.0971
  290MOL0     C39053   2.643   8.849  10.888 -1.0231 -0.0998  0.3806
  290MOL0     C39054   2.523   8.920  10.949 -0.2914 -0.0074 -0.6285
  290MOL0     C39055   2.463   8.829  11.058 -0.1648 -0.0149  0.0071
  290MOL0     C39056   2.346   8.889  11.135 -0.1519 -0.5058  0.5414
  290MOL0     C39057   2.237   8.939  11.028 -0.8765 -0.4848 -0.1525
  290MOL0     C39058   2.167   8.837  10.940  0.0281  0.3126 -0.9988
  290MOL0     C39059   2.036   8.899  10.906  1.2492 -1.1551 -0.7338
  290MOL0    Cl39060   2.050   9.023  10.777 -0.2080 -0.3135  0.0282
  290MOL0     C39061   3.059   8.853  11.050 -0.8903 -0.9937  0.3413
  290MOL0     C39062   3.192   8.875  11.076  0.0214 -0.3761 -0.4438
  290MOL0     O39063   3.419   9.125  10.954 -0.0701  0.3345  1.2045
  290MOL0     C39064   3.666   8.914  11.099 -0.8938  0.2152  0.2465
  290MOL0     C39065   3.795   8.911  11.152 -0.2480  0.9546 -0.1317
  290MOL0     N39066   4.416   9.386  11.044  0.6831  1.0936 -0.6833
  290MOL0     N39067   4.540   9.411  11.066  0.0354  0.1775  0.3247
  290MOL0     C39068   3.963   9.346  10.420  0.2694 -0.1064 -0.3625
  290MOL0     C39069   3.823   9.332  10.439 -0.1260  0.1832  0.0530
  290MOL0     C39070   3.407   9.200  10.491  0.2090 -0.2441 -0.1833
  290MOL0     C39071   3.319   9.172  10.381 -0.1265  1.0209  0.3630
  290MOL0     C39072   3.180   9.156  10.406 -0.1985 -0.8206 -0.1676
  290MOL0     C39073   3.128   9.166  10.532 -0.4100  0.2012  0.1411
  290MOL0     O39074   2.996   9.143  10.536  0.6783 -0.3753 -0.2947
  290MOL0     C39075   2.929   9.187  10.650  0.6983  0.0721  0.7439
  290MOL0     C39076   2.774   9.179  10.628  0.3996 -0.2342  0.2611
  290MOL0     C39077   2.711   9.315  10.585 -1.1162  0.3106 -0.1519
  290MOL0     C39078   2.574   9.308  10.525  0.4385 -0.8337  0.0606
  290MOL0     C39079   2.474   9.253  10.622  0.0580 -0.1682  0.2349
  290MOL0     C39080   2.393   9.210  10.707  1.2603 -0.7014 -0.2849
  290MOL0     C39081   3.207   9.192  10.647 -0.5929 -0.5488  1.2776
  290MOL0     C39082   3.347   9.217  10.623  0.0799 -0.5879  0.6176
  290MOL0     H39083   3.807   9.143  10.711  1.8419 -1.9421  0.2151
  290MOL0     H39084   4.064   9.188  10.705  0.0730  1.7587  0.5806
  290MOL0     H39085   4.218   9.498  10.391  0.5461 -1.4202  0.9131
  290MOL0     H39086   4.118   9.537  10.529  0.3046 -1.7771  1.8542
  290MOL0     H39087   4.314   9.656  10.576 -2.2998  0.3427 -1.9133
  290MOL0     H39088   4.311   9.531  10.692 -0.4979  0.1213  0.0282
  290MOL0     H39089   4.488   9.403  10.586 -2.5256  0.7167  2.5012
  290MOL0     H39090   4.480   9.520  10.444  1.7787  1.0038  0.2396
  290MOL0     H39091   4.570   9.691  10.557 -0.4311  0.3167  0.8076
  290MOL0     H39092   4.554   9.620  10.720  1.6833 -1.2564  0.6271
  290MOL0     H39093   4.739   9.511  10.503  0.1498 -0.7321  0.6718
  290MOL0     H39094   4.783   9.643  10.607 -0.3065  0.1519 -1.4053
  290MOL0     H39095   4.719   9.362  10.680 -0.7761  1.0765 -3.1831
  290MOL0     H39096   4.885   9.433  10.672 -0.2794  0.4218 -0.8566
  290MOL0     H39097   4.888   9.516  10.870  0.2735 -2.5008 -0.2614
  290MOL0     H39098   4.711   9.544  10.888  0.1416 -0.2265  0.6938
  290MOL0     H39099   4.819   9.349  11.026  0.8127  1.6542  0.0951
  290MOL0     H39100   4.789   9.272  10.867 -1.8649  1.8625 -3.2997
  290MOL0     H39101   4.560   9.199  10.810 -0.8062 -1.2641 -0.5459
  290MOL0     H39102   4.204   9.283  10.895  0.7096  1.7649 -3.0262
  290MOL0     H39103   4.305   9.198  10.781 -0.1268  0.4981 -0.4328
  290MOL0     H39104   4.360   9.091  11.057  0.3814  1.8319 -0.9249
  290MOL0     H39105   4.331   9.008  10.914 -1.1954 -0.8465 -0.1073
  290MOL0     H39106   4.166   8.934  11.027  3.8429  0.2543 -3.0735
  290MOL0     H39107   4.082   9.079  10.949  0.9428  0.8047 -0.0592
  290MOL0     H39108   4.088   9.193  11.165 -1.3599 -0.1982  0.0884
  290MOL0     H39109   4.214   9.072  11.220 -2.4633 -1.4078  3.6047
  290MOL0     H39110   3.908   9.203  11.070 -0.8662  1.2310 -2.0172
  290MOL0     H39111   3.630   9.269  10.852  0.5591  2.5717 -0.3392
  290MOL0     H39112   3.593   9.314  11.015  1.0538 -1.3536  3.1399
  290MOL0     H39113   3.756   9.337  10.944 -0.9446  0.0257 -2.0951
  290MOL0     H39114   3.307   8.937  10.767 -1.0540  2.2236 -0.5150
  290MOL0     H39115   3.079   8.909  10.709  2.4071  0.3079 -1.5918
  290MOL0     H39116   2.773   8.798  11.044  0.4269  1.4548  0.6953
  290MOL0     H39117   2.777   8.979  11.010  2.7138  0.1722  1.8179
  290MOL0     H39118   2.661   8.883  10.786  0.6198 -0.2286  0.5991
  290MOL0     H39119   2.630   8.741  10.882 -0.4402 -0.1156 -0.7999
  290MOL0     H39120   2.447   8.933  10.871  1.6505  0.8149 -2.5159
  290MOL0     H39121   2.557   9.018  10.985  0.6164 -0.2066 -0.9172
  290MOL0     H39122   2.428   8.735  11.016  0.3877 -0.4342  0.4747
  290MOL0     H39123   2.547   8.816  11.127  1.1812  1.1663 -1.3252
  290MOL0     H39124   2.365   8.967  11.210  0.0412 -1.0287  1.0395
  290MOL0     H39125   2.303   8.803  11.187 -1.0598 -0.5111 -0.1969
  290MOL0     H39126   2.170   8.990  11.098  2.7077  2.5023  1.5005
  290MOL0     H39127   2.274   9.021  10.966 -2.2861 -0.6095 -1.1993
  290MOL0     H39128   2.158   8.739  10.989  2.4673  0.2507 -0.5315
  290MOL0     H39129   2.231   8.823  10.852 -0.8916 -0.5917 -1.5415
  290MOL0     H39130   1.980   8.937  10.992  2.2706  1.6832 -1.2110
  290MOL0     H39131   1.962   8.833  10.861  1.6962 -0.1692 -3.0590
  290MOL0     H39132   2.989   8.832  11.130 -2.2023 -2.1714 -1.0759
  290MOL0     H39133   3.213   8.861  11.182  0.3074  0.7811 -0.3406
  290MOL0     H39134   3.603   8.829  11.125 -3.0945  1.1595 -1.6132
  290MOL0     H39135   3.818   8.815  11.196 -0.0228  0.7118 -0.7684
  290MOL0     H39136   4.001   9.390  10.328 -2.7483 -0.2908 -1.8292
  290MOL0     H39137   3.760   9.383  10.366 -1.6768 -0.3519  0.9606
  290MOL0     H39138   3.358   9.139  10.285  1.2856 -3.0012  2.0924
  290MOL0     H39139   3.107   9.130  10.329 -0.8371 -2.2582  0.8613
  290MOL0     H39140   2.945   9.128  10.741 -0.2153 -1.1430  0.1462
  290MOL0     H39141   2.964   9.286  10.680 -0.3480  0.6203  0.2308
  290MOL0     H39142   2.717   9.151  10.716 -2.0149  2.6276 -0.2215
  290MOL0     H39143   2.764   9.108  10.546 -0.3978 -0.0253  0.1702
  290MOL0     H39144   2.778   9.364  10.514 -1.5248  0.0439 -0.7304
  290MOL0     H39145   2.726   9.386  10.667  0.6926  2.5652 -2.2648
  290MOL0     H39146   2.569   9.241  10.438  0.8891 -0.5406 -0.1938
  290MOL0     H39147   2.556   9.406  10.480  0.6368 -1.0833 -0.5809
  290MOL0     H39148   2.332   9.158  10.777 -1.5557  0.6283 -1.5837
  290MOL0     H39149   3.165   9.187  10.747 -0.9557  0.7162  1.2028
  290MOL0     H39150   3.413   9.243  10.705 -1.2578  0.9745  1.2553
  291MOL0     O39151   8.479  10.920   8.741 -1.0397  0.5319 -0.7523
  291MOL0     C39152   8.529  10.817   8.791  0.3587  0.1381  0.0918
  291MOL0     O39153   8.462  10.712   8.844 -0.4276  0.4299  0.1177
  291MOL0     C39154   8.327  10.719   8.851  0.4995  0.6331  0.4670
  291MOL0     C39155   8.241  10.711   8.741  0.1308 -0.1953  0.1349
  291MOL0     C39156   8.103  10.695   8.756 -0.4566 -0.2593  0.2397
  291MOL0     C39157   8.044  10.690   8.884 -0.5534  0.3448 -0.2969
  291MOL0     O39158   7.915  10.653   8.903 -0.6460  1.6630 -0.4006
  291MOL0     C39159   7.810  10.701   8.820 -0.0535  0.7853 -0.2510
  291MOL0     C39160   7.673  10.708   8.907 -0.5981 -0.0543 -0.4026
  291MOL0     C39161   7.553  10.763   8.823 -0.8143  0.0407  0.0073
  291MOL0     C39162   7.427  10.732   8.896  0.0759 -0.3661  0.6830
  291MOL0     C39163   7.300  10.742   8.798  0.1816 -0.1144 -0.0597
  291MOL0     C39164   7.294  10.891   8.751  0.0488  0.1222  0.0183
  291MOL0     C39165   7.177  10.915   8.657 -0.8495 -0.6740 -0.2234
  291MOL0     C39166   7.057  10.934   8.745 -0.1627  0.7430 -0.9364
  291MOL0     N39167   6.923  10.942   8.673 -0.0847 -0.3855  0.1757
  291MOL0     C39168   6.803  10.899   8.707 -0.1243 -0.2891 -0.1110
  291MOL0     C39169   6.714  10.932   8.614 -0.2840  0.3254 -0.3291
  291MOL0     C39170   6.565  10.924   8.607  0.4537  0.2188  0.8017
  291MOL0     C39171   6.499  11.062   8.579 -0.5085 -0.5063 -0.1294
  291MOL0     C39172   6.368  11.074   8.645 -0.7606  0.0682  0.0381
  291MOL0     C39173   6.271  11.188   8.598 -0.3496  0.0758  0.4910
  291MOL0     O39174   6.155  11.205   8.687 -0.3806  0.2949 -0.3841
  291MOL0     C39175   6.068  11.108   8.717 -0.2602 -0.0791 -0.1840
  291MOL0     C39176   6.084  11.039   8.831  0.4573 -0.0201 -0.2249
  291MOL0     C39177   5.997  10.946   8.880  0.1134  0.6399  0.6609
  291MOL0     C39178   6.047  10.884   9.001  0.1420  0.6925 -0.1539
  291MOL0     C39179   5.888  10.904   8.790 -1.0408 -0.2035 -0.8395
  291MOL0     C39180   5.796  10.797   8.817 -0.0412 -0.4127 -0.0763
  291MOL0     O39181   5.677  10.788   8.752  0.6419 -0.5220  0.2974
  291MOL0     C39182   5.590  10.683   8.787  0.0302 -0.1785 -0.2303
  291MOL0     C39183   5.631  10.542   8.799  0.3215  0.3679  0.0588
  291MOL0     C39184   5.535  10.439   8.812 -0.1724  0.4282 -0.0868
  291MOL0     C39185   5.396  10.467   8.803 -0.3998 -0.2877 -0.0629
  291MOL0     O39186   5.288  10.382   8.814 -0.1052  0.8424  0.4458
  291MOL0     C39187   5.320  10.241   8.816  0.8076 -0.2925  0.2086
  291MOL0     C39188   5.190  10.151   8.793 -0.1968 -0.2372  0.3892
  291MOL0     C39189   5.217  10.001   8.788 -0.2084  0.2214  0.1695
  291MOL0     C39190   5.095   9.902   8.783 -0.5582  0.0989 -0.1229
  291MOL0     C39191   5.008   9.901   8.914 -0.5623  0.1338 -0.7149
  291MOL0     C39192   4.903   9.786   8.915 -0.0414 -0.9200 -0.3758
  291MOL0     C39193   4.813   9.816   9.039 -0.3483 -0.4459 -0.2503
  291MOL0     C39194   4.722   9.703   9.070 -0.7023 -0.2515 -0.4172
  291MOL0    Cl39195   4.806   9.545   9.084 -0.2242  0.0294 -0.1687
  291MOL0     C39196   5.363  10.606   8.791  0.6140 -0.8637  0.6678
  291MOL0     C39197   5.456  10.712   8.767  0.1636  0.8330 -0.8091
  291MOL0     O39198   5.850  10.706   8.885  0.4557  0.2835 -0.4262
  291MOL0     C39199   5.874  10.970   8.668 -0.6642  0.3055  0.3725
  291MOL0     C39200   5.962  11.067   8.631  0.4579 -0.4618  0.4059
  291MOL0     N39201   6.781  10.992   8.512 -0.2717 -0.0688  0.0438
  291MOL0     N39202   6.907  11.000   8.546 -0.8971  0.3945 -0.6069
  291MOL0     C39203   8.128  10.693   8.996  0.2926  0.2551  0.2714
  291MOL0     C39204   8.267  10.704   8.980 -0.1268  0.6294  0.0430
  291MOL0     C39205   8.676  10.801   8.783  0.8348  0.2013  1.4117
  291MOL0     C39206   8.733  10.679   8.797  0.7349  0.3241  1.0766
  291MOL0     C39207   8.874  10.670   8.790 -0.3736  0.3164  0.7237
  291MOL0     C39208   8.962  10.784   8.773 -0.7075  0.0825 -0.2772
  291MOL0     O39209   9.100  10.773   8.770  0.0392  0.1038  0.3871
  291MOL0     C39210   9.166  10.827   8.654  1.0009  0.1383  0.3637
  291MOL0     C39211   9.234  10.958   8.669 -0.1240 -0.8245 -0.9244
  291MOL0     C39212   9.334  10.943   8.779 -0.3436  0.0257 -0.0148
  291MOL0     C39213   9.445  11.044   8.796 -0.3968 -1.3132  0.0438
  291MOL0     C39214   9.522  11.056   8.667  0.5802  0.3898  0.0460
  291MOL0     C39215   9.576  11.065   8.560 -1.2962 -0.6788 -0.2953
  291MOL0     C39216   8.898  10.903   8.761 -0.3337  0.5313  1.0482
  291MOL0     C39217   8.759  10.913   8.767  0.1914  1.2255  0.4380
  291MOL0     H39218   8.281  10.717   8.640  0.0446  2.2874  0.1718
  291MOL0     H39219   8.045  10.681   8.666 -1.1982 -0.2778  0.7081
  291MOL0     H39220   7.823  10.802   8.782  0.5879 -0.1535 -2.7050
  291MOL0     H39221   7.798  10.641   8.729  1.1295 -1.3940  0.9421
  291MOL0     H39222   7.650  10.609   8.948  0.4208 -0.5608 -1.0118
  291MOL0     H39223   7.689  10.776   8.991  2.1529 -0.4276 -0.5405
  291MOL0     H39224   7.556  10.871   8.807 -1.2822 -0.0028 -0.3824
  291MOL0     H39225   7.550  10.720   8.722 -0.8693  1.1092 -0.4617
  291MOL0     H39226   7.432  10.630   8.936 -0.3279 -0.9047 -0.5841
  291MOL0     H39227   7.416  10.795   8.984 -1.8090 -0.2604  0.4262
  291MOL0     H39228   7.319  10.685   8.707 -2.1959  1.6815 -1.8287
  291MOL0     H39229   7.206  10.710   8.844  0.3320  0.5925  0.7753
  291MOL0     H39230   7.291  10.951   8.843  0.0834  1.2328 -0.6827
  291MOL0     H39231   7.385  10.896   8.691  0.0954  0.3581  0.1058
  291MOL0     H39232   7.190  11.000   8.590 -2.4303 -2.1465 -2.5611
  291MOL0     H39233   7.151  10.832   8.591 -1.0319  0.3416 -1.4591
  291MOL0     H39234   7.082  11.025   8.800 -0.9284  1.7012 -2.1104
  291MOL0     H39235   7.040  10.848   8.811 -0.0294  1.4613  0.0492
  291MOL0     H39236   6.793  10.844   8.801 -1.2906  2.3692  1.4217
  291MOL0     H39237   6.532  10.862   8.523  0.5425  1.6471 -0.3274
  291MOL0     H39238   6.530  10.888   8.704  0.4757  0.2059  0.8044
  291MOL0     H39239   6.515  11.083   8.473  1.3026 -2.3794 -0.2904
  291MOL0     H39240   6.558  11.142   8.625 -2.1757  1.1019 -0.6494
  291MOL0     H39241   6.392  11.085   8.751  0.0614  1.0552 -0.2495
  291MOL0     H39242   6.325  10.974   8.631  1.7792 -1.5697  2.8363
  291MOL0     H39243   6.232  11.173   8.496 -0.2530  0.5699  0.3766
  291MOL0     H39244   6.313  11.289   8.589 -1.8314  0.5297 -2.8291
  291MOL0     H39245   6.166  11.066   8.895 -0.6335 -0.5793  1.4727
  291MOL0     H39246   5.957  10.878   9.064  0.2587  0.1714 -0.0324
  291MOL0     H39247   6.073  10.780   8.978  1.5095  1.2504 -1.2069
  291MOL0     H39248   6.129  10.941   9.044 -1.5886  2.2494  1.2413
  291MOL0     H39249   5.737  10.518   8.804  0.6449  0.9966 -2.2896
  291MOL0     H39250   5.562  10.336   8.830 -1.9725 -0.0674 -0.0190
  291MOL0     H39251   5.392  10.221   8.736  0.8420 -1.4001  0.4903
  291MOL0     H39252   5.362  10.216   8.914  1.9911  2.3383  0.4422
  291MOL0     H39253   5.113  10.164   8.869 -2.5871 -1.5119 -1.6887
  291MOL0     H39254   5.149  10.180   8.695 -2.2668  0.3356  1.3664
  291MOL0     H39255   5.272   9.968   8.877  2.6710 -1.3159 -2.0036
  291MOL0     H39256   5.277   9.983   8.699  0.4394 -1.9633  0.9888
  291MOL0     H39257   5.028   9.916   8.698 -0.2536 -0.8587 -0.5334
  291MOL0     H39258   5.140   9.802   8.776  1.1309  0.7364  0.9964
  291MOL0     H39259   4.952   9.995   8.912 -0.7428  0.0151 -1.8188
  291MOL0     H39260   5.073   9.898   9.001  2.7301 -0.6034 -3.0218
  291MOL0     H39261   4.843   9.799   8.824  0.0510 -3.3146 -0.8546
  291MOL0     H39262   4.957   9.692   8.930 -1.8109 -1.5195  3.1959
  291MOL0     H39263   4.744   9.897   9.010 -1.4726 -1.4859 -0.5601
  291MOL0     H39264   4.872   9.841   9.128 -2.1178 -2.6512  1.6775
  291MOL0     H39265   4.652   9.687   8.987 -1.2279 -2.4011  0.3492
  291MOL0     H39266   4.682   9.736   9.166  3.3732  1.3028  0.9721
  291MOL0     H39267   5.260  10.639   8.782  1.2614  1.7703  1.8111
  291MOL0     H39268   5.414  10.810   8.749 -2.4845 -0.0943 -0.1815
  291MOL0     H39269   5.786  10.948   8.607 -1.1910  1.9875  0.4840
  291MOL0     H39270   5.952  11.126   8.540 -1.0502  0.0191  0.8554
  291MOL0     H39271   8.081  10.687   9.093  0.9220  1.5975  0.6760
  291MOL0     H39272   8.329  10.713   9.069 -0.9133 -0.2748  0.6994
  291MOL0     H39273   8.671  10.590   8.805 -0.6210  1.0819 -0.4899
  291MOL0     H39274   8.914  10.571   8.806  1.6200  0.7348 -1.2604
  291MOL0     H39275   9.240  10.759   8.610  1.4950  2.4872 -2.8034
  291MOL0     H39276   9.090  10.825   8.576 -0.1288 -0.9346  1.4437
  291MOL0     H39277   9.162  11.035   8.698 -0.6495 -0.9622 -1.8186
  291MOL0     H39278   9.284  10.991   8.577  0.4157  0.9253 -0.0346
  291MOL0     H39279   9.384  10.848   8.762  0.0938  0.2375  0.0613
  291MOL0     H39280   9.273  10.955   8.870 -0.9579 -1.7187 -0.1665
  291MOL0     H39281   9.517  11.011   8.872 -1.5089  0.5764  2.0537
  291MOL0     H39282   9.403  11.141   8.824  2.1878 -0.2738  0.6402
  291MOL0     H39283   9.623  11.082   8.465  0.3943  2.4037  0.9419
  291MOL0     H39284   8.953  10.997   8.753  0.7392 -0.0261  1.6159
  291MOL0     H39285   8.713  11.010   8.756  1.3879  1.7860  0.1256
  292MOL0     O39286   2.318   9.523   2.095  0.4021  0.0945  0.2989
  292MOL0     C39287   2.319   9.450   2.000 -0.4111  0.5429  0.8409
  292MOL0     O39288   2.248   9.474   1.883 -0.0764  0.3168  0.8563
  292MOL0     C39289   2.166   9.586   1.883 -0.0819 -0.5745  0.4289
  292MOL0     C39290   2.027   9.559   1.876  0.1456  0.6171  0.6461
  292MOL0     C39291   1.934   9.666   1.878 -0.0476 -0.0991  0.2869
  292MOL0     C39292   1.973   9.795   1.904  0.2912 -1.2161  0.0001
  292MOL0     O39293   1.884   9.896   1.928  0.4690 -0.3186  0.5857
  292MOL0     C39294   1.736   9.869   1.930  0.2803 -0.4581  0.0993
  292MOL0     C39295   1.667   9.997   1.989  0.2838 -0.5210  0.6658
  292MOL0     C39296   1.513  10.016   1.963 -0.1407  0.8623  0.7579
  292MOL0     C39297   1.431   9.920   2.049  0.3188  0.0505 -0.0306
  292MOL0     C39298   1.289   9.963   2.063  0.1564  0.1079 -0.5188
  292MOL0     C39299   1.203   9.953   1.933  0.2834  0.4875  0.0454
  292MOL0     C39300   1.069  10.021   1.954 -0.4168 -0.4394  0.2056
  292MOL0     C39301   0.977   9.984   1.835 -0.2603  0.0266 -1.6102
  292MOL0     N39302   0.843  10.026   1.853  0.3353  0.2614  0.3312
  292MOL0     C39303   0.791  10.154   1.814 -0.2323  0.1423 -0.2042
  292MOL0     C39304   0.666  10.151   1.858  0.5190 -0.2714  1.0243
  292MOL0     C39305   0.550  10.249   1.829 -0.2365  0.0006 -1.4040
  292MOL0     C39306   0.414  10.196   1.794 -0.2989  0.0403  0.1944
  292MOL0     C39307   0.418  10.139   1.656 -0.6175 -0.7012 -0.3687
  292MOL0     C39308   0.279  10.111   1.597  0.1276  0.0373  1.0434
  292MOL0     O39309   0.208  10.236   1.559 -0.6400  0.0631  0.0030
  292MOL0     C39310   0.077  10.281   1.593 -0.5107  0.0694  0.2847
  292MOL0     C39311   0.034  10.405   1.546 -0.4467 -0.1048  0.4513
  292MOL0     C39312  -0.099  10.441   1.576 -0.4796  0.2462 -0.0040
  292MOL0     C39313  -0.146  10.572   1.522 -0.2082  0.1972  0.4069
  292MOL0     C39314  -0.187  10.354   1.652  0.6246 -0.3712 -0.1984
  292MOL0     C39315  -0.325  10.390   1.695 -0.2431 -1.0964  0.1704
  292MOL0     O39316  -0.408  10.286   1.719  0.2253  0.1116  0.3200
  292MOL0     C39317  -0.538  10.300   1.763 -0.4915 -0.2302  0.7722
  292MOL0     C39318  -0.637  10.222   1.700  0.2313 -0.2999 -0.6579
  292MOL0     C39319  -0.768  10.226   1.748  0.2543 -0.2996  0.6428
  292MOL0     C39320  -0.796  10.300   1.860  0.9011  0.0589  0.3126
  292MOL0     O39321  -0.927  10.309   1.887  0.8518  0.2306  0.8111
  292MOL0     C39322  -0.967  10.275   2.019 -0.0464  0.2633  0.4026
  292MOL0     C39323  -1.118  10.240   2.041 -0.1234 -0.5233  0.2826
  292MOL0     C39324  -1.163  10.158   1.921  0.2126  0.1756  1.1489
  292MOL0     C39325  -1.272  10.060   1.953  0.1824  0.3603 -0.1642
  292MOL0     C39326  -1.409  10.126   1.987  0.6553  0.1744 -0.5676
  292MOL0     C39327  -1.519  10.031   2.038  0.1405  0.0756  0.2277
  292MOL0     C39328  -1.488   9.957   2.170 -0.2656  0.0491 -0.1577
  292MOL0     C39329  -1.605   9.906   2.241  0.3909 -0.2998 -0.3373
  292MOL0    Cl39330  -1.725  10.018   2.313  0.4661  0.1823 -0.1039
  292MOL0     C39331  -0.696  10.374   1.929 -0.1448 -0.0479 -0.7805
  292MOL0     C39332  -0.566  10.375   1.882 -0.6362  0.2837  0.9750
  292MOL0     O39333  -0.357  10.510   1.707 -0.2499  0.0541  0.4730
  292MOL0     C39334  -0.145  10.226   1.691 -0.6256 -0.0764 -0.3997
  292MOL0     C39335  -0.007  10.195   1.663  0.1745  0.0314 -0.2151
  292MOL0     N39336   0.650  10.038   1.938 -0.4187  0.1322 -0.4742
  292MOL0     N39337   0.756   9.961   1.932 -0.7919 -0.6912 -0.3926
  292MOL0     C39338   2.105   9.818   1.922  1.0997 -0.2302  0.2593
  292MOL0     C39339   2.203   9.716   1.918 -0.1846 -0.4517 -0.7953
  292MOL0     C39340   2.381   9.318   2.019 -0.4589  0.5765  0.4951
  292MOL0     C39341   2.342   9.207   1.936 -0.0787 -0.9224 -0.8864
  292MOL0     C39342   2.402   9.089   1.944  0.0430 -0.0143  0.1205
  292MOL0     C39343   2.502   9.055   2.035 -0.5563 -0.5836  0.7595
  292MOL0     O39344   2.546   8.925   2.039  0.1042 -0.2640  0.4919
  292MOL0     C39345   2.664   8.911   2.119  0.1383  1.1680 -0.4972
  292MOL0     C39346   2.711   8.759   2.113 -0.7415 -0.4192 -0.3683
  292MOL0     C39347   2.841   8.757   2.187 -0.8595 -0.2807  0.0799
  292MOL0     C39348   2.903   8.620   2.218  0.0543 -0.5840 -0.3324
  292MOL0     C39349   2.990   8.633   2.330  0.7044 -0.3838 -0.1232
  292MOL0     C39350   3.067   8.629   2.423 -0.3528  0.6768 -0.4890
  292MOL0     C39351   2.551   9.161   2.107  0.1087 -1.2882 -0.1706
  292MOL0     C39352   2.482   9.286   2.110 -0.3602  0.4899  0.0611
  292MOL0     H39353   1.999   9.455   1.862 -0.5449  1.1035 -2.3519
  292MOL0     H39354   1.832   9.630   1.867 -0.3930  1.3378 -1.6191
  292MOL0     H39355   1.687   9.845   1.835 -2.5924 -1.1978  1.6575
  292MOL0     H39356   1.711   9.777   1.982 -1.2540 -0.7585 -1.0739
  292MOL0     H39357   1.688  10.012   2.096  1.2475 -0.4762  0.4745
  292MOL0     H39358   1.712  10.085   1.943 -0.1533 -0.4777  0.3138
  292MOL0     H39359   1.492  10.122   1.981 -0.7973  0.6019  1.6062
  292MOL0     H39360   1.484   9.992   1.860  1.3966  0.2770  0.4251
  292MOL0     H39361   1.425   9.819   2.007  1.2290 -0.1685  0.3472
  292MOL0     H39362   1.463   9.915   2.153 -3.1732 -0.3206  1.1758
  292MOL0     H39363   1.240   9.901   2.138  0.2222  2.7087  1.8593
  292MOL0     H39364   1.289  10.065   2.104  1.9888 -0.2781  0.5601
  292MOL0     H39365   1.250  10.019   1.859 -0.5234  1.3602  0.2989
  292MOL0     H39366   1.211   9.856   1.885  1.9709  0.8643 -0.5109
  292MOL0     H39367   1.019   9.979   2.042 -0.1328  0.6287  0.8968
  292MOL0     H39368   1.078  10.129   1.973  1.7158 -0.5736  0.1259
  292MOL0     H39369   0.986   9.875   1.829  0.3952  0.1146 -2.3457
  292MOL0     H39370   1.013  10.025   1.740 -0.1937  1.7973 -0.8710
  292MOL0     H39371   0.834  10.231   1.750 -0.5360  0.2342 -0.3052
  292MOL0     H39372   0.538  10.297   1.926  1.1647 -1.2152 -0.5902
  292MOL0     H39373   0.589  10.320   1.756  1.3465  0.2377 -0.3644
  292MOL0     H39374   0.333  10.269   1.803 -0.5768 -0.3062  0.5131
  292MOL0     H39375   0.391  10.109   1.856  0.5688  0.8222  1.6580
  292MOL0     H39376   0.481  10.049   1.659 -0.4600 -0.5815 -0.0283
  292MOL0     H39377   0.454  10.216   1.586 -2.9888 -1.5531 -2.7073
  292MOL0     H39378   0.218  10.045   1.661  1.2532 -0.9202  1.1573
  292MOL0     H39379   0.290  10.055   1.504  0.9832  1.3683  0.3160
  292MOL0     H39380   0.100  10.460   1.479  0.1537  1.1550  2.0181
  292MOL0     H39381  -0.073  10.619   1.454 -0.9637 -1.8826 -1.9872
  292MOL0     H39382  -0.249  10.562   1.490 -0.4527  2.4715  0.2818
  292MOL0     H39383  -0.155  10.642   1.606 -1.4986  0.5177  0.0121
  292MOL0     H39384  -0.603  10.172   1.610  1.3125 -0.6051 -0.0939
  292MOL0     H39385  -0.847  10.177   1.692 -0.1820  0.0375  0.9508
  292MOL0     H39386  -0.907  10.185   2.036  3.8226  2.3200 -1.0183
  292MOL0     H39387  -0.938  10.357   2.086  0.1538  2.6427 -2.4066
  292MOL0     H39388  -1.138  10.185   2.133 -1.6858  0.2897  0.4583
  292MOL0     H39389  -1.180  10.330   2.046  0.4843 -0.1099  0.3761
  292MOL0     H39390  -1.087  10.091   1.880 -1.3513  0.7448 -3.2095
  292MOL0     H39391  -1.196  10.220   1.837 -2.1039 -3.0921 -0.5626
  292MOL0     H39392  -1.281  10.002   1.861 -0.7408 -0.2912  0.3253
  292MOL0     H39393  -1.236   9.992   2.031 -2.5166 -1.5337 -0.4294
  292MOL0     H39394  -1.449  10.172   1.896 -0.0354 -3.4815 -2.2993
  292MOL0     H39395  -1.386  10.197   2.067  0.5313 -4.3876  4.0293
  292MOL0     H39396  -1.612  10.085   2.060 -0.2057 -1.2646  2.4447
  292MOL0     H39397  -1.548   9.965   1.956  0.3907 -0.3873  0.5043
  292MOL0     H39398  -1.450  10.037   2.235 -0.8108 -0.9390  1.4541
  292MOL0     H39399  -1.412   9.879   2.156 -1.1054 -0.6166 -1.0720
  292MOL0     H39400  -1.556   9.852   2.323  1.3036  0.5624 -0.3023
  292MOL0     H39401  -1.664   9.841   2.176 -1.8288 -0.3177  1.5478
  292MOL0     H39402  -0.729  10.445   2.004  0.9447 -0.0476 -0.2951
  292MOL0     H39403  -0.501  10.449   1.926  0.5835 -1.6364  2.5554
  292MOL0     H39404  -0.199  10.153   1.751  1.5647  0.1615  2.0358
  292MOL0     H39405   0.026  10.098   1.700  1.4407  0.4194 -0.2902
  292MOL0     H39406   2.128   9.922   1.942  1.8489  0.3329 -2.9484
  292MOL0     H39407   2.308   9.735   1.940 -0.9747  1.2488  1.9661
  292MOL0     H39408   2.262   9.223   1.864  1.3747  2.8650 -1.8712
  292MOL0     H39409   2.350   9.016   1.881  0.1991  1.5948 -1.9799
  292MOL0     H39410   2.743   8.982   2.093  3.0674 -0.9966  1.7755
  292MOL0     H39411   2.634   8.932   2.222  0.1363 -1.3720  0.0783
  292MOL0     H39412   2.713   8.734   2.006 -1.7532  1.5215 -0.8847
  292MOL0     H39413   2.635   8.704   2.168 -0.5607  2.9833  3.7904
  292MOL0     H39414   2.821   8.819   2.275  1.2612 -0.7501  0.9302
  292MOL0     H39415   2.914   8.818   2.134 -0.4174 -0.0440  0.9410
  292MOL0     H39416   2.956   8.585   2.129 -0.1815  0.6150 -0.9640
  292MOL0     H39417   2.821   8.553   2.246  0.6977 -2.7474 -3.1663
  292MOL0     H39418   3.137   8.626   2.504  0.6933 -0.6506 -1.3979
  292MOL0     H39419   2.628   9.151   2.183  0.8816  1.7337 -0.4371
  292MOL0     H39420   2.524   9.346   2.191  1.8038  0.2116 -0.7757
  293MOL0     O39421   4.247   9.489   3.302  0.3401 -1.0074  0.0906
  293MOL0     C39422   4.261   9.412   3.397 -0.6784  0.4348  0.0028
  293MOL0     O39423   4.375   9.414   3.475  0.1029 -0.2866 -0.1952
  293MOL0     C39424   4.481   9.495   3.442 -0.2581  0.0416  0.4787
  293MOL0     C39425   4.539   9.522   3.316  1.0491 -0.9294 -0.8619
  293MOL0     C39426   4.631   9.629   3.301  0.2292 -0.0789  0.6321
  293MOL0     C39427   4.675   9.693   3.415 -0.2714 -0.9684  0.1928
  293MOL0     O39428   4.772   9.787   3.391 -0.5637 -0.0154  0.0438
  293MOL0     C39429   4.805   9.879   3.496  1.0848 -0.3619  0.3475
  293MOL0     C39430   4.841  10.009   3.430 -0.5355  0.2916  0.1540
  293MOL0     C39431   4.728  10.071   3.348 -0.9594 -0.2081  0.1758
  293MOL0     C39432   4.758  10.217   3.318 -0.2865 -0.2922 -0.1652
  293MOL0     C39433   4.660  10.276   3.221 -0.2041  0.2564 -0.1701
  293MOL0     C39434   4.696  10.423   3.171 -0.0844 -0.0019  0.0115
  293MOL0     C39435   4.574  10.498   3.126 -0.1508 -0.1275  0.1414
  293MOL0     C39436   4.623  10.636   3.062  0.9260  0.7043 -0.3930
  293MOL0     N39437   4.522  10.729   3.018 -0.5759  0.6384  0.3420
  293MOL0     C39438   4.416  10.774   3.092 -0.3236  0.0192 -0.3430
  293MOL0     C39439   4.340  10.858   3.003 -0.6664  0.1845 -0.8363
  293MOL0     C39440   4.214  10.935   3.023  0.5457  0.1057 -0.0871
  293MOL0     C39441   4.217  11.054   3.112 -0.1000 -0.2873  0.3103
  293MOL0     C39442   4.175  11.039   3.261 -0.2784 -0.0246  0.2686
  293MOL0     C39443   4.195  11.168   3.343  0.4147 -0.2285 -0.8852
  293MOL0     O39444   4.111  11.276   3.303  0.6612 -0.0430  0.7108
  293MOL0     C39445   3.976  11.258   3.318 -0.2032  0.0671  0.2308
  293MOL0     C39446   3.897  11.360   3.254  0.2383  0.6557  0.3693
  293MOL0     C39447   3.757  11.352   3.260  0.2511  0.6163 -0.9139
  293MOL0     C39448   3.685  11.474   3.197  0.1590  0.1002  0.3302
  293MOL0     C39449   3.689  11.250   3.344 -0.7248  0.2358  0.1107
  293MOL0     C39450   3.541  11.231   3.341 -0.0861  0.0945  0.0228
  293MOL0     O39451   3.459  11.328   3.279 -0.4563  0.2518 -0.0890
  293MOL0     C39452   3.328  11.336   3.312 -0.0191  0.0100 -0.6143
  293MOL0     C39453   3.257  11.379   3.204  0.0319 -0.8167 -0.1559
  293MOL0     C39454   3.119  11.407   3.217  0.4393  0.6175 -0.5612
  293MOL0     C39455   3.046  11.376   3.332  0.4081  0.3994  0.4702
  293MOL0     O39456   2.904  11.398   3.342 -0.1387 -0.3055 -0.1360
  293MOL0     C39457   2.846  11.356   3.463  1.3776  0.5598  0.1563
  293MOL0     C39458   2.697  11.400   3.469  0.1144  0.5956 -0.1851
  293MOL0     C39459   2.603  11.320   3.382  0.9346  0.5391 -1.0921
  293MOL0     C39460   2.456  11.357   3.413 -0.0109  0.0391 -0.8838
  293MOL0     C39461   2.361  11.314   3.304  0.2575 -0.3477 -0.1674
  293MOL0     C39462   2.216  11.351   3.345 -0.5989  0.0919  0.0268
  293MOL0     C39463   2.115  11.360   3.230 -0.1844  0.0042  0.2785
  293MOL0     C39464   1.993  11.434   3.273 -0.5623  0.5982  0.2052
  293MOL0    Cl39465   1.889  11.467   3.128  0.1687  0.0636 -0.0130
  293MOL0     C39466   3.126  11.332   3.439  0.0842  0.0703 -0.6711
  293MOL0     C39467   3.266  11.313   3.434  0.2444  0.1070  0.5899
  293MOL0     O39468   3.492  11.135   3.398  0.0757 -0.0650 -0.8328
  293MOL0     C39469   3.770  11.157   3.405 -0.5191 -0.1707  0.2940
  293MOL0     C39470   3.915  11.159   3.397  0.1774 -0.0570 -0.9518
  293MOL0     N39471   4.395  10.841   2.874 -0.1408  1.2312 -0.9113
  293MOL0     N39472   4.504  10.766   2.889 -0.2701  0.3255  0.1907
  293MOL0     C39473   4.622   9.659   3.539 -0.8900 -0.6359  0.3121
  293MOL0     C39474   4.523   9.568   3.551 -0.0019  0.6287 -0.1446
  293MOL0     C39475   4.148   9.328   3.440  0.6936 -0.2943  0.6211
  293MOL0     C39476   4.022   9.362   3.389 -0.3035 -0.5410 -0.0390
  293MOL0     C39477   3.912   9.284   3.414  0.1924 -0.5537 -0.1267
  293MOL0     C39478   3.927   9.161   3.476 -0.4834 -0.2262 -0.5371
  293MOL0     O39479   3.814   9.086   3.485  0.4041  0.5636  0.3006
  293MOL0     C39480   3.820   8.942   3.511 -0.3067  0.4355 -0.4016
  293MOL0     C39481   3.681   8.878   3.493  1.1198  0.2321  1.2731
  293MOL0     C39482   3.648   8.885   3.334  0.0805  0.2072 -0.0948
  293MOL0     C39483   3.520   8.789   3.311  0.7446 -0.1062  0.0899
  293MOL0     C39484   3.401   8.851   3.382  0.1507 -0.3265  0.2444
  293MOL0     C39485   3.314   8.916   3.442 -0.6761  0.0385  0.6942
  293MOL0     C39486   4.051   9.122   3.526  0.3152 -0.1490 -0.1039
  293MOL0     C39487   4.162   9.209   3.508 -0.2729  0.7572  0.2321
  293MOL0     H39488   4.497   9.458   3.239 -0.9022 -1.0919  0.2566
  293MOL0     H39489   4.671   9.658   3.205  1.0236 -0.9278  0.7012
  293MOL0     H39490   4.723   9.897   3.566  0.6140 -2.3185  0.3474
  293MOL0     H39491   4.892   9.845   3.553  2.3961  0.4426 -1.1012
  293MOL0     H39492   4.869  10.084   3.505 -1.4549  2.8561 -1.9221
  293MOL0     H39493   4.927   9.980   3.368 -0.9187 -0.1745 -0.1615
  293MOL0     H39494   4.735  10.029   3.247  1.0223 -0.1719  0.2663
  293MOL0     H39495   4.634  10.054   3.402 -1.5490 -0.0856 -0.7751
  293MOL0     H39496   4.752  10.272   3.412  0.9534  2.5374 -1.6376
  293MOL0     H39497   4.864  10.224   3.294  0.2871 -0.7798  2.0523
  293MOL0     H39498   4.653  10.211   3.133 -1.7388  0.0006  0.1139
  293MOL0     H39499   4.564  10.278   3.273  0.1299  3.1827  0.4831
  293MOL0     H39500   4.747  10.484   3.246  1.1806 -1.1452  0.1275
  293MOL0     H39501   4.764  10.410   3.086 -0.0506  0.9883 -0.1298
  293MOL0     H39502   4.518  10.440   3.052  0.1535  0.1186 -0.2842
  293MOL0     H39503   4.501  10.517   3.206 -1.0198  1.1076 -0.8994
  293MOL0     H39504   4.687  10.615   2.976  0.3659  2.0331 -1.1656
  293MOL0     H39505   4.683  10.679   3.142  1.2723  2.2964 -1.4584
  293MOL0     H39506   4.378  10.753   3.191 -2.3944  3.3940 -0.2417
  293MOL0     H39507   4.204  10.968   2.920  0.7337 -1.2971 -0.5804
  293MOL0     H39508   4.126  10.874   3.046  0.8106  0.6299  2.6992
  293MOL0     H39509   4.143  11.122   3.069  0.9044  2.5238  2.6448
  293MOL0     H39510   4.321  11.088   3.106 -0.4362  0.5814 -1.0717
  293MOL0     H39511   4.233  10.960   3.309 -0.5151  0.9578  2.3156
  293MOL0     H39512   4.074  10.999   3.272 -0.3648 -0.1111 -0.7308
  293MOL0     H39513   4.300  11.197   3.328  1.1186 -2.4433 -0.6097
  293MOL0     H39514   4.168  11.139   3.445 -0.3343 -0.6440 -1.1970
  293MOL0     H39515   3.954  11.439   3.207  0.8986 -0.5717 -1.0144
  293MOL0     H39516   3.603  11.446   3.130  1.1785  0.8606 -1.2924
  293MOL0     H39517   3.649  11.544   3.273 -1.8392  3.4515 -3.3193
  293MOL0     H39518   3.758  11.535   3.145 -0.6055  0.6677 -0.1039
  293MOL0     H39519   3.304  11.388   3.106 -0.2109  2.4981 -0.0895
  293MOL0     H39520   3.061  11.448   3.135  1.0229  0.3034 -1.1499
  293MOL0     H39521   2.851  11.247   3.472  1.0607  0.4910 -0.4748
  293MOL0     H39522   2.903  11.407   3.541  0.2728  0.4300  1.0848
  293MOL0     H39523   2.654  11.400   3.569  1.3677  0.7510  0.3725
  293MOL0     H39524   2.683  11.502   3.431 -0.7168  0.8736  0.8108
  293MOL0     H39525   2.608  11.212   3.400 -0.3794  0.5749 -0.4170
  293MOL0     H39526   2.632  11.329   3.277  0.5224 -0.4834 -1.3101
  293MOL0     H39527   2.439  11.309   3.510  2.2243  3.2279  1.3149
  293MOL0     H39528   2.444  11.463   3.435 -0.2682 -0.4273  1.5308
  293MOL0     H39529   2.362  11.207   3.280 -0.7207 -0.2185 -0.8306
  293MOL0     H39530   2.395  11.359   3.211  0.3988 -0.2364 -0.0622
  293MOL0     H39531   2.187  11.284   3.427  2.3137 -1.2321  0.0872
  293MOL0     H39532   2.223  11.455   3.378  1.4013  0.4137 -1.2113
  293MOL0     H39533   2.092  11.263   3.186 -1.9341 -0.0127  1.1373
  293MOL0     H39534   2.166  11.421   3.154 -1.9715  1.2050 -0.0141
  293MOL0     H39535   2.014  11.528   3.326  1.8000  0.4209 -0.3008
  293MOL0     H39536   1.943  11.364   3.339  3.4480 -1.5469  1.2824
  293MOL0     H39537   3.076  11.323   3.535  1.6054 -0.6339  0.0745
  293MOL0     H39538   3.323  11.271   3.517 -0.4743 -0.6762  0.6956
  293MOL0     H39539   3.727  11.082   3.471 -0.0153  0.7054  1.6714
  293MOL0     H39540   3.954  11.078   3.458 -0.0830  2.2022  2.4748
  293MOL0     H39541   4.667   9.689   3.633  0.6151 -3.5490  0.6173
  293MOL0     H39542   4.479   9.556   3.649 -0.4082  1.5055 -0.2040
  293MOL0     H39543   4.015   9.451   3.328 -1.6252 -0.9799 -0.5767
  293MOL0     H39544   3.813   9.323   3.389  0.4532  1.0180  1.1132
  293MOL0     H39545   3.898   8.907   3.443  1.8325  3.4415  0.3192
  293MOL0     H39546   3.859   8.912   3.608 -0.8210 -1.8682 -0.8453
  293MOL0     H39547   3.611   8.929   3.560 -1.3257  0.9659 -1.5793
  293MOL0     H39548   3.683   8.776   3.530 -0.1497 -0.1657  0.3021
  293MOL0     H39549   3.739   8.852   3.283  1.2098  2.9517 -0.0204
  293MOL0     H39550   3.636   8.990   3.306  0.3688  0.0871 -0.6838
  293MOL0     H39551   3.536   8.686   3.346  0.1316 -0.7775 -1.5261
  293MOL0     H39552   3.504   8.778   3.204  0.6903 -0.2713  0.1140
  293MOL0     H39553   3.239   8.981   3.484 -1.1055 -1.2771  2.0374
  293MOL0     H39554   4.052   9.032   3.585 -2.3244 -1.0210 -1.2463
  293MOL0     H39555   4.261   9.192   3.548 -1.0178  2.2590  2.9313
  294MOL0     O39556   2.554   5.455   8.052 -0.5551 -0.9844  0.4275
  294MOL0     C39557   2.523   5.475   7.931  0.5193 -0.5307 -0.2085
  294MOL0     O39558   2.395   5.522   7.885 -0.5319  0.2468 -0.1667
  294MOL0     C39559   2.296   5.506   7.976  0.4378 -0.4192  0.0291
  294MOL0     C39560   2.272   5.611   8.077 -0.3773 -0.0148  0.5060
  294MOL0     C39561   2.162   5.605   8.160 -0.1858  0.6522  0.2550
  294MOL0     C39562   2.071   5.497   8.148  0.0808  1.1742  0.4976
  294MOL0     O39563   1.968   5.496   8.240  0.7164  1.0000 -0.1037
  294MOL0     C39564   1.919   5.365   8.284  0.9765 -0.2467 -1.2186
  294MOL0     C39565   1.788   5.320   8.212 -0.3156 -0.5743 -0.5839
  294MOL0     C39566   1.673   5.420   8.234 -0.2344 -0.0165  0.5273
  294MOL0     C39567   1.537   5.349   8.226  0.7166 -0.0664 -0.5252
  294MOL0     C39568   1.424   5.442   8.259  0.5147 -0.2770  0.2987
  294MOL0     C39569   1.278   5.374   8.262 -0.6051  0.2133  0.3513
  294MOL0     C39570   1.248   5.276   8.376 -0.4624 -0.4126 -0.0315
  294MOL0     C39571   1.112   5.202   8.344 -0.0047 -1.1406  0.5948
  294MOL0     N39572   0.993   5.260   8.415  0.2408 -0.3290  0.0557
  294MOL0     C39573   0.930   5.377   8.382  0.7584  0.6104  0.8296
  294MOL0     C39574   0.821   5.379   8.464  0.1765  1.0287 -0.3451
  294MOL0     C39575   0.712   5.487   8.470 -0.4118  0.4513 -0.4258
  294MOL0     C39576   0.574   5.431   8.490  0.2762 -1.2390 -0.2785
  294MOL0     C39577   0.468   5.538   8.494  0.9959 -0.1330  0.0171
  294MOL0     C39578   0.330   5.463   8.500  0.1428 -0.1751 -0.4081
  294MOL0     O39579   0.224   5.563   8.528 -0.4807  0.2018  0.3857
  294MOL0     C39580   0.095   5.541   8.497 -0.7149  0.2229  0.3650
  294MOL0     C39581   0.042   5.413   8.450  0.0893 -0.5104  0.3395
  294MOL0     C39582  -0.095   5.402   8.418  0.4591  0.4216  0.2977
  294MOL0     C39583  -0.141   5.267   8.371 -0.0210  0.0245 -0.0570
  294MOL0     C39584  -0.182   5.514   8.436 -0.7563 -0.0076 -0.0794
  294MOL0     C39585  -0.330   5.506   8.398  0.9520  0.5615  0.2946
  294MOL0     O39586  -0.408   5.603   8.443 -0.4914 -0.7629  0.2814
  294MOL0     C39587  -0.541   5.601   8.398 -0.3448  0.1310 -0.4509
  294MOL0     C39588  -0.579   5.618   8.262  0.0862  1.2183  0.0112
  294MOL0     C39589  -0.714   5.604   8.218  0.2218  0.4914 -0.5538
  294MOL0     C39590  -0.816   5.587   8.309 -0.0660 -0.7384 -0.3981
  294MOL0     O39591  -0.944   5.594   8.265  0.5206 -0.3699 -0.8640
  294MOL0     C39592  -1.054   5.567   8.359 -0.0389  0.2686  0.5022
  294MOL0     C39593  -1.189   5.595   8.290 -1.0022  0.1217  0.2192
  294MOL0     C39594  -1.307   5.550   8.377  0.7580  0.3551  0.5647
  294MOL0     C39595  -1.437   5.611   8.310  0.2484 -0.1785 -0.4650
  294MOL0     C39596  -1.578   5.582   8.381 -0.5687 -0.1226 -0.0972
  294MOL0     C39597  -1.684   5.611   8.279  0.7381  0.1193 -0.5347
  294MOL0     C39598  -1.816   5.615   8.354 -0.0467 -0.0906  0.2083
  294MOL0     C39599  -1.933   5.660   8.260 -0.6394  0.4388 -0.2386
  294MOL0    Cl39600  -2.083   5.664   8.349 -0.2410 -0.1737 -0.1494
  294MOL0     C39601  -0.779   5.566   8.446 -0.4420  0.2746  0.0456
  294MOL0     C39602  -0.647   5.570   8.487  0.0276  0.3634  0.5242
  294MOL0     O39603  -0.368   5.419   8.321  0.6920  0.1948 -0.3278
  294MOL0     C39604  -0.126   5.634   8.472  0.1063 -0.7566 -0.2548
  294MOL0     C39605   0.009   5.645   8.502  0.3633 -0.2445  0.1306
  294MOL0     N39606   0.831   5.275   8.550  0.3455  0.2726 -0.1830
  294MOL0     N39607   0.935   5.201   8.526 -0.4153 -0.5060 -0.0529
  294MOL0     C39608   2.097   5.401   8.041  0.3073 -0.7300  0.3339
  294MOL0     C39609   2.209   5.403   7.968  0.1288 -0.8297  0.2211
  294MOL0     C39610   2.622   5.444   7.831 -0.8036  0.2880  0.3074
  294MOL0     C39611   2.743   5.378   7.857 -1.0203 -0.4457  0.1405
  294MOL0     C39612   2.843   5.343   7.759  0.0606  0.1901  0.4096
  294MOL0     C39613   2.811   5.377   7.618 -0.7589 -0.2758  0.4312
  294MOL0     O39614   2.884   5.361   7.499  0.3864 -0.6159 -0.8079
  294MOL0     C39615   3.010   5.300   7.524 -0.4434  0.2328  0.1513
  294MOL0     C39616   3.004   5.147   7.522  0.4410 -0.1878 -0.2550
  294MOL0     C39617   3.118   5.099   7.617  0.5867 -0.5552 -0.4899
  294MOL0     C39618   3.160   4.951   7.603  0.2789 -0.1282 -0.7932
  294MOL0     C39619   3.275   4.916   7.688 -0.2013  0.2900 -0.9146
  294MOL0     C39620   3.370   4.893   7.752 -0.5247  0.6161  0.0769
  294MOL0     C39621   2.690   5.445   7.596  0.8042 -0.6445  0.7143
  294MOL0     C39622   2.598   5.472   7.695  0.3064 -0.8386  0.6689
  294MOL0     H39623   2.338   5.697   8.086  0.1106  0.1266 -3.1594
  294MOL0     H39624   2.129   5.686   8.225  4.1065  1.6175  1.5447
  294MOL0     H39625   1.990   5.282   8.276  1.2223 -0.0371 -1.2286
  294MOL0     H39626   1.890   5.375   8.389  0.6938  0.1897 -1.3367
  294MOL0     H39627   1.811   5.313   8.105 -1.9413  1.0790 -1.0983
  294MOL0     H39628   1.754   5.222   8.245  1.8422 -0.5177  2.2018
  294MOL0     H39629   1.691   5.466   8.332  0.7954  0.9854 -0.1073
  294MOL0     H39630   1.678   5.506   8.167 -1.2736  1.5423  2.3470
  294MOL0     H39631   1.524   5.302   8.128 -1.6009 -1.8028  0.5151
  294MOL0     H39632   1.531   5.272   8.304 -1.0563  1.0082  0.4700
  294MOL0     H39633   1.438   5.493   8.355 -4.0058 -1.6930  1.9971
  294MOL0     H39634   1.419   5.513   8.176 -1.6865  1.7665  2.0230
  294MOL0     H39635   1.211   5.461   8.262 -0.5046  0.2945  0.9848
  294MOL0     H39636   1.266   5.320   8.168  3.7720  0.7339 -0.7505
  294MOL0     H39637   1.337   5.214   8.389  0.0426  0.4115  0.5124
  294MOL0     H39638   1.241   5.321   8.475  1.5524 -2.4890  1.1587
  294MOL0     H39639   1.131   5.102   8.385 -0.7427 -0.4578  2.6940
  294MOL0     H39640   1.094   5.203   8.236  0.8245  3.0126  0.3496
  294MOL0     H39641   0.946   5.445   8.299 -0.5476 -1.3944 -1.1898
  294MOL0     H39642   0.719   5.550   8.560 -1.5769  0.9072 -0.6454
  294MOL0     H39643   0.716   5.553   8.383  0.1847  2.2997  0.9221
  294MOL0     H39644   0.578   5.386   8.590  3.3003  0.7261  0.6527
  294MOL0     H39645   0.550   5.361   8.410  4.7350 -1.3022 -1.8461
  294MOL0     H39646   0.479   5.596   8.402  0.9010 -0.0805  0.0387
  294MOL0     H39647   0.471   5.608   8.578 -0.4789  1.2289 -1.0057
  294MOL0     H39648   0.325   5.387   8.579 -1.6793  0.1051 -0.2104
  294MOL0     H39649   0.311   5.414   8.404 -1.5398  0.9802 -0.7060
  294MOL0     H39650   0.115   5.335   8.433  1.6713  1.0360 -0.3206
  294MOL0     H39651  -0.239   5.234   8.406 -0.5781  0.8640 -0.7883
  294MOL0     H39652  -0.138   5.270   8.262  1.6224 -1.0402 -0.0703
  294MOL0     H39653  -0.071   5.194   8.412  0.7085  0.8657  0.2341
  294MOL0     H39654  -0.498   5.632   8.191 -0.2855 -1.8811 -1.2041
  294MOL0     H39655  -0.749   5.625   8.117  2.0350 -2.0292 -1.8142
  294MOL0     H39656  -1.044   5.461   8.385 -1.1378 -0.1094 -0.5444
  294MOL0     H39657  -1.048   5.628   8.450 -1.9450 -0.2140  0.9993
  294MOL0     H39658  -1.200   5.700   8.259  3.6887 -0.0088 -2.8881
  294MOL0     H39659  -1.192   5.532   8.201  0.9586 -1.8125  1.4528
  294MOL0     H39660  -1.294   5.582   8.481  0.3137  2.1720  0.0912
  294MOL0     H39661  -1.317   5.441   8.391 -2.2262  0.4896  0.2260
  294MOL0     H39662  -1.422   5.719   8.301  1.2387 -0.4627 -3.0730
  294MOL0     H39663  -1.442   5.564   8.212 -0.6736  1.4446 -1.2497
  294MOL0     H39664  -1.590   5.642   8.472  0.9792 -0.3041  0.2582
  294MOL0     H39665  -1.583   5.473   8.390 -3.0124 -0.0328  0.3231
  294MOL0     H39666  -1.668   5.706   8.228 -0.4272  0.3143 -0.5689
  294MOL0     H39667  -1.690   5.529   8.207 -0.6423 -0.6990  0.4479
  294MOL0     H39668  -1.820   5.695   8.428 -0.3774  0.5802 -0.5278
  294MOL0     H39669  -1.849   5.518   8.394 -2.7244  1.0461  0.9780
  294MOL0     H39670  -1.930   5.600   8.169  4.4521  0.5658 -0.4458
  294MOL0     H39671  -1.912   5.761   8.224  1.8438 -0.1092 -0.5186
  294MOL0     H39672  -0.853   5.534   8.517 -0.3732 -1.9108 -0.7958
  294MOL0     H39673  -0.630   5.555   8.593 -3.6558 -0.1689  1.1755
  294MOL0     H39674  -0.184   5.726   8.477  1.2350 -0.0697  1.7216
  294MOL0     H39675   0.044   5.742   8.536  2.6872 -0.7275 -0.7472
  294MOL0     H39676   2.033   5.315   8.027 -0.5753 -0.5141  2.5316
  294MOL0     H39677   2.240   5.312   7.916  0.2336 -0.7583  0.1581
  294MOL0     H39678   2.771   5.362   7.961 -0.1497  1.0602  0.1625
  294MOL0     H39679   2.940   5.301   7.781 -0.0123  1.2323  3.0686
  294MOL0     H39680   3.073   5.319   7.437 -1.1292 -1.4007 -0.7552
  294MOL0     H39681   3.058   5.338   7.614 -1.9272 -0.7520  1.4026
  294MOL0     H39682   2.995   5.095   7.426  1.3034  1.3834 -1.2212
  294MOL0     H39683   2.911   5.126   7.576 -0.2021  0.7996 -0.9547
  294MOL0     H39684   3.097   5.119   7.722  1.8431  1.4397 -0.5637
  294MOL0     H39685   3.208   5.157   7.594  1.5895 -0.0703  3.8178
  294MOL0     H39686   3.188   4.932   7.499  0.5567 -0.5106 -0.6534
  294MOL0     H39687   3.080   4.877   7.616  0.0224  0.1686 -0.6870
  294MOL0     H39688   3.443   4.863   7.824 -1.0528  0.3957  0.5252
  294MOL0     H39689   2.667   5.466   7.492  2.3381 -0.6591  0.3501
  294MOL0     H39690   2.510   5.531   7.670  1.0753  0.8128  1.7041
  295MOL0     O39691   4.295   0.806   7.410  0.2009 -0.5975  0.0729
  295MOL0     C39692   4.356   0.698   7.426 -0.0701 -0.0038 -0.0563
  295MOL0     O39693   4.285   0.578   7.458 -1.0196 -0.0127  0.0543
  295MOL0     C39694   4.154   0.593   7.468 -0.7559  0.6112  0.0876
  295MOL0     C39695   4.070   0.540   7.369 -0.7647  0.1376  0.5462
  295MOL0     C39696   3.929   0.552   7.371  0.0288 -0.5562  0.5085
  295MOL0     C39697   3.862   0.622   7.476  0.3238 -0.1500  0.4840
  295MOL0     O39698   3.724   0.637   7.473 -0.2117 -0.1928 -0.0960
  295MOL0     C39699   3.661   0.704   7.582  0.6401  0.0209 -0.4935
  295MOL0     C39700   3.509   0.695   7.584  0.6913 -0.3358  0.3186
  295MOL0     C39701   3.473   0.542   7.616  0.5723 -0.3658 -0.4370
  295MOL0     C39702   3.324   0.499   7.639 -0.9102  0.3719 -0.1059
  295MOL0     C39703   3.249   0.480   7.509 -0.0664 -0.3401 -0.0757
  295MOL0     C39704   3.104   0.493   7.540 -0.5506 -0.1248 -0.3843
  295MOL0     C39705   3.029   0.473   7.414 -0.2007 -0.9252  0.5583
  295MOL0     C39706   2.879   0.439   7.420  0.3989  0.2523 -1.2690
  295MOL0     N39707   2.801   0.536   7.498  0.2871  0.0928  0.7495
  295MOL0     C39708   2.721   0.630   7.447 -0.1309 -0.9433 -1.2440
  295MOL0     C39709   2.661   0.686   7.558 -0.5093 -0.1421  1.3851
  295MOL0     C39710   2.563   0.801   7.547  1.2785 -0.5033  0.7790
  295MOL0     C39711   2.430   0.740   7.501 -0.1389 -0.1379 -0.4735
  295MOL0     C39712   2.348   0.715   7.627  0.2299 -0.0966 -0.2466
  295MOL0     C39713   2.230   0.617   7.597 -0.2543 -0.1930 -0.5439
  295MOL0     O39714   2.134   0.622   7.704 -0.1150 -0.7085  0.4832
  295MOL0     C39715   2.035   0.719   7.694  0.7596 -0.6651  0.5576
  295MOL0     C39716   2.030   0.822   7.597  0.0796 -0.3090 -0.2460
  295MOL0     C39717   1.917   0.903   7.597 -0.0740 -0.2251 -0.9298
  295MOL0     C39718   1.924   1.012   7.487 -0.1197  0.3862 -0.3490
  295MOL0     C39719   1.807   0.872   7.676  0.4688  0.2082 -0.9019
  295MOL0     C39720   1.671   0.938   7.664  0.6741  0.0088  0.0323
  295MOL0     O39721   1.574   0.891   7.745  0.2390  0.2665  0.1662
  295MOL0     C39722   1.451   0.951   7.732  0.8705  0.1922 -1.0364
  295MOL0     C39723   1.373   0.941   7.621 -0.2568 -0.9404  0.2520
  295MOL0     C39724   1.249   0.999   7.613 -0.2033 -0.4518  0.3003
  295MOL0     C39725   1.192   1.071   7.724  0.1357  0.2254  0.7330
  295MOL0     O39726   1.065   1.128   7.698 -0.1415 -0.4500  0.0756
  295MOL0     C39727   0.996   1.177   7.812 -0.2016 -0.5277 -0.4318
  295MOL0     C39728   0.873   1.239   7.778  0.4496  0.5994  0.0750
  295MOL0     C39729   0.775   1.233   7.899 -0.2454 -0.0196  0.4426
  295MOL0     C39730   0.640   1.305   7.878 -1.3135 -0.1850  0.9099
  295MOL0     C39731   0.567   1.263   7.753 -0.3911  1.0932  0.1073
  295MOL0     C39732   0.537   1.114   7.731 -0.1898  1.3994 -0.4180
  295MOL0     C39733   0.477   1.089   7.594  0.4250 -0.2463  0.0652
  295MOL0     C39734   0.466   0.939   7.581 -0.2340  0.5511 -0.4146
  295MOL0    Cl39735   0.372   0.902   7.439 -0.0350  0.0292 -0.3316
  295MOL0     C39736   1.266   1.071   7.838 -0.1470 -0.1071 -0.0559
  295MOL0     C39737   1.402   1.016   7.841  0.3637 -0.2193 -0.7169
  295MOL0     O39738   1.653   1.034   7.586 -0.1440  0.3959 -0.0390
  295MOL0     C39739   1.828   0.775   7.776  1.0720 -0.3356  0.6070
  295MOL0     C39740   1.936   0.691   7.782  0.2548 -0.0406  0.1154
  295MOL0     N39741   2.704   0.633   7.673  0.2201  0.6491 -0.0222
  295MOL0     N39742   2.785   0.535   7.627  0.3036 -0.5332 -0.2696
  295MOL0     C39743   3.947   0.686   7.567 -0.0959 -0.2099  0.0910
  295MOL0     C39744   4.084   0.666   7.570 -0.2955  0.0994 -0.6035
  295MOL0     C39745   4.504   0.698   7.430  0.8274  0.0155  0.2085
  295MOL0     C39746   4.564   0.614   7.528 -0.2409 -0.8573  0.8874
  295MOL0     C39747   4.706   0.612   7.522 -0.0102 -0.5513  0.2106
  295MOL0     C39748   4.780   0.679   7.424  0.3304  0.0591 -0.6903
  295MOL0     O39749   4.917   0.661   7.433 -0.0765  0.0247  0.5795
  295MOL0     C39750   5.003   0.722   7.322  1.3728  0.7002 -0.8560
  295MOL0     C39751   5.147   0.672   7.339  0.0725 -0.8719 -0.5550
  295MOL0     C39752   5.157   0.529   7.386  0.7475 -0.3374  0.0037
  295MOL0     C39753   5.299   0.463   7.348 -0.5480 -0.1887  0.6649
  295MOL0     C39754   5.336   0.340   7.416  0.1076  0.5603  0.2590
  295MOL0     C39755   5.359   0.234   7.476 -0.1641  0.1098 -0.2475
  295MOL0     C39756   4.708   0.775   7.347 -0.6530 -0.1617 -0.2492
  295MOL0     C39757   4.575   0.786   7.349 -0.1783  0.1526  0.2535
  295MOL0     H39758   4.108   0.464   7.301  0.9133  1.0004  0.4761
  295MOL0     H39759   3.865   0.502   7.299  1.2731 -0.4877 -0.6753
  295MOL0     H39760   3.694   0.671   7.681  1.1467  1.5608 -0.1255
  295MOL0     H39761   3.671   0.813   7.581 -0.2720  0.1257  0.0843
  295MOL0     H39762   3.476   0.767   7.659 -0.1115 -1.1848  0.7921
  295MOL0     H39763   3.473   0.730   7.487  0.7432 -1.6241 -0.1804
  295MOL0     H39764   3.516   0.476   7.540 -2.0967 -1.4107 -1.1604
  295MOL0     H39765   3.527   0.510   7.706  3.9230 -0.4364 -2.2898
  295MOL0     H39766   3.299   0.405   7.689 -1.8451  1.4184  1.5133
  295MOL0     H39767   3.281   0.571   7.710  1.3203 -0.6042  2.3948
  295MOL0     H39768   3.290   0.561   7.449  1.7066 -2.7347 -2.3201
  295MOL0     H39769   3.267   0.387   7.454  1.8212  0.2058 -0.4409
  295MOL0     H39770   3.071   0.419   7.613  1.4107 -0.3142  0.3575
  295MOL0     H39771   3.072   0.589   7.582  0.4950 -0.9154  2.4796
  295MOL0     H39772   3.042   0.569   7.363  2.8759 -0.0714  2.7368
  295MOL0     H39773   3.064   0.396   7.343 -2.5477 -0.9502 -0.6795
  295MOL0     H39774   2.876   0.347   7.479 -0.2332  0.1446 -1.4605
  295MOL0     H39775   2.848   0.429   7.316  2.5210 -0.8743 -1.8422
  295MOL0     H39776   2.706   0.653   7.342  2.9246  1.1971 -1.3397
  295MOL0     H39777   2.550   0.851   7.644 -1.2221 -2.6039  1.6512
  295MOL0     H39778   2.606   0.873   7.477  0.6155  0.0208  0.9020
  295MOL0     H39779   2.449   0.651   7.440  2.4428 -0.5087  0.7132
  295MOL0     H39780   2.378   0.810   7.434  1.1921  0.8815 -0.4851
  295MOL0     H39781   2.306   0.811   7.656 -0.9378 -1.0872  1.4883
  295MOL0     H39782   2.409   0.678   7.710  0.1652 -1.2465 -0.6859
  295MOL0     H39783   2.267   0.515   7.583  2.5207  0.6261  0.3239
  295MOL0     H39784   2.188   0.650   7.501  2.0526 -0.4866 -1.7098
  295MOL0     H39785   2.115   0.849   7.535  1.8857  0.3020  2.3534
  295MOL0     H39786   2.030   1.037   7.473 -0.1747  1.0972  0.4050
  295MOL0     H39787   1.868   0.972   7.402 -0.9766 -3.9431  1.9567
  295MOL0     H39788   1.881   1.105   7.526  1.1938  0.6598  0.5038
  295MOL0     H39789   1.400   0.881   7.535 -3.7541  0.0896 -1.7569
  295MOL0     H39790   1.185   1.007   7.525  1.2522  0.8731 -0.7007
  295MOL0     H39791   0.977   1.107   7.894 -1.7543  2.9004  2.4220
  295MOL0     H39792   1.054   1.249   7.871 -1.3044 -1.9271  2.6202
  295MOL0     H39793   0.888   1.344   7.751 -0.5073  0.3980 -1.3582
  295MOL0     H39794   0.837   1.203   7.681 -2.9195  1.2278  0.9639
  295MOL0     H39795   0.826   1.267   7.989  1.7553  0.0014 -0.6520
  295MOL0     H39796   0.748   1.128   7.915  2.5260 -1.7275 -4.2443
  295MOL0     H39797   0.587   1.287   7.972 -0.7460 -0.7101  1.1312
  295MOL0     H39798   0.658   1.413   7.874  1.2324 -0.5729  0.2587
  295MOL0     H39799   0.619   1.309   7.668  2.0184  1.3916  1.6313
  295MOL0     H39800   0.469   1.311   7.751 -1.0949 -0.2668 -1.8929
  295MOL0     H39801   0.632   1.059   7.727 -1.2851 -0.5722 -0.5839
  295MOL0     H39802   0.473   1.075   7.811  1.9858 -0.0230  0.7427
  295MOL0     H39803   0.546   1.124   7.517 -0.2358  0.3043 -0.2892
  295MOL0     H39804   0.382   1.143   7.590 -0.5848 -2.0412 -2.0067
  295MOL0     H39805   0.410   0.894   7.664 -0.5676 -1.0054 -1.4413
  295MOL0     H39806   0.559   0.884   7.568  0.1771  1.8854 -4.2160
  295MOL0     H39807   1.231   1.124   7.926  0.3572  0.6460 -0.2997
  295MOL0     H39808   1.455   1.021   7.936 -0.2674 -1.5133 -0.2767
  295MOL0     H39809   1.738   0.765   7.837 -1.3082  3.4314 -1.8485
  295MOL0     H39810   1.948   0.605   7.846 -0.7138 -0.7542 -0.6439
  295MOL0     H39811   3.899   0.745   7.646  2.7501  3.0315 -0.3603
  295MOL0     H39812   4.147   0.716   7.643 -0.3470  2.1605 -1.8613
  295MOL0     H39813   4.513   0.547   7.597  0.3150 -0.7597  1.4070
  295MOL0     H39814   4.757   0.541   7.586 -0.3941 -0.3856  0.6999
  295MOL0     H39815   4.965   0.693   7.223  3.3276  0.2012 -1.4912
  295MOL0     H39816   4.992   0.830   7.329 -5.6724  0.3966  0.3564
  295MOL0     H39817   5.190   0.730   7.421  1.1656 -0.7163 -1.2110
  295MOL0     H39818   5.200   0.691   7.245 -0.7730  0.1849 -0.8354
  295MOL0     H39819   5.078   0.464   7.346  0.9637 -0.9550  0.5652
  295MOL0     H39820   5.153   0.537   7.495 -0.0323 -1.9254  0.1214
  295MOL0     H39821   5.375   0.536   7.379 -0.8692  0.0257  0.9452
  295MOL0     H39822   5.308   0.453   7.239 -0.8034 -1.3303  0.7337
  295MOL0     H39823   5.365   0.140   7.526 -1.4172 -0.5978 -1.3697
  295MOL0     H39824   4.764   0.837   7.277 -1.7806 -0.8058 -1.7797
  295MOL0     H39825   4.529   0.854   7.278  1.3972  0.2091 -0.7582
  296MOL0     O39826   7.985   7.187   0.243 -0.7546  0.1388 -0.5125
  296MOL0     C39827   8.016   7.092   0.311 -0.4809  0.3885  0.7069
  296MOL0     O39828   8.132   7.016   0.294  0.0232  0.0036 -0.0300
  296MOL0     C39829   8.186   7.035   0.167  0.9083  0.1791  0.4386
  296MOL0     C39830   8.264   7.152   0.151  0.4161  0.4981 -0.6515
  296MOL0     C39831   8.324   7.180   0.035  0.6724  0.2284  0.1635
  296MOL0     C39832   8.298   7.103  -0.078  0.2876  0.5621  1.0054
  296MOL0     O39833   8.356   7.141  -0.197  0.2973  0.0986  0.1342
  296MOL0     C39834   8.268   7.122  -0.311  0.4936 -0.2227  0.1073
  296MOL0     C39835   8.313   7.212  -0.426 -0.7168 -0.9747  0.1131
  296MOL0     C39836   8.204   7.310  -0.477  0.1928  0.5858  1.4691
  296MOL0     C39837   8.275   7.397  -0.579  0.0868  0.3260 -0.5966
  296MOL0     C39838   8.155   7.478  -0.650 -0.9415  0.1327 -0.0729
  296MOL0     C39839   8.097   7.589  -0.566 -0.5586 -0.4611 -0.2416
  296MOL0     C39840   7.967   7.648  -0.624 -0.2869 -0.0744  0.8203
  296MOL0     C39841   7.927   7.765  -0.536 -0.0231 -0.1805 -0.2328
  296MOL0     N39842   7.810   7.829  -0.585  0.1146 -0.3379 -0.1474
  296MOL0     C39843   7.782   7.879  -0.710  0.3537 -0.7844  0.2694
  296MOL0     C39844   7.661   7.943  -0.706  0.0479 -0.0023 -0.9457
  296MOL0     C39845   7.606   8.027  -0.815 -0.4145 -0.0150  0.3508
  296MOL0     C39846   7.557   7.957  -0.942 -0.3056 -0.1867 -0.7946
  296MOL0     C39847   7.484   7.829  -0.901  0.3656  0.4427  0.0178
  296MOL0     C39848   7.434   7.758  -1.028 -0.2440 -1.1583 -0.6466
  296MOL0     O39849   7.384   7.625  -1.012 -0.1908  0.5402 -0.0560
  296MOL0     C39850   7.251   7.601  -0.975  0.8267 -0.1770  0.3328
  296MOL0     C39851   7.154   7.707  -0.948 -0.8790 -0.4658  0.1086
  296MOL0     C39852   7.020   7.686  -0.922  0.4366  0.7487 -0.0967
  296MOL0     C39853   6.921   7.799  -0.896 -1.1219 -0.1353 -0.5775
  296MOL0     C39854   6.976   7.552  -0.922 -0.3653 -0.3313 -0.6691
  296MOL0     C39855   6.838   7.507  -0.887  1.0087 -1.2994  1.0354
  296MOL0     O39856   6.831   7.413  -0.793  0.0413  0.2432 -0.3305
  296MOL0     C39857   6.707   7.346  -0.775 -0.0140 -0.2620  0.5184
  296MOL0     C39858   6.589   7.409  -0.716 -0.5740  0.4460 -0.5573
  296MOL0     C39859   6.470   7.331  -0.694  0.7311 -0.0077  1.1011
  296MOL0     C39860   6.468   7.194  -0.716  0.5769  0.7130  0.5677
  296MOL0     O39861   6.360   7.112  -0.692 -0.2271 -1.1294 -0.3774
  296MOL0     C39862   6.240   7.177  -0.652 -0.2249  0.4690 -0.7749
  296MOL0     C39863   6.143   7.061  -0.622  0.3664 -0.4300 -0.2026
  296MOL0     C39864   6.006   7.111  -0.570 -0.0902  0.0425  0.5178
  296MOL0     C39865   5.927   6.985  -0.508  0.0126 -0.7047  0.2178
  296MOL0     C39866   5.788   7.024  -0.464  0.4790 -1.5823 -0.6536
  296MOL0     C39867   5.704   6.904  -0.415  0.4656 -0.9253 -0.0294
  296MOL0     C39868   5.556   6.960  -0.387 -0.2663  0.3153  0.2295
  296MOL0     C39869   5.452   6.849  -0.379 -0.2718 -0.6193  0.4092
  296MOL0    Cl39870   5.481   6.739  -0.247  0.1753  0.0570  0.0323
  296MOL0     C39871   6.585   7.133  -0.760 -0.3150  0.8611 -1.1328
  296MOL0     C39872   6.697   7.209  -0.794  0.5761 -0.5897  0.2723
  296MOL0     O39873   6.740   7.559  -0.945  0.3926  0.0840  0.7544
  296MOL0     C39874   7.069   7.451  -0.949 -0.0399 -0.0922  0.1318
  296MOL0     C39875   7.202   7.476  -0.963 -0.5118  0.7045 -0.0550
  296MOL0     N39876   7.612   7.935  -0.582 -0.2487 -0.0216  0.7875
  296MOL0     N39877   7.702   7.872  -0.513  0.4948  0.5947 -0.8377
  296MOL0     C39878   8.214   6.988  -0.067 -0.4503  0.6137  0.3001
  296MOL0     C39879   8.157   6.951   0.061 -0.8257 -0.0725  0.5574
  296MOL0     C39880   7.928   7.063   0.424  0.2022  0.0295  0.2389
  296MOL0     C39881   7.944   6.948   0.510  0.3260  0.5314  0.0111
  296MOL0     C39882   7.865   6.921   0.619 -0.0825  0.8701  0.0776
  296MOL0     C39883   7.762   7.007   0.655 -0.4356  0.5815  0.6214
  296MOL0     O39884   7.687   6.974   0.764  0.2808  0.3533  0.2950
  296MOL0     C39885   7.560   7.032   0.791 -0.1280  0.5700 -0.1312
  296MOL0     C39886   7.559   7.121   0.910 -0.2491  0.7556  0.1487
  296MOL0     C39887   7.667   7.225   0.890 -0.2781  0.0711  0.0288
  296MOL0     C39888   7.658   7.328   1.004  0.1730 -0.4099  0.1651
  296MOL0     C39889   7.539   7.419   0.990  0.2280 -0.7270 -0.0847
  296MOL0     C39890   7.437   7.485   0.979 -0.1197 -0.6887  0.1061
  296MOL0     C39891   7.758   7.130   0.580  0.4408 -0.5671 -0.6846
  296MOL0     C39892   7.835   7.157   0.469 -0.5790 -0.1454  0.2806
  296MOL0     H39893   8.279   7.227   0.228  2.3559 -1.3379  0.8611
  296MOL0     H39894   8.365   7.279   0.018  1.3783  0.2650  1.9074
  296MOL0     H39895   8.272   7.016  -0.338  2.5366 -0.5274  1.3923
  296MOL0     H39896   8.168   7.159  -0.287  1.1966  2.6974 -1.0570
  296MOL0     H39897   8.399   7.271  -0.393  0.4694 -1.9464 -1.1302
  296MOL0     H39898   8.358   7.157  -0.509 -2.1216 -2.9733  0.5997
  296MOL0     H39899   8.120   7.252  -0.515  0.2881  0.7477  1.0129
  296MOL0     H39900   8.161   7.373  -0.398 -1.5276  0.9537  0.3025
  296MOL0     H39901   8.355   7.455  -0.533 -0.4403  1.7746 -1.4292
  296MOL0     H39902   8.316   7.337  -0.661  2.1031 -1.0131  1.2889
  296MOL0     H39903   8.187   7.524  -0.744  0.3853 -0.7510 -0.0807
  296MOL0     H39904   8.071   7.413  -0.678  1.5531 -2.5074 -1.9889
  296MOL0     H39905   8.076   7.560  -0.463  1.1340 -1.9403 -0.2536
  296MOL0     H39906   8.169   7.670  -0.554  1.6147 -2.1234 -1.3457
  296MOL0     H39907   7.975   7.677  -0.730  0.5008 -3.2274 -0.0980
  296MOL0     H39908   7.890   7.570  -0.621 -0.6328  0.2365  0.1392
  296MOL0     H39909   8.008   7.835  -0.515 -1.0775  1.3418 -1.0882
  296MOL0     H39910   7.898   7.708  -0.447 -0.7514  0.8898  0.2386
  296MOL0     H39911   7.847   7.879  -0.797  0.3074 -0.2869  0.2344
  296MOL0     H39912   7.525   8.082  -0.767 -0.9985 -0.2280 -0.3798
  296MOL0     H39913   7.683   8.100  -0.844  1.8934 -2.2969  0.4449
  296MOL0     H39914   7.646   7.929  -0.998  0.4340 -3.0804  1.5546
  296MOL0     H39915   7.508   8.022  -1.015  1.9356  0.5419 -1.7440
  296MOL0     H39916   7.401   7.852  -0.833 -0.2115  1.7383 -1.0863
  296MOL0     H39917   7.546   7.755  -0.850  0.0817 -0.1412 -0.4668
  296MOL0     H39918   7.521   7.747  -1.093 -1.5339 -0.4181 -2.5801
  296MOL0     H39919   7.367   7.819  -1.090  1.4313  0.7282 -0.7210
  296MOL0     H39920   7.191   7.809  -0.952  0.0010 -0.6598  1.9114
  296MOL0     H39921   6.969   7.873  -0.831 -0.9778  0.2229 -1.0765
  296MOL0     H39922   6.906   7.862  -0.984 -1.0437  0.4545 -0.1740
  296MOL0     H39923   6.825   7.776  -0.849 -0.2263  1.4398  2.2992
  296MOL0     H39924   6.592   7.517  -0.707 -0.6058  0.4705 -0.8321
  296MOL0     H39925   6.382   7.388  -0.667  0.8874 -0.7225  3.3633
  296MOL0     H39926   6.258   7.233  -0.560 -0.6605  1.9540 -1.5571
  296MOL0     H39927   6.200   7.240  -0.731 -1.9265  0.1888 -0.1702
  296MOL0     H39928   6.118   7.004  -0.713 -1.3829 -1.3359  0.8043
  296MOL0     H39929   6.197   7.000  -0.549 -1.3410  1.2548  2.5909
  296MOL0     H39930   5.958   7.163  -0.653 -0.3152 -2.2220 -0.8748
  296MOL0     H39931   6.024   7.185  -0.492  2.2862  0.0928 -0.0243
  296MOL0     H39932   5.922   6.904  -0.581 -0.6230  1.0234 -1.7395
  296MOL0     H39933   5.978   6.951  -0.417 -0.0194  2.4244  1.5116
  296MOL0     H39934   5.742   7.064  -0.555  1.8865  0.2185 -0.6167
  296MOL0     H39935   5.801   7.109  -0.397 -0.8704  0.1811 -2.4777
  296MOL0     H39936   5.707   6.820  -0.485 -0.7162  0.1598 -1.4788
  296MOL0     H39937   5.745   6.859  -0.325 -0.1453 -1.8723 -0.2137
  296MOL0     H39938   5.534   7.036  -0.462  1.0021 -0.3228 -0.8211
  296MOL0     H39939   5.558   7.008  -0.289  1.8545  0.9999 -0.1057
  296MOL0     H39940   5.432   6.802  -0.476 -1.2719  0.4724  0.0661
  296MOL0     H39941   5.358   6.897  -0.352  0.3126  1.2252 -0.6728
  296MOL0     H39942   6.568   7.033  -0.799 -0.2735  0.2782  0.2813
  296MOL0     H39943   6.783   7.166  -0.844  1.2694 -0.8971  1.6802
  296MOL0     H39944   7.029   7.351  -0.941  2.0362 -0.8039  4.0824
  296MOL0     H39945   7.269   7.392  -0.977 -1.8748 -0.5656  0.7264
  296MOL0     H39946   8.189   6.932  -0.156  1.5184 -0.0622  0.1406
  296MOL0     H39947   8.095   6.863   0.079 -2.2042  1.1052  1.8164
  296MOL0     H39948   8.029   6.887   0.482  1.4321  2.7911 -1.8791
  296MOL0     H39949   7.896   6.838   0.681  2.8974  1.7056 -0.1396
  296MOL0     H39950   7.534   7.087   0.700 -1.2992 -0.0679 -0.2010
  296MOL0     H39951   7.486   6.951   0.795  1.9272 -1.4514 -0.8735
  296MOL0     H39952   7.574   7.062   1.001  0.3545 -0.4731 -0.7015
  296MOL0     H39953   7.460   7.167   0.914 -0.8971 -0.6140  0.4380
  296MOL0     H39954   7.649   7.271   0.792  0.9675 -1.8789 -1.1836
  296MOL0     H39955   7.763   7.173   0.892 -0.0883  0.4397  0.9893
  296MOL0     H39956   7.751   7.385   1.003 -1.8084  3.1550 -2.5002
  296MOL0     H39957   7.647   7.273   1.098  1.7256  0.7038  1.0346
  296MOL0     H39958   7.359   7.558   0.969 -1.2721 -1.3512  3.2025
  296MOL0     H39959   7.692   7.208   0.617 -1.2032 -2.7214  1.2041
  296MOL0     H39960   7.817   7.253   0.423 -0.8544 -0.1454  0.3830
  297MOL0     O39961   6.137   3.046   4.011  0.1048  0.3105 -0.4600
  297MOL0     C39962   6.214   2.955   3.999 -1.0796  0.1697 -0.4692
  297MOL0     O39963   6.196   2.826   4.045 -0.4384  0.0959  0.3870
  297MOL0     C39964   6.075   2.793   4.098 -0.2493 -0.0435 -0.9645
  297MOL0     C39965   5.999   2.877   4.180 -0.4433 -0.3701 -0.2753
  297MOL0     C39966   5.883   2.831   4.243 -0.3562  0.3044  0.4274
  297MOL0     C39967   5.830   2.708   4.214 -0.3330 -0.4548  0.0439
  297MOL0     O39968   5.704   2.652   4.247 -0.1613  0.3484  0.0133
  297MOL0     C39969   5.630   2.727   4.344  0.0300  0.1435  0.3164
  297MOL0     C39970   5.516   2.650   4.392  0.6136 -0.6255 -0.0249
  297MOL0     C39971   5.438   2.718   4.508 -0.2136  0.6084 -1.2264
  297MOL0     C39972   5.354   2.613   4.593 -0.5089 -0.2266  0.6912
  297MOL0     C39973   5.304   2.679   4.724 -0.0972  0.2282  0.3327
  297MOL0     C39974   5.250   2.586   4.825 -0.9355  0.6359  0.6466
  297MOL0     C39975   5.358   2.493   4.887 -0.2092 -0.1850  0.2749
  297MOL0     C39976   5.318   2.455   5.030 -0.2099 -0.3957 -0.5059
  297MOL0     N39977   5.190   2.385   5.031  0.0955  0.5486 -0.4603
  297MOL0     C39978   5.175   2.249   5.017 -0.5608  0.0315 -0.3879
  297MOL0     C39979   5.044   2.225   5.003 -0.3493 -0.4793  0.0319
  297MOL0     C39980   4.993   2.081   4.980 -0.5743 -0.0086  0.7544
  297MOL0     C39981   4.846   2.051   5.011 -0.7703 -0.1786 -0.2540
  297MOL0     C39982   4.795   1.911   4.965  0.4061  0.3337  0.2737
  297MOL0     C39983   4.648   1.874   4.994  0.0666  0.0708  0.3437
  297MOL0     O39984   4.548   1.978   4.984  0.1439 -0.4721  0.1853
  297MOL0     C39985   4.416   1.942   4.950 -0.7133  0.3540 -0.7785
  297MOL0     C39986   4.364   1.810   4.968  0.6088  0.9423  0.6278
  297MOL0     C39987   4.233   1.770   4.925 -1.3499 -0.2612  0.1643
  297MOL0     C39988   4.196   1.624   4.950  0.1253  0.5569 -0.0206
  297MOL0     C39989   4.148   1.873   4.873 -0.2578  0.3068  0.2793
  297MOL0     C39990   4.004   1.860   4.827  0.1148  0.1926 -0.7801
  297MOL0     O39991   3.958   1.956   4.747  0.4510  0.0317  0.4891
  297MOL0     C39992   3.841   1.933   4.673 -0.1119 -0.0482 -0.2347
  297MOL0     C39993   3.846   1.861   4.551  0.2185  0.4994  0.0419
  297MOL0     C39994   3.730   1.829   4.482  0.0519 -0.1869  0.1345
  297MOL0     C39995   3.596   1.866   4.531 -0.3330  0.0555 -0.2268
  297MOL0     O39996   3.479   1.861   4.468 -0.1275  0.5124  0.4279
  297MOL0     C39997   3.472   1.824   4.326  0.0943 -0.8128 -0.5645
  297MOL0     C39998   3.343   1.886   4.274 -0.1789  0.4783 -0.0865
  297MOL0     C39999   3.223   1.812   4.332  0.2289  0.0682 -1.2185
  297MOL0     C40000   3.090   1.864   4.277  0.2496  0.6605 -0.7769
  297MOL0     C40001   2.975   1.803   4.342 -0.9110  0.2770 -0.5250
  297MOL0     C40002   2.851   1.878   4.309 -0.1273 -0.0919 -1.0443
  297MOL0     C40003   2.787   1.846   4.176 -0.4954 -0.1113  0.6541
  297MOL0     C40004   2.732   1.973   4.118  0.0318 -0.0521  0.4304
  297MOL0    Cl40005   2.622   2.055   4.239 -0.4694 -0.0118  0.4231
  297MOL0     C40006   3.601   1.928   4.657  0.0659 -0.3675  0.5756
  297MOL0     C40007   3.717   1.966   4.719 -0.4635 -0.3052 -0.4071
  297MOL0     O40008   3.950   1.753   4.851 -0.2020 -0.6290 -0.3638
  297MOL0     C40009   4.204   1.995   4.849  0.3804  0.2764 -0.6034
  297MOL0     C40010   4.336   2.029   4.883  0.4218  0.3294  0.1513
  297MOL0     N40011   4.982   2.344   5.036  0.3192 -0.0444  0.6270
  297MOL0     N40012   5.069   2.438   5.038  0.5051 -0.5213  0.2682
  297MOL0     C40013   5.913   2.626   4.133 -0.4962 -0.5160 -0.2067
  297MOL0     C40014   6.035   2.664   4.079  1.2368 -0.0546 -0.3103
  297MOL0     C40015   6.336   2.970   3.913  0.2421 -0.1305  0.0523
  297MOL0     C40016   6.408   2.860   3.872 -0.7316  0.4275 -0.0313
  297MOL0     C40017   6.528   2.869   3.798  0.1178  0.1120  0.0685
  297MOL0     C40018   6.567   2.993   3.741 -0.6291  0.2411  0.1037
  297MOL0     O40019   6.655   3.012   3.642 -0.4597  0.3765 -0.2143
  297MOL0     C40020   6.711   2.906   3.575  0.3453  0.3138  0.3614
  297MOL0     C40021   6.840   2.862   3.643 -0.3267 -0.5263  0.2287
  297MOL0     C40022   6.956   2.964   3.634 -0.3899  0.5497 -0.1903
  297MOL0     C40023   7.084   2.916   3.698  0.0758 -1.1247  0.9646
  297MOL0     C40024   7.190   3.003   3.648  0.9714  0.2994 -0.3255
  297MOL0     C40025   7.275   3.071   3.608  0.4807 -0.9883 -1.2480
  297MOL0     C40026   6.497   3.105   3.786  0.4062  0.1354 -0.3757
  297MOL0     C40027   6.381   3.095   3.868  0.0068  0.0270  0.5980
  297MOL0     H40028   6.044   2.973   4.204  0.3089 -0.2190 -2.1296
  297MOL0     H40029   5.824   2.894   4.309  0.5740  1.8884 -0.2033
  297MOL0     H40030   5.696   2.748   4.428  1.8906 -1.2942 -0.7283
  297MOL0     H40031   5.592   2.815   4.291  0.3141 -0.1349 -0.3591
  297MOL0     H40032   5.447   2.642   4.307 -0.5392 -1.1503  0.9295
  297MOL0     H40033   5.544   2.548   4.421 -0.1298 -0.0127  3.2466
  297MOL0     H40034   5.510   2.766   4.574 -0.6186 -2.3355  1.5838
  297MOL0     H40035   5.365   2.796   4.482 -2.6017 -0.2784  2.0641
  297MOL0     H40036   5.269   2.579   4.533 -0.7362  1.7320 -0.1606
  297MOL0     H40037   5.424   2.531   4.610  0.9930  0.6241 -0.9973
  297MOL0     H40038   5.389   2.737   4.761  2.7801 -2.4008 -1.6655
  297MOL0     H40039   5.230   2.747   4.680  1.3627 -0.0606 -2.8716
  297MOL0     H40040   5.195   2.632   4.907 -1.2538 -0.5085  1.1000
  297MOL0     H40041   5.169   2.528   4.779  0.8383 -1.2903 -0.1635
  297MOL0     H40042   5.373   2.402   4.827  0.5831 -1.7996  2.7347
  297MOL0     H40043   5.459   2.536   4.893 -0.9088  1.7196 -1.0295
  297MOL0     H40044   5.311   2.551   5.082 -2.2000 -0.0935 -1.2064
  297MOL0     H40045   5.392   2.385   5.067  0.6739  0.9242  0.3259
  297MOL0     H40046   5.256   2.176   5.013  0.3086  0.9863 -0.6586
  297MOL0     H40047   5.014   2.063   4.874  3.5379  0.6139  1.3104
  297MOL0     H40048   5.040   2.004   5.042 -2.4435 -2.6328 -0.8528
  297MOL0     H40049   4.787   2.134   4.970 -2.3193 -0.9267  0.3679
  297MOL0     H40050   4.846   2.063   5.120  1.1919  0.9603 -0.3250
  297MOL0     H40051   4.852   1.834   5.018  1.1875  0.0084 -1.0011
  297MOL0     H40052   4.809   1.905   4.856  0.1343  1.3500  0.1684
  297MOL0     H40053   4.645   1.826   5.092  0.9801 -3.7271 -1.2650
  297MOL0     H40054   4.617   1.796   4.923 -2.5637  2.0268 -0.8092
  297MOL0     H40055   4.431   1.731   5.003  1.2860  0.1163 -2.3187
  297MOL0     H40056   4.269   1.560   5.002 -0.8671 -0.4671  0.1563
  297MOL0     H40057   4.110   1.620   5.018  1.2461  0.0852  1.4231
  297MOL0     H40058   4.177   1.566   4.859  0.5102 -2.3293  1.5945
  297MOL0     H40059   3.940   1.828   4.506 -1.1826 -0.8961 -2.0852
  297MOL0     H40060   3.735   1.767   4.393  0.6714 -2.0863  1.4106
  297MOL0     H40061   3.557   1.868   4.272  0.1064 -0.8582 -0.5822
  297MOL0     H40062   3.479   1.716   4.308 -2.8795 -0.9515 -1.3623
  297MOL0     H40063   3.333   1.990   4.307  2.5691  0.8746 -0.3123
  297MOL0     H40064   3.350   1.880   4.165  3.0865  1.5929 -0.0403
  297MOL0     H40065   3.237   1.825   4.440 -0.0849 -0.4135 -1.1166
  297MOL0     H40066   3.220   1.706   4.306  0.1709  0.6183 -3.7350
  297MOL0     H40067   3.076   1.973   4.270 -1.5301  0.5736  0.5939
  297MOL0     H40068   3.092   1.830   4.173  1.0763 -0.2073 -0.4831
  297MOL0     H40069   2.999   1.802   4.449 -1.4591 -1.6466 -0.3893
  297MOL0     H40070   2.966   1.701   4.304 -0.3454 -1.1795  2.8890
  297MOL0     H40071   2.774   1.861   4.384 -0.3096 -0.2806 -1.2742
  297MOL0     H40072   2.867   1.985   4.325 -1.0016 -0.2789  1.6230
  297MOL0     H40073   2.710   1.768   4.179 -1.8867  1.1348 -0.7776
  297MOL0     H40074   2.864   1.816   4.104 -0.5994  0.6473  0.2139
  297MOL0     H40075   2.674   1.939   4.031  1.1130  1.2526 -0.8517
  297MOL0     H40076   2.817   2.031   4.082  1.0455 -1.2360  0.8362
  297MOL0     H40077   3.510   1.967   4.699  1.4709  0.9117  2.5912
  297MOL0     H40078   3.725   2.008   4.818  2.3080 -1.1386 -0.1959
  297MOL0     H40079   4.156   2.079   4.798  1.2989  1.1060 -0.1409
  297MOL0     H40080   4.362   2.133   4.869  0.9630 -0.1978 -4.2418
  297MOL0     H40081   5.880   2.528   4.101  1.1478 -1.3248  0.4623
  297MOL0     H40082   6.092   2.596   4.017  4.5921  0.8721  1.5128
  297MOL0     H40083   6.385   2.756   3.892 -1.2491  0.6084  0.3215
  297MOL0     H40084   6.569   2.770   3.776  1.3018  0.8937 -1.4384
  297MOL0     H40085   6.635   2.829   3.563 -2.4127  2.6745  1.5550
  297MOL0     H40086   6.732   2.942   3.474  2.1990 -1.7135 -0.0566
  297MOL0     H40087   6.875   2.774   3.588  0.7393 -0.9926  1.5926
  297MOL0     H40088   6.819   2.818   3.740  0.5470  0.0842  0.7178
  297MOL0     H40089   6.927   3.058   3.682 -0.5216  0.8923 -0.9319
  297MOL0     H40090   6.968   2.990   3.528  2.3890 -0.8222 -0.3072
  297MOL0     H40091   7.113   2.814   3.671  2.1658  0.4929 -3.8798
  297MOL0     H40092   7.078   2.916   3.807 -3.7137 -0.7707  0.8865
  297MOL0     H40093   7.353   3.132   3.566 -0.7822  0.3302 -1.7441
  297MOL0     H40094   6.527   3.200   3.744  1.7295 -1.0141 -2.1685
  297MOL0     H40095   6.335   3.192   3.889  3.5297  2.1621 -0.6890
  298MOL0     O40096   9.311   7.694   8.084  0.3994  0.2911  0.3701
  298MOL0     C40097   9.353   7.698   8.197 -0.6478 -0.6881 -0.4133
  298MOL0     O40098   9.275   7.733   8.308  0.3389  0.0908 -0.1247
  298MOL0     C40099   9.136   7.759   8.305 -0.4223 -0.0330 -0.4139
  298MOL0     C40100   9.064   7.799   8.195 -0.7865  0.1138  0.2987
  298MOL0     C40101   8.924   7.829   8.203  0.0245 -0.7405  0.3377
  298MOL0     C40102   8.855   7.820   8.320 -0.9018 -0.5897  0.2477
  298MOL0     O40103   8.726   7.846   8.313 -0.2199  0.3958  1.0809
  298MOL0     C40104   8.661   7.881   8.427  0.3581  0.0811 -0.1447
  298MOL0     C40105   8.513   7.928   8.392  1.0636  0.5821  0.1612
  298MOL0     C40106   8.425   7.816   8.326 -0.3238 -0.0918 -0.1778
  298MOL0     C40107   8.281   7.836   8.362  0.1610  0.2362 -0.7647
  298MOL0     C40108   8.188   7.744   8.286 -0.6316  0.4019  0.4223
  298MOL0     C40109   8.047   7.781   8.334  0.3064 -0.1119 -0.5908
  298MOL0     C40110   7.939   7.695   8.259 -0.7069  0.4683  0.3985
  298MOL0     C40111   7.808   7.719   8.328 -0.2367 -0.6479  0.1499
  298MOL0     N40112   7.703   7.654   8.244  1.0647 -0.1499  0.3335
  298MOL0     C40113   7.605   7.565   8.283 -0.3074 -0.6052  0.6484
  298MOL0     C40114   7.513   7.557   8.189  0.8720 -1.3186 -0.2206
  298MOL0     C40115   7.381   7.500   8.188  0.2987  0.0327  0.3956
  298MOL0     C40116   7.276   7.601   8.220 -1.0081 -0.0846 -0.5283
  298MOL0     C40117   7.140   7.534   8.215  0.1612  0.5042  0.4876
  298MOL0     C40118   7.044   7.639   8.265  0.2382  0.2436  0.1534
  298MOL0     O40119   6.963   7.572   8.361 -0.0082  0.1230  0.0877
  298MOL0     C40120   6.836   7.619   8.375 -0.5859  0.8383 -0.1926
  298MOL0     C40121   6.766   7.566   8.482  0.0540  0.5922 -0.1823
  298MOL0     C40122   6.630   7.598   8.505  0.0857  0.6863  0.1829
  298MOL0     C40123   6.564   7.511   8.604  0.2726 -0.0602  0.4619
  298MOL0     C40124   6.557   7.688   8.420  0.2855  0.9289  0.0320
  298MOL0     C40125   6.413   7.731   8.439 -0.4237 -0.3906 -0.0794
  298MOL0     O40126   6.371   7.810   8.337  0.2572  0.3266  0.2148
  298MOL0     C40127   6.244   7.853   8.337 -0.3068  0.3741 -0.3716
  298MOL0     C40128   6.193   7.868   8.208  0.1326  0.3672 -0.2593
  298MOL0     C40129   6.061   7.919   8.192 -0.3547 -0.2939 -0.1607
  298MOL0     C40130   5.981   7.957   8.302 -0.1113 -0.0164  1.0274
  298MOL0     O40131   5.857   7.995   8.259  0.3532 -0.1751  0.2882
  298MOL0     C40132   5.748   7.955   8.345 -0.2547  0.2155 -0.6335
  298MOL0     C40133   5.651   7.856   8.275  0.5751 -0.0658 -0.3733
  298MOL0     C40134   5.546   7.817   8.374 -0.9018  0.1261  0.8087
  298MOL0     C40135   5.484   7.692   8.322  0.1785  0.5693 -0.0242
  298MOL0     C40136   5.338   7.672   8.366 -0.5244  0.4740 -0.7889
  298MOL0     C40137   5.249   7.754   8.284 -0.6716  0.6646  0.8447
  298MOL0     C40138   5.102   7.760   8.335  0.0092  0.2182 -0.5462
  298MOL0     C40139   5.028   7.888   8.279 -0.8738  0.4821  0.5514
  298MOL0    Cl40140   4.867   7.889   8.357  0.1644  0.5033  0.4405
  298MOL0     C40141   6.035   7.949   8.431  0.2036 -0.1859  0.2124
  298MOL0     C40142   6.167   7.897   8.451 -0.3030  0.2363  0.2436
  298MOL0     O40143   6.351   7.680   8.529  0.6978 -0.2868 -0.1512
  298MOL0     C40144   6.634   7.737   8.309  0.2325  0.0600 -1.6202
  298MOL0     C40145   6.766   7.707   8.300 -0.4903  0.1476  0.1316
  298MOL0     N40146   7.551   7.649   8.088  0.1627 -0.2752  0.0323
  298MOL0     N40147   7.660   7.709   8.126 -0.2587  0.0177  0.3716
  298MOL0     C40148   8.927   7.786   8.431  0.4248 -0.5231  0.2627
  298MOL0     C40149   9.069   7.753   8.425  0.5366  0.4746  0.2813
  298MOL0     C40150   9.497   7.667   8.209  1.0252  0.8897  0.5403
  298MOL0     C40151   9.579   7.658   8.093  0.3690  0.2064 -0.3048
  298MOL0     C40152   9.715   7.633   8.107 -0.5867 -0.1500 -0.3910
  298MOL0     C40153   9.781   7.620   8.232 -0.2372 -0.0562 -0.3690
  298MOL0     O40154   9.906   7.566   8.231 -0.8401  0.3459  0.1621
  298MOL0     C40155   9.985   7.569   8.345 -0.7660 -0.1491  0.3611
  298MOL0     C40156  10.125   7.571   8.291 -0.1737  0.0677 -0.6725
  298MOL0     C40157  10.237   7.568   8.401  0.9953 -0.0982  0.2763
  298MOL0     C40158  10.373   7.585   8.346 -1.0928 -0.0989  0.3246
  298MOL0     C40159  10.470   7.571   8.457  0.3947 -0.6144 -0.7943
  298MOL0     C40160  10.570   7.568   8.532 -0.6682 -0.2880  0.5666
  298MOL0     C40161   9.697   7.635   8.345  0.8702 -0.3716 -0.1018
  298MOL0     C40162   9.555   7.644   8.333  1.0223 -1.1331  0.0623
  298MOL0     H40163   9.109   7.810   8.097  1.2900  1.2962  1.3179
  298MOL0     H40164   8.873   7.866   8.114 -0.1342 -1.2966  0.1931
  298MOL0     H40165   8.654   7.794   8.493 -0.3998  1.5450  1.7658
  298MOL0     H40166   8.714   7.959   8.483 -0.2141  0.8582 -0.6660
  298MOL0     H40167   8.458   7.966   8.480 -2.9951 -2.6439 -0.6580
  298MOL0     H40168   8.523   8.010   8.321  1.2754 -1.0925 -1.8254
  298MOL0     H40169   8.436   7.825   8.217 -0.5186 -0.0762 -0.1977
  298MOL0     H40170   8.459   7.718   8.361 -2.7597  0.0337  2.9385
  298MOL0     H40171   8.270   7.816   8.469 -1.3916 -1.7893 -1.2384
  298MOL0     H40172   8.244   7.937   8.345 -1.6730 -0.4472 -1.0225
  298MOL0     H40173   8.203   7.761   8.179  1.8719 -0.0322  0.6412
  298MOL0     H40174   8.212   7.645   8.325 -0.3162  0.7349  1.1026
  298MOL0     H40175   8.040   7.770   8.443  1.7651 -1.4744 -0.5956
  298MOL0     H40176   8.021   7.885   8.312 -1.4127 -0.0677  1.3570
  298MOL0     H40177   7.923   7.717   8.153 -0.5555  4.5206  1.0546
  298MOL0     H40178   7.968   7.590   8.268  0.4434  0.9291  2.9166
  298MOL0     H40179   7.786   7.825   8.344  0.4670 -0.7009  1.7256
  298MOL0     H40180   7.808   7.671   8.427  3.5040 -0.1469  0.5711
  298MOL0     H40181   7.604   7.506   8.374 -0.8228 -1.5934  0.0195
  298MOL0     H40182   7.364   7.451   8.092  0.6376 -0.8156  0.7556
  298MOL0     H40183   7.378   7.428   8.270  1.2398 -2.1140 -1.3520
  298MOL0     H40184   7.281   7.687   8.153  1.3606 -1.2833 -2.0159
  298MOL0     H40185   7.302   7.631   8.321  3.5532 -0.5244 -1.3720
  298MOL0     H40186   7.157   7.441   8.270  2.5189  0.1093 -0.7903
  298MOL0     H40187   7.111   7.505   8.114  1.4136 -1.6755  0.7078
  298MOL0     H40188   6.995   7.685   8.179  2.2213  2.4825  0.1155
  298MOL0     H40189   7.096   7.713   8.326  1.9315 -1.0679  0.3957
  298MOL0     H40190   6.809   7.490   8.546 -1.3724 -0.9400 -0.9916
  298MOL0     H40191   6.629   7.433   8.646 -2.9582 -1.7360  2.8325
  298MOL0     H40192   6.545   7.573   8.692 -0.6830 -0.3262  0.4509
  298MOL0     H40193   6.468   7.469   8.573  0.5727 -0.5482  0.1677
  298MOL0     H40194   6.248   7.846   8.117 -0.9150  0.1252 -0.8420
  298MOL0     H40195   6.022   7.929   8.091  1.3588  0.7067 -0.7478
  298MOL0     H40196   5.786   7.902   8.433 -1.4262 -0.6064 -0.5902
  298MOL0     H40197   5.705   8.051   8.374  0.4262  0.2786  0.1866
  298MOL0     H40198   5.611   7.915   8.192 -0.8791 -0.6173 -0.1032
  298MOL0     H40199   5.707   7.769   8.237  1.6868 -0.4610  1.9962
  298MOL0     H40200   5.476   7.900   8.380 -0.3394  0.7128 -0.3163
  298MOL0     H40201   5.590   7.799   8.472 -0.7065 -3.5293  0.1986
  298MOL0     H40202   5.494   7.684   8.213 -1.5812 -1.6021 -0.1024
  298MOL0     H40203   5.542   7.607   8.360 -0.5871  0.6718  1.4617
  298MOL0     H40204   5.336   7.705   8.470 -0.6785 -1.3233 -0.1891
  298MOL0     H40205   5.314   7.565   8.366 -2.7573  0.9002  0.9276
  298MOL0     H40206   5.295   7.853   8.279  1.3995 -0.2724  0.1262
  298MOL0     H40207   5.250   7.710   8.184  0.5227 -0.8913  1.5089
  298MOL0     H40208   5.110   7.773   8.444  0.2418 -0.7118 -0.4455
  298MOL0     H40209   5.054   7.668   8.300  1.2867 -1.0685  0.8971
  298MOL0     H40210   5.015   7.875   8.171 -0.3350 -1.9531  0.7230
  298MOL0     H40211   5.090   7.977   8.293 -2.8868  1.6304  2.8023
  298MOL0     H40212   5.968   7.976   8.512 -2.0194  1.7044 -2.0943
  298MOL0     H40213   6.207   7.902   8.552 -2.2424 -0.5167  1.1001
  298MOL0     H40214   6.599   7.820   8.248  1.9136 -0.1289 -2.9039
  298MOL0     H40215   6.809   7.760   8.216  0.4183 -0.3192  0.2951
  298MOL0     H40216   8.877   7.788   8.528  0.0398 -2.5568  0.1570
  298MOL0     H40217   9.120   7.724   8.516  1.8073  3.1170  0.4871
  298MOL0     H40218   9.532   7.660   7.995  1.6244  1.1152 -0.9086
  298MOL0     H40219   9.769   7.625   8.013 -2.9612  1.5477 -2.0212
  298MOL0     H40220   9.965   7.656   8.409 -0.1971  0.2131  0.0598
  298MOL0     H40221   9.961   7.475   8.395  2.4125 -2.5461 -2.1946
  298MOL0     H40222  10.133   7.660   8.227  2.6096  0.6066  0.2811
  298MOL0     H40223  10.142   7.486   8.225 -0.1332  0.6592 -1.4467
  298MOL0     H40224  10.232   7.475   8.458  0.8591  0.0409  0.4932
  298MOL0     H40225  10.213   7.649   8.471 -0.7943 -0.0312 -0.3720
  298MOL0     H40226  10.377   7.683   8.299  2.3847  0.9792  2.4809
  298MOL0     H40227  10.400   7.506   8.275 -0.3775  1.2587 -0.9637
  298MOL0     H40228  10.661   7.570   8.587  0.2427 -3.4427 -0.5952
  298MOL0     H40229   9.719   7.612   8.449 -0.9888  0.7879  0.5876
  298MOL0     H40230   9.493   7.642   8.423  2.1960 -0.4691  0.9116
  299MOL0     O40231   1.784   3.489   6.661  0.0936  0.1187  0.6838
  299MOL0     C40232   1.765   3.517   6.543 -0.6808  0.9413 -0.1363
  299MOL0     O40233   1.649   3.525   6.482 -0.2947 -0.3432 -0.6967
  299MOL0     C40234   1.545   3.569   6.557  0.2182  0.5491 -0.1612
  299MOL0     C40235   1.492   3.692   6.543  0.4266 -0.1390 -0.3892
  299MOL0     C40236   1.365   3.722   6.598 -0.5974  0.0462  0.0039
  299MOL0     C40237   1.291   3.627   6.668 -0.0955 -0.3679  0.1752
  299MOL0     O40238   1.167   3.641   6.723  0.1757  0.4230  0.0101
  299MOL0     C40239   1.060   3.668   6.633 -0.1400 -0.2735 -0.6753
  299MOL0     C40240   0.932   3.650   6.711 -0.4069 -0.5418  0.1791
  299MOL0     C40241   0.804   3.687   6.633  0.0266 -0.1705 -0.3730
  299MOL0     C40242   0.797   3.841   6.612  0.5700  0.0179 -0.6905
  299MOL0     C40243   0.657   3.886   6.585 -0.1214 -0.0946  0.2037
  299MOL0     C40244   0.598   3.805   6.466 -0.7224 -0.4794 -0.3118
  299MOL0     C40245   0.459   3.854   6.425 -0.6747 -0.4023 -0.0817
  299MOL0     C40246   0.350   3.830   6.534 -0.0129  0.2000 -0.4326
  299MOL0     N40247   0.219   3.838   6.464  0.1447  0.0782  0.8602
  299MOL0     C40248   0.146   3.735   6.412 -0.1998  0.3980 -0.0025
  299MOL0     C40249   0.039   3.791   6.352 -0.1182  0.3291 -0.5880
  299MOL0     C40250  -0.065   3.721   6.272  0.8620  0.6476 -0.5476
  299MOL0     C40251  -0.173   3.815   6.215 -1.3616 -0.5359  0.6817
  299MOL0     C40252  -0.265   3.733   6.120 -0.1975 -0.2036  1.1650
  299MOL0     C40253  -0.394   3.800   6.067 -0.3249 -0.2137 -0.1068
  299MOL0     O40254  -0.457   3.713   5.980 -1.0315  0.4558 -0.5409
  299MOL0     C40255  -0.587   3.737   5.958 -0.2738 -0.1577 -0.2864
  299MOL0     C40256  -0.661   3.631   5.912 -0.8450 -0.2271 -0.4446
  299MOL0     C40257  -0.798   3.638   5.879 -0.2781  0.1629  0.5095
  299MOL0     C40258  -0.841   3.508   5.812  0.4582  0.0278 -0.0839
  299MOL0     C40259  -0.867   3.760   5.902  0.3260  0.2088 -0.2386
  299MOL0     C40260  -1.019   3.779   5.890 -0.1270  0.0328  0.3025
  299MOL0     O40261  -1.060   3.902   5.918  0.2534 -0.4099 -0.5209
  299MOL0     C40262  -1.192   3.942   5.906  0.0718  0.6960 -0.4770
  299MOL0     C40263  -1.218   4.076   5.865  0.2625  0.3445  0.3960
  299MOL0     C40264  -1.349   4.120   5.859  0.4910  0.2251  0.6729
  299MOL0     C40265  -1.461   4.042   5.889 -0.2426  0.6948 -0.0323
  299MOL0     O40266  -1.590   4.064   5.856 -0.3153  0.1835 -0.0633
  299MOL0     C40267  -1.603   4.163   5.753 -0.5294 -0.0597  0.8844
  299MOL0     C40268  -1.754   4.170   5.709 -0.2384  0.2579 -0.5032
  299MOL0     C40269  -1.827   4.039   5.671  0.1517  0.3428  0.1514
  299MOL0     C40270  -1.979   4.072   5.647 -0.4891  0.5524  0.2079
  299MOL0     C40271  -2.065   3.974   5.559  0.5659  0.1918  0.3292
  299MOL0     C40272  -2.184   4.042   5.493 -0.1692  0.5067 -0.0005
  299MOL0     C40273  -2.271   3.930   5.433  0.1483  0.1649  0.3723
  299MOL0     C40274  -2.405   3.989   5.386  1.0385 -0.1316  0.3914
  299MOL0    Cl40275  -2.498   3.852   5.315  0.3712 -0.4369 -0.1387
  299MOL0     C40276  -1.429   3.908   5.931  0.3286  0.7022 -0.0779
  299MOL0     C40277  -1.301   3.857   5.931 -0.4487 -0.0141  0.5285
  299MOL0     O40278  -1.082   3.690   5.833 -0.2840 -0.2859  0.5024
  299MOL0     C40279  -0.795   3.862   5.968 -0.2523  0.2603  0.5348
  299MOL0     C40280  -0.655   3.851   5.984  0.2609  0.2561  0.4972
  299MOL0     N40281   0.046   3.930   6.370 -0.3902 -0.6487 -0.5280
  299MOL0     N40282   0.153   3.953   6.440  0.0659 -1.0331 -0.9265
  299MOL0     C40283   1.356   3.506   6.691  0.0783 -0.5901  0.5521
  299MOL0     C40284   1.478   3.472   6.630  0.5511 -0.3226  0.5552
  299MOL0     C40285   1.888   3.509   6.459  0.1468 -0.4696  0.1903
  299MOL0     C40286   1.884   3.526   6.314  0.0362 -0.2790  0.2371
  299MOL0     C40287   2.004   3.527   6.237  0.3165  0.2217  0.4912
  299MOL0     C40288   2.126   3.523   6.295 -1.0434 -0.1805  0.1311
  299MOL0     O40289   2.235   3.504   6.218  0.0693 -0.1315 -0.3464
  299MOL0     C40290   2.361   3.447   6.267  0.0942  0.1730 -0.3474
  299MOL0     C40291   2.450   3.393   6.155 -0.5841  0.4376  0.4515
  299MOL0     C40292   2.383   3.272   6.079  0.1433  0.1430 -0.1469
  299MOL0     C40293   2.363   3.140   6.170 -0.3011 -0.3477 -0.2525
  299MOL0     C40294   2.492   3.113   6.236  0.4325  0.1330  0.0255
  299MOL0     C40295   2.589   3.058   6.282 -0.1174 -0.4047  0.4141
  299MOL0     C40296   2.134   3.507   6.433 -0.1143  0.6817 -0.4367
  299MOL0     C40297   2.017   3.497   6.514  0.8394 -0.6193  0.3008
  299MOL0     H40298   1.552   3.767   6.493 -0.2398  1.3725  0.9872
  299MOL0     H40299   1.330   3.822   6.573 -0.2761 -0.0569 -0.9235
  299MOL0     H40300   1.079   3.763   6.582  1.7538 -0.7037 -0.8639
  299MOL0     H40301   1.058   3.593   6.554 -1.0081 -3.4565  2.1163
  299MOL0     H40302   0.923   3.546   6.745 -0.4320 -0.6447 -0.1406
  299MOL0     H40303   0.949   3.714   6.797  0.2031  0.7450 -0.8631
  299MOL0     H40304   0.806   3.631   6.540  1.1716  1.3875 -1.3453
  299MOL0     H40305   0.723   3.654   6.698  0.5953 -2.1873 -0.6246
  299MOL0     H40306   0.833   3.898   6.699  0.6297 -0.8836 -0.1102
  299MOL0     H40307   0.873   3.870   6.539  4.0724 -3.5319  1.1508
  299MOL0     H40308   0.594   3.863   6.671 -0.9450 -0.5626 -0.5183
  299MOL0     H40309   0.662   3.993   6.567  2.1849 -0.4600 -1.8971
  299MOL0     H40310   0.660   3.820   6.377  2.5640 -1.3539  1.6536
  299MOL0     H40311   0.589   3.698   6.485  3.7514 -1.4445 -2.3060
  299MOL0     H40312   0.470   3.963   6.417  1.8962 -0.7390 -3.8994
  299MOL0     H40313   0.440   3.804   6.330 -2.7636  0.4706 -0.1680
  299MOL0     H40314   0.345   3.904   6.615 -1.3509 -0.6258  0.2659
  299MOL0     H40315   0.355   3.732   6.581 -1.2811 -0.7225 -2.1346
  299MOL0     H40316   0.175   3.631   6.401  0.2897  0.3718  1.3900
  299MOL0     H40317  -0.020   3.661   6.192  0.9875 -1.3322  0.9229
  299MOL0     H40318  -0.118   3.650   6.336  1.0904 -0.3840 -1.4715
  299MOL0     H40319  -0.122   3.891   6.155 -4.1114  0.8023 -0.1521
  299MOL0     H40320  -0.233   3.872   6.286 -3.5441 -0.5540 -1.0454
  299MOL0     H40321  -0.290   3.639   6.170 -0.8014 -0.3085  0.6712
  299MOL0     H40322  -0.197   3.711   6.037 -0.5687  0.9901  0.5247
  299MOL0     H40323  -0.366   3.891   6.013  1.0614  0.6906  1.9674
  299MOL0     H40324  -0.452   3.826   6.156  0.4550  1.4471 -0.0365
  299MOL0     H40325  -0.612   3.535   5.900  1.1972  0.8830 -1.3799
  299MOL0     H40326  -0.814   3.426   5.879  0.9605 -1.1454 -1.6542
  299MOL0     H40327  -0.946   3.502   5.783  0.9691 -1.8058 -1.7885
  299MOL0     H40328  -0.789   3.499   5.716  1.3570 -0.0660  0.4039
  299MOL0     H40329  -1.135   4.143   5.847  1.4624 -1.4208 -0.8613
  299MOL0     H40330  -1.360   4.224   5.831  2.0221  0.0964 -0.4976
  299MOL0     H40331  -1.568   4.262   5.785 -1.1348  0.6277 -0.4816
  299MOL0     H40332  -1.541   4.133   5.669  0.0277  0.9848  0.9035
  299MOL0     H40333  -1.814   4.214   5.790  0.8510 -2.5661  2.0406
  299MOL0     H40334  -1.746   4.233   5.620  3.1102 -1.4426 -1.5608
  299MOL0     H40335  -1.814   3.970   5.754  0.4796  1.9987  1.5504
  299MOL0     H40336  -1.766   4.008   5.586  0.9997  0.3437  0.7481
  299MOL0     H40337  -2.029   4.098   5.741 -1.6258 -0.7274 -0.0239
  299MOL0     H40338  -1.975   4.164   5.587 -1.6406  0.3828 -0.1542
  299MOL0     H40339  -2.103   3.902   5.632  2.1253  0.2317  1.2386
  299MOL0     H40340  -2.004   3.921   5.485 -0.6290  3.7389 -3.5927
  299MOL0     H40341  -2.247   4.102   5.561 -2.2077  1.0307 -2.2171
  299MOL0     H40342  -2.149   4.113   5.418  2.0351  0.3629  0.8133
  299MOL0     H40343  -2.292   3.854   5.509  4.3898 -1.6158  0.0163
  299MOL0     H40344  -2.224   3.894   5.341 -0.3347  1.8100 -0.5676
  299MOL0     H40345  -2.380   4.062   5.309  2.0219  0.3570  1.1503
  299MOL0     H40346  -2.448   4.047   5.468  2.1701  0.3625  0.6653
  299MOL0     H40347  -1.510   3.848   5.973  0.7460 -0.2331 -0.5779
  299MOL0     H40348  -1.282   3.752   5.954  2.2633  0.2288 -0.2278
  299MOL0     H40349  -0.838   3.954   6.007  0.0226  0.7693 -0.3471
  299MOL0     H40350  -0.603   3.939   6.021  1.4838  1.5041 -3.6138
  299MOL0     H40351   1.301   3.438   6.755 -3.5243  3.1735  1.9222
  299MOL0     H40352   1.528   3.377   6.645  1.9003  0.4076  0.7644
  299MOL0     H40353   1.795   3.526   6.251 -0.4856 -1.3499  0.9503
  299MOL0     H40354   1.990   3.541   6.130 -1.4275  0.2898  0.6935
  299MOL0     H40355   2.415   3.513   6.335  2.1055  0.7450 -2.3894
  299MOL0     H40356   2.339   3.357   6.327  3.3989 -0.4439  0.1587
  299MOL0     H40357   2.556   3.378   6.177 -0.4521 -1.9765 -1.3760
  299MOL0     H40358   2.448   3.476   6.084  0.6565 -0.9439 -1.3092
  299MOL0     H40359   2.454   3.238   6.002  0.8104  2.3360 -0.5505
  299MOL0     H40360   2.290   3.289   6.024 -0.1930 -1.9946 -0.3291
  299MOL0     H40361   2.332   3.062   6.100 -1.5422  0.7229 -0.9452
  299MOL0     H40362   2.283   3.160   6.241 -2.0387  0.9255 -2.4069
  299MOL0     H40363   2.679   3.013   6.320  0.0718  1.2477  2.0498
  299MOL0     H40364   2.227   3.502   6.488 -1.5708  0.2551  2.1238
  299MOL0     H40365   2.029   3.487   6.622  0.3524 -0.3812  0.3789
  300MOL0     O40366   9.010   4.333  10.310 -0.6028 -0.1329 -0.3472
  300MOL0     C40367   9.072   4.268  10.229  0.1715  0.3251  0.4776
  300MOL0     O40368   9.018   4.177  10.134  0.1140  0.0682 -0.0559
  300MOL0     C40369   8.880   4.178  10.140  0.1901 -0.1033 -0.4815
  300MOL0     C40370   8.806   4.299  10.105 -0.2450  0.0327  0.6195
  300MOL0     C40371   8.661   4.298  10.088 -0.6440 -0.3068  0.4005
  300MOL0     C40372   8.597   4.176  10.104  0.1702  0.5878 -0.1817
  300MOL0     O40373   8.457   4.156  10.075 -0.3171 -0.2313  0.8677
  300MOL0     C40374   8.412   4.224   9.960 -0.7417  0.4401  0.3717
  300MOL0     C40375   8.273   4.161   9.928 -0.2568  0.5193 -0.2110
  300MOL0     C40376   8.162   4.186  10.030  0.2838  0.5888  0.4928
  300MOL0     C40377   8.022   4.161   9.974 -1.0280  0.4403  0.5205
  300MOL0     C40378   7.923   4.185  10.088  0.6128  0.7584  0.0543
  300MOL0     C40379   7.776   4.172  10.031  0.3152  0.6595 -0.2722
  300MOL0     C40380   7.659   4.173  10.131 -0.5337 -0.0910 -0.4870
  300MOL0     C40381   7.523   4.190  10.067  0.6375 -0.7283  0.3526
  300MOL0     N40382   7.409   4.185  10.164 -0.1060  0.5727  0.5938
  300MOL0     C40383   7.346   4.070  10.199 -0.0046  0.2897 -0.6448
  300MOL0     C40384   7.231   4.108  10.253 -0.1121  0.4757  0.2991
  300MOL0     C40385   7.129   4.010  10.317 -0.5683 -0.2461  0.1260
  300MOL0     C40386   6.997   4.074  10.340 -0.4331 -0.7415  0.1342
  300MOL0     C40387   7.009   4.178  10.455 -0.0999 -0.4473  0.1499
  300MOL0     C40388   6.880   4.208  10.511 -0.1095 -0.1616 -0.9845
  300MOL0     O40389   6.909   4.275  10.639  0.1888  0.7860  0.5181
  300MOL0     C40390   6.804   4.342  10.699  0.3922 -0.1573  0.3839
  300MOL0     C40391   6.707   4.413  10.637 -0.1231 -0.7533 -0.0597
  300MOL0     C40392   6.596   4.462  10.710  0.4409 -0.0078 -0.0571
  300MOL0     C40393   6.513   4.565  10.637  0.8125 -0.4952 -0.2468
  300MOL0     C40394   6.583   4.427  10.847 -0.2731  0.3082 -0.1750
  300MOL0     C40395   6.477   4.486  10.929  0.9522 -1.2657 -0.5079
  300MOL0     O40396   6.351   4.486  10.865 -0.7154  0.4110  0.8988
  300MOL0     C40397   6.240   4.523  10.930  0.1920 -0.0103 -0.0792
  300MOL0     C40398   6.122   4.454  10.901  0.4511 -0.2413 -0.3562
  300MOL0     C40399   5.994   4.484  10.954 -0.8498  0.4898  0.6264
  300MOL0     C40400   5.986   4.582  11.050  0.4222 -0.1794  0.1098
  300MOL0     O40401   5.868   4.617  11.114 -0.4471 -0.2684 -0.1813
  300MOL0     C40402   5.745   4.602  11.042 -0.1894 -0.2103  0.7631
  300MOL0     C40403   5.622   4.559  11.134 -0.1033  0.7154  0.1867
  300MOL0     C40404   5.578   4.669  11.225 -0.4567  0.6647 -0.5395
  300MOL0     C40405   5.507   4.778  11.148  0.6748  0.0756 -0.2348
  300MOL0     C40406   5.352   4.749  11.121 -0.1503 -0.2517 -0.3704
  300MOL0     C40407   5.277   4.880  11.088 -0.5108 -0.6159  0.1075
  300MOL0     C40408   5.208   4.949  11.215 -0.8959  0.3108  0.4672
  300MOL0     C40409   5.057   4.927  11.212  0.4727 -0.0615 -0.0864
  300MOL0    Cl40410   4.981   5.025  11.343 -0.3957  0.1892 -0.2090
  300MOL0     C40411   6.101   4.653  11.083  1.2515  0.1886  0.1922
  300MOL0     C40412   6.228   4.624  11.030 -0.3352  0.1774  0.2766
  300MOL0     O40413   6.491   4.512  11.052 -0.7112  0.0228  0.0111
  300MOL0     C40414   6.681   4.352  10.914 -0.9040  0.4447  0.7858
  300MOL0     C40415   6.795   4.312  10.839  0.4588 -0.2175  0.5280
  300MOL0     N40416   7.223   4.242  10.246  0.0742  0.4586  0.2848
  300MOL0     N40417   7.328   4.290  10.197  0.1790 -0.0141 -0.0675
  300MOL0     C40418   8.670   4.065  10.155  0.4708 -0.8199 -0.5648
  300MOL0     C40419   8.809   4.060  10.171 -0.1700  0.2346  0.5976
  300MOL0     C40420   9.214   4.291  10.236 -0.7203 -0.2071 -0.1231
  300MOL0     C40421   9.268   4.408  10.288 -0.1617  0.9360  0.1461
  300MOL0     C40422   9.406   4.432  10.293 -0.0013  0.1958 -0.5866
  300MOL0     C40423   9.505   4.345  10.242  1.3156  0.6427  0.6400
  300MOL0     O40424   9.640   4.378  10.223 -0.3799 -0.2006  0.4417
  300MOL0     C40425   9.692   4.484  10.309 -0.0983 -0.4367  0.2361
  300MOL0     C40426   9.843   4.482  10.311 -0.1808  0.7200 -0.8013
  300MOL0     C40427   9.909   4.537  10.184  0.2153 -0.0357  0.5053
  300MOL0     C40428  10.042   4.596  10.222  0.1976 -0.0355  0.0054
  300MOL0     C40429  10.024   4.729  10.279 -0.4591  0.6208  0.2908
  300MOL0     C40430  10.014   4.834  10.338 -0.2563 -0.4846  0.4159
  300MOL0     C40431   9.455   4.222  10.185  0.4007 -0.0759  0.4569
  300MOL0     C40432   9.312   4.199  10.180 -0.3885  0.0973 -0.0012
  300MOL0     H40433   8.864   4.388  10.082  0.8290 -1.1068 -1.3199
  300MOL0     H40434   8.613   4.387  10.050 -1.2447 -1.0726 -0.6669
  300MOL0     H40435   8.390   4.328   9.982 -1.7255  0.2306  0.4294
  300MOL0     H40436   8.471   4.201   9.871  2.7456 -1.4397  2.9203
  300MOL0     H40437   8.249   4.218   9.838 -0.5159 -0.5713 -0.8419
  300MOL0     H40438   8.281   4.054   9.909 -2.5938  0.4440 -1.0978
  300MOL0     H40439   8.168   4.119  10.116 -3.9687 -0.2842  0.3134
  300MOL0     H40440   8.158   4.288  10.070 -0.8993 -0.4481  3.2557
  300MOL0     H40441   8.004   4.222   9.886  1.6350  0.7691  0.1440
  300MOL0     H40442   8.021   4.058   9.937 -2.0504  1.1192 -1.4363
  300MOL0     H40443   7.945   4.102  10.155  0.7546 -0.1139 -1.0499
  300MOL0     H40444   7.934   4.285  10.131  2.2575  0.3453  0.6433
  300MOL0     H40445   7.755   4.252   9.960 -1.4206 -0.4380 -1.0613
  300MOL0     H40446   7.767   4.074   9.984  1.9774 -1.2183  2.9244
  300MOL0     H40447   7.664   4.089  10.200 -0.1480  0.5596  0.2993
  300MOL0     H40448   7.668   4.265  10.191 -1.6641  0.2720 -0.8434
  300MOL0     H40449   7.515   4.117   9.985  2.5998 -1.2540  0.5833
  300MOL0     H40450   7.515   4.286  10.015  0.4192  1.4764  4.1219
  300MOL0     H40451   7.380   3.969  10.183  2.3304  1.2412 -2.3138
  300MOL0     H40452   7.131   3.925  10.249 -2.7694  1.4133 -2.2014
  300MOL0     H40453   7.168   3.977  10.414 -0.2870  0.9149  0.4284
  300MOL0     H40454   6.925   3.997  10.370 -1.7907  0.9926  1.5566
  300MOL0     H40455   6.959   4.120  10.249 -2.1968 -0.8622  0.7766
  300MOL0     H40456   7.047   4.272  10.415 -1.2277  0.1703  0.4859
  300MOL0     H40457   7.072   4.142  10.537 -1.3737 -0.4702  1.1563
  300MOL0     H40458   6.817   4.119  10.524 -1.0465  0.7789  1.7126
  300MOL0     H40459   6.825   4.268  10.437 -1.8958 -0.2360  0.2184
  300MOL0     H40460   6.731   4.449  10.538  3.6969  0.3104  1.1040
  300MOL0     H40461   6.556   4.605  10.545  0.1682  1.6189  0.3270
  300MOL0     H40462   6.416   4.524  10.606  0.1330  1.6382 -1.0641
  300MOL0     H40463   6.495   4.653  10.699 -1.5917 -1.2449  0.2257
  300MOL0     H40464   6.124   4.378  10.823  0.9757 -0.8593  0.2501
  300MOL0     H40465   5.916   4.415  10.924  1.0301 -1.8091  0.7223
  300MOL0     H40466   5.732   4.697  10.990  2.0560  0.2094  0.8673
  300MOL0     H40467   5.751   4.524  10.964  0.5120  0.4254  0.1716
  300MOL0     H40468   5.528   4.545  11.078  0.1950 -0.7009 -0.0109
  300MOL0     H40469   5.638   4.468  11.193 -2.2758  2.0161  3.0152
  300MOL0     H40470   5.656   4.711  11.289 -1.5072  4.2918 -1.3502
  300MOL0     H40471   5.504   4.620  11.290 -0.0304 -1.9159 -1.9030
  300MOL0     H40472   5.517   4.868  11.210  0.4050  0.3524 -0.5915
  300MOL0     H40473   5.560   4.795  11.053  0.5816 -0.8414 -0.4636
  300MOL0     H40474   5.311   4.703  11.212  0.4025 -2.1348 -1.0136
  300MOL0     H40475   5.351   4.676  11.040 -0.0869 -1.1553  0.4215
  300MOL0     H40476   5.342   4.948  11.032  0.7913 -3.5361 -2.1950
  300MOL0     H40477   5.190   4.844  11.032 -0.1901 -0.7438 -0.3194
  300MOL0     H40478   5.229   5.056  11.224  1.5204 -0.0272 -0.5794
  300MOL0     H40479   5.242   4.896  11.304  0.3677 -1.5513 -1.0670
  300MOL0     H40480   5.023   4.824  11.224 -1.9216  0.6543 -0.1294
  300MOL0     H40481   5.025   4.960  11.113  1.4777  3.4457  0.5810
  300MOL0     H40482   6.103   4.735  11.154 -1.5590  0.4419  0.0882
  300MOL0     H40483   6.312   4.685  11.062  0.8869 -1.0350 -0.4977
  300MOL0     H40484   6.681   4.336  11.021 -0.3440 -1.7711  0.4989
  300MOL0     H40485   6.868   4.244  10.881  0.9757  0.3282  0.5192
  300MOL0     H40486   8.619   3.974  10.186 -1.5372 -0.4254 -2.4617
  300MOL0     H40487   8.857   3.964  10.191 -2.7252 -0.7508  2.5709
  300MOL0     H40488   9.195   4.471  10.338 -0.0647  0.8884  0.3467
  300MOL0     H40489   9.438   4.529  10.330 -0.6124  0.2958 -0.3124
  300MOL0     H40490   9.658   4.584  10.282  1.9060  0.5968  1.2726
  300MOL0     H40491   9.660   4.458  10.411 -1.0104 -1.6375 -0.3416
  300MOL0     H40492   9.881   4.386  10.347  1.0438  1.1427 -0.9047
  300MOL0     H40493   9.861   4.558  10.388 -0.3961  0.4582 -0.4928
  300MOL0     H40494   9.846   4.606  10.128  2.1627 -0.0165 -1.8246
  300MOL0     H40495   9.939   4.457  10.115  0.1554 -0.9586  1.5049
  300MOL0     H40496  10.097   4.603  10.128 -1.4216 -3.0761 -1.3275
  300MOL0     H40497  10.099   4.530  10.288  0.0962  0.1005  0.2306
  300MOL0     H40498  10.017   4.934  10.378  0.5059  0.1533 -1.1473
  300MOL0     H40499   9.526   4.145  10.158  1.7335  1.1076  0.5027
  300MOL0     H40500   9.281   4.099  10.152 -0.6395 -0.1122  0.9845
  301MOL0     O40501   5.461   3.975   8.495  0.1114 -0.5246 -0.5059
  301MOL0     C40502   5.493   3.997   8.609  0.2396  0.0550 -0.0847
  301MOL0     O40503   5.420   4.010   8.716  0.0561  0.1043 -0.3699
  301MOL0     C40504   5.280   3.995   8.699 -0.7057  0.0423  0.2968
  301MOL0     C40505   5.201   4.073   8.604 -0.7905  0.1134 -0.2630
  301MOL0     C40506   5.061   4.063   8.594  1.1192 -0.1430  0.2370
  301MOL0     C40507   4.997   3.963   8.669 -0.0746  0.4056  0.4793
  301MOL0     O40508   4.860   3.941   8.661 -0.3050  0.5629 -1.3220
  301MOL0     C40509   4.795   3.961   8.539 -0.8474  0.0522  0.4620
  301MOL0     C40510   4.662   3.886   8.541  0.2633  1.1085  0.4322
  301MOL0     C40511   4.588   3.915   8.410 -0.5739 -0.3318 -0.4131
  301MOL0     C40512   4.447   3.848   8.415  0.3186 -0.7453  0.2550
  301MOL0     C40513   4.362   3.890   8.296 -0.3876  0.5014 -0.1592
  301MOL0     C40514   4.227   3.815   8.305 -0.4285  0.5030 -0.2621
  301MOL0     C40515   4.115   3.873   8.213  0.0550 -0.2691  0.0179
  301MOL0     C40516   3.982   3.813   8.239  0.5619 -0.0789  0.5709
  301MOL0     N40517   3.883   3.834   8.130 -0.0828  0.1437  0.9322
  301MOL0     C40518   3.849   3.747   8.021 -0.8556 -0.2471 -0.0347
  301MOL0     C40519   3.784   3.826   7.931  0.8868  0.7895  0.3352
  301MOL0     C40520   3.751   3.792   7.788  0.2864 -0.0831 -0.2500
  301MOL0     C40521   3.708   3.900   7.691  0.2307 -0.6033 -0.2430
  301MOL0     C40522   3.569   3.960   7.733  0.2820 -0.1333  0.3980
  301MOL0     C40523   3.496   4.027   7.616 -0.3329 -0.1267 -0.5679
  301MOL0     O40524   3.396   3.946   7.563 -0.4002 -0.1673 -0.2913
  301MOL0     C40525   3.269   3.939   7.624  0.7286  0.0661 -0.2577
  301MOL0     C40526   3.236   4.016   7.739 -0.3817 -0.0122  0.3721
  301MOL0     C40527   3.108   4.021   7.791 -0.4784 -0.5321 -0.6015
  301MOL0     C40528   3.093   4.103   7.915 -0.8695  0.0879 -0.9082
  301MOL0     C40529   3.002   3.958   7.717  0.1115 -0.2644  0.1190
  301MOL0     C40530   2.854   3.968   7.751  0.0572  0.1364 -0.3818
  301MOL0     O40531   2.770   3.916   7.667  0.0432 -0.0396  0.2733
  301MOL0     C40532   2.638   3.908   7.710  0.2988 -0.4504 -0.3583
  301MOL0     C40533   2.597   3.819   7.802  0.0952 -0.2612  0.3456
  301MOL0     C40534   2.461   3.812   7.830  0.6697 -0.6562 -0.2356
  301MOL0     C40535   2.368   3.902   7.775  0.7871 -0.3834  0.5155
  301MOL0     O40536   2.233   3.902   7.795 -0.0929 -0.3076  0.1794
  301MOL0     C40537   2.146   4.005   7.747 -0.2578 -0.3489  0.4363
  301MOL0     C40538   1.998   3.970   7.782 -0.1499 -0.0097  0.3910
  301MOL0     C40539   1.912   4.072   7.720  0.3423 -0.7852 -0.4781
  301MOL0     C40540   1.756   4.036   7.738  0.2440 -0.0833  0.6439
  301MOL0     C40541   1.659   4.129   7.655  0.0261  0.6774  0.9862
  301MOL0     C40542   1.518   4.065   7.654 -0.2092 -0.2264  0.4086
  301MOL0     C40543   1.449   4.111   7.534 -0.1208  0.0995 -0.0131
  301MOL0     C40544   1.414   4.265   7.542 -0.4514  0.9206 -0.3076
  301MOL0    Cl40545   1.303   4.294   7.680  0.4492  0.2180 -0.4442
  301MOL0     C40546   2.416   3.994   7.682 -0.4190 -0.2998  0.0687
  301MOL0     C40547   2.552   3.998   7.657  1.2608  0.1553 -0.0804
  301MOL0     O40548   2.825   4.020   7.858 -0.5170 -0.4200  0.6148
  301MOL0     C40549   3.039   3.874   7.611  0.3673 -0.0479 -0.0082
  301MOL0     C40550   3.168   3.867   7.564 -0.8614  0.0012 -0.1076
  301MOL0     N40551   3.778   3.952   7.979  0.7920 -0.1960  0.2388
  301MOL0     N40552   3.827   3.956   8.093  0.3615 -0.2476  0.3644
  301MOL0     C40553   5.073   3.877   8.753 -0.2890 -0.4089  0.7476
  301MOL0     C40554   5.212   3.892   8.763  0.3536  0.8494  0.1532
  301MOL0     C40555   5.637   4.011   8.633  0.0961 -0.8420  0.6966
  301MOL0     C40556   5.678   4.056   8.760  1.1227 -0.4880 -0.0660
  301MOL0     C40557   5.811   4.070   8.791  0.1972 -0.0466  0.1500
  301MOL0     C40558   5.903   4.052   8.692 -0.5271  1.0148  0.0284
  301MOL0     O40559   6.036   4.069   8.724  0.5695 -0.7068  0.3099
  301MOL0     C40560   6.129   4.060   8.617  0.4599 -0.7000  1.0070
  301MOL0     C40561   6.267   4.098   8.675 -1.0245  0.2294  0.0066
  301MOL0     C40562   6.402   4.084   8.598 -0.7826  0.1217 -0.6190
  301MOL0     C40563   6.414   4.191   8.483  0.2527 -1.4552 -0.3285
  301MOL0     C40564   6.535   4.169   8.406 -0.0414  0.1051 -0.8875
  301MOL0     C40565   6.629   4.163   8.328  0.1517  0.6673  0.0893
  301MOL0     C40566   5.866   4.005   8.564  1.0510 -0.0379  0.5707
  301MOL0     C40567   5.732   3.979   8.537 -0.4005 -0.7290 -0.8903
  301MOL0     H40568   5.254   4.150   8.548  1.7390 -0.3621  1.3077
  301MOL0     H40569   5.006   4.132   8.530  1.8768  2.5259  2.2356
  301MOL0     H40570   4.788   4.070   8.528 -1.5808  0.1152  1.4045
  301MOL0     H40571   4.860   3.921   8.461 -0.1659  1.2656  0.3887
  301MOL0     H40572   4.687   3.780   8.539  0.7713  1.2330 -1.0268
  301MOL0     H40573   4.598   3.910   8.627 -0.1528  0.8160  0.2058
  301MOL0     H40574   4.569   4.023   8.414  0.3353 -0.1763  0.2689
  301MOL0     H40575   4.647   3.883   8.324  0.8975  1.8537 -0.3004
  301MOL0     H40576   4.446   3.739   8.414 -2.8859 -0.8031  1.1578
  301MOL0     H40577   4.395   3.872   8.508 -0.4385 -1.6483  0.0672
  301MOL0     H40578   4.341   3.998   8.300  0.5811  0.6618  2.4838
  301MOL0     H40579   4.417   3.884   8.201  1.1637  6.3935 -0.0556
  301MOL0     H40580   4.234   3.707   8.288 -0.3429  0.4601  0.0447
  301MOL0     H40581   4.184   3.836   8.403  1.9966  0.0522  0.9738
  301MOL0     H40582   4.101   3.980   8.231  2.1014 -0.2261  1.7554
  301MOL0     H40583   4.152   3.865   8.110  2.1108 -1.7046  0.8069
  301MOL0     H40584   3.948   3.849   8.337  0.3379  0.1355  0.4164
  301MOL0     H40585   3.980   3.704   8.237  0.5150 -0.0855 -1.9659
  301MOL0     H40586   3.880   3.645   8.002 -0.2815 -0.3399  1.2833
  301MOL0     H40587   3.843   3.746   7.749 -0.2227  0.6113 -2.4116
  301MOL0     H40588   3.678   3.711   7.788 -0.1235  0.2709 -1.8067
  301MOL0     H40589   3.699   3.859   7.590 -0.5489 -1.7312  0.2664
  301MOL0     H40590   3.776   3.986   7.690 -4.0206  3.1872  1.7692
  301MOL0     H40591   3.597   4.035   7.807  1.2093  0.4360 -0.5072
  301MOL0     H40592   3.513   3.878   7.780  0.2034 -0.7125 -0.6705
  301MOL0     H40593   3.575   4.044   7.543 -0.2858 -1.4256 -0.8380
  301MOL0     H40594   3.450   4.122   7.645  1.3308  0.2043  1.1727
  301MOL0     H40595   3.314   4.069   7.792  0.1616  0.2334 -0.6669
  301MOL0     H40596   3.031   4.050   7.988 -0.0280 -0.4442 -0.5671
  301MOL0     H40597   3.185   4.133   7.965 -1.0347  0.0374 -0.5718
  301MOL0     H40598   3.037   4.192   7.887 -1.5435 -0.2822 -0.7539
  301MOL0     H40599   2.653   3.742   7.854 -1.7326 -1.5400  0.5481
  301MOL0     H40600   2.419   3.746   7.905  1.3002 -0.2596  0.4796
  301MOL0     H40601   2.172   4.104   7.786  3.1687 -0.5176 -1.0496
  301MOL0     H40602   2.146   4.015   7.638 -0.9027  2.1599  0.5924
  301MOL0     H40603   1.980   3.876   7.729 -2.7689  0.8481 -0.3912
  301MOL0     H40604   1.969   3.968   7.887 -0.7891 -1.1172  0.1999
  301MOL0     H40605   1.937   4.086   7.614  0.2944 -1.7271 -0.6222
  301MOL0     H40606   1.932   4.174   7.755  2.4920 -0.4277 -2.4722
  301MOL0     H40607   1.745   3.937   7.692  1.4926 -0.1636  0.4910
  301MOL0     H40608   1.714   4.034   7.840 -0.1995 -0.0716  0.4624
  301MOL0     H40609   1.701   4.142   7.555  2.5362  0.1851  1.9006
  301MOL0     H40610   1.662   4.232   7.692 -2.5767  1.5822 -1.0367
  301MOL0     H40611   1.526   3.957   7.665 -2.0930 -0.1317  3.8692
  301MOL0     H40612   1.459   4.108   7.736  3.1853  2.4516  1.6827
  301MOL0     H40613   1.354   4.059   7.517 -0.7641  1.7254 -1.7459
  301MOL0     H40614   1.515   4.098   7.448 -0.1344 -1.2501  0.1622
  301MOL0     H40615   1.370   4.296   7.447  1.3351  0.3105 -1.3936
  301MOL0     H40616   1.509   4.317   7.559  1.7385 -3.2930  1.9426
  301MOL0     H40617   2.347   4.049   7.619 -2.7031 -0.3498  2.3982
  301MOL0     H40618   2.581   4.077   7.588  0.9111 -0.3331 -0.8043
  301MOL0     H40619   2.965   3.815   7.556  1.1648 -1.8722  0.7951
  301MOL0     H40620   3.196   3.807   7.479 -0.0657 -0.3575  0.3942
  301MOL0     H40621   5.019   3.796   8.800 -1.6770 -0.2380 -0.4512
  301MOL0     H40622   5.262   3.811   8.816 -1.6371  0.4199  1.4701
  301MOL0     H40623   5.604   4.077   8.837 -0.3144  0.1066 -1.5479
  301MOL0     H40624   5.820   4.084   8.898 -0.6998  0.3420  0.1787
  301MOL0     H40625   6.132   3.959   8.577  2.7400  0.4074 -1.9976
  301MOL0     H40626   6.103   4.126   8.534 -1.7655 -1.7746  0.7656
  301MOL0     H40627   6.273   4.048   8.772  0.3243 -1.7310 -1.0049
  301MOL0     H40628   6.250   4.201   8.706 -1.5620 -0.3201  1.6686
  301MOL0     H40629   6.410   3.984   8.555  0.6664 -0.3423  0.6497
  301MOL0     H40630   6.482   4.108   8.669 -1.3594  0.9777 -0.2514
  301MOL0     H40631   6.417   4.290   8.529 -0.7679 -1.0371 -1.1213
  301MOL0     H40632   6.323   4.188   8.422 -0.1804  0.4646  0.1375
  301MOL0     H40633   6.703   4.151   8.252 -1.5805 -0.8665 -1.4624
  301MOL0     H40634   5.941   3.981   8.490 -0.9108 -0.5963 -1.3361
  301MOL0     H40635   5.721   3.945   8.435  0.9018  0.6080 -1.5099
  302MOL0     O40636   4.700   2.637   0.131 -0.2971  0.3012  0.6023
  302MOL0     C40637   4.640   2.740   0.092 -0.3191  0.4983  0.2206
  302MOL0     O40638   4.700   2.844   0.032 -0.1790 -0.2510 -0.4484
  302MOL0     C40639   4.819   2.813  -0.025  0.9782 -0.5302  0.2007
  302MOL0     C40640   4.931   2.875   0.012  0.6894  0.6174 -0.1386
  302MOL0     C40641   5.052   2.834  -0.043 -0.1293  0.3277 -0.9457
  302MOL0     C40642   5.059   2.735  -0.140  0.2130 -0.6793  0.6801
  302MOL0     O40643   5.172   2.675  -0.189  0.4104  0.7394  0.3708
  302MOL0     C40644   5.204   2.726  -0.314 -0.4227 -0.8091 -0.2660
  302MOL0     C40645   5.287   2.627  -0.377  0.1376 -1.4050  0.2108
  302MOL0     C40646   5.280   2.625  -0.533  0.2709 -0.4290  0.2181
  302MOL0     C40647   5.386   2.539  -0.594 -0.1126 -0.4461 -0.0742
  302MOL0     C40648   5.390   2.565  -0.743 -0.1832  0.5433  0.0209
  302MOL0     C40649   5.261   2.535  -0.830  0.1765  0.6708  0.3559
  302MOL0     C40650   5.289   2.436  -0.943  0.2566  0.2752  0.0811
  302MOL0     C40651   5.380   2.497  -1.057  0.3818  0.1092 -0.5025
  302MOL0     N40652   5.303   2.589  -1.144  0.4014 -0.3403  0.6234
  302MOL0     C40653   5.182   2.568  -1.200  0.3282 -0.3583  0.4911
  302MOL0     C40654   5.135   2.684  -1.255  0.8885  0.9184  0.6963
  302MOL0     C40655   4.997   2.709  -1.331  0.0116 -0.6745  0.1629
  302MOL0     C40656   4.903   2.801  -1.269  1.1554 -0.1299  0.1966
  302MOL0     C40657   4.755   2.756  -1.277 -0.0269  0.0249  0.6257
  302MOL0     C40658   4.660   2.874  -1.300  0.3318  0.0959  0.1635
  302MOL0     O40659   4.672   2.958  -1.191 -0.1518 -0.3690  0.5889
  302MOL0     C40660   4.563   3.027  -1.153  0.2892  0.0802  0.3709
  302MOL0     C40661   4.561   3.165  -1.153  0.3531  0.3816  0.2512
  302MOL0     C40662   4.448   3.243  -1.118 -0.1553 -0.2036  0.4619
  302MOL0     C40663   4.462   3.392  -1.113 -0.1398  0.2302 -0.4094
  302MOL0     C40664   4.327   3.172  -1.095  0.2440  0.2990  1.4240
  302MOL0     C40665   4.194   3.242  -1.087  0.0089  0.0447  0.1873
  302MOL0     O40666   4.093   3.164  -1.033 -0.4345 -0.5392  0.0414
  302MOL0     C40667   4.002   3.230  -0.964 -0.4248  0.4363 -0.3016
  302MOL0     C40668   3.910   3.326  -1.015  0.7683 -0.5135  0.5945
  302MOL0     C40669   3.818   3.399  -0.936 -0.9754 -0.3224 -0.1162
  302MOL0     C40670   3.811   3.365  -0.799 -0.5960 -0.4603  0.1206
  302MOL0     O40671   3.722   3.428  -0.720 -0.1316  0.5860  0.7960
  302MOL0     C40672   3.595   3.433  -0.774  0.0077 -0.5784  0.2837
  302MOL0     C40673   3.483   3.501  -0.688  0.0683 -0.1309  0.1988
  302MOL0     C40674   3.468   3.431  -0.560 -0.4495  0.3291 -0.5282
  302MOL0     C40675   3.372   3.488  -0.465  0.5394  0.8428 -0.8159
  302MOL0     C40676   3.348   3.419  -0.333  0.3918 -0.3948 -0.5374
  302MOL0     C40677   3.478   3.377  -0.267 -0.4176 -0.7480 -0.3108
  302MOL0     C40678   3.566   3.505  -0.239 -0.7053  0.4391  0.3438
  302MOL0     C40679   3.691   3.438  -0.172 -0.1566 -1.7322  0.0108
  302MOL0    Cl40680   3.647   3.418  -0.004  0.0610  0.1643  0.2226
  302MOL0     C40681   3.895   3.259  -0.749 -1.0816 -0.6730  0.4582
  302MOL0     C40682   3.998   3.200  -0.829 -0.2706  0.0621  0.7022
  302MOL0     O40683   4.179   3.351  -1.143  0.1911  0.1331  0.0311
  302MOL0     C40684   4.331   3.038  -1.089 -0.2170  0.2595 -0.3677
  302MOL0     C40685   4.452   2.959  -1.113 -0.1949 -0.2435 -0.1342
  302MOL0     N40686   5.227   2.780  -1.224  0.1353 -0.8109 -0.8533
  302MOL0     N40687   5.325   2.729  -1.156 -0.2248  0.4859 -0.1208
  302MOL0     C40688   4.935   2.692  -0.196  0.4886 -0.2152  0.0652
  302MOL0     C40689   4.821   2.724  -0.128  0.7453  0.3335  0.2007
  302MOL0     C40690   4.502   2.767   0.143  0.2287  0.5908  0.0175
  302MOL0     C40691   4.443   2.670   0.233  0.2127 -0.4342  0.6917
  302MOL0     C40692   4.318   2.697   0.287 -0.2303 -0.0712 -0.2470
  302MOL0     C40693   4.249   2.818   0.272 -0.5424  0.0842 -0.1350
  302MOL0     O40694   4.131   2.852   0.326 -0.4770  0.0048 -0.2758
  302MOL0     C40695   4.065   2.757   0.404 -0.5047  0.2981  0.2614
  302MOL0     C40696   3.948   2.816   0.480  0.8052 -0.0438  0.3814
  302MOL0     C40697   3.992   2.901   0.592  0.2270 -0.0892  0.6089
  302MOL0     C40698   3.890   2.995   0.663 -0.5252  0.5143 -0.0878
  302MOL0     C40699   3.950   3.057   0.782  0.5670  0.1359 -0.0888
  302MOL0     C40700   4.008   3.118   0.869  0.0726  0.0365  0.1223
  302MOL0     C40701   4.308   2.915   0.192  0.4407 -1.0212  0.3523
  302MOL0     C40702   4.432   2.892   0.133 -0.0532 -0.1975 -0.3664
  302MOL0     H40703   4.922   2.954   0.086  2.2391  0.7470 -0.0448
  302MOL0     H40704   5.144   2.872  -0.000 -0.3041 -2.2527  2.0897
  302MOL0     H40705   5.122   2.753  -0.381  1.3475 -0.9698 -2.6146
  302MOL0     H40706   5.259   2.819  -0.300 -1.0227 -0.6335  1.0830
  302MOL0     H40707   5.390   2.644  -0.344 -0.5249 -1.2881  2.3319
  302MOL0     H40708   5.259   2.528  -0.339 -2.7509 -0.2066  1.4921
  302MOL0     H40709   5.187   2.578  -0.566  0.1064 -0.9839  1.4260
  302MOL0     H40710   5.281   2.730  -0.566  1.4638  0.6561  3.3791
  302MOL0     H40711   5.480   2.562  -0.543  1.9815 -1.1636 -3.2991
  302MOL0     H40712   5.368   2.432  -0.575 -0.7264 -0.8126 -2.3810
  302MOL0     H40713   5.410   2.672  -0.755 -2.7024  1.1956  0.9936
  302MOL0     H40714   5.475   2.506  -0.779 -1.1324 -1.4268  0.8652
  302MOL0     H40715   5.175   2.516  -0.765 -1.2230  3.5761 -0.4642
  302MOL0     H40716   5.244   2.628  -0.886  1.4126 -0.2355 -1.6455
  302MOL0     H40717   5.349   2.358  -0.896 -0.5095  1.7091  3.7023
  302MOL0     H40718   5.201   2.389  -0.988  1.3044  0.5568 -2.4944
  302MOL0     H40719   5.431   2.425  -1.122  3.1231  2.5703 -1.3458
  302MOL0     H40720   5.460   2.557  -1.011  0.1386 -0.5513  0.8288
  302MOL0     H40721   5.135   2.470  -1.198  1.5672 -0.9673  0.6953
  302MOL0     H40722   5.021   2.751  -1.428 -2.4936 -0.6817 -0.5324
  302MOL0     H40723   4.946   2.613  -1.344 -1.4723  0.3678 -2.2257
  302MOL0     H40724   4.908   2.895  -1.327 -1.1733 -1.4207 -2.3161
  302MOL0     H40725   4.923   2.825  -1.164  0.4480  1.9250 -0.0832
  302MOL0     H40726   4.722   2.700  -1.189 -2.6326  0.7769  0.2080
  302MOL0     H40727   4.734   2.684  -1.357 -2.5362  0.3062  0.9476
  302MOL0     H40728   4.558   2.836  -1.307 -0.5103  2.4141 -1.0987
  302MOL0     H40729   4.685   2.934  -1.388  0.2722 -1.2830 -0.8284
  302MOL0     H40730   4.651   3.209  -1.194  0.6620 -1.5634 -1.3189
  302MOL0     H40731   4.400   3.458  -1.174  1.5841  0.8996 -1.5083
  302MOL0     H40732   4.428   3.401  -1.009  0.8915 -1.2955  0.0882
  302MOL0     H40733   4.569   3.411  -1.125 -0.2735  1.3198  0.0657
  302MOL0     H40734   3.920   3.350  -1.121 -1.6729 -2.9212 -0.3045
  302MOL0     H40735   3.763   3.485  -0.973  0.6449  2.1502  2.7854
  302MOL0     H40736   3.582   3.484  -0.870 -0.6940  0.0626  0.7128
  302MOL0     H40737   3.566   3.329  -0.792 -1.0573 -0.2934  0.3002
  302MOL0     H40738   3.503   3.608  -0.677 -1.6590  0.2024  0.5017
  302MOL0     H40739   3.392   3.505  -0.749 -0.2638  0.0569  0.7016
  302MOL0     H40740   3.563   3.418  -0.507 -0.7181  1.3637  0.2226
  302MOL0     H40741   3.440   3.325  -0.564 -3.3316  0.9185  1.3586
  302MOL0     H40742   3.400   3.590  -0.439  1.4672  0.5438 -0.5978
  302MOL0     H40743   3.276   3.495  -0.517  0.7074 -2.5023 -1.7824
  302MOL0     H40744   3.301   3.322  -0.351  1.4109 -0.6998 -1.7340
  302MOL0     H40745   3.280   3.483  -0.276 -0.1242 -0.9884 -0.4729
  302MOL0     H40746   3.453   3.321  -0.177  0.3250  0.5486  0.7505
  302MOL0     H40747   3.539   3.311  -0.329  0.8518 -0.3012  0.4162
  302MOL0     H40748   3.524   3.578  -0.170  1.0852  1.1709  0.7115
  302MOL0     H40749   3.604   3.563  -0.323 -2.8089  0.6192 -0.5624
  302MOL0     H40750   3.769   3.515  -0.171 -1.2231 -0.6284  0.1151
  302MOL0     H40751   3.742   3.349  -0.211  1.1156 -1.9522  2.0216
  302MOL0     H40752   3.882   3.231  -0.645 -0.6406  2.4990  1.4922
  302MOL0     H40753   4.066   3.120  -0.800 -0.6141 -0.5440 -0.1454
  302MOL0     H40754   4.244   2.979  -1.061  1.7538 -2.1511  1.0064
  302MOL0     H40755   4.448   2.851  -1.110  0.4721 -0.2651  1.7163
  302MOL0     H40756   4.912   2.629  -0.282 -1.9199  2.6706 -1.6188
  302MOL0     H40757   4.730   2.675  -0.160  1.8218 -1.7214  0.1498
  302MOL0     H40758   4.476   2.567   0.241  2.8507  0.2563 -0.0686
  302MOL0     H40759   4.264   2.615   0.334  0.7782 -1.0276 -0.7102
  302MOL0     H40760   4.026   2.675   0.343 -1.8029  0.8522  0.3196
  302MOL0     H40761   4.136   2.719   0.478  2.9214 -0.4714 -3.1022
  302MOL0     H40762   3.883   2.738   0.522  1.0176  1.3486  3.6459
  302MOL0     H40763   3.884   2.869   0.409 -1.3578  0.0051  2.2248
  302MOL0     H40764   4.073   2.963   0.551 -1.1185 -0.3883 -2.8463
  302MOL0     H40765   4.040   2.842   0.671  0.3418  0.7738  1.2053
  302MOL0     H40766   3.806   2.934   0.699 -2.3456  1.5731 -2.2861
  302MOL0     H40767   3.853   3.067   0.590  2.1386  1.0988 -0.9783
  302MOL0     H40768   4.043   3.182   0.948 -0.4900  1.4015 -0.7029
  302MOL0     H40769   4.254   3.005   0.165  1.0110 -1.4769 -2.6830
  302MOL0     H40770   4.484   2.970   0.080  3.3930 -1.2550  1.1687
  303MOL0     O40771   7.137   0.124   7.336  0.3089  0.2908 -0.3628
  303MOL0     C40772   7.224   0.035   7.374  0.2360 -0.2800 -0.0247
  303MOL0     O40773   7.207  -0.057   7.474  0.4936 -0.6253  0.1725
  303MOL0     C40774   7.085  -0.060   7.545 -0.2276  0.6642  1.2784
  303MOL0     C40775   7.048   0.035   7.631 -0.2387 -0.2627 -0.5856
  303MOL0     C40776   6.924   0.025   7.694 -0.7315  0.5487  0.2324
  303MOL0     C40777   6.834  -0.071   7.672  0.9777  0.9079  0.0517
  303MOL0     O40778   6.714  -0.035   7.728  0.3569  1.1828  0.0663
  303MOL0     C40779   6.595  -0.111   7.690  0.5064  0.8418  0.3043
  303MOL0     C40780   6.578  -0.234   7.783  0.0264 -0.0952 -0.2958
  303MOL0     C40781   6.445  -0.317   7.788  0.3319  0.7963  0.7658
  303MOL0     C40782   6.315  -0.235   7.814 -0.2387 -0.1839  0.1201
  303MOL0     C40783   6.205  -0.337   7.834 -0.1161 -0.5455 -0.7071
  303MOL0     C40784   6.079  -0.258   7.867  0.3277 -0.4224 -0.0802
  303MOL0     C40785   5.971  -0.354   7.923  0.2749  0.4433  0.4090
  303MOL0     C40786   5.994  -0.408   8.069  0.0494  0.3724  0.4579
  303MOL0     N40787   5.902  -0.521   8.101 -1.4566 -0.2270  0.6094
  303MOL0     C40788   5.896  -0.642   8.031  0.4607 -1.0364 -0.0007
  303MOL0     C40789   5.775  -0.695   8.069  0.4646  0.2725  0.5895
  303MOL0     C40790   5.731  -0.827   8.014  0.0528 -0.1510  0.3191
  303MOL0     C40791   5.585  -0.860   8.038 -0.0528  0.2273 -0.3635
  303MOL0     C40792   5.488  -0.774   7.945 -0.1677  0.7243 -0.3353
  303MOL0     C40793   5.493  -0.820   7.794  0.1305 -0.1446 -0.7376
  303MOL0     O40794   5.480  -0.960   7.785 -0.3968  0.2882  0.0789
  303MOL0     C40795   5.362  -1.023   7.824 -0.2533  0.1711  0.2846
  303MOL0     C40796   5.366  -1.164   7.845  0.7807  0.2439  0.8473
  303MOL0     C40797   5.242  -1.237   7.869 -0.1012 -1.2130  0.6671
  303MOL0     C40798   5.266  -1.382   7.909 -0.5649 -0.4834 -0.0108
  303MOL0     C40799   5.118  -1.170   7.859 -0.7385  0.5014  0.0242
  303MOL0     C40800   4.996  -1.245   7.883 -0.1182 -1.3302 -0.1480
  303MOL0     O40801   4.892  -1.162   7.916  0.1704 -0.0532  1.0012
  303MOL0     C40802   4.773  -1.219   7.948 -0.0348  0.9845  0.8848
  303MOL0     C40803   4.741  -1.258   8.076 -0.4373 -0.1786 -0.2186
  303MOL0     C40804   4.617  -1.308   8.099 -0.0841  0.3324 -0.5353
  303MOL0     C40805   4.513  -1.318   8.003 -0.5707 -0.4780 -0.7714
  303MOL0     O40806   4.388  -1.353   8.047 -0.1451  0.4501  0.4169
  303MOL0     C40807   4.290  -1.390   7.942  0.2165 -0.2352 -0.4375
  303MOL0     C40808   4.163  -1.411   8.025 -0.9251  0.3192 -0.1369
  303MOL0     C40809   4.033  -1.409   7.932  0.1708 -0.2756 -0.2717
  303MOL0     C40810   3.910  -1.406   8.030 -0.0432 -0.7474  0.3910
  303MOL0     C40811   3.785  -1.352   7.956 -0.3968  0.1582  0.2652
  303MOL0     C40812   3.654  -1.355   8.041  0.2482 -0.7806 -0.0139
  303MOL0     C40813   3.603  -1.491   8.077 -0.2489 -0.4510  0.1409
  303MOL0     C40814   3.519  -1.545   7.960  0.2161 -0.2123 -0.1065
  303MOL0    Cl40815   3.336  -1.515   7.944  0.2197  0.1643  0.0750
  303MOL0     C40816   4.542  -1.257   7.882  0.5308 -1.0677 -0.8000
  303MOL0     C40817   4.669  -1.210   7.851  0.4527  0.5929  0.2996
  303MOL0     O40818   4.988  -1.366   7.860 -0.5442  0.1347 -0.4972
  303MOL0     C40819   5.121  -1.030   7.826  0.0261 -0.3125 -0.5758
  303MOL0     C40820   5.236  -0.954   7.805  0.2025 -0.1916 -0.3275
  303MOL0     N40821   5.704  -0.603   8.150 -0.1261  0.4466 -0.0601
  303MOL0     N40822   5.785  -0.500   8.168  0.0604 -0.3220 -0.1380
  303MOL0     C40823   6.874  -0.177   7.591  0.6371  0.4836  0.5974
  303MOL0     C40824   7.000  -0.174   7.524  0.8015  0.4061  0.4243
  303MOL0     C40825   7.362   0.042   7.326  0.6481  0.3933  0.4763
  303MOL0     C40826   7.403   0.160   7.261  0.6647 -0.3871  0.1605
  303MOL0     C40827   7.539   0.165   7.219  0.1026  0.0145 -0.7166
  303MOL0     C40828   7.630   0.061   7.217  0.3373  0.4350 -0.9649
  303MOL0     O40829   7.750   0.088   7.151 -0.2702  0.0698  0.0687
  303MOL0     C40830   7.834  -0.030   7.148  0.2875  0.8154 -0.0353
  303MOL0     C40831   7.962  -0.001   7.084 -0.5062 -1.0784  0.4821
  303MOL0     C40832   7.948   0.066   6.941  0.0973 -0.0611  1.2211
  303MOL0     C40833   8.081   0.097   6.868  0.3257  0.6419 -0.3281
  303MOL0     C40834   8.176  -0.001   6.838  0.0750  0.3575  0.3125
  303MOL0     C40835   8.245  -0.097   6.799  0.0001 -0.3437 -0.1896
  303MOL0     C40836   7.580  -0.053   7.279  0.1876  0.0040  0.6358
  303MOL0     C40837   7.458  -0.061   7.340  0.1006 -0.0207 -0.2751
  303MOL0     H40838   7.118   0.114   7.656 -1.0084 -0.2922  2.0407
  303MOL0     H40839   6.910   0.101   7.771  1.0974  0.9871  0.1954
  303MOL0     H40840   6.504  -0.050   7.694 -0.2872 -0.1817 -1.0711
  303MOL0     H40841   6.595  -0.141   7.585  0.9223 -0.7385  0.7259
  303MOL0     H40842   6.658  -0.307   7.770 -0.9266 -0.9304 -1.8983
  303MOL0     H40843   6.584  -0.185   7.880 -1.0409  2.3189 -1.3541
  303MOL0     H40844   6.424  -0.374   7.697  0.5666  2.5444 -0.4323
  303MOL0     H40845   6.452  -0.385   7.873  2.4080  0.2578  0.2136
  303MOL0     H40846   6.333  -0.167   7.897 -0.2043  1.2573 -1.0102
  303MOL0     H40847   6.286  -0.177   7.726 -0.4772  0.9719  0.9432
  303MOL0     H40848   6.190  -0.393   7.742 -0.4683 -0.5760 -0.6328
  303MOL0     H40849   6.216  -0.402   7.922 -1.5000  1.9770  1.4970
  303MOL0     H40850   6.098  -0.176   7.936  1.3594 -0.2838 -0.5166
  303MOL0     H40851   6.060  -0.205   7.773  0.6953 -0.7193 -0.3270
  303MOL0     H40852   5.873  -0.305   7.927  0.2902  0.3900  1.6446
  303MOL0     H40853   5.959  -0.443   7.860  0.4695 -1.4952  2.9666
  303MOL0     H40854   5.990  -0.318   8.130 -3.2231  2.7772 -2.8614
  303MOL0     H40855   6.097  -0.442   8.080  0.3189 -0.5104 -3.2903
  303MOL0     H40856   5.958  -0.677   7.950  1.2976  2.4248 -1.0275
  303MOL0     H40857   5.758  -0.829   7.908  0.1923  1.2462  0.3076
  303MOL0     H40858   5.799  -0.889   8.073 -0.6162  0.7967  2.1887
  303MOL0     H40859   5.552  -0.836   8.140 -0.1332  0.2852 -0.4024
  303MOL0     H40860   5.569  -0.967   8.018  0.0572  0.5926 -2.6669
  303MOL0     H40861   5.513  -0.668   7.950  1.2119  0.6402 -3.1520
  303MOL0     H40862   5.386  -0.791   7.981  0.1814 -3.5821 -0.8212
  303MOL0     H40863   5.590  -0.794   7.751 -0.1469 -0.2058 -1.4076
  303MOL0     H40864   5.419  -0.777   7.726 -0.9335 -3.6525 -1.9734
  303MOL0     H40865   5.459  -1.219   7.830  0.8236  1.0883 -2.7960
  303MOL0     H40866   5.363  -1.392   7.958  0.4185  4.5376 -0.4137
  303MOL0     H40867   5.190  -1.409   7.983 -2.2817  2.1358 -0.6640
  303MOL0     H40868   5.266  -1.443   7.818 -1.0355 -0.3011 -0.1403
  303MOL0     H40869   4.826  -1.250   8.142  1.6649  1.2396 -2.8814
  303MOL0     H40870   4.597  -1.317   8.205 -0.3686  2.4107 -0.3796
  303MOL0     H40871   4.278  -1.310   7.869 -1.6490  0.9554  1.1071
  303MOL0     H40872   4.313  -1.479   7.882 -1.9245  0.3752 -2.2620
  303MOL0     H40873   4.176  -1.504   8.081  0.7808 -0.1013 -1.1408
  303MOL0     H40874   4.157  -1.329   8.097 -2.2563 -0.0346  0.1816
  303MOL0     H40875   4.021  -1.486   7.855 -4.9783  1.7172 -1.8540
  303MOL0     H40876   4.023  -1.316   7.876  3.0510 -0.3192 -1.0334
  303MOL0     H40877   3.889  -1.509   8.060  1.6574 -1.5586 -1.0185
  303MOL0     H40878   3.930  -1.336   8.112 -0.4662 -1.3325  1.0035
  303MOL0     H40879   3.770  -1.409   7.863 -0.7281 -2.3914  1.8028
  303MOL0     H40880   3.812  -1.249   7.933  2.3374 -0.7990 -1.3829
  303MOL0     H40881   3.667  -1.305   8.137 -3.6761 -3.4639  2.1684
  303MOL0     H40882   3.573  -1.316   7.979 -2.0266 -2.2394  1.8844
  303MOL0     H40883   3.532  -1.479   8.160  0.3793 -1.4028  0.8388
  303MOL0     H40884   3.690  -1.557   8.088  1.2594  1.1937 -1.2948
  303MOL0     H40885   3.542  -1.652   7.963  2.0443  0.1485  0.0979
  303MOL0     H40886   3.574  -1.513   7.871  0.6687  0.6184  0.4508
  303MOL0     H40887   4.460  -1.241   7.813 -0.3397  1.1680  0.6763
  303MOL0     H40888   4.684  -1.162   7.755  2.6241 -0.2741  0.1538
  303MOL0     H40889   5.024  -0.982   7.824  0.5152  0.7604  0.1439
  303MOL0     H40890   5.211  -0.852   7.776  0.7680  0.1742  0.4408
  303MOL0     H40891   6.807  -0.258   7.563  1.9544  0.4575 -2.9438
  303MOL0     H40892   7.026  -0.250   7.450 -0.8810 -0.1428  0.3541
  303MOL0     H40893   7.330   0.238   7.244  2.6176  1.0164 -2.5129
  303MOL0     H40894   7.578   0.256   7.174  0.6677  0.1911  0.1131
  303MOL0     H40895   7.862  -0.063   7.248 -0.5231 -2.5335 -0.7692
  303MOL0     H40896   7.784  -0.120   7.111  2.4451 -0.3772 -0.2298
  303MOL0     H40897   8.019  -0.094   7.070  1.7866  0.4093 -0.7568
  303MOL0     H40898   8.025   0.062   7.148 -0.5620  0.4092 -0.8638
  303MOL0     H40899   7.904   0.166   6.951  0.7404  0.5269 -1.0803
  303MOL0     H40900   7.879   0.015   6.872 -0.2022  1.0791  0.6436
  303MOL0     H40901   8.127   0.180   6.922 -1.9192  2.3334 -0.8858
  303MOL0     H40902   8.056   0.136   6.769  0.3663 -1.0808 -1.0598
  303MOL0     H40903   8.288  -0.186   6.756 -0.3563 -0.3562 -0.5304
  303MOL0     H40904   7.646  -0.139   7.281  1.0398  0.6474  1.6807
  303MOL0     H40905   7.420  -0.155   7.379 -0.8118 -0.0240 -1.1316
  304MOL0     O40906  10.193   2.458   1.461 -0.3778 -0.7329 -0.4234
  304MOL0     C40907  10.169   2.346   1.497  0.5251 -0.1375 -0.2908
  304MOL0     O40908  10.083   2.261   1.432  0.2807 -0.9089  0.5448
  304MOL0     C40909   9.995   2.314   1.340 -0.0803  0.2505 -0.3426
  304MOL0     C40910   9.858   2.302   1.369 -1.4267 -0.2441  0.4054
  304MOL0     C40911   9.762   2.346   1.286 -0.6606 -0.7494  0.3445
  304MOL0     C40912   9.794   2.418   1.171 -0.5211 -0.7674 -0.0269
  304MOL0     O40913   9.687   2.457   1.090 -0.1863 -0.6745 -0.1202
  304MOL0     C40914   9.705   2.525   0.963  0.2494  0.2261  0.8747
  304MOL0     C40915   9.735   2.421   0.852 -1.2364 -0.3814  0.1878
  304MOL0     C40916   9.612   2.338   0.814 -0.0901 -0.0659 -0.9974
  304MOL0     C40917   9.654   2.214   0.736  0.4558  0.2032  0.3612
  304MOL0     C40918   9.573   2.099   0.783 -0.4026 -0.2409  0.1914
  304MOL0     C40919   9.423   2.110   0.753 -0.5969  0.4854 -0.3556
  304MOL0     C40920   9.354   1.985   0.814 -0.0850 -0.0745 -0.2325
  304MOL0     C40921   9.197   1.991   0.799 -0.6839  0.2552 -0.5992
  304MOL0     N40922   9.139   1.873   0.865  0.2031 -0.2428 -0.0432
  304MOL0     C40923   9.033   1.886   0.957 -0.1025  0.0831  0.4767
  304MOL0     C40924   8.998   1.764   1.001  0.4214 -0.3153 -0.0111
  304MOL0     C40925   8.879   1.734   1.091 -0.4734 -0.2634  0.1758
  304MOL0     C40926   8.763   1.693   1.014 -0.2414 -0.7193  0.4767
  304MOL0     C40927   8.633   1.692   1.101 -1.0579 -0.7412 -0.4447
  304MOL0     C40928   8.648   1.561   1.185 -0.0191  0.3614 -0.3026
  304MOL0     O40929   8.514   1.501   1.213  0.5528 -0.4523 -0.3962
  304MOL0     C40930   8.445   1.434   1.116  0.1101 -0.4652  0.2279
  304MOL0     C40931   8.490   1.395   0.983  0.0303 -0.4580 -1.0964
  304MOL0     C40932   8.411   1.313   0.906 -0.3540  0.3463  0.0715
  304MOL0     C40933   8.458   1.297   0.759  0.7169  0.5137 -0.9238
  304MOL0     C40934   8.277   1.278   0.954  0.5932 -0.3831 -1.2920
  304MOL0     C40935   8.180   1.193   0.882 -0.6504  0.6856  0.9028
  304MOL0     O40936   8.066   1.175   0.951  0.6784  0.5698 -0.4534
  304MOL0     C40937   7.953   1.108   0.914  0.1068  0.2850  0.3262
  304MOL0     C40938   7.925   1.044   0.791  0.4050 -0.5423 -0.1902
  304MOL0     C40939   7.803   0.965   0.772 -0.3039  0.1928  0.5963
  304MOL0     C40940   7.712   0.955   0.883  0.2581 -0.0287  0.5915
  304MOL0     O40941   7.595   0.877   0.885  0.6594  0.0637  0.1491
  304MOL0     C40942   7.569   0.798   0.765 -0.0478  0.1141 -0.2159
  304MOL0     C40943   7.426   0.753   0.772  1.0529 -0.0519  0.5630
  304MOL0     C40944   7.380   0.685   0.902 -0.0690 -0.4375 -0.4682
  304MOL0     C40945   7.429   0.546   0.923 -0.6904 -0.1751 -0.2683
  304MOL0     C40946   7.379   0.485   1.055  0.2286 -0.2553  0.2442
  304MOL0     C40947   7.240   0.434   1.055  0.5304  0.1320  0.0101
  304MOL0     C40948   7.190   0.371   1.192 -0.2782  0.3410  0.3613
  304MOL0     C40949   7.046   0.333   1.184 -0.0446 -0.5139  0.7345
  304MOL0    Cl40950   6.997   0.265   1.334  0.0031  0.0073 -0.2768
  304MOL0     C40951   7.739   1.031   0.998  0.0409 -1.1940 -0.1660
  304MOL0     C40952   7.858   1.108   1.017  0.9531 -0.0273 -0.6638
  304MOL0     O40953   8.208   1.143   0.773 -0.2535  0.1351  0.2055
  304MOL0     C40954   8.246   1.321   1.077 -0.4364 -0.3300 -0.8671
  304MOL0     C40955   8.327   1.388   1.161  1.0878 -0.4346  0.3541
  304MOL0     N40956   9.098   1.684   0.953 -0.3848 -0.1036  0.7429
  304MOL0     N40957   9.176   1.744   0.860 -0.3009  0.3529 -0.8047
  304MOL0     C40958   9.933   2.438   1.139  0.0154 -0.0300  0.2262
  304MOL0     C40959  10.027   2.386   1.225  0.4463 -0.3143  0.2401
  304MOL0     C40960  10.236   2.287   1.614 -0.3053 -0.8715 -0.2154
  304MOL0     C40961  10.330   2.361   1.681  0.2150 -0.1750  0.0514
  304MOL0     C40962  10.392   2.315   1.794 -0.0020  0.6265  0.1215
  304MOL0     C40963  10.354   2.199   1.847  1.4198  0.0549 -0.1214
  304MOL0     O40964  10.380   2.161   1.974  0.7016  0.3051 -0.6020
  304MOL0     C40965  10.492   2.216   2.042 -0.1729  0.0262 -0.0212
  304MOL0     C40966  10.559   2.119   2.140 -0.5555 -0.5114  0.8612
  304MOL0     C40967  10.660   2.198   2.215 -0.0933  0.1512  0.6846
  304MOL0     C40968  10.800   2.183   2.151  0.4775 -0.2115 -0.0314
  304MOL0     C40969  10.901   2.266   2.221 -0.7524 -0.1738  0.1938
  304MOL0     C40970  10.978   2.340   2.280  0.1865 -0.2991  0.0897
  304MOL0     C40971  10.258   2.123   1.781  0.0778 -0.4400  0.1787
  304MOL0     C40972  10.198   2.164   1.660 -0.1306  0.6830  0.1799
  304MOL0     H40973   9.829   2.252   1.461  0.6527 -2.3277  0.0377
  304MOL0     H40974   9.659   2.333   1.316 -0.2426 -1.7124  1.4622
  304MOL0     H40975   9.615   2.586   0.948  1.3217  1.8060  0.5653
  304MOL0     H40976   9.794   2.589   0.971  2.2497 -2.5350  2.4828
  304MOL0     H40977   9.770   2.471   0.761 -1.9205  1.6649  0.9771
  304MOL0     H40978   9.814   2.352   0.880 -1.9180 -1.6525 -0.8865
  304MOL0     H40979   9.557   2.308   0.904  1.2415 -1.1914 -0.5299
  304MOL0     H40980   9.537   2.404   0.769 -1.0258  0.8081  1.6428
  304MOL0     H40981   9.634   2.228   0.629 -1.2926 -0.1907  0.6124
  304MOL0     H40982   9.759   2.183   0.743  0.2397 -0.0618  3.5885
  304MOL0     H40983   9.606   2.007   0.732  0.1352  0.2652 -0.3978
  304MOL0     H40984   9.596   2.080   0.888  0.6862  0.9981  0.2102
  304MOL0     H40985   9.385   2.198   0.805 -0.6313  1.5237 -2.0399
  304MOL0     H40986   9.405   2.126   0.646  2.3056  1.6301 -0.7801
  304MOL0     H40987   9.392   1.893   0.768  0.2736 -0.2665  0.4249
  304MOL0     H40988   9.385   1.976   0.919 -1.5621 -3.1091  0.0624
  304MOL0     H40989   9.170   2.004   0.694  0.6921  1.0479 -0.8760
  304MOL0     H40990   9.169   2.080   0.856 -0.2151  1.2854 -1.9211
  304MOL0     H40991   8.965   1.969   0.970 -1.7773 -1.5805  3.4540
  304MOL0     H40992   8.919   1.663   1.164 -2.0511 -0.3743  0.9702
  304MOL0     H40993   8.853   1.827   1.142 -0.4171  1.2648 -2.4052
  304MOL0     H40994   8.780   1.592   0.977 -0.7675 -0.5019 -0.4043
  304MOL0     H40995   8.752   1.765   0.932 -1.8152 -2.3955 -0.8520
  304MOL0     H40996   8.546   1.689   1.034  0.2586  1.0578 -2.3835
  304MOL0     H40997   8.628   1.776   1.171 -1.4594 -2.0058  1.0880
  304MOL0     H40998   8.707   1.589   1.272  1.9331  1.9794 -2.0703
  304MOL0     H40999   8.705   1.481   1.137 -3.6314 -3.0200  0.4969
  304MOL0     H41000   8.586   1.407   0.934 -0.9834  0.7993 -2.8739
  304MOL0     H41001   8.461   1.191   0.731 -0.1575 -0.0208  0.8869
  304MOL0     H41002   8.384   1.341   0.692 -0.0105 -0.0092 -0.4810
  304MOL0     H41003   8.555   1.347   0.743  0.7825  1.2872  1.5287
  304MOL0     H41004   7.996   1.054   0.709 -0.6418 -2.0923 -1.3397
  304MOL0     H41005   7.800   0.918   0.674  2.1816  0.3347  0.4061
  304MOL0     H41006   7.570   0.869   0.681  1.9947 -0.7189 -0.9657
  304MOL0     H41007   7.645   0.723   0.745  1.7958  1.5526  1.0507
  304MOL0     H41008   7.360   0.838   0.752  1.9154  0.4674 -0.1471
  304MOL0     H41009   7.404   0.682   0.691  1.3664 -1.3972  1.6226
  304MOL0     H41010   7.271   0.680   0.895 -0.0804 -0.4265 -0.3043
  304MOL0     H41011   7.418   0.740   0.989  1.7745  0.4366 -1.7580
  304MOL0     H41012   7.392   0.483   0.842  0.5480 -0.9247 -0.2884
  304MOL0     H41013   7.539   0.542   0.918 -0.3981  2.0714  2.3029
  304MOL0     H41014   7.392   0.564   1.131  1.8568 -1.9813  1.8857
  304MOL0     H41015   7.449   0.407   1.089  0.9715 -0.4948 -1.7060
  304MOL0     H41016   7.165   0.505   1.018 -0.3715 -0.8959 -0.2030
  304MOL0     H41017   7.245   0.357   0.977 -1.3348  1.5303 -1.6163
  304MOL0     H41018   7.215   0.446   1.268  0.6112  0.0093  0.4070
  304MOL0     H41019   7.248   0.281   1.216 -0.0942  0.7236  1.3827
  304MOL0     H41020   7.028   0.266   1.101 -0.1889  1.7261 -1.1464
  304MOL0     H41021   6.990   0.424   1.160  3.5856  1.5241 -0.9366
  304MOL0     H41022   7.681   1.008   1.087 -0.2395  0.6182  0.1607
  304MOL0     H41023   7.883   1.167   1.104 -1.1727  1.3669 -0.9316
  304MOL0     H41024   8.157   1.292   1.133  0.5778 -0.7936  0.5570
  304MOL0     H41025   8.293   1.415   1.260 -1.0798  0.0603 -0.4883
  304MOL0     H41026   9.967   2.487   1.049 -0.2853 -0.2043  0.0175
  304MOL0     H41027  10.132   2.400   1.200 -0.2828  3.5474 -1.2902
  304MOL0     H41028  10.353   2.461   1.644 -1.5135  0.0857 -0.3979
  304MOL0     H41029  10.457   2.383   1.850  0.2678 -1.9941  3.2950
  304MOL0     H41030  10.574   2.260   1.984 -2.5067  5.2395 -0.0037
  304MOL0     H41031  10.451   2.302   2.096 -0.8224  0.2896 -0.9049
  304MOL0     H41032  10.603   2.030   2.093  0.3431 -0.1616  1.0296
  304MOL0     H41033  10.492   2.070   2.212 -1.0629 -2.2216 -0.6737
  304MOL0     H41034  10.666   2.151   2.313  2.6549 -1.3503 -0.1059
  304MOL0     H41035  10.633   2.302   2.236  1.1104  0.3640  1.2614
  304MOL0     H41036  10.780   2.199   2.045 -2.6720 -4.1075 -0.2539
  304MOL0     H41037  10.835   2.079   2.155 -2.5671 -1.3240  0.2928
  304MOL0     H41038  11.058   2.403   2.311 -0.0834  0.7311 -1.2440
  304MOL0     H41039  10.219   2.031   1.826  0.5521 -0.6171  0.2271
  304MOL0     H41040  10.127   2.097   1.613 -2.5283  2.7108  0.7333
  305MOL0     O41041   9.695  10.779   3.078 -0.8307  0.2709  0.3640
  305MOL0     C41042   9.774  10.696   3.041 -0.5892 -0.0469 -0.1363
  305MOL0     O41043   9.774  10.568   3.078 -0.1861 -0.3276  0.0308
  305MOL0     C41044   9.667  10.532   3.151 -0.5248 -0.5076 -0.1120
  305MOL0     C41045   9.557  10.481   3.088  0.0319  0.2943  0.5590
  305MOL0     C41046   9.459  10.418   3.157 -0.0196 -0.1376  1.4754
  305MOL0     C41047   9.472  10.416   3.294  0.3412 -0.2503  0.1859
  305MOL0     O41048   9.381  10.332   3.354  0.5030 -0.1729  0.3167
  305MOL0     C41049   9.428  10.249   3.458  0.3064  0.1098  0.1175
  305MOL0     C41050   9.333  10.161   3.535  0.5083  0.1593  0.2082
  305MOL0     C41051   9.263  10.062   3.434  0.6684  0.1099 -0.3973
  305MOL0     C41052   9.127  10.017   3.497 -0.6413 -0.3078 -0.8060
  305MOL0     C41053   9.033   9.933   3.413  0.7270 -0.5255  0.2519
  305MOL0     C41054   8.890   9.939   3.479 -0.9321  0.7686 -0.0049
  305MOL0     C41055   8.794   9.847   3.403  0.0929 -0.2795  0.2666
  305MOL0     C41056   8.649   9.855   3.464 -0.4665 -0.4276  0.0059
  305MOL0     N41057   8.635   9.820   3.607  0.4727 -0.0221  0.6200
  305MOL0     C41058   8.704   9.723   3.674 -0.5346 -0.3256  0.1398
  305MOL0     C41059   8.624   9.699   3.779  0.0925 -0.0793  0.1478
  305MOL0     C41060   8.655   9.605   3.901  0.0588  0.1379  0.0649
  305MOL0     C41061   8.754   9.668   3.997  0.2928  0.1748  0.1258
  305MOL0     C41062   8.743   9.584   4.130  0.3050  0.5922 -0.3189
  305MOL0     C41063   8.788   9.658   4.246 -0.9275 -0.6038  0.2552
  305MOL0     O41064   8.748   9.616   4.376 -0.0226 -0.1089 -0.0051
  305MOL0     C41065   8.616   9.584   4.407 -0.8185 -0.5625  0.3918
  305MOL0     C41066   8.591   9.467   4.472 -0.6482 -0.3659  0.2834
  305MOL0     C41067   8.464   9.426   4.497  0.1633 -0.2324  0.0880
  305MOL0     C41068   8.456   9.286   4.557  0.1985 -0.1881  0.2679
  305MOL0     C41069   8.350   9.505   4.452 -0.5125  0.0076  0.1331
  305MOL0     C41070   8.213   9.462   4.472 -1.0269  0.4519 -0.3748
  305MOL0     O41071   8.128   9.508   4.385  0.0616  0.1852 -0.1107
  305MOL0     C41072   7.994   9.473   4.411 -0.2920  0.5807  0.5764
  305MOL0     C41073   7.906   9.577   4.445 -0.0171 -0.2522  0.1239
  305MOL0     C41074   7.770   9.557   4.456  0.4889 -0.0736 -0.4723
  305MOL0     C41075   7.717   9.427   4.447 -0.3675 -0.3159 -0.4311
  305MOL0     O41076   7.583   9.399   4.455 -0.1536  0.7856 -0.1043
  305MOL0     C41077   7.486   9.487   4.393 -0.2523  0.0890 -0.4433
  305MOL0     C41078   7.376   9.403   4.333 -0.2984  1.1567  0.7268
  305MOL0     C41079   7.292   9.478   4.222  0.4328  0.2014 -0.4286
  305MOL0     C41080   7.189   9.392   4.143 -0.0974  0.5121  0.4345
  305MOL0     C41081   7.070   9.471   4.094 -0.8103  0.7699 -0.6396
  305MOL0     C41082   6.961   9.378   4.037  0.7632  0.3089  0.0975
  305MOL0     C41083   6.854   9.461   3.970  0.0928 -0.5669 -0.4664
  305MOL0     C41084   6.769   9.366   3.874 -0.3675 -0.1084  0.4484
  305MOL0    Cl41085   6.686   9.253   3.990 -0.0556 -0.4896  0.1148
  305MOL0     C41086   7.802   9.325   4.420 -0.1134  0.1951  0.4699
  305MOL0     C41087   7.935   9.346   4.390  0.6792 -0.4606 -0.1936
  305MOL0     O41088   8.192   9.381   4.562  0.1032 -0.5578  0.1510
  305MOL0     C41089   8.376   9.627   4.383 -0.0914  0.0229  0.1015
  305MOL0     C41090   8.510   9.663   4.358  0.2485  0.3745  0.4365
  305MOL0     N41091   8.520   9.790   3.780  1.2245  0.6811 -1.1708
  305MOL0     N41092   8.527   9.861   3.679 -0.1129  0.3216  0.0983
  305MOL0     C41093   9.571  10.485   3.365  0.3083  0.3780 -0.3437
  305MOL0     C41094   9.670  10.537   3.290 -0.2090  0.0450  0.2675
  305MOL0     C41095   9.881  10.750   2.954 -0.4506 -0.0262  0.7601
  305MOL0     C41096   9.968  10.660   2.884  0.6445 -0.4737  0.7215
  305MOL0     C41097  10.075  10.707   2.804 -0.0017 -0.2280 -0.0927
  305MOL0     C41098  10.104  10.840   2.787 -0.9917 -0.3808 -0.3719
  305MOL0     O41099  10.215  10.885   2.715 -0.0528 -0.1527  0.3978
  305MOL0     C41100  10.343  10.840   2.750  0.1259  0.4167  0.4364
  305MOL0     C41101  10.416  10.848   2.611 -0.5688  0.1912 -0.6778
  305MOL0     C41102  10.575  10.833   2.618 -0.2300  0.6282 -0.3412
  305MOL0     C41103  10.634  10.731   2.713  0.1335  0.1478  0.2045
  305MOL0     C41104  10.609  10.583   2.674 -0.0219 -1.1877 -0.1646
  305MOL0     C41105  10.576  10.466   2.650  1.2581 -0.2243 -0.2042
  305MOL0     C41106  10.021  10.927   2.861 -0.0866 -0.8288  0.5618
  305MOL0     C41107   9.912  10.889   2.942 -0.0394  0.0146  0.0514
  305MOL0     H41108   9.542  10.486   2.981 -0.3217  0.6704  0.6236
  305MOL0     H41109   9.381  10.360   3.108  2.2229 -1.8579 -0.3151
  305MOL0     H41110   9.510  10.187   3.421  1.9600 -0.8043  4.6211
  305MOL0     H41111   9.470  10.315   3.535  2.2104 -3.0685  2.0136
  305MOL0     H41112   9.393  10.110   3.610  1.4583  1.2765  0.2346
  305MOL0     H41113   9.260  10.227   3.584 -0.9909 -1.4330  0.1943
  305MOL0     H41114   9.236  10.104   3.336 -0.2064 -0.5843 -0.4563
  305MOL0     H41115   9.322   9.970   3.423 -0.0023 -0.5349  1.2298
  305MOL0     H41116   9.145   9.972   3.595  1.1245  0.2966 -0.8138
  305MOL0     H41117   9.078  10.113   3.514  1.4332  1.0191 -1.8174
  305MOL0     H41118   9.022   9.967   3.310 -0.1921 -2.5625 -0.3638
  305MOL0     H41119   9.074   9.832   3.417  0.3610 -0.7694 -1.3333
  305MOL0     H41120   8.902   9.900   3.581 -1.8732 -1.6211 -0.7422
  305MOL0     H41121   8.857  10.043   3.483  1.0067  1.4029  0.8864
  305MOL0     H41122   8.800   9.870   3.296  0.1590 -0.4400  0.2363
  305MOL0     H41123   8.822   9.743   3.417 -0.0923 -0.4753 -0.7347
  305MOL0     H41124   8.586   9.779   3.415 -1.9168 -0.7334  2.2169
  305MOL0     H41125   8.613   9.957   3.449  1.7023  1.0674  3.7329
  305MOL0     H41126   8.800   9.683   3.642 -1.2027 -2.4148  0.6297
  305MOL0     H41127   8.560   9.585   3.953 -0.4809  0.6562 -0.7009
  305MOL0     H41128   8.689   9.516   3.849 -2.1332  1.1709 -3.4875
  305MOL0     H41129   8.721   9.772   4.003 -0.0105  0.1794 -1.2058
  305MOL0     H41130   8.855   9.661   3.955  0.2943 -0.0089  0.1588
  305MOL0     H41131   8.816   9.505   4.115  1.0717  0.8811  1.6104
  305MOL0     H41132   8.647   9.536   4.151  1.1457 -1.6990 -1.3505
  305MOL0     H41133   8.759   9.763   4.234  0.5777  0.2102  2.8518
  305MOL0     H41134   8.897   9.662   4.249 -0.9355 -0.9552  1.3294
  305MOL0     H41135   8.675   9.405   4.503 -0.3294  0.2689  0.7085
  305MOL0     H41136   8.413   9.279   4.657  1.9056 -0.0894  1.0420
  305MOL0     H41137   8.405   9.214   4.491 -0.5423 -0.6060  1.2795
  305MOL0     H41138   8.557   9.249   4.574  1.6118  1.8185 -2.8164
  305MOL0     H41139   7.939   9.678   4.424  0.7736 -0.3549  0.8495
  305MOL0     H41140   7.704   9.642   4.469 -1.3120 -1.3871 -0.5665
  305MOL0     H41141   7.445   9.566   4.456  0.1891  0.6594 -0.8574
  305MOL0     H41142   7.546   9.540   4.318 -0.3503  2.0456  0.7882
  305MOL0     H41143   7.429   9.322   4.282 -0.8262  2.0206 -1.2776
  305MOL0     H41144   7.324   9.352   4.416  0.3716 -0.9612 -0.0831
  305MOL0     H41145   7.362   9.521   4.150  0.5483 -0.5289 -0.7610
  305MOL0     H41146   7.248   9.563   4.275  1.4227 -0.8224  2.2071
  305MOL0     H41147   7.252   9.345   4.067  0.7112 -1.5926  2.2638
  305MOL0     H41148   7.147   9.312   4.206  0.3324  1.2997  1.7721
  305MOL0     H41149   7.109   9.534   4.013  0.2022  0.4974 -0.3820
  305MOL0     H41150   7.030   9.539   4.169 -1.2749  0.5300 -0.6688
  305MOL0     H41151   6.999   9.299   3.971 -0.2317  1.7688 -2.3449
  305MOL0     H41152   6.909   9.329   4.120 -1.2066  0.3248 -1.0559
  305MOL0     H41153   6.896   9.533   3.899  1.3319 -2.3404 -1.6324
  305MOL0     H41154   6.788   9.518   4.036  0.2436  0.9060 -1.5199
  305MOL0     H41155   6.831   9.305   3.808 -3.0517 -1.1593 -1.2621
  305MOL0     H41156   6.699   9.426   3.816  0.7157  0.7633 -0.0060
  305MOL0     H41157   7.759   9.227   4.403 -0.2239  0.0206  1.7093
  305MOL0     H41158   8.003   9.263   4.372 -0.0249 -1.7476  2.6037
  305MOL0     H41159   8.291   9.679   4.341 -0.8708 -1.5601 -0.3651
  305MOL0     H41160   8.525   9.754   4.300  1.5122 -0.5875 -0.7892
  305MOL0     H41161   9.583  10.467   3.472  1.1389  2.2268 -0.0871
  305MOL0     H41162   9.754  10.588   3.337 -0.5168  3.2242 -2.2586
  305MOL0     H41163   9.954  10.553   2.895 -2.1116 -0.3230 -0.4849
  305MOL0     H41164  10.130  10.630   2.750 -1.0929 -2.6055  1.9565
  305MOL0     H41165  10.388  10.900   2.830  3.5740 -0.9547 -0.2700
  305MOL0     H41166  10.338  10.734   2.777 -2.0425 -0.0647 -1.6056
  305MOL0     H41167  10.392  10.938   2.553 -0.5085 -0.5364 -1.8724
  305MOL0     H41168  10.387  10.759   2.553  0.1468 -0.0295 -0.7065
  305MOL0     H41169  10.607  10.932   2.655 -1.0551 -0.5854  4.1714
  305MOL0     H41170  10.603  10.830   2.512  0.7194 -2.0087 -0.0716
  305MOL0     H41171  10.589  10.751   2.811  1.6593  0.9218  0.7846
  305MOL0     H41172  10.741  10.748   2.730 -0.0238  1.6062 -0.1009
  305MOL0     H41173  10.554  10.362   2.643 -0.9489  0.1119  0.7071
  305MOL0     H41174  10.039  11.034   2.860  2.4364 -1.1564  1.6881
  305MOL0     H41175   9.856  10.963   2.999  0.9494 -0.7146  2.0760
  306MOL0     O41176   4.032   0.912   0.564 -0.1589  0.2503 -0.7330
  306MOL0     C41177   4.061   0.987   0.472  0.6866  0.3603 -0.9019
  306MOL0     O41178   3.980   1.063   0.406  0.2862  0.0951 -0.3330
  306MOL0     C41179   3.858   1.071   0.457 -0.1850 -0.7626  0.7571
  306MOL0     C41180   3.751   0.987   0.422  0.7937 -0.0704 -0.3449
  306MOL0     C41181   3.629   1.017   0.476 -0.5487 -0.4779 -0.0511
  306MOL0     C41182   3.610   1.125   0.564 -0.4287 -0.8339 -0.8097
  306MOL0     O41183   3.484   1.174   0.599 -0.4803 -0.7905  0.3820
  306MOL0     C41184   3.365   1.121   0.545  0.5227 -0.0399 -0.6174
  306MOL0     C41185   3.260   1.228   0.520  0.2452 -0.5538 -0.1981
  306MOL0     C41186   3.150   1.175   0.429  0.1446 -0.0685 -0.8513
  306MOL0     C41187   3.043   1.285   0.426 -0.0353 -0.4625  0.6634
  306MOL0     C41188   2.944   1.266   0.305  0.2421 -0.5766 -0.4475
  306MOL0     C41189   2.881   1.129   0.308  0.3089  0.5667  0.4906
  306MOL0     C41190   2.768   1.130   0.201 -0.7337  0.8066 -0.7735
  306MOL0     C41191   2.685   1.001   0.242 -0.7118 -0.6966  0.1958
  306MOL0     N41192   2.575   0.972   0.145 -0.4363 -0.2270 -0.1982
  306MOL0     C41193   2.485   1.069   0.102 -0.3416 -0.2275  0.3335
  306MOL0     C41194   2.424   1.004  -0.002  0.0001  0.3365  0.2547
  306MOL0     C41195   2.315   1.048  -0.097  1.4181 -0.4493  0.2086
  306MOL0     C41196   2.174   1.011  -0.040 -0.4816 -0.7733  1.1843
  306MOL0     C41197   2.071   1.025  -0.157 -0.0913 -0.7531 -0.1936
  306MOL0     C41198   2.043   1.164  -0.206 -0.0420  0.8067  0.4656
  306MOL0     O41199   2.049   1.260  -0.098  0.8622 -0.0170 -0.4561
  306MOL0     C41200   1.929   1.321  -0.059  0.3083 -0.2433  1.0952
  306MOL0     C41201   1.844   1.258   0.036 -0.1161  0.1396 -0.2285
  306MOL0     C41202   1.722   1.308   0.086  0.5518 -0.6279  1.0008
  306MOL0     C41203   1.648   1.227   0.179  0.0855  0.5813 -0.0457
  306MOL0     C41204   1.684   1.438   0.039 -0.0757 -0.0285  0.6192
  306MOL0     C41205   1.568   1.506   0.091 -0.4322 -0.4647 -0.5798
  306MOL0     O41206   1.454   1.421   0.103  0.1741 -0.0157 -0.3336
  306MOL0     C41207   1.334   1.476   0.142  0.0794 -0.0292  0.4224
  306MOL0     C41208   1.265   1.420   0.254  1.1302  0.3795 -0.0346
  306MOL0     C41209   1.139   1.477   0.294 -0.3501 -0.5795 -0.7006
  306MOL0     C41210   1.080   1.578   0.227 -0.0105 -0.5249 -0.1729
  306MOL0     O41211   0.961   1.629   0.271 -0.3671  0.6340  0.1248
  306MOL0     C41212   0.905   1.747   0.209  0.2014 -1.1255 -0.9630
  306MOL0     C41213   0.841   1.720   0.073  0.0293  0.2901  0.1494
  306MOL0     C41214   0.720   1.629   0.072 -0.1684  0.5235 -1.2422
  306MOL0     C41215   0.673   1.621  -0.072  0.1589  0.6658 -0.0407
  306MOL0     C41216   0.582   1.499  -0.082  0.7893 -0.0607 -0.3401
  306MOL0     C41217   0.501   1.515  -0.214  0.0752  0.7913 -0.9910
  306MOL0     C41218   0.432   1.382  -0.252  0.2727  0.5953 -0.7100
  306MOL0     C41219   0.324   1.326  -0.155 -0.0935 -0.3700 -0.1392
  306MOL0    Cl41220   0.201   1.452  -0.118 -0.0634  0.3179  0.5822
  306MOL0     C41221   1.149   1.639   0.124 -0.4368  0.0098  0.3695
  306MOL0     C41222   1.266   1.578   0.077 -0.0246 -0.7167 -0.0670
  306MOL0     O41223   1.570   1.630   0.101  0.3693 -0.7331  0.3800
  306MOL0     C41224   1.773   1.506  -0.043  0.7222  0.2871  0.2919
  306MOL0     C41225   1.892   1.442  -0.091  0.2812  0.4835 -0.4149
  306MOL0     N41226   2.468   0.881  -0.027 -0.1818  0.0496 -0.3231
  306MOL0     N41227   2.566   0.865   0.064 -0.6555 -0.3699  0.7030
  306MOL0     C41228   3.718   1.205   0.598 -0.3651  0.1197  0.0348
  306MOL0     C41229   3.840   1.180   0.542 -1.2295 -0.1457  0.1827
  306MOL0     C41230   4.203   0.991   0.437 -0.1179 -0.3433  0.3028
  306MOL0     C41231   4.302   0.917   0.508  0.0991  0.1624  0.5801
  306MOL0     C41232   4.436   0.904   0.453  0.2345  0.5288 -0.8169
  306MOL0     C41233   4.471   0.976   0.343 -0.8451  1.0849  0.8557
  306MOL0     O41234   4.589   0.955   0.279  0.0427 -0.7835  0.4638
  306MOL0     C41235   4.706   0.967   0.358  0.0204 -1.2381  1.1471
  306MOL0     C41236   4.780   0.830   0.367 -0.5044 -0.4735 -1.0737
  306MOL0     C41237   4.805   0.765   0.230  0.5085 -0.4449  0.3738
  306MOL0     C41238   4.865   0.627   0.227  0.2813  0.1343 -0.0722
  306MOL0     C41239   5.008   0.645   0.256 -0.3969  0.3280 -0.7293
  306MOL0     C41240   5.118   0.665   0.299  0.5502  0.1664 -0.2958
  306MOL0     C41241   4.377   1.053   0.272 -0.8282 -0.7189 -0.0005
  306MOL0     C41242   4.246   1.061   0.328  0.2838  0.4706 -0.6819
  306MOL0     H41243   3.778   0.907   0.355  3.7685 -0.8092  1.5385
  306MOL0     H41244   3.546   0.955   0.444  0.8164 -2.9806  1.0021
  306MOL0     H41245   3.375   1.062   0.453 -1.6961  0.5228 -1.2550
  306MOL0     H41246   3.328   1.046   0.615  0.0778  1.3624  0.6950
  306MOL0     H41247   3.219   1.272   0.612 -1.1043  1.0703 -1.5339
  306MOL0     H41248   3.311   1.313   0.476 -0.0444  0.6992  1.7721
  306MOL0     H41249   3.192   1.163   0.329  0.0505  1.4587 -1.0905
  306MOL0     H41250   3.112   1.077   0.460 -0.5446  0.4210 -0.1216
  306MOL0     H41251   2.980   1.269   0.514 -0.2707  1.6582  0.9290
  306MOL0     H41252   3.088   1.385   0.430 -1.1346  0.0457  0.8118
  306MOL0     H41253   2.860   1.335   0.310 -1.0352 -2.1201  0.5136
  306MOL0     H41254   3.000   1.280   0.212  2.1598 -0.7243  0.6382
  306MOL0     H41255   2.945   1.043   0.285 -3.1959 -2.6936  1.7564
  306MOL0     H41256   2.841   1.106   0.407 -0.0918 -2.6728 -0.3043
  306MOL0     H41257   2.712   1.224   0.212 -0.9789  0.6485 -0.6709
  306MOL0     H41258   2.809   1.110   0.102 -0.6719 -2.6890 -0.1483
  306MOL0     H41259   2.647   1.007   0.344  0.3380  1.5816  0.5197
  306MOL0     H41260   2.755   0.918   0.237 -0.1137 -0.2263  0.6610
  306MOL0     H41261   2.469   1.169   0.141  3.6848  2.1670 -3.3075
  306MOL0     H41262   2.327   1.157  -0.103  2.9454 -0.6372 -0.8083
  306MOL0     H41263   2.326   1.009  -0.199  0.9610  0.8248 -0.3635
  306MOL0     H41264   2.138   1.082   0.036 -1.4408  0.5043 -0.4035
  306MOL0     H41265   2.171   0.909   0.001 -1.8207 -0.6734  1.3679
  306MOL0     H41266   1.977   0.976  -0.128 -0.7822  0.9602  0.6365
  306MOL0     H41267   2.087   0.964  -0.246 -1.3076  1.4357 -2.0211
  306MOL0     H41268   1.947   1.171  -0.259 -0.5596  0.8884  1.4009
  306MOL0     H41269   2.114   1.191  -0.285 -2.0406 -1.0135 -2.1513
  306MOL0     H41270   1.868   1.162   0.079  0.3063 -0.0249 -0.8189
  306MOL0     H41271   1.564   1.175   0.131 -0.4737  1.2428  0.2008
  306MOL0     H41272   1.712   1.150   0.224 -0.4361  1.3855  2.2108
  306MOL0     H41273   1.598   1.286   0.257  0.3654  0.9297 -0.1275
  306MOL0     H41274   1.298   1.334   0.311 -2.0287 -0.9682  0.0003
  306MOL0     H41275   1.083   1.443   0.381  1.6839  2.6482  2.1627
  306MOL0     H41276   0.826   1.775   0.279  1.6415  2.2509 -0.5043
  306MOL0     H41277   0.982   1.825   0.217 -0.1503 -0.9072  0.7574
  306MOL0     H41278   0.826   1.815   0.022  1.9854 -0.0742 -1.2241
  306MOL0     H41279   0.920   1.674   0.013 -0.0079  1.5599 -0.9108
  306MOL0     H41280   0.654   1.673   0.148  0.4476 -1.9220  0.8934
  306MOL0     H41281   0.741   1.528   0.111 -1.4450  0.4539 -0.6993
  306MOL0     H41282   0.636   1.721  -0.095  0.3741  0.7303 -0.1119
  306MOL0     H41283   0.761   1.611  -0.137 -0.8462  1.7123 -1.6151
  306MOL0     H41284   0.509   1.496  -0.001 -1.1922 -0.6251 -2.0507
  306MOL0     H41285   0.636   1.404  -0.090 -2.2245 -1.9555  0.1827
  306MOL0     H41286   0.419   1.583  -0.190 -0.5123 -0.6901  1.5063
  306MOL0     H41287   0.566   1.550  -0.295  1.1380  0.1864 -0.4231
  306MOL0     H41288   0.508   1.305  -0.268 -0.2171 -0.3444  1.1763
  306MOL0     H41289   0.384   1.408  -0.347  0.3716  1.6793 -0.4695
  306MOL0     H41290   0.375   1.301  -0.062  0.1634  1.7169  0.3352
  306MOL0     H41291   0.269   1.238  -0.190 -0.4096 -0.1520 -0.1990
  306MOL0     H41292   1.116   1.728   0.070 -0.5558 -0.0956  0.2676
  306MOL0     H41293   1.314   1.631  -0.005 -1.5941  0.7980 -0.0695
  306MOL0     H41294   1.737   1.600  -0.085  0.2149 -0.4859 -1.0651
  306MOL0     H41295   1.952   1.496  -0.163  1.2423 -0.5647 -0.4187
  306MOL0     H41296   3.709   1.308   0.632 -0.2096  0.0184  0.3845
  306MOL0     H41297   3.926   1.246   0.555 -1.2210 -0.2997  0.9602
  306MOL0     H41298   4.284   0.851   0.592 -1.2526  0.6565  0.7009
  306MOL0     H41299   4.518   0.841   0.488 -0.6543 -1.1779 -1.6712
  306MOL0     H41300   4.772   1.030   0.298 -1.9764 -0.9824 -0.9009
  306MOL0     H41301   4.682   1.007   0.457 -3.0230 -0.1451  0.0620
  306MOL0     H41302   4.724   0.768   0.437 -0.4498 -0.6784 -1.2083
  306MOL0     H41303   4.875   0.851   0.416  0.1399 -0.2173 -2.3898
  306MOL0     H41304   4.870   0.830   0.171  0.4907  1.3848  2.2469
  306MOL0     H41305   4.712   0.743   0.177 -0.4608  1.7960  1.0034
  306MOL0     H41306   4.854   0.586   0.126 -2.2755 -1.5663  0.8168
  306MOL0     H41307   4.815   0.565   0.301  1.4293  1.4398  1.8965
  306MOL0     H41308   5.211   0.696   0.341  0.0283 -0.3099  1.2977
  306MOL0     H41309   4.407   1.096   0.177  1.7542 -2.1461  0.0669
  306MOL0     H41310   4.175   1.108   0.261  1.4190  1.8206 -0.9912
  307MOL0     O41311   9.132   4.182   5.053 -0.2624  0.4702 -0.6217
  307MOL0     C41312   9.203   4.106   5.123 -0.3569  0.0471  0.5491
  307MOL0     O41313   9.202   3.969   5.132  0.8249  0.1267  0.1095
  307MOL0     C41314   9.125   3.886   5.056  0.6741  0.3150 -0.3149
  307MOL0     C41315   8.994   3.917   5.032  0.4003 -0.0730 -1.2249
  307MOL0     C41316   8.911   3.833   4.954  0.5384 -0.0960 -0.4146
  307MOL0     C41317   8.964   3.726   4.882  0.1982  1.0579 -0.1477
  307MOL0     O41318   8.892   3.647   4.795  0.3409 -0.0267  0.3220
  307MOL0     C41319   8.926   3.669   4.659 -0.2033  0.4621  0.1267
  307MOL0     C41320   8.803   3.732   4.590  0.0599  0.1855  0.0655
  307MOL0     C41321   8.824   3.757   4.436  0.5159  0.2021  1.0537
  307MOL0     C41322   8.700   3.838   4.370 -0.2478  0.4022 -0.6224
  307MOL0     C41323   8.744   3.910   4.245 -0.4963 -0.3407  0.0269
  307MOL0     C41324   8.642   3.986   4.168 -0.2857  0.0376 -0.8321
  307MOL0     C41325   8.583   4.104   4.254  0.4276  0.6501  0.1933
  307MOL0     C41326   8.510   4.208   4.167 -1.2275 -0.3570 -0.0704
  307MOL0     N41327   8.430   4.150   4.063 -0.0238 -0.3267  0.0098
  307MOL0     C41328   8.289   4.147   4.060 -0.2771  0.1273 -0.7519
  307MOL0     C41329   8.259   4.086   3.948  0.5477  0.2678  0.7370
  307MOL0     C41330   8.113   4.048   3.913 -0.1107  0.3672  0.1665
  307MOL0     C41331   8.010   4.159   3.965  0.0934 -0.2696 -0.0035
  307MOL0     C41332   7.876   4.096   3.925  1.2624 -0.3403 -0.9100
  307MOL0     C41333   7.778   4.212   3.932 -0.1454  0.7631  0.2442
  307MOL0     O41334   7.653   4.160   3.898 -0.1339  0.3788 -0.1821
  307MOL0     C41335   7.588   4.182   3.779 -0.2044 -0.5386 -0.2449
  307MOL0     C41336   7.455   4.162   3.785 -0.0774  0.8212  0.2724
  307MOL0     C41337   7.376   4.191   3.676 -1.0571 -0.0240  0.5775
  307MOL0     C41338   7.230   4.169   3.701  0.2702 -0.7996 -0.0164
  307MOL0     C41339   7.424   4.244   3.555 -0.7012  0.4842 -0.2150
  307MOL0     C41340   7.352   4.286   3.434  0.1033  0.8246  0.1722
  307MOL0     O41341   7.215   4.260   3.441 -0.0714 -0.1607 -0.7754
  307MOL0     C41342   7.142   4.285   3.325  1.1682 -0.8336 -0.5569
  307MOL0     C41343   7.178   4.235   3.197 -0.2959 -0.6924 -0.1438
  307MOL0     C41344   7.097   4.261   3.092 -0.0519 -0.0626  0.1301
  307MOL0     C41345   6.989   4.346   3.091  0.0865  0.2964 -1.2217
  307MOL0     O41346   6.923   4.390   2.972  0.3068 -0.3670 -0.5289
  307MOL0     C41347   6.900   4.293   2.872 -0.2516 -0.2405 -1.2482
  307MOL0     C41348   6.800   4.183   2.910 -0.3021  0.1610  0.3382
  307MOL0     C41349   6.663   4.222   2.861 -0.0083  0.0228  0.1517
  307MOL0     C41350   6.558   4.120   2.896  0.6234  0.4289  0.0183
  307MOL0     C41351   6.434   4.177   2.826 -0.6007  0.1303 -0.5091
  307MOL0     C41352   6.295   4.132   2.887  0.4861  0.0698  0.6757
  307MOL0     C41353   6.177   4.220   2.842 -0.0856 -0.5482  0.1077
  307MOL0     C41354   6.051   4.200   2.915  0.6324  0.7300  0.4701
  307MOL0    Cl41355   6.002   4.025   2.927 -0.0828 -0.5859  0.4922
  307MOL0     C41356   6.964   4.414   3.215 -0.1437 -0.2196 -0.4669
  307MOL0     C41357   7.034   4.375   3.338  0.2353  0.3352  0.5414
  307MOL0     O41358   7.410   4.346   3.344 -0.5825  0.4235 -0.3254
  307MOL0     C41359   7.562   4.273   3.549 -0.9699  0.7212  0.1753
  307MOL0     C41360   7.639   4.237   3.658 -1.0349  0.3354  0.3267
  307MOL0     N41361   8.374   4.061   3.868  0.2176 -0.2319 -0.2506
  307MOL0     N41362   8.470   4.115   3.935  0.1955  1.4112  0.2703
  307MOL0     C41363   9.106   3.703   4.900  0.0820 -0.8815 -0.3552
  307MOL0     C41364   9.186   3.787   4.978  0.1365  0.2184  0.3984
  307MOL0     C41365   9.322   4.171   5.189 -0.1037  0.6410  0.1850
  307MOL0     C41366   9.411   4.088   5.249 -0.1007  0.3867 -0.7209
  307MOL0     C41367   9.528   4.141   5.314  0.2953  0.0746 -0.0063
  307MOL0     C41368   9.556   4.282   5.310  0.6047  0.1362 -0.1512
  307MOL0     O41369   9.646   4.352   5.378  0.9104 -0.8150  0.1080
  307MOL0     C41370   9.768   4.293   5.410  0.0296  0.1160  0.6318
  307MOL0     C41371   9.844   4.381   5.511  0.0902  0.6633 -0.1866
  307MOL0     C41372   9.994   4.329   5.533  0.2200  0.4788  0.3341
  307MOL0     C41373  10.094   4.432   5.576  0.1843 -0.2373 -0.5865
  307MOL0     C41374  10.228   4.379   5.574  0.7751 -0.6728 -0.7119
  307MOL0     C41375  10.337   4.331   5.589 -0.4778 -0.9998 -0.3648
  307MOL0     C41376   9.454   4.360   5.257  0.5031  0.1442 -0.1209
  307MOL0     C41377   9.342   4.307   5.191 -0.2469  0.5954  0.6404
  307MOL0     H41378   8.951   4.000   5.087  1.9362 -1.4653  2.3544
  307MOL0     H41379   8.811   3.875   4.950  1.0143  0.9895 -2.7462
  307MOL0     H41380   9.023   3.720   4.657  0.7677 -1.1251  2.2186
  307MOL0     H41381   8.950   3.576   4.606  1.2096  1.0223 -0.2783
  307MOL0     H41382   8.723   3.657   4.594 -0.0141  0.2295 -0.4184
  307MOL0     H41383   8.765   3.814   4.651  1.2802  0.9152 -0.1172
  307MOL0     H41384   8.914   3.815   4.415  0.5946 -0.4149 -0.4159
  307MOL0     H41385   8.836   3.659   4.388 -0.1561 -0.7939  2.7923
  307MOL0     H41386   8.605   3.784   4.363  0.3776 -1.0053  1.0581
  307MOL0     H41387   8.670   3.906   4.450 -0.1359 -2.6456  2.2185
  307MOL0     H41388   8.820   3.982   4.278 -0.9366  3.0475 -5.2344
  307MOL0     H41389   8.796   3.841   4.179  3.4745  1.8700  0.5136
  307MOL0     H41390   8.682   4.027   4.075  1.8763  1.9403  0.8210
  307MOL0     H41391   8.562   3.912   4.153 -2.2303  1.4552  1.8167
  307MOL0     H41392   8.504   4.055   4.313 -0.2945  0.5547 -0.8285
  307MOL0     H41393   8.654   4.139   4.329 -1.0084 -1.6956  2.8644
  307MOL0     H41394   8.595   4.259   4.120 -2.1444  0.4610 -0.9023
  307MOL0     H41395   8.449   4.279   4.225  0.2845  0.2744  0.8092
  307MOL0     H41396   8.215   4.183   4.131 -1.1681 -2.0223 -0.4784
  307MOL0     H41397   8.098   4.025   3.807 -2.1808 -4.4409  1.2587
  307MOL0     H41398   8.087   3.955   3.963  0.6554 -1.1943 -2.1783
  307MOL0     H41399   8.023   4.261   3.929 -1.3054 -0.2690 -0.5932
  307MOL0     H41400   8.021   4.164   4.074  2.1656 -0.4734 -0.1719
  307MOL0     H41401   7.838   4.026   3.998 -3.8214  0.6103 -2.2647
  307MOL0     H41402   7.868   4.050   3.826 -1.2106 -1.5515 -0.2102
  307MOL0     H41403   7.820   4.293   3.871  0.1972 -0.0045 -0.5741
  307MOL0     H41404   7.771   4.242   4.037 -2.8387  3.0401 -0.4446
  307MOL0     H41405   7.410   4.127   3.877  0.0108 -1.3559 -0.4581
  307MOL0     H41406   7.174   4.263   3.691  0.7787 -0.2262  2.0222
  307MOL0     H41407   7.200   4.101   3.621 -2.5035 -0.3421  0.5158
  307MOL0     H41408   7.200   4.137   3.801 -1.6222  0.5315 -0.0988
  307MOL0     H41409   7.274   4.189   3.179 -0.1346  0.3277 -2.2251
  307MOL0     H41410   7.124   4.230   2.992 -2.6441 -0.3406 -0.5623
  307MOL0     H41411   6.873   4.334   2.774 -0.1906 -0.8772 -1.5384
  307MOL0     H41412   6.987   4.236   2.836 -0.7158 -0.4987 -1.9934
  307MOL0     H41413   6.827   4.086   2.868  0.6341  0.8169 -0.6471
  307MOL0     H41414   6.810   4.162   3.017 -1.3306  1.1932  0.6613
  307MOL0     H41415   6.669   4.237   2.753  1.8344 -1.8540 -0.0630
  307MOL0     H41416   6.628   4.318   2.900 -1.6070 -1.1650  1.8334
  307MOL0     H41417   6.578   4.015   2.873 -1.6976 -0.9804  3.5640
  307MOL0     H41418   6.549   4.122   3.005  1.9042 -0.7036  0.1703
  307MOL0     H41419   6.428   4.130   2.727  0.3203 -0.8812 -0.0971
  307MOL0     H41420   6.436   4.286   2.817 -4.0611  0.2366 -1.4577
  307MOL0     H41421   6.273   4.030   2.853 -2.9762  1.6495 -2.5382
  307MOL0     H41422   6.300   4.143   2.996 -1.7717  0.3057  0.8039
  307MOL0     H41423   6.153   4.200   2.737  2.0938  2.1974 -1.0490
  307MOL0     H41424   6.209   4.324   2.854 -0.0644 -0.3894 -1.1725
  307MOL0     H41425   5.962   4.252   2.877 -0.5358 -0.0458  2.0557
  307MOL0     H41426   6.064   4.233   3.018  0.4406  0.1335  0.6902
  307MOL0     H41427   6.891   4.495   3.215 -0.2418 -0.1649  2.5284
  307MOL0     H41428   7.019   4.406   3.441  0.8309  0.6310  0.5423
  307MOL0     H41429   7.610   4.323   3.465 -1.4081 -2.7945 -2.4060
  307MOL0     H41430   7.747   4.238   3.657 -1.0372  0.5026  0.0031
  307MOL0     H41431   9.147   3.619   4.845  0.7786  1.0176 -2.9090
  307MOL0     H41432   9.291   3.761   4.987  0.0482 -1.7154 -2.7524
  307MOL0     H41433   9.389   3.983   5.264 -2.1479  0.4526 -2.7806
  307MOL0     H41434   9.590   4.073   5.372 -0.3359 -0.5493 -0.0453
  307MOL0     H41435   9.756   4.188   5.440 -0.2512 -0.5117 -1.4822
  307MOL0     H41436   9.818   4.283   5.313 -2.3853  0.3513 -0.7098
  307MOL0     H41437   9.799   4.392   5.610  2.1169  3.2219  0.5650
  307MOL0     H41438   9.842   4.479   5.463 -1.3688 -0.3872 -2.4389
  307MOL0     H41439  10.023   4.282   5.438 -0.2053 -1.7953  1.2540
  307MOL0     H41440   9.982   4.245   5.602  1.4843  0.3169  0.3907
  307MOL0     H41441  10.072   4.441   5.683 -2.2395  0.2388 -1.0824
  307MOL0     H41442  10.088   4.529   5.525 -0.9310 -0.1425 -0.2888
  307MOL0     H41443  10.440   4.307   5.599  0.1229  1.4957  0.2145
  307MOL0     H41444   9.482   4.464   5.269  1.5697 -0.1240 -0.1453
  307MOL0     H41445   9.275   4.370   5.134 -2.8187 -1.2069  1.5033
  308MOL0     O41446  11.120   1.925   9.018 -0.2241  0.2223 -0.6765
  308MOL0     C41447  11.115   2.002   9.116 -0.2027 -0.0435  0.0536
  308MOL0     O41448  11.008   2.067   9.160 -0.0555 -0.3592  1.0916
  308MOL0     C41449  10.888   2.062   9.087 -0.2064  0.6612 -1.0131
  308MOL0     C41450  10.869   2.135   8.970  0.2501  0.2492  0.8541
  308MOL0     C41451  10.747   2.130   8.900 -0.2821  1.2285  0.3743
  308MOL0     C41452  10.639   2.054   8.953 -0.2825 -0.5994  0.0121
  308MOL0     O41453  10.526   2.036   8.882  0.4736  0.1966 -0.7734
  308MOL0     C41454  10.466   2.142   8.814  0.1848 -0.3536  1.0997
  308MOL0     C41455  10.312   2.117   8.813 -0.1025 -0.4187 -1.2551
  308MOL0     C41456  10.279   1.998   8.722 -0.1498 -1.1543 -0.4726
  308MOL0     C41457  10.131   1.957   8.718  0.3683  0.6111  1.1494
  308MOL0     C41458  10.097   1.848   8.618  0.4772 -0.4289 -0.3491
  308MOL0     C41459   9.963   1.770   8.642  0.4929  0.2520  0.3139
  308MOL0     C41460   9.964   1.639   8.569  0.0532 -0.4666  1.1554
  308MOL0     C41461   9.840   1.551   8.610 -0.5997  0.4326  0.0667
  308MOL0     N41462   9.714   1.607   8.559 -0.9815 -0.5205 -0.1666
  308MOL0     C41463   9.660   1.577   8.435  0.5170 -0.0016  0.3533
  308MOL0     C41464   9.556   1.657   8.419  0.0669  0.2272  0.1331
  308MOL0     C41465   9.474   1.656   8.292 -0.0292  0.7667  0.2955
  308MOL0     C41466   9.343   1.570   8.308 -0.1473  0.0550 -0.1840
  308MOL0     C41467   9.274   1.535   8.168  0.6114 -0.2196  0.8860
  308MOL0     C41468   9.129   1.479   8.173 -0.7523 -0.2352  0.7660
  308MOL0     O41469   9.048   1.564   8.256 -0.2097  0.0671 -0.1135
  308MOL0     C41470   8.912   1.584   8.239  0.8214 -0.4977 -0.4833
  308MOL0     C41471   8.858   1.689   8.313  0.7433  0.3439  0.0067
  308MOL0     C41472   8.724   1.718   8.295 -0.4811 -0.4689  0.3035
  308MOL0     C41473   8.671   1.834   8.375  0.0013  0.4268 -0.4141
  308MOL0     C41474   8.640   1.636   8.209  0.1902  0.4643 -0.6433
  308MOL0     C41475   8.494   1.653   8.184 -0.7917 -0.4176 -0.3527
  308MOL0     O41476   8.430   1.765   8.228 -0.0237  0.1583  0.5689
  308MOL0     C41477   8.294   1.763   8.265  0.0094  0.0073  0.4137
  308MOL0     C41478   8.219   1.659   8.320 -0.3191  0.0967  0.3025
  308MOL0     C41479   8.082   1.676   8.357 -0.5374 -0.1576  0.0916
  308MOL0     C41480   8.026   1.804   8.348 -0.2746  0.5777  0.6334
  308MOL0     O41481   7.896   1.841   8.375 -0.5619 -0.4674  0.2897
  308MOL0     C41482   7.825   1.736   8.442  0.2200 -0.0091 -0.5672
  308MOL0     C41483   7.676   1.789   8.465  0.2522  0.0012  0.2220
  308MOL0     C41484   7.580   1.763   8.347  0.4001  0.7440  0.3599
  308MOL0     C41485   7.446   1.849   8.333 -0.5434  0.4538  0.5583
  308MOL0     C41486   7.348   1.780   8.232 -0.1140 -0.6890  0.1815
  308MOL0     C41487   7.233   1.886   8.198  0.2235  0.2248 -0.9419
  308MOL0     C41488   7.135   1.901   8.324  0.3883 -0.3224  0.1859
  308MOL0     C41489   7.026   2.012   8.298  0.0866  0.2788 -0.0176
  308MOL0    Cl41490   6.905   1.966   8.179 -0.6408  0.0171 -0.6607
  308MOL0     C41491   8.104   1.905   8.288 -0.5554  0.5241 -0.9952
  308MOL0     C41492   8.239   1.889   8.260  0.3074 -0.6633  0.0540
  308MOL0     O41493   8.441   1.552   8.141 -0.2288 -0.1792 -0.1369
  308MOL0     C41494   8.707   1.531   8.140  0.6399 -0.4923  0.0601
  308MOL0     C41495   8.840   1.510   8.148 -0.3740  0.4945  0.0324
  308MOL0     N41496   9.544   1.729   8.533 -0.3917  0.5100  0.1868
  308MOL0     N41497   9.634   1.690   8.620  0.6777 -0.5518 -0.2485
  308MOL0     C41498  10.649   2.004   9.081 -0.4849  0.6382 -0.3934
  308MOL0     C41499  10.778   2.001   9.147 -0.0765  0.0208 -0.2967
  308MOL0     C41500  11.239   2.034   9.187 -0.3809 -0.3560  0.0663
  308MOL0     C41501  11.240   2.097   9.318  0.2653  0.2844  0.1351
  308MOL0     C41502  11.363   2.125   9.388  0.1293  0.4827  1.3329
  308MOL0     C41503  11.490   2.103   9.326 -0.2583 -0.4459 -0.0730
  308MOL0     O41504  11.601   2.130   9.402 -0.6719 -0.1395 -0.4611
  308MOL0     C41505  11.666   2.253   9.381  0.5822  0.8052 -0.3722
  308MOL0     C41506  11.805   2.255   9.321  0.0027  0.3075 -0.1347
  308MOL0     C41507  11.891   2.382   9.350 -0.1531 -0.5929 -0.5754
  308MOL0     C41508  11.938   2.391   9.499 -0.7647 -0.3973 -0.1795
  308MOL0     C41509  12.048   2.300   9.512 -0.2994 -1.2578  0.2723
  308MOL0     C41510  12.148   2.233   9.505  0.7960  0.1902 -0.0767
  308MOL0     C41511  11.493   2.054   9.199  0.3843 -1.0234  0.2192
  308MOL0     C41512  11.373   2.011   9.135  0.7267 -0.0270  0.2613
  308MOL0     H41513  10.956   2.184   8.927 -1.0561  0.1097 -2.1355
  308MOL0     H41514  10.742   2.195   8.813  0.0694  2.2855  1.1216
  308MOL0     H41515  10.492   2.235   8.865 -0.5389 -0.8194  2.3535
  308MOL0     H41516  10.502   2.136   8.711 -1.3564 -2.7629  0.6113
  308MOL0     H41517  10.269   2.110   8.913  0.0775 -2.6105 -1.2863
  308MOL0     H41518  10.275   2.206   8.762  3.4609  2.0041  0.0355
  308MOL0     H41519  10.307   2.031   8.621  0.7518 -0.4475 -0.0140
  308MOL0     H41520  10.341   1.911   8.747  2.6209  0.7433 -0.1899
  308MOL0     H41521  10.101   1.914   8.814 -2.0789 -0.0497  0.1525
  308MOL0     H41522  10.064   2.040   8.693 -0.5980  0.2732  2.4787
  308MOL0     H41523  10.085   1.893   8.519 -1.5530  2.8432  1.2233
  308MOL0     H41524  10.181   1.777   8.608  0.1724 -0.5592 -2.5910
  308MOL0     H41525   9.955   1.749   8.749  2.1455  1.7732  0.7870
  308MOL0     H41526   9.872   1.823   8.612  0.2624  1.6881  3.2202
  308MOL0     H41527   9.976   1.653   8.461  1.1614 -0.3677  1.2773
  308MOL0     H41528  10.059   1.592   8.598  2.0991  1.6477 -1.5968
  308MOL0     H41529   9.828   1.542   8.718 -1.3833  1.6900  0.1070
  308MOL0     H41530   9.849   1.453   8.564 -3.4284  1.9380 -4.2295
  308MOL0     H41531   9.689   1.497   8.367 -0.9528 -2.1556  2.1108
  308MOL0     H41532   9.443   1.760   8.276  1.7019  1.2724  0.1329
  308MOL0     H41533   9.528   1.613   8.208  0.1740 -1.5766  1.5203
  308MOL0     H41534   9.275   1.628   8.371 -1.3923 -1.9189  0.3694
  308MOL0     H41535   9.374   1.482   8.365  3.7720  0.5559 -1.2470
  308MOL0     H41536   9.340   1.461   8.123 -1.0406 -2.6043  2.1480
  308MOL0     H41537   9.272   1.633   8.120  1.8003  0.2837  1.8164
  308MOL0     H41538   9.132   1.371   8.193 -1.4703 -1.0389 -2.7806
  308MOL0     H41539   9.094   1.484   8.070 -0.6355 -0.3249  0.7211
  308MOL0     H41540   8.927   1.739   8.380  1.1899  2.1829 -1.7415
  308MOL0     H41541   8.648   1.910   8.299  4.5834  0.4373 -2.1036
  308MOL0     H41542   8.583   1.802   8.430 -1.3715  3.2906 -0.7349
  308MOL0     H41543   8.750   1.882   8.434  0.4802 -1.7629  0.8096
  308MOL0     H41544   8.261   1.560   8.329 -0.0825 -0.1531 -2.6356
  308MOL0     H41545   8.036   1.592   8.408  0.7075 -2.0267 -1.7092
  308MOL0     H41546   7.816   1.655   8.369  2.3193 -0.2037 -0.6518
  308MOL0     H41547   7.880   1.699   8.529  2.3788 -2.7779 -2.8876
  308MOL0     H41548   7.648   1.738   8.558 -0.1478 -0.3983 -0.1139
  308MOL0     H41549   7.680   1.897   8.477 -0.3092  0.2503 -1.5185
  308MOL0     H41550   7.539   1.663   8.363 -0.0585  1.1422  1.8515
  308MOL0     H41551   7.644   1.757   8.259  0.9458  0.8934  0.7452
  308MOL0     H41552   7.398   1.847   8.431  3.5932 -5.2808  3.0642
  308MOL0     H41553   7.481   1.952   8.314  2.7808 -0.2899  1.8031
  308MOL0     H41554   7.312   1.684   8.271  0.5545 -2.0294 -2.3113
  308MOL0     H41555   7.396   1.762   8.136 -0.8841  2.1114 -0.8292
  308MOL0     H41556   7.269   1.989   8.181  0.4835  0.5948  1.4795
  308MOL0     H41557   7.173   1.850   8.114 -1.9204 -0.2949  0.7290
  308MOL0     H41558   7.191   1.924   8.415  0.7124 -2.1601  0.4964
  308MOL0     H41559   7.085   1.805   8.341 -1.1872  0.5452  0.6597
  308MOL0     H41560   7.075   2.102   8.261 -2.0567  1.0201 -1.2273
  308MOL0     H41561   6.971   2.041   8.388  1.7218  0.4794  0.9544
  308MOL0     H41562   8.057   2.002   8.273  3.1944  2.5909 -0.9059
  308MOL0     H41563   8.288   1.979   8.224 -0.4982  1.2063  3.2216
  308MOL0     H41564   8.657   1.461   8.074  2.4426 -1.0062 -0.8201
  308MOL0     H41565   8.875   1.418   8.103  2.6844  0.5381  2.0051
  308MOL0     H41566  10.562   1.956   9.124  1.0315 -1.3305  0.6917
  308MOL0     H41567  10.781   1.947   9.241  0.4138  0.1905 -0.2128
  308MOL0     H41568  11.148   2.113   9.374  0.6682  0.7275  0.6833
  308MOL0     H41569  11.360   2.161   9.490  0.3639  0.1947  1.4425
  308MOL0     H41570  11.606   2.310   9.309  1.5972  0.5448 -1.4489
  308MOL0     H41571  11.665   2.307   9.477 -1.5974 -0.7916  0.6087
  308MOL0     H41572  11.785   2.244   9.214 -2.7509  3.6998 -0.1267
  308MOL0     H41573  11.859   2.167   9.357  0.6425  1.0797  0.8675
  308MOL0     H41574  11.829   2.471   9.333  0.7834  0.3138  0.5617
  308MOL0     H41575  11.976   2.395   9.284 -0.2590 -1.0000 -0.7953
  308MOL0     H41576  11.855   2.366   9.566  0.1792  0.0688  1.2125
  308MOL0     H41577  11.990   2.483   9.527 -0.6684 -0.2285 -0.8925
  308MOL0     H41578  12.222   2.155   9.502  1.5525  0.8929 -2.6994
  308MOL0     H41579  11.588   2.041   9.149  0.4052  1.2723 -0.4484
  308MOL0     H41580  11.382   1.973   9.034  3.6455  1.4513 -0.1375
  309MOL0     O41581  10.977   2.135   1.633 -0.5792  0.5379 -0.7144
  309MOL0     C41582  11.053   2.230   1.646  0.5748  0.1741 -0.5059
  309MOL0     O41583  11.079   2.326   1.540 -0.3118 -0.1553 -0.3324
  309MOL0     C41584  10.993   2.349   1.439 -0.2645  0.7592  0.0823
  309MOL0     C41585  10.856   2.322   1.441  0.3262 -0.1429  0.6157
  309MOL0     C41586  10.782   2.368   1.323 -0.4518  0.9070 -0.0946
  309MOL0     C41587  10.846   2.431   1.211  0.1358 -0.1329  0.4200
  309MOL0     O41588  10.757   2.473   1.116 -0.6871  0.1721 -1.1336
  309MOL0     C41589  10.802   2.505   0.988 -0.6614  0.0493 -0.3807
  309MOL0     C41590  10.699   2.570   0.906 -0.1955 -0.0362 -0.6824
  309MOL0     C41591  10.565   2.492   0.888  0.1109  0.2287 -0.0938
  309MOL0     C41592  10.565   2.374   0.797 -0.0107  0.7903 -0.0128
  309MOL0     C41593  10.459   2.274   0.814  0.0131 -0.5558  0.2456
  309MOL0     C41594  10.329   2.336   0.780  0.3763 -0.0289 -0.5165
  309MOL0     C41595  10.219   2.227   0.792  0.5627  0.2177  0.2168
  309MOL0     C41596  10.079   2.290   0.776  0.4035  0.7656  0.1680
  309MOL0     N41597  10.061   2.351   0.642 -0.3699 -0.7455 -0.3814
  309MOL0     C41598   9.984   2.289   0.550  0.8481  0.4357  0.3519
  309MOL0     C41599   9.980   2.381   0.449  0.7266 -0.0143 -0.4443
  309MOL0     C41600   9.897   2.378   0.327  0.3957 -0.1365  0.1483
  309MOL0     C41601   9.797   2.491   0.330 -0.4750  0.5631 -0.2227
  309MOL0     C41602   9.692   2.487   0.440  0.2803  0.3373 -0.1779
  309MOL0     C41603   9.571   2.403   0.403  0.1489 -0.3083  0.7705
  309MOL0     O41604   9.478   2.432   0.506 -0.3943 -0.3921 -0.2469
  309MOL0     C41605   9.352   2.385   0.502  0.3795  0.0540  0.0272
  309MOL0     C41606   9.266   2.434   0.594 -0.5937 -0.4090  0.1728
  309MOL0     C41607   9.139   2.378   0.623 -0.4049 -0.1551  0.4402
  309MOL0     C41608   9.077   2.423   0.750  0.3375 -0.3317 -0.3175
  309MOL0     C41609   9.095   2.273   0.539  0.8776 -0.0780 -0.1244
  309MOL0     C41610   8.977   2.190   0.556  0.3747 -0.1617 -1.5245
  309MOL0     O41611   8.919   2.196   0.678 -0.2877 -0.0552 -0.8892
  309MOL0     C41612   8.815   2.108   0.708 -0.4713 -0.4524  0.6872
  309MOL0     C41613   8.689   2.153   0.757  1.0592 -0.5070  1.0343
  309MOL0     C41614   8.580   2.072   0.782  0.4380 -0.4716  1.0357
  309MOL0     C41615   8.591   1.933   0.763 -0.4158  0.5826  0.2649
  309MOL0     O41616   8.479   1.857   0.794  0.2029  0.0591  0.3366
  309MOL0     C41617   8.469   1.727   0.724  0.0328 -0.3604  0.1036
  309MOL0     C41618   8.332   1.654   0.751 -0.3024  0.2547 -0.6210
  309MOL0     C41619   8.212   1.754   0.734 -0.1023  0.4274  0.3685
  309MOL0     C41620   8.080   1.682   0.695 -0.0646 -0.0469 -0.0423
  309MOL0     C41621   7.950   1.766   0.700  0.5302  0.4463 -0.4577
  309MOL0     C41622   7.837   1.724   0.607  0.3403  0.0170  0.1618
  309MOL0     C41623   7.792   1.595   0.663  0.1873  0.8222  0.2514
  309MOL0     C41624   7.640   1.593   0.654 -0.9254  0.0032 -0.5596
  309MOL0    Cl41625   7.560   1.621   0.498 -0.0562 -0.5912 -0.1443
  309MOL0     C41626   8.713   1.886   0.714 -0.6377 -0.1868 -0.4358
  309MOL0     C41627   8.824   1.971   0.688  0.7052 -0.2504 -0.2349
  309MOL0     O41628   8.939   2.123   0.459  0.0779  0.4807 -0.0934
  309MOL0     C41629   9.173   2.245   0.421  0.8153 -0.8735 -1.0385
  309MOL0     C41630   9.305   2.293   0.412 -0.5494  0.3876 -0.5389
  309MOL0     N41631  10.054   2.491   0.490 -0.1582 -0.2759 -0.8129
  309MOL0     N41632  10.099   2.473   0.604  0.1523 -0.4316 -0.3175
  309MOL0     C41633  10.983   2.461   1.231  0.9710  0.3300  0.2235
  309MOL0     C41634  11.056   2.411   1.330 -0.0567 -0.2040  0.1246
  309MOL0     C41635  11.113   2.253   1.779 -0.0720 -0.5992 -0.6863
  309MOL0     C41636  11.170   2.374   1.810 -0.6147  0.4243  0.9733
  309MOL0     C41637  11.227   2.396   1.936  0.1604 -0.0117  0.0148
  309MOL0     C41638  11.231   2.299   2.037 -0.6965 -0.2335 -0.0454
  309MOL0     O41639  11.317   2.327   2.144  0.2887 -0.2349  0.5059
  309MOL0     C41640  11.346   2.221   2.235 -0.0083  0.3781 -0.7557
  309MOL0     C41641  11.441   2.261   2.353 -0.3962  1.4551 -0.0843
  309MOL0     C41642  11.469   2.150   2.467 -0.6974 -0.0261 -0.2309
  309MOL0     C41643  11.516   2.207   2.600  0.1504  0.5443 -0.2810
  309MOL0     C41644  11.402   2.268   2.673 -0.3626  0.7296  0.6703
  309MOL0     C41645  11.307   2.318   2.723 -1.1537  0.3625 -0.4202
  309MOL0     C41646  11.164   2.178   2.010 -0.6429 -0.1051  0.6201
  309MOL0     C41647  11.104   2.158   1.884  0.4033  0.1470 -0.3122
  309MOL0     H41648  10.812   2.266   1.523 -1.6180  1.2876  0.6087
  309MOL0     H41649  10.675   2.354   1.318 -0.2386 -0.4751 -2.1504
  309MOL0     H41650  10.885   2.575   0.994 -2.9652  2.9954 -0.8332
  309MOL0     H41651  10.846   2.413   0.948  1.3486  1.2341 -0.9826
  309MOL0     H41652  10.668   2.662   0.955 -0.1338  0.3799 -1.4109
  309MOL0     H41653  10.739   2.593   0.807  2.1452 -0.9033 -0.0035
  309MOL0     H41654  10.532   2.455   0.985  0.3903 -0.1680 -0.1490
  309MOL0     H41655  10.485   2.553   0.843  0.4018  0.7860  0.1318
  309MOL0     H41656  10.572   2.408   0.693 -0.0007 -1.4062 -0.7769
  309MOL0     H41657  10.660   2.321   0.803 -1.2324 -1.5741 -0.4018
  309MOL0     H41658  10.481   2.193   0.744 -1.4146  0.5158 -1.5490
  309MOL0     H41659  10.453   2.241   0.918 -0.6908 -3.0517 -0.5320
  309MOL0     H41660  10.311   2.420   0.849 -0.8102 -0.5843 -0.1162
  309MOL0     H41661  10.326   2.374   0.677  4.7872 -2.7913 -1.9049
  309MOL0     H41662  10.232   2.141   0.725  1.7678  0.0147  0.6840
  309MOL0     H41663  10.224   2.193   0.896 -2.0718  1.1042  0.6949
  309MOL0     H41664  10.071   2.362   0.859  0.9363  1.8887 -0.7266
  309MOL0     H41665  10.007   2.208   0.780 -0.6140  1.3101 -3.3975
  309MOL0     H41666   9.930   2.195   0.551  0.9099  0.3934 -0.2870
  309MOL0     H41667   9.952   2.396   0.234 -1.1613  1.1947 -0.5667
  309MOL0     H41668   9.840   2.286   0.316  2.6227 -1.3559 -2.7220
  309MOL0     H41669   9.733   2.489   0.242 -0.2924 -0.5448 -0.3420
  309MOL0     H41670   9.852   2.585   0.335  0.3780  0.0156  2.1681
  309MOL0     H41671   9.658   2.591   0.447  2.0611  0.9711 -0.4088
  309MOL0     H41672   9.728   2.451   0.537  0.5345 -0.0088 -0.3991
  309MOL0     H41673   9.606   2.300   0.398 -1.6623 -1.1771  3.4271
  309MOL0     H41674   9.535   2.426   0.302 -1.2786  1.2098  1.5782
  309MOL0     H41675   9.304   2.518   0.652 -1.4605 -0.3769  0.7163
  309MOL0     H41676   9.092   2.347   0.827 -1.5623 -3.3466 -2.6759
  309MOL0     H41677   9.117   2.519   0.782  1.3835 -1.2768  1.3812
  309MOL0     H41678   8.970   2.441   0.737  0.2953 -0.8507 -0.7343
  309MOL0     H41679   8.682   2.259   0.776 -0.6927 -0.3648 -0.1579
  309MOL0     H41680   8.486   2.112   0.818  0.0945  0.0352 -0.3603
  309MOL0     H41681   8.466   1.753   0.618 -0.0182 -0.3447  0.1096
  309MOL0     H41682   8.545   1.659   0.762 -1.4540 -0.9116  2.2770
  309MOL0     H41683   8.326   1.570   0.681  0.7994 -0.8858  0.5791
  309MOL0     H41684   8.334   1.614   0.853 -0.6478 -0.5693 -0.9247
  309MOL0     H41685   8.232   1.833   0.661  0.3839  1.2164  1.3257
  309MOL0     H41686   8.204   1.795   0.835  0.6188  0.5846  0.3665
  309MOL0     H41687   8.093   1.642   0.595 -0.5157  1.4249 -0.7174
  309MOL0     H41688   8.070   1.603   0.770 -1.2295  2.3892  2.5559
  309MOL0     H41689   7.975   1.869   0.676 -2.3311  1.2606 -0.3200
  309MOL0     H41690   7.920   1.754   0.804 -1.2672  1.7015 -0.7889
  309MOL0     H41691   7.756   1.797   0.611 -0.5698 -0.8763 -1.2523
  309MOL0     H41692   7.874   1.715   0.505 -0.7308  2.4363 -0.5294
  309MOL0     H41693   7.819   1.575   0.767 -1.9867 -0.8597  0.5748
  309MOL0     H41694   7.839   1.513   0.607 -0.9399  0.3874 -0.1049
  309MOL0     H41695   7.601   1.666   0.724 -0.2553  0.6997 -0.8998
  309MOL0     H41696   7.603   1.494   0.683  1.0775 -0.9077 -0.9916
  309MOL0     H41697   8.730   1.780   0.698  2.1921  0.0542  0.5374
  309MOL0     H41698   8.920   1.935   0.652  2.0280  3.1750 -0.4587
  309MOL0     H41699   9.134   2.171   0.352 -2.1052  0.9239 -1.4776
  309MOL0     H41700   9.375   2.252   0.340 -0.6818 -1.7837  0.4596
  309MOL0     H41701  11.032   2.504   1.144 -0.0160 -0.0904 -0.5679
  309MOL0     H41702  11.160   2.440   1.319 -0.2972  1.7764  2.1775
  309MOL0     H41703  11.178   2.460   1.744  0.2131  1.1441  1.9812
  309MOL0     H41704  11.278   2.491   1.954  2.4218 -1.2227  0.4152
  309MOL0     H41705  11.259   2.168   2.275  1.3896 -0.6696  1.0688
  309MOL0     H41706  11.399   2.139   2.186 -0.6607 -0.6770  0.2562
  309MOL0     H41707  11.398   2.340   2.414  1.0696  0.6370  2.1264
  309MOL0     H41708  11.540   2.290   2.317  1.2468 -1.5655  1.5623
  309MOL0     H41709  11.538   2.080   2.420  0.1713  2.0191 -2.1436
  309MOL0     H41710  11.385   2.082   2.485  0.1496 -1.1388 -0.3242
  309MOL0     H41711  11.599   2.275   2.579  0.6315  0.5789  1.5842
  309MOL0     H41712  11.550   2.127   2.666  0.7045 -0.3328 -1.5941
  309MOL0     H41713  11.230   2.376   2.770  1.1631  1.5985  2.1063
  309MOL0     H41714  11.162   2.099   2.085 -2.7638 -1.1683 -0.4532
  309MOL0     H41715  11.053   2.063   1.865 -2.4836  1.8229 -1.6548
  310MOL0     O41716  10.871  10.856   4.058 -0.0840 -0.5285 -0.1507
  310MOL0     C41717  10.868  10.926   4.160 -0.3301  0.1002  0.2134
  310MOL0     O41718  10.758  10.981   4.220 -0.6559 -0.7373 -0.5463
  310MOL0     C41719  10.642  10.923   4.182  0.1353  0.6703 -0.3822
  310MOL0     C41720  10.581  10.815   4.252  0.6565  0.2357 -0.7102
  310MOL0     C41721  10.461  10.758   4.212  0.1201  0.0719 -0.5245
  310MOL0     C41722  10.401  10.815   4.101 -0.3515  0.0631  0.3715
  310MOL0     O41723  10.287  10.777   4.051 -0.6835 -0.1486 -0.0978
  310MOL0     C41724  10.180  10.779   4.143  0.2154  0.5883 -0.5919
  310MOL0     C41725  10.046  10.764   4.067  0.5742  0.7863 -0.4574
  310MOL0     C41726   9.920  10.758   4.166 -0.0293 -0.5429 -0.3680
  310MOL0     C41727   9.793  10.745   4.087 -0.0137 -0.1763 -0.4563
  310MOL0     C41728   9.673  10.743   4.181  0.7006 -0.5972  0.0278
  310MOL0     C41729   9.559  10.825   4.121 -0.1079 -0.5771 -0.1505
  310MOL0     C41730   9.459  10.850   4.235  0.0551 -0.3874 -0.4418
  310MOL0     C41731   9.340  10.933   4.197  0.8149  0.2623  0.0924
  310MOL0     N41732   9.262  10.959   4.316 -0.3904 -0.2211  0.3923
  310MOL0     C41733   9.246  11.081   4.374 -0.5704 -0.1691 -0.3759
  310MOL0     C41734   9.132  11.075   4.449 -0.4606 -0.0561  0.1843
  310MOL0     C41735   9.091  11.186   4.536 -0.1853  0.4319 -0.7892
  310MOL0     C41736   8.973  11.265   4.473  0.0182  0.0978 -0.2747
  310MOL0     C41737   8.909  11.336   4.586  0.4360  1.0181  0.1464
  310MOL0     C41738   8.789  11.412   4.544  0.6373 -0.0052  1.0533
  310MOL0     O41739   8.832  11.524   4.464 -0.6210 -0.2661  0.4706
  310MOL0     C41740   8.748  11.568   4.359 -0.8578  0.2333 -0.1040
  310MOL0     C41741   8.609  11.600   4.380  0.2200  0.2052  0.1519
  310MOL0     C41742   8.523  11.627   4.275  0.0530  0.5314  0.2471
  310MOL0     C41743   8.377  11.661   4.314 -0.3412  1.2380  0.4538
  310MOL0     C41744   8.571  11.641   4.137 -0.3574  0.0668  0.3839
  310MOL0     C41745   8.490  11.677   4.016  0.2408 -0.1137 -0.0432
  310MOL0     O41746   8.551  11.683   3.891  0.1319  0.2214  0.4628
  310MOL0     C41747   8.496  11.749   3.785  0.6773  0.2249  0.0886
  310MOL0     C41748   8.506  11.703   3.651  0.0569  1.0227  0.4737
  310MOL0     C41749   8.449  11.760   3.543 -0.3504 -0.1130  0.3739
  310MOL0     C41750   8.394  11.888   3.562 -0.4674  0.0210 -0.2899
  310MOL0     O41751   8.349  11.969   3.460 -0.0880 -0.0344 -0.9344
  310MOL0     C41752   8.276  11.908   3.352 -0.3102 -0.2905 -0.8541
  310MOL0     C41753   8.233  12.012   3.253  0.0357 -0.0039  0.5655
  310MOL0     C41754   8.157  12.136   3.308  0.6513 -0.0524  0.0809
  310MOL0     C41755   8.125  12.243   3.193 -0.2041  0.4067 -0.5602
  310MOL0     C41756   8.058  12.368   3.249 -0.3776  0.4519  0.1564
  310MOL0     C41757   8.036  12.473   3.137 -0.0007 -0.3278  0.7419
  310MOL0     C41758   7.905  12.439   3.055 -0.0986  0.3729 -0.7624
  310MOL0     C41759   7.901  12.541   2.940  0.4056  0.4619 -0.7963
  310MOL0    Cl41760   7.772  12.492   2.826  0.0203 -0.3422 -0.0299
  310MOL0     C41761   8.385  11.944   3.696  0.4592 -0.0650  0.1567
  310MOL0     C41762   8.434  11.873   3.803 -0.2993 -0.5037 -0.1216
  310MOL0     O41763   8.371  11.708   4.035  0.3038  0.3708  0.3744
  310MOL0     C41764   8.709  11.613   4.119 -0.2577 -0.4211 -0.9220
  310MOL0     C41765   8.792  11.574   4.225  0.1799  0.7283 -0.2152
  310MOL0     N41766   9.074  10.959   4.420 -0.2642 -0.5149  0.5648
  310MOL0     N41767   9.147  10.889   4.338  0.4103  0.1632  0.0244
  310MOL0     C41768  10.458  10.927   4.034  0.0904  1.1516  0.3570
  310MOL0     C41769  10.574  10.980   4.078 -0.4466  0.0584  0.3858
  310MOL0     C41770  10.985  10.952   4.241  0.2337  0.1445  0.2896
  310MOL0     C41771  11.109  10.957   4.183  0.2845 -0.2631  0.6531
  310MOL0     C41772  11.225  10.991   4.250 -0.0362  0.0491 -0.4193
  310MOL0     C41773  11.221  11.007   4.394  0.1721 -0.5046  0.2337
  310MOL0     O41774  11.328  11.047   4.465 -0.5026 -0.1133  0.2064
  310MOL0     C41775  11.435  11.121   4.398  1.1725 -0.4126 -0.3045
  310MOL0     C41776  11.531  11.159   4.509 -0.4520 -0.8515 -0.0690
  310MOL0     C41777  11.602  11.032   4.564  0.1516  0.8738  0.1446
  310MOL0     C41778  11.729  11.075   4.640  0.8474 -0.5311  0.6441
  310MOL0     C41779  11.765  10.969   4.740 -0.3665  0.6985  0.7020
  310MOL0     C41780  11.783  10.876   4.819 -0.6317  0.1487 -0.9460
  310MOL0     C41781  11.105  10.982   4.459  0.1187 -0.8568 -0.9189
  310MOL0     C41782  10.983  10.966   4.387  0.3564  0.7507 -0.5177
  310MOL0     H41783  10.630  10.767   4.335  0.8321  0.5768 -0.6186
  310MOL0     H41784  10.415  10.678   4.268 -0.7015  1.8072  1.4062
  310MOL0     H41785  10.186  10.705   4.223 -0.1837 -0.4010 -1.4493
  310MOL0     H41786  10.169  10.876   4.194  2.6273  2.0261 -2.5520
  310MOL0     H41787  10.033  10.846   3.996  0.7212  1.5736  0.4138
  310MOL0     H41788  10.048  10.668   4.014 -0.3321  0.2500  0.4476
  310MOL0     H41789   9.938  10.670   4.227 -2.9946  0.8919  2.9483
  310MOL0     H41790   9.913  10.845   4.233 -0.1182 -0.6305 -0.2642
  310MOL0     H41791   9.784  10.824   4.012 -0.1463 -0.5905 -0.8741
  310MOL0     H41792   9.798  10.649   4.036  1.4608 -0.9942  1.1351
  310MOL0     H41793   9.638  10.641   4.198 -4.3002  0.8856  0.1503
  310MOL0     H41794   9.694  10.786   4.279  0.1725 -1.2520  0.4401
  310MOL0     H41795   9.596  10.926   4.099 -2.7593 -0.0081 -2.5357
  310MOL0     H41796   9.533  10.775   4.028 -0.7441  1.0405 -0.8764
  310MOL0     H41797   9.427  10.756   4.281 -1.2727  1.0758  1.8036
  310MOL0     H41798   9.512  10.892   4.321  2.1460  1.6086 -2.5483
  310MOL0     H41799   9.281  10.876   4.125  0.7642  1.3529 -0.7543
  310MOL0     H41800   9.381  11.023   4.149  0.7455 -0.8817 -2.1820
  310MOL0     H41801   9.317  11.162   4.368 -0.1651 -0.5162 -0.3066
  310MOL0     H41802   9.074  11.143   4.636  1.2918  0.3661 -0.5507
  310MOL0     H41803   9.174  11.257   4.543  2.1732 -2.1797 -0.8161
  310MOL0     H41804   8.898  11.205   4.420  2.4246 -0.7375 -3.0194
  310MOL0     H41805   9.009  11.337   4.399 -0.4887  1.9374  1.1926
  310MOL0     H41806   8.990  11.392   4.634 -1.3475  2.3032  1.8342
  310MOL0     H41807   8.878  11.262   4.661  1.2843 -0.2692 -0.7286
  310MOL0     H41808   8.742  11.463   4.629  0.3589  0.4865  0.6126
  310MOL0     H41809   8.723  11.345   4.489 -0.3476  2.0756 -0.4435
  310MOL0     H41810   8.576  11.600   4.483  1.6616 -1.7552  0.6830
  310MOL0     H41811   8.370  11.696   4.418  0.6803 -0.7722  1.2548
  310MOL0     H41812   8.343  11.752   4.263  0.3318  0.7874 -0.8397
  310MOL0     H41813   8.311  11.577   4.291  0.9541  0.0644  0.8741
  310MOL0     H41814   8.578  11.624   3.634  2.0018  2.0144  3.4416
  310MOL0     H41815   8.464  11.728   3.441 -0.9734  2.2982 -0.5416
  310MOL0     H41816   8.339  11.837   3.298 -1.8517 -1.2910 -1.3793
  310MOL0     H41817   8.190  11.854   3.392 -1.8679  3.2459  1.1178
  310MOL0     H41818   8.325  12.044   3.201 -0.6475 -1.3971 -1.6575
  310MOL0     H41819   8.183  11.960   3.171 -1.1503  1.3697  0.3897
  310MOL0     H41820   8.230  12.179   3.378 -0.6227  1.5626  0.4641
  310MOL0     H41821   8.062  12.114   3.357  0.7253 -0.7653 -0.0779
  310MOL0     H41822   8.217  12.283   3.149  0.5899  0.6490  1.2148
  310MOL0     H41823   8.056  12.202   3.120  2.3140 -3.5009 -1.0522
  310MOL0     H41824   8.120  12.410   3.330  0.5510 -1.0998  0.2839
  310MOL0     H41825   7.965  12.332   3.294  0.5570 -2.0394  0.2657
  310MOL0     H41826   8.043  12.572   3.184  2.5061 -1.0254  1.9988
  310MOL0     H41827   8.125  12.479   3.074 -0.2495  3.2688  0.4781
  310MOL0     H41828   7.813  12.455   3.112  0.9845  1.7404  0.6551
  310MOL0     H41829   7.917  12.339   3.012  1.2552  0.1913 -0.0113
  310MOL0     H41830   7.993  12.549   2.882  0.5352 -1.8519 -1.0004
  310MOL0     H41831   7.888  12.636   2.992  2.3309 -1.0281  2.7508
  310MOL0     H41832   8.354  12.045   3.720  0.4853 -0.1193  0.4182
  310MOL0     H41833   8.422  11.917   3.902 -0.5430  1.6257 -1.0465
  310MOL0     H41834   8.759  11.621   4.023 -0.0824 -2.9742 -1.1058
  310MOL0     H41835   8.894  11.549   4.200 -0.3567 -0.5146 -1.2606
  310MOL0     H41836  10.404  10.977   3.955 -3.0631 -2.6049 -0.1472
  310MOL0     H41837  10.613  11.058   4.013 -1.5345 -1.5247 -2.3046
  310MOL0     H41838  11.119  10.958   4.074  1.0956  2.1551  0.6867
  310MOL0     H41839  11.310  11.020   4.190  0.3700 -0.0012  0.1191
  310MOL0     H41840  11.483  11.050   4.329  0.8127 -0.3346 -0.6383
  310MOL0     H41841  11.412  11.213   4.342  0.1177 -0.0932  0.6320
  310MOL0     H41842  11.488  11.210   4.596  1.3045 -0.2595  0.5181
  310MOL0     H41843  11.594  11.236   4.463  0.2097 -0.8936  0.7237
  310MOL0     H41844  11.639  10.960   4.491  0.3676  0.0308  1.0706
  310MOL0     H41845  11.528  10.983   4.628  1.7523 -0.6328  0.9184
  310MOL0     H41846  11.703  11.171   4.686 -1.6903 -1.5575  1.5318
  310MOL0     H41847  11.814  11.081   4.573  2.3641  2.4428  2.6190
  310MOL0     H41848  11.800  10.791   4.884 -0.9269  1.3070  0.7170
  310MOL0     H41849  11.098  10.998   4.566 -3.1082 -2.0777 -0.8552
  310MOL0     H41850  10.889  10.976   4.440 -0.3485 -0.8722 -1.3518
  311MOL0     O41851  10.420   2.781  10.384 -0.3259  0.3776 -0.3182
  311MOL0     C41852  10.458   2.871  10.311 -0.2745  0.0751  0.2484
  311MOL0     O41853  10.387   2.945  10.219  0.5620  0.5628  0.6123
  311MOL0     C41854  10.271   2.898  10.162  0.6081 -0.5090 -0.3459
  311MOL0     C41855  10.166   2.853  10.239  1.3393  0.5737 -0.6531
  311MOL0     C41856  10.048   2.816  10.173  0.3684  0.5628 -0.0185
  311MOL0     C41857  10.032   2.824  10.034 -0.2715 -0.3284  0.1779
  311MOL0     O41858   9.914   2.798   9.963 -0.5547  0.1017  0.0702
  311MOL0     C41859   9.801   2.732  10.027  1.1373  0.4933  0.3401
  311MOL0     C41860   9.829   2.579  10.034  0.8279 -0.5774  0.4643
  311MOL0     C41861   9.878   2.529  10.163  0.4211 -0.4694 -0.0959
  311MOL0     C41862   9.862   2.375  10.181 -0.5225  0.3069  0.2680
  311MOL0     C41863   9.745   2.337  10.259  0.2074  0.3942 -0.9612
  311MOL0     C41864   9.694   2.193  10.228  0.1094  0.4048 -0.1876
  311MOL0     C41865   9.554   2.154  10.286 -0.4210  0.3685  0.1064
  311MOL0     C41866   9.520   2.001  10.263  0.5604  0.2204 -0.5850
  311MOL0     N41867   9.399   1.971  10.335 -0.1341  0.5582 -0.1482
  311MOL0     C41868   9.264   1.980  10.297 -1.1073 -0.4537  0.3508
  311MOL0     C41869   9.199   1.915  10.394 -0.0597 -0.1079 -1.1086
  311MOL0     C41870   9.046   1.908  10.398 -0.5986 -0.4253 -0.6122
  311MOL0     C41871   8.990   1.812  10.508  1.1663  0.9436 -0.2574
  311MOL0     C41872   9.027   1.666  10.480 -0.5189  0.9095  0.2524
  311MOL0     C41873   8.957   1.578  10.584 -0.7108  0.1311 -0.3151
  311MOL0     O41874   9.001   1.610  10.723 -0.4012 -0.5731  0.7442
  311MOL0     C41875   8.911   1.579  10.819  0.8379 -0.1377  0.7962
  311MOL0     C41876   8.944   1.484  10.917 -0.6990 -0.0390 -0.1233
  311MOL0     C41877   8.861   1.439  11.022  0.1941 -0.3032 -0.1022
  311MOL0     C41878   8.912   1.338  11.120 -0.6359  0.6298  0.1885
  311MOL0     C41879   8.732   1.499  11.027  0.2304 -0.6008  0.1787
  311MOL0     C41880   8.630   1.462  11.132  0.2065  0.3828 -0.2342
  311MOL0     O41881   8.496   1.439  11.091 -0.2483  0.9116 -0.9666
  311MOL0     C41882   8.394   1.439  11.185  0.1884 -0.0531  0.5199
  311MOL0     C41883   8.305   1.338  11.172  0.0264  0.3375  0.1405
  311MOL0     C41884   8.190   1.343  11.243  0.1330  0.2983 -0.9620
  311MOL0     C41885   8.165   1.441  11.337 -0.3810  0.5236  0.8741
  311MOL0     O41886   8.043   1.442  11.394  0.3996 -0.1324 -0.0544
  311MOL0     C41887   8.009   1.557  11.475 -0.3011 -0.1096  0.1215
  311MOL0     C41888   7.858   1.535  11.510 -0.0859  0.8222 -0.0827
  311MOL0     C41889   7.770   1.545  11.390 -0.0124  0.0398  0.3500
  311MOL0     C41890   7.620   1.576  11.426  0.2034  0.0980 -0.0589
  311MOL0     C41891   7.525   1.456  11.463 -0.2675 -0.0749 -0.1617
  311MOL0     C41892   7.384   1.506  11.470 -0.1108 -0.1010  0.1680
  311MOL0     C41893   7.286   1.401  11.513 -0.0363  0.3179  0.0893
  311MOL0     C41894   7.148   1.458  11.546  0.1949 -0.1424 -0.8225
  311MOL0    Cl41895   7.032   1.319  11.527  0.0994 -0.2490 -0.4282
  311MOL0     C41896   8.267   1.536  11.365  0.7689  0.3957 -0.1150
  311MOL0     C41897   8.383   1.533  11.291  0.2642 -1.3105  0.4771
  311MOL0     O41898   8.673   1.457  11.247  0.3516 -0.2965 -0.0866
  311MOL0     C41899   8.700   1.598  10.923  0.0036  0.6207  0.0923
  311MOL0     C41900   8.789   1.649  10.827 -0.6539  0.2340  0.0305
  311MOL0     N41901   9.289   1.882  10.496  0.2040 -0.3671  0.2823
  311MOL0     N41902   9.407   1.916  10.461  0.8756  0.0295 -0.4499
  311MOL0     C41903  10.139   2.883   9.961 -0.5224 -0.3056 -0.1208
  311MOL0     C41904  10.253   2.918  10.027 -0.7411  0.2474 -0.0671
  311MOL0     C41905  10.601   2.900  10.323 -0.0780 -0.1970 -0.6225
  311MOL0     C41906  10.661   2.989  10.231  0.0971  0.3791 -0.7564
  311MOL0     C41907  10.799   3.020  10.244  0.3933  0.1402  0.0654
  311MOL0     C41908  10.872   2.981  10.353 -0.7525  0.6754  0.8927
  311MOL0     O41909  11.002   3.020  10.369  0.4249  0.0404 -0.0222
  311MOL0     C41910  11.054   3.151  10.323 -0.2165 -0.0949  0.1305
  311MOL0     C41911  11.171   3.191  10.420 -0.3053  0.5824 -0.2732
  311MOL0     C41912  11.282   3.083  10.415 -0.1732  0.3197  0.9999
  311MOL0     C41913  11.405   3.135  10.490 -0.2485  0.3666 -0.2756
  311MOL0     C41914  11.466   3.259  10.424  0.3081 -0.1532 -0.5135
  311MOL0     C41915  11.524   3.357  10.380  0.6867  0.3508 -0.3324
  311MOL0     C41916  10.813   2.894  10.449  0.6126 -0.5015  0.4704
  311MOL0     C41917  10.675   2.845  10.433 -1.0964 -0.3579  0.1735
  311MOL0     H41918  10.176   2.859  10.347  0.5389 -0.5922 -0.4952
  311MOL0     H41919   9.968   2.783  10.238 -0.4155  0.5535 -0.9756
  311MOL0     H41920   9.785   2.773  10.126 -0.6133  0.8955 -0.0841
  311MOL0     H41921   9.713   2.747   9.964  0.4237 -1.5842  0.7621
  311MOL0     H41922   9.735   2.526  10.020  0.4572  0.2910 -0.4532
  311MOL0     H41923   9.901   2.555   9.956  1.6049  2.2377  0.1794
  311MOL0     H41924   9.983   2.556  10.178  0.2709 -0.0350  0.1969
  311MOL0     H41925   9.833   2.584  10.246  2.1973 -1.4091  1.5693
  311MOL0     H41926   9.877   2.316  10.090 -0.0310 -1.3617  1.3892
  311MOL0     H41927   9.944   2.350  10.248 -1.1225 -2.1656  0.1841
  311MOL0     H41928   9.762   2.344  10.367 -1.9429  0.4946 -0.5741
  311MOL0     H41929   9.669   2.409  10.229 -0.5051  0.2964  0.4899
  311MOL0     H41930   9.674   2.183  10.121 -3.6311  1.1617  0.2744
  311MOL0     H41931   9.768   2.123  10.268  1.7474  1.5329 -1.1385
  311MOL0     H41932   9.562   2.170  10.394  2.1067 -2.0455  0.3984
  311MOL0     H41933   9.482   2.218  10.236  1.0030  0.9878 -1.2258
  311MOL0     H41934   9.602   1.937  10.298  0.7612 -0.0530 -1.5331
  311MOL0     H41935   9.499   1.984  10.157 -1.6308 -0.3194 -0.0992
  311MOL0     H41936   9.238   2.007  10.195  2.7269  0.5701 -0.4853
  311MOL0     H41937   9.006   2.009  10.405  1.4253  0.3826 -0.0563
  311MOL0     H41938   9.010   1.875  10.300 -0.8386 -2.7229  0.1915
  311MOL0     H41939   8.881   1.812  10.510  1.0625 -2.4094  0.0148
  311MOL0     H41940   9.036   1.847  10.601 -0.5849  0.8214  0.6850
  311MOL0     H41941   9.132   1.644  10.501 -0.9264  0.6753  2.1740
  311MOL0     H41942   8.996   1.636  10.379 -2.4223 -0.8966  1.2997
  311MOL0     H41943   8.979   1.472  10.566 -2.2667 -0.2424 -0.1831
  311MOL0     H41944   8.850   1.590  10.565 -0.5475 -0.2291 -1.5114
  311MOL0     H41945   9.039   1.432  10.909 -1.2491 -0.9219 -1.0836
  311MOL0     H41946   8.840   1.270  11.165  1.5452 -2.9944 -1.3652
  311MOL0     H41947   8.983   1.269  11.074 -0.7924  1.5594 -1.5361
  311MOL0     H41948   8.957   1.398  11.200  0.6751  0.1759 -0.1837
  311MOL0     H41949   8.327   1.266  11.094  4.4612  1.4460  0.0959
  311MOL0     H41950   8.114   1.271  11.214  0.6565 -0.2049 -1.1067
  311MOL0     H41951   8.062   1.553  11.571  0.5163  1.9927 -0.1889
  311MOL0     H41952   8.026   1.651  11.423  2.4824 -0.3321  0.4766
  311MOL0     H41953   7.852   1.441  11.565  0.9179  0.4572 -0.5738
  311MOL0     H41954   7.827   1.613  11.582 -0.3030  0.6859 -0.0279
  311MOL0     H41955   7.770   1.447  11.342 -1.8523 -0.6937  1.7040
  311MOL0     H41956   7.815   1.624  11.329  0.7678 -0.1272  0.6992
  311MOL0     H41957   7.624   1.657  11.499 -0.1818 -0.5915  0.7501
  311MOL0     H41958   7.572   1.618  11.337 -0.9592  0.4774  0.7189
  311MOL0     H41959   7.562   1.418  11.559 -0.7564  0.9495  0.4587
  311MOL0     H41960   7.535   1.387  11.379  1.5150  1.3027 -1.1516
  311MOL0     H41961   7.392   1.571  11.558  0.7789 -0.4398  0.3509
  311MOL0     H41962   7.347   1.563  11.384 -1.7688  0.8606  1.4541
  311MOL0     H41963   7.316   1.347  11.603 -2.0980  1.4304  1.5250
  311MOL0     H41964   7.279   1.326  11.433  0.9424  0.4670 -0.1539
  311MOL0     H41965   7.115   1.532  11.473  0.5480 -1.0048 -1.8784
  311MOL0     H41966   7.145   1.506  11.645 -1.7910 -1.7916 -0.0015
  311MOL0     H41967   8.247   1.615  11.437 -1.2191 -1.1324  1.1140
  311MOL0     H41968   8.459   1.610  11.295  1.8385 -2.6042 -1.9187
  311MOL0     H41969   8.603   1.647  10.921 -0.5589 -0.4648 -0.0262
  311MOL0     H41970   8.756   1.725  10.757 -1.6869  0.1898  0.4489
  311MOL0     H41971  10.132   2.886   9.853 -0.1105 -0.3140 -0.1521
  311MOL0     H41972  10.339   2.955   9.972  0.3202 -2.3092 -0.2827
  311MOL0     H41973  10.612   3.017  10.138  0.8801  1.0052 -0.9988
  311MOL0     H41974  10.828   3.085  10.162  0.9471 -0.8392 -0.5262
  311MOL0     H41975  11.088   3.137  10.220 -1.8001  0.8640 -0.5437
  311MOL0     H41976  10.973   3.224  10.321 -0.9348 -0.8851 -0.5226
  311MOL0     H41977  11.131   3.188  10.522 -2.5869 -0.7565 -1.1164
  311MOL0     H41978  11.215   3.285  10.386  0.2033  0.4092 -0.0934
  311MOL0     H41979  11.304   3.058  10.311  0.9949  5.5436 -0.2620
  311MOL0     H41980  11.254   2.988  10.461 -2.2285 -0.6280 -1.9049
  311MOL0     H41981  11.488   3.065  10.500  1.0386  1.4780 -2.5243
  311MOL0     H41982  11.378   3.154  10.594  1.4563 -2.1962  0.7332
  311MOL0     H41983  11.568   3.446  10.341 -0.8259  0.6665 -1.4238
  311MOL0     H41984  10.862   2.871  10.543  1.2371  0.0520  0.2859
  311MOL0     H41985  10.641   2.765  10.498  1.1517  0.3708  2.3779
  312MOL0     O41986  10.572   0.002  10.044  0.1866  0.3111 -0.2942
  312MOL0     C41987  10.588  -0.004  10.168  0.6285 -0.3210  0.2736
  312MOL0     O41988  10.488   0.025  10.269 -0.3395  0.1172  0.0211
  312MOL0     C41989  10.365   0.069  10.221  0.0069 -0.6460  0.5234
  312MOL0     C41990  10.343   0.164  10.112 -0.2026  0.3511 -0.4143
  312MOL0     C41991  10.212   0.178  10.067  0.4407 -0.0597 -0.6891
  312MOL0     C41992  10.107   0.116  10.140 -0.2186  0.0195  0.7857
  312MOL0     O41993   9.974   0.136  10.110  0.1674  0.0901  0.3292
  312MOL0     C41994   9.930   0.240  10.016 -0.9381 -0.8971  0.2426
  312MOL0     C41995   9.780   0.222   9.996  0.1538  0.0578 -0.0848
  312MOL0     C41996   9.737   0.088   9.923 -0.1327  0.1450  0.1475
  312MOL0     C41997   9.581   0.087   9.912  0.2365 -0.4935  0.3852
  312MOL0     C41998   9.519  -0.050   9.875  0.0233 -0.6152 -0.2831
  312MOL0     C41999   9.374  -0.009   9.841  0.6895  0.0186  0.2272
  312MOL0     C42000   9.296  -0.123   9.774  0.7638  0.2440 -0.8480
  312MOL0     C42001   9.147  -0.102   9.787  0.0216  0.6753  1.1390
  312MOL0     N42002   9.071  -0.189   9.702  0.5362 -0.0717 -0.2110
  312MOL0     C42003   9.044  -0.324   9.732 -0.0574 -1.0483 -0.0216
  312MOL0     C42004   8.961  -0.358   9.636  0.0643 -0.7004  0.3962
  312MOL0     C42005   8.903  -0.496   9.613 -0.0210 -0.5912  0.1266
  312MOL0     C42006   8.753  -0.498   9.609  0.2329 -0.0930  0.8026
  312MOL0     C42007   8.671  -0.442   9.726  0.3031  1.2246  0.1208
  312MOL0     C42008   8.623  -0.300   9.705 -0.6358  0.0874  0.9007
  312MOL0     O42009   8.517  -0.253   9.792  0.0119 -0.0129  0.1495
  312MOL0     C42010   8.385  -0.310   9.781  0.3700 -0.3369  0.7908
  312MOL0     C42011   8.302  -0.301   9.881 -0.1159  0.2008 -0.1760
  312MOL0     C42012   8.175  -0.360   9.890 -0.1060  0.8285 -0.1869
  312MOL0     C42013   8.107  -0.332  10.020  0.0818  0.4924  0.1496
  312MOL0     C42014   8.136  -0.444   9.786  0.1577 -1.0133 -0.1486
  312MOL0     C42015   8.001  -0.512   9.783 -1.1425  0.7392  0.6611
  312MOL0     O42016   7.942  -0.528   9.910  0.2353 -0.1616  0.0979
  312MOL0     C42017   7.820  -0.591   9.921  0.8922 -0.3182  0.7992
  312MOL0     C42018   7.792  -0.717   9.875 -1.1386 -0.7909 -0.0849
  312MOL0     C42019   7.669  -0.779   9.894  0.0996  0.1890  0.3500
  312MOL0     C42020   7.562  -0.723   9.966 -0.7139 -0.6886 -0.0850
  312MOL0     O42021   7.440  -0.786   9.981  0.0508  0.2725 -0.2722
  312MOL0     C42022   7.462  -0.924  10.022  1.2601 -0.2017 -0.1664
  312MOL0     C42023   7.329  -1.007  10.035 -0.0133 -1.0143  0.2080
  312MOL0     C42024   7.294  -1.089   9.911 -0.3293 -1.0959  0.2245
  312MOL0     C42025   7.157  -1.143   9.904  0.8949 -0.5916  0.1781
  312MOL0     C42026   7.122  -1.222  10.033 -0.6079 -0.1722  0.6073
  312MOL0     C42027   6.976  -1.273  10.027 -0.5615 -0.3558  0.0872
  312MOL0     C42028   6.866  -1.171  10.006  0.3655  0.0747 -0.7948
  312MOL0     C42029   6.737  -1.221  10.063 -0.4599 -0.0176 -0.3291
  312MOL0    Cl42030   6.686  -1.352   9.963  0.0201  0.4270  0.4118
  312MOL0     C42031   7.585  -0.588  10.006  0.6290 -0.0092 -0.1023
  312MOL0     C42032   7.710  -0.522   9.983  0.4776 -0.9327  0.2730
  312MOL0     O42033   7.954  -0.538   9.670  0.0904  0.7431  0.1906
  312MOL0     C42034   8.221  -0.459   9.673  0.0036  0.7365  0.0951
  312MOL0     C42035   8.340  -0.388   9.677 -0.8215  0.4257 -0.6380
  312MOL0     N42036   8.940  -0.248   9.553 -0.3046 -0.5094  0.2775
  312MOL0     N42037   9.025  -0.151   9.584 -0.1677  0.0797 -0.0824
  312MOL0     C42038  10.134   0.034  10.244  0.1339 -0.2280 -0.2533
  312MOL0     C42039  10.258   0.000  10.279  0.8533 -0.0604 -0.0028
  312MOL0     C42040  10.720  -0.055  10.211  0.7344 -0.3492 -0.5723
  312MOL0     C42041  10.760  -0.063  10.347  0.9178 -0.2852  0.6125
  312MOL0     C42042  10.885  -0.117  10.379  0.5952 -0.5242 -0.7238
  312MOL0     C42043  10.975  -0.158  10.286 -0.0497 -1.0535  0.5085
  312MOL0     O42044  11.106  -0.192  10.309  0.4575  0.2865 -0.9068
  312MOL0     C42045  11.164  -0.179  10.437 -0.3646  0.9432 -1.1436
  312MOL0     C42046  11.273  -0.281  10.437 -0.4660  0.3348  0.2099
  312MOL0     C42047  11.407  -0.238  10.508  0.0005 -0.2239 -0.8135
  312MOL0     C42048  11.381  -0.203  10.660  0.8730 -0.1912 -0.0427
  312MOL0     C42049  11.321  -0.309  10.742 -0.3219 -0.4267  0.4155
  312MOL0     C42050  11.284  -0.394  10.825  0.1474 -0.2126  0.0850
  312MOL0     C42051  10.940  -0.153  10.148  0.1946  0.4938  0.0672
  312MOL0     C42052  10.812  -0.101  10.113 -0.6715 -0.7737  0.9842
  312MOL0     H42053  10.431   0.217  10.076  1.1505 -1.0408  0.6926
  312MOL0     H42054  10.199   0.258   9.995  0.0166  1.4756  1.0162
  312MOL0     H42055   9.951   0.335  10.066  1.5747 -1.3303  0.1376
  312MOL0     H42056   9.980   0.251   9.919 -4.3317  1.4101 -1.4626
  312MOL0     H42057   9.732   0.230  10.094  0.0080 -2.1674  0.0780
  312MOL0     H42058   9.757   0.307   9.931  2.6821  0.7903 -0.1357
  312MOL0     H42059   9.785   0.083   9.825  0.7069  2.5377  0.3756
  312MOL0     H42060   9.772   0.009   9.991 -1.1170 -0.0637  0.4336
  312MOL0     H42061   9.547   0.113  10.012  1.4351 -0.4237  0.7848
  312MOL0     H42062   9.550   0.163   9.839 -1.0338 -0.9563  0.4027
  312MOL0     H42063   9.569  -0.094   9.788 -3.8755 -1.4762 -2.2796
  312MOL0     H42064   9.521  -0.118   9.960  1.3884  0.7652  0.8534
  312MOL0     H42065   9.328   0.013   9.938  2.2212 -1.9479  1.4628
  312MOL0     H42066   9.377   0.082   9.780  2.4509  2.5055  3.6657
  312MOL0     H42067   9.334  -0.125   9.671  1.7224  3.4068 -0.6698
  312MOL0     H42068   9.322  -0.224   9.807 -1.1144 -0.6337 -1.8920
  312MOL0     H42069   9.120   0.002   9.764 -0.9791 -0.0049 -0.9100
  312MOL0     H42070   9.118  -0.120   9.891 -1.5109 -0.8486  0.4770
  312MOL0     H42071   9.090  -0.382   9.811 -2.3350 -0.6700  1.6943
  312MOL0     H42072   8.939  -0.540   9.519 -0.3340  1.4046 -0.9834
  312MOL0     H42073   8.942  -0.564   9.690 -0.6503 -0.6768  0.3771
  312MOL0     H42074   8.712  -0.597   9.588 -1.4669  0.3133  1.9752
  312MOL0     H42075   8.721  -0.453   9.515  4.0076 -1.3003 -1.2556
  312MOL0     H42076   8.731  -0.443   9.817  0.5628 -0.2584 -0.0438
  312MOL0     H42077   8.579  -0.501   9.738  0.9433  0.6639  2.8108
  312MOL0     H42078   8.591  -0.273   9.604  1.5352 -1.4980 -0.2909
  312MOL0     H42079   8.703  -0.228   9.724 -0.2652 -0.2870  0.7696
  312MOL0     H42080   8.336  -0.237   9.962 -2.3534 -0.8542  1.7104
  312MOL0     H42081   8.173  -0.277  10.088  0.2681  0.8580 -0.3253
  312MOL0     H42082   8.024  -0.264   9.999  1.0434  1.7667  0.3795
  312MOL0     H42083   8.065  -0.417  10.075 -1.7039  1.3984  0.2630
  312MOL0     H42084   7.875  -0.771   9.831  0.1812 -0.7572  2.1735
  312MOL0     H42085   7.662  -0.875   9.844 -0.8410  1.1729 -1.4825
  312MOL0     H42086   7.531  -0.974   9.953  2.5016  2.5445 -1.0180
  312MOL0     H42087   7.524  -0.924  10.112  0.7304 -0.1685  0.2019
  312MOL0     H42088   7.354  -1.073  10.118  1.7548  1.6856  2.0044
  312MOL0     H42089   7.243  -0.944  10.059 -0.7312 -1.8811 -0.0211
  312MOL0     H42090   7.371  -1.165   9.895  0.7197 -0.3569  1.5877
  312MOL0     H42091   7.294  -1.018   9.827 -0.6150 -1.4660 -0.0932
  312MOL0     H42092   7.072  -1.075   9.885  0.2287 -1.7333 -1.1093
  312MOL0     H42093   7.153  -1.205   9.814 -1.4123  1.2997 -1.1648
  312MOL0     H42094   7.130  -1.159  10.122 -2.2662 -1.1340  1.4811
  312MOL0     H42095   7.199  -1.300  10.028  0.5547  0.9745  0.1870
  312MOL0     H42096   6.969  -1.344   9.945 -4.2341  0.5468 -0.5274
  312MOL0     H42097   6.971  -1.333  10.118 -0.1013 -0.2429  0.1937
  312MOL0     H42098   6.853  -1.142   9.902  1.3881  1.0388 -0.6729
  312MOL0     H42099   6.888  -1.078  10.060 -0.4761  0.6886 -1.4847
  312MOL0     H42100   6.665  -1.138  10.070  0.3174  1.0278 -3.4150
  312MOL0     H42101   6.740  -1.254  10.168 -0.1943 -1.1153 -0.6670
  312MOL0     H42102   7.502  -0.531  10.046 -0.6699 -0.4780 -1.9996
  312MOL0     H42103   7.721  -0.423  10.025  0.0923 -1.8752  2.7415
  312MOL0     H42104   8.201  -0.514   9.583  0.5537 -0.3946  0.6486
  312MOL0     H42105   8.393  -0.413   9.586 -1.2482 -1.6936 -0.3591
  312MOL0     H42106  10.048   0.001  10.301  0.2855 -1.8745 -0.9113
  312MOL0     H42107  10.267  -0.073  10.359 -0.9377  1.5334  1.7585
  312MOL0     H42108  10.682  -0.051  10.421 -0.4277  0.0511 -0.8248
  312MOL0     H42109  10.908  -0.129  10.485 -1.0844 -0.1330 -0.2755
  312MOL0     H42110  11.210  -0.081  10.453  1.4976 -0.2533  1.7727
  312MOL0     H42111  11.095  -0.202  10.519  1.2001 -0.6102 -0.1786
  312MOL0     H42112  11.308  -0.306  10.336 -1.5588  0.3563 -0.1801
  312MOL0     H42113  11.238  -0.375  10.480 -0.5115  0.0570 -0.4263
  312MOL0     H42114  11.450  -0.151  10.458  0.6040  0.6994  1.2022
  312MOL0     H42115  11.484  -0.316  10.501  0.1232 -0.1517 -0.3191
  312MOL0     H42116  11.321  -0.111  10.668  0.1871 -0.6826  0.5621
  312MOL0     H42117  11.479  -0.188  10.706  0.6181 -2.7909  1.5059
  312MOL0     H42118  11.257  -0.471  10.895  0.0190 -1.0811 -0.9007
  312MOL0     H42119  11.007  -0.191  10.072  0.4400  0.1338  0.4620
  312MOL0     H42120  10.778  -0.100  10.010 -1.2943  0.6136  1.1872
  313MOL0     O42121   6.502   4.401   8.751 -0.0140 -0.1418 -0.1148
  313MOL0     C42122   6.536   4.509   8.702  0.0452 -0.6629  0.1944
  313MOL0     O42123   6.455   4.596   8.641  0.0214 -0.2132  0.1125
  313MOL0     C42124   6.332   4.544   8.607  0.0832 -0.3598 -0.3611
  313MOL0     C42125   6.301   4.540   8.469 -0.7846  0.0738 -0.2661
  313MOL0     C42126   6.167   4.501   8.437 -0.5710  0.3108  0.5265
  313MOL0     C42127   6.067   4.483   8.533 -0.2949  0.4984 -0.1856
  313MOL0     O42128   5.940   4.468   8.484 -0.0643  0.9407 -0.7489
  313MOL0     C42129   5.839   4.410   8.576 -0.3092 -0.9076  0.8016
  313MOL0     C42130   5.770   4.524   8.647  0.4979  0.0473  0.1245
  313MOL0     C42131   5.645   4.475   8.724 -0.9763  0.2729  0.0545
  313MOL0     C42132   5.528   4.453   8.626  0.9316 -0.5906  0.3742
  313MOL0     C42133   5.409   4.395   8.692 -0.0727  0.6088 -0.1652
  313MOL0     C42134   5.346   4.481   8.797 -0.4402 -0.3323 -0.7946
  313MOL0     C42135   5.272   4.407   8.918 -0.1949 -0.0476  0.7190
  313MOL0     C42136   5.145   4.342   8.857  0.1565  0.6966 -0.4072
  313MOL0     N42137   5.037   4.431   8.816  0.9509 -0.5554  0.2114
  313MOL0     C42138   4.985   4.533   8.894 -0.0781 -0.9631 -0.1933
  313MOL0     C42139   4.913   4.611   8.803 -0.2117 -0.2194  0.4188
  313MOL0     C42140   4.847   4.742   8.826  0.1057 -0.0183  0.1448
  313MOL0     C42141   4.703   4.735   8.889 -0.3713  0.8243 -0.0073
  313MOL0     C42142   4.705   4.677   9.023  0.6055  0.3254  0.1843
  313MOL0     C42143   4.749   4.776   9.130 -0.9496  0.1875  0.5693
  313MOL0     O42144   4.747   4.711   9.254 -0.1324 -0.5097  0.0177
  313MOL0     C42145   4.630   4.702   9.329 -0.3467  0.5119  0.6081
  313MOL0     C42146   4.498   4.731   9.290 -0.3809  0.5750 -0.2337
  313MOL0     C42147   4.389   4.711   9.382  0.3590 -0.5580 -0.8026
  313MOL0     C42148   4.252   4.730   9.331 -0.1179  0.1431  0.2619
  313MOL0     C42149   4.417   4.671   9.513 -0.8061 -0.9109 -0.3921
  313MOL0     C42150   4.316   4.660   9.616 -0.1055  0.5083  0.7698
  313MOL0     O42151   4.328   4.546   9.683  0.2233  0.0818 -0.2948
  313MOL0     C42152   4.250   4.542   9.794  0.8434  0.1848  1.0340
  313MOL0     C42153   4.120   4.491   9.771 -0.5412  0.1112  1.4527
  313MOL0     C42154   4.027   4.492   9.879 -0.5673  0.5148  0.0163
  313MOL0     C42155   4.073   4.536  10.016 -0.1285  0.3507  0.5846
  313MOL0     O42156   3.978   4.525  10.112  0.2335  0.1888 -0.0786
  313MOL0     C42157   4.028   4.469  10.231  0.4008  0.6104 -0.9868
  313MOL0     C42158   3.917   4.457  10.338  0.3598 -0.3100 -0.1050
  313MOL0     C42159   3.966   4.403  10.479  0.2416  0.6195  0.3092
  313MOL0     C42160   3.844   4.388  10.580 -0.1143  0.8814 -0.4756
  313MOL0     C42161   3.893   4.321  10.709 -0.4692  0.2585 -0.0465
  313MOL0     C42162   3.780   4.319  10.813 -0.4709 -0.8074  0.4501
  313MOL0     C42163   3.677   4.216  10.791 -0.1207  0.2330 -0.5266
  313MOL0     C42164   3.576   4.220  10.900 -0.1051 -0.4214 -0.2942
  313MOL0    Cl42165   3.454   4.103  10.839 -0.3771 -0.1608  0.1643
  313MOL0     C42166   4.203   4.595  10.025  0.5144  0.2714 -0.2744
  313MOL0     C42167   4.287   4.587   9.916 -0.0046  0.2171  0.0768
  313MOL0     O42168   4.242   4.750   9.633 -0.1273  0.1854  0.1765
  313MOL0     C42169   4.550   4.637   9.544 -0.0888  0.1433  0.4243
  313MOL0     C42170   4.652   4.646   9.449  0.4335 -0.1370 -0.1467
  313MOL0     N42171   4.910   4.547   8.680  0.0639  0.5937  0.4819
  313MOL0     N42172   4.998   4.464   8.683 -0.1242 -0.1403 -0.7000
  313MOL0     C42173   6.103   4.484   8.671 -0.4788  0.2814  0.5632
  313MOL0     C42174   6.236   4.516   8.702  1.4365 -0.1000 -0.8700
  313MOL0     C42175   6.672   4.565   8.727  0.9903  0.8924  0.4740
  313MOL0     C42176   6.736   4.668   8.649  0.3140 -0.6499 -0.1140
  313MOL0     C42177   6.870   4.698   8.669 -0.6275 -0.4753 -0.1839
  313MOL0     C42178   6.954   4.639   8.773  0.9576 -0.1691  0.0817
  313MOL0     O42179   7.083   4.684   8.777  0.1622  0.1169  0.3411
  313MOL0     C42180   7.159   4.645   8.888  0.7341 -0.1084  0.3558
  313MOL0     C42181   7.310   4.681   8.863 -0.5142 -0.4234  0.1958
  313MOL0     C42182   7.341   4.827   8.819  0.5417 -0.3309  0.1424
  313MOL0     C42183   7.490   4.860   8.826 -0.4617  0.6847 -0.1080
  313MOL0     C42184   7.523   4.985   8.758  0.1200  0.8142  0.1034
  313MOL0     C42185   7.560   5.081   8.696  0.1109  0.2687  0.2515
  313MOL0     C42186   6.885   4.550   8.858 -0.6142 -0.6308  0.2489
  313MOL0     C42187   6.751   4.514   8.835 -0.6364 -0.2857 -0.1540
  313MOL0     H42188   6.373   4.567   8.393 -0.2076  1.7050  0.8053
  313MOL0     H42189   6.141   4.504   8.331 -1.6055  1.0694  0.7830
  313MOL0     H42190   5.763   4.353   8.522 -0.7010  0.7121 -0.4458
  313MOL0     H42191   5.885   4.350   8.655  2.7513  2.2612  1.6820
  313MOL0     H42192   5.837   4.548   8.730  0.5876  0.4275 -0.0585
  313MOL0     H42193   5.741   4.611   8.587 -1.5058  0.3313  1.4261
  313MOL0     H42194   5.674   4.380   8.770 -2.4218  0.3326  1.1656
  313MOL0     H42195   5.627   4.538   8.812 -0.5082 -0.8631  0.9885
  313MOL0     H42196   5.502   4.546   8.576 -3.3964 -2.4727 -1.3892
  313MOL0     H42197   5.559   4.389   8.542  2.1315  1.9771 -1.2746
  313MOL0     H42198   5.339   4.356   8.618  1.6917 -0.2065 -1.4875
  313MOL0     H42199   5.444   4.300   8.735 -1.0302  1.0263  1.6788
  313MOL0     H42200   5.416   4.549   8.846 -3.9042  2.6441  0.5159
  313MOL0     H42201   5.276   4.555   8.758  0.0092  0.6797  0.2826
  313MOL0     H42202   5.332   4.322   8.953  0.4143  0.3536  0.6670
  313MOL0     H42203   5.255   4.480   8.998 -0.0479  0.1374  0.5797
  313MOL0     H42204   5.108   4.274   8.934 -0.5076 -0.7010 -1.9257
  313MOL0     H42205   5.187   4.280   8.777  1.7841  0.6946  0.3952
  313MOL0     H42206   5.009   4.562   8.996  0.1889  1.7268 -0.9633
  313MOL0     H42207   4.906   4.815   8.882 -1.2693  3.1838 -2.2255
  313MOL0     H42208   4.835   4.789   8.728 -0.1145 -1.1041 -0.3574
  313MOL0     H42209   4.635   4.673   8.830  0.6595 -1.0179  0.6761
  313MOL0     H42210   4.654   4.833   8.888 -0.9093  0.5772 -1.3288
  313MOL0     H42211   4.767   4.586   9.020 -0.8233 -0.6746 -0.3268
  313MOL0     H42212   4.604   4.639   9.041  0.6254  0.0884 -0.1849
  313MOL0     H42213   4.681   4.861   9.120 -0.6261  0.3643 -0.1878
  313MOL0     H42214   4.848   4.816   9.102 -0.8597  1.1276  2.0689
  313MOL0     H42215   4.482   4.772   9.191 -1.2367 -0.1748 -0.4186
  313MOL0     H42216   4.242   4.681   9.234 -0.3924 -0.1800  0.4488
  313MOL0     H42217   4.174   4.691   9.398  0.2409 -0.2619  0.4491
  313MOL0     H42218   4.236   4.838   9.323 -2.5465 -0.0955  0.9504
  313MOL0     H42219   4.084   4.451   9.677  0.6370 -1.5631  1.6800
  313MOL0     H42220   3.927   4.449   9.883  0.5602 -2.3192  0.5579
  313MOL0     H42221   4.070   4.371  10.205  0.4781  0.3500  0.0775
  313MOL0     H42222   4.114   4.524  10.270 -0.7195  3.1708 -1.9069
  313MOL0     H42223   3.893   4.562  10.360  2.6173  0.4923 -1.0400
  313MOL0     H42224   3.831   4.402  10.299 -0.6722  0.9012  0.3938
  313MOL0     H42225   4.026   4.478  10.531 -0.9863  0.6282  1.8135
  313MOL0     H42226   4.026   4.313  10.467 -2.9992 -1.7373  0.3318
  313MOL0     H42227   3.824   4.492  10.605 -0.6889  0.8889 -0.9393
  313MOL0     H42228   3.757   4.351  10.526 -1.7920  1.3623  1.7457
  313MOL0     H42229   3.982   4.376  10.740 -2.0316  4.0926 -1.7136
  313MOL0     H42230   3.920   4.216  10.695 -1.3780 -0.1654  1.2244
  313MOL0     H42231   3.811   4.304  10.917 -0.6809  1.3643  0.8793
  313MOL0     H42232   3.737   4.418  10.793  2.7276  0.4643 -0.9320
  313MOL0     H42233   3.721   4.116  10.796  3.1303  1.4912 -1.4454
  313MOL0     H42234   3.646   4.211  10.686  0.1866 -2.8129 -0.5685
  313MOL0     H42235   3.536   4.322  10.900  2.1067  0.4991 -0.9100
  313MOL0     H42236   3.618   4.183  10.994 -2.9099 -1.4207  0.6744
  313MOL0     H42237   4.234   4.630  10.123 -1.5014 -1.9567  1.2895
  313MOL0     H42238   4.387   4.629   9.921 -0.1781  0.5380  0.9837
  313MOL0     H42239   4.577   4.603   9.643  0.9748  0.1758  0.1598
  313MOL0     H42240   4.755   4.617   9.467  1.0687  0.4904 -2.3615
  313MOL0     H42241   6.031   4.465   8.749  0.8023 -0.5138  1.5899
  313MOL0     H42242   6.260   4.527   8.808 -2.1506  2.3398 -0.0834
  313MOL0     H42243   6.690   4.717   8.563  0.0145 -1.3392 -0.3572
  313MOL0     H42244   6.919   4.778   8.615  0.6183 -2.5937 -2.3659
  313MOL0     H42245   7.130   4.714   8.969  0.4020 -0.1675  0.2898
  313MOL0     H42246   7.148   4.538   8.909 -0.2575 -0.3401 -1.1837
  313MOL0     H42247   7.346   4.616   8.783 -1.2666  0.6438 -1.0596
  313MOL0     H42248   7.371   4.672   8.953  3.7506  2.0383 -2.1561
  313MOL0     H42249   7.294   4.904   8.880  1.0837  0.1640 -0.0483
  313MOL0     H42250   7.311   4.834   8.714  1.3606  2.5921  0.0058
  313MOL0     H42251   7.538   4.777   8.774 -0.0623 -1.5306  3.5114
  313MOL0     H42252   7.530   4.866   8.927  2.3321 -2.1407 -0.9010
  313MOL0     H42253   7.596   5.172   8.652 -2.1632  1.3718  0.5301
  313MOL0     H42254   6.936   4.517   8.948  2.9983  5.1375  0.8441
  313MOL0     H42255   6.700   4.442   8.898 -0.4877 -0.2786 -0.0257
  314MOL0     O42256   3.989   8.228   6.386 -0.2507  0.7365  0.1009
  314MOL0     C42257   4.011   8.229   6.264  0.5088 -0.5110  0.8517
  314MOL0     O42258   3.914   8.243   6.169 -0.4504  0.2602  0.0031
  314MOL0     C42259   3.776   8.238   6.201 -1.0874  0.3669  0.9251
  314MOL0     C42260   3.720   8.299   6.316 -0.2080  0.0212  0.4643
  314MOL0     C42261   3.583   8.306   6.328  0.6198 -0.1931  0.6178
  314MOL0     C42262   3.500   8.260   6.229 -0.2684 -0.0463 -0.1864
  314MOL0     O42263   3.369   8.264   6.252 -0.2475  0.4194 -0.0691
  314MOL0     C42264   3.321   8.397   6.241  0.0931  0.5431 -1.0185
  314MOL0     C42265   3.166   8.378   6.219 -0.2926 -0.2125  0.6808
  314MOL0     C42266   3.094   8.516   6.223  0.6756  0.1945  0.5713
  314MOL0     C42267   2.959   8.497   6.285  0.5258 -0.1389 -0.4086
  314MOL0     C42268   2.858   8.434   6.186  0.0340 -0.1227  0.2801
  314MOL0     C42269   2.710   8.438   6.232 -0.5102  0.1262  0.4883
  314MOL0     C42270   2.666   8.577   6.282  0.2792 -0.5007 -0.0532
  314MOL0     C42271   2.650   8.681   6.169  0.3746 -0.0163 -0.3293
  314MOL0     N42272   2.549   8.652   6.068 -0.9435  0.5027  0.4365
  314MOL0     C42273   2.450   8.569   6.077  0.9062 -0.4625 -0.7649
  314MOL0     C42274   2.402   8.543   5.954 -0.5013 -0.1076  0.5947
  314MOL0     C42275   2.287   8.447   5.928 -0.2036  0.0682 -0.1335
  314MOL0     C42276   2.177   8.501   5.833 -0.1091 -0.2750  0.2330
  314MOL0     C42277   2.074   8.390   5.837 -0.7973 -0.2687 -0.6770
  314MOL0     C42278   1.940   8.437   5.766 -0.0972 -0.1604  0.7321
  314MOL0     O42279   1.840   8.328   5.772  0.3944  0.1933 -1.1320
  314MOL0     C42280   1.715   8.342   5.709  0.7580 -0.0892 -0.6166
  314MOL0     C42281   1.676   8.447   5.627  0.3964 -0.0586 -0.5092
  314MOL0     C42282   1.539   8.446   5.579  0.0015 -0.0521 -0.0312
  314MOL0     C42283   1.492   8.570   5.505 -0.5023  0.5857  0.6671
  314MOL0     C42284   1.457   8.332   5.604  0.4763 -0.3794 -0.1590
  314MOL0     C42285   1.317   8.326   5.567  0.4825  0.0657 -0.2920
  314MOL0     O42286   1.254   8.207   5.604  1.2425 -0.2957 -0.0910
  314MOL0     C42287   1.129   8.172   5.565 -0.1137  0.3661 -0.0406
  314MOL0     C42288   1.033   8.238   5.485 -0.4227 -0.2140 -0.0027
  314MOL0     C42289   0.907   8.188   5.472 -0.6424 -0.2500  0.3962
  314MOL0     C42290   0.878   8.055   5.523 -0.5213  0.1778  0.4058
  314MOL0     O42291   0.759   7.991   5.501  0.3970  0.3409  0.0219
  314MOL0     C42292   0.646   8.060   5.437  0.1249 -0.4554 -0.3459
  314MOL0     C42293   0.526   7.968   5.441 -0.1916  0.4049  0.0403
  314MOL0     C42294   0.407   8.058   5.468  0.3606 -0.3991  0.2161
  314MOL0     C42295   0.372   8.156   5.360  0.5006 -0.5052  0.3582
  314MOL0     C42296   0.237   8.238   5.365 -0.5949  0.0813  0.3984
  314MOL0     C42297   0.116   8.150   5.349  0.1228  0.1777 -0.0742
  314MOL0     C42298  -0.002   8.240   5.322 -0.0873  0.4875 -0.2216
  314MOL0     C42299  -0.129   8.162   5.304  0.0459 -0.5092 -0.6328
  314MOL0    Cl42300  -0.243   8.296   5.252 -0.0959 -0.0511 -0.0147
  314MOL0     C42301   0.968   7.995   5.611  1.0581  0.1032 -0.2506
  314MOL0     C42302   1.086   8.062   5.631 -0.2618  0.5516  0.0231
  314MOL0     O42303   1.259   8.424   5.523  0.6968  0.3636 -0.2700
  314MOL0     C42304   1.508   8.224   5.670  0.1481  0.6951 -0.5391
  314MOL0     C42305   1.633   8.229   5.724  0.2854  0.5248 -0.3166
  314MOL0     N42306   2.483   8.618   5.867  0.5466  0.2265 -1.1568
  314MOL0     N42307   2.563   8.691   5.934 -0.4160  0.4406 -0.0746
  314MOL0     C42308   3.559   8.191   6.118  0.8799  0.2567  0.6921
  314MOL0     C42309   3.696   8.185   6.096 -0.3446  0.3187 -0.2391
  314MOL0     C42310   4.146   8.221   6.220  0.6657 -0.1445  0.1299
  314MOL0     C42311   4.255   8.235   6.312 -0.0701 -0.5643 -0.4618
  314MOL0     C42312   4.391   8.227   6.274 -0.4871 -0.6515 -1.2750
  314MOL0     C42313   4.426   8.195   6.148  0.1981 -0.2860 -0.4702
  314MOL0     O42314   4.555   8.194   6.102 -0.3594  0.0001 -0.0897
  314MOL0     C42315   4.668   8.176   6.191 -0.9590 -0.2866 -0.1544
  314MOL0     C42316   4.791   8.160   6.102  0.0516 -0.0150 -0.7961
  314MOL0     C42317   4.915   8.106   6.172  0.0188  0.3057 -0.7295
  314MOL0     C42318   5.045   8.139   6.104  0.0635 -0.1342 -0.2998
  314MOL0     C42319   5.162   8.140   6.190 -0.2240  0.8469  0.4404
  314MOL0     C42320   5.263   8.141   6.262 -1.0316  0.4333  0.4503
  314MOL0     C42321   4.326   8.190   6.044  0.0110 -0.4132  0.0381
  314MOL0     C42322   4.187   8.198   6.080 -0.4246 -0.7960 -0.3880
  314MOL0     H42323   3.786   8.353   6.382  0.6608 -1.9066  1.2473
  314MOL0     H42324   3.545   8.347   6.421  1.9704 -2.1203  2.1127
  314MOL0     H42325   3.337   8.454   6.333  2.6413  0.6195 -1.4178
  314MOL0     H42326   3.357   8.459   6.158 -0.8051  2.4769 -0.0311
  314MOL0     H42327   3.165   8.337   6.117  1.2862 -1.8269  1.2661
  314MOL0     H42328   3.127   8.301   6.286 -0.4651  0.2442  1.1124
  314MOL0     H42329   3.157   8.588   6.275  1.0403 -0.2066  0.6927
  314MOL0     H42330   3.078   8.541   6.118 -1.7877 -1.4558  0.4498
  314MOL0     H42331   2.959   8.442   6.380 -0.6716  0.3072 -0.1402
  314MOL0     H42332   2.925   8.599   6.305  0.5200  0.0860 -1.5019
  314MOL0     H42333   2.865   8.486   6.090 -1.7974  0.9507  0.6789
  314MOL0     H42334   2.889   8.335   6.152 -0.5584  0.1092 -1.0204
  314MOL0     H42335   2.654   8.394   6.149 -0.0432 -0.0688  0.2772
  314MOL0     H42336   2.698   8.365   6.313 -1.5840  0.0731  0.3054
  314MOL0     H42337   2.574   8.563   6.340  0.8814  1.7940  1.5525
  314MOL0     H42338   2.735   8.631   6.347  2.5862 -0.4912 -2.3521
  314MOL0     H42339   2.751   8.690   6.130 -0.0674 -0.0485 -1.5143
  314MOL0     H42340   2.615   8.778   6.206 -3.5949 -0.6940 -1.7203
  314MOL0     H42341   2.421   8.520   6.170 -1.6531  0.5000 -0.9625
  314MOL0     H42342   2.334   8.357   5.888  1.9202  1.5150 -1.0798
  314MOL0     H42343   2.238   8.415   6.021 -0.4557  1.5384  0.2635
  314MOL0     H42344   2.209   8.520   5.730  0.4805  0.2664  0.5055
  314MOL0     H42345   2.128   8.595   5.861 -2.2899 -0.9693 -1.0215
  314MOL0     H42346   2.053   8.348   5.936  0.7637  1.0848  0.2831
  314MOL0     H42347   2.120   8.310   5.779  0.0201  3.1488 -5.3068
  314MOL0     H42348   1.953   8.459   5.660  1.2609  3.8702  1.5568
  314MOL0     H42349   1.895   8.521   5.819  0.7397 -0.4476  1.9551
  314MOL0     H42350   1.744   8.530   5.617  0.0007  0.2222 -0.9207
  314MOL0     H42351   1.417   8.623   5.564 -2.7913 -1.5178 -0.1856
  314MOL0     H42352   1.577   8.635   5.481 -0.3631  0.3117  0.4088
  314MOL0     H42353   1.441   8.542   5.412 -0.5218  2.7041 -0.0376
  314MOL0     H42354   1.062   8.330   5.434  1.2854 -0.2882  0.7689
  314MOL0     H42355   0.829   8.236   5.414 -2.1704  0.0985  2.6136
  314MOL0     H42356   0.626   8.147   5.500 -0.5115 -1.1765  0.4830
  314MOL0     H42357   0.669   8.091   5.335 -0.9136  1.1275 -0.1384
  314MOL0     H42358   0.518   7.915   5.346  1.2154  2.4147 -1.2858
  314MOL0     H42359   0.530   7.895   5.522 -0.1479  0.6835  0.2910
  314MOL0     H42360   0.423   8.111   5.562  0.5690 -0.0828  0.0027
  314MOL0     H42361   0.327   7.985   5.487  0.4833 -0.2899  1.1786
  314MOL0     H42362   0.460   8.217   5.338 -0.5735  0.6170 -1.1035
  314MOL0     H42363   0.371   8.096   5.268 -0.3959 -0.0201  0.0314
  314MOL0     H42364   0.245   8.312   5.285  0.9144 -1.6883 -1.1967
  314MOL0     H42365   0.229   8.284   5.464  0.9050 -1.8295  1.4808
  314MOL0     H42366   0.132   8.089   5.259  1.7961 -2.2060  1.7114
  314MOL0     H42367   0.115   8.079   5.432  1.2159 -1.2145 -1.1916
  314MOL0     H42368   0.018   8.291   5.228  0.5104  2.0378  0.7007
  314MOL0     H42369  -0.024   8.308   5.405  0.8439  0.8619 -0.2686
  314MOL0     H42370  -0.158   8.120   5.401  0.4397  1.1056  0.2389
  314MOL0     H42371  -0.118   8.084   5.229  1.5629 -0.7704 -0.1844
  314MOL0     H42372   0.936   7.904   5.660 -0.1016  1.0867  0.9268
  314MOL0     H42373   1.158   8.032   5.706  0.9903  2.1407 -0.4869
  314MOL0     H42374   1.463   8.125   5.679  0.5716  0.7118  2.8793
  314MOL0     H42375   1.680   8.152   5.784  3.1077  2.1646 -0.2145
  314MOL0     H42376   3.494   8.137   6.050  1.9827  0.6058 -0.6949
  314MOL0     H42377   3.736   8.125   6.015 -0.0686 -1.4047  1.0967
  314MOL0     H42378   4.234   8.253   6.417 -1.3548  1.5912 -1.0115
  314MOL0     H42379   4.471   8.250   6.344 -1.1883  0.3813 -0.7949
  314MOL0     H42380   4.692   8.256   6.261 -1.1864 -0.8720  0.6131
  314MOL0     H42381   4.649   8.089   6.256 -3.1334 -0.8976 -1.5047
  314MOL0     H42382   4.821   8.251   6.048 -2.0770 -0.1207 -2.2584
  314MOL0     H42383   4.768   8.091   6.021  3.3737 -0.2852 -1.6742
  314MOL0     H42384   4.900   7.998   6.184  0.6846  0.3715  1.0550
  314MOL0     H42385   4.931   8.146   6.273  2.0525  0.2424 -0.9748
  314MOL0     H42386   5.036   8.237   6.056  0.6423  1.1462  2.0500
  314MOL0     H42387   5.064   8.071   6.020  0.9319  0.8336 -0.9126
  314MOL0     H42388   5.361   8.137   6.304 -0.2609 -0.0123 -1.2818
  314MOL0     H42389   4.348   8.178   5.939  2.1621 -0.3362  0.4362
  314MOL0     H42390   4.109   8.211   6.006 -2.0582 -1.1160  1.2059
  315MOL0     O42391  11.076  11.150   5.388  0.4617  0.6409  0.6331
  315MOL0     C42392  11.113  11.111   5.279  0.3109  0.1832 -0.3786
  315MOL0     O42393  11.034  11.104   5.167  0.2220 -0.0768 -0.5688
  315MOL0     C42394  10.902  11.146   5.174  0.0923 -0.1801 -0.9758
  315MOL0     C42395  10.809  11.100   5.276 -0.1582 -0.3002 -0.5930
  315MOL0     C42396  10.683  11.158   5.276 -0.0574 -0.0721  0.0311
  315MOL0     C42397  10.637  11.250   5.178 -0.1248  0.2567 -0.3659
  315MOL0     O42398  10.505  11.295   5.188  0.0981 -0.6642 -0.5691
  315MOL0     C42399  10.465  11.401   5.096 -0.5098  0.8554 -0.4314
  315MOL0     C42400  10.316  11.434   5.095  0.6800  0.4542  0.0403
  315MOL0     C42401  10.286  11.537   4.975 -0.0374 -0.5459 -0.1152
  315MOL0     C42402  10.270  11.475   4.835  0.3223 -0.3692 -0.6821
  315MOL0     C42403  10.132  11.402   4.830 -0.1723 -0.0021 -0.0121
  315MOL0     C42404  10.099  11.331   4.698 -0.3492  0.2816  0.3877
  315MOL0     C42405   9.962  11.268   4.687  0.9982  0.0265 -0.1993
  315MOL0     C42406   9.840  11.361   4.648  0.2735  0.8692  0.2556
  315MOL0     N42407   9.710  11.288   4.639  0.1863  0.4650  0.2032
  315MOL0     C42408   9.646  11.225   4.743 -0.7084 -0.6876 -0.2218
  315MOL0     C42409   9.548  11.160   4.691 -0.0779  0.2708  0.3288
  315MOL0     C42410   9.459  11.074   4.778 -0.1770  0.4697  0.4650
  315MOL0     C42411   9.459  10.929   4.732 -0.2148  0.1324 -0.5595
  315MOL0     C42412   9.350  10.841   4.798  0.5805  0.3774 -0.1223
  315MOL0     C42413   9.207  10.863   4.742 -0.5384 -0.2412 -0.3551
  315MOL0     O42414   9.131  10.753   4.791 -0.0072  0.6672 -0.5344
  315MOL0     C42415   9.002  10.725   4.755  0.1978 -0.7090 -0.6052
  315MOL0     C42416   8.946  10.597   4.770  0.1008 -0.3749  0.0715
  315MOL0     C42417   8.805  10.568   4.759 -0.3421  0.0833 -0.5773
  315MOL0     C42418   8.750  10.436   4.797  0.4221 -0.1722  0.1656
  315MOL0     C42419   8.716  10.677   4.727 -0.5364  0.0295 -0.7783
  315MOL0     C42420   8.573  10.663   4.716  0.9345  0.1652 -0.5966
  315MOL0     O42421   8.519  10.543   4.679  0.1098  0.2772 -0.6279
  315MOL0     C42422   8.386  10.507   4.676  0.0462 -0.1339  1.1630
  315MOL0     C42423   8.363  10.383   4.605  0.5505  0.2224 -0.6638
  315MOL0     C42424   8.237  10.328   4.601  0.1130  0.1377 -0.4654
  315MOL0     C42425   8.132  10.395   4.667  0.3790  0.2751 -0.6329
  315MOL0     O42426   8.018  10.328   4.677  0.0251  0.4813  0.3342
  315MOL0     C42427   7.895  10.377   4.730 -0.5584 -0.0608  0.1756
  315MOL0     C42428   7.814  10.459   4.621 -0.5006 -0.3290  0.3081
  315MOL0     C42429   7.765  10.360   4.522 -0.1765  0.0619  0.2710
  315MOL0     C42430   7.674  10.418   4.421  0.8958  0.2555 -0.5720
  315MOL0     C42431   7.545  10.347   4.402  0.1041  0.6538 -0.7377
  315MOL0     C42432   7.442  10.368   4.506  0.1155 -0.6801  0.4927
  315MOL0     C42433   7.310  10.297   4.469  0.6818 -0.7931 -0.5582
  315MOL0     C42434   7.252  10.353   4.342  0.7812  0.5566  0.2193
  315MOL0    Cl42435   7.085  10.306   4.338  0.2563 -0.3735 -0.1811
  315MOL0     C42436   8.150  10.526   4.723 -0.5253 -0.6818  0.1387
  315MOL0     C42437   8.281  10.582   4.731  0.7132  0.4484 -0.0337
  315MOL0     O42438   8.514  10.768   4.732  0.3439  0.0008 -0.0066
  315MOL0     C42439   8.779  10.801   4.714 -0.3123  0.2425  0.9153
  315MOL0     C42440   8.917  10.827   4.722  0.3414 -0.1374 -0.8396
  315MOL0     N42441   9.551  11.182   4.556  0.5700  0.5297 -0.5029
  315MOL0     N42442   9.649  11.261   4.523 -0.0298  0.5758 -0.6013
  315MOL0     C42443  10.729  11.286   5.082  0.0598 -0.4768  1.0603
  315MOL0     C42444  10.857  11.236   5.076  1.2410  0.1983  0.7721
  315MOL0     C42445  11.251  11.061   5.274  1.1359  0.9196  0.2089
  315MOL0     C42446  11.287  11.005   5.156 -0.7155  0.7517 -0.3367
  315MOL0     C42447  11.407  10.926   5.143  0.8085 -0.7463  0.0032
  315MOL0     C42448  11.489  10.911   5.248 -0.5556 -0.0138 -0.4583
  315MOL0     O42449  11.615  10.857   5.229  0.0163 -0.4414 -1.3052
  315MOL0     C42450  11.714  10.957   5.250 -0.9317  0.9177 -0.3556
  315MOL0     C42451  11.850  10.905   5.193 -0.0560 -0.4704 -0.8205
  315MOL0     C42452  11.904  10.772   5.253  0.2398 -1.1025 -0.1424
  315MOL0     C42453  12.047  10.732   5.221  0.6713  0.0238 -0.9141
  315MOL0     C42454  12.132  10.844   5.282 -0.6898 -0.5704 -0.6241
  315MOL0     C42455  12.190  10.950   5.316 -0.2663  0.9987  0.9610
  315MOL0     C42456  11.455  10.964   5.372  0.9091 -0.3672 -0.4305
  315MOL0     C42457  11.328  11.029   5.390  0.3048 -0.6634  0.0016
  315MOL0     H42458  10.834  11.033   5.358 -1.0098  1.5847  1.2911
  315MOL0     H42459  10.626  11.127   5.363  1.0630 -0.1133  0.7612
  315MOL0     H42460  10.515  11.492   5.131  1.2208 -0.0692 -0.4085
  315MOL0     H42461  10.488  11.381   4.991 -3.8995 -0.2735 -1.0682
  315MOL0     H42462  10.250  11.347   5.093  0.6792  0.4406  0.6574
  315MOL0     H42463  10.302  11.490   5.188 -0.2811 -0.2292  0.3175
  315MOL0     H42464  10.198  11.597   5.003 -0.1729 -1.2197  0.9687
  315MOL0     H42465  10.373  11.603   4.972 -1.1927  1.1139  1.1493
  315MOL0     H42466  10.280  11.561   4.767  2.6803  2.7457  3.1861
  315MOL0     H42467  10.350  11.401   4.833 -0.7812 -1.5935 -0.7492
  315MOL0     H42468  10.136  11.325   4.908  1.7294 -0.0310 -0.0995
  315MOL0     H42469  10.048  11.471   4.845  0.6342  0.8864  0.5782
  315MOL0     H42470  10.128  11.390   4.610  0.0695 -1.2394 -0.5421
  315MOL0     H42471  10.176  11.254   4.696 -0.3574  0.2824 -1.1954
  315MOL0     H42472   9.966  11.190   4.611 -0.6993  0.1730 -0.4837
  315MOL0     H42473   9.937  11.227   4.785  0.7787  1.2087  0.2580
  315MOL0     H42474   9.867  11.411   4.554  0.9195  0.6692  0.3290
  315MOL0     H42475   9.819  11.431   4.729 -0.9126 -0.8359  1.5053
  315MOL0     H42476   9.671  11.229   4.848 -0.2747  2.1674 -0.3510
  315MOL0     H42477   9.505  11.061   4.876  1.2051 -2.3342 -0.4270
  315MOL0     H42478   9.357  11.114   4.782 -0.8927 -1.2340  0.3244
  315MOL0     H42479   9.559  10.890   4.752 -0.4692 -0.5759 -0.6489
  315MOL0     H42480   9.449  10.926   4.623  0.2197  2.1345 -0.6866
  315MOL0     H42481   9.352  10.857   4.906 -0.8852  3.3061 -0.4391
  315MOL0     H42482   9.379  10.741   4.764  1.1070  1.1885 -2.2447
  315MOL0     H42483   9.207  10.856   4.633  0.3877  0.1354 -0.3859
  315MOL0     H42484   9.164  10.960   4.770 -1.7439 -0.6391 -0.7647
  315MOL0     H42485   9.018  10.522   4.802  0.3263  0.1338  0.7960
  315MOL0     H42486   8.825  10.382   4.856  0.4390 -0.1755  0.1400
  315MOL0     H42487   8.658  10.451   4.854 -0.4539 -0.4329 -1.1534
  315MOL0     H42488   8.725  10.385   4.704  0.6694 -1.3772  0.7359
  315MOL0     H42489   8.448  10.332   4.560  2.2361  2.9883 -0.8189
  315MOL0     H42490   8.216  10.240   4.540 -0.4663 -0.7255  0.9170
  315MOL0     H42491   7.835  10.289   4.756 -0.5666 -0.8748 -2.3603
  315MOL0     H42492   7.913  10.438   4.819  0.7701  1.6397 -1.1898
  315MOL0     H42493   7.729  10.508   4.668 -2.4213 -2.1632 -1.0263
  315MOL0     H42494   7.889  10.525   4.575 -0.5936 -1.4090 -1.5173
  315MOL0     H42495   7.721  10.279   4.580 -0.3873 -0.7867 -1.0348
  315MOL0     H42496   7.846  10.318   4.461 -0.7470  1.5704 -1.6588
  315MOL0     H42497   7.647  10.521   4.444 -2.1155 -0.3656 -0.8347
  315MOL0     H42498   7.734  10.428   4.330  1.4956  1.8636 -0.0257
  315MOL0     H42499   7.559  10.239   4.394 -1.2775  0.5764 -3.2886
  315MOL0     H42500   7.501  10.380   4.307 -0.5943  0.6727 -0.4129
  315MOL0     H42501   7.467  10.354   4.611 -3.6367 -1.1719  1.4931
  315MOL0     H42502   7.426  10.475   4.494  2.3726 -0.3226  0.3111
  315MOL0     H42503   7.235  10.312   4.548 -3.4204  2.1730 -4.4888
  315MOL0     H42504   7.337  10.191   4.463  1.1053 -0.7757  0.7541
  315MOL0     H42505   7.298  10.305   4.256  1.3819 -3.3152  2.4641
  315MOL0     H42506   7.261  10.461   4.326  0.9028  0.5243  0.0676
  315MOL0     H42507   8.067  10.583   4.764  1.1870  2.3484 -0.3475
  315MOL0     H42508   8.295  10.671   4.792  2.0399  0.5732 -0.4891
  315MOL0     H42509   8.726  10.887   4.675 -0.0112  1.1445  2.4327
  315MOL0     H42510   8.959  10.922   4.690 -2.5366  1.5081 -0.0230
  315MOL0     H42511  10.696  11.350   5.001  0.3065 -0.2096  1.1665
  315MOL0     H42512  10.924  11.278   5.002  1.1045 -1.2605 -0.2216
  315MOL0     H42513  11.226  11.006   5.066 -0.2213 -2.6141 -0.8305
  315MOL0     H42514  11.442  10.885   5.049  0.2364 -0.5205 -0.3108
  315MOL0     H42515  11.682  11.038   5.184 -0.6355  0.7172 -0.7564
  315MOL0     H42516  11.729  10.996   5.351 -1.7200  2.3886 -0.7755
  315MOL0     H42517  11.918  10.989   5.213 -0.3188 -0.6788  1.1656
  315MOL0     H42518  11.830  10.888   5.087 -4.2001 -2.7081  0.1163
  315MOL0     H42519  11.834  10.692   5.226 -1.5202  0.4127 -0.2931
  315MOL0     H42520  11.894  10.770   5.362  2.0419 -2.8703  0.0413
  315MOL0     H42521  12.061  10.728   5.113 -0.3046 -1.1438 -1.0123
  315MOL0     H42522  12.069  10.637   5.271 -0.9532  0.3595  0.5312
  315MOL0     H42523  12.246  11.034   5.353  0.5819  1.2202 -0.7372
  315MOL0     H42524  11.523  10.955   5.456 -0.5577 -0.0924  0.8365
  315MOL0     H42525  11.289  11.063   5.485 -1.2924  0.3411 -0.9568
  316MOL0     O42526   8.001   8.875   2.435  0.6328 -0.2187  0.1128
  316MOL0     C42527   8.008   8.890   2.554  0.0977 -0.0384  0.0054
  316MOL0     O42528   7.910   8.871   2.636 -0.4093 -0.0864  0.2709
  316MOL0     C42529   7.787   8.841   2.583  0.5996 -0.4240 -0.6605
  316MOL0     C42530   7.728   8.727   2.627  0.2797  0.2121 -0.0654
  316MOL0     C42531   7.597   8.696   2.588 -0.1692 -0.0711 -0.0967
  316MOL0     C42532   7.527   8.774   2.501  0.4761  0.6585  0.2764
  316MOL0     O42533   7.394   8.754   2.475  0.3818  0.5640 -0.3357
  316MOL0     C42534   7.296   8.813   2.564 -0.7176  0.6736  0.8836
  316MOL0     C42535   7.219   8.698   2.627  0.5717  0.4516  0.1498
  316MOL0     C42536   7.127   8.750   2.733 -1.1670  0.5692  0.3206
  316MOL0     C42537   7.014   8.832   2.679 -1.3409 -0.2945  0.3744
  316MOL0     C42538   6.910   8.851   2.778 -0.2950  0.4037  0.1362
  316MOL0     C42539   6.787   8.921   2.721  1.2660 -0.1801 -0.5864
  316MOL0     C42540   6.690   8.969   2.832 -0.2620 -1.5486 -0.1298
  316MOL0     C42541   6.564   9.054   2.789  0.0125  0.8784 -0.2942
  316MOL0     N42542   6.452   8.962   2.738  0.2266 -0.0557  0.0153
  316MOL0     C42543   6.378   8.872   2.810 -0.1591 -0.4583  0.4793
  316MOL0     C42544   6.270   8.835   2.731 -0.5498 -0.6202 -0.0318
  316MOL0     C42545   6.171   8.726   2.757 -0.3877 -0.4307 -0.2474
  316MOL0     C42546   6.049   8.753   2.671 -0.1494 -0.0774  0.1724
  316MOL0     C42547   5.951   8.645   2.655  0.2476  0.2112  0.0538
  316MOL0     C42548   5.817   8.686   2.605  1.0203  0.3352  0.1108
  316MOL0     O42549   5.724   8.578   2.594 -0.3529 -0.2725 -0.2915
  316MOL0     C42550   5.603   8.597   2.535  0.3581 -0.1987 -0.2459
  316MOL0     C42551   5.511   8.485   2.537  0.6104 -0.1863  0.4420
  316MOL0     C42552   5.377   8.502   2.489  0.1019  1.1128 -0.3675
  316MOL0     C42553   5.291   8.384   2.510 -0.6565 -0.0826  0.0052
  316MOL0     C42554   5.339   8.622   2.427  1.6163 -0.5528 -0.2920
  316MOL0     C42555   5.205   8.645   2.363  0.1877  0.4635  0.5297
  316MOL0     O42556   5.116   8.544   2.331 -0.1636 -0.0673  0.5206
  316MOL0     C42557   5.015   8.579   2.244  0.0343 -0.1544  1.0829
  316MOL0     C42558   5.037   8.565   2.105 -0.2512 -0.2023  0.5368
  316MOL0     C42559   4.930   8.586   2.018  0.4254 -0.1177 -0.7246
  316MOL0     C42560   4.807   8.635   2.068  0.7507 -0.0446 -0.3546
  316MOL0     O42561   4.705   8.662   1.978  0.4087 -0.1438 -0.2663
  316MOL0     C42562   4.612   8.555   1.984  0.3121 -0.1440 -0.9125
  316MOL0     C42563   4.553   8.530   1.847 -0.0745  0.0494 -0.2913
  316MOL0     C42564   4.416   8.452   1.852  0.6975 -0.6899  0.2153
  316MOL0     C42565   4.306   8.537   1.914 -0.4919 -0.4819 -0.2802
  316MOL0     C42566   4.161   8.492   1.879 -0.4934 -0.0169  0.5308
  316MOL0     C42567   4.061   8.594   1.933 -0.3028  0.3127 -0.5455
  316MOL0     C42568   3.917   8.557   1.887  0.4327  0.4613 -0.6907
  316MOL0     C42569   3.888   8.610   1.747  0.8364  0.1426 -0.5731
  316MOL0    Cl42570   3.872   8.781   1.767 -0.4949  0.0718  0.3224
  316MOL0     C42571   4.790   8.641   2.210  1.2400  0.0369  1.1234
  316MOL0     C42572   4.890   8.618   2.295  0.0240 -0.6768  0.2240
  316MOL0     O42573   5.193   8.757   2.320  0.0855  0.3799 -0.4072
  316MOL0     C42574   5.432   8.727   2.427 -0.2582  0.2477 -0.9034
  316MOL0     C42575   5.562   8.715   2.483  0.1757  0.1124  1.3482
  316MOL0     N42576   6.285   8.906   2.617  0.2617 -0.0834 -0.2120
  316MOL0     N42577   6.390   8.978   2.612  0.2986 -0.4620 -0.0531
  316MOL0     C42578   7.585   8.892   2.455 -0.1828  0.1009 -0.0133
  316MOL0     C42579   7.713   8.931   2.498  0.9202  0.3934 -0.2412
  316MOL0     C42580   8.145   8.919   2.609  0.0636  0.3678 -0.1800
  316MOL0     C42581   8.166   8.904   2.742  0.3404 -1.2713  0.4002
  316MOL0     C42582   8.296   8.913   2.793 -0.4787  0.1273  0.2716
  316MOL0     C42583   8.405   8.960   2.718 -0.1090  0.1407 -0.6826
  316MOL0     O42584   8.534   8.955   2.769 -0.1407  0.2034 -0.0583
  316MOL0     C42585   8.638   8.972   2.671 -0.1936  0.4189 -0.5910
  316MOL0     C42586   8.763   8.914   2.732 -1.1508  0.1461  0.0514
  316MOL0     C42587   8.883   8.925   2.630  0.8941  0.8329 -0.0237
  316MOL0     C42588   8.957   9.059   2.653  0.2850  0.4239 -0.3451
  316MOL0     C42589   9.042   9.064   2.534  0.0725 -0.6438  0.1145
  316MOL0     C42590   9.110   9.067   2.434 -0.4306  0.1515 -0.4431
  316MOL0     C42591   8.373   8.998   2.589  0.0283 -0.6545  0.3403
  316MOL0     C42592   8.246   8.983   2.536 -0.2045  0.5821 -0.1060
  316MOL0     H42593   7.773   8.659   2.699 -0.6822 -1.8480 -1.3026
  316MOL0     H42594   7.542   8.618   2.640  0.4984  0.8477  2.1017
  316MOL0     H42595   7.355   8.863   2.641  0.2342  1.9380 -0.6050
  316MOL0     H42596   7.234   8.882   2.507  1.1144  1.1773 -0.6099
  316MOL0     H42597   7.163   8.646   2.548 -1.0117  1.0248  0.8523
  316MOL0     H42598   7.295   8.631   2.665 -0.4230 -0.4120  0.6566
  316MOL0     H42599   7.085   8.656   2.770  1.3375 -1.6411 -2.0280
  316MOL0     H42600   7.183   8.800   2.813  0.3622 -1.0712  0.3180
  316MOL0     H42601   7.047   8.927   2.636 -1.9301 -0.6472 -0.8985
  316MOL0     H42602   6.965   8.788   2.592 -0.5024  0.0085 -0.2643
  316MOL0     H42603   6.876   8.754   2.815 -0.2324  0.9866  1.8190
  316MOL0     H42604   6.951   8.912   2.859  0.6449  1.8154 -1.3293
  316MOL0     H42605   6.803   9.012   2.662 -4.4798 -0.3217 -3.0245
  316MOL0     H42606   6.735   8.846   2.661  1.3533  0.0878 -0.9982
  316MOL0     H42607   6.666   8.880   2.891  2.1801 -0.8814  2.0393
  316MOL0     H42608   6.752   9.015   2.909 -0.3929 -1.3617 -0.1339
  316MOL0     H42609   6.588   9.127   2.711 -1.6819  4.8911  2.5951
  316MOL0     H42610   6.536   9.118   2.873 -0.1999  0.2206  0.1369
  316MOL0     H42611   6.400   8.836   2.909 -0.0868 -1.5379  0.0877
  316MOL0     H42612   6.207   8.631   2.719  0.1576  0.5721 -2.4086
  316MOL0     H42613   6.142   8.718   2.862  1.9151 -2.6637  0.3228
  316MOL0     H42614   6.071   8.800   2.574 -1.7159  3.6832  1.4329
  316MOL0     H42615   5.999   8.828   2.733 -0.7918 -1.9490  2.0213
  316MOL0     H42616   5.939   8.598   2.753 -0.8996  0.3547 -0.0130
  316MOL0     H42617   6.000   8.576   2.584  2.1486  2.5930 -1.1149
  316MOL0     H42618   5.826   8.735   2.507 -1.2605  0.8887  0.1107
  316MOL0     H42619   5.770   8.764   2.666 -0.9705  0.2596 -1.2216
  316MOL0     H42620   5.540   8.383   2.561 -0.6818 -0.8126 -0.5080
  316MOL0     H42621   5.253   8.352   2.413  0.6097 -0.9680 -0.2076
  316MOL0     H42622   5.339   8.304   2.566  0.8596  1.5403  1.1556
  316MOL0     H42623   5.205   8.406   2.574 -0.7118  0.7507 -0.3430
  316MOL0     H42624   5.136   8.546   2.063 -0.7449 -0.3224 -0.6155
  316MOL0     H42625   4.935   8.582   1.910 -0.5166 -3.2876 -0.7274
  316MOL0     H42626   4.651   8.463   2.028 -1.6910  0.4360  2.4187
  316MOL0     H42627   4.534   8.582   2.056  1.1185 -1.0802  0.3608
  316MOL0     H42628   4.538   8.632   1.809  0.8730  0.4596  0.3751
  316MOL0     H42629   4.631   8.478   1.791 -0.6718  0.5919 -1.6573
  316MOL0     H42630   4.429   8.366   1.918  3.4763  1.0493  2.2105
  316MOL0     H42631   4.394   8.425   1.749 -1.3423  1.1126  0.1003
  316MOL0     H42632   4.314   8.526   2.023 -1.0478  1.0601 -0.0661
  316MOL0     H42633   4.321   8.641   1.885 -5.1170  0.6237  0.4137
  316MOL0     H42634   4.145   8.392   1.921  0.5787 -0.7913 -0.8042
  316MOL0     H42635   4.154   8.479   1.770  0.0230  0.5146  0.4329
  316MOL0     H42636   4.074   8.601   2.041  1.7319  0.1011 -0.7363
  316MOL0     H42637   4.084   8.691   1.888  0.0820  0.3886 -0.1872
  316MOL0     H42638   3.841   8.602   1.951  1.4115  1.0105  0.1129
  316MOL0     H42639   3.909   8.448   1.882 -0.4198  0.4921 -0.0699
  316MOL0     H42640   3.793   8.567   1.715 -0.0409  1.1593  0.5471
  316MOL0     H42641   3.974   8.574   1.691  1.5663  0.6444  0.1913
  316MOL0     H42642   4.688   8.668   2.238  0.1256 -1.8349 -0.8312
  316MOL0     H42643   4.867   8.614   2.401  1.3602 -1.1212  0.5226
  316MOL0     H42644   5.408   8.827   2.392  2.6613  1.2879 -0.2972
  316MOL0     H42645   5.629   8.800   2.473  0.6060 -0.4838 -1.8015
  316MOL0     H42646   7.522   8.967   2.409 -2.5596 -0.7609  1.6443
  316MOL0     H42647   7.744   9.026   2.456  1.4052 -0.7610 -2.6548
  316MOL0     H42648   8.083   8.890   2.811 -1.1203 -0.7131 -1.2081
  316MOL0     H42649   8.316   8.888   2.897 -0.1228  0.3464  0.2595
  316MOL0     H42650   8.616   8.916   2.580  0.8788  0.5073 -0.9182
  316MOL0     H42651   8.647   9.077   2.642 -0.7341  1.3266  2.2330
  316MOL0     H42652   8.746   8.807   2.750 -1.6389  0.3907  1.1331
  316MOL0     H42653   8.795   8.974   2.818  0.0683  1.6952 -1.4192
  316MOL0     H42654   8.848   8.916   2.527  0.9173 -3.7148  0.1853
  316MOL0     H42655   8.949   8.841   2.651  1.9423  2.1116  2.2154
  316MOL0     H42656   9.013   9.043   2.746 -0.8231 -0.9596  0.1205
  316MOL0     H42657   8.896   9.148   2.668  0.3989  0.3314  0.7607
  316MOL0     H42658   9.173   9.069   2.348 -0.9792 -1.9325 -0.9317
  316MOL0     H42659   8.450   9.044   2.528 -0.5449 -0.4412 -0.2473
  316MOL0     H42660   8.236   9.020   2.434 -2.0130  3.0554  0.8589
  317MOL0     O42661  10.743  10.751   7.598  0.4428 -0.7013 -0.1848
  317MOL0     C42662  10.796  10.694   7.500  0.5075  0.1188 -0.0762
  317MOL0     O42663  10.730  10.659   7.389  0.0891  0.1069  0.1355
  317MOL0     C42664  10.589  10.658   7.387  0.1953 -0.3548 -0.3572
  317MOL0     C42665  10.506  10.619   7.493 -0.4707 -0.5109 -1.6618
  317MOL0     C42666  10.370  10.605   7.473  0.7282  0.2918  0.4233
  317MOL0     C42667  10.309  10.645   7.350  0.6125 -0.1259  0.0571
  317MOL0     O42668  10.171  10.666   7.350  0.2821  0.8981  0.6646
  317MOL0     C42669  10.122  10.631   7.213  0.1746  0.3509  0.3339
  317MOL0     C42670   9.970  10.599   7.204  0.0178 -0.6827 -0.5303
  317MOL0     C42671   9.924  10.455   7.204  0.2304 -0.5091  1.0039
  317MOL0     C42672   9.772  10.449   7.234 -1.2894  0.8821  0.3249
  317MOL0     C42673   9.689  10.463   7.107  0.5263 -0.7010 -0.4576
  317MOL0     C42674   9.552  10.394   7.115 -0.4181  0.0368  0.0681
  317MOL0     C42675   9.461  10.439   7.001 -0.2486  0.4468  0.4447
  317MOL0     C42676   9.394  10.567   7.053  0.0542 -0.4700 -0.6869
  317MOL0     N42677   9.271  10.610   6.977 -0.3504  0.6310 -0.7450
  317MOL0     C42678   9.165  10.523   6.945 -0.2736 -0.1743  0.2621
  317MOL0     C42679   9.091  10.592   6.858 -0.2104 -0.2153  0.3060
  317MOL0     C42680   8.974  10.533   6.783 -0.1676 -0.6208  0.3799
  317MOL0     C42681   8.845  10.517   6.847  0.4578 -0.3748 -0.0866
  317MOL0     C42682   8.757  10.443   6.756  1.2976 -0.0279  0.3724
  317MOL0     C42683   8.615  10.407   6.814  0.4458 -0.2946 -0.1618
  317MOL0     O42684   8.522  10.389   6.699 -0.6062  0.0562  0.0711
  317MOL0     C42685   8.390  10.346   6.726 -0.2938 -0.2413  0.5912
  317MOL0     C42686   8.303  10.348   6.616 -0.2361 -0.5647  0.3089
  317MOL0     C42687   8.166  10.321   6.643  0.2098 -0.5709  0.5230
  317MOL0     C42688   8.077  10.343   6.516 -0.4558  0.3314 -0.0390
  317MOL0     C42689   8.118  10.261   6.766  0.5270 -1.1392 -0.0628
  317MOL0     C42690   7.988  10.203   6.792 -0.3794  0.7104  0.0097
  317MOL0     O42691   7.905  10.185   6.680 -0.1946 -0.5157 -0.2675
  317MOL0     C42692   7.771  10.165   6.693 -0.5453 -0.0887  0.5837
  317MOL0     C42693   7.716  10.130   6.573 -0.2353 -0.0663  0.2132
  317MOL0     C42694   7.580  10.116   6.569 -0.0946  0.9826  0.0827
  317MOL0     C42695   7.495  10.156   6.667 -0.0455  0.2113  0.3378
  317MOL0     O42696   7.356  10.157   6.654  0.0657  0.5033 -0.5708
  317MOL0     C42697   7.295  10.136   6.528  0.4968  0.1280 -0.6053
  317MOL0     C42698   7.145  10.126   6.535 -0.0155  0.4711  0.0583
  317MOL0     C42699   7.083  10.077   6.398  0.2366  0.3365 -0.9751
  317MOL0     C42700   6.932  10.074   6.409  0.5738 -0.0724 -0.2239
  317MOL0     C42701   6.861  10.039   6.274 -0.4917 -0.1955  0.0030
  317MOL0     C42702   6.709  10.007   6.298 -0.7446 -0.1392 -0.5938
  317MOL0     C42703   6.650   9.922   6.184 -0.7561 -0.3164 -0.2297
  317MOL0     C42704   6.511   9.874   6.220  0.1459  0.1984 -0.3424
  317MOL0    Cl42705   6.401  10.016   6.198 -0.8073 -0.2814  0.2577
  317MOL0     C42706   7.544  10.183   6.795  0.7262 -0.1300  0.7437
  317MOL0     C42707   7.684  10.185   6.800  0.3475  0.3405 -0.8953
  317MOL0     O42708   7.956  10.178   6.908  0.2394  0.1782  0.4078
  317MOL0     C42709   8.215  10.241   6.866  0.3473  0.1163 -0.3068
  317MOL0     C42710   8.339  10.297   6.848  0.5310 -0.8198  0.0371
  317MOL0     N42711   9.142  10.724   6.844 -0.4984 -0.3444  0.3697
  317MOL0     N42712   9.258  10.727   6.905  0.0670  0.3493  0.2457
  317MOL0     C42713  10.401  10.689   7.245  0.1161  0.1482  0.2532
  317MOL0     C42714  10.534  10.699   7.266 -0.2471  0.1595  0.5374
  317MOL0     C42715  10.942  10.677   7.510 -0.0117  1.1946  0.5181
  317MOL0     C42716  11.014  10.626   7.399 -0.3538  0.3219  0.0549
  317MOL0     C42717  11.157  10.609   7.415 -1.1518 -0.8105  0.4101
  317MOL0     C42718  11.228  10.641   7.529  0.0491 -0.0129 -0.0147
  317MOL0     O42719  11.358  10.602   7.547  1.1996 -0.0320  0.0910
  317MOL0     C42720  11.442  10.646   7.659  0.1115  0.5385 -0.5260
  317MOL0     C42721  11.560  10.556   7.663 -0.5003 -0.4741  0.5396
  317MOL0     C42722  11.618  10.583   7.806 -1.2455 -0.6583 -0.0757
  317MOL0     C42723  11.707  10.479   7.856 -0.4095  0.0434 -0.1714
  317MOL0     C42724  11.825  10.466   7.768 -0.1106  0.2088 -0.0595
  317MOL0     C42725  11.919  10.455   7.689  0.0613 -0.5443 -0.0001
  317MOL0     C42726  11.151  10.709   7.617 -0.7204  0.3950  0.1053
  317MOL0     C42727  11.014  10.735   7.613  0.2559 -0.2571  1.3485
  317MOL0     H42728  10.544  10.605   7.594 -0.5077  4.5692 -0.6757
  317MOL0     H42729  10.310  10.569   7.556 -0.9030 -0.1173 -0.8878
  317MOL0     H42730  10.151  10.712   7.145  0.7039 -0.3591 -0.2981
  317MOL0     H42731  10.170  10.541   7.175 -1.0610  0.1394 -0.8074
  317MOL0     H42732   9.920  10.655   7.284 -1.1430 -0.9477 -1.0382
  317MOL0     H42733   9.934  10.642   7.110  0.8097  1.1318 -0.0415
  317MOL0     H42734   9.955  10.410   7.109  2.3357  2.0980  0.3244
  317MOL0     H42735   9.987  10.399   7.274  0.2518 -1.0371  0.5752
  317MOL0     H42736   9.750  10.353   7.281 -0.6936 -0.4322 -1.8997
  317MOL0     H42737   9.747  10.530   7.303  1.8515  1.6306  0.7304
  317MOL0     H42738   9.677  10.572   7.115 -1.8156 -1.0524  4.5985
  317MOL0     H42739   9.742  10.433   7.016 -0.0964  1.1563 -1.4959
  317MOL0     H42740   9.552  10.285   7.119 -0.4710  0.0652  1.6346
  317MOL0     H42741   9.502  10.416   7.210 -2.0469  1.5423 -1.0777
  317MOL0     H42742   9.511  10.446   6.904  0.7707 -1.1174  0.8091
  317MOL0     H42743   9.388  10.360   6.981  1.4194 -0.5923 -2.0669
  317MOL0     H42744   9.471  10.644   7.059  0.2515 -0.7217  0.0985
  317MOL0     H42745   9.352  10.541   7.150 -0.5297 -0.1019 -0.8360
  317MOL0     H42746   9.148  10.419   6.972 -2.2453 -0.2095 -0.9318
  317MOL0     H42747   8.951  10.603   6.702 -0.6358 -0.4445  0.6624
  317MOL0     H42748   9.007  10.439   6.739  1.3641 -0.7488  1.7020
  317MOL0     H42749   8.811  10.618   6.873  3.4919  0.5920  0.4222
  317MOL0     H42750   8.849  10.454   6.937  1.7351 -0.3427 -0.1082
  317MOL0     H42751   8.803  10.347   6.733  2.2424  0.7380 -1.1102
  317MOL0     H42752   8.742  10.500   6.664  0.8465  0.5845  0.8178
  317MOL0     H42753   8.585  10.490   6.879  1.8329 -1.7723  2.5388
  317MOL0     H42754   8.613  10.318   6.878 -0.4547 -1.5144 -1.8359
  317MOL0     H42755   8.347  10.374   6.520 -0.7911  0.4693  0.3158
  317MOL0     H42756   8.026  10.250   6.489  0.6064 -0.0341 -0.8459
  317MOL0     H42757   7.998  10.418   6.524  0.1343  0.9415  0.1314
  317MOL0     H42758   8.145  10.361   6.432 -0.9900 -2.2462 -1.1186
  317MOL0     H42759   7.778  10.103   6.488 -0.7410  1.5341 -0.7052
  317MOL0     H42760   7.541  10.090   6.471 -0.1745  1.4462 -0.0129
  317MOL0     H42761   7.331  10.218   6.465  2.5685 -0.2389  0.0220
  317MOL0     H42762   7.330  10.043   6.482  2.0988  1.6716 -2.7341
  317MOL0     H42763   7.120  10.056   6.615  2.8334 -0.5855  0.1311
  317MOL0     H42764   7.093  10.221   6.548  1.9397  1.4022  1.4989
  317MOL0     H42765   7.108   9.971   6.388  0.6748  0.4508 -1.0751
  317MOL0     H42766   7.134  10.133   6.320  5.0587  0.9113  2.1995
  317MOL0     H42767   6.898  10.007   6.489  2.5399 -0.0425  0.6880
  317MOL0     H42768   6.890  10.172   6.436 -0.1454 -0.1736 -0.9431
  317MOL0     H42769   6.910   9.948   6.238  2.2064  1.6435 -1.3369
  317MOL0     H42770   6.874  10.111   6.193  0.0385  0.4479  0.6512
  317MOL0     H42771   6.704   9.939   6.383 -3.8272  1.4710  0.6913
  317MOL0     H42772   6.644  10.092   6.324 -0.0636 -0.0730  0.9702
  317MOL0     H42773   6.709   9.835   6.155 -0.1761  0.4235 -1.3381
  317MOL0     H42774   6.647   9.994   6.102  0.6913 -0.3515 -0.3258
  317MOL0     H42775   6.506   9.825   6.317  2.1962 -3.6111 -1.9531
  317MOL0     H42776   6.486   9.792   6.153  1.7450 -3.8923  3.6064
  317MOL0     H42777   7.484  10.212   6.880  1.6317 -0.0383  1.3620
  317MOL0     H42778   7.718  10.205   6.901 -3.0722  1.7313  0.0952
  317MOL0     H42779   8.189  10.189   6.957  2.5536 -0.4751  0.0412
  317MOL0     H42780   8.415  10.300   6.925 -1.8404 -0.5460  2.5503
  317MOL0     H42781  10.362  10.739   7.157  0.9931  2.2966  1.0219
  317MOL0     H42782  10.600  10.735   7.187  0.0813  0.6420  1.0221
  317MOL0     H42783  10.963  10.601   7.307 -1.4191 -0.2561  0.7826
  317MOL0     H42784  11.208  10.564   7.331 -0.2068  0.9013  0.0225
  317MOL0     H42785  11.464  10.753   7.650 -3.0205  1.1483 -2.5433
  317MOL0     H42786  11.387  10.642   7.753  1.8007  2.1917  0.5966
  317MOL0     H42787  11.624  10.590   7.581 -2.0690  2.4731  0.3848
  317MOL0     H42788  11.537  10.450   7.656  2.7405 -1.1473 -2.9136
  317MOL0     H42789  11.551  10.604   7.890  1.6198 -1.9921  2.7477
  317MOL0     H42790  11.672  10.677   7.792 -3.5404  0.5480 -1.5281
  317MOL0     H42791  11.641  10.393   7.856 -0.2380 -0.2056  3.0646
  317MOL0     H42792  11.732  10.502   7.960 -0.1465 -1.9222  0.2361
  317MOL0     H42793  12.006  10.461   7.626 -0.7438  2.0547 -1.0119
  317MOL0     H42794  11.204  10.743   7.706 -0.2784 -0.5676  0.2218
  317MOL0     H42795  10.960  10.796   7.685 -0.9708 -0.7713  0.9048
  318MOL0     O42796   3.401   6.010   6.660 -0.3365  0.2898  0.4653
  318MOL0     C42797   3.467   5.923   6.715  0.1847  0.5374 -0.1566
  318MOL0     O42798   3.424   5.795   6.742  0.2533  0.2898  0.2200
  318MOL0     C42799   3.288   5.783   6.744  0.6900 -0.0076  0.4942
  318MOL0     C42800   3.217   5.829   6.851  0.4355 -0.1299 -1.0830
  318MOL0     C42801   3.077   5.816   6.861 -0.1135  0.9640  0.2961
  318MOL0     C42802   3.002   5.750   6.760 -0.4024  0.8553  0.2740
  318MOL0     O42803   2.864   5.715   6.768 -0.4091  0.6293 -0.3423
  318MOL0     C42804   2.811   5.677   6.896  0.0915 -0.5294  0.5620
  318MOL0     C42805   2.659   5.672   6.897  0.0808  0.0826 -0.1818
  318MOL0     C42806   2.592   5.809   6.858  0.0114  0.0897  0.3171
  318MOL0     C42807   2.443   5.822   6.886  0.3907 -0.7690 -0.0841
  318MOL0     C42808   2.393   5.949   6.817 -0.3138 -0.2948  0.7033
  318MOL0     C42809   2.257   5.985   6.877 -0.6632 -0.0077 -1.1933
  318MOL0     C42810   2.180   6.095   6.799 -0.6217  0.7823  0.3277
  318MOL0     C42811   2.050   6.117   6.875 -0.7942  0.8013  0.4025
  318MOL0     N42812   1.956   6.002   6.861  0.5396  0.1797 -0.0277
  318MOL0     C42813   1.903   5.962   6.739 -0.2058  0.0557  0.6375
  318MOL0     C42814   1.803   5.876   6.774  0.4386  0.4072 -0.0974
  318MOL0     C42815   1.712   5.796   6.684  0.1629  0.2672 -0.0435
  318MOL0     C42816   1.658   5.878   6.570  0.3284 -0.5128  0.2514
  318MOL0     C42817   1.579   5.778   6.483  0.0780  0.1271  0.1166
  318MOL0     C42818   1.458   5.850   6.424 -0.1433  0.6579 -0.2335
  318MOL0     O42819   1.353   5.888   6.519 -0.0698  0.7326  0.1227
  318MOL0     C42820   1.221   5.894   6.472 -0.3511 -0.4722 -0.0167
  318MOL0     C42821   1.182   5.957   6.354  0.3208 -0.0496  0.5352
  318MOL0     C42822   1.048   5.965   6.317  0.0989  0.3613 -0.2907
  318MOL0     C42823   1.018   5.992   6.171 -0.6622  0.8801 -0.3033
  318MOL0     C42824   0.945   5.928   6.402 -0.7997  0.0928 -1.5792
  318MOL0     C42825   0.800   5.936   6.387  0.9246  0.8932  0.5084
  318MOL0     O42826   0.714   5.964   6.495 -0.4027  0.1004  0.1693
  318MOL0     C42827   0.589   6.013   6.463  0.2068 -0.0227 -0.9863
  318MOL0     C42828   0.564   6.107   6.363 -0.0713 -0.4328  0.1201
  318MOL0     C42829   0.437   6.151   6.324 -0.8895  0.8121  0.2519
  318MOL0     C42830   0.328   6.099   6.381  0.3161 -0.5670 -0.0740
  318MOL0     O42831   0.191   6.137   6.362  0.7271 -0.7260 -0.6774
  318MOL0     C42832   0.159   6.241   6.272 -0.5393  0.3825  0.3276
  318MOL0     C42833   0.105   6.169   6.144  0.3597  0.6804 -0.2821
  318MOL0     C42834   0.079   6.271   6.035 -1.0808 -0.1328  0.1569
  318MOL0     C42835   0.039   6.204   5.902  0.8290 -0.3326  0.1233
  318MOL0     C42836   0.046   6.287   5.772  0.8180 -0.1645  0.4041
  318MOL0     C42837  -0.014   6.224   5.651 -0.4491 -0.6076 -0.6336
  318MOL0     C42838  -0.005   6.326   5.536 -0.3121  0.0337  0.2773
  318MOL0     C42839  -0.064   6.269   5.405 -1.1865 -0.0008 -0.5000
  318MOL0    Cl42840   0.011   6.099   5.371 -0.3290  0.2230 -0.4063
  318MOL0     C42841   0.348   5.999   6.488  0.3624 -0.1427  0.8103
  318MOL0     C42842   0.474   5.971   6.540 -0.6704  0.7775  0.3202
  318MOL0     O42843   0.764   5.913   6.267  0.1216 -0.0366 -0.3107
  318MOL0     C42844   0.985   5.872   6.527  0.8535  0.6255  0.1272
  318MOL0     C42845   1.117   5.854   6.558  0.2813  0.8401 -0.3052
  318MOL0     N42846   1.800   5.855   6.906  0.3516  0.3426  0.1612
  318MOL0     N42847   1.900   5.923   6.957 -0.5192  1.0263 -0.9463
  318MOL0     C42848   3.069   5.718   6.644 -0.7230  0.4231 -0.8577
  318MOL0     C42849   3.218   5.732   6.631  0.3292 -0.1479  0.4608
  318MOL0     C42850   3.602   5.958   6.764 -0.3182 -0.0617 -0.1962
  318MOL0     C42851   3.650   6.080   6.732 -0.6513 -0.2518 -0.0571
  318MOL0     C42852   3.775   6.124   6.788 -0.4510 -0.2458 -1.3215
  318MOL0     C42853   3.860   6.037   6.867  0.9049 -0.0206  0.1536
  318MOL0     O42854   3.979   6.086   6.903 -0.9385 -0.5126  0.2000
  318MOL0     C42855   4.055   6.021   7.008 -0.5219  0.2565  0.1321
  318MOL0     C42856   4.155   6.110   7.075 -0.0808 -0.9791 -0.7351
  318MOL0     C42857   4.270   6.166   6.991  0.4065  0.0443  0.9025
  318MOL0     C42858   4.346   6.279   7.055 -0.6770  0.7316 -0.2102
  318MOL0     C42859   4.433   6.347   6.953 -0.1744  0.0555  0.3149
  318MOL0     C42860   4.507   6.412   6.878  0.2802 -0.1760 -0.4487
  318MOL0     C42861   3.813   5.905   6.894  0.7047  0.6329 -0.2479
  318MOL0     C42862   3.675   5.872   6.854 -0.2314  0.5225  0.3180
  318MOL0     H42863   3.274   5.876   6.930 -2.5556 -0.3941  1.4022
  318MOL0     H42864   3.027   5.828   6.957 -2.4931  0.9447 -0.8726
  318MOL0     H42865   2.848   5.581   6.934  1.0752 -1.1757 -1.8378
  318MOL0     H42866   2.839   5.753   6.970 -0.7826 -1.8394  2.3074
  318MOL0     H42867   2.634   5.593   6.825 -0.5324  0.2926 -0.2063
  318MOL0     H42868   2.623   5.643   6.996  0.1733 -0.0645 -0.1913
  318MOL0     H42869   2.647   5.886   6.912  3.6552  0.1858 -3.0164
  318MOL0     H42870   2.600   5.817   6.749 -0.0519 -0.2898  0.2825
  318MOL0     H42871   2.393   5.729   6.858 -1.2076  0.2539 -0.7236
  318MOL0     H42872   2.442   5.833   6.995  1.7698  0.4758 -0.1629
  318MOL0     H42873   2.463   6.029   6.840  0.6266 -1.0352  0.4888
  318MOL0     H42874   2.392   5.943   6.708  1.6104  1.4172  0.5365
  318MOL0     H42875   2.197   5.894   6.882  1.6022 -1.5272  0.0490
  318MOL0     H42876   2.276   6.012   6.981 -0.2634 -2.5207 -0.5564
  318MOL0     H42877   2.244   6.184   6.796  1.1027 -0.4304 -1.5544
  318MOL0     H42878   2.168   6.055   6.698  1.7140  0.2526  0.2039
  318MOL0     H42879   1.998   6.202   6.829 -1.1815 -0.3067 -1.3263
  318MOL0     H42880   2.069   6.134   6.981  0.5241 -0.8651  0.4721
  318MOL0     H42881   1.914   5.989   6.635 -1.4513 -0.4400  0.3622
  318MOL0     H42882   1.760   5.703   6.652 -0.0292 -1.1329  3.3200
  318MOL0     H42883   1.634   5.743   6.739  0.3959 -4.4395 -3.5394
  318MOL0     H42884   1.741   5.918   6.512  2.4877 -0.7413  2.9706
  318MOL0     H42885   1.602   5.965   6.608 -2.4022 -1.3965 -1.4514
  318MOL0     H42886   1.537   5.695   6.541 -0.5360  2.6310  3.5882
  318MOL0     H42887   1.648   5.741   6.407  1.5174 -1.8172  2.2075
  318MOL0     H42888   1.414   5.783   6.350  0.7176  0.0507 -0.2025
  318MOL0     H42889   1.492   5.937   6.367  1.5536  0.4941  0.4829
  318MOL0     H42890   1.263   5.983   6.288 -2.2223 -1.4807 -3.4943
  318MOL0     H42891   0.940   6.066   6.157  1.3747  3.3573  0.6193
  318MOL0     H42892   1.107   6.031   6.122 -0.5671  2.5280  1.1033
  318MOL0     H42893   0.982   5.900   6.124 -0.0103  0.3420  0.2160
  318MOL0     H42894   0.654   6.150   6.319 -0.6142 -1.2283 -1.8825
  318MOL0     H42895   0.433   6.220   6.240 -2.3790  0.2572 -0.1631
  318MOL0     H42896   0.080   6.313   6.297 -0.0717  1.2569 -0.6284
  318MOL0     H42897   0.245   6.305   6.252  1.0726 -1.5384  0.7142
  318MOL0     H42898   0.172   6.085   6.125 -1.0297 -0.8458  1.2286
  318MOL0     H42899   0.013   6.117   6.173  0.0915  1.0871 -0.3803
  318MOL0     H42900   0.170   6.328   6.017 -0.1322 -1.5797  0.2084
  318MOL0     H42901  -0.003   6.334   6.071 -0.3268 -1.1692  4.1255
  318MOL0     H42902   0.106   6.118   5.891  3.0171  1.1574  1.0246
  318MOL0     H42903  -0.062   6.164   5.910  0.6707 -0.1105 -0.6463
  318MOL0     H42904   0.151   6.307   5.753  0.5345 -0.8556 -2.1808
  318MOL0     H42905  -0.016   6.376   5.788  2.3856  1.0414 -0.0395
  318MOL0     H42906   0.040   6.131   5.631  0.5995  0.0783 -1.1012
  318MOL0     H42907  -0.114   6.184   5.670 -0.1507 -0.9300  0.3122
  318MOL0     H42908   0.102   6.345   5.519 -0.4000  0.0263 -0.3082
  318MOL0     H42909  -0.058   6.419   5.557 -1.4003 -0.9039  1.8528
  318MOL0     H42910  -0.044   6.341   5.326 -1.8758  1.2152  0.4013
  318MOL0     H42911  -0.172   6.251   5.402 -1.0059 -1.0238 -2.3084
  318MOL0     H42912   0.259   5.954   6.529 -0.4255  3.2505  3.2240
  318MOL0     H42913   0.495   5.893   6.613 -0.2466 -0.2697 -0.8669
  318MOL0     H42914   0.909   5.857   6.603  0.1225 -1.0132 -0.8814
  318MOL0     H42915   1.155   5.805   6.647 -0.1591  2.1382  0.6231
  318MOL0     H42916   3.003   5.684   6.564 -0.6243 -3.5166  0.5172
  318MOL0     H42917   3.272   5.707   6.541  1.5864 -1.8261  1.6054
  318MOL0     H42918   3.601   6.158   6.675  0.4167  0.2330 -0.3341
  318MOL0     H42919   3.801   6.227   6.767 -2.0410  0.3625 -0.5213
  318MOL0     H42920   3.989   5.975   7.082  0.7416 -3.4468 -0.8508
  318MOL0     H42921   4.102   5.933   6.965 -2.2675  0.9278 -3.5140
  318MOL0     H42922   4.201   6.053   7.156  3.4438  2.4545  0.0190
  318MOL0     H42923   4.096   6.187   7.124  1.8292 -0.6593  1.2261
  318MOL0     H42924   4.230   6.200   6.895  0.9574  1.7052  1.2400
  318MOL0     H42925   4.346   6.088   6.979 -1.2272 -1.7007  1.2291
  318MOL0     H42926   4.397   6.242   7.145  0.3903  3.3292  0.3414
  318MOL0     H42927   4.275   6.358   7.084 -1.4222  0.3406 -0.9286
  318MOL0     H42928   4.569   6.454   6.802  2.2100 -0.7765  0.7187
  318MOL0     H42929   3.877   5.833   6.943 -1.1073 -2.0524 -1.6045
  318MOL0     H42930   3.644   5.771   6.876  2.6902 -0.7220 -0.9078
  319MOL0     O42931   7.247   7.462   3.089 -0.4169 -0.1837 -0.0089
  319MOL0     C42932   7.258   7.574   3.137  0.0974  0.4379  0.6709
  319MOL0     O42933   7.177   7.676   3.119 -0.1603 -0.1267 -0.8885
  319MOL0     C42934   7.075   7.658   3.028  0.6192  0.2725  0.5943
  319MOL0     C42935   6.957   7.610   3.071  0.9097  0.5826  0.4569
  319MOL0     C42936   6.853   7.592   2.980  0.4639  0.3095 -0.2844
  319MOL0     C42937   6.858   7.629   2.849 -0.3919 -0.6813  0.2214
  319MOL0     O42938   6.748   7.620   2.763 -0.0931 -0.4547  0.5423
  319MOL0     C42939   6.768   7.600   2.617 -0.1024  0.1936 -0.0418
  319MOL0     C42940   6.625   7.560   2.546 -0.4572 -0.4709  0.8525
  319MOL0     C42941   6.647   7.541   2.393  0.1732 -0.1847  0.5791
  319MOL0     C42942   6.715   7.404   2.374  0.4370 -0.2595 -0.0001
  319MOL0     C42943   6.743   7.369   2.221 -0.2164 -0.2654  0.1790
  319MOL0     C42944   6.847   7.463   2.152  0.5241 -0.5867  0.8334
  319MOL0     C42945   6.992   7.438   2.204 -0.3821 -0.7898  0.1972
  319MOL0     C42946   7.100   7.547   2.170  0.1414  0.3661  0.0583
  319MOL0     N42947   7.146   7.541   2.034 -0.7017 -0.0312 -0.4749
  319MOL0     C42948   7.240   7.457   1.983  0.2901 -0.2066 -0.8792
  319MOL0     C42949   7.232   7.474   1.853 -0.2207 -0.3010  0.2122
  319MOL0     C42950   7.303   7.408   1.732  0.1971 -0.1338  0.2463
  319MOL0     C42951   7.388   7.505   1.661 -0.1512  0.3084  0.4844
  319MOL0     C42952   7.502   7.558   1.754 -0.8616  0.0384 -0.1518
  319MOL0     C42953   7.577   7.660   1.680 -0.1216 -0.8884  0.4022
  319MOL0     O42954   7.700   7.670   1.757 -0.4659  0.4350 -0.2462
  319MOL0     C42955   7.790   7.755   1.693 -0.0244  0.4985 -0.1122
  319MOL0     C42956   7.782   7.813   1.567 -0.1810 -0.5453  0.2716
  319MOL0     C42957   7.881   7.901   1.513 -0.1226  0.0356 -1.1253
  319MOL0     C42958   7.843   7.967   1.376  0.1419 -0.6838  0.6620
  319MOL0     C42959   7.997   7.923   1.581 -0.1372  0.3571  0.5943
  319MOL0     C42960   8.110   8.008   1.536 -0.5146 -0.1210 -0.1052
  319MOL0     O42961   8.215   7.998   1.620 -0.2335 -0.0053 -0.2995
  319MOL0     C42962   8.340   8.052   1.603  0.3154  0.6671  0.3031
  319MOL0     C42963   8.395   8.077   1.473 -0.1874 -0.0794  0.6511
  319MOL0     C42964   8.528   8.115   1.462 -0.4322  0.4913  0.3371
  319MOL0     C42965   8.603   8.150   1.575  0.1781  0.0658 -0.3739
  319MOL0     O42966   8.732   8.195   1.561  0.3573 -0.3655 -0.2965
  319MOL0     C42967   8.825   8.119   1.484  0.6444 -0.6590 -0.2958
  319MOL0     C42968   8.848   7.981   1.548  0.1735  0.3339  0.2052
  319MOL0     C42969   8.968   7.912   1.483  0.3255  0.9759 -0.2840
  319MOL0     C42970   9.030   7.806   1.571 -0.9154  0.8131  0.1890
  319MOL0     C42971   8.933   7.696   1.616 -0.6836 -0.2156  1.3526
  319MOL0     C42972   8.878   7.618   1.505  0.6790 -0.7126  0.5238
  319MOL0     C42973   8.793   7.495   1.542  0.9626  0.0336 -0.0145
  319MOL0     C42974   8.672   7.539   1.615 -1.1280 -1.3195  0.8378
  319MOL0    Cl42975   8.556   7.404   1.650 -0.6881 -0.0636 -0.4300
  319MOL0     C42976   8.547   8.139   1.704  0.5386 -0.8711  0.2384
  319MOL0     C42977   8.416   8.089   1.714  0.4116  0.2129  0.5041
  319MOL0     O42978   8.096   8.090   1.441  0.0942  0.1589  0.6882
  319MOL0     C42979   8.011   7.859   1.704  0.7293  0.4489 -0.4739
  319MOL0     C42980   7.909   7.770   1.757 -0.0188 -0.3328 -0.1469
  319MOL0     N42981   7.135   7.564   1.826  0.2795 -0.5672  0.7548
  319MOL0     N42982   7.086   7.613   1.941  1.1214 -0.5621  0.4267
  319MOL0     C42983   6.973   7.705   2.811  0.2286 -0.0936  0.0207
  319MOL0     C42984   7.079   7.717   2.901  0.9192 -0.5346  0.4714
  319MOL0     C42985   7.371   7.600   3.232  0.3074  1.2706  0.2129
  319MOL0     C42986   7.485   7.515   3.219 -0.2631 -0.2426  0.2582
  319MOL0     C42987   7.592   7.535   3.307 -0.6670  0.1753 -0.5741
  319MOL0     C42988   7.578   7.619   3.420 -0.1400 -0.3532 -0.2962
  319MOL0     O42989   7.673   7.604   3.518  0.0571 -0.5912 -0.6215
  319MOL0     C42990   7.710   7.722   3.585 -0.9872 -0.2751  0.5180
  319MOL0     C42991   7.850   7.706   3.635  0.1229  0.0139  0.5384
  319MOL0     C42992   7.899   7.819   3.728  0.3400  0.7958 -0.0330
  319MOL0     C42993   7.838   7.796   3.870  0.3141 -0.1974 -0.1919
  319MOL0     C42994   7.908   7.884   3.972 -0.3496 -0.1876 -0.0646
  319MOL0     C42995   7.954   7.964   4.044 -0.2253 -0.0444 -0.0545
  319MOL0     C42996   7.471   7.706   3.430  0.8744  0.0933  0.1368
  319MOL0     C42997   7.366   7.697   3.332 -0.1052 -0.0132  0.0861
  319MOL0     H42998   6.952   7.580   3.176 -1.6532  3.7473  1.3941
  319MOL0     H42999   6.753   7.552   2.996  0.4911 -0.2223 -1.3485
  319MOL0     H43000   6.795   7.687   2.556 -1.5817 -0.6674 -2.0525
  319MOL0     H43001   6.842   7.521   2.599 -0.6785 -0.1535 -0.9472
  319MOL0     H43002   6.593   7.462   2.583  0.8805 -1.8278 -1.3935
  319MOL0     H43003   6.555   7.643   2.560  2.4102  2.5099 -1.1946
  319MOL0     H43004   6.545   7.539   2.353  0.7633  0.2774 -1.0343
  319MOL0     H43005   6.697   7.626   2.346 -4.0758  2.3624  0.1191
  319MOL0     H43006   6.813   7.397   2.422  1.4770 -2.3198 -2.1994
  319MOL0     H43007   6.654   7.329   2.425  1.4985 -0.6235  0.7591
  319MOL0     H43008   6.788   7.270   2.210 -1.1032 -0.7048  0.4432
  319MOL0     H43009   6.653   7.382   2.160  1.3961  2.8904 -1.8071
  319MOL0     H43010   6.847   7.440   2.045 -1.5659 -0.9517  0.8689
  319MOL0     H43011   6.823   7.569   2.162  0.2352 -0.2445 -2.3071
  319MOL0     H43012   6.992   7.424   2.313 -0.7953 -0.8101  0.1961
  319MOL0     H43013   7.026   7.342   2.166  1.3689  0.4620 -1.5534
  319MOL0     H43014   7.193   7.528   2.226 -0.3591 -2.0687  0.2101
  319MOL0     H43015   7.061   7.646   2.194 -3.6925 -0.9507 -0.0373
  319MOL0     H43016   7.321   7.403   2.030  0.5792  1.9932  1.3758
  319MOL0     H43017   7.364   7.323   1.764  3.1847  1.9440  0.3586
  319MOL0     H43018   7.224   7.369   1.666 -1.8619 -0.9044  2.9640
  319MOL0     H43019   7.328   7.591   1.628 -2.2494 -1.0006  0.6620
  319MOL0     H43020   7.437   7.473   1.569  0.0320  1.3510  0.2047
  319MOL0     H43021   7.566   7.472   1.774  0.2445  0.8725 -0.0083
  319MOL0     H43022   7.471   7.606   1.848 -2.9382 -1.1695 -0.1740
  319MOL0     H43023   7.527   7.757   1.684 -1.2435 -1.4373  0.0600
  319MOL0     H43024   7.592   7.632   1.575  1.8062  2.6424 -0.4324
  319MOL0     H43025   7.690   7.795   1.511 -0.7716 -2.2913  1.7030
  319MOL0     H43026   7.751   7.932   1.329  1.1089 -0.8133 -1.2493
  319MOL0     H43027   7.831   8.072   1.403  0.5071 -0.6881  0.8561
  319MOL0     H43028   7.924   7.954   1.303  2.5585 -0.9091  3.1951
  319MOL0     H43029   8.339   8.049   1.384 -0.7915  1.5018  0.5039
  319MOL0     H43030   8.568   8.105   1.362 -0.4475 -2.4245  0.5295
  319MOL0     H43031   8.796   8.102   1.380  3.1615 -1.1068 -1.0051
  319MOL0     H43032   8.920   8.174   1.486  0.5902 -0.3326 -3.0461
  319MOL0     H43033   8.858   8.001   1.655 -0.0751  3.9929 -0.3401
  319MOL0     H43034   8.753   7.929   1.536  1.4201 -2.3163  0.9533
  319MOL0     H43035   9.042   7.992   1.469  0.1910  1.0371 -0.6458
  319MOL0     H43036   8.936   7.872   1.387  0.7664 -0.4137  0.1270
  319MOL0     H43037   9.118   7.766   1.522 -1.2426 -0.7406  0.8232
  319MOL0     H43038   9.059   7.858   1.663 -0.8724  1.3614 -0.1261
  319MOL0     H43039   8.858   7.737   1.684 -0.4483 -0.2676  1.6459
  319MOL0     H43040   8.998   7.625   1.668 -0.7378  0.4657  2.3929
  319MOL0     H43041   8.813   7.685   1.449  0.1367 -0.8832  0.9407
  319MOL0     H43042   8.957   7.591   1.434  0.9277  1.0324  0.0890
  319MOL0     H43043   8.844   7.415   1.597 -1.0454  0.1828  2.2208
  319MOL0     H43044   8.754   7.450   1.450 -2.8587  1.9816  0.4704
  319MOL0     H43045   8.626   7.614   1.549  0.8645 -0.7061  0.0766
  319MOL0     H43046   8.702   7.599   1.701 -2.2832  2.5793 -1.2375
  319MOL0     H43047   8.617   8.151   1.787  2.0595 -3.2585 -0.6023
  319MOL0     H43048   8.380   8.070   1.815  0.4630 -0.9952  0.3043
  319MOL0     H43049   8.099   7.859   1.769  1.2638 -1.7295 -1.1179
  319MOL0     H43050   7.920   7.727   1.856 -0.2776  0.7845  0.3759
  319MOL0     H43051   6.969   7.754   2.715 -2.2041 -0.9496 -0.3912
  319MOL0     H43052   7.174   7.764   2.878  0.2673  0.6898  0.2014
  319MOL0     H43053   7.491   7.445   3.136  0.3268  1.1914 -0.9578
  319MOL0     H43054   7.675   7.465   3.300 -0.0121  0.8505  0.2907
  319MOL0     H43055   7.715   7.803   3.511 -0.0222 -2.5729 -2.1066
  319MOL0     H43056   7.637   7.750   3.661 -1.8991 -2.6938  0.6183
  319MOL0     H43057   7.927   7.679   3.563 -1.8401 -2.2023 -0.8620
  319MOL0     H43058   7.855   7.606   3.681 -0.1889 -1.6551 -2.7710
  319MOL0     H43059   7.877   7.924   3.704  0.8669  0.4307 -2.4259
  319MOL0     H43060   8.007   7.806   3.739  0.1380  0.0766  1.2373
  319MOL0     H43061   7.864   7.691   3.887 -1.1532 -0.4940  0.3548
  319MOL0     H43062   7.730   7.813   3.866  0.4412  1.6958  2.3443
  319MOL0     H43063   7.998   8.033   4.114  3.1604 -1.1457 -0.8870
  319MOL0     H43064   7.459   7.787   3.502 -2.2869  0.2479 -0.4439
  319MOL0     H43065   7.276   7.758   3.332 -1.0042 -1.2714  1.5976
  320MOL0     O43066   0.811  11.132   6.926  0.3535 -0.1178 -0.8383
  320MOL0     C43067   0.832  11.066   7.028  0.2826  0.2668 -0.6172
  320MOL0     O43068   0.751  10.964   7.082 -0.3541  0.0599  0.1053
  320MOL0     C43069   0.654  10.912   7.003  0.1489  0.1318  0.5049
  320MOL0     C43070   0.552  10.971   6.932 -0.6328 -0.0648  0.0481
  320MOL0     C43071   0.460  10.890   6.853 -0.7477 -0.1784 -0.0928
  320MOL0     C43072   0.463  10.757   6.846  0.0161  0.3849 -0.8824
  320MOL0     O43073   0.370  10.683   6.775  0.5319 -0.5244  0.5843
  320MOL0     C43074   0.358  10.698   6.633 -0.0471  0.2188  0.2606
  320MOL0     C43075   0.229  10.750   6.578 -0.3319  0.0816  0.3071
  320MOL0     C43076   0.107  10.664   6.620 -0.4378 -0.0815 -0.3859
  320MOL0     C43077  -0.019  10.740   6.587 -0.3227  0.2454 -0.1824
  320MOL0     C43078  -0.147  10.671   6.641  0.2674  0.7289 -0.3949
  320MOL0     C43079  -0.280  10.743   6.594 -0.0852  0.1761 -0.0061
  320MOL0     C43080  -0.396  10.649   6.621  0.6764 -0.3358  0.5814
  320MOL0     C43081  -0.529  10.705   6.581 -0.3812 -0.5711  1.1307
  320MOL0     N43082  -0.632  10.622   6.644  0.8128 -0.3439 -0.3271
  320MOL0     C43083  -0.705  10.645   6.757 -0.3348  0.2546 -0.2102
  320MOL0     C43084  -0.785  10.540   6.779  0.5483  0.3226  0.4762
  320MOL0     C43085  -0.897  10.511   6.881 -0.2142 -0.0317  0.0192
  320MOL0     C43086  -1.027  10.544   6.818  0.2176 -0.0579 -0.1778
  320MOL0     C43087  -1.065  10.434   6.716 -0.1723  0.3504 -0.8041
  320MOL0     C43088  -1.215  10.420   6.680  1.3978 -0.2232 -0.3478
  320MOL0     O43089  -1.285  10.379   6.800 -0.1725  0.6094  0.1889
  320MOL0     C43090  -1.402  10.301   6.797  0.5505  0.3289  0.3057
  320MOL0     C43091  -1.429  10.212   6.896 -0.0574  0.3341  0.3911
  320MOL0     C43092  -1.548  10.136   6.913 -0.0678 -0.3184  0.0655
  320MOL0     C43093  -1.562  10.028   7.021 -0.7992 -0.2956 -0.7697
  320MOL0     C43094  -1.647  10.151   6.819  0.4675 -0.8684  0.3438
  320MOL0     C43095  -1.777  10.069   6.817  0.2505  0.1230  0.1313
  320MOL0     O43096  -1.881  10.127   6.741  0.3106  0.0351  0.5854
  320MOL0     C43097  -1.995  10.062   6.729  0.4895 -0.2261  1.0635
  320MOL0     C43098  -2.006   9.930   6.683  0.0174 -0.6083 -0.1910
  320MOL0     C43099  -2.124   9.876   6.643  0.7918  0.0033  0.5029
  320MOL0     C43100  -2.238   9.941   6.666  0.3014 -0.9157  0.2246
  320MOL0     O43101  -2.350   9.875   6.612  0.6598  0.0952 -0.1184
  320MOL0     C43102  -2.480   9.935   6.634  0.3581  0.2930 -0.4358
  320MOL0     C43103  -2.584   9.838   6.583  0.1086 -0.7580  0.4635
  320MOL0     C43104  -2.719   9.881   6.656  0.5875 -0.2143 -0.0413
  320MOL0     C43105  -2.842   9.794   6.631 -0.5668  0.5468  0.3794
  320MOL0     C43106  -2.828   9.660   6.692 -0.8869 -0.3252 -0.2348
  320MOL0     C43107  -2.949   9.574   6.665  0.3150 -0.5941 -0.1241
  320MOL0     C43108  -3.084   9.609   6.741  0.3236  0.5504 -0.0787
  320MOL0     C43109  -3.167   9.485   6.749 -0.1228  0.4898  0.8766
  320MOL0    Cl43110  -3.246   9.461   6.579 -0.1457  0.0650  0.4681
  320MOL0     C43111  -2.240  10.064   6.726  0.0460 -0.0963  1.1950
  320MOL0     C43112  -2.115  10.128   6.750 -0.0564  1.0116 -0.4955
  320MOL0     O43113  -1.791   9.966   6.875 -0.1181 -0.4431  0.3030
  320MOL0     C43114  -1.624  10.245   6.716  0.3541 -0.2531  0.6180
  320MOL0     C43115  -1.505  10.320   6.699  1.1066  1.3816  0.2996
  320MOL0     N43116  -0.758  10.447   6.683 -0.5415 -0.0285  0.0805
  320MOL0     N43117  -0.663  10.496   6.608  0.2012 -0.5024  0.9591
  320MOL0     C43118   0.572  10.691   6.911 -0.3818 -0.4770 -0.1140
  320MOL0     C43119   0.658  10.768   6.997  0.1055 -0.6619  0.6048
  320MOL0     C43120   0.961  11.083   7.108  0.5448  0.0609  0.5934
  320MOL0     C43121   0.981  11.022   7.234  0.0880  0.5655 -0.0672
  320MOL0     C43122   1.100  11.043   7.304 -0.3362  0.0888 -0.1977
  320MOL0     C43123   1.195  11.130   7.249  0.2336 -0.2085  0.6385
  320MOL0     O43124   1.308  11.166   7.304 -0.1930  0.0734  0.9482
  320MOL0     C43125   1.335  11.137   7.437 -0.6732 -0.5796 -0.2241
  320MOL0     C43126   1.474  11.199   7.477 -0.8528 -0.5749  0.2735
  320MOL0     C43127   1.525  11.129   7.604  0.2640  0.0307 -0.3032
  320MOL0     C43128   1.661  11.169   7.652  0.2668 -0.7032 -0.3817
  320MOL0     C43129   1.761  11.196   7.543  0.7689  0.5838 -0.4463
  320MOL0     C43130   1.837  11.217   7.449 -1.2693 -0.2587  0.0483
  320MOL0     C43131   1.164  11.191   7.132  0.5442 -0.0042 -0.8587
  320MOL0     C43132   1.058  11.172   7.057 -0.3324  0.3631  0.2434
  320MOL0     H43133   0.537  11.078   6.935  1.4458  0.3160 -1.1472
  320MOL0     H43134   0.381  10.942   6.799  0.4394  2.0234  0.1520
  320MOL0     H43135   0.446  10.739   6.583 -1.5389 -0.4696 -3.1860
  320MOL0     H43136   0.371  10.595   6.597 -0.9817  0.3139 -0.3616
  320MOL0     H43137   0.209  10.846   6.627 -1.5023  0.4032 -0.7555
  320MOL0     H43138   0.232  10.740   6.469  2.5002  0.3068  0.2985
  320MOL0     H43139   0.102  10.563   6.579  0.9102 -0.9068  1.3459
  320MOL0     H43140   0.107  10.661   6.730  0.7835 -0.0122 -0.3731
  320MOL0     H43141  -0.014  10.843   6.623 -1.6344  0.8651 -1.6620
  320MOL0     H43142  -0.022  10.739   6.477  0.2587  0.3768 -0.2041
  320MOL0     H43143  -0.147  10.567   6.605 -1.0778 -0.0113  1.5834
  320MOL0     H43144  -0.145  10.666   6.750 -1.4449 -0.2332 -0.3860
  320MOL0     H43145  -0.298  10.843   6.633  0.7972  0.2310  0.2811
  320MOL0     H43146  -0.269  10.749   6.485  2.1978 -0.9487  0.1052
  320MOL0     H43147  -0.380  10.556   6.565  2.5525 -0.6129  1.4998
  320MOL0     H43148  -0.398  10.632   6.729  0.4117  0.2894  0.6757
  320MOL0     H43149  -0.543  10.696   6.473  0.8620 -1.6213  1.0380
  320MOL0     H43150  -0.537  10.811   6.608  2.6257 -0.0818  0.4381
  320MOL0     H43151  -0.695  10.731   6.823 -0.3814 -1.3119  1.9495
  320MOL0     H43152  -0.891  10.407   6.913 -0.0380 -0.3971 -1.1475
  320MOL0     H43153  -0.885  10.578   6.966 -0.6920 -0.6516  0.5810
  320MOL0     H43154  -1.029  10.640   6.765 -2.3138 -1.0196 -2.0306
  320MOL0     H43155  -1.102  10.541   6.898 -2.0650  0.8662 -2.1372
  320MOL0     H43156  -1.032  10.337   6.756  0.4359 -0.1772 -2.4743
  320MOL0     H43157  -1.008  10.450   6.624  2.8793  0.2499  0.9566
  320MOL0     H43158  -1.238  10.355   6.595 -0.1443 -1.7035  1.1215
  320MOL0     H43159  -1.238  10.522   6.647 -2.6670 -0.5730  0.9000
  320MOL0     H43160  -1.340  10.210   6.959 -0.0554  0.9369  0.4090
  320MOL0     H43161  -1.567   9.927   6.980  0.9936 -0.6065 -0.2985
  320MOL0     H43162  -1.475  10.036   7.087  0.0988  0.2125 -1.9758
  320MOL0     H43163  -1.647  10.049   7.087 -1.1833 -1.5251 -0.8561
  320MOL0     H43164  -1.911   9.878   6.676  2.4054  3.3696 -0.5254
  320MOL0     H43165  -2.121   9.777   6.599  0.5848  0.8500 -1.5031
  320MOL0     H43166  -2.492   9.968   6.738 -1.2306 -0.9160 -0.2101
  320MOL0     H43167  -2.489  10.025   6.573 -0.3118  0.4578 -0.0988
  320MOL0     H43168  -2.600   9.843   6.475  0.0256 -0.0377  0.5067
  320MOL0     H43169  -2.561   9.735   6.613 -2.0915 -1.4433 -0.0231
  320MOL0     H43170  -2.744   9.987   6.646  0.6423 -0.2489 -0.6034
  320MOL0     H43171  -2.697   9.871   6.762  2.7162  0.6774 -0.3547
  320MOL0     H43172  -2.916   9.856   6.682 -0.7768 -0.7281  1.6787
  320MOL0     H43173  -2.866   9.778   6.526 -0.0418  1.2310  0.1465
  320MOL0     H43174  -2.813   9.672   6.800  1.7563  1.9413 -0.7201
  320MOL0     H43175  -2.748   9.608   6.638 -0.2533 -0.2831  0.6425
  320MOL0     H43176  -2.966   9.573   6.557  3.1543  1.9685 -0.7377
  320MOL0     H43177  -2.924   9.469   6.687  0.4141 -0.3559  1.0010
  320MOL0     H43178  -3.138   9.690   6.691 -0.9896 -1.1290 -1.4691
  320MOL0     H43179  -3.071   9.655   6.839 -1.8752  1.4566 -0.1555
  320MOL0     H43180  -3.253   9.497   6.815 -2.6367 -0.8528 -1.9365
  320MOL0     H43181  -3.114   9.394   6.777 -2.6040 -2.1316 -2.1952
  320MOL0     H43182  -2.328  10.125   6.742 -0.7271 -0.5357 -1.0060
  320MOL0     H43183  -2.116  10.232   6.783  2.0578  0.3166  2.0745
  320MOL0     H43184  -1.700  10.255   6.639  1.1963  0.2992 -0.1691
  320MOL0     H43185  -1.490  10.380   6.611  1.1685 -3.4143 -3.4009
  320MOL0     H43186   0.570  10.583   6.909 -0.3317 -0.4710 -1.0915
  320MOL0     H43187   0.718  10.698   7.055 -0.9258 -2.4770 -0.4656
  320MOL0     H43188   0.911  10.952   7.278  0.0272 -0.8213 -2.2188
  320MOL0     H43189   1.118  10.991   7.398  0.0256 -1.7998 -1.2615
  320MOL0     H43190   1.257  11.184   7.497  0.8960  0.4196  1.1290
  320MOL0     H43191   1.337  11.028   7.446 -0.2560 -0.5312  0.3581
  320MOL0     H43192   1.475  11.307   7.494 -0.3431 -0.2969 -1.3521
  320MOL0     H43193   1.543  11.185   7.393 -0.2773  2.7972  0.0443
  320MOL0     H43194   1.534  11.026   7.566 -0.3588  1.5639 -5.3673
  320MOL0     H43195   1.447  11.140   7.680  0.9744  0.4472  0.3743
  320MOL0     H43196   1.692  11.091   7.723 -0.9138 -1.4411 -0.6299
  320MOL0     H43197   1.657  11.267   7.700  1.8180 -1.1734  0.8008
  320MOL0     H43198   1.921  11.220   7.383 -0.3022  0.9161  1.2605
  320MOL0     H43199   1.240  11.258   7.093 -1.1340  0.4308 -3.6486
  320MOL0     H43200   1.040  11.237   6.973  0.8424 -1.7349 -1.7467
  321MOL0     O43201   4.359   9.349  10.180 -1.0422  0.3506 -0.0823
  321MOL0     C43202   4.410   9.381  10.077  0.2537  0.5993  0.0331
  321MOL0     O43203   4.340   9.401   9.965  0.7291  0.6691  0.7135
  321MOL0     C43204   4.206   9.380   9.951  0.7774  0.2063 -0.7092
  321MOL0     C43205   4.113   9.331  10.038  0.4861 -0.3778 -0.0408
  321MOL0     C43206   3.977   9.331  10.009  0.0667 -0.3883  0.3925
  321MOL0     C43207   3.923   9.387   9.893  1.1772 -1.0754 -0.0217
  321MOL0     O43208   3.786   9.411   9.872 -0.3537  0.1264 -1.0010
  321MOL0     C43209   3.703   9.386   9.988 -0.1932  0.3892  0.6295
  321MOL0     C43210   3.560   9.402   9.952 -0.2319 -0.4909 -0.4979
  321MOL0     C43211   3.454   9.384  10.067 -0.0793 -0.1398  0.1776
  321MOL0     C43212   3.319   9.423  10.008 -0.5926  0.2689  0.1084
  321MOL0     C43213   3.224   9.431  10.126  0.6183  1.4528 -0.4183
  321MOL0     C43214   3.077   9.425  10.078 -0.3121  0.0505 -0.5479
  321MOL0     C43215   2.976   9.403  10.186 -0.0624  0.3409 -0.0107
  321MOL0     C43216   2.827   9.380  10.144 -1.0852  0.4501  0.7251
  321MOL0     N43217   2.741   9.493  10.160  0.5744 -0.5657 -0.8244
  321MOL0     C43218   2.696   9.580  10.065  0.3672  0.5837  0.2994
  321MOL0     C43219   2.615   9.664  10.122  0.3067 -0.7551 -0.1983
  321MOL0     C43220   2.531   9.767  10.050 -0.4499 -0.3196 -0.0444
  321MOL0     C43221   2.412   9.823  10.131 -0.6357 -0.2838  0.0887
  321MOL0     C43222   2.321   9.927  10.060  0.2976  0.3016  0.1182
  321MOL0     C43223   2.174   9.927  10.124 -0.2094 -0.2742 -0.2908
  321MOL0     O43224   2.092   9.976  10.023 -0.2319 -0.8149  0.7201
  321MOL0     C43225   1.962  10.005  10.053  0.5249  0.3599  0.4407
  321MOL0     C43226   1.901   9.964  10.163 -0.4277  0.7530  0.7439
  321MOL0     C43227   1.767   9.984  10.198 -0.8069 -0.5548  0.7557
  321MOL0     C43228   1.725   9.936  10.336 -0.3503 -0.1383  0.1940
  321MOL0     C43229   1.699  10.086  10.117 -0.2421  0.1685 -0.7341
  321MOL0     C43230   1.554  10.123  10.135  1.2069  0.0028 -0.5528
  321MOL0     O43231   1.495  10.221  10.068  0.3837  0.0680  0.1324
  321MOL0     C43232   1.364  10.250  10.110 -0.0094 -0.1228 -0.3701
  321MOL0     C43233   1.251  10.247  10.024 -0.1904 -0.2330 -0.0774
  321MOL0     C43234   1.124  10.294  10.065 -0.4769  0.3190  1.2361
  321MOL0     C43235   1.111  10.358  10.187  0.9357  0.7217  0.3933
  321MOL0     O43236   0.990  10.404  10.224  0.4918 -0.4115 -0.7870
  321MOL0     C43237   0.982  10.549  10.254  0.6544 -0.0432 -0.1984
  321MOL0     C43238   0.826  10.560  10.279 -0.0922 -0.6680  0.4273
  321MOL0     C43239   0.756  10.580  10.141 -0.3772  0.5408  1.1985
  321MOL0     C43240   0.613  10.525  10.146 -0.3008  0.2332  0.3874
  321MOL0     C43241   0.495  10.616  10.186 -0.5616  0.4687 -0.3998
  321MOL0     C43242   0.371  10.531  10.195  0.4057  0.4172  0.0128
  321MOL0     C43243   0.321  10.508  10.048 -0.3899  0.5591 -0.5732
  321MOL0     C43244   0.171  10.526  10.023 -0.0617  0.0826  0.2336
  321MOL0    Cl43245   0.120  10.701  10.035  0.3105 -0.0581  0.0431
  321MOL0     C43246   1.217  10.368  10.277 -0.0050  0.0716 -0.4581
  321MOL0     C43247   1.337  10.315  10.238 -0.1314  0.5732  0.1306
  321MOL0     O43248   1.488  10.055  10.218  0.2396 -0.3241  0.7633
  321MOL0     C43249   1.756  10.129   9.996 -0.6209  0.7199  0.2342
  321MOL0     C43250   1.889  10.094   9.966 -0.2655  0.5436  0.0845
  321MOL0     N43251   2.610   9.635  10.257 -0.7078  0.4461  0.0371
  321MOL0     N43252   2.678   9.529  10.277  0.1837  0.3457  0.4119
  321MOL0     C43253   4.008   9.443   9.801 -0.3004 -0.9086 -0.5481
  321MOL0     C43254   4.151   9.435   9.825 -0.2659  0.7892  0.4577
  321MOL0     C43255   4.556   9.388  10.064 -0.3943 -0.7157 -0.6512
  321MOL0     C43256   4.630   9.419   9.948  0.5147 -0.1391  0.1598
  321MOL0     C43257   4.768   9.429   9.943  0.7148 -0.1259  0.1667
  321MOL0     C43258   4.841   9.403  10.056  0.2562  0.7077  0.2410
  321MOL0     O43259   4.974   9.419  10.053 -0.3621 -0.4375  0.2292
  321MOL0     C43260   5.046   9.416   9.928 -0.0941  0.1380  0.0024
  321MOL0     C43261   5.173   9.362   9.974 -0.0757 -0.5109 -0.4500
  321MOL0     C43262   5.282   9.370   9.865 -0.3615 -0.3940 -0.0097
  321MOL0     C43263   5.277   9.268   9.754  0.0543 -0.8638  0.4584
  321MOL0     C43264   5.181   9.309   9.652 -0.1480 -0.4155  0.0070
  321MOL0     C43265   5.105   9.333   9.561 -0.5936 -0.0659 -0.1193
  321MOL0     C43266   4.776   9.360  10.175  0.3658  0.0314 -0.0354
  321MOL0     C43267   4.634   9.357  10.180  0.6160  0.8347  0.4313
  321MOL0     H43268   4.138   9.281  10.132  0.2288  0.9015  0.7209
  321MOL0     H43269   3.913   9.283  10.082 -4.4414  3.0467 -0.8718
  321MOL0     H43270   3.711   9.281  10.018  0.6951 -0.4118 -2.0898
  321MOL0     H43271   3.730   9.457  10.067  0.0400  2.8254 -1.5244
  321MOL0     H43272   3.570   9.507   9.921  2.6398  0.2301  2.3560
  321MOL0     H43273   3.533   9.343   9.864 -0.7565  1.1716 -1.5056
  321MOL0     H43274   3.453   9.280  10.102 -0.2449 -0.5958 -1.1382
  321MOL0     H43275   3.485   9.451  10.148  0.3403  0.1071 -0.1796
  321MOL0     H43276   3.327   9.525   9.968  0.8001  0.4604  0.8136
  321MOL0     H43277   3.281   9.354   9.932 -0.3986  0.0930  0.1704
  321MOL0     H43278   3.248   9.354  10.200 -0.1191 -1.5855 -3.1007
  321MOL0     H43279   3.232   9.526  10.180 -3.4081  1.2786  0.7525
  321MOL0     H43280   3.057   9.520  10.027  0.8989  0.7825  0.2902
  321MOL0     H43281   3.070   9.340  10.010 -1.8974 -0.9084  0.7414
  321MOL0     H43282   3.012   9.314  10.239  4.9214  0.7675 -2.1090
  321MOL0     H43283   2.981   9.488  10.254 -0.1612  3.0472 -3.1484
  321MOL0     H43284   2.787   9.307  10.215 -2.0997 -0.5409 -0.8012
  321MOL0     H43285   2.821   9.339  10.042 -1.6131  1.4841  0.3269
  321MOL0     H43286   2.709   9.569   9.957  0.0559  1.9870  0.1058
  321MOL0     H43287   2.592   9.855  10.027 -0.6302 -0.1808 -0.0002
  321MOL0     H43288   2.492   9.722   9.959  0.2037  0.6744 -0.8431
  321MOL0     H43289   2.458   9.861  10.223 -2.5711 -0.0235  0.9933
  321MOL0     H43290   2.355   9.737  10.169  0.1901 -0.6398  0.5547
  321MOL0     H43291   2.306   9.894   9.957  1.0241 -0.1606  0.1563
  321MOL0     H43292   2.353  10.032  10.065 -0.3077  0.5118 -0.2252
  321MOL0     H43293   2.174  10.003  10.203  1.1469  0.2944 -0.8110
  321MOL0     H43294   2.147   9.835  10.177  0.0472  0.6096  1.4471
  321MOL0     H43295   1.956   9.885  10.214  4.1813  1.1942 -2.8981
  321MOL0     H43296   1.658   9.850  10.332  0.4872 -0.7771 -0.6115
  321MOL0     H43297   1.807   9.897  10.396 -0.0677 -1.8286 -1.1913
  321MOL0     H43298   1.665  10.008  10.391  0.8135  0.2038  1.0659
  321MOL0     H43299   1.264  10.211   9.923  2.6028  0.0298  0.1084
  321MOL0     H43300   1.044  10.285   9.992  1.1242 -0.5487 -0.4909
  321MOL0     H43301   1.033  10.578  10.347  1.6617 -1.0007 -0.4256
  321MOL0     H43302   1.021  10.606  10.169  0.5444 -0.6717 -0.6793
  321MOL0     H43303   0.787  10.479  10.341 -0.4188  0.0587  1.1828
  321MOL0     H43304   0.811  10.658  10.326  1.7641  0.6379 -1.5221
  321MOL0     H43305   0.815  10.529  10.064 -1.3068  0.6146  0.4172
  321MOL0     H43306   0.747  10.685  10.112 -3.3892 -0.1060 -0.7073
  321MOL0     H43307   0.594  10.479  10.048 -2.1154  1.2564  0.2129
  321MOL0     H43308   0.611  10.443  10.218 -1.7583  0.1876  0.3360
  321MOL0     H43309   0.471  10.698  10.117 -5.2293 -1.0971 -0.9701
  321MOL0     H43310   0.516  10.665  10.281  1.1860 -1.7572  0.4383
  321MOL0     H43311   0.386  10.430  10.236 -1.4168 -0.3192 -1.0322
  321MOL0     H43312   0.290  10.571  10.257 -0.0079 -1.4357  0.7260
  321MOL0     H43313   0.350  10.407  10.017  1.1332  0.9483 -0.4778
  321MOL0     H43314   0.371  10.578   9.981  0.9703 -0.2009 -0.3901
  321MOL0     H43315   0.114  10.465  10.094 -0.8427 -0.2975 -0.6942
  321MOL0     H43316   0.148  10.479   9.927 -0.4196  0.5966  0.0573
  321MOL0     H43317   1.209  10.414  10.375  1.9009  2.6755 -1.4062
  321MOL0     H43318   1.427  10.319  10.298  0.2280  1.1037 -0.4289
  321MOL0     H43319   1.696  10.195   9.935  0.4053  0.8955 -0.6146
  321MOL0     H43320   1.931  10.145   9.880 -4.6636  2.0428 -1.4558
  321MOL0     H43321   3.982   9.500   9.712  3.8702  1.1895 -0.6552
  321MOL0     H43322   4.212   9.479   9.747 -0.5298 -3.9410 -2.8394
  321MOL0     H43323   4.570   9.441   9.860  1.0875 -0.0050 -0.2012
  321MOL0     H43324   4.815   9.469   9.854 -0.7769  4.1420  1.0670
  321MOL0     H43325   5.003   9.353   9.849  1.1016  0.7002 -1.1472
  321MOL0     H43326   5.056   9.519   9.893  1.2216  0.1024  0.2165
  321MOL0     H43327   5.174   9.258  10.006 -0.8745 -1.0085 -1.9508
  321MOL0     H43328   5.213   9.427  10.053  0.7939 -0.2010 -1.1311
  321MOL0     H43329   5.376   9.341   9.913 -0.6708  0.6169  1.2636
  321MOL0     H43330   5.291   9.476   9.840  1.0148  0.0657  2.1437
  321MOL0     H43331   5.252   9.170   9.796  0.3724 -1.7935 -1.4347
  321MOL0     H43332   5.371   9.268   9.699  0.2691  0.5486  0.7907
  321MOL0     H43333   5.031   9.359   9.487 -1.3725 -0.8583  0.3581
  321MOL0     H43334   4.829   9.347  10.268 -0.7174  0.4471  0.6692
  321MOL0     H43335   4.585   9.334  10.274 -2.2441  2.4053 -0.5504
  322MOL0     O43336   0.667   0.286   5.074 -0.2888  0.1001 -0.1626
  322MOL0     C43337   0.681   0.392   5.136  0.0996 -0.9108 -0.1878
  322MOL0     O43338   0.589   0.462   5.218  0.5111  0.1063  0.0179
  322MOL0     C43339   0.456   0.428   5.220  0.4758  0.0242  0.8184
  322MOL0     C43340   0.385   0.386   5.103 -0.6462 -0.7259 -0.5746
  322MOL0     C43341   0.252   0.358   5.113  0.2630  0.1297 -0.3158
  322MOL0     C43342   0.183   0.362   5.236 -0.6110  0.0986  0.3785
  322MOL0     O43343   0.052   0.328   5.240  0.3212  0.5825  0.2810
  322MOL0     C43344  -0.003   0.276   5.359 -0.0829 -0.0863 -0.0040
  322MOL0     C43345  -0.093   0.159   5.335  0.5504 -0.1434  0.3226
  322MOL0     C43346  -0.238   0.210   5.306  0.0313  0.2342  0.4348
  322MOL0     C43347  -0.318   0.264   5.429  0.6569  0.9635 -0.7231
  322MOL0     C43348  -0.467   0.243   5.379 -1.1738 -0.3106 -0.4038
  322MOL0     C43349  -0.581   0.282   5.479 -0.2618  0.5766  0.6679
  322MOL0     C43350  -0.721   0.281   5.421  1.0175 -0.2921 -0.6938
  322MOL0     C43351  -0.824   0.321   5.526  0.7003 -0.2184 -0.5343
  322MOL0     N43352  -0.964   0.321   5.478  0.0529 -0.0698 -0.3146
  322MOL0     C43353  -1.046   0.214   5.454  0.4795 -0.3125  1.4639
  322MOL0     C43354  -1.168   0.263   5.430 -0.4278  0.7087  0.5728
  322MOL0     C43355  -1.289   0.178   5.390 -0.9327 -1.4364 -0.4091
  322MOL0     C43356  -1.380   0.247   5.299  0.1938 -0.6204  0.8957
  322MOL0     C43357  -1.316   0.292   5.160 -0.1533  0.6759 -0.2487
  322MOL0     C43358  -1.422   0.358   5.074  0.0587  0.1879 -0.1886
  322MOL0     O43359  -1.362   0.410   4.953  0.0722  0.3256 -0.2243
  322MOL0     C43360  -1.423   0.499   4.874  0.0405 -0.5331 -1.0255
  322MOL0     C43361  -1.346   0.568   4.791  0.1531  0.2650  0.5461
  322MOL0     C43362  -1.400   0.663   4.704 -0.0002  0.3668 -0.0717
  322MOL0     C43363  -1.305   0.729   4.607 -0.1936 -0.1939  0.3688
  322MOL0     C43364  -1.538   0.690   4.705  0.5954  0.9252  0.3521
  322MOL0     C43365  -1.599   0.776   4.614 -0.5563  0.0633  0.0877
  322MOL0     O43366  -1.715   0.743   4.559 -0.0819  0.0464  0.0290
  322MOL0     C43367  -1.799   0.827   4.492  0.2883 -0.2788 -0.4633
  322MOL0     C43368  -1.792   0.974   4.470 -0.7047 -0.1007  0.4324
  322MOL0     C43369  -1.885   1.044   4.388 -0.0941 -0.2927  0.2255
  322MOL0     C43370  -1.992   0.970   4.332 -0.5933 -0.7427  0.1230
  322MOL0     O43371  -2.095   1.018   4.262 -0.5467 -0.9024 -0.4910
  322MOL0     C43372  -2.126   1.157   4.253  0.2639  0.1572 -0.3672
  322MOL0     C43373  -2.269   1.159   4.189 -0.8820 -0.6253 -0.4049
  322MOL0     C43374  -2.309   1.032   4.117 -0.1367 -0.5977  0.0578
  322MOL0     C43375  -2.455   1.038   4.073 -0.5266  0.4694  0.8694
  322MOL0     C43376  -2.471   1.097   3.933 -0.3112  0.2358 -0.2389
  322MOL0     C43377  -2.616   1.095   3.895  0.2450 -0.6665 -0.5133
  322MOL0     C43378  -2.633   1.172   3.762  0.6357 -0.4402 -0.2819
  322MOL0     C43379  -2.771   1.146   3.693 -0.1372  0.0947  0.4951
  322MOL0    Cl43380  -2.801   1.274   3.579 -0.2135  0.2505 -0.0886
  322MOL0     C43381  -1.996   0.829   4.350  0.1684 -0.0458  0.0919
  322MOL0     C43382  -1.903   0.767   4.428 -0.2030 -0.6635 -1.0653
  322MOL0     O43383  -1.544   0.889   4.606 -0.7379  0.0301 -0.2860
  322MOL0     C43384  -1.621   0.609   4.793  0.1662  0.5410  0.6512
  322MOL0     C43385  -1.565   0.517   4.883 -0.5486  1.2574  0.1863
  322MOL0     N43386  -1.163   0.404   5.452  0.3744 -0.8617  0.3323
  322MOL0     N43387  -1.043   0.435   5.475  0.4419 -0.6827  0.5763
  322MOL0     C43388   0.256   0.410   5.348  0.0998 -0.6923 -0.0145
  322MOL0     C43389   0.390   0.438   5.342 -0.5798 -0.0288  0.1429
  322MOL0     C43390   0.819   0.462   5.131 -0.5323  0.2399  0.5363
  322MOL0     C43391   0.911   0.426   5.035  0.2686 -0.2204  0.0885
  322MOL0     C43392   1.043   0.473   5.030 -0.5993 -0.2610 -0.6830
  322MOL0     C43393   1.089   0.555   5.132  0.1510  0.0831  0.2177
  322MOL0     O43394   1.222   0.583   5.131 -0.6935 -0.5124 -0.8288
  322MOL0     C43395   1.296   0.571   5.253  0.4295  0.4895 -0.2307
  322MOL0     C43396   1.432   0.534   5.202  0.6830 -0.4086  0.2122
  322MOL0     C43397   1.530   0.541   5.320 -0.4932 -0.1217 -0.0383
  322MOL0     C43398   1.669   0.497   5.267 -1.1414  0.3989  0.1779
  322MOL0     C43399   1.710   0.557   5.143  0.4310 -0.5057  0.0081
  322MOL0     C43400   1.735   0.595   5.036 -0.0675 -0.0988  0.9357
  322MOL0     C43401   0.994   0.596   5.231 -0.2814 -0.9402 -0.6222
  322MOL0     C43402   0.861   0.550   5.230  0.2792 -0.1942 -0.5616
  322MOL0     H43403   0.442   0.365   5.013  0.1574  1.4484 -0.6290
  322MOL0     H43404   0.210   0.334   5.016  0.2185 -0.3477 -0.1843
  322MOL0     H43405   0.079   0.234   5.418 -0.7810 -0.3217  0.8280
  322MOL0     H43406  -0.055   0.350   5.421  0.5065 -1.4479  2.2481
  322MOL0     H43407  -0.051   0.109   5.247  2.7679  1.7228  0.2248
  322MOL0     H43408  -0.091   0.097   5.424 -1.3094  1.0759  1.2793
  322MOL0     H43409  -0.240   0.285   5.227  3.7533  0.1676  0.0960
  322MOL0     H43410  -0.287   0.119   5.270  1.8011  0.0889 -1.8573
  322MOL0     H43411  -0.286   0.202   5.513  3.2198  1.0067 -1.6005
  322MOL0     H43412  -0.288   0.367   5.451  3.1176 -0.0284  1.0835
  322MOL0     H43413  -0.484   0.308   5.292 -1.0301  0.1901 -0.0637
  322MOL0     H43414  -0.481   0.140   5.344  0.5650 -0.0085 -2.1733
  322MOL0     H43415  -0.578   0.220   5.569  0.9703 -1.7179 -0.8511
  322MOL0     H43416  -0.568   0.388   5.502 -1.7633  0.9745 -0.1562
  322MOL0     H43417  -0.735   0.358   5.345 -3.0322  1.2485  1.3279
  322MOL0     H43418  -0.749   0.181   5.387 -0.5010  0.0174 -0.4044
  322MOL0     H43419  -0.804   0.422   5.563 -1.7493 -0.1056  0.7057
  322MOL0     H43420  -0.809   0.252   5.609  0.5656  0.1367 -0.2120
  322MOL0     H43421  -1.019   0.109   5.453  1.4992 -0.0497  0.9391
  322MOL0     H43422  -1.247   0.088   5.346 -2.4732 -2.6063  0.3869
  322MOL0     H43423  -1.343   0.154   5.482  0.1794  0.0911  0.6946
  322MOL0     H43424  -1.424   0.332   5.352  0.7004 -0.5623  1.2290
  322MOL0     H43425  -1.465   0.182   5.273  0.1332  0.0394 -0.6541
  322MOL0     H43426  -1.268   0.205   5.115  1.8636  1.0648  1.0022
  322MOL0     H43427  -1.238   0.365   5.184  2.5633 -1.7707 -1.1416
  322MOL0     H43428  -1.465   0.440   5.133  1.9157  0.7773  0.4280
  322MOL0     H43429  -1.497   0.283   5.046 -1.2405 -0.1738  3.6993
  322MOL0     H43430  -1.241   0.541   4.801 -0.6165 -3.9912 -0.6234
  322MOL0     H43431  -1.338   0.705   4.506  2.2357 -1.4517 -0.1975
  322MOL0     H43432  -1.305   0.838   4.616 -1.4977 -0.1937  0.6083
  322MOL0     H43433  -1.202   0.696   4.618 -0.2677 -0.4342  0.3411
  322MOL0     H43434  -1.721   1.041   4.518  0.2088 -1.7426  1.4856
  322MOL0     H43435  -1.883   1.152   4.376  0.1396 -0.5081 -2.0654
  322MOL0     H43436  -2.139   1.204   4.351 -0.9418 -1.0839  0.1033
  322MOL0     H43437  -2.066   1.219   4.186 -1.6706  1.3603 -1.0612
  322MOL0     H43438  -2.332   1.177   4.277  0.9009  0.2834  0.7488
  322MOL0     H43439  -2.281   1.243   4.119  0.3788 -1.9483 -2.3045
  322MOL0     H43440  -2.308   0.952   4.191 -0.8243  1.0216  1.9216
  322MOL0     H43441  -2.237   1.014   4.036  1.1273  1.5404  0.6235
  322MOL0     H43442  -2.504   0.940   4.067  0.3539  0.0551  0.2084
  322MOL0     H43443  -2.505   1.101   4.148 -0.1455 -0.5916  2.0513
  322MOL0     H43444  -2.430   1.035   3.853  1.3698  0.0218  0.7555
  322MOL0     H43445  -2.427   1.198   3.931 -2.7296  1.3833  0.2611
  322MOL0     H43446  -2.662   0.997   3.882 -0.9651 -0.1625 -0.1896
  322MOL0     H43447  -2.681   1.144   3.968 -0.8443 -1.2949 -1.0404
  322MOL0     H43448  -2.557   1.145   3.689 -0.0779 -4.7964  0.3549
  322MOL0     H43449  -2.648   1.279   3.782 -1.2099 -0.5930 -0.6668
  322MOL0     H43450  -2.848   1.155   3.770  0.8425 -1.7674  1.7764
  322MOL0     H43451  -2.781   1.046   3.648  1.9585  0.6582 -1.4607
  322MOL0     H43452  -2.079   0.775   4.306  0.4306 -1.2965  1.0546
  322MOL0     H43453  -1.912   0.659   4.437  0.1957 -0.5360  1.8485
  322MOL0     H43454  -1.728   0.628   4.795 -0.0202  0.2853 -2.1166
  322MOL0     H43455  -1.628   0.457   4.948  0.5138  0.5597  0.6000
  322MOL0     H43456   0.204   0.425   5.442 -0.1309  1.9411 -0.4957
  322MOL0     H43457   0.447   0.466   5.430  1.5478  1.1633 -1.4960
  322MOL0     H43458   0.876   0.349   4.968 -4.9509  0.9774  1.0000
  322MOL0     H43459   1.117   0.440   4.958 -0.0134  0.3541 -0.3624
  322MOL0     H43460   1.301   0.667   5.304  1.8949  0.2456  0.1393
  322MOL0     H43461   1.251   0.495   5.317  0.2113 -1.3160 -2.4088
  322MOL0     H43462   1.453   0.609   5.126  0.1418  1.8325  2.1556
  322MOL0     H43463   1.441   0.435   5.156 -0.1347 -0.3798 -0.0123
  322MOL0     H43464   1.515   0.463   5.395  2.2060 -2.0082 -1.2930
  322MOL0     H43465   1.554   0.644   5.348  2.1340 -0.6473 -0.1094
  322MOL0     H43466   1.662   0.389   5.254  0.3223  0.2348  0.6046
  322MOL0     H43467   1.741   0.523   5.345 -2.9983  2.3210  1.3745
  322MOL0     H43468   1.766   0.611   4.935  0.9139 -2.8947  0.7260
  322MOL0     H43469   1.028   0.661   5.311 -2.6090  1.5628 -1.5092
  322MOL0     H43470   0.790   0.592   5.302  0.8992  2.5414 -1.4198
  323MOL0     O43471   5.857   2.717   2.068  0.0264 -0.0904 -0.1718
  323MOL0     C43472   5.936   2.667   2.158  0.1250 -0.3294 -0.0538
  323MOL0     O43473   5.924   2.666   2.292  0.4273 -0.3805  0.3869
  323MOL0     C43474   5.801   2.706   2.341 -0.2215  0.0360  0.1696
  323MOL0     C43475   5.803   2.779   2.461 -0.1745 -0.6709  0.5414
  323MOL0     C43476   5.690   2.822   2.521 -0.5820  0.0480  0.4757
  323MOL0     C43477   5.561   2.785   2.475 -0.0757 -0.4882  0.4094
  323MOL0     O43478   5.458   2.824   2.548 -0.4561 -0.3018  0.4821
  323MOL0     C43479   5.328   2.775   2.503 -0.5161 -0.3175  0.3668
  323MOL0     C43480   5.214   2.822   2.586 -0.0106  0.2705 -0.1392
  323MOL0     C43481   5.199   2.975   2.576  0.0145 -0.2634 -0.4004
  323MOL0     C43482   5.065   3.033   2.627  0.2909 -0.0345  0.2867
  323MOL0     C43483   5.046   3.188   2.603  0.5140  0.5746  0.4206
  323MOL0     C43484   5.172   3.269   2.659 -0.8019  0.2020 -0.1128
  323MOL0     C43485   5.140   3.418   2.631 -0.1293  0.3679  0.7861
  323MOL0     C43486   5.232   3.518   2.699  0.8258  0.7822 -0.5861
  323MOL0     N43487   5.175   3.651   2.701 -0.0238 -0.1582  0.3462
  323MOL0     C43488   5.117   3.716   2.809  0.1673 -0.2792  0.3841
  323MOL0     C43489   5.042   3.818   2.745  0.3592  0.1844 -0.1534
  323MOL0     C43490   4.962   3.920   2.817  0.3023 -0.8236  1.0504
  323MOL0     C43491   4.835   3.863   2.883 -1.1241 -0.2966 -0.6239
  323MOL0     C43492   4.733   3.823   2.776  0.5151 -0.1550 -0.2864
  323MOL0     C43493   4.607   3.738   2.818  0.0422 -0.5941 -0.3810
  323MOL0     O43494   4.517   3.828   2.889  0.4821  0.9684 -0.5132
  323MOL0     C43495   4.416   3.884   2.811  0.1715  0.0274 -0.7973
  323MOL0     C43496   4.400   3.889   2.672  0.6184  0.6282 -0.0134
  323MOL0     C43497   4.289   3.948   2.609 -0.0062 -0.3455 -0.9146
  323MOL0     C43498   4.278   3.935   2.460  0.1266  1.3932  0.1958
  323MOL0     C43499   4.196   4.016   2.688  0.7965  0.0292  0.2707
  323MOL0     C43500   4.074   4.076   2.634 -0.8905 -1.3491 -0.2468
  323MOL0     O43501   4.030   4.195   2.695  0.0493  0.2648 -0.5888
  323MOL0     C43502   3.897   4.228   2.683 -0.6173  0.6286 -0.9496
  323MOL0     C43503   3.866   4.341   2.604 -0.0471  0.8704  0.2965
  323MOL0     C43504   3.734   4.387   2.590  0.2162  0.3522  0.1529
  323MOL0     C43505   3.628   4.319   2.647 -0.0561 -0.3796 -0.1877
  323MOL0     O43506   3.499   4.358   2.609 -0.3129  0.4225 -0.7053
  323MOL0     C43507   3.388   4.266   2.617  0.2446 -0.8220  0.2496
  323MOL0     C43508   3.279   4.325   2.525 -0.1030 -0.3490  0.1058
  323MOL0     C43509   3.146   4.251   2.546  0.3820 -0.5000 -0.7733
  323MOL0     C43510   3.020   4.332   2.487  1.1495 -0.2152  0.6225
  323MOL0     C43511   2.900   4.239   2.493  0.5256 -0.7696 -0.0392
  323MOL0     C43512   2.772   4.307   2.428 -0.4025 -0.2212  1.2051
  323MOL0     C43513   2.673   4.371   2.518 -0.0532 -0.5469  0.4120
  323MOL0     C43514   2.617   4.288   2.630  0.0954  0.5235 -0.6921
  323MOL0    Cl43515   2.499   4.403   2.709 -0.6493  0.4327  0.3745
  323MOL0     C43516   3.661   4.221   2.733 -0.2741  0.8392 -0.5742
  323MOL0     C43517   3.791   4.176   2.756  0.0580 -0.0713 -0.3139
  323MOL0     O43518   4.011   4.004   2.558 -0.4536  0.0930 -0.2155
  323MOL0     C43519   4.214   4.019   2.827 -0.5361 -0.2374  0.0176
  323MOL0     C43520   4.320   3.955   2.889  0.7681 -0.2561  0.0360
  323MOL0     N43521   5.059   3.812   2.608  0.0306 -0.2315 -0.0796
  323MOL0     N43522   5.141   3.711   2.584  0.2554  0.0207  0.3232
  323MOL0     C43523   5.554   2.705   2.356 -0.6527  0.0764 -1.7052
  323MOL0     C43524   5.678   2.668   2.290 -0.5246  0.7465  0.4323
  323MOL0     C43525   6.056   2.602   2.108  0.1779 -0.3901  0.5272
  323MOL0     C43526   6.115   2.495   2.173 -1.0895  0.0747  0.3504
  323MOL0     C43527   6.242   2.441   2.134  0.1596 -0.6773 -0.3143
  323MOL0     C43528   6.307   2.481   2.015  0.3097 -1.1483  0.1507
  323MOL0     O43529   6.427   2.416   1.971 -0.4965 -0.2362 -0.3416
  323MOL0     C43530   6.494   2.319   2.056  1.0468  0.2549  0.5970
  323MOL0     C43531   6.573   2.376   2.168  0.2147 -0.4007  0.0484
  323MOL0     C43532   6.726   2.367   2.156 -0.1752  0.3338  0.7819
  323MOL0     C43533   6.772   2.488   2.074  0.2760  0.4759 -0.2602
  323MOL0     C43534   6.918   2.493   2.045  0.3007 -0.5680  0.2399
  323MOL0     C43535   7.036   2.495   2.008  0.5486 -0.3771  0.1625
  323MOL0     C43536   6.234   2.582   1.945 -0.7842  0.2015  0.5922
  323MOL0     C43537   6.124   2.647   1.989  0.3838  0.8222  0.4997
  323MOL0     H43538   5.905   2.802   2.492 -0.0380  0.8743 -0.9021
  323MOL0     H43539   5.699   2.887   2.607  1.5844 -0.0235  0.3462
  323MOL0     H43540   5.300   2.814   2.404 -2.6713  0.4915  1.2220
  323MOL0     H43541   5.332   2.666   2.499  3.2134 -0.3997  2.2992
  323MOL0     H43542   5.120   2.779   2.550 -0.2766 -1.0682  2.0253
  323MOL0     H43543   5.222   2.794   2.691  0.3518  1.5304  0.1937
  323MOL0     H43544   5.278   3.022   2.635 -1.6178 -1.0350  2.6083
  323MOL0     H43545   5.203   3.000   2.469  3.7487  0.4087 -0.2391
  323MOL0     H43546   4.991   2.970   2.576  0.6948 -0.7477  0.5632
  323MOL0     H43547   5.046   3.006   2.732 -0.8017 -2.6696 -0.5008
  323MOL0     H43548   5.032   3.208   2.496  0.9599 -1.9089 -0.1572
  323MOL0     H43549   4.955   3.216   2.656  0.5809 -0.3700  1.0455
  323MOL0     H43550   5.192   3.248   2.764  2.1542 -1.1762 -0.8565
  323MOL0     H43551   5.262   3.243   2.602 -1.2837 -0.5193 -0.5732
  323MOL0     H43552   5.152   3.438   2.524  0.1655  2.6277  1.1787
  323MOL0     H43553   5.037   3.442   2.660 -1.0706 -1.0199 -1.1593
  323MOL0     H43554   5.333   3.523   2.655  1.6148  2.6035  1.2535
  323MOL0     H43555   5.250   3.488   2.802 -0.0552 -2.4094 -1.2510
  323MOL0     H43556   5.133   3.688   2.913 -0.4422  0.5057  0.7009
  323MOL0     H43557   5.039   3.956   2.886 -0.3185  0.6128  1.0299
  323MOL0     H43558   4.937   3.996   2.743  4.0449 -0.6265 -0.2216
  323MOL0     H43559   4.797   3.933   2.958 -3.0175 -3.4402  1.5724
  323MOL0     H43560   4.859   3.778   2.946  1.2149 -0.2595 -1.3823
  323MOL0     H43561   4.775   3.765   2.693  0.6992 -3.5027  1.9352
  323MOL0     H43562   4.683   3.908   2.728  1.2508 -0.6831 -2.0834
  323MOL0     H43563   4.647   3.668   2.892 -3.6430 -1.1010  1.3681
  323MOL0     H43564   4.553   3.686   2.739 -2.0658 -2.6446  2.1899
  323MOL0     H43565   4.468   3.841   2.602 -1.7205  0.4386 -2.3137
  323MOL0     H43566   4.227   3.845   2.423 -0.2605  2.3558 -1.7799
  323MOL0     H43567   4.222   4.018   2.416 -2.0316 -1.3604 -2.7991
  323MOL0     H43568   4.377   3.923   2.416  0.0068 -2.1456  0.6404
  323MOL0     H43569   3.952   4.386   2.553  0.0351 -2.3411 -2.8058
  323MOL0     H43570   3.720   4.471   2.523 -1.2048 -0.0603 -0.1154
  323MOL0     H43571   3.414   4.165   2.585 -1.0110 -1.0826  0.0075
  323MOL0     H43572   3.357   4.263   2.722  3.2873  1.0301  1.3232
  323MOL0     H43573   3.269   4.424   2.569 -0.8698 -1.4617  2.6128
  323MOL0     H43574   3.316   4.332   2.422 -0.0603 -0.3329  0.1217
  323MOL0     H43575   3.134   4.236   2.654 -2.5829  2.1663 -0.5771
  323MOL0     H43576   3.142   4.164   2.480 -0.2075  0.3093 -1.8431
  323MOL0     H43577   3.017   4.419   2.552  0.1916  0.9012 -0.8461
  323MOL0     H43578   3.028   4.368   2.384 -2.2105 -0.3079  0.2305
  323MOL0     H43579   2.887   4.197   2.593 -2.0280 -1.7748 -0.7050
  323MOL0     H43580   2.923   4.149   2.436  0.5786 -1.7581  1.4826
  323MOL0     H43581   2.804   4.377   2.350 -0.3128 -2.6494 -1.0782
  323MOL0     H43582   2.723   4.222   2.380  0.3054 -0.0585  0.1484
  323MOL0     H43583   2.590   4.397   2.451 -0.7687 -0.4742  1.3058
  323MOL0     H43584   2.706   4.468   2.556 -0.3979  0.3281 -1.3917
  323MOL0     H43585   2.699   4.268   2.700 -0.8877  2.4916  1.1567
  323MOL0     H43586   2.564   4.199   2.595 -0.6397  1.3854 -1.8696
  323MOL0     H43587   3.591   4.173   2.801 -1.6047  0.2315 -2.2900
  323MOL0     H43588   3.795   4.083   2.812  0.8589 -0.0057 -0.2597
  323MOL0     H43589   4.139   4.064   2.891 -1.2647  1.5299 -1.9526
  323MOL0     H43590   4.331   3.962   2.996  1.6749  1.5109 -0.1466
  323MOL0     H43591   5.454   2.676   2.324 -2.0804 -0.3325  2.5594
  323MOL0     H43592   5.676   2.614   2.195 -0.1952  2.1404 -0.3989
  323MOL0     H43593   6.072   2.462   2.267 -0.5145  1.2826  1.0620
  323MOL0     H43594   6.299   2.373   2.197  1.0796  0.6022  0.2603
  323MOL0     H43595   6.424   2.244   2.094  1.2537 -0.5586 -0.5448
  323MOL0     H43596   6.556   2.257   1.990 -0.3100 -2.0514  1.3571
  323MOL0     H43597   6.534   2.326   2.258  0.3946 -1.6487 -0.5481
  323MOL0     H43598   6.538   2.479   2.180 -1.8975 -1.1574  0.9663
  323MOL0     H43599   6.756   2.276   2.105 -1.1813  2.2177 -3.6914
  323MOL0     H43600   6.766   2.374   2.258 -1.5364 -1.2570  1.4649
  323MOL0     H43601   6.754   2.576   2.137  2.0285 -2.0091  4.1686
  323MOL0     H43602   6.723   2.497   1.977  1.5025  0.7541 -0.8780
  323MOL0     H43603   7.135   2.512   1.970 -0.0449  3.8579  0.0707
  323MOL0     H43604   6.259   2.600   1.841 -1.1495  1.1682  0.6573
  323MOL0     H43605   6.074   2.715   1.920  1.9697  1.4903 -0.0296
  324MOL0     O43606   2.253   6.866   8.519  0.2920 -0.0297  0.0391
  324MOL0     C43607   2.254   6.895   8.400  0.2144  0.5478 -1.0983
  324MOL0     O43608   2.147   6.891   8.319 -1.1237 -0.8446 -0.6283
  324MOL0     C43609   2.029   6.850   8.365 -0.5621 -0.5111 -0.1412
  324MOL0     C43610   1.917   6.923   8.332 -0.5411  0.7439  0.5295
  324MOL0     C43611   1.791   6.874   8.365  0.3554  0.2798  0.3117
  324MOL0     C43612   1.777   6.756   8.428  0.1696 -0.4292 -0.0409
  324MOL0     O43613   1.643   6.726   8.463  0.1082  0.4923  0.2657
  324MOL0     C43614   1.607   6.647   8.573  0.5818 -0.2948 -0.4669
  324MOL0     C43615   1.459   6.606   8.579  0.3530 -0.2439 -0.3881
  324MOL0     C43616   1.365   6.727   8.589 -0.7120 -0.7799  0.3406
  324MOL0     C43617   1.220   6.710   8.538 -1.0352  1.1534 -0.2241
  324MOL0     C43618   1.147   6.599   8.611 -0.6969  0.1282 -0.5341
  324MOL0     C43619   0.997   6.586   8.575  0.2408  0.2615 -0.0641
  324MOL0     C43620   0.932   6.486   8.666  0.4990  0.3688 -0.7795
  324MOL0     C43621   0.879   6.560   8.787  0.4353 -0.3655  0.6377
  324MOL0     N43622   0.733   6.586   8.762 -0.8921  0.3437  0.0542
  324MOL0     C43623   0.630   6.500   8.786 -0.0182  0.5693  0.2507
  324MOL0     C43624   0.515   6.567   8.755 -0.2046 -1.0017  0.4485
  324MOL0     C43625   0.372   6.529   8.778 -0.4398  0.6195 -0.3407
  324MOL0     C43626   0.279   6.579   8.659 -0.9959 -0.0914 -0.5210
  324MOL0     C43627   0.177   6.679   8.727  0.0004  0.5745 -0.3504
  324MOL0     C43628   0.056   6.705   8.640  0.3968  0.4232  0.0614
  324MOL0     O43629  -0.021   6.589   8.629 -0.3546  0.7118  0.5194
  324MOL0     C43630  -0.155   6.585   8.601  0.5735  0.5923  0.1240
  324MOL0     C43631  -0.229   6.465   8.590 -0.5117 -0.4433  0.3293
  324MOL0     C43632  -0.362   6.457   8.560  0.1405 -0.8418 -0.2441
  324MOL0     C43633  -0.423   6.321   8.582  0.1532  0.5645 -0.2200
  324MOL0     C43634  -0.435   6.577   8.514 -0.7536  0.0540 -0.0617
  324MOL0     C43635  -0.576   6.570   8.474  0.6084 -0.7014  0.4681
  324MOL0     O43636  -0.636   6.693   8.439 -0.0178  0.3823  0.0146
  324MOL0     C43637  -0.762   6.684   8.384  0.8955  0.2615 -0.7186
  324MOL0     C43638  -0.778   6.710   8.248  0.6495  0.0705  0.1799
  324MOL0     C43639  -0.907   6.715   8.192 -0.3543  0.6196  0.6598
  324MOL0     C43640  -1.026   6.715   8.273 -0.7912  0.2633  0.2950
  324MOL0     O43641  -1.154   6.736   8.232 -0.3113 -0.8255  0.2661
  324MOL0     C43642  -1.201   6.709   8.098 -0.5653 -0.2780  0.7872
  324MOL0     C43643  -1.191   6.561   8.061  0.0335  0.5335  0.3182
  324MOL0     C43644  -1.285   6.537   7.942  1.0534 -0.4987 -0.1634
  324MOL0     C43645  -1.232   6.406   7.877  0.2599 -0.0449  0.3618
  324MOL0     C43646  -1.294   6.375   7.745 -0.0635 -0.1306 -0.5059
  324MOL0     C43647  -1.449   6.391   7.741 -1.0633 -0.0393  0.1117
  324MOL0     C43648  -1.500   6.358   7.603  0.8109  0.0317 -0.1526
  324MOL0     C43649  -1.632   6.303   7.605  0.3000 -0.3038  0.1459
  324MOL0    Cl43650  -1.614   6.128   7.663  0.2241  0.4785 -0.1079
  324MOL0     C43651  -1.010   6.696   8.410 -0.2939 -0.6180 -0.2636
  324MOL0     C43652  -0.883   6.673   8.464 -0.5190  0.0236 -0.3064
  324MOL0     O43653  -0.634   6.465   8.466 -0.5969  0.1799 -0.9224
  324MOL0     C43654  -0.358   6.704   8.535  0.5868  0.5161 -0.0876
  324MOL0     C43655  -0.230   6.706   8.575 -0.8506  0.3916  1.0393
  324MOL0     N43656   0.551   6.694   8.706  0.3519  0.2419 -0.7646
  324MOL0     N43657   0.683   6.699   8.719 -0.3041 -1.0101  0.6543
  324MOL0     C43658   1.892   6.671   8.466 -0.6248  0.7074  0.3443
  324MOL0     C43659   2.018   6.723   8.417  0.6707  0.5139 -1.0695
  324MOL0     C43660   2.377   6.943   8.337  0.5682 -0.1852 -0.9275
  324MOL0     C43661   2.428   6.895   8.222  0.5561  0.1586  0.8168
  324MOL0     C43662   2.545   6.934   8.172  0.1317 -0.0381  0.3135
  324MOL0     C43663   2.624   7.032   8.229 -0.4602 -0.7744 -0.8215
  324MOL0     O43664   2.726   7.095   8.157  0.2455 -0.1080 -0.1331
  324MOL0     C43665   2.845   7.142   8.224  0.1450 -0.1507  0.1708
  324MOL0     C43666   2.953   7.209   8.139  0.4647 -0.4668 -0.7425
  324MOL0     C43667   3.077   7.257   8.224  0.7033 -0.1122 -0.0143
  324MOL0     C43668   3.168   7.354   8.150  0.0535  1.3084  0.1053
  324MOL0     C43669   3.207   7.300   8.017  0.7574 -0.4120 -0.6396
  324MOL0     C43670   3.211   7.249   7.908 -0.3312  0.7991  0.2438
  324MOL0     C43671   2.580   7.073   8.354 -0.0339  0.3085 -0.8313
  324MOL0     C43672   2.461   7.033   8.410  0.2456  0.0627 -0.4897
  324MOL0     H43673   1.912   7.019   8.280 -2.7066  0.9266  0.9685
  324MOL0     H43674   1.704   6.933   8.338  0.9712  0.4130 -1.5459
  324MOL0     H43675   1.652   6.547   8.568  1.7265  0.1873 -0.0792
  324MOL0     H43676   1.643   6.694   8.664  0.5459 -0.5921 -0.2984
  324MOL0     H43677   1.439   6.531   8.502 -2.0599  0.2824 -0.3409
  324MOL0     H43678   1.448   6.554   8.675  0.1512 -0.2254 -0.4017
  324MOL0     H43679   1.362   6.747   8.696  3.8100  1.6735  0.2899
  324MOL0     H43680   1.397   6.819   8.538  1.7492 -1.7461 -0.0150
  324MOL0     H43681   1.164   6.801   8.560 -3.2957 -0.5467  1.5403
  324MOL0     H43682   1.217   6.693   8.430 -1.4720  0.9741 -0.1826
  324MOL0     H43683   1.186   6.498   8.595  0.7306  1.0726 -3.8252
  324MOL0     H43684   1.158   6.621   8.718 -2.2420 -1.7404  0.0656
  324MOL0     H43685   0.938   6.678   8.571  0.8112  0.6188 -3.8964
  324MOL0     H43686   0.993   6.550   8.472 -2.7874 -1.7144  0.6264
  324MOL0     H43687   0.852   6.425   8.624  0.0797 -0.8835  1.6710
  324MOL0     H43688   1.012   6.421   8.702 -0.3949  1.0024  2.7039
  324MOL0     H43689   0.925   6.659   8.798  0.0422  0.1168 -1.5054
  324MOL0     H43690   0.904   6.499   8.873  0.5944 -1.0940  0.0825
  324MOL0     H43691   0.629   6.401   8.830  0.4024  1.0858  1.4682
  324MOL0     H43692   0.376   6.420   8.784  3.0758  0.5656 -1.4613
  324MOL0     H43693   0.331   6.564   8.873 -2.8352 -3.9657  0.5846
  324MOL0     H43694   0.237   6.489   8.613 -0.8859 -0.2231 -0.3659
  324MOL0     H43695   0.326   6.634   8.578 -1.2369 -1.1210 -1.3764
  324MOL0     H43696   0.220   6.779   8.737  0.9185  0.0411  1.4841
  324MOL0     H43697   0.147   6.656   8.830  0.1627 -0.1472 -0.4591
  324MOL0     H43698   0.102   6.731   8.544 -0.7141  0.1176 -0.5723
  324MOL0     H43699  -0.010   6.786   8.674 -1.1320 -1.8845  3.1492
  324MOL0     H43700  -0.171   6.375   8.606 -2.5701 -2.0769 -0.9167
  324MOL0     H43701  -0.458   6.295   8.482 -0.5497  4.0037 -0.9728
  324MOL0     H43702  -0.352   6.241   8.604 -1.5404 -1.4818 -1.7816
  324MOL0     H43703  -0.505   6.335   8.653 -0.9897 -1.4888 -1.0412
  324MOL0     H43704  -0.698   6.723   8.176 -0.3006  2.0849 -0.5840
  324MOL0     H43705  -0.911   6.739   8.086 -0.6254  0.8011  0.7111
  324MOL0     H43706  -1.307   6.733   8.088 -0.1166  0.9413 -1.9952
  324MOL0     H43707  -1.154   6.769   8.019 -4.1894  2.6909  0.5729
  324MOL0     H43708  -1.089   6.530   8.038 -0.3804  0.0084 -0.8608
  324MOL0     H43709  -1.222   6.501   8.147 -1.7495  0.7617 -0.1280
  324MOL0     H43710  -1.274   6.624   7.876  1.0716  0.4486  1.0461
  324MOL0     H43711  -1.388   6.527   7.977  1.1306 -0.9476 -0.0515
  324MOL0     H43712  -1.124   6.404   7.865  0.3592 -0.6583  1.1948
  324MOL0     H43713  -1.255   6.332   7.955 -0.3591 -0.0526  0.1778
  324MOL0     H43714  -1.266   6.272   7.720 -0.8700 -0.3079 -0.7360
  324MOL0     H43715  -1.256   6.438   7.664 -1.1388  3.1605  1.3766
  324MOL0     H43716  -1.483   6.324   7.820  2.2652  0.2996  2.0096
  324MOL0     H43717  -1.482   6.490   7.772  2.4881  1.4322 -0.3651
  324MOL0     H43718  -1.424   6.287   7.568  0.9872  0.1845 -0.0810
  324MOL0     H43719  -1.501   6.444   7.537 -2.0551  1.4288  1.5250
  324MOL0     H43720  -1.679   6.292   7.507  3.3997  1.2107 -1.6824
  324MOL0     H43721  -1.699   6.369   7.662 -0.2688 -0.1619 -0.6627
  324MOL0     H43722  -1.098   6.716   8.470  2.4258 -0.5800  4.2474
  324MOL0     H43723  -0.858   6.653   8.568 -1.6534 -1.8953 -0.3646
  324MOL0     H43724  -0.401   6.798   8.504 -1.4284  0.1868  1.5386
  324MOL0     H43725  -0.189   6.807   8.578  0.6214 -0.1991  1.4640
  324MOL0     H43726   1.882   6.577   8.518  3.1859 -1.1177 -1.8027
  324MOL0     H43727   2.102   6.656   8.436  0.9157  0.6529 -1.6557
  324MOL0     H43728   2.366   6.828   8.164 -0.4003  0.9821  0.8503
  324MOL0     H43729   2.563   6.904   8.069 -0.9514  1.5623 -0.3696
  324MOL0     H43730   2.820   7.204   8.311 -0.6466  0.9890 -0.8392
  324MOL0     H43731   2.887   7.049   8.266  1.9253  0.1412 -0.8446
  324MOL0     H43732   2.911   7.297   8.090 -2.5505 -1.6985 -0.5779
  324MOL0     H43733   2.977   7.145   8.054  1.1040 -1.4574  0.1696
  324MOL0     H43734   3.129   7.167   8.258 -3.5117 -2.5310  0.8302
  324MOL0     H43735   3.043   7.303   8.318  1.3576  1.0316 -0.3198
  324MOL0     H43736   3.255   7.374   8.213 -0.5627  0.5196  1.2429
  324MOL0     H43737   3.108   7.444   8.136 -0.2645  1.1630  0.5143
  324MOL0     H43738   3.230   7.187   7.822 -1.3195  0.6366  0.1280
  324MOL0     H43739   2.631   7.140   8.421  0.0548 -0.7989  0.2421
  324MOL0     H43740   2.426   7.067   8.507  0.7113  0.1607 -0.3522
  325MOL0     O43741   0.717   3.922  11.139  0.2129  0.3410 -0.3125
  325MOL0     C43742   0.634   3.863  11.200  0.5004 -0.0192 -0.0772
  325MOL0     O43743   0.651   3.731  11.246 -0.5565  0.6359  0.2896
  325MOL0     C43744   0.764   3.662  11.206  0.7873  0.0698  1.2740
  325MOL0     C43745   0.795   3.653  11.069 -0.5466  0.9516  1.0396
  325MOL0     C43746   0.916   3.581  11.033 -0.4508 -0.1199 -0.1126
  325MOL0     C43747   1.003   3.513  11.117  0.6451 -1.0739  0.4064
  325MOL0     O43748   1.105   3.449  11.052  0.1610  0.4347  0.1057
  325MOL0     C43749   1.191   3.372  11.135 -0.3415 -0.1248 -0.6619
  325MOL0     C43750   1.122   3.239  11.152 -0.7760  0.3962  0.8785
  325MOL0     C43751   1.224   3.145  11.208 -0.3843  0.4819 -0.2269
  325MOL0     C43752   1.190   3.001  11.166 -0.3870 -0.3842 -0.7583
  325MOL0     C43753   1.296   2.898  11.217 -0.3337 -0.3239  0.1154
  325MOL0     C43754   1.296   2.757  11.152  0.6288  0.8854 -0.6138
  325MOL0     C43755   1.162   2.692  11.172  0.5996 -0.6587  0.2753
  325MOL0     C43756   1.058   2.730  11.067  0.2025  0.6597  1.0573
  325MOL0     N43757   0.942   2.647  11.084 -0.0602 -0.7100 -0.1701
  325MOL0     C43758   0.904   2.541  11.012 -0.3189  0.1390 -0.2316
  325MOL0     C43759   0.788   2.499  11.070 -0.1352 -0.4157 -0.2696
  325MOL0     C43760   0.709   2.382  11.031  0.3927  0.2795 -0.8331
  325MOL0     C43761   0.591   2.412  10.941 -0.3716  0.0454 -0.1480
  325MOL0     C43762   0.502   2.289  10.930 -0.3265 -0.2983 -0.5204
  325MOL0     C43763   0.390   2.293  10.826 -0.0384  0.3647 -0.0719
  325MOL0     O43764   0.328   2.423  10.843  0.2819  0.3830 -0.3316
  325MOL0     C43765   0.216   2.453  10.763  0.6408 -0.7908  0.5739
  325MOL0     C43766   0.189   2.588  10.752  0.1968  0.4560  0.1380
  325MOL0     C43767   0.087   2.639  10.673  0.5245 -0.6165 -0.1410
  325MOL0     C43768   0.063   2.784  10.674 -0.3070  0.5946 -0.3742
  325MOL0     C43769   0.003   2.551  10.595  0.4833 -0.6352 -0.0122
  325MOL0     C43770  -0.104   2.582  10.497 -1.0392 -0.1258 -0.1236
  325MOL0     O43771  -0.190   2.485  10.467  0.2039  0.2349 -0.2071
  325MOL0     C43772  -0.308   2.519  10.407  0.1335  0.6923 -0.0636
  325MOL0     C43773  -0.321   2.558  10.280  0.1682 -1.1387  0.4860
  325MOL0     C43774  -0.452   2.579  10.218  0.4117  0.8246 -0.1846
  325MOL0     C43775  -0.565   2.544  10.293 -0.4126 -0.5962  0.9450
  325MOL0     O43776  -0.691   2.566  10.242 -0.0767 -0.0907 -0.2108
  325MOL0     C43777  -0.710   2.593  10.101 -0.7162 -0.0252 -0.7800
  325MOL0     C43778  -0.856   2.600  10.056  0.6805 -0.0466  0.1427
  325MOL0     C43779  -0.892   2.470   9.993  0.0931  0.5538 -0.6467
  325MOL0     C43780  -1.042   2.472   9.974 -0.6091  0.0350  0.4698
  325MOL0     C43781  -1.090   2.353   9.890 -0.3665 -0.3765 -0.6339
  325MOL0     C43782  -1.077   2.216   9.966 -0.0253  0.5995 -0.3710
  325MOL0     C43783  -1.131   2.105   9.875  0.1356 -0.2355  0.4057
  325MOL0     C43784  -1.035   2.059   9.759 -0.3983 -0.0945  0.2060
  325MOL0    Cl43785  -1.107   1.946   9.638 -0.6859  0.3572 -0.4547
  325MOL0     C43786  -0.552   2.488  10.416  0.3945  0.1451 -0.7567
  325MOL0     C43787  -0.421   2.466  10.466  0.3705 -0.4536 -1.0070
  325MOL0     O43788  -0.103   2.689  10.436 -0.0975 -0.1674 -0.5732
  325MOL0     C43789   0.023   2.415  10.613 -0.1443 -0.6062  0.1389
  325MOL0     C43790   0.134   2.368  10.686 -1.1160 -0.4507  0.1478
  325MOL0     N43791   0.758   2.575  11.183 -0.3248 -0.2205  0.0692
  325MOL0     N43792   0.852   2.669  11.181 -0.3876  0.6760 -0.1325
  325MOL0     C43793   0.967   3.520  11.256 -0.2674 -1.0215  0.0824
  325MOL0     C43794   0.860   3.610  11.292 -0.1780 -0.0513 -0.3000
  325MOL0     C43795   0.496   3.908  11.211  0.9505 -0.2035 -0.5954
  325MOL0     C43796   0.455   4.033  11.163  0.1789  0.0878  0.5596
  325MOL0     C43797   0.325   4.081  11.193  0.2278 -0.1874  0.2277
  325MOL0     C43798   0.232   3.993  11.255  0.4371 -0.0342  0.8666
  325MOL0     O43799   0.101   4.015  11.270  0.1188 -0.0525  0.0614
  325MOL0     C43800   0.051   4.141  11.321  0.6538  0.4656 -0.2390
  325MOL0     C43801  -0.058   4.194  11.221  0.7707 -0.7711 -0.5784
  325MOL0     C43802  -0.010   4.209  11.079 -0.5957  0.4623 -0.5800
  325MOL0     C43803  -0.089   4.318  11.016  0.2957 -0.3272  0.2315
  325MOL0     C43804  -0.198   4.269  10.932  0.6247  0.4036 -0.0306
  325MOL0     C43805  -0.289   4.213  10.870 -0.3760  1.2784  0.6125
  325MOL0     C43806   0.264   3.862  11.281 -0.0916  0.4465  0.4389
  325MOL0     C43807   0.397   3.827  11.271  0.6821  0.3572  0.0348
  325MOL0     H43808   0.743   3.704  10.988  0.2456 -0.7129 -0.6099
  325MOL0     H43809   0.949   3.598  10.931  1.8001 -1.9666  0.2266
  325MOL0     H43810   1.286   3.358  11.082  0.1591  0.6646 -0.0056
  325MOL0     H43811   1.217   3.422  11.229 -0.3340 -0.1103 -0.6720
  325MOL0     H43812   1.032   3.241  11.214 -1.2903 -3.4449  0.4857
  325MOL0     H43813   1.089   3.212  11.052  2.1612 -2.7091  0.5703
  325MOL0     H43814   1.326   3.162  11.172  0.2279 -0.7439  0.8905
  325MOL0     H43815   1.226   3.157  11.316  3.0691  2.3158 -0.3567
  325MOL0     H43816   1.089   2.987  11.207  0.3740 -0.3131  1.2510
  325MOL0     H43817   1.187   2.992  11.057 -1.6855  0.8498 -0.8448
  325MOL0     H43818   1.393   2.941  11.191 -1.4189  0.3991 -3.1653
  325MOL0     H43819   1.279   2.901  11.325 -0.9668  0.6310 -0.0012
  325MOL0     H43820   1.320   2.764  11.045  1.8208 -1.7233 -0.6057
  325MOL0     H43821   1.378   2.698  11.194  1.7237  1.9618 -1.1897
  325MOL0     H43822   1.188   2.586  11.164  1.2749 -0.4749 -0.0232
  325MOL0     H43823   1.124   2.721  11.270 -0.5088  0.1182 -0.3589
  325MOL0     H43824   1.105   2.702  10.972 -1.1894 -1.0946  0.8336
  325MOL0     H43825   1.039   2.837  11.066  1.3088  0.8809 -0.7115
  325MOL0     H43826   0.947   2.493  10.925 -4.9816 -2.8195 -1.2557
  325MOL0     H43827   0.778   2.312  10.983  0.5855 -1.4855  1.7850
  325MOL0     H43828   0.683   2.335  11.127 -2.5995  0.5067 -1.4302
  325MOL0     H43829   0.625   2.430  10.838  0.6916 -1.8652 -0.1815
  325MOL0     H43830   0.526   2.490  10.980 -1.7113 -0.2259 -1.7286
  325MOL0     H43831   0.466   2.264  11.030  3.1456  1.2323  1.2806
  325MOL0     H43832   0.573   2.207  10.913  1.1787  1.2259 -2.0848
  325MOL0     H43833   0.324   2.207  10.842 -0.1397  0.7713  1.9712
  325MOL0     H43834   0.430   2.284  10.724 -1.2770  2.3430 -0.7904
  325MOL0     H43835   0.239   2.652  10.824 -0.0982 -0.2911  1.0241
  325MOL0     H43836  -0.044   2.807  10.662 -0.1185  1.2362 -0.8836
  325MOL0     H43837   0.089   2.823  10.773  0.6489 -0.9883  0.0373
  325MOL0     H43838   0.119   2.835  10.596  0.4150 -2.1885 -1.7921
  325MOL0     H43839  -0.238   2.579  10.213 -1.8291  2.7456 -1.1079
  325MOL0     H43840  -0.461   2.611  10.115  1.4299  0.5839 -0.3569
  325MOL0     H43841  -0.665   2.692  10.089  0.1813 -0.1676  0.9734
  325MOL0     H43842  -0.644   2.528  10.043  0.5306  0.2439  0.2802
  325MOL0     H43843  -0.915   2.621  10.146 -1.5805  1.8648 -1.6564
  325MOL0     H43844  -0.867   2.683   9.986 -2.6455  0.1020  0.6863
  325MOL0     H43845  -0.866   2.398  10.072 -4.2263 -0.6123 -0.0167
  325MOL0     H43846  -0.831   2.467   9.902  1.2257 -4.3238  0.0094
  325MOL0     H43847  -1.098   2.488  10.067 -0.3165 -2.5552  1.1502
  325MOL0     H43848  -1.052   2.558   9.907  0.4231 -1.5484 -1.8509
  325MOL0     H43849  -1.033   2.357   9.797  0.7984 -1.4664 -0.0019
  325MOL0     H43850  -1.197   2.368   9.873 -1.5095 -3.8124  2.1788
  325MOL0     H43851  -0.975   2.185   9.993 -0.7022 -2.5494 -1.0202
  325MOL0     H43852  -1.123   2.219  10.066  0.5857 -4.1658  0.2981
  325MOL0     H43853  -1.228   2.133   9.831 -0.0160 -0.4106  0.6240
  325MOL0     H43854  -1.145   2.014   9.934 -0.1260 -0.3086  0.2364
  325MOL0     H43855  -0.944   2.016   9.802  1.3432  3.2226  0.1542
  325MOL0     H43856  -1.000   2.149   9.709 -1.2784 -0.2126 -0.6617
  325MOL0     H43857  -0.637   2.449  10.471  1.5150  0.8572  1.6261
  325MOL0     H43858  -0.405   2.422  10.564 -0.2738 -1.2451 -1.2514
  325MOL0     H43859  -0.051   2.347  10.572 -0.1196 -0.8343  0.4754
  325MOL0     H43860   0.151   2.261  10.686 -0.8283 -0.4138  0.9238
  325MOL0     H43861   1.028   3.475  11.334  2.2375  1.8387 -0.0276
  325MOL0     H43862   0.850   3.633  11.397 -0.4156  0.0605 -0.3479
  325MOL0     H43863   0.525   4.102  11.116  3.1162 -2.6716  0.5689
  325MOL0     H43864   0.303   4.179  11.152 -1.0670 -0.3649  0.4705
  325MOL0     H43865   0.000   4.127  11.416 -0.7552 -3.0676 -1.3594
  325MOL0     H43866   0.133   4.213  11.337  1.0323 -0.1152  0.4458
  325MOL0     H43867  -0.103   4.286  11.260  0.8432  0.1916 -2.6696
  325MOL0     H43868  -0.143   4.126  11.219 -1.4050  1.8063 -2.0103
  325MOL0     H43869  -0.019   4.114  11.026 -0.4829 -0.5718  1.1437
  325MOL0     H43870   0.095   4.242  11.074 -0.8550  2.0588  2.1759
  325MOL0     H43871  -0.012   4.374  10.961  0.4097 -0.4060  0.3098
  325MOL0     H43872  -0.130   4.389  11.088  1.5727  0.9946 -0.2842
  325MOL0     H43873  -0.358   4.155  10.813 -0.9628  3.5046 -1.1041
  325MOL0     H43874   0.186   3.792  11.307  0.0694  1.0455  2.7025
  325MOL0     H43875   0.416   3.724  11.300 -1.0812  0.0387  0.1368
  326MOL0     O43876   1.550   0.980  11.230  0.1469 -0.0759 -0.2619
  326MOL0     C43877   1.472   0.997  11.136 -0.4389 -0.0254  0.7396
  326MOL0     O43878   1.340   1.002  11.144 -0.7585 -0.1622 -0.3693
  326MOL0     C43879   1.268   0.979  11.261 -0.7230 -0.1299  0.6304
  326MOL0     C43880   1.263   0.856  11.319  0.1004  0.6999 -0.8201
  326MOL0     C43881   1.174   0.848  11.426  0.0327 -0.0380 -0.3859
  326MOL0     C43882   1.081   0.947  11.461 -0.3357  0.7886  0.0630
  326MOL0     O43883   0.995   0.919  11.565  0.3860  0.0698  0.5571
  326MOL0     C43884   0.882   0.996  11.592  0.2468 -0.3854  0.3570
  326MOL0     C43885   0.801   0.944  11.703 -0.3849  1.0140  0.2522
  326MOL0     C43886   0.656   0.921  11.652  0.5190  0.9186  0.1449
  326MOL0     C43887   0.539   0.893  11.762 -0.3887  0.4029 -0.1137
  326MOL0     C43888   0.396   0.903  11.707 -0.6659 -0.2298 -0.4691
  326MOL0     C43889   0.362   0.803  11.602 -0.3821  0.8933 -0.7878
  326MOL0     C43890   0.210   0.786  11.597  0.1827 -0.2971  0.0309
  326MOL0     C43891   0.177   0.672  11.503 -0.4241 -0.4065  0.4366
  326MOL0     N43892   0.033   0.652  11.487  0.3617  0.5403 -0.5145
  326MOL0     C43893  -0.055   0.695  11.387  0.3535  0.9638  0.3156
  326MOL0     C43894  -0.183   0.678  11.428  0.0045  0.7181  0.3663
  326MOL0     C43895  -0.303   0.712  11.338 -0.1020  0.0666  1.0866
  326MOL0     C43896  -0.435   0.662  11.401 -0.0051  0.5149 -0.5135
  326MOL0     C43897  -0.556   0.715  11.334  0.5631  0.1309  0.3383
  326MOL0     C43898  -0.680   0.660  11.398  0.7099  0.3327  0.1490
  326MOL0     O43899  -0.789   0.714  11.319  0.7101 -0.7177  0.9227
  326MOL0     C43900  -0.915   0.688  11.364  0.6796 -0.6908 -0.2477
  326MOL0     C43901  -1.014   0.774  11.312  0.5150 -0.3321 -0.1499
  326MOL0     C43902  -1.148   0.752  11.326 -0.4092 -0.1832  0.1262
  326MOL0     C43903  -1.239   0.849  11.250 -0.4305  0.3878  0.2915
  326MOL0     C43904  -1.189   0.647  11.416  0.4425 -0.1220  0.6548
  326MOL0     C43905  -1.338   0.643  11.454 -0.3725 -0.3198  0.6450
  326MOL0     O43906  -1.364   0.548  11.538  0.3339 -0.1582 -0.1197
  326MOL0     C43907  -1.498   0.521  11.571 -0.7920  0.1424  0.1480
  326MOL0     C43908  -1.570   0.598  11.670  0.4934  0.0497  0.2780
  326MOL0     C43909  -1.699   0.565  11.702 -0.6841 -0.3145 -0.1737
  326MOL0     C43910  -1.763   0.456  11.638 -0.0091  0.6092  0.8114
  326MOL0     O43911  -1.899   0.439  11.664 -0.8843  0.4963  0.0591
  326MOL0     C43912  -1.957   0.316  11.628  0.2639  0.2773 -0.1420
  326MOL0     C43913  -2.101   0.302  11.661  0.8927  0.2492 -0.1908
  326MOL0     C43914  -2.195   0.423  11.657  0.7562  0.1494  0.2049
  326MOL0     C43915  -2.337   0.385  11.711  1.1637  0.2764  0.6995
  326MOL0     C43916  -2.392   0.262  11.648 -0.1565 -0.0430 -0.0679
  326MOL0     C43917  -2.537   0.236  11.696  0.1124  0.3230 -0.3336
  326MOL0     C43918  -2.609   0.145  11.601  0.0076  0.0296 -0.8134
  326MOL0     C43919  -2.749   0.122  11.670 -0.1796  0.5173 -0.2248
  326MOL0    Cl43920  -2.868   0.057  11.555 -0.1819 -0.4667 -0.1266
  326MOL0     C43921  -1.687   0.382  11.542 -0.2017  0.2982  0.3353
  326MOL0     C43922  -1.553   0.405  11.511 -0.9086 -0.4835 -0.2273
  326MOL0     O43923  -1.421   0.721  11.416  0.2448 -0.4385 -0.0483
  326MOL0     C43924  -1.090   0.570  11.480 -0.4767  0.1944  0.2621
  326MOL0     C43925  -0.953   0.588  11.459 -0.1082 -0.0802  0.0387
  326MOL0     N43926  -0.181   0.623  11.551 -0.4661  0.7248  0.0066
  326MOL0     N43927  -0.052   0.618  11.588  0.0053  0.0864 -0.3399
  326MOL0     C43928   1.085   1.067  11.385  0.1376  0.0795 -0.5896
  326MOL0     C43929   1.178   1.085  11.291 -0.5156  0.6303 -0.0599
  326MOL0     C43930   1.547   1.014  11.009 -0.7746  0.5908 -0.1735
  326MOL0     C43931   1.472   0.986  10.891 -0.1274  0.0151 -0.0233
  326MOL0     C43932   1.536   0.995  10.770  0.4670  0.2259 -0.1790
  326MOL0     C43933   1.673   1.028  10.755  0.0523  0.3784 -0.0302
  326MOL0     O43934   1.722   1.037  10.627 -0.5766  0.7242 -0.6001
  326MOL0     C43935   1.865   1.044  10.598 -0.2940 -0.0810  0.5333
  326MOL0     C43936   1.894   0.983  10.458  0.6869 -0.7443  0.1429
  326MOL0     C43937   1.860   0.835  10.446 -0.4694 -0.1376 -0.6165
  326MOL0     C43938   1.906   0.748  10.571 -0.1374  0.1391  0.8493
  326MOL0     C43939   2.048   0.761  10.602  0.5978  0.4674  0.2220
  326MOL0     C43940   2.166   0.750  10.601  0.2809  1.2051  0.4314
  326MOL0     C43941   1.739   1.061  10.874 -0.0300  0.0552 -0.0264
  326MOL0     C43942   1.681   1.047  10.998  0.1593 -0.7014  0.4069
  326MOL0     H43943   1.323   0.771  11.288 -1.7356 -1.1554  0.4515
  326MOL0     H43944   1.166   0.756  11.484  0.9167  1.5119  2.4142
  326MOL0     H43945   0.910   1.097  11.624 -1.2787  0.0414  0.3834
  326MOL0     H43946   0.827   0.993  11.497 -1.4308 -0.9078  1.3123
  326MOL0     H43947   0.842   0.851  11.743  1.0788  1.9594  1.0358
  326MOL0     H43948   0.797   1.014  11.787 -0.9388  1.8704 -0.4689
  326MOL0     H43949   0.624   0.998  11.582 -1.6796  0.0078  0.0937
  326MOL0     H43950   0.667   0.833  11.588 -0.9404  1.4968 -0.9497
  326MOL0     H43951   0.555   0.796  11.809  0.5942 -1.8548 -4.5467
  326MOL0     H43952   0.553   0.970  11.838 -1.0904  2.3128 -1.8300
  326MOL0     H43953   0.334   0.867  11.789 -0.3638 -1.0862 -0.6160
  326MOL0     H43954   0.364   1.005  11.681 -4.2331 -0.9413  0.5984
  326MOL0     H43955   0.406   0.825  11.504  0.3420  0.3109 -0.5997
  326MOL0     H43956   0.399   0.713  11.652 -2.6893  1.5435  2.4070
  326MOL0     H43957   0.165   0.767  11.695 -0.0765  5.0785  1.3070
  326MOL0     H43958   0.175   0.882  11.557  1.1101 -0.1643 -0.4836
  326MOL0     H43959   0.220   0.577  11.537  0.5166  0.0728  0.6243
  326MOL0     H43960   0.209   0.692  11.400 -2.1176  0.8197  0.1129
  326MOL0     H43961  -0.022   0.720  11.287 -1.2439  1.0760 -0.2015
  326MOL0     H43962  -0.309   0.821  11.323  0.4610  0.0805  0.9381
  326MOL0     H43963  -0.295   0.672  11.237  1.3832  2.4425  0.1754
  326MOL0     H43964  -0.443   0.703  11.502  2.3517  0.4775 -0.2483
  326MOL0     H43965  -0.436   0.552  11.401  0.8283  0.4569  1.4670
  326MOL0     H43966  -0.551   0.682  11.230 -0.5730 -1.8278  0.8429
  326MOL0     H43967  -0.566   0.823  11.342  0.3296 -0.0085  2.4092
  326MOL0     H43968  -0.685   0.700  11.501  1.7161  3.3120 -0.8451
  326MOL0     H43969  -0.679   0.552  11.387  0.1843  0.3230  0.1864
  326MOL0     H43970  -0.981   0.865  11.263 -3.1742  0.8557 -0.7258
  326MOL0     H43971  -1.292   0.915  11.318  0.1444  2.2447 -0.9698
  326MOL0     H43972  -1.178   0.911  11.183 -0.0988 -0.8425 -0.5939
  326MOL0     H43973  -1.307   0.797  11.182  0.9920 -0.0737 -0.8381
  326MOL0     H43974  -1.522   0.680  11.724  1.1350 -0.6270  0.7607
  326MOL0     H43975  -1.757   0.623  11.773  1.9236  0.9292  1.0669
  326MOL0     H43976  -1.947   0.310  11.519  0.9682  0.5368 -0.0925
  326MOL0     H43977  -1.910   0.233  11.682 -0.3277 -0.2320 -0.3991
  326MOL0     H43978  -2.141   0.218  11.603  0.5609  0.3151 -0.0550
  326MOL0     H43979  -2.106   0.265  11.764 -0.5107  1.2916  0.1444
  326MOL0     H43980  -2.192   0.444  11.550 -1.0810  0.2668  0.1487
  326MOL0     H43981  -2.154   0.513  11.704  2.7683 -0.0934 -0.9416
  326MOL0     H43982  -2.353   0.375  11.818 -1.6796  0.9289  0.4344
  326MOL0     H43983  -2.394   0.475  11.685  1.7270  0.4625  0.0913
  326MOL0     H43984  -2.330   0.176  11.674 -0.7695 -0.0926  1.3681
  326MOL0     H43985  -2.396   0.283  11.541  0.3318 -1.0641 -0.3010
  326MOL0     H43986  -2.522   0.192  11.796  1.0662  3.3444  0.9669
  326MOL0     H43987  -2.591   0.330  11.702  0.9035  0.7631  0.1718
  326MOL0     H43988  -2.548   0.056  11.581  1.1394  1.1640 -2.6752
  326MOL0     H43989  -2.628   0.201  11.510 -0.1140  1.6742  0.1779
  326MOL0     H43990  -2.772   0.221  11.711 -1.8071  0.0823 -0.0408
  326MOL0     H43991  -2.734   0.059  11.759 -1.6309 -1.8124 -1.5513
  326MOL0     H43992  -1.739   0.299  11.496  1.0102  0.2904 -1.0998
  326MOL0     H43993  -1.492   0.350  11.440 -0.0663  1.5731 -1.1859
  326MOL0     H43994  -1.123   0.498  11.555 -0.7553 -1.1222 -1.0662
  326MOL0     H43995  -0.882   0.522  11.507 -0.0473  0.2259  0.3712
  326MOL0     H43996   1.016   1.149  11.404  1.9906  1.3835  0.8981
  326MOL0     H43997   1.165   1.169  11.223 -2.1911 -0.8059 -1.6145
  326MOL0     H43998   1.369   0.952  10.886  0.2826 -1.2210 -0.5106
  326MOL0     H43999   1.479   0.971  10.680 -1.1718  0.1545  0.8431
  326MOL0     H44000   1.903   1.146  10.583 -2.2981  0.5908 -0.3840
  326MOL0     H44001   1.915   0.989  10.678 -4.4805  0.4271  3.8289
  326MOL0     H44002   2.003   0.988  10.443  1.1287 -3.0933  1.9965
  326MOL0     H44003   1.842   1.047  10.386  0.7940  1.3129  1.7659
  326MOL0     H44004   1.891   0.789  10.352  1.6511 -0.0452  0.0036
  326MOL0     H44005   1.751   0.832  10.455 -0.5912  2.6360 -0.3326
  326MOL0     H44006   1.880   0.643  10.555  0.3496 -0.2064  2.1641
  326MOL0     H44007   1.855   0.783  10.661  0.5745 -0.5685  1.5417
  326MOL0     H44008   2.265   0.710  10.592 -0.4700 -0.5088 -0.8020
  326MOL0     H44009   1.838   1.103  10.859 -0.0970  0.5558  0.8752
  326MOL0     H44010   1.731   1.099  11.079 -0.6379  1.8734 -0.6437
  327MOL0     O44011   5.109   4.757   0.840 -0.2171 -0.4232  0.1396
  327MOL0     C44012   5.138   4.723   0.726 -0.3128 -0.1778 -0.2996
  327MOL0     O44013   5.061   4.727   0.626  0.6620 -0.4699  0.0545
  327MOL0     C44014   4.934   4.769   0.651  0.3113  0.4625 -0.2220
  327MOL0     C44015   4.840   4.688   0.708  0.5322 -0.8241 -0.6583
  327MOL0     C44016   4.712   4.737   0.727  0.5821  0.5624 -0.1781
  327MOL0     C44017   4.672   4.867   0.694  0.0280  0.0643  0.9625
  327MOL0     O44018   4.531   4.899   0.708  0.0747 -0.4594 -0.8842
  327MOL0     C44019   4.490   5.038   0.696 -0.4111 -0.2732 -1.1252
  327MOL0     C44020   4.341   5.054   0.700  0.4978  0.4592 -0.2136
  327MOL0     C44021   4.288   5.039   0.848  0.1204  0.1458 -0.4912
  327MOL0     C44022   4.135   5.070   0.844 -0.1480  1.1190 -0.7870
  327MOL0     C44023   4.086   5.065   0.990  0.2778  0.0660  0.1110
  327MOL0     C44024   3.935   5.087   0.996  0.5575  0.5718  1.1713
  327MOL0     C44025   3.910   5.140   1.140 -0.5427  1.1139 -1.4056
  327MOL0     C44026   3.760   5.178   1.170 -0.2075  0.0486  0.7539
  327MOL0     N44027   3.681   5.057   1.185  0.0003 -0.0621 -0.2799
  327MOL0     C44028   3.590   5.032   1.288  0.0610  0.2931  0.0397
  327MOL0     C44029   3.511   4.933   1.253  0.4546  0.9358 -0.1593
  327MOL0     C44030   3.401   4.867   1.330  0.3167  0.1642  0.0467
  327MOL0     C44031   3.279   4.832   1.245 -0.5646  1.1912  0.5625
  327MOL0     C44032   3.188   4.732   1.328 -0.1093  0.0521 -1.0197
  327MOL0     C44033   3.120   4.626   1.240 -1.0732 -0.2872  0.9643
  327MOL0     O44034   3.042   4.712   1.143 -0.0875  0.9373  0.3852
  327MOL0     C44035   2.933   4.655   1.073 -0.5571 -0.7569 -0.1930
  327MOL0     C44036   2.851   4.747   1.003 -1.1626  0.6423 -0.7691
  327MOL0     C44037   2.726   4.715   0.949 -0.3642  0.2223 -0.4473
  327MOL0     C44038   2.640   4.820   0.886  0.1205 -1.1027  0.0624
  327MOL0     C44039   2.689   4.580   0.959 -1.3430 -0.4507  0.3809
  327MOL0     C44040   2.559   4.515   0.908  0.1382 -0.5909 -0.1420
  327MOL0     O44041   2.477   4.587   0.827 -0.6184 -0.7074  0.0401
  327MOL0     C44042   2.357   4.527   0.799  0.5390  0.2228  0.4523
  327MOL0     C44043   2.321   4.477   0.670 -1.2869  0.9569 -0.4079
  327MOL0     C44044   2.205   4.408   0.643 -0.6116  0.3297 -0.5552
  327MOL0     C44045   2.112   4.404   0.742 -0.0965  0.4952  0.0721
  327MOL0     O44046   2.005   4.321   0.733  0.1504 -0.6405 -0.0241
  327MOL0     C44047   1.919   4.342   0.625  0.8828 -0.2464  0.3265
  327MOL0     C44048   1.843   4.477   0.636  0.2758 -0.2989  0.0483
  327MOL0     C44049   1.779   4.507   0.490 -0.4733  0.1520 -0.1320
  327MOL0     C44050   1.653   4.594   0.489 -0.0357 -0.1466 -0.3720
  327MOL0     C44051   1.611   4.656   0.354 -1.6969  0.2418 -1.0538
  327MOL0     C44052   1.575   4.546   0.242  0.0684 -0.5163  0.3546
  327MOL0     C44053   1.437   4.502   0.269  0.5875 -1.2470 -0.0173
  327MOL0     C44054   1.370   4.411   0.173  0.2134 -0.7912  0.0273
  327MOL0    Cl44055   1.348   4.490   0.016  0.0591  0.2150  0.0874
  327MOL0     C44056   2.127   4.462   0.861 -0.6062  0.3808 -0.5340
  327MOL0     C44057   2.251   4.529   0.890  0.2460 -0.5824  0.2937
  327MOL0     O44058   2.535   4.402   0.946  0.1053  0.1005  0.1184
  327MOL0     C44059   2.772   4.493   1.031 -0.0173 -0.2516 -0.8477
  327MOL0     C44060   2.890   4.529   1.091 -0.3869  0.2780 -0.2024
  327MOL0     N44061   3.547   4.899   1.119 -0.2334  0.2128 -0.7336
  327MOL0     N44062   3.642   4.979   1.082 -0.3473 -0.2163  0.3186
  327MOL0     C44063   4.772   4.953   0.644 -0.8994 -1.2618  0.4000
  327MOL0     C44064   4.902   4.902   0.622  0.1476  0.1937 -0.5325
  327MOL0     C44065   5.283   4.680   0.715  1.0697  0.2341  0.9833
  327MOL0     C44066   5.345   4.677   0.588  0.1347 -0.1856  0.4494
  327MOL0     C44067   5.479   4.642   0.575  0.4135  0.3518  0.2736
  327MOL0     C44068   5.566   4.622   0.688 -0.2610 -0.3531 -0.2382
  327MOL0     O44069   5.705   4.602   0.673 -0.8519 -0.7484 -0.7092
  327MOL0     C44070   5.785   4.583   0.794 -0.8857 -0.7294  0.1273
  327MOL0     C44071   5.929   4.564   0.734 -0.8302 -0.0399 -0.5978
  327MOL0     C44072   5.951   4.444   0.640  0.2592 -0.0300 -0.7080
  327MOL0     C44073   5.964   4.311   0.713  0.0725 -0.5966  0.0595
  327MOL0     C44074   5.827   4.255   0.734 -0.2434 -0.8013  0.3914
  327MOL0     C44075   5.719   4.202   0.758  0.3063  0.1821 -0.1365
  327MOL0     C44076   5.507   4.628   0.812  1.1924  0.0821 -0.5437
  327MOL0     C44077   5.368   4.669   0.821 -0.8030  0.3374  0.0984
  327MOL0     H44078   4.864   4.583   0.723 -0.6238 -1.1231 -0.7858
  327MOL0     H44079   4.639   4.673   0.775 -0.5175  2.5317  0.9469
  327MOL0     H44080   4.532   5.110   0.766  0.4262  1.6624 -3.4849
  327MOL0     H44081   4.521   5.081   0.600  0.6773 -0.7861 -1.0179
  327MOL0     H44082   4.320   5.147   0.647 -0.9288  1.0741  1.3403
  327MOL0     H44083   4.295   4.977   0.637  1.0836 -1.0132  1.1133
  327MOL0     H44084   4.305   4.936   0.879  0.5376  0.0414 -1.0592
  327MOL0     H44085   4.348   5.104   0.914  1.0653 -3.1278  2.1298
  327MOL0     H44086   4.126   5.171   0.802  3.2481  2.4755  1.3307
  327MOL0     H44087   4.089   4.990   0.784  1.6798  0.8047 -1.8520
  327MOL0     H44088   4.107   4.966   1.032 -4.1511 -2.5596 -2.9856
  327MOL0     H44089   4.141   5.144   1.042  0.5357 -0.3754  0.5244
  327MOL0     H44090   3.915   5.159   0.917  0.7972 -0.6383 -0.0182
  327MOL0     H44091   3.872   5.000   0.976 -0.6959  1.4850  0.9850
  327MOL0     H44092   3.946   5.075   1.222  1.1884 -0.2887 -3.1814
  327MOL0     H44093   3.976   5.226   1.156 -1.6061  1.6434  0.5569
  327MOL0     H44094   3.745   5.229   1.074  2.8925  1.6380  0.9894
  327MOL0     H44095   3.753   5.249   1.252 -1.4335  0.7347  0.0879
  327MOL0     H44096   3.571   5.097   1.372 -1.5116  0.1499 -0.1774
  327MOL0     H44097   3.456   4.786   1.379  2.2746  1.3597 -0.0654
  327MOL0     H44098   3.364   4.939   1.403 -1.7735 -0.2507 -0.5386
  327MOL0     H44099   3.314   4.786   1.153  0.9530  0.3457  1.5168
  327MOL0     H44100   3.214   4.918   1.224 -2.3029  0.6080  3.0307
  327MOL0     H44101   3.113   4.793   1.380  1.5145  0.4958  0.8897
  327MOL0     H44102   3.242   4.690   1.413 -2.5296  2.0939  1.7574
  327MOL0     H44103   3.060   4.563   1.306 -0.6186 -2.6388 -0.7171
  327MOL0     H44104   3.192   4.567   1.183 -0.6451  0.8439  0.2939
  327MOL0     H44105   2.895   4.846   1.004  0.2901  0.0357 -0.7572
  327MOL0     H44106   2.557   4.852   0.951 -0.6368  2.0995 -2.2094
  327MOL0     H44107   2.700   4.911   0.873 -0.6020 -0.8658 -2.0237
  327MOL0     H44108   2.600   4.797   0.787  0.3659  2.1755 -0.9249
  327MOL0     H44109   2.402   4.482   0.598 -0.9997  3.2002 -0.0230
  327MOL0     H44110   2.173   4.357   0.553 -3.9840 -0.4181  0.9105
  327MOL0     H44111   1.963   4.338   0.524 -0.0103 -0.6825 -0.0542
  327MOL0     H44112   1.842   4.265   0.619  1.0574 -0.3255 -1.7769
  327MOL0     H44113   1.757   4.475   0.704  0.0494 -0.2675 -0.2359
  327MOL0     H44114   1.902   4.564   0.667 -0.4546  0.4623 -0.6432
  327MOL0     H44115   1.753   4.414   0.438  1.7765 -1.1029  0.8543
  327MOL0     H44116   1.857   4.551   0.426 -0.6607 -0.1229 -0.5552
  327MOL0     H44117   1.575   4.532   0.535 -0.9464  0.2929 -1.2782
  327MOL0     H44118   1.674   4.673   0.562 -0.3319  0.9463 -1.4254
  327MOL0     H44119   1.695   4.721   0.331 -0.1797  0.6311  4.2310
  327MOL0     H44120   1.520   4.714   0.373 -1.4908  1.1522 -2.6954
  327MOL0     H44121   1.575   4.600   0.147 -1.0779  0.3441  0.8179
  327MOL0     H44122   1.650   4.466   0.237  1.6462  0.9579 -0.4808
  327MOL0     H44123   1.369   4.586   0.286  0.2728 -1.5574  0.2638
  327MOL0     H44124   1.439   4.448   0.364 -0.5765  0.1204  0.8179
  327MOL0     H44125   1.267   4.386   0.200 -0.4657  1.2863 -0.4422
  327MOL0     H44126   1.426   4.318   0.156  1.0095 -0.0344 -1.7181
  327MOL0     H44127   2.057   4.455   0.944  0.8001 -0.0404  0.6535
  327MOL0     H44128   2.264   4.591   0.979 -2.8533  1.2531 -0.3492
  327MOL0     H44129   2.733   4.393   1.050 -1.1946  0.7839  3.3695
  327MOL0     H44130   2.956   4.459   1.141  0.2452 -1.6355 -3.5053
  327MOL0     H44131   4.741   5.048   0.602 -0.8631 -1.1327  0.6662
  327MOL0     H44132   4.984   4.960   0.583  0.4138  2.7210  3.2475
  327MOL0     H44133   5.275   4.701   0.508  0.2555  0.0570  0.4155
  327MOL0     H44134   5.519   4.640   0.474  0.7719 -0.4123  0.4222
  327MOL0     H44135   5.787   4.666   0.865  1.5190 -1.1686  0.6618
  327MOL0     H44136   5.758   4.491   0.847  0.9921 -1.2028  0.3300
  327MOL0     H44137   5.998   4.540   0.816  0.1927 -2.6454 -2.0674
  327MOL0     H44138   5.957   4.656   0.682  2.4782 -1.8336 -2.3573
  327MOL0     H44139   6.051   4.455   0.598  0.6442  1.7499  0.5341
  327MOL0     H44140   5.875   4.446   0.561 -1.1943  1.0625  0.6432
  327MOL0     H44141   6.008   4.329   0.811 -0.3870  0.8418  0.0208
  327MOL0     H44142   6.029   4.241   0.659  3.9588  0.9591  2.3039
  327MOL0     H44143   5.621   4.174   0.791 -0.1214  0.2786 -1.2699
  327MOL0     H44144   5.556   4.601   0.905 -1.8901 -0.7052  0.9893
  327MOL0     H44145   5.320   4.693   0.915 -1.1688  1.4962 -0.3576
  328MOL0     O44146   5.122   3.466   6.069  0.6205  0.4410 -0.3791
  328MOL0     C44147   5.240   3.463   6.111  1.1922 -0.4489  0.7110
  328MOL0     O44148   5.285   3.385   6.210 -0.0327  0.0551 -0.4643
  328MOL0     C44149   5.203   3.330   6.302  0.3125 -0.5129 -0.0624
  328MOL0     C44150   5.108   3.408   6.381 -0.4749 -0.6859  0.7103
  328MOL0     C44151   5.036   3.346   6.478  0.3159  0.1643  0.5597
  328MOL0     C44152   5.050   3.215   6.509  0.6517 -0.0289 -0.4419
  328MOL0     O44153   4.980   3.154   6.615 -0.2085  0.2220  0.2133
  328MOL0     C44154   4.939   3.234   6.723  0.4023 -0.8314 -0.0616
  328MOL0     C44155   4.880   3.138   6.825  0.3109  0.1180 -0.8635
  328MOL0     C44156   4.746   3.069   6.798  1.3251 -0.6480 -0.2072
  328MOL0     C44157   4.632   3.161   6.795 -0.4713 -0.2389  0.1778
  328MOL0     C44158   4.502   3.096   6.825  0.1373  1.0427  0.3271
  328MOL0     C44159   4.386   3.197   6.790 -0.1902  0.1089 -0.1597
  328MOL0     C44160   4.375   3.221   6.632 -0.2767  0.1770 -0.5252
  328MOL0     C44161   4.259   3.313   6.593  0.8755  0.0101  0.3652
  328MOL0     N44162   4.137   3.264   6.645 -0.3589  0.2310 -0.3160
  328MOL0     C44163   4.067   3.153   6.601 -1.4747  0.2369 -0.2545
  328MOL0     C44164   3.954   3.164   6.664  0.7746  0.1109  0.1002
  328MOL0     C44165   3.834   3.071   6.652 -0.5514 -0.0988  0.2060
  328MOL0     C44166   3.714   3.147   6.600 -0.3920  0.1513 -0.2977
  328MOL0     C44167   3.604   3.161   6.710  0.0210 -0.3963  0.6995
  328MOL0     C44168   3.503   3.259   6.641 -0.7158 -0.0493 -0.1031
  328MOL0     O44169   3.391   3.277   6.731 -0.2850 -0.0701 -0.3426
  328MOL0     C44170   3.292   3.182   6.742  0.2838  0.2787  0.3839
  328MOL0     C44171   3.190   3.207   6.830 -0.0471  0.0428 -0.6689
  328MOL0     C44172   3.072   3.137   6.838  0.5555  0.2921 -0.3224
  328MOL0     C44173   2.971   3.184   6.941  0.6053 -0.2199 -1.1617
  328MOL0     C44174   3.051   3.037   6.744 -0.7539 -0.5706 -0.5680
  328MOL0     C44175   2.921   2.953   6.736  0.4746 -0.7972 -0.6776
  328MOL0     O44176   2.825   2.990   6.825  0.0530  0.1187  0.0804
  328MOL0     C44177   2.700   2.930   6.829 -0.2866  0.6628 -0.6392
  328MOL0     C44178   2.626   2.895   6.721 -0.3079  0.3217 -0.1655
  328MOL0     C44179   2.499   2.851   6.737  0.2345 -0.4636  0.6908
  328MOL0     C44180   2.438   2.823   6.853  0.2679 -0.0208 -0.1369
  328MOL0     O44181   2.313   2.763   6.870 -0.9380  0.5668 -0.0778
  328MOL0     C44182   2.264   2.676   6.765  0.3998 -0.0579 -0.0083
  328MOL0     C44183   2.133   2.611   6.825  0.3613 -0.7349 -0.4263
  328MOL0     C44184   2.157   2.475   6.891  0.5215  0.4137  0.2610
  328MOL0     C44185   2.166   2.363   6.784  0.4145 -0.0031  0.2804
  328MOL0     C44186   2.207   2.233   6.856  0.0702  0.1937 -0.4469
  328MOL0     C44187   2.108   2.182   6.977  0.1426 -0.1949 -0.2052
  328MOL0     C44188   2.143   2.221   7.121  0.7971  0.3363  0.7553
  328MOL0     C44189   2.048   2.149   7.208  0.5994 -0.0946 -0.9118
  328MOL0    Cl44190   1.887   2.244   7.215 -0.0008 -0.1713  0.2163
  328MOL0     C44191   2.512   2.861   6.965 -1.6450  0.5408 -0.7255
  328MOL0     C44192   2.643   2.914   6.957  0.1999 -0.0103  0.2771
  328MOL0     O44193   2.918   2.853   6.666  0.4920  0.6184  0.2324
  328MOL0     C44194   3.150   3.008   6.643 -0.4325  0.6238  0.3398
  328MOL0     C44195   3.272   3.081   6.645  0.0039  0.2642 -0.3372
  328MOL0     N44196   3.947   3.269   6.754 -0.5688 -0.3407 -0.0663
  328MOL0     N44197   4.067   3.326   6.745 -0.1685  0.4315  0.0074
  328MOL0     C44198   5.144   3.142   6.436  0.3844 -0.0008 -0.3362
  328MOL0     C44199   5.227   3.199   6.339 -0.2400 -0.1723 -0.4965
  328MOL0     C44200   5.347   3.548   6.047 -0.4718  0.3398 -0.4059
  328MOL0     C44201   5.479   3.568   6.100  0.1389 -0.6377  0.5162
  328MOL0     C44202   5.589   3.630   6.043 -0.1335 -0.4225 -0.1542
  328MOL0     C44203   5.566   3.687   5.916  0.5124 -0.4864 -1.1628
  328MOL0     O44204   5.659   3.752   5.846 -0.0558  0.5067  0.2270
  328MOL0     C44205   5.793   3.777   5.906 -0.5304  0.0815  0.3129
  328MOL0     C44206   5.800   3.904   5.997  0.0270 -0.8194 -0.1828
  328MOL0     C44207   5.781   4.035   5.924 -0.2397  0.0582  0.1174
  328MOL0     C44208   5.788   4.148   6.029  0.1529 -1.1074  0.9231
  328MOL0     C44209   5.782   4.284   5.961 -0.2559  0.3309 -0.7973
  328MOL0     C44210   5.771   4.395   5.908  0.3096  0.7716 -0.2663
  328MOL0     C44211   5.435   3.675   5.862 -0.0141  0.7198  0.0615
  328MOL0     C44212   5.331   3.609   5.915  0.6358 -0.3871 -0.3541
  328MOL0     H44213   5.094   3.512   6.354 -1.1721  0.1304  3.7945
  328MOL0     H44214   4.972   3.406   6.542  0.0135 -0.8991  1.2889
  328MOL0     H44215   5.015   3.293   6.775 -2.3957  3.4919 -0.3742
  328MOL0     H44216   4.859   3.305   6.701  0.6535 -0.5683 -0.1228
  328MOL0     H44217   4.952   3.057   6.840  0.3782 -0.2422 -2.8841
  328MOL0     H44218   4.885   3.194   6.920  1.0693  0.2921 -0.9942
  328MOL0     H44219   4.755   3.013   6.704  1.8120 -2.6289  0.9551
  328MOL0     H44220   4.717   2.990   6.868 -0.5534 -1.9028 -2.2580
  328MOL0     H44221   4.645   3.241   6.868 -1.8218  1.2544 -1.1150
  328MOL0     H44222   4.630   3.210   6.697 -0.2579 -2.2773 -0.9159
  328MOL0     H44223   4.488   3.002   6.770  0.5758  0.3979  1.2773
  328MOL0     H44224   4.491   3.058   6.927 -0.5004 -1.1442 -0.4975
  328MOL0     H44225   4.287   3.164   6.824 -0.0772  0.7732  0.8368
  328MOL0     H44226   4.402   3.292   6.841 -0.1343 -0.3408  0.6828
  328MOL0     H44227   4.463   3.275   6.595 -1.4406  0.1275 -3.6382
  328MOL0     H44228   4.364   3.120   6.591  1.4845 -1.3516  2.3949
  328MOL0     H44229   4.243   3.328   6.486  1.2072  1.6905  0.5235
  328MOL0     H44230   4.279   3.416   6.625 -2.1912  0.5210  0.9808
  328MOL0     H44231   4.101   3.073   6.536  0.9119  0.5830  0.4943
  328MOL0     H44232   3.859   2.991   6.582  2.7794  1.3533 -0.4461
  328MOL0     H44233   3.817   3.029   6.752  1.1773 -0.5958  0.3126
  328MOL0     H44234   3.670   3.101   6.511  1.6881 -3.5352  0.3757
  328MOL0     H44235   3.755   3.243   6.570  2.1469 -1.4130 -2.2285
  328MOL0     H44236   3.631   3.208   6.805 -0.3866  1.0352  0.1408
  328MOL0     H44237   3.548   3.070   6.729  0.2074 -0.7128 -0.2150
  328MOL0     H44238   3.468   3.231   6.541  1.3984 -1.0581 -0.6191
  328MOL0     H44239   3.556   3.353   6.626 -0.4021 -0.5325 -2.3620
  328MOL0     H44240   3.197   3.295   6.894 -1.8019  1.6326 -2.5245
  328MOL0     H44241   2.952   3.114   7.023 -1.5454 -0.6168 -1.9352
  328MOL0     H44242   3.013   3.273   6.988 -0.0562  1.0855 -2.9398
  328MOL0     H44243   2.876   3.216   6.897  1.0097  3.1347  0.1144
  328MOL0     H44244   2.681   2.909   6.628 -0.5501  1.6318 -0.1322
  328MOL0     H44245   2.438   2.826   6.651  2.8593 -0.8924 -1.1646
  328MOL0     H44246   2.247   2.726   6.669  0.2442  0.1040  0.1026
  328MOL0     H44247   2.342   2.600   6.752 -0.3901 -0.6599 -1.4553
  328MOL0     H44248   2.102   2.691   6.893  0.6433  1.5086 -2.7747
  328MOL0     H44249   2.053   2.606   6.751 -0.7724  0.3950  0.6841
  328MOL0     H44250   2.065   2.454   6.946 -0.4386 -0.7008 -1.6527
  328MOL0     H44251   2.246   2.475   6.954  2.6223 -3.8057 -2.2223
  328MOL0     H44252   2.064   2.352   6.746  1.0890 -4.2478 -0.7268
  328MOL0     H44253   2.226   2.392   6.697 -0.3366 -1.8912 -0.9116
  328MOL0     H44254   2.313   2.230   6.883  0.0023 -0.9311 -0.2308
  328MOL0     H44255   2.208   2.154   6.780 -3.2967 -2.6168  2.0632
  328MOL0     H44256   2.008   2.221   6.954  0.0552  0.1380  0.6893
  328MOL0     H44257   2.098   2.073   6.975  0.9303 -0.2540 -1.0898
  328MOL0     H44258   2.125   2.328   7.129 -2.6310 -0.2289  2.1400
  328MOL0     H44259   2.244   2.201   7.158  1.3248  0.2089 -0.6847
  328MOL0     H44260   2.089   2.151   7.309  1.4727  1.0333 -1.2698
  328MOL0     H44261   2.037   2.043   7.183  0.3096 -0.1827 -0.4157
  328MOL0     H44262   2.481   2.855   7.068 -1.4745 -1.7783 -0.7384
  328MOL0     H44263   2.702   2.943   7.044  1.4321  0.7721 -0.7735
  328MOL0     H44264   3.138   2.930   6.569 -3.9180  1.5013 -0.2131
  328MOL0     H44265   3.343   3.054   6.568 -0.3457 -0.3578 -0.4513
  328MOL0     H44266   5.165   3.037   6.449  1.9226 -0.0455 -2.6007
  328MOL0     H44267   5.286   3.128   6.283 -1.7531  0.7694 -3.4781
  328MOL0     H44268   5.490   3.541   6.205  3.8880 -1.9160 -0.0563
  328MOL0     H44269   5.680   3.643   6.101  0.6422 -0.5526 -1.3071
  328MOL0     H44270   5.832   3.687   5.954  1.6888  0.6157 -0.3658
  328MOL0     H44271   5.870   3.781   5.829 -0.4437  0.2092  0.4068
  328MOL0     H44272   5.899   3.906   6.042 -0.9155  3.6023  2.3105
  328MOL0     H44273   5.734   3.919   6.084 -0.2525  1.2282 -0.7006
  328MOL0     H44274   5.685   4.032   5.872 -0.7202 -0.3868  1.0244
  328MOL0     H44275   5.859   4.054   5.849  0.2176  1.0393  0.8307
  328MOL0     H44276   5.885   4.143   6.080  0.0123 -2.1915  1.0999
  328MOL0     H44277   5.703   4.151   6.099  0.4271  0.9469  1.2494
  328MOL0     H44278   5.766   4.485   5.850  1.9607 -0.1068 -1.8964
  328MOL0     H44279   5.415   3.726   5.769 -2.5402  0.5864  0.4535
  328MOL0     H44280   5.241   3.592   5.857  1.0611 -3.8376 -0.2560
  329MOL0     O44281   4.006   2.115   7.225 -0.6365  0.1462 -0.4984
  329MOL0     C44282   4.032   2.227   7.182  0.0772 -0.5609 -0.2654
  329MOL0     O44283   3.943   2.322   7.169  0.2922 -0.2171 -0.4469
  329MOL0     C44284   3.810   2.293   7.189  0.5420 -0.6851  0.0794
  329MOL0     C44285   3.740   2.354   7.295  0.3767 -0.2161  0.0049
  329MOL0     C44286   3.602   2.327   7.309  0.1160  0.4495 -0.1043
  329MOL0     C44287   3.531   2.249   7.231 -0.5117 -0.2669 -0.3889
  329MOL0     O44288   3.397   2.239   7.259  0.5558 -0.6671  0.6971
  329MOL0     C44289   3.315   2.208   7.144 -0.3113  0.3971  0.7836
  329MOL0     C44290   3.172   2.250   7.164  0.2887 -0.4060  0.2809
  329MOL0     C44291   3.099   2.157   7.264 -0.4031  0.2637  0.4205
  329MOL0     C44292   3.001   2.067   7.187 -0.2561  0.4086 -0.0123
  329MOL0     C44293   2.937   1.968   7.282 -0.3682  0.1655 -0.1324
  329MOL0     C44294   2.876   2.023   7.416  0.3383 -0.2450  0.6031
  329MOL0     C44295   2.787   2.144   7.388  0.6393  0.1280  0.4392
  329MOL0     C44296   2.654   2.103   7.318 -0.0424 -0.2956 -0.5714
  329MOL0     N44297   2.589   1.979   7.359 -0.1235 -0.6543 -0.3155
  329MOL0     C44298   2.515   1.950   7.473  0.5245 -0.2092  0.0274
  329MOL0     C44299   2.495   1.818   7.480  0.1761 -0.4462  0.2118
  329MOL0     C44300   2.416   1.753   7.592  0.2046  0.6240  1.0047
  329MOL0     C44301   2.264   1.795   7.592  1.1484 -0.1924  0.4585
  329MOL0     C44302   2.193   1.741   7.464 -0.6635 -0.5610 -0.5717
  329MOL0     C44303   2.057   1.793   7.433 -0.8089 -0.1652  0.1924
  329MOL0     O44304   2.022   1.756   7.299  0.1637 -0.5917  0.2443
  329MOL0     C44305   1.894   1.780   7.258  0.4243 -0.5382  0.0425
  329MOL0     C44306   1.800   1.863   7.328 -0.4181 -1.1934  0.4086
  329MOL0     C44307   1.672   1.878   7.280  0.0443 -0.1746  0.0757
  329MOL0     C44308   1.587   1.967   7.363 -0.2927  0.0724 -0.1130
  329MOL0     C44309   1.628   1.814   7.156  0.0818  0.0495 -0.7942
  329MOL0     C44310   1.486   1.816   7.102  0.2131  0.1993 -0.2237
  329MOL0     O44311   1.446   1.704   7.041 -0.0582  0.7801 -0.5701
  329MOL0     C44312   1.311   1.686   7.016  0.0080 -0.3909 -0.4293
  329MOL0     C44313   1.223   1.692   7.118  0.3421  1.1047 -0.1719
  329MOL0     C44314   1.090   1.671   7.102  0.5124  0.1573 -0.6090
  329MOL0     C44315   1.030   1.649   6.974  0.8402  0.0931 -0.1469
  329MOL0     O44316   0.893   1.623   6.963  0.2688  0.3006 -0.0626
  329MOL0     C44317   0.796   1.701   7.041 -0.0294  0.0908  0.1077
  329MOL0     C44318   0.651   1.657   7.008  0.0508  0.6388 -0.4119
  329MOL0     C44319   0.623   1.506   6.998  0.3330 -0.5503 -0.5108
  329MOL0     C44320   0.624   1.444   7.141 -1.0414 -0.1509 -0.1138
  329MOL0     C44321   0.655   1.295   7.137  0.0875  0.7305 -0.8184
  329MOL0     C44322   0.666   1.224   7.268 -0.4501 -0.2161 -0.2222
  329MOL0     C44323   0.700   1.076   7.249  0.4547  0.1485  0.2025
  329MOL0     C44324   0.799   1.018   7.354 -0.6774 -0.6303 -0.5315
  329MOL0    Cl44325   0.946   1.123   7.356 -0.0593  0.0991  0.3113
  329MOL0     C44326   1.118   1.649   6.865  0.2213 -0.2664 -0.5684
  329MOL0     C44327   1.258   1.670   6.887  0.9746 -0.0306 -0.6325
  329MOL0     O44328   1.417   1.911   7.139  0.3517  0.4714  0.3583
  329MOL0     C44329   1.723   1.734   7.091 -0.2809 -0.6037 -0.1316
  329MOL0     C44330   1.847   1.712   7.142 -0.3421 -0.6365 -0.4345
  329MOL0     N44331   2.540   1.762   7.366  0.1243 -0.2752  0.1393
  329MOL0     N44332   2.601   1.858   7.296 -0.4838 -0.4732 -0.4567
  329MOL0     C44333   3.600   2.189   7.116  0.7090  0.4600  0.2706
  329MOL0     C44334   3.741   2.219   7.094 -0.1164  0.1919  0.0330
  329MOL0     C44335   4.172   2.253   7.162  0.0335  0.0119 -0.3332
  329MOL0     C44336   4.217   2.373   7.123  0.2036 -0.5372  0.4711
  329MOL0     C44337   4.351   2.398   7.109 -0.1146 -0.5629  0.0107
  329MOL0     C44338   4.439   2.295   7.115 -0.4456  0.4746 -0.0339
  329MOL0     O44339   4.569   2.334   7.083  0.8556  0.3222 -0.4894
  329MOL0     C44340   4.676   2.243   7.095 -0.7285  0.0782  0.5414
  329MOL0     C44341   4.805   2.326   7.085 -0.2136 -0.3970  0.3386
  329MOL0     C44342   4.927   2.239   7.067  0.3588 -0.4940 -0.2005
  329MOL0     C44343   4.942   2.174   6.924 -0.4848  0.0995  0.0775
  329MOL0     C44344   5.077   2.113   6.920 -0.2809  0.8204  0.3598
  329MOL0     C44345   5.186   2.055   6.910 -1.0349  0.7045  0.5170
  329MOL0     C44346   4.402   2.164   7.158  0.7951  0.2489 -0.3970
  329MOL0     C44347   4.263   2.146   7.176  0.0213  0.1181 -0.3847
  329MOL0     H44348   3.795   2.402   7.376 -1.4033  1.5348  0.2550
  329MOL0     H44349   3.551   2.365   7.397 -3.5964 -2.2735 -0.8270
  329MOL0     H44350   3.344   2.259   7.052 -0.0157 -2.7078 -0.9904
  329MOL0     H44351   3.318   2.104   7.111  2.0644  0.4667  0.6241
  329MOL0     H44352   3.163   2.351   7.204  0.6512 -0.5318  0.6829
  329MOL0     H44353   3.117   2.259   7.069  0.1943 -2.4137  0.1063
  329MOL0     H44354   3.169   2.087   7.312  1.8850  0.2310 -2.6726
  329MOL0     H44355   3.062   2.217   7.348  2.5188  1.7757  0.7647
  329MOL0     H44356   2.917   2.122   7.143  0.0766  1.0926  0.1987
  329MOL0     H44357   3.046   2.018   7.100 -0.1046  1.0766 -0.3121
  329MOL0     H44358   2.861   1.917   7.222  1.2970 -0.5273 -1.7168
  329MOL0     H44359   3.016   1.900   7.315  1.0542  2.1074  0.6995
  329MOL0     H44360   2.828   1.933   7.456  0.8669 -1.6148 -1.6587
  329MOL0     H44361   2.955   2.052   7.486 -0.1561  2.6455  0.1230
  329MOL0     H44362   2.782   2.185   7.489  2.0812 -0.3696  0.7392
  329MOL0     H44363   2.841   2.216   7.327  0.6603  0.5252  0.9235
  329MOL0     H44364   2.660   2.124   7.211 -0.8267  1.9576 -0.2228
  329MOL0     H44365   2.585   2.179   7.358 -0.4057 -1.0393  0.2741
  329MOL0     H44366   2.479   2.018   7.549  0.8648 -1.9528  1.8409
  329MOL0     H44367   2.422   1.645   7.578  2.5229  0.8472 -0.1902
  329MOL0     H44368   2.462   1.781   7.688  1.3131  2.7638 -0.0945
  329MOL0     H44369   2.246   1.903   7.591  3.8430  0.3321 -0.1475
  329MOL0     H44370   2.215   1.754   7.681 -1.5884 -0.3327 -1.0112
  329MOL0     H44371   2.193   1.632   7.472  0.5018 -0.5270 -0.0629
  329MOL0     H44372   2.263   1.766   7.384  0.9498  1.3522  1.3333
  329MOL0     H44373   2.051   1.902   7.441 -1.8504 -0.3387  2.5673
  329MOL0     H44374   1.989   1.751   7.508 -1.1773 -3.2800 -1.7320
  329MOL0     H44375   1.849   1.910   7.412  0.7648 -2.1686  0.2951
  329MOL0     H44376   1.531   2.035   7.298 -0.3392 -1.1092 -1.3434
  329MOL0     H44377   1.508   1.920   7.423 -1.6862  3.4462  0.9475
  329MOL0     H44378   1.652   2.025   7.428 -0.5422  0.9739 -0.6467
  329MOL0     H44379   1.263   1.695   7.219  1.3800  1.1847 -0.5676
  329MOL0     H44380   1.028   1.673   7.191 -0.3997 -0.9646 -1.2067
  329MOL0     H44381   0.823   1.707   7.147  0.6946  1.0910 -0.1224
  329MOL0     H44382   0.806   1.806   7.013  1.1138  0.8922  3.0862
  329MOL0     H44383   0.578   1.707   7.072 -0.8499  0.4551 -1.2731
  329MOL0     H44384   0.638   1.698   6.908 -0.9491  1.5104  0.0625
  329MOL0     H44385   0.692   1.446   6.938 -0.2705 -1.3078 -0.4627
  329MOL0     H44386   0.524   1.493   6.954  0.3664  1.1521 -1.1514
  329MOL0     H44387   0.710   1.488   7.193 -0.5701  1.2692 -1.9797
  329MOL0     H44388   0.534   1.457   7.202 -0.1068 -1.2021  1.5667
  329MOL0     H44389   0.753   1.286   7.090  0.1563  0.6579 -0.6619
  329MOL0     H44390   0.579   1.244   7.077  2.7987 -2.9046 -1.4994
  329MOL0     H44391   0.741   1.281   7.324  2.8887 -4.3268  0.0222
  329MOL0     H44392   0.570   1.227   7.319  0.4116 -1.6419  1.6000
  329MOL0     H44393   0.727   1.054   7.145 -2.7617 -0.1909 -0.6758
  329MOL0     H44394   0.609   1.021   7.273  2.5876 -2.9584  1.9486
  329MOL0     H44395   0.831   0.919   7.322 -3.8234 -2.5894  1.8081
  329MOL0     H44396   0.758   1.008   7.456  1.5607 -0.0524  0.4776
  329MOL0     H44397   1.079   1.632   6.765 -1.6888  1.4636 -0.1879
  329MOL0     H44398   1.324   1.681   6.802  1.5783  3.6805  0.1319
  329MOL0     H44399   1.693   1.687   6.998 -1.0370  2.6759 -1.6969
  329MOL0     H44400   1.914   1.650   7.085  0.8401  0.0354  0.1905
  329MOL0     H44401   3.542   2.124   7.051  0.8580  0.0321  0.5584
  329MOL0     H44402   3.797   2.172   7.013 -1.1748 -0.4572 -0.3440
  329MOL0     H44403   4.144   2.449   7.097 -0.5004 -1.1917  0.5075
  329MOL0     H44404   4.395   2.496   7.093  2.8005 -1.3498  2.3721
  329MOL0     H44405   4.671   2.184   7.187 -0.1361  0.2287  0.6780
  329MOL0     H44406   4.673   2.170   7.014 -0.0244  0.1457  0.4458
  329MOL0     H44407   4.809   2.386   7.177 -2.4176  0.2417  0.0865
  329MOL0     H44408   4.810   2.409   7.014 -0.7287 -0.7258 -0.0897
  329MOL0     H44409   4.920   2.158   7.140  0.2332  1.1633  1.6837
  329MOL0     H44410   5.012   2.306   7.081  0.1150  0.0178 -1.1177
  329MOL0     H44411   4.934   2.246   6.842 -0.2949  0.5063  0.4126
  329MOL0     H44412   4.872   2.093   6.900  1.4744 -1.6899  0.1381
  329MOL0     H44413   5.285   2.017   6.902 -1.3758 -0.2420  0.7094
  329MOL0     H44414   4.465   2.076   7.163 -1.7869 -1.6159  2.7885
  329MOL0     H44415   4.231   2.047   7.208 -1.2281  0.8182  0.6085
  330MOL0     O44416   6.623   0.684   2.349  0.5087 -0.7595  0.5558
  330MOL0     C44417   6.672   0.611   2.429  1.1553  0.6038  0.2633
  330MOL0     O44418   6.604   0.524   2.516 -0.0339 -0.2597 -0.3739
  330MOL0     C44419   6.473   0.520   2.537 -0.1304 -0.4502  0.4599
  330MOL0     C44420   6.395   0.636   2.536  0.9890 -0.3923 -0.5206
  330MOL0     C44421   6.251   0.624   2.539 -0.0914 -0.8092 -0.5994
  330MOL0     C44422   6.194   0.498   2.559  0.0051 -0.4268  0.0085
  330MOL0     O44423   6.064   0.472   2.581  0.0719 -0.4251  0.6252
  330MOL0     C44424   5.977   0.557   2.507  0.2503 -0.3058  0.6209
  330MOL0     C44425   5.838   0.508   2.510 -0.1844 -0.3842  0.3748
  330MOL0     C44426   5.733   0.617   2.493  0.4212 -0.3152 -0.0907
  330MOL0     C44427   5.602   0.551   2.422  0.3624 -0.7985 -0.0619
  330MOL0     C44428   5.485   0.657   2.427 -1.0902 -0.1292  0.0811
  330MOL0     C44429   5.369   0.611   2.332 -0.4400  0.3787 -0.4132
  330MOL0     C44430   5.281   0.729   2.315  0.9065  0.7362  0.0430
  330MOL0     C44431   5.145   0.679   2.257  0.4161  0.0364 -0.7864
  330MOL0     N44432   5.034   0.771   2.278  0.3746  0.3196 -0.3656
  330MOL0     C44433   5.039   0.898   2.346 -0.3520 -0.2512 -0.6204
  330MOL0     C44434   4.918   0.956   2.323 -1.0772  0.6117  0.1928
  330MOL0     C44435   4.862   1.081   2.397  0.5105  0.2184  0.1311
  330MOL0     C44436   4.848   1.210   2.309  0.7219  0.4766  0.2535
  330MOL0     C44437   4.767   1.186   2.176  0.1662  0.0838 -0.1743
  330MOL0     C44438   4.628   1.139   2.201 -0.7029  0.5413 -0.3541
  330MOL0     O44439   4.561   1.227   2.292  0.1734 -0.0170 -0.7104
  330MOL0     C44440   4.423   1.226   2.298 -0.1065  0.0891 -0.2151
  330MOL0     C44441   4.346   1.121   2.241 -0.5366 -0.1546  0.6188
  330MOL0     C44442   4.203   1.140   2.222 -0.8152  0.8562 -0.0950
  330MOL0     C44443   4.132   1.042   2.130  0.7379  0.2777 -0.6328
  330MOL0     C44444   4.146   1.251   2.284  0.6208 -0.0353 -0.4972
  330MOL0     C44445   3.995   1.260   2.298 -0.5155 -0.1730 -0.2850
  330MOL0     O44446   3.937   1.390   2.320 -0.3346 -0.5404  0.2514
  330MOL0     C44447   3.810   1.392   2.372  0.1329 -0.6154 -0.2255
  330MOL0     C44448   3.786   1.402   2.511  0.0900 -0.7496  0.7423
  330MOL0     C44449   3.653   1.393   2.562  0.2214 -0.3675  0.4258
  330MOL0     C44450   3.547   1.366   2.477 -0.8170  0.2515  0.9922
  330MOL0     O44451   3.422   1.358   2.514 -0.1692 -0.4507 -0.1346
  330MOL0     C44452   3.383   1.415   2.646  0.0288 -0.5210 -0.3286
  330MOL0     C44453   3.233   1.389   2.668  0.3855 -0.0547  0.4657
  330MOL0     C44454   3.153   1.488   2.585 -0.0630  0.4302  0.3960
  330MOL0     C44455   3.001   1.459   2.617 -0.7722 -0.5390 -0.0344
  330MOL0     C44456   2.910   1.573   2.571  0.7208 -0.3315  0.1219
  330MOL0     C44457   2.870   1.563   2.417  0.9395 -0.2399  0.4425
  330MOL0     C44458   2.975   1.600   2.317 -0.1718 -0.8947  0.7302
  330MOL0     C44459   2.918   1.588   2.172 -0.7973  0.2242 -0.4842
  330MOL0    Cl44460   2.762   1.680   2.153  0.0121  0.0736 -0.3317
  330MOL0     C44461   3.576   1.355   2.340  0.5581 -0.3506 -0.7736
  330MOL0     C44462   3.705   1.373   2.288  0.3550 -0.1182 -0.0660
  330MOL0     O44463   3.931   1.159   2.317  0.0385  0.5211 -0.1026
  330MOL0     C44464   4.224   1.355   2.341 -0.2248 -0.4097 -0.5430
  330MOL0     C44465   4.361   1.341   2.342  0.0585 -0.2466 -0.3445
  330MOL0     N44466   4.842   0.872   2.239  0.5914  0.1793  0.5087
  330MOL0     N44467   4.913   0.761   2.220 -0.0878  0.1933 -0.9310
  330MOL0     C44468   6.279   0.388   2.577  0.6656  0.3221  0.0235
  330MOL0     C44469   6.414   0.398   2.566 -0.4852  0.2984 -0.2936
  330MOL0     C44470   6.813   0.602   2.417 -0.3106 -0.5238 -0.7685
  330MOL0     C44471   6.890   0.699   2.348 -0.9572 -0.1221 -0.4185
  330MOL0     C44472   7.035   0.682   2.334  0.5880  0.4839 -0.7723
  330MOL0     C44473   7.102   0.584   2.407 -0.8064  0.4121 -0.0144
  330MOL0     O44474   7.246   0.590   2.401  0.0137  0.1356  0.2225
  330MOL0     C44475   7.314   0.471   2.452 -0.0494  0.0278 -0.4414
  330MOL0     C44476   7.453   0.477   2.393 -0.2701  0.2989  0.0102
  330MOL0     C44477   7.533   0.607   2.423 -0.2003  0.0443 -0.1510
  330MOL0     C44478   7.669   0.617   2.366 -0.0017  0.5977  0.1132
  330MOL0     C44479   7.661   0.648   2.222  1.4484 -0.5324 -0.5376
  330MOL0     C44480   7.645   0.682   2.108 -0.5389  0.7111  0.2786
  330MOL0     C44481   7.019   0.493   2.477 -0.4585  0.3746 -1.0076
  330MOL0     C44482   6.880   0.502   2.478  0.3322  0.2141 -0.4200
  330MOL0     H44483   6.429   0.735   2.504 -1.2377  0.4429 -0.4531
  330MOL0     H44484   6.191   0.713   2.522  0.4265 -0.8223 -2.8529
  330MOL0     H44485   5.979   0.662   2.537  1.0238 -0.5366  1.4167
  330MOL0     H44486   6.001   0.544   2.402  0.1605  2.5453  0.1690
  330MOL0     H44487   5.837   0.435   2.428  3.2105 -0.4848  0.2984
  330MOL0     H44488   5.820   0.459   2.606 -0.7053  1.2559  1.1408
  330MOL0     H44489   5.703   0.658   2.590  0.0153 -1.6700  0.3848
  330MOL0     H44490   5.767   0.704   2.436 -1.3214 -0.6479 -1.7536
  330MOL0     H44491   5.627   0.536   2.317  1.1825  0.2049 -0.0257
  330MOL0     H44492   5.564   0.458   2.466 -0.6847 -1.0402 -1.4358
  330MOL0     H44493   5.457   0.655   2.532  3.2594 -0.8332  1.4216
  330MOL0     H44494   5.523   0.756   2.399 -2.7122 -0.0417 -2.1323
  330MOL0     H44495   5.416   0.582   2.237  0.7017  4.1281 -1.1642
  330MOL0     H44496   5.311   0.524   2.362 -0.9275  0.5198 -0.9213
  330MOL0     H44497   5.266   0.765   2.417 -1.9185 -1.6491  0.6147
  330MOL0     H44498   5.313   0.815   2.256  2.6021  1.2175  1.5496
  330MOL0     H44499   5.107   0.582   2.291 -1.9830  1.2213  0.1665
  330MOL0     H44500   5.171   0.665   2.152  1.8733  1.6229 -0.6843
  330MOL0     H44501   5.124   0.935   2.404 -1.5829  1.9698 -0.1243
  330MOL0     H44502   4.759   1.058   2.425 -0.1731  2.1375 -0.6021
  330MOL0     H44503   4.910   1.107   2.491 -1.2399 -0.2338  1.1980
  330MOL0     H44504   4.950   1.231   2.275  0.8130 -0.5967 -0.1774
  330MOL0     H44505   4.817   1.294   2.371 -0.2036 -0.0732  0.5485
  330MOL0     H44506   4.813   1.120   2.102  0.0327  1.4164 -1.5222
  330MOL0     H44507   4.761   1.284   2.126  1.4908  1.5705  2.3901
  330MOL0     H44508   4.630   1.035   2.236 -2.2164  0.6615  0.1513
  330MOL0     H44509   4.576   1.128   2.105  0.2405  2.2874 -1.1178
  330MOL0     H44510   4.401   1.039   2.196  2.3073 -0.7420  4.6045
  330MOL0     H44511   4.120   0.945   2.177  0.2467  0.3994 -0.4990
  330MOL0     H44512   4.033   1.068   2.091  1.0593  2.0898 -0.3685
  330MOL0     H44513   4.205   1.014   2.053  2.9714  0.4851  1.3182
  330MOL0     H44514   3.866   1.436   2.576 -0.3244 -0.7031  1.2338
  330MOL0     H44515   3.639   1.412   2.668  2.1169 -0.6984  0.7569
  330MOL0     H44516   3.432   1.361   2.728 -0.7754  1.9712  1.9398
  330MOL0     H44517   3.408   1.521   2.639 -2.4938  0.2699  1.5043
  330MOL0     H44518   3.212   1.288   2.634 -2.5544 -0.0856  2.0510
  330MOL0     H44519   3.203   1.393   2.774 -1.6848  1.2849 -0.1023
  330MOL0     H44520   3.168   1.472   2.478 -2.2351 -0.1342  0.1269
  330MOL0     H44521   3.184   1.589   2.614 -0.8267  0.1407  2.3552
  330MOL0     H44522   2.972   1.364   2.571  1.5918 -1.7517  0.8373
  330MOL0     H44523   2.985   1.455   2.725 -3.1399  1.1868 -0.2325
  330MOL0     H44524   2.955   1.671   2.592 -0.2342 -0.1336  1.2773
  330MOL0     H44525   2.816   1.560   2.624  1.7340 -2.2679  1.5291
  330MOL0     H44526   2.828   1.463   2.402 -0.3785  0.4803 -0.9035
  330MOL0     H44527   2.789   1.634   2.400  0.8109 -0.5680 -0.3734
  330MOL0     H44528   3.061   1.533   2.315 -0.5067 -1.3278 -0.6261
  330MOL0     H44529   3.004   1.703   2.335 -1.6000 -0.4993  0.8927
  330MOL0     H44530   2.899   1.488   2.132 -0.3412  1.4172 -4.0386
  330MOL0     H44531   2.993   1.643   2.114  1.1155 -0.3840  1.3130
  330MOL0     H44532   3.494   1.334   2.271  0.0059  2.9688 -1.2840
  330MOL0     H44533   3.735   1.362   2.184  2.2784 -1.2406  0.5494
  330MOL0     H44534   4.186   1.453   2.365  1.7364  0.2450  0.0990
  330MOL0     H44535   4.422   1.423   2.377  1.7892 -1.0736 -1.3057
  330MOL0     H44536   6.242   0.303   2.633 -0.1145 -1.3176 -2.7764
  330MOL0     H44537   6.474   0.309   2.582  1.3872  1.4329 -0.7069
  330MOL0     H44538   6.847   0.785   2.298  1.4818  1.0144 -0.6913
  330MOL0     H44539   7.098   0.748   2.275  1.4927  1.1532  0.8758
  330MOL0     H44540   7.319   0.480   2.561  1.7919  1.9096 -0.6107
  330MOL0     H44541   7.276   0.374   2.418  2.6456 -0.1562 -3.4600
  330MOL0     H44542   7.446   0.459   2.285  1.4135 -3.2495  0.3533
  330MOL0     H44543   7.509   0.391   2.431 -0.7877 -0.5468 -1.0789
  330MOL0     H44544   7.545   0.616   2.531  1.6845 -0.1477 -0.2976
  330MOL0     H44545   7.474   0.692   2.390 -1.1738 -0.1523  1.0141
  330MOL0     H44546   7.735   0.530   2.378  1.8981  2.1014  1.1316
  330MOL0     H44547   7.720   0.704   2.408 -0.7550  1.0288  0.1401
  330MOL0     H44548   7.630   0.718   2.008  1.2267 -0.4125 -0.4444
  330MOL0     H44549   7.068   0.413   2.532 -0.1305  2.3251  1.7412
  330MOL0     H44550   6.819   0.426   2.526 -1.3851  0.5986 -1.8667
  331MOL0     O44551   2.499   3.138   2.935  0.2731 -0.2530  0.0997
  331MOL0     C44552   2.574   3.054   2.881  0.3855 -0.8083 -0.5698
  331MOL0     O44553   2.540   2.930   2.836 -0.2396  0.5906 -0.1559
  331MOL0     C44554   2.410   2.885   2.835 -0.1687  0.2908 -0.0056
  331MOL0     C44555   2.306   2.952   2.758 -0.3195 -0.1384 -0.1476
  331MOL0     C44556   2.180   2.898   2.758  0.7993 -0.0458 -0.4745
  331MOL0     C44557   2.144   2.796   2.842  0.2787  0.7457 -0.0201
  331MOL0     O44558   2.016   2.749   2.840 -0.6718  0.0464  0.1718
  331MOL0     C44559   1.925   2.843   2.890  0.9637  0.0591  0.0517
  331MOL0     C44560   1.777   2.785   2.870  0.9471 -0.2220 -0.3357
  331MOL0     C44561   1.665   2.892   2.889  0.8746  0.1194 -0.4779
  331MOL0     C44562   1.536   2.819   2.877  0.4486  0.2258  0.0798
  331MOL0     C44563   1.405   2.905   2.906 -0.2638  0.2592  0.0899
  331MOL0     C44564   1.287   2.802   2.902  0.7116  0.3040 -0.3578
  331MOL0     C44565   1.161   2.857   2.975 -0.1401 -0.3198  0.8444
  331MOL0     C44566   1.034   2.789   2.906 -0.1364  0.1258 -0.3939
  331MOL0     N44567   0.919   2.818   2.986 -0.7345 -0.0505 -0.3986
  331MOL0     C44568   0.836   2.929   2.971  0.5093 -0.9296  0.4196
  331MOL0     C44569   0.762   2.934   3.079 -0.6369  0.2875 -0.0113
  331MOL0     C44570   0.646   3.024   3.105  0.2435 -0.5129 -0.8193
  331MOL0     C44571   0.530   3.010   3.006 -0.4215 -0.1760 -0.0998
  331MOL0     C44572   0.449   2.882   3.018 -0.1988  0.1538  0.0555
  331MOL0     C44573   0.325   2.888   2.934  0.4258  0.4229  0.7408
  331MOL0     O44574   0.250   2.768   2.949 -0.0826  0.2260 -0.2576
  331MOL0     C44575   0.129   2.769   2.877  0.0672  0.1233  0.3169
  331MOL0     C44576   0.086   2.856   2.776 -0.5967  1.0273  0.8385
  331MOL0     C44577  -0.041   2.850   2.717 -0.1442 -0.0162  0.4093
  331MOL0     C44578  -0.087   2.947   2.610  0.1293 -0.8010  0.3227
  331MOL0     C44579  -0.136   2.751   2.760 -0.0767  1.0038  1.2344
  331MOL0     C44580  -0.269   2.729   2.706 -0.3207 -0.1842  0.4749
  331MOL0     O44581  -0.262   2.677   2.580  0.1621  0.4505 -0.3564
  331MOL0     C44582  -0.384   2.653   2.532  0.5963  0.2501  0.4684
  331MOL0     C44583  -0.454   2.752   2.468 -0.0403 -0.2152  0.2637
  331MOL0     C44584  -0.578   2.735   2.401  0.1412 -0.3391  0.5555
  331MOL0     C44585  -0.642   2.616   2.415  0.0508 -0.8926 -0.4406
  331MOL0     O44586  -0.754   2.582   2.347  0.5952 -0.7214  0.5536
  331MOL0     C44587  -0.829   2.685   2.284 -0.1391 -0.5174 -0.3916
  331MOL0     C44588  -0.886   2.607   2.164  0.7258 -0.4844 -0.3050
  331MOL0     C44589  -1.002   2.689   2.093  0.1344  0.3230 -0.3466
  331MOL0     C44590  -1.042   2.608   1.965  0.9904  0.0921 -0.2149
  331MOL0     C44591  -1.182   2.652   1.919 -0.2257 -0.2307 -0.4543
  331MOL0     C44592  -1.210   2.612   1.780 -0.1498  0.1276 -0.3318
  331MOL0     C44593  -1.344   2.663   1.737  0.2999 -0.1522  0.8001
  331MOL0     C44594  -1.382   2.604   1.602 -0.2777  0.2181 -0.2686
  331MOL0    Cl44595  -1.556   2.612   1.570  0.4518 -0.0162 -0.0018
  331MOL0     C44596  -0.570   2.512   2.481 -0.0530 -0.3253 -0.1909
  331MOL0     C44597  -0.441   2.530   2.533  0.7639 -0.0083  0.0601
  331MOL0     O44598  -0.371   2.740   2.777  0.3346  0.3414 -0.6507
  331MOL0     C44599  -0.092   2.665   2.862 -0.2757 -0.3978  0.0277
  331MOL0     C44600   0.039   2.671   2.910  0.2087  0.0047 -0.2274
  331MOL0     N44601   0.803   2.822   3.153  0.7377 -0.6307 -0.1431
  331MOL0     N44602   0.890   2.749   3.098 -0.8580  0.7583 -0.5187
  331MOL0     C44603   2.243   2.725   2.914 -0.3707  0.6978  0.6454
  331MOL0     C44604   2.375   2.768   2.909 -0.6077 -0.7471 -0.3036
  331MOL0     C44605   2.716   3.081   2.881  0.1398  0.7711 -1.3021
  331MOL0     C44606   2.758   3.186   2.960 -0.3415  0.0640 -0.0962
  331MOL0     C44607   2.888   3.218   2.987 -0.0295  0.3827 -1.1009
  331MOL0     C44608   2.987   3.160   2.905  0.9262 -0.9541  0.1716
  331MOL0     O44609   3.117   3.208   2.920  1.0882  0.3130 -0.4622
  331MOL0     C44610   3.223   3.140   2.850  0.4421  0.1759 -0.8979
  331MOL0     C44611   3.249   3.206   2.710 -1.2818 -0.2510 -0.4102
  331MOL0     C44612   3.384   3.167   2.649  0.4631 -0.5784 -0.0096
  331MOL0     C44613   3.493   3.257   2.692 -0.1452  0.0565  0.1085
  331MOL0     C44614   3.617   3.221   2.624  0.2015  0.6491  0.2225
  331MOL0     C44615   3.734   3.203   2.585 -0.0819  1.1238  0.1604
  331MOL0     C44616   2.951   3.053   2.822  0.1812 -0.0785  0.7022
  331MOL0     C44617   2.812   3.018   2.802  0.3330  0.4989 -1.1182
  331MOL0     H44618   2.329   3.036   2.693 -1.5641  2.3226  2.3579
  331MOL0     H44619   2.101   2.947   2.702 -0.3258  0.2220  1.2395
  331MOL0     H44620   1.949   2.850   2.996 -1.6795 -0.7056  0.7932
  331MOL0     H44621   1.927   2.940   2.840 -0.4955 -0.1873 -0.5417
  331MOL0     H44622   1.752   2.735   2.776  0.2015  0.0202 -0.2747
  331MOL0     H44623   1.761   2.709   2.947  0.7740 -0.6673 -0.8075
  331MOL0     H44624   1.675   2.944   2.985  1.8132  0.0242 -0.5154
  331MOL0     H44625   1.658   2.971   2.814 -0.2049  0.0561 -0.4704
  331MOL0     H44626   1.521   2.788   2.773 -1.0174 -3.0226  1.1109
  331MOL0     H44627   1.536   2.730   2.940  0.2943  0.3877  0.3129
  331MOL0     H44628   1.402   2.952   3.004 -2.4153 -3.1088  1.8673
  331MOL0     H44629   1.389   2.985   2.833  2.5979 -0.9216 -2.0302
  331MOL0     H44630   1.269   2.783   2.796  0.4024  2.0194 -0.6558
  331MOL0     H44631   1.312   2.709   2.954  2.6388  1.3580  0.7406
  331MOL0     H44632   1.175   2.839   3.082 -3.8358 -1.7504  1.2585
  331MOL0     H44633   1.146   2.965   2.969 -1.7409 -0.4670  1.6130
  331MOL0     H44634   1.040   2.680   2.895  0.9183  0.1898 -0.5194
  331MOL0     H44635   1.023   2.831   2.806 -0.4063 -0.0133 -0.4233
  331MOL0     H44636   0.845   3.006   2.894  0.1400 -0.6515  0.6491
  331MOL0     H44637   0.610   3.028   3.209 -1.0355 -2.6824 -1.1352
  331MOL0     H44638   0.688   3.124   3.090 -1.9640  0.4403 -1.0023
  331MOL0     H44639   0.563   3.024   2.903 -2.3400  0.2538 -0.7077
  331MOL0     H44640   0.474   3.102   3.029  2.2761  1.5209  0.1574
  331MOL0     H44641   0.423   2.870   3.124  1.2338  3.2046  0.8502
  331MOL0     H44642   0.499   2.787   2.995 -0.6418 -0.4287  1.3991
  331MOL0     H44643   0.348   2.899   2.828 -3.4249 -1.1295 -0.4499
  331MOL0     H44644   0.262   2.973   2.963 -1.8167 -0.7491 -0.4553
  331MOL0     H44645   0.160   2.922   2.731 -1.6718  1.1845 -0.7746
  331MOL0     H44646  -0.188   2.988   2.619  0.1189  0.0938 -2.9049
  331MOL0     H44647  -0.017   3.031   2.610 -0.5598 -0.1619 -2.3267
  331MOL0     H44648  -0.092   2.903   2.510 -2.9639 -0.3928  0.2043
  331MOL0     H44649  -0.404   2.848   2.463  3.3860 -1.8906 -0.3519
  331MOL0     H44650  -0.618   2.817   2.342  0.4656  1.4646  2.6960
  331MOL0     H44651  -0.904   2.710   2.360 -1.0300 -1.0023 -1.0781
  331MOL0     H44652  -0.783   2.776   2.246 -1.3609  1.2135  1.9768
  331MOL0     H44653  -0.807   2.586   2.091  1.1322  2.9419 -1.0196
  331MOL0     H44654  -0.931   2.516   2.203  0.8161  0.1271  1.3015
  331MOL0     H44655  -0.961   2.788   2.072  1.0369 -0.3429 -1.9367
  331MOL0     H44656  -1.093   2.698   2.153 -0.1603 -2.0378 -0.3503
  331MOL0     H44657  -0.972   2.619   1.882  1.3986 -3.2448 -0.4653
  331MOL0     H44658  -1.041   2.500   1.984 -0.7310 -0.1208 -1.1775
  331MOL0     H44659  -1.184   2.762   1.921  4.3165  0.0606  0.1228
  331MOL0     H44660  -1.259   2.634   1.994  0.4628  0.4812  0.4622
  331MOL0     H44661  -1.143   2.650   1.702 -2.0205 -0.4700 -2.3409
  331MOL0     H44662  -1.208   2.503   1.790  0.3536  0.1701  0.0615
  331MOL0     H44663  -1.355   2.771   1.725  0.4803  0.2032  3.3431
  331MOL0     H44664  -1.417   2.640   1.814  1.5328  0.1153  2.0928
  331MOL0     H44665  -1.359   2.498   1.610 -0.7657  0.1935  1.1967
  331MOL0     H44666  -1.328   2.658   1.524  1.3646  1.6645  1.7742
  331MOL0     H44667  -0.605   2.409   2.479  0.6961 -0.6137  0.6532
  331MOL0     H44668  -0.381   2.455   2.584  2.2793  0.2830 -1.2129
  331MOL0     H44669  -0.145   2.577   2.898 -0.0736 -0.2652  0.6586
  331MOL0     H44670   0.070   2.598   2.985  0.1600 -0.4205 -0.6157
  331MOL0     H44671   2.227   2.632   2.968  1.1039  1.6033  2.7998
  331MOL0     H44672   2.461   2.722   2.956 -1.5170 -1.5650  0.5742
  331MOL0     H44673   2.691   3.250   3.017  1.1791 -0.0669  1.9460
  331MOL0     H44674   2.910   3.293   3.063 -1.4949  0.0326 -0.2857
  331MOL0     H44675   3.317   3.137   2.907 -0.6017 -1.7432  0.8719
  331MOL0     H44676   3.185   3.038   2.839 -0.9528  0.1913  2.4822
  331MOL0     H44677   3.239   3.314   2.726 -0.5604 -0.0280 -1.3917
  331MOL0     H44678   3.173   3.182   2.635 -0.4791  0.7323 -1.5661
  331MOL0     H44679   3.381   3.177   2.540  1.1100 -0.8659 -0.0562
  331MOL0     H44680   3.407   3.063   2.674  1.4541 -0.3427  0.1186
  331MOL0     H44681   3.509   3.238   2.798 -2.2973  0.9001  0.6273
  331MOL0     H44682   3.461   3.359   2.668 -1.0139 -0.0781  0.6649
  331MOL0     H44683   3.826   3.165   2.546 -0.5330 -1.0802  1.0942
  331MOL0     H44684   3.018   3.009   2.749 -1.6212 -0.2262 -0.9605
  331MOL0     H44685   2.794   2.940   2.729  1.0180 -0.6080 -0.1387
  332MOL0     O44686   0.284   9.746  10.752 -0.1910  0.5550 -0.2435
  332MOL0     C44687   0.353   9.724  10.650  0.3468 -0.1999  0.2401
  332MOL0     O44688   0.303   9.700  10.524  0.1352  0.4191  0.1171
  332MOL0     C44689   0.167   9.699  10.505 -0.1612 -0.9179  0.2434
  332MOL0     C44690   0.101   9.824  10.474  0.1741 -0.0572 -0.3847
  332MOL0     C44691  -0.031   9.832  10.432  0.0362 -0.2910 -0.6787
  332MOL0     C44692  -0.103   9.712  10.418  0.9786  0.2708  0.4797
  332MOL0     O44693  -0.236   9.720  10.381  0.5320  0.4738 -0.1311
  332MOL0     C44694  -0.313   9.607  10.341  0.0832  0.4730 -0.4488
  332MOL0     C44695  -0.432   9.658  10.261 -0.1332  0.9637 -0.2429
  332MOL0     C44696  -0.559   9.676  10.342 -0.9032  0.0055  0.2159
  332MOL0     C44697  -0.669   9.742  10.262 -0.0605 -0.3383 -0.0047
  332MOL0     C44698  -0.798   9.743  10.347 -0.5275  0.5582  0.7133
  332MOL0     C44699  -0.899   9.834  10.274  0.5635  0.7493  0.5134
  332MOL0     C44700  -1.041   9.837  10.345  0.4980 -0.5844  0.1672
  332MOL0     C44701  -1.125   9.945  10.268 -0.0714  0.5644 -0.7884
  332MOL0     N44702  -1.266   9.948  10.298 -0.2546  0.1679  0.1100
  332MOL0     C44703  -1.317   9.967  10.423  0.4589 -0.8357  0.4173
  332MOL0     C44704  -1.453   9.945  10.412 -0.5676  0.0824  0.2456
  332MOL0     C44705  -1.549   9.961  10.530  0.6074 -0.7272  0.5162
  332MOL0     C44706  -1.699   9.930  10.500 -0.4537  0.6095 -0.4124
  332MOL0     C44707  -1.715   9.780  10.494  0.3389 -0.6404 -0.4188
  332MOL0     C44708  -1.852   9.735  10.439 -0.1043 -0.2598  0.6792
  332MOL0     O44709  -1.958   9.779  10.518 -0.4056  0.6741  0.2958
  332MOL0     C44710  -2.081   9.767  10.463  0.0533 -0.4101  0.3770
  332MOL0     C44711  -2.117   9.706  10.342 -0.1388 -0.1435  0.3728
  332MOL0     C44712  -2.252   9.701  10.299 -0.6317  0.0379  0.1113
  332MOL0     C44713  -2.274   9.653  10.161 -0.1367 -0.3466 -0.1554
  332MOL0     C44714  -2.352   9.748  10.388 -0.3817 -0.8857 -0.0856
  332MOL0     C44715  -2.493   9.735  10.369 -0.2819  0.4251  0.5985
  332MOL0     O44716  -2.556   9.724  10.485 -0.2008 -0.2881  0.4150
  332MOL0     C44717  -2.682   9.691  10.486  0.6838 -0.7403 -0.4171
  332MOL0     C44718  -2.769   9.778  10.558  0.6127  0.3935  0.4034
  332MOL0     C44719  -2.909   9.752  10.563  0.1836  0.1137 -0.5052
  332MOL0     C44720  -2.960   9.631  10.499 -0.1791 -0.2997 -0.7895
  332MOL0     O44721  -3.097   9.606  10.485  0.1105  0.2787  0.1910
  332MOL0     C44722  -3.189   9.629  10.594  0.5651 -0.5618 -0.6422
  332MOL0     C44723  -3.293   9.519  10.599 -1.1118 -0.6859 -0.1404
  332MOL0     C44724  -3.404   9.552  10.699 -0.4667 -0.4462  0.4348
  332MOL0     C44725  -3.522   9.458  10.663  0.2954  0.1938 -0.1474
  332MOL0     C44726  -3.645   9.500  10.754 -0.3799  0.9480 -0.7782
  332MOL0     C44727  -3.767   9.414  10.730  0.5625 -0.0433 -0.6309
  332MOL0     C44728  -3.880   9.425  10.846 -0.5290 -0.4703  0.1048
  332MOL0     C44729  -3.985   9.316  10.825  0.0563  0.6616  0.0100
  332MOL0    Cl44730  -4.102   9.315  10.966 -0.2856 -0.5441 -0.0883
  332MOL0     C44731  -2.869   9.543  10.437 -0.0772  0.2611 -0.5230
  332MOL0     C44732  -2.734   9.574  10.429 -0.8757 -0.0701 -0.1567
  332MOL0     O44733  -2.545   9.708  10.261 -0.0515 -0.5465 -0.1858
  332MOL0     C44734  -2.313   9.819  10.504  0.8439  0.0479  0.2739
  332MOL0     C44735  -2.180   9.828  10.544 -0.8405 -0.2197  0.0266
  332MOL0     N44736  -1.475   9.924  10.280  0.0017  0.9810  0.6608
  332MOL0     N44737  -1.367   9.917  10.220 -1.0538  0.1123  0.3330
  332MOL0     C44738  -0.040   9.588  10.456  0.8364 -0.8706 -0.7578
  332MOL0     C44739   0.091   9.583  10.497 -0.1529  0.7817 -0.2172
  332MOL0     C44740   0.500   9.699  10.660  1.1804 -0.0707  0.1121
  332MOL0     C44741   0.565   9.725  10.782  0.2747 -0.5117 -0.0485
  332MOL0     C44742   0.702   9.714  10.798 -0.2483  0.2523  0.0680
  332MOL0     C44743   0.773   9.652  10.688  0.2825 -0.6446 -0.5258
  332MOL0     O44744   0.910   9.634  10.699 -1.2399  0.1157 -0.6541
  332MOL0     C44745   0.987   9.559  10.606  0.9136 -0.2074  0.6529
  332MOL0     C44746   1.132   9.530  10.666  0.9264 -0.9111  0.2082
  332MOL0     C44747   1.207   9.436  10.574 -0.6055  0.6805 -0.9376
  332MOL0     C44748   1.335   9.395  10.652  0.5285 -0.2722 -0.0245
  332MOL0     C44749   1.308   9.284  10.741 -0.3302 -0.1428  1.0440
  332MOL0     C44750   1.281   9.197  10.818  0.9465  0.4448  0.4077
  332MOL0     C44751   0.709   9.620  10.570 -0.3068  0.8478  0.7332
  332MOL0     C44752   0.578   9.653  10.549 -0.6497  0.7281 -0.1379
  332MOL0     H44753   0.162   9.913  10.462  0.0760  0.3850  1.9255
  332MOL0     H44754  -0.078   9.926  10.408 -3.4706 -1.4337  0.9264
  332MOL0     H44755  -0.249   9.556  10.267  0.0301 -0.7981  0.3502
  332MOL0     H44756  -0.347   9.538  10.419 -1.1945 -2.1428 -3.1179
  332MOL0     H44757  -0.412   9.756  10.217  3.1608  0.4354 -0.2058
  332MOL0     H44758  -0.464   9.583  10.188 -0.8799  1.4751 -0.4533
  332MOL0     H44759  -0.586   9.585  10.397  0.9707 -0.6920  0.0308
  332MOL0     H44760  -0.522   9.748  10.416  2.5833  0.4485 -1.7785
  332MOL0     H44761  -0.643   9.847  10.244  1.7657 -0.5089  1.3121
  332MOL0     H44762  -0.696   9.690  10.169 -3.4866  1.7775 -0.3621
  332MOL0     H44763  -0.829   9.639  10.360 -0.6327  0.6286  1.0380
  332MOL0     H44764  -0.775   9.793  10.442 -0.0844 -0.9194  1.4049
  332MOL0     H44765  -0.861   9.936  10.260 -1.9333  1.9245  1.5542
  332MOL0     H44766  -0.911   9.789  10.175 -1.1411  0.7507  0.6769
  332MOL0     H44767  -1.088   9.739  10.335 -1.8261  0.4447  0.1286
  332MOL0     H44768  -1.027   9.878  10.446  1.8816 -2.1785  0.6599
  332MOL0     H44769  -1.105   9.926  10.162 -1.0112  1.0385 -1.0650
  332MOL0     H44770  -1.085  10.043  10.295  0.3721 -0.6488  3.6463
  332MOL0     H44771  -1.267   9.995  10.516  2.1729  1.6010 -1.1236
  332MOL0     H44772  -1.519   9.901  10.617  0.6516 -1.7792 -0.1979
  332MOL0     H44773  -1.558  10.066  10.558 -1.0370 -1.2287  2.0903
  332MOL0     H44774  -1.734   9.976  10.408  0.2768  0.0185 -1.0040
  332MOL0     H44775  -1.757   9.966  10.585 -0.6163  2.4844 -1.2754
  332MOL0     H44776  -1.709   9.734  10.593 -1.2068  0.9101  0.4670
  332MOL0     H44777  -1.635   9.731  10.438  0.1678  0.7887 -2.0009
  332MOL0     H44778  -1.862   9.627  10.426 -0.8703 -0.1794  0.5712
  332MOL0     H44779  -1.855   9.778  10.339  0.9094 -2.0004 -0.1341
  332MOL0     H44780  -2.040   9.667  10.276 -0.7963  2.2676 -1.9856
  332MOL0     H44781  -2.313   9.735  10.099 -1.2359 -0.6855  0.0602
  332MOL0     H44782  -2.172   9.630  10.131  0.4984 -1.5565  2.6047
  332MOL0     H44783  -2.349   9.576  10.140 -2.6118  1.5281  1.1780
  332MOL0     H44784  -2.732   9.869  10.604 -0.8713  1.2686 -0.0851
  332MOL0     H44785  -2.977   9.817  10.618 -1.4307  0.7450 -3.0795
  332MOL0     H44786  -3.135   9.637  10.689 -0.0505  1.1587 -0.3917
  332MOL0     H44787  -3.241   9.723  10.574 -1.7733 -1.4238  0.9662
  332MOL0     H44788  -3.339   9.508  10.500  1.1891 -3.9746 -1.0327
  332MOL0     H44789  -3.245   9.423  10.621  0.2817  0.2323  0.9823
  332MOL0     H44790  -3.438   9.652  10.672 -1.6257  0.1021  3.5031
  332MOL0     H44791  -3.382   9.544  10.806 -1.5192 -0.4372  0.6642
  332MOL0     H44792  -3.561   9.476  10.563  1.4344  0.2363 -0.5973
  332MOL0     H44793  -3.500   9.352  10.681 -4.6700 -1.2685 -1.2788
  332MOL0     H44794  -3.670   9.602  10.724 -0.5642  1.2788  0.4621
  332MOL0     H44795  -3.615   9.497  10.859 -2.0091 -0.5760 -0.2984
  332MOL0     H44796  -3.812   9.446  10.636 -0.2263  1.6569  0.2803
  332MOL0     H44797  -3.736   9.311  10.710  0.3181 -0.1368 -0.5245
  332MOL0     H44798  -3.933   9.520  10.834  0.2201 -0.2053 -1.3551
  332MOL0     H44799  -3.841   9.421  10.948 -1.3414  2.0287  0.5736
  332MOL0     H44800  -3.940   9.217  10.810 -2.1764 -0.2084 -1.4779
  332MOL0     H44801  -4.038   9.338  10.732  0.8324  0.1154 -0.5743
  332MOL0     H44802  -2.918   9.453  10.400  0.5220 -0.7843  1.1122
  332MOL0     H44803  -2.666   9.505  10.379 -2.3528  1.1577 -4.3171
  332MOL0     H44804  -2.389   9.875  10.557  0.8616 -0.6584  1.0640
  332MOL0     H44805  -2.150   9.880  10.635 -0.7169 -0.2447 -0.0014
  332MOL0     H44806  -0.103   9.500  10.452  1.3894 -1.3355  0.1597
  332MOL0     H44807   0.136   9.486  10.515 -3.7197 -1.1627 -0.8563
  332MOL0     H44808   0.512   9.776  10.863 -3.7364 -1.1132 -2.0423
  332MOL0     H44809   0.745   9.743  10.893 -0.7545 -0.5676  0.5651
  332MOL0     H44810   0.924   9.470  10.597  0.0742  0.4663 -0.5179
  332MOL0     H44811   0.979   9.616  10.513  2.7166 -0.6396  0.2018
  332MOL0     H44812   1.117   9.496  10.768  1.2877  0.1046  0.6072
  332MOL0     H44813   1.191   9.622  10.671 -1.1403  0.4288  1.3829
  332MOL0     H44814   1.230   9.490  10.482  0.7004  2.3507  0.3020
  332MOL0     H44815   1.137   9.355  10.551 -0.7395  0.4437  0.2103
  332MOL0     H44816   1.377   9.477  10.711 -1.6327  0.3219  0.8042
  332MOL0     H44817   1.401   9.352  10.577  1.6540  2.0552 -0.4775
  332MOL0     H44818   1.268   9.116  10.886 -2.1076 -0.3093 -0.9059
  332MOL0     H44819   0.766   9.568  10.493 -0.4585  2.2275 -0.3491
  332MOL0     H44820   0.540   9.630  10.450  2.0542  1.7080 -1.5034
  333MOL0     O44821   8.390   7.908   7.329  0.2200 -0.2484 -0.0846
  333MOL0     C44822   8.459   8.005   7.349  0.2945 -0.0105  0.4943
  333MOL0     O44823   8.411   8.129   7.386  0.5076 -0.7797 -0.4500
  333MOL0     C44824   8.270   8.141   7.401  0.7852 -0.0690  0.2094
  333MOL0     C44825   8.215   8.188   7.514  0.4668  0.3606 -0.1543
  333MOL0     C44826   8.081   8.213   7.539  0.2880 -0.1196  0.3348
  333MOL0     C44827   7.994   8.204   7.429  0.6273 -0.7094  0.1009
  333MOL0     O44828   7.867   8.256   7.456 -0.6881 -1.5509 -0.2623
  333MOL0     C44829   7.773   8.253   7.354 -0.0741 -0.2754  0.2546
  333MOL0     C44830   7.631   8.291   7.411  0.5987  0.8958  0.9161
  333MOL0     C44831   7.518   8.280   7.303 -0.1818 -0.2503  0.5816
  333MOL0     C44832   7.377   8.271   7.377  0.5889  0.6467 -0.1096
  333MOL0     C44833   7.248   8.267   7.285  0.3431  0.9616  0.0254
  333MOL0     C44834   7.125   8.249   7.365  0.2383 -0.2903  0.5712
  333MOL0     C44835   7.008   8.262   7.264  0.1028  0.1231 -1.2283
  333MOL0     C44836   6.869   8.237   7.328 -0.2609  0.0988 -0.7179
  333MOL0     N44837   6.769   8.239   7.223  0.0378 -0.0989  0.3597
  333MOL0     C44838   6.704   8.350   7.178  1.3271 -0.3072 -0.4011
  333MOL0     C44839   6.638   8.306   7.068 -0.6229  0.0009 -0.6058
  333MOL0     C44840   6.554   8.394   6.976 -0.5012 -0.0105 -0.1305
  333MOL0     C44841   6.418   8.436   7.032  0.4539  0.4033 -0.2231
  333MOL0     C44842   6.334   8.325   7.078  0.1970 -1.2272  0.6424
  333MOL0     C44843   6.201   8.382   7.120  0.7160 -0.1365  0.5801
  333MOL0     O44844   6.118   8.269   7.136 -0.2048 -0.3516 -0.1246
  333MOL0     C44845   5.983   8.284   7.172  0.2741 -0.3832 -0.0663
  333MOL0     C44846   5.902   8.171   7.172  0.3575 -0.0206  0.2018
  333MOL0     C44847   5.762   8.177   7.198 -0.5815 -0.6996 -0.5075
  333MOL0     C44848   5.686   8.043   7.192  0.6511 -0.3956  1.0262
  333MOL0     C44849   5.701   8.296   7.235  0.5798  0.3322 -0.1275
  333MOL0     C44850   5.554   8.322   7.242  0.2705  0.7623  1.1409
  333MOL0     O44851   5.476   8.241   7.152 -0.1135 -0.0995  0.1210
  333MOL0     C44852   5.349   8.279   7.136 -0.2212  0.6221 -0.7426
  333MOL0     C44853   5.321   8.367   7.037  0.3013  0.2039  0.0838
  333MOL0     C44854   5.190   8.412   7.021 -0.2015  0.2020 -0.6525
  333MOL0     C44855   5.082   8.339   7.076  0.1204 -0.8114  0.0950
  333MOL0     O44856   4.957   8.353   7.013 -0.0778 -0.5069 -0.4197
  333MOL0     C44857   4.841   8.363   7.095 -0.6352  0.3453 -0.0195
  333MOL0     C44858   4.729   8.383   6.992 -0.0366  0.4682 -0.8994
  333MOL0     C44859   4.591   8.372   7.059 -0.2334  1.3565 -0.0036
  333MOL0     C44860   4.569   8.373   7.214 -0.1260 -1.2329 -0.2896
  333MOL0     C44861   4.422   8.360   7.263  0.2769  0.6471  0.0782
  333MOL0     C44862   4.370   8.218   7.237 -0.3889 -0.1667  1.1643
  333MOL0     C44863   4.218   8.205   7.259 -0.9965  0.1909 -0.1027
  333MOL0     C44864   4.192   8.053   7.260 -0.0966  1.5027  0.8958
  333MOL0    Cl44865   4.021   8.018   7.317 -0.0916 -0.5593  0.0524
  333MOL0     C44866   5.115   8.251   7.173  0.0309 -0.6772 -0.1590
  333MOL0     C44867   5.246   8.217   7.208 -0.3081  0.3808  0.2223
  333MOL0     O44868   5.513   8.409   7.317  0.7400  0.7249  0.2030
  333MOL0     C44869   5.787   8.409   7.244  1.0770 -0.4021 -0.0198
  333MOL0     C44870   5.926   8.401   7.223  0.9939 -0.0961  0.1376
  333MOL0     N44871   6.668   8.173   7.050  0.2225  1.1598  0.3029
  333MOL0     N44872   6.742   8.133   7.140  0.4379  0.7845 -0.0511
  333MOL0     C44873   8.040   8.147   7.303  0.1610 -0.5670  0.1095
  333MOL0     C44874   8.181   8.124   7.286 -0.1976 -0.1672  0.4153
  333MOL0     C44875   8.602   7.992   7.342  0.2595 -0.1755  0.4763
  333MOL0     C44876   8.671   7.872   7.318 -0.0026 -0.3414  1.0550
  333MOL0     C44877   8.811   7.864   7.323  0.0609  0.2068 -0.8111
  333MOL0     C44878   8.891   7.980   7.343 -0.6653  0.0039  0.3399
  333MOL0     O44879   9.030   7.971   7.316  0.7084  1.2289 -0.7051
  333MOL0     C44880   9.116   8.068   7.382 -0.2293  0.0232 -0.0444
  333MOL0     C44881   9.241   7.998   7.446  0.3661 -0.4058 -0.1084
  333MOL0     C44882   9.328   7.948   7.334 -0.3806  0.5129  0.1473
  333MOL0     C44883   9.460   7.873   7.372  0.6259 -0.2598  0.2340
  333MOL0     C44884   9.551   7.877   7.268 -0.7178 -0.6016  0.2852
  333MOL0     C44885   9.616   7.881   7.164 -0.1513 -0.5324  1.0602
  333MOL0     C44886   8.825   8.100   7.349  0.4583  0.3163  0.3767
  333MOL0     C44887   8.684   8.110   7.344  0.5339  0.4423 -0.2036
  333MOL0     H44888   8.268   8.205   7.607 -1.1048  0.3318  0.7888
  333MOL0     H44889   8.027   8.255   7.622 -2.4865  0.4590 -1.6235
  333MOL0     H44890   7.804   8.324   7.276  0.6111  0.2885  1.0194
  333MOL0     H44891   7.760   8.157   7.303  0.4795 -0.0651 -0.2948
  333MOL0     H44892   7.596   8.226   7.491 -1.6609  1.2275  0.2688
  333MOL0     H44893   7.634   8.393   7.452  0.2685  0.4108  2.1816
  333MOL0     H44894   7.514   8.371   7.242  0.9633 -1.5545 -1.5280
  333MOL0     H44895   7.531   8.191   7.241 -1.3542 -0.1098  0.1104
  333MOL0     H44896   7.381   8.179   7.437 -3.2717  0.4270  0.0655
  333MOL0     H44897   7.377   8.355   7.447  0.6218 -1.0154  1.9899
  333MOL0     H44898   7.251   8.356   7.221  1.8229 -0.6487 -2.3470
  333MOL0     H44899   7.260   8.181   7.218  1.0636 -0.2273  1.6258
  333MOL0     H44900   7.115   8.158   7.425  0.0484 -0.2684  0.5737
  333MOL0     H44901   7.111   8.334   7.433  0.8286 -0.0030  0.3400
  333MOL0     H44902   6.990   8.364   7.229 -1.4194  0.7331  1.0975
  333MOL0     H44903   7.030   8.199   7.177  1.1728 -0.2251 -0.7285
  333MOL0     H44904   6.847   8.313   7.404 -2.3893 -0.5662 -0.6052
  333MOL0     H44905   6.853   8.139   7.374 -2.1943  0.7430  0.1070
  333MOL0     H44906   6.691   8.446   7.228  0.3352 -0.6694  0.0631
  333MOL0     H44907   6.610   8.486   6.958  0.6986 -0.6127  0.4199
  333MOL0     H44908   6.531   8.355   6.876  1.6638  0.9275 -1.0524
  333MOL0     H44909   6.368   8.486   6.949  0.5380 -1.9114 -1.7318
  333MOL0     H44910   6.433   8.503   7.118 -0.5533  1.1965 -0.6387
  333MOL0     H44911   6.385   8.286   7.166  2.1622 -0.2997  0.0001
  333MOL0     H44912   6.338   8.246   7.002  1.4144 -0.7952  0.2207
  333MOL0     H44913   6.170   8.442   7.033 -1.9296 -3.9383 -1.3546
  333MOL0     H44914   6.219   8.441   7.210 -2.3082 -0.6618  1.6099
  333MOL0     H44915   5.938   8.072   7.149 -0.2097 -1.4878  4.6848
  333MOL0     H44916   5.599   8.041   7.258 -0.5860 -0.3190 -0.5541
  333MOL0     H44917   5.666   8.025   7.086  2.2037 -1.1642  0.8257
  333MOL0     H44918   5.759   7.964   7.217 -1.0595 -1.8309  1.6976
  333MOL0     H44919   5.398   8.407   6.972  0.5777  0.0601  0.3235
  333MOL0     H44920   5.166   8.480   6.939 -1.7780 -1.5678 -1.7343
  333MOL0     H44921   4.840   8.276   7.162  2.2260 -0.3917 -0.7748
  333MOL0     H44922   4.852   8.453   7.156 -1.8784  2.1185 -2.2558
  333MOL0     H44923   4.742   8.490   6.978  0.9319  0.2072 -2.1718
  333MOL0     H44924   4.739   8.315   6.907  2.3283  0.9341 -1.0597
  333MOL0     H44925   4.561   8.272   7.026  3.0153  0.1361  0.3603
  333MOL0     H44926   4.523   8.451   7.026  0.2528  2.1687  0.8818
  333MOL0     H44927   4.623   8.292   7.264  0.3672  0.8449  2.8567
  333MOL0     H44928   4.619   8.460   7.258 -1.9485  0.0182 -0.6071
  333MOL0     H44929   4.362   8.438   7.216  0.8654  0.2452 -1.4194
  333MOL0     H44930   4.424   8.372   7.372 -1.2784 -0.4951  0.2669
  333MOL0     H44931   4.406   8.184   7.140  0.1067 -0.0449  1.3049
  333MOL0     H44932   4.414   8.150   7.310 -0.3962  0.1250  1.4425
  333MOL0     H44933   4.166   8.248   7.172  1.2071  1.0872 -1.0687
  333MOL0     H44934   4.190   8.256   7.351  2.0659  3.3362 -0.6989
  333MOL0     H44935   4.270   8.010   7.323  0.3429  1.6723  0.4738
  333MOL0     H44936   4.204   8.028   7.154 -0.1288  3.7704  0.2939
  333MOL0     H44937   5.038   8.184   7.213 -0.3046  0.4704  1.1800
  333MOL0     H44938   5.270   8.133   7.273  1.6093  0.9618  0.3306
  333MOL0     H44939   5.736   8.499   7.277 -0.3170 -2.2478  3.4380
  333MOL0     H44940   5.986   8.491   7.233  0.1712  0.3214  1.7176
  333MOL0     H44941   7.979   8.151   7.213  1.1973 -0.0699 -0.5878
  333MOL0     H44942   8.216   8.097   7.187 -2.2374  0.2383 -0.4820
  333MOL0     H44943   8.620   7.777   7.308  0.9415 -1.2129  3.6404
  333MOL0     H44944   8.872   7.776   7.311  1.4213  0.1678  4.1554
  333MOL0     H44945   9.143   8.150   7.315 -1.4944  1.8907  1.6415
  333MOL0     H44946   9.071   8.121   7.467  1.0225  1.0228  0.0279
  333MOL0     H44947   9.207   7.927   7.522  1.4747 -2.3169 -1.3462
  333MOL0     H44948   9.300   8.074   7.499  1.3963  0.1352 -1.9716
  333MOL0     H44949   9.352   8.031   7.267  2.1632  0.6341  1.0975
  333MOL0     H44950   9.276   7.878   7.268  2.0240 -0.4431 -0.8676
  333MOL0     H44951   9.440   7.768   7.397  1.0982 -0.6771 -1.0421
  333MOL0     H44952   9.496   7.923   7.463 -1.0737 -1.0469  1.4014
  333MOL0     H44953   9.678   7.881   7.076 -1.1792  0.2900  0.3211
  333MOL0     H44954   8.883   8.192   7.355 -0.1168  0.8186 -1.1514
  333MOL0     H44955   8.646   8.211   7.345  3.1838  1.5998 -2.6047
  334MOL0     O44956   1.286   2.972   8.221  0.1590 -0.9897  0.0015
  334MOL0     C44957   1.345   2.914   8.133  0.2216  0.1213 -0.3206
  334MOL0     O44958   1.289   2.869   8.023  0.2082  0.1591  0.2243
  334MOL0     C44959   1.148   2.857   8.020  0.2177  0.7451 -0.2004
  334MOL0     C44960   1.065   2.966   7.988 -0.6645 -0.1031  0.3980
  334MOL0     C44961   0.928   2.947   7.992 -0.3566  0.1470  0.0093
  334MOL0     C44962   0.865   2.826   8.022  0.4620 -0.5074  0.1407
  334MOL0     O44963   0.730   2.819   7.999 -0.2379 -0.6245  0.1903
  334MOL0     C44964   0.650   2.710   8.052  0.0866 -0.3452  0.0725
  334MOL0     C44965   0.498   2.740   8.064  0.5704 -0.9142 -1.4043
  334MOL0     C44966   0.443   2.874   8.122  0.3042 -0.0892  0.2681
  334MOL0     C44967   0.288   2.893   8.084  0.6352 -0.1291 -0.7396
  334MOL0     C44968   0.248   3.034   8.140 -0.8663 -0.0950 -0.6641
  334MOL0     C44969   0.094   3.053   8.143  0.4385  0.6808  0.3210
  334MOL0     C44970   0.035   3.152   8.237  0.0173 -0.2526 -0.1969
  334MOL0     C44971   0.028   3.303   8.198  0.1884 -0.3069 -0.3921
  334MOL0     N44972  -0.059   3.315   8.082 -0.1217 -0.0074  0.3623
  334MOL0     C44973  -0.019   3.349   7.954 -0.6564 -0.7935  0.7978
  334MOL0     C44974  -0.136   3.374   7.875  0.3085  0.2676 -0.2511
  334MOL0     C44975  -0.147   3.438   7.735  0.4136 -0.0441 -0.7450
  334MOL0     C44976  -0.280   3.520   7.742 -0.7995  0.0877 -0.2605
  334MOL0     C44977  -0.295   3.617   7.631 -0.0024  0.2230  0.1467
  334MOL0     C44978  -0.429   3.693   7.645  0.1168 -0.3468 -0.1166
  334MOL0     O44979  -0.454   3.772   7.522 -0.9259 -0.3487 -0.2366
  334MOL0     C44980  -0.579   3.827   7.517 -1.1793 -0.0822 -0.0890
  334MOL0     C44981  -0.656   3.860   7.623  0.0609 -0.3767 -0.5584
  334MOL0     C44982  -0.781   3.911   7.617 -0.3507 -0.1963  0.1692
  334MOL0     C44983  -0.856   3.925   7.747  0.3051 -0.7830 -0.7318
  334MOL0     C44984  -0.831   3.939   7.492 -0.0576  0.3402 -0.0308
  334MOL0     C44985  -0.959   4.009   7.467  0.7674 -0.4888 -0.0066
  334MOL0     O44986  -1.013   4.006   7.339  0.9846  0.4375  0.0013
  334MOL0     C44987  -1.143   4.055   7.315 -0.8609 -0.6432  0.7244
  334MOL0     C44988  -1.177   4.185   7.354  1.2180  0.7950  0.1714
  334MOL0     C44989  -1.313   4.234   7.326 -1.0771 -0.4679  0.4421
  334MOL0     C44990  -1.394   4.167   7.246 -0.4806 -0.3818 -0.4962
  334MOL0     O44991  -1.509   4.217   7.196 -0.2122 -0.3818 -0.3989
  334MOL0     C44992  -1.514   4.352   7.152  0.4856  0.0869  0.3470
  334MOL0     C44993  -1.662   4.370   7.105  0.8570 -1.1304  0.3648
  334MOL0     C44994  -1.769   4.347   7.204 -0.1523 -0.6761  0.6679
  334MOL0     C44995  -1.905   4.381   7.133 -0.8281 -0.1911  0.1058
  334MOL0     C44996  -1.966   4.279   7.039  0.2335  0.1608  0.4781
  334MOL0     C44997  -2.095   4.337   6.981 -0.4666 -0.5081 -0.2978
  334MOL0     C44998  -2.217   4.306   7.075 -0.0264 -0.7576  0.0457
  334MOL0     C44999  -2.344   4.291   6.986 -0.3721  0.3953 -0.0082
  334MOL0    Cl45000  -2.388   4.432   6.887  0.4110  0.1563  0.0152
  334MOL0     C45001  -1.371   4.033   7.219 -0.0434 -0.1371  0.0706
  334MOL0     C45002  -1.242   3.974   7.247 -0.0515 -0.2181  0.0662
  334MOL0     O45003  -1.012   4.062   7.563  0.2562  0.4600 -0.0072
  334MOL0     C45004  -0.752   3.917   7.378  0.0863 -0.3569 -0.1762
  334MOL0     C45005  -0.627   3.859   7.393 -0.1204 -0.7442 -0.6343
  334MOL0     N45006  -0.240   3.333   7.958  0.6973  0.0065 -0.6828
  334MOL0     N45007  -0.197   3.306   8.077  0.0838 -0.8904  0.1558
  334MOL0     C45008   0.951   2.717   8.038 -0.6324 -0.2384  0.7983
  334MOL0     C45009   1.089   2.733   8.045  0.7212 -0.4675  0.2491
  334MOL0     C45010   1.489   2.884   8.146 -0.1772 -0.5386 -0.4046
  334MOL0     C45011   1.536   2.880   8.277 -0.2013 -0.4846  0.2699
  334MOL0     C45012   1.668   2.861   8.294  0.0335  0.0465  0.0585
  334MOL0     C45013   1.755   2.848   8.187  0.4241 -0.4672 -0.3858
  334MOL0     O45014   1.892   2.823   8.195 -0.0805  0.6755  1.0194
  334MOL0     C45015   1.962   2.822   8.320 -0.1361  0.3472  0.8309
  334MOL0     C45016   2.118   2.817   8.305  0.2049 -0.2328  0.5240
  334MOL0     C45017   2.153   2.683   8.230 -0.2060 -0.9732 -0.0584
  334MOL0     C45018   2.308   2.681   8.216 -0.0946  0.5062 -0.4125
  334MOL0     C45019   2.356   2.581   8.120 -0.8938  0.0918 -0.3443
  334MOL0     C45020   2.394   2.499   8.044  0.7006 -0.2991  0.7627
  334MOL0     C45021   1.710   2.867   8.058  0.4128 -0.2462  0.7645
  334MOL0     C45022   1.572   2.872   8.038 -0.3857  0.1391 -0.1934
  334MOL0     H45023   1.117   3.055   7.955 -1.8432  0.1387 -0.8875
  334MOL0     H45024   0.875   3.034   7.953  1.1133  1.3638  0.6116
  334MOL0     H45025   0.659   2.616   7.997  0.1743  0.5619 -1.5465
  334MOL0     H45026   0.690   2.698   8.152  2.3959 -2.5374 -1.0311
  334MOL0     H45027   0.463   2.728   7.961  3.7934  3.7769 -3.4068
  334MOL0     H45028   0.460   2.663   8.131 -1.5040 -0.6237 -2.1860
  334MOL0     H45029   0.453   2.862   8.230  0.6618 -0.4108  0.2025
  334MOL0     H45030   0.514   2.954   8.097 -0.8092  1.3931  1.6652
  334MOL0     H45031   0.279   2.881   7.975  3.1036 -0.8568 -0.9206
  334MOL0     H45032   0.222   2.828   8.142 -0.6696  2.0741  0.3832
  334MOL0     H45033   0.290   3.048   8.239  0.7303  0.7338 -1.4238
  334MOL0     H45034   0.279   3.123   8.084  1.2370 -0.0564  0.4940
  334MOL0     H45035   0.072   3.089   8.042  1.3096 -0.1025 -0.1641
  334MOL0     H45036   0.042   2.958   8.159 -0.5088  0.8683 -1.4064
  334MOL0     H45037  -0.068   3.129   8.266 -0.1034 -1.2968 -1.3598
  334MOL0     H45038   0.097   3.149   8.328 -1.7779 -2.8053  1.0758
  334MOL0     H45039   0.125   3.353   8.185 -0.2359  0.2049 -1.7045
  334MOL0     H45040  -0.025   3.356   8.277  0.2129 -1.2492  0.2698
  334MOL0     H45041   0.080   3.368   7.912 -0.1936  0.9233  2.5200
  334MOL0     H45042  -0.058   3.501   7.725 -0.0348  0.3666 -2.2858
  334MOL0     H45043  -0.144   3.361   7.657  0.7346 -1.9208  1.0258
  334MOL0     H45044  -0.276   3.578   7.835  2.0251 -0.9829  0.4024
  334MOL0     H45045  -0.363   3.448   7.741 -1.7183  1.1241 -0.4263
  334MOL0     H45046  -0.293   3.582   7.527 -1.7731 -1.0512  0.4818
  334MOL0     H45047  -0.208   3.681   7.647  0.7089 -0.8378  0.6410
  334MOL0     H45048  -0.430   3.752   7.737  2.5429 -1.1456  0.4927
  334MOL0     H45049  -0.509   3.619   7.654 -0.9675  1.0351  3.0024
  334MOL0     H45050  -0.633   3.819   7.721 -3.6464  2.6085  1.8293
  334MOL0     H45051  -0.830   3.858   7.830  0.6042 -0.1296 -0.2824
  334MOL0     H45052  -0.859   4.027   7.787  1.3470 -1.5513  1.5230
  334MOL0     H45053  -0.954   3.884   7.723  1.5129 -2.5447 -3.0490
  334MOL0     H45054  -1.113   4.252   7.412 -0.3901  1.7700  0.9022
  334MOL0     H45055  -1.322   4.335   7.365 -1.4161  0.0328 -0.8672
  334MOL0     H45056  -1.513   4.431   7.228 -3.1993  1.4915 -0.8453
  334MOL0     H45057  -1.441   4.372   7.073  0.1785  0.6320  0.1955
  334MOL0     H45058  -1.680   4.474   7.073  1.1860 -0.8213  1.1687
  334MOL0     H45059  -1.685   4.298   7.027  0.4223 -0.8606  0.2361
  334MOL0     H45060  -1.754   4.410   7.293  0.1602  0.5766 -0.2389
  334MOL0     H45061  -1.757   4.244   7.238  0.1449 -1.1875 -0.9212
  334MOL0     H45062  -1.982   4.397   7.209 -1.7318 -1.8129 -0.4130
  334MOL0     H45063  -1.891   4.476   7.081 -0.0513  0.4171  1.3813
  334MOL0     H45064  -1.973   4.182   7.090 -0.8343 -0.0531 -0.0478
  334MOL0     H45065  -1.899   4.270   6.954  1.2983  2.8321  0.9482
  334MOL0     H45066  -2.083   4.445   6.964  3.9640 -0.4242  1.8966
  334MOL0     H45067  -2.120   4.287   6.888 -1.0293 -1.7124  0.4778
  334MOL0     H45068  -2.228   4.386   7.148 -1.7092  0.7872 -1.7890
  334MOL0     H45069  -2.216   4.216   7.138 -0.6913 -0.6253  0.2553
  334MOL0     H45070  -2.432   4.272   7.048 -0.3299  0.0052 -0.0638
  334MOL0     H45071  -2.338   4.207   6.916  3.1774 -1.1331  1.8907
  334MOL0     H45072  -1.448   3.979   7.164 -0.6407  1.3252 -0.5778
  334MOL0     H45073  -1.218   3.872   7.218  0.2634  0.6599 -3.1866
  334MOL0     H45074  -0.776   3.941   7.276 -1.9361  1.5577  0.6699
  334MOL0     H45075  -0.558   3.849   7.310 -0.0611  1.4140 -0.9076
  334MOL0     H45076   0.915   2.615   8.046  0.3944 -0.7099 -0.3057
  334MOL0     H45077   1.154   2.646   8.053  3.3953  1.4036 -0.0078
  334MOL0     H45078   1.474   2.868   8.365 -1.5033 -0.3416 -0.6069
  334MOL0     H45079   1.704   2.850   8.396 -3.1435 -1.6735  1.1666
  334MOL0     H45080   1.929   2.903   8.385  1.6572 -0.0825  2.3693
  334MOL0     H45081   1.946   2.732   8.380 -0.2662 -1.2304 -1.4487
  334MOL0     H45082   2.151   2.821   8.409 -1.6295  0.6725  1.1067
  334MOL0     H45083   2.152   2.906   8.251 -1.0177 -1.3711 -2.3397
  334MOL0     H45084   2.112   2.664   8.131  1.1960 -0.9469 -0.6757
  334MOL0     H45085   2.112   2.603   8.293 -3.7652  0.2281 -0.6186
  334MOL0     H45086   2.358   2.665   8.313 -1.2199 -1.1660 -0.0576
  334MOL0     H45087   2.345   2.775   8.175  1.3499  0.4717  0.6951
  334MOL0     H45088   2.394   2.419   7.973 -1.0448  0.3836 -0.0754
  334MOL0     H45089   1.767   2.840   7.969 -0.8898 -0.6344  0.0215
  334MOL0     H45090   1.525   2.882   7.941  1.5954 -1.5712 -1.3861
  335MOL0     O45091   6.880   6.910   0.734  0.0349  0.7466  0.6219
  335MOL0     C45092   6.912   6.968   0.625 -0.0996  0.2285  0.0035
  335MOL0     O45093   6.853   7.090   0.574 -0.0076  0.4605 -0.7151
  335MOL0     C45094   6.738   7.147   0.629 -0.3092 -0.0814 -0.3901
  335MOL0     C45095   6.634   7.077   0.678 -0.0413 -0.0380 -0.5589
  335MOL0     C45096   6.513   7.133   0.720  0.1476  0.3154 -0.4911
  335MOL0     C45097   6.498   7.272   0.705 -0.0240  0.3207 -0.4557
  335MOL0     O45098   6.391   7.345   0.738  0.1707 -0.3047 -0.7071
  335MOL0     C45099   6.276   7.274   0.786 -0.0134 -0.5183 -0.5862
  335MOL0     C45100   6.178   7.376   0.832 -0.3876  0.0745  0.0834
  335MOL0     C45101   6.123   7.480   0.737 -0.5346 -0.7254 -0.2899
  335MOL0     C45102   6.002   7.549   0.798  0.1456  0.6945  0.0004
  335MOL0     C45103   5.952   7.667   0.723 -0.2511  0.4377 -1.1943
  335MOL0     C45104   5.897   7.629   0.590  1.3057 -0.4754 -0.6563
  335MOL0     C45105   5.864   7.747   0.502 -0.5505 -0.2091 -0.1885
  335MOL0     C45106   5.988   7.805   0.432  0.0398 -0.4576  0.7735
  335MOL0     N45107   6.044   7.695   0.352 -0.1089  0.3185  0.9952
  335MOL0     C45108   6.168   7.644   0.372  0.5234  0.1921 -1.1466
  335MOL0     C45109   6.184   7.554   0.270 -0.0216 -0.5329  0.1007
  335MOL0     C45110   6.294   7.453   0.239  0.9362 -0.1185 -0.6207
  335MOL0     C45111   6.245   7.307   0.246 -0.4346  0.5643 -0.5825
  335MOL0     C45112   6.358   7.213   0.214  0.3664 -0.5926  0.4675
  335MOL0     C45113   6.323   7.062   0.218  0.1358  0.8724  0.1135
  335MOL0     O45114   6.237   7.025   0.111  0.0107  0.1560  0.8293
  335MOL0     C45115   6.282   6.962  -0.005  0.1709 -0.0580  0.3436
  335MOL0     C45116   6.185   6.891  -0.068  0.4913  0.5091  0.4413
  335MOL0     C45117   6.202   6.827  -0.187 -0.9098  0.2509 -0.6385
  335MOL0     C45118   6.089   6.739  -0.244 -0.3574 -0.0980 -0.5562
  335MOL0     C45119   6.333   6.826  -0.248 -0.3915 -0.3259  0.1790
  335MOL0     C45120   6.365   6.766  -0.380 -0.0089  0.1667  0.0321
  335MOL0     O45121   6.467   6.821  -0.462  0.0607 -0.0862  0.6395
  335MOL0     C45122   6.515   6.729  -0.556  0.6746  0.5194  0.5700
  335MOL0     C45123   6.636   6.669  -0.548 -0.1693 -0.3985  0.2942
  335MOL0     C45124   6.680   6.584  -0.641 -0.1664  0.2874  0.6102
  335MOL0     C45125   6.603   6.555  -0.756  0.0858 -0.8672 -0.7294
  335MOL0     O45126   6.644   6.482  -0.861 -0.1590  0.0157  0.2037
  335MOL0     C45127   6.720   6.362  -0.823 -0.1435 -0.8090  0.8933
  335MOL0     C45128   6.674   6.272  -0.938 -0.2679 -0.7910  0.3929
  335MOL0     C45129   6.733   6.133  -0.952  0.7568 -0.1076 -0.3377
  335MOL0     C45130   6.888   6.145  -0.966  0.1303 -1.2876  0.1389
  335MOL0     C45131   6.951   6.016  -1.005  0.3912 -0.5126 -0.3965
  335MOL0     C45132   7.105   6.004  -0.978 -0.3035  0.4469  0.7580
  335MOL0     C45133   7.166   5.876  -1.026  0.2209  0.4112  0.5599
  335MOL0     C45134   7.305   5.861  -0.970 -0.0788 -0.4304  0.0021
  335MOL0    Cl45135   7.408   5.969  -1.063 -0.2187  0.2406 -0.0881
  335MOL0     C45136   6.476   6.614  -0.769  0.7129 -0.4624  0.2280
  335MOL0     C45137   6.436   6.710  -0.676 -0.8599 -0.0212  0.1600
  335MOL0     O45138   6.312   6.663  -0.408 -0.2631 -0.3610  0.2799
  335MOL0     C45139   6.437   6.893  -0.183 -0.2355 -0.0119 -0.2451
  335MOL0     C45140   6.407   6.961  -0.058 -0.5083 -0.2926 -0.9294
  335MOL0     N45141   6.067   7.548   0.194  0.5901 -0.0003 -0.2059
  335MOL0     N45142   5.980   7.642   0.242 -1.0889  0.3041  0.3310
  335MOL0     C45143   6.602   7.342   0.640  0.9462  0.2525 -1.3213
  335MOL0     C45144   6.724   7.285   0.615 -0.1369  0.2358 -0.5745
  335MOL0     C45145   7.023   6.914   0.534  0.5825  0.1168 -1.1521
  335MOL0     C45146   7.105   6.810   0.583 -0.1780 -0.1707  0.1204
  335MOL0     C45147   7.222   6.769   0.511  0.4710 -0.6977  0.0712
  335MOL0     C45148   7.262   6.832   0.392 -0.0758 -1.1159 -0.9560
  335MOL0     O45149   7.378   6.815   0.324  0.4881  0.1225  0.4958
  335MOL0     C45150   7.491   6.754   0.383  0.2145 -0.1291 -0.1690
  335MOL0     C45151   7.606   6.763   0.289  1.1450 -0.4099  0.5750
  335MOL0     C45152   7.729   6.694   0.335 -0.1373  0.2515  0.2578
  335MOL0     C45153   7.846   6.732   0.239 -0.9181  0.0414 -0.0194
  335MOL0     C45154   7.973   6.680   0.293 -0.6524 -0.0501  0.1633
  335MOL0     C45155   8.075   6.624   0.325 -0.5912 -0.4533  0.1216
  335MOL0     C45156   7.173   6.929   0.346  0.7125 -0.3355 -0.9624
  335MOL0     C45157   7.064   6.977   0.419  0.5325 -0.6832 -0.8554
  335MOL0     H45158   6.636   6.969   0.666 -1.1585  0.1096 -2.2575
  335MOL0     H45159   6.435   7.060   0.740  1.1348 -1.3876 -2.5281
  335MOL0     H45160   6.237   7.217   0.701 -0.3805  0.3618 -1.0194
  335MOL0     H45161   6.282   7.212   0.875  0.1696  2.6486  1.7814
  335MOL0     H45162   6.092   7.330   0.881 -1.2977 -0.7265 -2.1310
  335MOL0     H45163   6.239   7.434   0.902 -0.3911  0.4011 -0.1831
  335MOL0     H45164   6.202   7.556   0.729 -0.7646 -0.4554 -0.0322
  335MOL0     H45165   6.107   7.434   0.639 -1.7614 -1.7579  0.3761
  335MOL0     H45166   5.921   7.476   0.796  0.7552  0.0072 -2.3769
  335MOL0     H45167   6.031   7.568   0.902  1.6333 -3.7863  0.5861
  335MOL0     H45168   5.860   7.706   0.767 -0.0887 -0.2909 -0.1931
  335MOL0     H45169   6.028   7.745   0.716 -0.5600  0.9295  0.5727
  335MOL0     H45170   5.956   7.552   0.539 -0.4076 -1.5879 -1.0490
  335MOL0     H45171   5.803   7.579   0.616  0.7996 -0.0337 -1.5867
  335MOL0     H45172   5.793   7.710   0.427 -0.8081 -0.3054  0.1050
  335MOL0     H45173   5.830   7.829   0.566 -2.6907 -1.7436  0.7514
  335MOL0     H45174   6.061   7.852   0.499  0.6495 -2.1399  1.3372
  335MOL0     H45175   5.949   7.881   0.363  0.1535 -2.1806 -1.3039
  335MOL0     H45176   6.229   7.693   0.447 -0.6879  1.0484 -0.6905
  335MOL0     H45177   6.353   7.474   0.149  1.0752  3.3587  0.1185
  335MOL0     H45178   6.366   7.460   0.322 -1.0773  2.6870  1.0969
  335MOL0     H45179   6.157   7.288   0.184 -0.1041 -0.6495 -0.7131
  335MOL0     H45180   6.211   7.284   0.348  2.9788 -2.2016  0.1495
  335MOL0     H45181   6.428   7.235   0.295 -3.2836 -0.3548  3.8814
  335MOL0     H45182   6.396   7.250   0.119 -1.3883  1.4788  0.5055
  335MOL0     H45183   6.269   7.042   0.312  0.2227  1.8763  0.3919
  335MOL0     H45184   6.417   7.006   0.215 -1.5475 -2.3027  1.5691
  335MOL0     H45185   6.084   6.882  -0.029 -0.3933 -1.6309 -2.1034
  335MOL0     H45186   5.993   6.762  -0.196 -1.5370 -2.0977 -1.8549
  335MOL0     H45187   6.081   6.736  -0.353  3.2533 -2.8744 -0.9340
  335MOL0     H45188   6.122   6.639  -0.215 -0.0437  0.5006  1.2909
  335MOL0     H45189   6.690   6.689  -0.455 -0.5858 -1.2533  0.7309
  335MOL0     H45190   6.771   6.529  -0.622 -0.0838 -0.7897 -2.3055
  335MOL0     H45191   6.827   6.380  -0.818 -0.1645 -0.9568  2.5933
  335MOL0     H45192   6.707   6.323  -0.721  0.7985 -0.4164  1.1665
  335MOL0     H45193   6.566   6.265  -0.921 -0.3246 -1.7855 -0.2232
  335MOL0     H45194   6.684   6.324  -1.034 -3.2848  1.7707  1.3144
  335MOL0     H45195   6.682   6.091  -1.039 -0.6437 -0.7289  0.7499
  335MOL0     H45196   6.717   6.071  -0.863  0.7589  1.8175  1.0496
  335MOL0     H45197   6.914   6.216  -1.045  0.4433 -2.4792 -0.8521
  335MOL0     H45198   6.936   6.174  -0.871 -0.8326 -1.0400  0.5601
  335MOL0     H45199   6.932   5.991  -1.110  2.6332 -1.8268 -0.5548
  335MOL0     H45200   6.899   5.934  -0.956  2.9360 -0.1931  3.2169
  335MOL0     H45201   7.153   6.089  -1.029  1.5455 -1.5014 -0.9448
  335MOL0     H45202   7.133   6.013  -0.873  0.0277 -0.4414  0.7539
  335MOL0     H45203   7.172   5.872  -1.136  1.4903 -2.4788  0.6564
  335MOL0     H45204   7.114   5.789  -0.985  0.8742 -0.1473  0.2127
  335MOL0     H45205   7.332   5.757  -0.989 -4.5796 -1.9220  0.6166
  335MOL0     H45206   7.306   5.884  -0.863  0.0336 -1.3286  0.2016
  335MOL0     H45207   6.423   6.590  -0.861 -1.2217 -0.6256  1.3243
  335MOL0     H45208   6.347   6.770  -0.696  1.0823  2.9871 -0.1853
  335MOL0     H45209   6.537   6.907  -0.223  0.4494  0.7078  1.6074
  335MOL0     H45210   6.495   7.010  -0.018 -0.9342 -1.9695  2.4283
  335MOL0     H45211   6.589   7.450   0.635 -1.7554  0.5937  4.5494
  335MOL0     H45212   6.811   7.344   0.588 -0.4707  1.7750  1.4043
  335MOL0     H45213   7.072   6.746   0.664  1.7249 -1.4481 -0.0548
  335MOL0     H45214   7.272   6.678   0.542 -1.7556 -3.1439 -2.8901
  335MOL0     H45215   7.501   6.814   0.474 -3.4924  0.0158  0.3007
  335MOL0     H45216   7.464   6.651   0.408 -1.0550 -0.3605 -2.2373
  335MOL0     H45217   7.633   6.869   0.284 -0.2632 -0.0747 -1.0278
  335MOL0     H45218   7.579   6.726   0.189  0.0080 -0.7352  0.9873
  335MOL0     H45219   7.719   6.585   0.339  2.8339 -0.2614 -2.5220
  335MOL0     H45220   7.738   6.729   0.438 -3.0264 -0.3498  0.8141
  335MOL0     H45221   7.853   6.838   0.214 -1.9559  0.1312  0.0237
  335MOL0     H45222   7.840   6.685   0.140 -0.6100  2.1098 -1.0932
  335MOL0     H45223   8.167   6.569   0.337 -1.5190 -2.3116 -0.8098
  335MOL0     H45224   7.193   6.985   0.255 -0.5130  0.8599 -0.5257
  335MOL0     H45225   7.007   7.057   0.372  1.9560  1.9216  1.5683
  336MOL0     O45226  10.062   9.377   0.391  0.1623  0.3811  0.0670
  336MOL0     C45227  10.103   9.268   0.347  0.0431  0.1758 -0.5157
  336MOL0     O45228  10.029   9.171   0.292 -0.2798 -0.0318  0.0692
  336MOL0     C45229   9.889   9.174   0.307 -0.1393 -0.4172  0.2434
  336MOL0     C45230   9.817   9.190   0.189  0.4833 -0.0763 -0.1465
  336MOL0     C45231   9.673   9.202   0.190  0.3830  0.2163 -0.1430
  336MOL0     C45232   9.605   9.196   0.311  0.7666 -0.5801  0.4419
  336MOL0     O45233   9.471   9.195   0.300 -0.0689  0.6087  0.4757
  336MOL0     C45234   9.383   9.270   0.384  0.0269 -0.1650 -0.6608
  336MOL0     C45235   9.242   9.218   0.362 -0.0089 -0.1036 -0.4623
  336MOL0     C45236   9.137   9.287   0.445 -0.0253 -0.2986  0.8389
  336MOL0     C45237   9.013   9.195   0.443 -0.5591  0.7647 -0.6081
  336MOL0     C45238   8.903   9.275   0.510  0.6500 -0.2567  1.1118
  336MOL0     C45239   8.773   9.194   0.530 -0.4757  0.0571 -1.1330
  336MOL0     C45240   8.684   9.254   0.638 -0.0167  0.2586  0.9975
  336MOL0     C45241   8.560   9.169   0.655 -0.3628 -0.4750  0.2040
  336MOL0     N45242   8.453   9.220   0.743 -0.4419 -1.0757  0.5739
  336MOL0     C45243   8.359   9.313   0.699 -0.5990  0.2092 -1.1164
  336MOL0     C45244   8.278   9.335   0.801  0.7124  0.1353 -0.2877
  336MOL0     C45245   8.150   9.424   0.789 -0.0430  0.4560 -0.2124
  336MOL0     C45246   8.135   9.502   0.925 -0.1989  0.0557  0.6055
  336MOL0     C45247   8.063   9.627   0.912 -0.0433  0.3688  0.6691
  336MOL0     C45248   7.924   9.621   0.855  0.1573 -0.2105 -0.3221
  336MOL0     O45249   7.848   9.733   0.896 -0.0476  0.5142  0.1154
  336MOL0     C45250   7.702   9.725   0.894  0.0684  0.3904  0.7891
  336MOL0     C45251   7.623   9.651   0.985  0.6163 -0.8072  0.1021
  336MOL0     C45252   7.478   9.651   0.978  0.0257  0.0866  0.6204
  336MOL0     C45253   7.409   9.612   1.107 -0.9225 -0.0914  0.4053
  336MOL0     C45254   7.420   9.709   0.858  0.6101  0.2608  0.6688
  336MOL0     C45255   7.275   9.705   0.847 -0.1216  0.4345  0.6486
  336MOL0     O45256   7.213   9.799   0.769  0.4222 -0.5499 -0.0479
  336MOL0     C45257   7.073   9.815   0.771 -0.1659 -0.9009  0.2340
  336MOL0     C45258   7.015   9.940   0.783  0.7073 -0.3713 -0.2667
  336MOL0     C45259   6.872   9.954   0.791 -0.0390 -0.3637  0.1649
  336MOL0     C45260   6.791   9.842   0.772  0.0043  0.2753  0.2057
  336MOL0     O45261   6.661   9.838   0.763 -0.7448  0.2158 -0.4922
  336MOL0     C45262   6.580   9.904   0.864  1.1879  0.1717  0.8023
  336MOL0     C45263   6.428   9.884   0.834  0.1011  0.4841 -0.2063
  336MOL0     C45264   6.372   9.743   0.844 -0.7968 -0.0487  0.0058
  336MOL0     C45265   6.226   9.725   0.825  0.0772 -0.0428 -0.8678
  336MOL0     C45266   6.179   9.805   0.701  0.5100 -0.1334 -0.7659
  336MOL0     C45267   6.029   9.780   0.680 -0.1629 -0.4325  0.4858
  336MOL0     C45268   5.994   9.634   0.655  0.9236 -0.1027  0.1000
  336MOL0     C45269   5.858   9.609   0.590  0.3686  0.3603 -0.7520
  336MOL0    Cl45270   5.873   9.662   0.418  0.0014 -0.3148 -0.4015
  336MOL0     C45271   6.851   9.716   0.762 -0.4027 -0.3573 -1.2262
  336MOL0     C45272   6.990   9.704   0.768 -0.1627  0.4267  0.4619
  336MOL0     O45273   7.219   9.612   0.905 -0.6205  0.0562  0.1868
  336MOL0     C45274   7.502   9.777   0.759  0.5987 -0.0588 -0.7923
  336MOL0     C45275   7.640   9.784   0.787  0.2954  0.0009 -0.4870
  336MOL0     N45276   8.333   9.274   0.916  0.2453  0.0230 -0.4226
  336MOL0     N45277   8.430   9.198   0.870 -0.3757  0.5067 -0.1437
  336MOL0     C45278   9.677   9.191   0.428  0.2207 -0.6927 -0.3931
  336MOL0     C45279   9.816   9.184   0.430 -0.8564  0.3988  0.5146
  336MOL0     C45280  10.244   9.230   0.351 -0.4481 -0.3307 -0.1752
  336MOL0     C45281  10.329   9.317   0.419 -0.6502 -0.1503  0.8150
  336MOL0     C45282  10.467   9.289   0.423 -1.1021  0.3983 -0.2167
  336MOL0     C45283  10.514   9.174   0.356 -0.2864  0.6797  0.7050
  336MOL0     O45284  10.650   9.144   0.374 -0.4025 -0.6078  0.2848
  336MOL0     C45285  10.715   9.042   0.297 -0.1051 -0.3634 -0.3904
  336MOL0     C45286  10.857   9.031   0.353  0.0749 -0.5334  0.7248
  336MOL0     C45287  10.862   8.941   0.485  0.3842  0.3048 -0.2040
  336MOL0     C45288  10.892   9.031   0.606  0.3701 -0.4006 -0.5013
  336MOL0     C45289  10.912   8.949   0.725 -0.1755 -0.3825 -0.1697
  336MOL0     C45290  10.938   8.889   0.827 -0.4744  0.8410  0.4881
  336MOL0     C45291  10.432   9.093   0.281 -0.3406 -0.4338  1.5325
  336MOL0     C45292  10.299   9.127   0.280 -0.2624 -0.1472  0.6373
  336MOL0     H45293   9.855   9.190   0.088 -0.9607  1.0207 -0.7321
  336MOL0     H45294   9.626   9.207   0.092  1.4175 -1.5858 -0.7957
  336MOL0     H45295   9.407   9.267   0.491 -2.1119 -0.0722 -0.1138
  336MOL0     H45296   9.371   9.373   0.350  1.5359  1.0108  2.0390
  336MOL0     H45297   9.219   9.230   0.256  1.2555 -1.3213 -0.9123
  336MOL0     H45298   9.237   9.111   0.383  1.7478  0.2351  2.1846
  336MOL0     H45299   9.159   9.312   0.549  0.6851  1.1670  0.3627
  336MOL0     H45300   9.116   9.380   0.390 -0.4265 -1.7048 -1.5133
  336MOL0     H45301   8.988   9.152   0.346  2.4989 -1.1828 -0.6678
  336MOL0     H45302   9.048   9.108   0.499  1.1883  0.6914 -1.7241
  336MOL0     H45303   8.937   9.305   0.609  1.4199 -2.7111  1.6504
  336MOL0     H45304   8.883   9.366   0.453  0.0752  0.2966  2.1629
  336MOL0     H45305   8.726   9.187   0.431 -1.8945  0.4091 -0.5097
  336MOL0     H45306   8.795   9.091   0.560  0.0945  1.0275  2.0681
  336MOL0     H45307   8.745   9.242   0.728  0.2912 -3.1478  0.4697
  336MOL0     H45308   8.669   9.360   0.619  0.1247 -0.0776 -1.2814
  336MOL0     H45309   8.591   9.073   0.698 -2.1539 -1.9526 -1.5540
  336MOL0     H45310   8.523   9.146   0.554  2.2050  0.5581 -1.0705
  336MOL0     H45311   8.353   9.359   0.601 -3.1915 -0.3584 -1.2772
  336MOL0     H45312   8.159   9.497   0.708 -1.7361 -1.4558 -2.2687
  336MOL0     H45313   8.060   9.362   0.781 -0.7450  0.9978  2.5900
  336MOL0     H45314   8.231   9.519   0.976  0.7201 -3.3089  0.1793
  336MOL0     H45315   8.080   9.435   0.991  0.2801 -1.9865 -0.9837
  336MOL0     H45316   8.123   9.697   0.853  0.8757 -0.2273  0.8771
  336MOL0     H45317   8.054   9.674   1.011 -1.9988  1.0663  0.2175
  336MOL0     H45318   7.868   9.531   0.884  1.4084  0.1700  3.9982
  336MOL0     H45319   7.933   9.628   0.747 -1.2332  1.1342 -0.3810
  336MOL0     H45320   7.667   9.596   1.068  0.2202  1.5866  2.0072
  336MOL0     H45321   7.478   9.623   1.191  1.5341  0.0715 -1.5126
  336MOL0     H45322   7.325   9.678   1.132 -2.0213 -1.2472 -0.1452
  336MOL0     H45323   7.386   9.506   1.117 -2.0924  0.1627  0.4859
  336MOL0     H45324   7.079  10.026   0.800  0.6749 -0.8554  3.1304
  336MOL0     H45325   6.803  10.035   0.808 -1.0383 -1.6395  2.8504
  336MOL0     H45326   6.611   9.871   0.964  0.0389  1.7830  1.7389
  336MOL0     H45327   6.601  10.011   0.854  3.2824 -0.3110 -0.4005
  336MOL0     H45328   6.366   9.945   0.900 -0.8766  0.6043 -1.2164
  336MOL0     H45329   6.420   9.914   0.729 -1.9157 -0.2566 -0.3039
  336MOL0     H45330   6.413   9.698   0.935  0.4619  2.6206  0.8885
  336MOL0     H45331   6.419   9.681   0.767 -1.9350  0.3392 -1.0356
  336MOL0     H45332   6.213   9.617   0.809  2.3797 -0.7977  1.6257
  336MOL0     H45333   6.170   9.741   0.918 -2.8684 -0.9803 -2.3497
  336MOL0     H45334   6.243   9.782   0.616  0.6980 -0.2921 -0.5838
  336MOL0     H45335   6.192   9.913   0.712  1.4914 -0.2908 -0.2602
  336MOL0     H45336   5.973   9.819   0.766  2.3037  6.2232 -0.3290
  336MOL0     H45337   5.994   9.833   0.591  0.5523 -0.1369  0.3752
  336MOL0     H45338   5.983   9.578   0.749  0.7050 -0.1239  0.0613
  336MOL0     H45339   6.074   9.583   0.600  2.4530 -0.0157  2.1307
  336MOL0     H45340   5.789   9.667   0.652  1.2137  0.2735  0.3035
  336MOL0     H45341   5.833   9.503   0.600 -4.0310  1.4198  2.1015
  336MOL0     H45342   6.796   9.622   0.757 -0.6492 -0.2888 -0.1501
  336MOL0     H45343   7.039   9.607   0.763  1.3639  1.2221 -3.0715
  336MOL0     H45344   7.455   9.843   0.687  2.5762 -0.5991 -2.6733
  336MOL0     H45345   7.714   9.837   0.727  0.4866  3.4206  2.4399
  336MOL0     H45346   9.629   9.198   0.526  2.1877  1.6739  0.4974
  336MOL0     H45347   9.868   9.197   0.524 -0.7294  3.9096  0.0930
  336MOL0     H45348  10.306   9.413   0.462 -1.5482  0.5805 -1.1845
  336MOL0     H45349  10.527   9.359   0.480 -1.9459  0.6276  0.4096
  336MOL0     H45350  10.653   8.951   0.288  2.6438 -2.2115 -2.1908
  336MOL0     H45351  10.723   9.073   0.192  0.0711  0.1855 -0.2159
  336MOL0     H45352  10.902   9.131   0.354 -1.1582  0.0353  1.8114
  336MOL0     H45353  10.917   8.977   0.279 -1.8420  0.9086 -2.1085
  336MOL0     H45354  10.935   8.860   0.483 -0.6675 -0.6768  0.1370
  336MOL0     H45355  10.766   8.890   0.500  0.4245  0.1923 -0.3318
  336MOL0     H45356  10.813   9.103   0.628  0.5793 -1.0436  2.9475
  336MOL0     H45357  10.986   9.079   0.574 -0.4425 -0.6507 -3.5834
  336MOL0     H45358  10.968   8.837   0.915 -0.4822 -0.8954 -0.4873
  336MOL0     H45359  10.454   9.005   0.221 -0.7849 -0.1462  0.9380
  336MOL0     H45360  10.234   9.077   0.209 -0.3109  0.1460  0.4739
  337MOL0     O45361   4.244   8.505  11.096  0.0049 -0.0429  0.0003
  337MOL0     C45362   4.186   8.454  11.003  0.1529 -0.2076  0.7006
  337MOL0     O45363   4.246   8.387  10.901 -0.4516  0.2131  0.4999
  337MOL0     C45364   4.379   8.394  10.883 -0.1214  0.1596  0.2475
  337MOL0     C45365   4.451   8.512  10.861 -0.0145 -0.1461 -0.0587
  337MOL0     C45366   4.586   8.504  10.810 -0.1047 -0.0095 -0.2033
  337MOL0     C45367   4.658   8.386  10.806  1.3041 -0.6333  0.8316
  337MOL0     O45368   4.787   8.372  10.756 -0.2372  0.1401  0.5070
  337MOL0     C45369   4.859   8.495  10.730 -0.1517  0.3293 -0.0552
  337MOL0     C45370   5.010   8.470  10.751  0.2820  0.2654 -0.0708
  337MOL0     C45371   5.090   8.605  10.728 -0.1900  0.5791 -0.6825
  337MOL0     C45372   5.099   8.685  10.860 -0.2261  0.0549 -0.6762
  337MOL0     C45373   5.194   8.801  10.830  0.7191 -0.1798 -0.1639
  337MOL0     C45374   5.340   8.779  10.858 -0.3116 -0.0253  0.5053
  337MOL0     C45375   5.419   8.906  10.835 -0.4893  0.2514 -0.6874
  337MOL0     C45376   5.572   8.887  10.861 -0.7673 -0.2236  0.9041
  337MOL0     N45377   5.625   9.007  10.791  0.0877 -0.5619  0.0417
  337MOL0     C45378   5.657   9.022  10.661 -0.4026 -0.6051 -0.5067
  337MOL0     C45379   5.719   9.145  10.658  1.1875 -0.9836  1.0343
  337MOL0     C45380   5.770   9.206  10.529 -0.1722 -0.0020 -1.3307
  337MOL0     C45381   5.657   9.281  10.456  0.6382 -0.1036 -0.7967
  337MOL0     C45382   5.526   9.211  10.428 -0.1259  0.4947 -0.7748
  337MOL0     C45383   5.423   9.307  10.365 -0.3241 -0.1127 -0.3877
  337MOL0     O45384   5.305   9.253  10.303  0.1553  0.2219  0.1585
  337MOL0     C45385   5.205   9.210  10.383 -0.5055  0.0001  0.4693
  337MOL0     C45386   5.187   9.221  10.525 -0.1261  0.4878  0.1280
  337MOL0     C45387   5.072   9.173  10.585 -0.9624  0.3955 -0.6832
  337MOL0     C45388   5.079   9.147  10.743  0.8384  0.2390 -0.8666
  337MOL0     C45389   4.956   9.142  10.506 -0.5143 -0.7454 -0.3042
  337MOL0     C45390   4.827   9.097  10.560 -0.2889  0.5736  0.3021
  337MOL0     O45391   4.734   9.053  10.473 -0.0437 -0.4050 -0.4468
  337MOL0     C45392   4.614   9.017  10.525  0.0674  0.5126  0.6171
  337MOL0     C45393   4.594   8.887  10.575  0.1374  0.0232 -0.0303
  337MOL0     C45394   4.469   8.847  10.623 -0.1863 -0.4413 -0.0604
  337MOL0     C45395   4.363   8.940  10.624 -0.3984 -0.0444  0.2334
  337MOL0     O45396   4.241   8.928  10.684 -0.2064  0.8100  0.1511
  337MOL0     C45397   4.208   8.801  10.734  0.5331 -0.4360  0.3745
  337MOL0     C45398   4.062   8.797  10.778  0.1678  0.3523 -0.5756
  337MOL0     C45399   3.953   8.808  10.676  0.9960 -0.0999  0.5553
  337MOL0     C45400   3.823   8.767  10.732  0.2718 -0.5559 -0.4179
  337MOL0     C45401   3.717   8.806  10.625  0.5172  0.0376 -0.7078
  337MOL0     C45402   3.574   8.752  10.662  0.0785 -0.0965 -0.0918
  337MOL0     C45403   3.464   8.806  10.571 -0.3767  0.2384 -0.1894
  337MOL0     C45404   3.446   8.728  10.438  0.2689 -0.4127 -0.6779
  337MOL0    Cl45405   3.427   8.547  10.462  0.1679  0.7751  0.6417
  337MOL0     C45406   4.391   9.069  10.576 -0.6302  0.5657  0.4129
  337MOL0     C45407   4.512   9.108  10.525 -0.5723  0.1477  0.4375
  337MOL0     O45408   4.802   9.101  10.680  0.1476  0.5272  0.1127
  337MOL0     C45409   4.974   9.138  10.372 -0.2730 -0.0111  0.4442
  337MOL0     C45410   5.095   9.172  10.312 -0.2329  0.1218 -0.2063
  337MOL0     N45411   5.730   9.206  10.778  0.4659 -0.7401  0.4294
  337MOL0     N45412   5.652   9.131  10.857 -0.7929  0.0527  0.1230
  337MOL0     C45413   4.584   8.280  10.828 -0.2473  0.8325  0.3666
  337MOL0     C45414   4.447   8.274  10.864 -0.2638  0.5110  0.6425
  337MOL0     C45415   4.039   8.448  11.005 -0.1841  0.9856  0.5386
  337MOL0     C45416   3.968   8.521  11.101 -0.1285 -0.1851  1.1356
  337MOL0     C45417   3.823   8.524  11.097  0.1962 -0.1372  0.6862
  337MOL0     C45418   3.752   8.459  10.989 -0.4148  0.1328 -1.0272
  337MOL0     O45419   3.613   8.466  10.971 -0.0950 -0.5593 -0.1164
  337MOL0     C45420   3.550   8.585  11.025 -0.2750  0.9767 -0.7485
  337MOL0     C45421   3.400   8.552  11.031  0.4912 -0.9607  0.1734
  337MOL0     C45422   3.346   8.493  10.894  0.0342 -0.6369  0.4879
  337MOL0     C45423   3.197   8.498  10.886 -0.7689 -0.1521  0.0392
  337MOL0     C45424   3.152   8.479  10.751  0.6329 -0.2462 -0.4239
  337MOL0     C45425   3.093   8.461  10.645  0.5177 -0.7996  0.2615
  337MOL0     C45426   3.832   8.387  10.898  0.0259 -0.4477  1.0698
  337MOL0     C45427   3.969   8.383  10.904  0.5079  0.1279  1.0548
  337MOL0     H45428   4.400   8.607  10.874 -2.5901 -1.5467  0.8553
  337MOL0     H45429   4.632   8.599  10.785  1.5096 -0.7995 -0.3310
  337MOL0     H45430   4.840   8.529  10.628  2.9150  1.3920 -0.3743
  337MOL0     H45431   4.825   8.566  10.806  0.1380  1.0839 -0.6275
  337MOL0     H45432   5.016   8.436  10.855 -2.3911  2.5406  0.9713
  337MOL0     H45433   5.034   8.387  10.685 -1.7954 -1.6426  1.4317
  337MOL0     H45434   5.192   8.582  10.697 -0.8025  1.9171 -4.1940
  337MOL0     H45435   5.049   8.653  10.639  1.2527  0.6692 -1.3307
  337MOL0     H45436   4.997   8.715  10.888 -1.3024 -1.7181 -2.3721
  337MOL0     H45437   5.143   8.617  10.933  0.3462  1.7806  0.6338
  337MOL0     H45438   5.180   8.835  10.727  0.3075  0.1163 -0.0120
  337MOL0     H45439   5.162   8.886  10.891  1.5077 -1.2092  1.7755
  337MOL0     H45440   5.348   8.759  10.966 -1.9819 -1.7533  0.3481
  337MOL0     H45441   5.374   8.699  10.793  0.3839  0.7600 -0.1204
  337MOL0     H45442   5.402   8.941  10.732 -0.4260  0.0163 -0.7779
  337MOL0     H45443   5.375   8.984  10.898 -1.1850 -0.8226  0.1909
  337MOL0     H45444   5.603   8.795  10.811 -2.7184 -0.5298  0.1940
  337MOL0     H45445   5.606   8.882  10.965 -1.2899  0.4299  1.1200
  337MOL0     H45446   5.642   8.941  10.590 -0.4245 -1.7075  0.6994
  337MOL0     H45447   5.845   9.282  10.554 -2.0381  1.1716  1.1703
  337MOL0     H45448   5.819   9.129  10.470  0.5986  0.5475 -1.4297
  337MOL0     H45449   5.687   9.317  10.357  1.0227  1.3644 -0.1776
  337MOL0     H45450   5.630   9.368  10.517  0.1101 -0.0367 -1.1216
  337MOL0     H45451   5.482   9.178  10.522 -0.1547  2.0964 -0.1903
  337MOL0     H45452   5.550   9.127  10.362  1.4024  0.4371 -0.1835
  337MOL0     H45453   5.482   9.354  10.286  0.5080 -0.1363  0.2138
  337MOL0     H45454   5.394   9.388  10.432  0.6111  0.4431 -0.6448
  337MOL0     H45455   5.273   9.260  10.579  0.6197  2.1698 -2.1080
  337MOL0     H45456   5.024   9.227  10.793  0.3592 -0.5549 -0.1158
  337MOL0     H45457   5.032   9.052  10.770  3.4035 -0.7102  0.5383
  337MOL0     H45458   5.185   9.143  10.771  1.3650  0.8623 -2.6339
  337MOL0     H45459   4.680   8.820  10.573  0.4097  0.3815 -1.2461
  337MOL0     H45460   4.468   8.758  10.685  5.1245  0.7217  2.2097
  337MOL0     H45461   4.220   8.728  10.653 -2.5308 -0.7387  0.0773
  337MOL0     H45462   4.270   8.783  10.823  0.5771  1.4576  0.7583
  337MOL0     H45463   4.050   8.707  10.838 -3.0867  1.0636  0.0101
  337MOL0     H45464   4.062   8.870  10.859  3.1498 -2.7454  2.6122
  337MOL0     H45465   3.979   8.755  10.584  1.4775  0.7287  0.2012
  337MOL0     H45466   3.943   8.911  10.643  0.7555 -0.0443  0.7985
  337MOL0     H45467   3.818   8.662  10.762  2.0697 -0.6143 -0.2593
  337MOL0     H45468   3.804   8.831  10.819 -1.3050  0.5444 -1.5115
  337MOL0     H45469   3.740   8.767  10.525  1.5327  2.9015 -1.6822
  337MOL0     H45470   3.723   8.914  10.618  2.7974 -0.1447 -2.9390
  337MOL0     H45471   3.574   8.643  10.657 -1.2168 -0.1831  1.2951
  337MOL0     H45472   3.549   8.784  10.763 -2.4273  1.4860 -1.1101
  337MOL0     H45473   3.482   8.910  10.542  0.4265  0.6647  1.6677
  337MOL0     H45474   3.372   8.803  10.630 -0.0195  0.5167  0.3899
  337MOL0     H45475   3.536   8.742  10.377  0.5215  2.9823  0.3182
  337MOL0     H45476   3.359   8.770  10.388 -0.0626  2.3027  1.9334
  337MOL0     H45477   4.314   9.145  10.577 -0.7066  0.5292 -1.0985
  337MOL0     H45478   4.528   9.203  10.477 -2.3463  0.9367  1.3234
  337MOL0     H45479   4.898   9.102  10.304  0.6375 -2.5213  0.6471
  337MOL0     H45480   5.099   9.185  10.204 -2.7785 -0.1343 -0.3986
  337MOL0     H45481   4.642   8.191  10.806 -0.6022  1.2498 -2.7260
  337MOL0     H45482   4.398   8.177  10.869 -0.0543  0.4162  0.9311
  337MOL0     H45483   4.019   8.584  11.173  1.7176  0.6381 -0.7610
  337MOL0     H45484   3.774   8.576  11.178  0.4553  0.1009  0.6922
  337MOL0     H45485   3.580   8.615  11.125  0.2841 -0.7725 -0.3554
  337MOL0     H45486   3.568   8.674  10.964  1.8675  1.6416  0.7647
  337MOL0     H45487   3.343   8.642  11.056  1.0850 -0.0257 -1.6444
  337MOL0     H45488   3.389   8.477  11.110  1.5338  0.5479  1.8099
  337MOL0     H45489   3.377   8.390  10.878  1.1076 -0.0162 -1.9625
  337MOL0     H45490   3.390   8.548  10.810 -0.0206 -0.0854  0.8138
  337MOL0     H45491   3.153   8.591  10.923 -0.0740  0.6183 -1.0301
  337MOL0     H45492   3.153   8.424  10.954  1.6146 -0.2937  1.5469
  337MOL0     H45493   3.064   8.450  10.542  4.1129  0.8010 -1.1022
  337MOL0     H45494   3.789   8.331  10.816 -1.6839  0.8648  1.0322
  337MOL0     H45495   4.017   8.322  10.829 -0.6100 -2.1564  2.1017
  338MOL0     O45496   7.411   3.759   9.198 -0.4761  0.4472 -0.9450
  338MOL0     C45497   7.476   3.730   9.093 -0.3955  1.3080 -0.3749
  338MOL0     O45498   7.446   3.624   9.008 -0.1483  0.2724 -0.3042
  338MOL0     C45499   7.364   3.525   9.039 -0.1945 -0.4329 -0.7429
  338MOL0     C45500   7.232   3.537   9.001 -0.1846  0.2414  0.2357
  338MOL0     C45501   7.138   3.439   9.026  0.1987  0.6551  0.1175
  338MOL0     C45502   7.172   3.332   9.105 -1.1732  0.9062  0.8826
  338MOL0     O45503   7.071   3.239   9.138  1.0826 -0.0581  0.2680
  338MOL0     C45504   6.953   3.305   9.193 -1.1319 -0.5024 -0.2094
  338MOL0     C45505   6.868   3.207   9.280 -0.2556 -0.4929 -0.3636
  338MOL0     C45506   6.788   3.111   9.199  0.3439 -0.2153  0.2486
  338MOL0     C45507   6.701   3.026   9.295 -0.5583 -0.4795 -0.1632
  338MOL0     C45508   6.583   3.114   9.326  0.3305  0.3637 -0.4338
  338MOL0     C45509   6.480   3.043   9.407  0.6294 -0.1586  0.4900
  338MOL0     C45510   6.368   3.132   9.451  0.0952 -0.0225  0.2565
  338MOL0     C45511   6.267   3.063   9.536  0.5531  0.8291  0.8440
  338MOL0     N45512   6.141   3.143   9.543  0.2356 -0.3723  0.2260
  338MOL0     C45513   6.043   3.124   9.641 -0.7241 -0.0944 -1.3322
  338MOL0     C45514   5.941   3.199   9.606  0.7420  0.7744  0.0924
  338MOL0     C45515   5.813   3.232   9.679  0.4601  1.1766  0.1075
  338MOL0     C45516   5.803   3.173   9.819  0.2047 -0.2217  0.2205
  338MOL0     C45517   5.680   3.230   9.878  0.6439  0.3045  0.2694
  338MOL0     C45518   5.628   3.130   9.985 -0.2457  0.0264  0.1200
  338MOL0     O45519   5.717   3.113  10.096  0.6327 -0.1584 -0.4190
  338MOL0     C45520   5.665   3.075  10.219  0.8364 -0.0131 -0.0593
  338MOL0     C45521   5.762   3.092  10.311  0.6503  0.1562 -0.0819
  338MOL0     C45522   5.738   3.067  10.441  0.3867  0.3980  0.6074
  338MOL0     C45523   5.855   3.080  10.532  0.7663  0.3274 -0.1957
  338MOL0     C45524   5.609   3.011  10.480 -0.7321 -0.3801  0.2207
  338MOL0     C45525   5.562   2.972  10.621  0.0851  0.6069  0.3870
  338MOL0     O45526   5.659   2.939  10.711 -0.8866  0.6282  0.3307
  338MOL0     C45527   5.632   2.905  10.841  0.7203 -0.3155  0.9672
  338MOL0     C45528   5.727   2.836  10.912  1.0235 -0.2440  0.1568
  338MOL0     C45529   5.700   2.782  11.033  0.5442 -0.5680  0.2972
  338MOL0     C45530   5.587   2.831  11.102 -0.1214  0.9967 -0.5586
  338MOL0     O45531   5.569   2.817  11.235 -1.1772 -0.0054  0.4585
  338MOL0     C45532   5.640   2.718  11.310 -0.5230 -0.0279  0.2918
  338MOL0     C45533   5.562   2.711  11.441 -0.3123 -0.1421 -0.3288
  338MOL0     C45534   5.420   2.658  11.417  0.1328 -0.8874  1.1469
  338MOL0     C45535   5.325   2.688  11.541 -0.3349  0.3974 -0.0367
  338MOL0     C45536   5.179   2.646  11.509 -0.4139 -0.5856 -0.5613
  338MOL0     C45537   5.098   2.613  11.635 -0.6818  0.0382 -0.1090
  338MOL0     C45538   4.944   2.609  11.609 -0.1719  0.2784  0.8439
  338MOL0     C45539   4.861   2.544  11.726 -0.1299  0.0326  0.7598
  338MOL0    Cl45540   4.891   2.645  11.870  0.1716  0.0053 -0.0411
  338MOL0     C45541   5.489   2.904  11.038  0.5597  0.0814 -0.3609
  338MOL0     C45542   5.512   2.942  10.907 -0.1215  0.0658  0.4000
  338MOL0     O45543   5.440   2.944  10.626  0.1530 -0.0863 -0.6907
  338MOL0     C45544   5.508   2.998  10.379 -0.2483 -0.6487  0.5661
  338MOL0     C45545   5.537   3.027  10.248 -0.2967  0.7586 -0.0594
  338MOL0     N45546   5.979   3.272   9.485  0.4811  0.1668 -0.1967
  338MOL0     N45547   6.098   3.231   9.452  0.8843 -0.2980  0.0748
  338MOL0     C45548   7.304   3.311   9.137  0.3664  0.4103  0.0796
  338MOL0     C45549   7.402   3.408   9.108  0.6759 -0.5902  0.6001
  338MOL0     C45550   7.593   3.812   9.052  1.0342 -0.4833 -0.0324
  338MOL0     C45551   7.690   3.765   8.968 -0.2403  0.8349  0.4165
  338MOL0     C45552   7.804   3.847   8.942 -0.2717  0.1001 -0.1987
  338MOL0     C45553   7.809   3.982   8.985 -0.5088  0.6952  0.3072
  338MOL0     O45554   7.921   4.058   8.957  0.1289  0.1797  0.3665
  338MOL0     C45555   8.037   3.991   8.903 -0.0770  0.5336  0.8386
  338MOL0     C45556   8.161   4.084   8.900  0.1003 -0.5756  0.0811
  338MOL0     C45557   8.189   4.150   9.037  0.1933 -0.1701 -0.3341
  338MOL0     C45558   8.307   4.244   9.029 -0.7542 -0.2513  0.1448
  338MOL0     C45559   8.430   4.165   9.060 -0.5998 -0.0023  0.0234
  338MOL0     C45560   8.522   4.106   9.094 -0.4750 -0.2240 -0.6013
  338MOL0     C45561   7.699   4.028   9.061 -0.5188 -0.0488 -0.1212
  338MOL0     C45562   7.603   3.945   9.099  0.7310 -0.0153  0.2629
  338MOL0     H45563   7.206   3.628   8.948  1.6031  1.0511  0.6793
  338MOL0     H45564   7.034   3.443   8.995  0.0462 -3.4765 -0.5556
  338MOL0     H45565   6.975   3.393   9.254 -2.8161  0.8012 -1.3844
  338MOL0     H45566   6.891   3.354   9.118 -1.4251 -0.3716  0.1183
  338MOL0     H45567   6.946   3.161   9.343 -0.5138  0.2613  0.5400
  338MOL0     H45568   6.802   3.268   9.342 -0.2108 -0.7742 -0.0384
  338MOL0     H45569   6.731   3.167   9.125  1.6936  0.2103 -0.4989
  338MOL0     H45570   6.865   3.048   9.154 -0.7254 -0.9677 -0.5895
  338MOL0     H45571   6.661   2.938   9.244  2.2307 -1.8343 -0.1677
  338MOL0     H45572   6.761   2.983   9.376 -2.4668 -2.2271  0.4155
  338MOL0     H45573   6.609   3.197   9.392 -0.8023 -1.3617  2.3661
  338MOL0     H45574   6.545   3.147   9.229 -0.7617 -0.4894 -0.3180
  338MOL0     H45575   6.432   2.963   9.349 -2.0912  0.5511  1.6113
  338MOL0     H45576   6.525   3.010   9.501 -1.2573 -0.9836  1.1642
  338MOL0     H45577   6.408   3.223   9.496 -0.6833  1.1544 -1.3330
  338MOL0     H45578   6.315   3.162   9.360  0.5112 -1.2593 -0.4183
  338MOL0     H45579   6.308   3.065   9.637  0.5269  3.1439  0.8663
  338MOL0     H45580   6.247   2.961   9.502 -1.6720  1.6510 -0.6204
  338MOL0     H45581   6.048   3.052   9.722  0.6715  0.5273 -0.8256
  338MOL0     H45582   5.788   3.338   9.688 -1.2547  0.6655  1.8027
  338MOL0     H45583   5.737   3.184   9.617 -0.2879 -1.0968  2.6188
  338MOL0     H45584   5.887   3.192   9.886 -0.1768  0.2970  0.5633
  338MOL0     H45585   5.803   3.065   9.805 -0.8873 -0.4229  1.4647
  338MOL0     H45586   5.602   3.244   9.802 -0.6035 -0.9325  1.2681
  338MOL0     H45587   5.694   3.326   9.927  1.2683 -1.0278  2.8675
  338MOL0     H45588   5.598   3.033   9.945  0.5438  0.2704 -1.1233
  338MOL0     H45589   5.539   3.180  10.023 -0.3572  1.3064 -1.6983
  338MOL0     H45590   5.858   3.126  10.275  1.1836 -0.1907  0.9648
  338MOL0     H45591   5.935   3.142  10.489 -0.3483  1.1933 -1.0812
  338MOL0     H45592   5.828   3.128  10.626  0.3361  2.4443 -1.3276
  338MOL0     H45593   5.897   2.980  10.543  0.2831  0.1543  0.0518
  338MOL0     H45594   5.816   2.804  10.860 -0.6029  1.3842 -4.1086
  338MOL0     H45595   5.779   2.718  11.072  1.0566  0.8045  1.5931
  338MOL0     H45596   5.635   2.623  11.256  1.0187 -0.0749  0.2088
  338MOL0     H45597   5.744   2.750  11.321 -1.2302  2.1613  1.2951
  338MOL0     H45598   5.625   2.659  11.513 -1.3325  1.6143  1.9400
  338MOL0     H45599   5.549   2.817  11.467 -1.6343  0.0128 -1.5120
  338MOL0     H45600   5.418   2.550  11.400 -3.9027 -0.9676  1.2649
  338MOL0     H45601   5.376   2.696  11.325  0.1651 -2.4308  0.4622
  338MOL0     H45602   5.360   2.624  11.623 -0.5863 -3.3685 -2.6152
  338MOL0     H45603   5.330   2.794  11.568  0.1056 -0.1995  2.4954
  338MOL0     H45604   5.180   2.551  11.456 -1.3925  0.4070 -2.4722
  338MOL0     H45605   5.131   2.732  11.461 -1.2123 -0.7991 -0.1664
  338MOL0     H45606   5.137   2.524  11.684  0.0350 -0.3216 -1.2982
  338MOL0     H45607   5.112   2.702  11.698 -0.9010  2.0750 -2.7307
  338MOL0     H45608   4.934   2.550  11.517  0.1729 -1.0624  1.6401
  338MOL0     H45609   4.903   2.708  11.584 -0.8095 -1.0576 -4.7653
  338MOL0     H45610   4.887   2.439  11.746  0.9309  0.6867  3.1646
  338MOL0     H45611   4.752   2.541  11.712 -0.1149 -0.2018  0.6723
  338MOL0     H45612   5.405   2.948  11.090  1.2706  0.5101  0.4579
  338MOL0     H45613   5.435   3.003  10.861  0.4452  0.4567 -0.0505
  338MOL0     H45614   5.410   2.961  10.407 -1.2399  1.2615 -0.1797
  338MOL0     H45615   5.457   3.019  10.174 -0.8129  4.9356 -0.1928
  338MOL0     H45616   7.330   3.224   9.195  0.0347 -1.2335 -2.1103
  338MOL0     H45617   7.506   3.395   9.134  2.1692  2.0252 -3.3035
  338MOL0     H45618   7.692   3.663   8.931  1.1675  0.9605  0.0605
  338MOL0     H45619   7.873   3.805   8.871 -0.0535  2.1323 -1.2788
  338MOL0     H45620   8.062   3.908   8.970 -0.8121 -0.6509 -0.3260
  338MOL0     H45621   8.020   3.950   8.803  1.6373  0.8649  0.3772
  338MOL0     H45622   8.147   4.163   8.825  1.5116 -0.2860  0.1065
  338MOL0     H45623   8.247   4.022   8.874 -0.0227 -1.0576  0.8021
  338MOL0     H45624   8.184   4.086   9.125 -0.7554  0.2923 -0.0427
  338MOL0     H45625   8.111   4.225   9.055  0.4924 -0.6312  3.6862
  338MOL0     H45626   8.298   4.323   9.105 -0.7988  1.5962 -1.6928
  338MOL0     H45627   8.313   4.298   8.934 -2.0544  0.2068  0.2903
  338MOL0     H45628   8.610   4.057   9.130 -0.1271  0.6836 -0.1908
  338MOL0     H45629   7.692   4.133   9.091  1.3775 -0.6211  2.7809
  338MOL0     H45630   7.523   3.985   9.161 -0.8885  0.0903 -1.7807
  339MOL0     O45631   0.393   9.917   7.017 -0.2261  0.1501  0.4786
  339MOL0     C45632   0.403   9.871   7.129 -0.0103 -0.3145  0.1700
  339MOL0     O45633   0.299   9.800   7.191  0.7288 -0.3411 -0.3392
  339MOL0     C45634   0.179   9.769   7.122  0.1811 -0.9980  0.4918
  339MOL0     C45635   0.055   9.779   7.187  0.8615  0.5927 -1.1534
  339MOL0     C45636  -0.061   9.719   7.125 -0.0834 -0.3646 -0.0420
  339MOL0     C45637  -0.057   9.672   6.994 -0.4607  0.5242 -0.8253
  339MOL0     O45638  -0.173   9.616   6.955  0.9094 -0.6495  0.7188
  339MOL0     C45639  -0.161   9.517   6.849  0.3031 -0.7622  0.1487
  339MOL0     C45640  -0.215   9.570   6.714 -0.7158  0.3931  0.0373
  339MOL0     C45641  -0.366   9.556   6.713  0.3362 -0.1225 -0.1440
  339MOL0     C45642  -0.409   9.416   6.659 -0.1877 -0.5258 -0.2727
  339MOL0     C45643  -0.562   9.400   6.665 -0.4167  0.1937 -0.3835
  339MOL0     C45644  -0.639   9.504   6.596 -0.0526 -0.2142 -0.3683
  339MOL0     C45645  -0.788   9.461   6.583 -0.2187 -0.0754  0.0468
  339MOL0     C45646  -0.868   9.491   6.707 -0.5614  0.6234 -0.6298
  339MOL0     N45647  -1.004   9.450   6.683  0.1787 -0.1103  0.1696
  339MOL0     C45648  -1.053   9.325   6.680 -0.4986  0.5214  0.0916
  339MOL0     C45649  -1.183   9.333   6.638  0.1485 -0.8431 -0.1534
  339MOL0     C45650  -1.270   9.211   6.618 -0.2300 -0.3901  0.6772
  339MOL0     C45651  -1.416   9.254   6.647 -0.0250 -0.9278 -0.4817
  339MOL0     C45652  -1.503   9.129   6.648  1.0233 -0.2553 -0.4345
  339MOL0     C45653  -1.660   9.157   6.663 -0.2782 -0.3736  0.9908
  339MOL0     O45654  -1.725   9.039   6.708  0.0299  0.2541  0.3350
  339MOL0     C45655  -1.858   9.042   6.760  0.7628  0.3074  0.5572
  339MOL0     C45656  -1.908   8.932   6.826 -0.0949  0.6393  0.6127
  339MOL0     C45657  -2.032   8.929   6.886  0.6157  0.8002 -0.6891
  339MOL0     C45658  -2.048   8.809   6.972  0.6227 -0.0285 -0.0472
  339MOL0     C45659  -2.119   9.042   6.873 -0.3521 -0.4586 -0.2153
  339MOL0     C45660  -2.254   9.060   6.937 -0.2580 -0.2589  0.1990
  339MOL0     O45661  -2.313   8.941   6.976  0.2042  0.0611  0.2303
  339MOL0     C45662  -2.418   8.957   7.059 -1.0125  0.5754 -0.2603
  339MOL0     C45663  -2.404   8.944   7.195  0.0903  0.1269  0.1684
  339MOL0     C45664  -2.507   8.966   7.272  0.3107 -0.1790 -0.8153
  339MOL0     C45665  -2.626   9.020   7.225 -0.0621 -0.6071 -0.9157
  339MOL0     O45666  -2.729   9.043   7.318  0.3259  0.0472 -0.4943
  339MOL0     C45667  -2.855   9.086   7.263  0.6365 -0.3514 -0.2461
  339MOL0     C45668  -2.960   9.063   7.376 -0.2023 -0.7177  0.5413
  339MOL0     C45669  -3.098   9.095   7.317  0.6111  1.1113 -0.7475
  339MOL0     C45670  -3.203   9.048   7.420  0.3149 -0.2865  0.2517
  339MOL0     C45671  -3.347   9.069   7.378 -0.0818 -0.4556 -1.0184
  339MOL0     C45672  -3.435   9.069   7.495 -0.2421  0.1566 -0.6071
  339MOL0     C45673  -3.573   9.085   7.460 -0.0779 -0.5837 -0.4284
  339MOL0     C45674  -3.667   9.143   7.566 -0.8657 -0.0929 -0.1562
  339MOL0    Cl45675  -3.834   9.130   7.505 -0.1568  0.4400 -0.1466
  339MOL0     C45676  -2.645   9.031   7.084  0.2686 -0.7708 -0.3055
  339MOL0     C45677  -2.538   9.003   7.004  0.6809  0.5527 -0.1621
  339MOL0     O45678  -2.309   9.166   6.940 -0.0821 -0.2295 -0.7233
  339MOL0     C45679  -2.063   9.151   6.797  1.4969  0.0636 -0.1851
  339MOL0     C45680  -1.941   9.153   6.747 -0.6773 -0.2409  0.8456
  339MOL0     N45681  -1.213   9.471   6.611 -0.7355  0.4012  0.4151
  339MOL0     N45682  -1.100   9.540   6.639 -0.1844  0.5797  0.2818
  339MOL0     C45683   0.069   9.664   6.930  0.1862  0.1869 -1.2747
  339MOL0     C45684   0.179   9.717   6.999  0.0186 -0.1199  1.2026
  339MOL0     C45685   0.523   9.902   7.212  0.7581 -0.0127  0.1175
  339MOL0     C45686   0.531   9.856   7.350 -0.0305  0.1390  0.9848
  339MOL0     C45687   0.639   9.892   7.429  0.7555  0.0793  0.2328
  339MOL0     C45688   0.741   9.961   7.378 -0.1664 -0.1680  0.4918
  339MOL0     O45689   0.841   9.986   7.467  0.0732 -0.3517  0.2084
  339MOL0     C45690   0.960   9.907   7.444  0.6679  0.6714 -0.2892
  339MOL0     C45691   1.086   9.994   7.477 -0.0897  0.3097  0.0516
  339MOL0     C45692   1.207   9.929   7.408 -0.3408  0.1831  0.8112
  339MOL0     C45693   1.328  10.023   7.420  0.1634 -0.0532 -0.1499
  339MOL0     C45694   1.448   9.961   7.487 -0.2243  0.4807  0.2992
  339MOL0     C45695   1.543   9.903   7.536 -0.0503  0.1905  0.0089
  339MOL0     C45696   0.736  10.010   7.251  0.0313  0.9485  0.3323
  339MOL0     C45697   0.627   9.979   7.165 -0.5163 -0.4212  0.3667
  339MOL0     H45698   0.054   9.807   7.292 -0.8312 -2.2341 -0.3207
  339MOL0     H45699  -0.157   9.724   7.173 -0.4837 -0.3977 -0.8161
  339MOL0     H45700  -0.057   9.484   6.837  0.4678 -1.6331  3.1698
  339MOL0     H45701  -0.208   9.420   6.870 -1.1333  0.3218  2.3302
  339MOL0     H45702  -0.196   9.677   6.703  2.2210 -0.2506 -2.9514
  339MOL0     H45703  -0.168   9.523   6.626 -1.0256  0.6183 -0.2508
  339MOL0     H45704  -0.413   9.569   6.810  0.9812  1.1134  0.0269
  339MOL0     H45705  -0.406   9.629   6.642  1.7413  1.9176  1.0518
  339MOL0     H45706  -0.376   9.413   6.555 -3.2266  0.3489 -1.3741
  339MOL0     H45707  -0.361   9.338   6.718 -1.6403 -0.3803  1.1991
  339MOL0     H45708  -0.568   9.299   6.624  1.8847  0.0844 -0.5766
  339MOL0     H45709  -0.591   9.396   6.771  2.8231  1.3248  0.6758
  339MOL0     H45710  -0.626   9.601   6.645  0.4764 -0.5583  0.1830
  339MOL0     H45711  -0.606   9.519   6.493 -0.2962 -0.0363 -0.4210
  339MOL0     H45712  -0.834   9.497   6.491 -0.3929  2.0695  0.9198
  339MOL0     H45713  -0.789   9.352   6.577  1.8462 -0.1168 -0.5659
  339MOL0     H45714  -0.863   9.595   6.738 -2.3177  0.2096  1.2969
  339MOL0     H45715  -0.836   9.435   6.795 -1.5691  0.2813 -0.4664
  339MOL0     H45716  -1.003   9.229   6.693 -1.5180 -0.3993 -2.2398
  339MOL0     H45717  -1.272   9.184   6.512 -3.1302  0.7811  0.3497
  339MOL0     H45718  -1.239   9.127   6.681  0.4011 -0.4108  0.3494
  339MOL0     H45719  -1.460   9.324   6.574  3.2687  0.0046 -1.7682
  339MOL0     H45720  -1.425   9.294   6.748 -1.1481  0.2724 -1.0220
  339MOL0     H45721  -1.473   9.078   6.740  1.8523 -2.0321 -1.6392
  339MOL0     H45722  -1.483   9.058   6.568  2.3812 -1.0427  0.5527
  339MOL0     H45723  -1.698   9.175   6.562  1.7506  1.0840  0.4234
  339MOL0     H45724  -1.682   9.238   6.733  0.5944  0.4340  0.3593
  339MOL0     H45725  -1.844   8.844   6.822 -4.3154 -2.8052 -4.1348
  339MOL0     H45726  -1.965   8.739   6.961  0.2028 -0.5240 -0.0671
  339MOL0     H45727  -2.039   8.835   7.078 -0.5225  2.6555 -0.5339
  339MOL0     H45728  -2.139   8.752   6.954  0.1740 -0.3941  2.8177
  339MOL0     H45729  -2.310   8.900   7.228  1.4568  1.8233 -1.2973
  339MOL0     H45730  -2.496   8.953   7.380 -0.6563 -0.1684 -0.7033
  339MOL0     H45731  -2.851   9.191   7.234 -1.4601  0.0085  0.5845
  339MOL0     H45732  -2.879   9.021   7.179 -0.6675  0.8775 -0.8694
  339MOL0     H45733  -2.945   8.960   7.408 -2.4880 -0.7212  1.8489
  339MOL0     H45734  -2.954   9.121   7.468 -2.3895  0.7832 -0.1671
  339MOL0     H45735  -3.112   9.044   7.222  2.3896  0.1275 -0.5287
  339MOL0     H45736  -3.112   9.203   7.308 -2.1618  1.2296  2.6722
  339MOL0     H45737  -3.184   8.942   7.441 -1.4158 -0.6434  0.1212
  339MOL0     H45738  -3.191   9.110   7.510 -3.0803 -0.4313  0.9421
  339MOL0     H45739  -3.372   8.985   7.311 -1.3856 -0.3408 -0.7102
  339MOL0     H45740  -3.360   9.164   7.324 -4.3675 -1.4372 -2.1257
  339MOL0     H45741  -3.420   8.969   7.537  1.9719  0.7044  0.0683
  339MOL0     H45742  -3.404   9.137   7.576 -1.9984 -0.1642  0.3772
  339MOL0     H45743  -3.618   8.994   7.420 -0.2488  1.0690 -4.5033
  339MOL0     H45744  -3.578   9.158   7.378  0.5557  0.5112  0.4670
  339MOL0     H45745  -3.655   9.251   7.581  0.8360 -0.2268 -0.3940
  339MOL0     H45746  -3.649   9.094   7.662 -1.4647  3.7009  2.0880
  339MOL0     H45747  -2.738   9.068   7.043  0.3228 -0.6566 -0.3270
  339MOL0     H45748  -2.549   9.006   6.896 -2.9351 -1.9459 -0.0247
  339MOL0     H45749  -2.126   9.238   6.782 -0.9736 -1.7385 -1.0632
  339MOL0     H45750  -1.896   9.240   6.699  1.7871 -1.4886  0.7113
  339MOL0     H45751   0.077   9.634   6.826  0.1213 -2.7931 -0.5091
  339MOL0     H45752   0.267   9.724   6.936 -0.9472 -1.8334 -0.4192
  339MOL0     H45753   0.450   9.797   7.390  1.6288 -1.7962  1.6378
  339MOL0     H45754   0.646   9.853   7.529  0.6128  0.4421  0.3855
  339MOL0     H45755   0.951   9.825   7.516 -1.2175 -1.3039 -2.5599
  339MOL0     H45756   0.965   9.861   7.345  0.3920 -2.5444  1.0546
  339MOL0     H45757   1.107  10.000   7.584 -0.4180  2.2699  0.0339
  339MOL0     H45758   1.071  10.097   7.442 -2.3687  0.0747  0.1918
  339MOL0     H45759   1.184   9.906   7.304  2.6245 -0.2858  0.1679
  339MOL0     H45760   1.224   9.837   7.465  0.0849 -0.8715 -0.9277
  339MOL0     H45761   1.305  10.112   7.480 -0.4332 -1.0126  1.0972
  339MOL0     H45762   1.358  10.052   7.319  0.7419  2.2879  0.6114
  339MOL0     H45763   1.641   9.870   7.567  1.5228  0.3323 -4.1926
  339MOL0     H45764   0.820  10.070   7.218  1.6424 -0.2178  2.0679
  339MOL0     H45765   0.620  10.012   7.061 -0.7196 -2.9226 -0.4667
  340MOL0     O45766   5.732   2.958   4.640 -0.3996  0.4633 -0.5056
  340MOL0     C45767   5.755   3.075   4.618 -0.5123 -0.9383 -0.4411
  340MOL0     O45768   5.667   3.175   4.632 -0.7302  0.3834  0.8290
  340MOL0     C45769   5.547   3.144   4.694  0.5952 -0.5821  0.2828
  340MOL0     C45770   5.438   3.166   4.612  0.1377 -0.1727 -0.6210
  340MOL0     C45771   5.309   3.124   4.656 -0.4168  0.1133  0.3935
  340MOL0     C45772   5.285   3.055   4.777  0.7744 -0.2309  0.0591
  340MOL0     O45773   5.161   2.999   4.792  0.0892 -0.4485  0.0868
  340MOL0     C45774   5.102   2.958   4.915 -1.2940  0.4074 -0.6670
  340MOL0     C45775   4.953   2.964   4.894 -0.7237 -0.7771 -0.8284
  340MOL0     C45776   4.893   2.874   4.780 -0.7922  0.1091  0.3871
  340MOL0     C45777   4.860   2.729   4.836 -0.3691 -0.2181 -0.4207
  340MOL0     C45778   4.776   2.635   4.739  0.1630 -0.9562  0.4934
  340MOL0     C45779   4.700   2.524   4.809  0.2614  0.1286 -0.3796
  340MOL0     C45780   4.614   2.439   4.702 -0.2995 -0.0248  0.6496
  340MOL0     C45781   4.557   2.319   4.770 -0.0415  0.5828 -0.1954
  340MOL0     N45782   4.493   2.230   4.667 -0.0257 -0.0808  0.2151
  340MOL0     C45783   4.564   2.122   4.620  0.7900 -0.1340 -0.5156
  340MOL0     C45784   4.472   2.045   4.569  0.2179  0.2090 -0.2143
  340MOL0     C45785   4.489   1.912   4.516  0.0810  0.4322  0.7012
  340MOL0     C45786   4.416   1.796   4.588  0.1359 -0.5908  0.1322
  340MOL0     C45787   4.359   1.702   4.480  0.5332  0.0182  0.3815
  340MOL0     C45788   4.239   1.624   4.530 -0.1296 -0.6864  0.7261
  340MOL0     O45789   4.181   1.548   4.426  0.0255 -0.3519 -0.5159
  340MOL0     C45790   4.050   1.503   4.441  0.7565 -0.4849  0.0704
  340MOL0     C45791   3.968   1.524   4.553 -0.1558  0.4644 -0.4771
  340MOL0     C45792   3.842   1.475   4.554  0.4695 -0.0030 -0.2717
  340MOL0     C45793   3.769   1.484   4.692  0.8666 -0.3643  0.6982
  340MOL0     C45794   3.787   1.417   4.440 -0.5004 -1.0950 -0.5284
  340MOL0     C45795   3.652   1.372   4.429  0.2276  0.4028 -0.1086
  340MOL0     O45796   3.560   1.417   4.515 -0.1510 -0.1467 -0.1723
  340MOL0     C45797   3.430   1.368   4.532 -0.2449  0.0316 -0.0940
  340MOL0     C45798   3.397   1.235   4.493  0.8094 -0.2605 -0.8601
  340MOL0     C45799   3.265   1.196   4.521 -0.5905  0.6276  0.5282
  340MOL0     C45800   3.162   1.275   4.588 -0.5024 -0.0577  0.3645
  340MOL0     O45801   3.028   1.253   4.617 -0.3386 -0.0806  0.4460
  340MOL0     C45802   2.976   1.121   4.590 -0.4521 -0.0272  0.4350
  340MOL0     C45803   2.818   1.104   4.611  0.1673  0.2210 -0.2431
  340MOL0     C45804   2.761   0.971   4.573  0.0100 -0.4442 -0.4916
  340MOL0     C45805   2.605   0.950   4.580  0.1777 -0.0226  0.8865
  340MOL0     C45806   2.568   0.812   4.531 -0.7608  0.8899  0.2809
  340MOL0     C45807   2.424   0.779   4.542  0.6786  0.4493 -0.2093
  340MOL0     C45808   2.393   0.633   4.481 -0.5534  0.5357 -0.6974
  340MOL0     C45809   2.247   0.586   4.512 -0.2087 -0.1336  0.3341
  340MOL0    Cl45810   2.131   0.714   4.464  0.1683  0.0071  0.5582
  340MOL0     C45811   3.205   1.400   4.634  0.3397 -0.1356  0.6588
  340MOL0     C45812   3.338   1.447   4.600  0.4155  0.0134  0.1036
  340MOL0     O45813   3.625   1.305   4.332 -0.3628  0.0053 -0.2292
  340MOL0     C45814   3.867   1.403   4.326 -0.4312  0.2409  0.7603
  340MOL0     C45815   4.008   1.443   4.328  0.0134  0.5648 -0.3311
  340MOL0     N45816   4.345   2.105   4.573 -0.5282 -0.4504 -0.6380
  340MOL0     N45817   4.366   2.224   4.629  0.1809  0.2051  0.2744
  340MOL0     C45818   5.403   3.045   4.860  0.3554  0.0288 -0.4566
  340MOL0     C45819   5.530   3.091   4.817 -0.0303 -0.7692  0.3887
  340MOL0     C45820   5.886   3.106   4.556 -0.0261 -0.4818  0.9440
  340MOL0     C45821   5.982   3.005   4.540 -0.3072 -0.2164  0.1469
  340MOL0     C45822   6.111   3.044   4.493 -0.2748 -0.5910  0.3038
  340MOL0     C45823   6.137   3.172   4.442 -0.5476  0.1986  0.3632
  340MOL0     O45824   6.271   3.199   4.409  0.2471 -0.5917 -0.6079
  340MOL0     C45825   6.307   3.325   4.356 -0.7842 -0.2241  0.4240
  340MOL0     C45826   6.453   3.345   4.340 -0.1128  0.3044  0.2419
  340MOL0     C45827   6.499   3.236   4.245 -0.2751  0.1378 -0.7315
  340MOL0     C45828   6.648   3.232   4.239 -0.3934 -0.7110 -0.2552
  340MOL0     C45829   6.693   3.109   4.169 -0.1132  0.3586 -0.3882
  340MOL0     C45830   6.707   3.000   4.118 -1.2876  1.7379  0.2270
  340MOL0     C45831   6.023   3.260   4.435 -0.1971  0.0331  0.3336
  340MOL0     C45832   5.908   3.233   4.501  0.1282 -0.4669 -0.2157
  340MOL0     H45833   5.451   3.198   4.509  0.1354  1.6807 -0.0855
  340MOL0     H45834   5.226   3.127   4.586 -2.4964 -0.8097  2.6269
  340MOL0     H45835   5.145   2.862   4.945  1.8658  2.2702  1.3994
  340MOL0     H45836   5.130   3.024   4.997  2.9721  0.6705 -2.0708
  340MOL0     H45837   4.907   2.931   4.987  1.0747  2.8177  1.5775
  340MOL0     H45838   4.925   3.069   4.878 -0.1457  0.3501  3.9572
  340MOL0     H45839   4.796   2.913   4.750  0.1608  1.5083 -1.0500
  340MOL0     H45840   4.960   2.877   4.693 -0.7224 -1.5086  0.3558
  340MOL0     H45841   4.943   2.663   4.863 -0.8434 -0.8467 -0.4660
  340MOL0     H45842   4.803   2.743   4.928  2.3581  0.7611  1.2463
  340MOL0     H45843   4.704   2.693   4.681  0.6552 -0.1314  0.6923
  340MOL0     H45844   4.852   2.597   4.670 -0.4774 -0.6429 -0.4181
  340MOL0     H45845   4.775   2.471   4.868  0.6047 -0.3762 -1.2464
  340MOL0     H45846   4.636   2.578   4.880  2.0231  1.4340  0.2965
  340MOL0     H45847   4.539   2.500   4.652 -0.7599 -0.0743  1.2704
  340MOL0     H45848   4.685   2.405   4.626  0.0666 -1.6230  1.6396
  340MOL0     H45849   4.484   2.356   4.844  1.3406  0.5897  1.2163
  340MOL0     H45850   4.635   2.260   4.818  1.2085  1.3526 -1.2361
  340MOL0     H45851   4.669   2.100   4.632  1.5570  2.4521 -1.7342
  340MOL0     H45852   4.463   1.919   4.410 -0.4029 -1.6696  0.6381
  340MOL0     H45853   4.592   1.875   4.512 -0.5967 -1.4894 -0.8826
  340MOL0     H45854   4.326   1.833   4.639 -0.1448  2.0380 -2.0531
  340MOL0     H45855   4.483   1.748   4.660  1.1197  0.8926  0.2444
  340MOL0     H45856   4.428   1.627   4.442  0.2253 -0.8661  1.4876
  340MOL0     H45857   4.326   1.760   4.393 -0.7529 -2.4801 -0.8845
  340MOL0     H45858   4.173   1.705   4.561 -1.6137 -0.1537 -3.1779
  340MOL0     H45859   4.251   1.556   4.614 -2.2141 -0.5375  1.2024
  340MOL0     H45860   4.003   1.583   4.637  0.1890 -0.2487 -0.1145
  340MOL0     H45861   3.702   1.571   4.696 -1.1615 -1.7249 -1.1725
  340MOL0     H45862   3.711   1.396   4.722 -0.1846  0.2182  0.4563
  340MOL0     H45863   3.849   1.495   4.766 -0.8356  2.3794  2.3432
  340MOL0     H45864   3.459   1.158   4.449  0.7953 -0.7659 -0.0028
  340MOL0     H45865   3.248   1.096   4.484  1.2285  0.6433 -0.4127
  340MOL0     H45866   2.998   1.094   4.486  0.7158  1.6330  0.2179
  340MOL0     H45867   3.032   1.049   4.650 -0.3051  0.8830  1.4222
  340MOL0     H45868   2.785   1.117   4.715  0.3991 -0.6557 -0.0530
  340MOL0     H45869   2.774   1.188   4.556 -0.4382 -0.4730 -0.8326
  340MOL0     H45870   2.813   0.891   4.626  1.4194 -0.0369 -1.2193
  340MOL0     H45871   2.793   0.957   4.469  2.9518 -1.9245  0.5004
  340MOL0     H45872   2.555   0.980   4.672 -3.5767 -0.5660 -0.8078
  340MOL0     H45873   2.554   1.012   4.506 -0.2492  0.8088  1.8648
  340MOL0     H45874   2.625   0.741   4.592 -2.0208 -2.3162 -1.9415
  340MOL0     H45875   2.600   0.787   4.430  0.0699  1.8174  0.3052
  340MOL0     H45876   2.390   0.783   4.646  2.4378 -0.8178  0.4728
  340MOL0     H45877   2.372   0.847   4.475 -0.2170  0.7045  0.7136
  340MOL0     H45878   2.454   0.557   4.531 -2.3139  1.6840  3.5817
  340MOL0     H45879   2.421   0.630   4.375 -1.6196  1.6292 -1.0297
  340MOL0     H45880   2.222   0.571   4.618 -2.6860 -0.2135 -0.1843
  340MOL0     H45881   2.246   0.490   4.461 -3.1894 -0.7288  1.2902
  340MOL0     H45882   3.133   1.466   4.682  0.2051  1.3085 -1.4323
  340MOL0     H45883   3.342   1.555   4.610  0.0631  0.0841 -0.4544
  340MOL0     H45884   3.849   1.346   4.235  1.6819  1.9789 -0.8693
  340MOL0     H45885   4.068   1.414   4.242 -0.9907 -0.2218 -0.7916
  340MOL0     H45886   5.407   2.997   4.957  1.2328 -0.1027 -0.5495
  340MOL0     H45887   5.626   3.082   4.867 -0.9272 -1.5751  2.0530
  340MOL0     H45888   5.967   2.904   4.575  1.8292 -0.2662  1.0932
  340MOL0     H45889   6.191   2.971   4.488  0.2039 -0.0564  0.1920
  340MOL0     H45890   6.256   3.341   4.261  0.6406  1.6811 -0.0873
  340MOL0     H45891   6.275   3.409   4.420 -0.0054 -0.8485  1.6527
  340MOL0     H45892   6.500   3.351   4.439 -1.6976 -0.6708  1.1089
  340MOL0     H45893   6.484   3.436   4.289  3.4435 -0.6997  0.3048
  340MOL0     H45894   6.445   3.251   4.151  0.3661 -0.7216 -1.2533
  340MOL0     H45895   6.470   3.138   4.283  1.2145 -0.1594 -0.3163
  340MOL0     H45896   6.686   3.230   4.341 -2.9562 -0.8611  0.7719
  340MOL0     H45897   6.684   3.325   4.193 -2.0500 -0.1137 -0.3980
  340MOL0     H45898   6.738   2.908   4.072 -1.1919  0.7475  2.1996
  340MOL0     H45899   6.020   3.361   4.393 -0.8094  0.7728  2.0613
  340MOL0     H45900   5.828   3.305   4.516 -0.7285 -1.3646 -0.4106
  341MOL0     O45901   7.103   5.920   1.641  0.8170  0.1378 -0.2262
  341MOL0     C45902   7.110   6.042   1.655 -0.2829  0.5155  0.5688
  341MOL0     O45903   7.028   6.125   1.719  0.2227  0.3834 -0.0440
  341MOL0     C45904   6.902   6.090   1.760  0.0317 -0.3525 -0.6805
  341MOL0     C45905   6.862   5.963   1.780  0.6486  0.2651 -0.0777
  341MOL0     C45906   6.731   5.927   1.829 -0.0548 -0.6291  0.2251
  341MOL0     C45907   6.635   6.028   1.828 -0.0919  0.1591 -0.1286
  341MOL0     O45908   6.511   6.001   1.881  0.2169 -0.5667 -0.3014
  341MOL0     C45909   6.428   5.914   1.805  0.0886 -0.6135  0.0284
  341MOL0     C45910   6.288   5.927   1.860  0.5599  0.1356 -0.0857
  341MOL0     C45911   6.258   5.892   2.002  0.3501  0.7570  0.8041
  341MOL0     C45912   6.119   5.904   2.040  0.3099  0.1182 -0.1775
  341MOL0     C45913   6.069   5.792   2.128  0.1102  0.3669 -0.5532
  341MOL0     C45914   6.108   5.793   2.273  0.3593  0.2680 -0.9876
  341MOL0     C45915   6.071   5.661   2.349  0.2188  0.4043  1.1416
  341MOL0     C45916   5.926   5.614   2.345  0.2525 -0.2688 -0.4564
  341MOL0     N45917   5.844   5.709   2.426 -0.1982 -0.1843 -0.2171
  341MOL0     C45918   5.819   5.841   2.386 -0.0926 -0.4143 -1.2504
  341MOL0     C45919   5.732   5.890   2.475 -0.1247  0.5551  0.3688
  341MOL0     C45920   5.668   6.028   2.483 -0.0683 -0.0633 -0.0241
  341MOL0     C45921   5.548   6.018   2.571  0.7045  0.3467 -0.0206
  341MOL0     C45922   5.475   6.152   2.566 -0.1192 -0.6430 -0.6126
  341MOL0     C45923   5.347   6.141   2.651  0.2976  0.5990 -0.5978
  341MOL0     O45924   5.271   6.263   2.644 -0.8157 -0.2586  0.5107
  341MOL0     C45925   5.142   6.279   2.689  0.1315 -0.8461  0.2041
  341MOL0     C45926   5.071   6.206   2.779 -0.1389  0.4591 -0.4105
  341MOL0     C45927   4.942   6.229   2.810 -0.1847  0.1815 -0.1166
  341MOL0     C45928   4.877   6.141   2.920  0.1792 -1.0208 -0.0479
  341MOL0     C45929   4.867   6.327   2.746 -0.3543 -0.5301 -0.2573
  341MOL0     C45930   4.716   6.359   2.759  1.2708 -0.2481  0.8358
  341MOL0     O45931   4.667   6.458   2.687  0.0706 -0.2567  0.7254
  341MOL0     C45932   4.545   6.513   2.727 -0.3395  0.2850  0.5509
  341MOL0     C45933   4.462   6.581   2.641 -0.6718  0.4026  0.1638
  341MOL0     C45934   4.343   6.637   2.688 -0.7366  0.5817  0.2305
  341MOL0     C45935   4.309   6.640   2.818 -0.5941 -0.1113 -0.0557
  341MOL0     O45936   4.199   6.715   2.858 -0.2251  0.8067  0.0632
  341MOL0     C45937   4.174   6.732   3.001 -0.5913 -0.2771  0.4575
  341MOL0     C45938   4.082   6.862   3.011 -0.1825 -0.3885  0.2183
  341MOL0     C45939   3.936   6.805   2.975 -0.6765 -0.8825 -0.4644
  341MOL0     C45940   3.838   6.921   2.973  0.2395 -0.1761 -0.0705
  341MOL0     C45941   3.704   6.868   2.956  0.2929 -0.5298  0.9057
  341MOL0     C45942   3.601   6.980   2.976 -0.0936  0.4567 -0.3659
  341MOL0     C45943   3.465   6.920   2.937  0.0228  0.6135 -0.6917
  341MOL0     C45944   3.351   7.014   2.940  0.4837 -0.0226 -0.4223
  341MOL0    Cl45945   3.195   6.937   2.888 -0.0696  0.0945  0.1479
  341MOL0     C45946   4.400   6.582   2.903  0.1518 -0.1518  0.3310
  341MOL0     C45947   4.515   6.517   2.864  0.1408  0.4408  0.3730
  341MOL0     O45948   4.653   6.284   2.834 -0.5963 -0.1486 -0.9444
  341MOL0     C45949   4.938   6.417   2.659  0.5700  0.3820 -0.4256
  341MOL0     C45950   5.070   6.389   2.631 -0.1638 -0.0809 -0.9995
  341MOL0     N45951   5.711   5.787   2.566 -0.3108 -0.2111  0.3088
  341MOL0     N45952   5.776   5.680   2.534  0.2459 -0.1950  0.5457
  341MOL0     C45953   6.667   6.163   1.798 -0.1977 -0.0750 -0.2979
  341MOL0     C45954   6.797   6.190   1.767 -0.6438 -0.3889 -0.5228
  341MOL0     C45955   7.234   6.099   1.603 -0.2251  0.2669  0.4250
  341MOL0     C45956   7.354   6.024   1.604  0.7101 -0.6330  0.2596
  341MOL0     C45957   7.472   6.082   1.558 -0.5997  0.6124  0.0957
  341MOL0     C45958   7.470   6.215   1.509  0.0950  0.0033 -0.1901
  341MOL0     O45959   7.598   6.272   1.475 -0.2356 -0.2882  0.4987
  341MOL0     C45960   7.606   6.413   1.505  0.2087  0.1345 -0.4556
  341MOL0     C45961   7.749   6.468   1.503  0.5143 -0.1331  0.4429
  341MOL0     C45962   7.814   6.475   1.364  0.1338 -0.4601  0.5116
  341MOL0     C45963   7.953   6.542   1.377 -0.4072 -0.7013  0.0744
  341MOL0     C45964   8.022   6.545   1.248  0.0688 -0.2197 -0.1967
  341MOL0     C45965   8.062   6.556   1.133  0.2525  0.7241 -0.2854
  341MOL0     C45966   7.346   6.281   1.500  0.2403 -0.5343  0.4328
  341MOL0     C45967   7.227   6.228   1.548 -0.2377  0.0041 -0.6084
  341MOL0     H45968   6.926   5.875   1.777  0.3082  0.0180 -0.1218
  341MOL0     H45969   6.720   5.825   1.864 -0.8952 -0.4823  0.4044
  341MOL0     H45970   6.435   5.952   1.702  0.5219 -0.5188  0.0919
  341MOL0     H45971   6.471   5.814   1.816  0.9636 -0.0422  2.2461
  341MOL0     H45972   6.261   6.033   1.858  0.8513  0.2867  1.8991
  341MOL0     H45973   6.217   5.872   1.797 -0.4569  1.7931 -0.4566
  341MOL0     H45974   6.297   5.790   2.012  0.3757  0.4992 -1.3626
  341MOL0     H45975   6.326   5.957   2.057  0.7104  3.5047 -2.5282
  341MOL0     H45976   6.096   5.999   2.089 -2.1854 -0.2335 -0.5235
  341MOL0     H45977   6.056   5.894   1.951 -0.2993 -2.5136  0.4654
  341MOL0     H45978   5.961   5.794   2.108  0.0754 -2.1825 -0.9852
  341MOL0     H45979   6.109   5.696   2.093 -1.8432  0.2948 -2.8569
  341MOL0     H45980   6.217   5.807   2.273  0.1381  2.6675 -2.8760
  341MOL0     H45981   6.067   5.881   2.323  2.8024  1.5698 -1.1190
  341MOL0     H45982   6.129   5.587   2.295 -1.1535 -0.7272  1.1736
  341MOL0     H45983   6.118   5.667   2.448  1.0859  1.9019  0.6854
  341MOL0     H45984   5.910   5.515   2.389 -2.2984 -0.1028 -0.8855
  341MOL0     H45985   5.905   5.605   2.238  0.8948 -1.0335 -0.5262
  341MOL0     H45986   5.855   5.904   2.306 -0.1738  0.0451 -0.9298
  341MOL0     H45987   5.739   6.104   2.519  0.5305 -1.1263  1.1160
  341MOL0     H45988   5.640   6.045   2.379  0.3169  0.5013 -0.0410
  341MOL0     H45989   5.578   5.995   2.674 -1.5241 -0.2007  0.5636
  341MOL0     H45990   5.479   5.940   2.538  0.8647  0.6221 -1.0264
  341MOL0     H45991   5.434   6.169   2.466  2.1358 -1.7129 -1.7994
  341MOL0     H45992   5.535   6.237   2.600 -0.1865  0.0411 -2.1564
  341MOL0     H45993   5.383   6.115   2.751 -0.4160 -0.2841 -0.5608
  341MOL0     H45994   5.285   6.058   2.619 -0.0275  1.1868 -1.5265
  341MOL0     H45995   5.122   6.122   2.826  0.1505 -0.2181 -1.8629
  341MOL0     H45996   4.830   6.194   3.003  1.5786 -0.8111  0.6336
  341MOL0     H45997   4.803   6.073   2.876  0.4571 -1.2163 -0.2178
  341MOL0     H45998   4.956   6.078   2.962 -0.4573 -2.1820 -0.5335
  341MOL0     H45999   4.489   6.606   2.539  1.0759 -0.7723  0.2928
  341MOL0     H46000   4.277   6.684   2.617 -1.2281  0.0362  0.3203
  341MOL0     H46001   4.128   6.647   3.052 -3.0652  0.9681  0.4585
  341MOL0     H46002   4.268   6.761   3.050 -1.0552  2.7565 -0.2579
  341MOL0     H46003   4.081   6.907   3.110  1.3952 -0.8058  0.4454
  341MOL0     H46004   4.121   6.927   2.932 -0.2496  1.3264  1.5394
  341MOL0     H46005   3.908   6.721   3.038  3.4067 -2.6486 -0.6642
  341MOL0     H46006   3.945   6.769   2.872  1.4022 -2.8368  0.3147
  341MOL0     H46007   3.834   6.973   3.070 -0.3026 -1.9525  0.9068
  341MOL0     H46008   3.858   6.992   2.892  0.4213  1.3679  1.2717
  341MOL0     H46009   3.697   6.784   3.026  0.2144 -0.9441  0.4078
  341MOL0     H46010   3.689   6.814   2.862  0.9551 -2.6800  1.9874
  341MOL0     H46011   3.605   7.013   3.080 -0.5229  0.1085 -0.2356
  341MOL0     H46012   3.620   7.067   2.913  0.1323  2.5285  2.3913
  341MOL0     H46013   3.439   6.841   3.008 -0.7741  0.8558 -0.6953
  341MOL0     H46014   3.460   6.880   2.835 -3.7124  0.2656 -0.5043
  341MOL0     H46015   3.367   7.105   2.880  1.9049 -0.3742 -0.6213
  341MOL0     H46016   3.339   7.049   3.043 -1.0596 -0.9893 -0.2484
  341MOL0     H46017   4.369   6.565   3.005 -2.3713  0.6199 -0.2302
  341MOL0     H46018   4.578   6.482   2.946 -1.1280  2.0724  2.1420
  341MOL0     H46019   4.899   6.499   2.600  0.9047 -0.6504 -2.1702
  341MOL0     H46020   5.114   6.443   2.547  0.3580  0.4091 -0.4139
  341MOL0     H46021   6.589   6.238   1.800 -0.8064 -0.6581 -1.1749
  341MOL0     H46022   6.828   6.290   1.737 -1.2586 -0.1417 -0.3352
  341MOL0     H46023   7.358   5.923   1.642  1.2777 -1.5005 -1.9705
  341MOL0     H46024   7.565   6.027   1.551  0.1778  2.0786 -2.4693
  341MOL0     H46025   7.545   6.474   1.438  0.4867 -1.2371 -2.0185
  341MOL0     H46026   7.556   6.427   1.602 -0.2806 -1.2149 -0.5003
  341MOL0     H46027   7.809   6.416   1.579 -0.2522 -0.1888  1.0210
  341MOL0     H46028   7.741   6.574   1.528  0.3194  1.1315 -4.0762
  341MOL0     H46029   7.760   6.548   1.303  0.2273 -1.9848 -1.5168
  341MOL0     H46030   7.814   6.379   1.312  3.8969 -0.8559  0.9353
  341MOL0     H46031   8.015   6.481   1.444 -0.0716 -1.9955 -1.3570
  341MOL0     H46032   7.940   6.647   1.404 -0.1278  0.0571 -2.4782
  341MOL0     H46033   8.071   6.560   1.026  0.1665 -1.1206 -0.3990
  341MOL0     H46034   7.341   6.385   1.468 -2.1036  0.1641  2.7014
  341MOL0     H46035   7.138   6.290   1.550 -1.2319 -1.3141 -1.6038
  342MOL0     O46036   9.238   5.414   1.406 -0.2830  0.2297 -0.0008
  342MOL0     C46037   9.334   5.470   1.360 -0.8347  0.1016 -0.8031
  342MOL0     O46038   9.332   5.560   1.251 -0.4217  0.0321 -0.1777
  342MOL0     C46039   9.223   5.626   1.205  0.6889 -0.6889  0.2626
  342MOL0     C46040   9.119   5.559   1.135 -0.0056 -0.1343 -0.8134
  342MOL0     C46041   9.012   5.617   1.075  0.3517  0.4358 -0.5625
  342MOL0     C46042   8.994   5.757   1.083  0.1066 -0.7082 -0.3444
  342MOL0     O46043   8.899   5.811   1.002 -0.1858 -0.2650 -0.2876
  342MOL0     C46044   8.825   5.920   1.059 -0.0142 -0.7766 -0.1266
  342MOL0     C46045   8.688   5.951   0.999  0.4017 -0.2074 -0.2899
  342MOL0     C46046   8.608   5.822   1.015  0.0884 -0.0822 -0.5057
  342MOL0     C46047   8.459   5.817   0.974 -0.4289  0.3453 -1.0857
  342MOL0     C46048   8.409   5.671   0.974 -0.3657 -0.2563  0.1667
  342MOL0     C46049   8.370   5.622   1.113  0.2311  0.4954  0.7926
  342MOL0     C46050   8.242   5.690   1.174 -0.1190 -0.1755 -0.5058
  342MOL0     C46051   8.117   5.651   1.097  0.3290  0.2818 -0.0757
  342MOL0     N46052   8.014   5.755   1.125 -0.5471 -0.5384 -0.8881
  342MOL0     C46053   8.025   5.892   1.103  0.3231 -0.0951 -0.2189
  342MOL0     C46054   7.931   5.953   1.175  1.5803  0.5866  0.9986
  342MOL0     C46055   7.905   6.104   1.183  0.3492  0.6748  1.2599
  342MOL0     C46056   7.759   6.153   1.144 -0.8793  0.5546 -0.1250
  342MOL0     C46057   7.760   6.278   1.047 -0.4390 -0.4691  0.1009
  342MOL0     C46058   7.628   6.355   1.062 -0.0322  0.4214  0.9802
  342MOL0     O46059   7.520   6.278   1.008  0.4386 -0.5156 -0.3246
  342MOL0     C46060   7.396   6.290   1.068 -0.3388  0.4401  0.5152
  342MOL0     C46061   7.302   6.198   1.020 -0.4493  0.7113  0.9551
  342MOL0     C46062   7.168   6.201   1.047  0.3533 -0.0704 -0.5821
  342MOL0     C46063   7.085   6.091   0.988 -0.0081 -0.6724  0.3053
  342MOL0     C46064   7.122   6.296   1.145  0.0641 -0.3807  0.1182
  342MOL0     C46065   6.981   6.285   1.196 -0.1871 -0.2992  0.3376
  342MOL0     O46066   6.963   6.316   1.331 -0.4071  0.0053 -0.1763
  342MOL0     C46067   6.840   6.308   1.378  0.3733 -0.0937  1.0182
  342MOL0     C46068   6.781   6.193   1.417  0.2030  0.5224 -0.0429
  342MOL0     C46069   6.658   6.191   1.473  0.4178  0.5033  0.2970
  342MOL0     C46070   6.576   6.308   1.481 -0.2085 -0.3892  0.2567
  342MOL0     O46071   6.454   6.322   1.533  0.1880  0.3671 -1.1898
  342MOL0     C46072   6.381   6.200   1.552 -0.6698 -0.2876  0.0446
  342MOL0     C46073   6.235   6.223   1.594 -0.4342  0.0516  0.4649
  342MOL0     C46074   6.216   6.304   1.727 -0.3116  1.2315 -0.3515
  342MOL0     C46075   6.082   6.253   1.784  0.5433  0.7328 -0.4083
  342MOL0     C46076   6.065   6.295   1.934 -0.3652  0.1712  0.5584
  342MOL0     C46077   5.925   6.260   1.968 -0.1702 -0.7061  0.0257
  342MOL0     C46078   5.896   6.280   2.120 -0.2878  0.0367 -0.4780
  342MOL0     C46079   5.774   6.203   2.170 -0.1850  0.1039 -0.8697
  342MOL0    Cl46080   5.641   6.294   2.090 -0.5078  0.0459 -0.1737
  342MOL0     C46081   6.626   6.431   1.427 -0.3737  0.5502  0.2614
  342MOL0     C46082   6.759   6.431   1.373  0.0715  0.7632 -0.0576
  342MOL0     O46083   6.894   6.256   1.112  1.0640  0.6346  0.2934
  342MOL0     C46084   7.218   6.380   1.205  0.7625 -0.0765  0.0202
  342MOL0     C46085   7.355   6.379   1.165  0.0177 -0.5037  0.3164
  342MOL0     N46086   7.854   5.852   1.230 -0.0489 -0.6187  0.7532
  342MOL0     N46087   7.909   5.731   1.203 -0.3521 -0.4604 -0.1786
  342MOL0     C46088   9.100   5.838   1.135 -0.3236  0.6019 -0.5089
  342MOL0     C46089   9.209   5.768   1.201 -0.2098 -0.6367  0.0683
  342MOL0     C46090   9.464   5.431   1.415 -0.1489 -0.0198 -0.1972
  342MOL0     C46091   9.578   5.502   1.375  0.1222 -0.3194  0.1089
  342MOL0     C46092   9.706   5.459   1.403 -0.7221 -0.6679  0.0553
  342MOL0     C46093   9.728   5.344   1.478  1.5351 -0.2379 -0.4163
  342MOL0     O46094   9.853   5.323   1.528  0.4222  0.4988  0.8806
  342MOL0     C46095   9.885   5.194   1.584 -0.4831 -0.0332 -0.2712
  342MOL0     C46096  10.040   5.185   1.576  1.1169 -0.3416  0.9180
  342MOL0     C46097  10.102   5.216   1.437  0.2983  0.8276 -0.3729
  342MOL0     C46098  10.216   5.123   1.405 -0.3743  0.7550  0.0763
  342MOL0     C46099  10.341   5.145   1.472  0.1510 -0.1792  1.1517
  342MOL0     C46100  10.444   5.194   1.522  0.0389 -0.6452 -0.5477
  342MOL0     C46101   9.614   5.265   1.500  0.5044 -0.5185 -0.4085
  342MOL0     C46102   9.480   5.307   1.479  1.1186 -0.2607  0.6297
  342MOL0     H46103   9.114   5.450   1.131 -3.6042 -0.1356  0.0442
  342MOL0     H46104   8.955   5.550   1.012 -0.2329 -0.8326  1.2534
  342MOL0     H46105   8.818   5.918   1.168  3.6390  3.5749  0.5116
  342MOL0     H46106   8.889   6.009   1.049  2.2311 -2.3320 -0.3656
  342MOL0     H46107   8.636   6.035   1.045  2.2248  1.3738 -0.9557
  342MOL0     H46108   8.695   5.980   0.893 -1.9298 -2.3347 -1.1189
  342MOL0     H46109   8.656   5.740   0.961  0.1697 -0.2775 -0.1342
  342MOL0     H46110   8.617   5.811   1.123  1.5682  2.5744 -0.2603
  342MOL0     H46111   8.405   5.869   1.053  0.7982 -0.0215  0.0152
  342MOL0     H46112   8.444   5.865   0.876 -0.3184 -1.9355 -2.2931
  342MOL0     H46113   8.317   5.672   0.916 -0.2485  0.1506 -0.0114
  342MOL0     H46114   8.485   5.606   0.930  0.9082  1.3087 -0.0433
  342MOL0     H46115   8.353   5.517   1.088  1.0268  0.3740  0.7562
  342MOL0     H46116   8.448   5.644   1.187  0.9636  0.2145  0.1146
  342MOL0     H46117   8.239   5.667   1.281  0.2908  2.4099  0.1444
  342MOL0     H46118   8.248   5.799   1.166 -1.9851 -0.0427 -0.6015
  342MOL0     H46119   8.073   5.562   1.143 -1.7936  1.3675  0.1406
  342MOL0     H46120   8.123   5.635   0.989  2.0480  1.4072 -0.1750
  342MOL0     H46121   8.097   5.942   1.039  1.2369 -0.5562  0.4314
  342MOL0     H46122   7.923   6.131   1.287 -0.6367 -0.3399  1.7203
  342MOL0     H46123   7.973   6.150   1.110  0.3112  1.3662  1.6535
  342MOL0     H46124   7.697   6.173   1.232 -1.9817 -0.4403 -0.6543
  342MOL0     H46125   7.708   6.078   1.083 -3.0420  2.8958 -1.4230
  342MOL0     H46126   7.781   6.251   0.943 -0.0398 -1.6544  0.4771
  342MOL0     H46127   7.846   6.339   1.073 -0.5126 -0.6797  0.8795
  342MOL0     H46128   7.643   6.452   1.012 -0.2399 -1.6129 -3.4717
  342MOL0     H46129   7.607   6.376   1.168 -3.4274  1.5989  0.2176
  342MOL0     H46130   7.341   6.116   0.959 -3.1717  0.1400 -0.1988
  342MOL0     H46131   7.033   6.033   1.064  2.0447 -0.0266  2.2930
  342MOL0     H46132   7.006   6.131   0.923  0.6491 -0.8714 -0.6384
  342MOL0     H46133   7.142   6.016   0.932 -1.7809 -1.3871 -0.6518
  342MOL0     H46134   6.843   6.105   1.427 -0.0270  0.3629 -0.0089
  342MOL0     H46135   6.615   6.099   1.511  1.5946  0.0635  0.5934
  342MOL0     H46136   6.382   6.148   1.456  1.8434  3.4626 -2.1831
  342MOL0     H46137   6.431   6.142   1.631  0.2525  0.2559 -0.1254
  342MOL0     H46138   6.181   6.279   1.517  0.2006  1.4688  1.0181
  342MOL0     H46139   6.192   6.123   1.605  1.5924 -1.0439 -0.9245
  342MOL0     H46140   6.205   6.410   1.704  0.5220  1.5162  0.4863
  342MOL0     H46141   6.300   6.284   1.795  1.1260  2.3063 -1.7354
  342MOL0     H46142   6.003   6.302   1.726  1.6711  1.1670 -1.6355
  342MOL0     H46143   6.078   6.144   1.782 -0.0156  0.6043  2.9649
  342MOL0     H46144   6.082   6.403   1.944  0.8352  0.3024 -2.0586
  342MOL0     H46145   6.142   6.239   1.988  0.6727  1.8727  0.9270
  342MOL0     H46146   5.848   6.306   1.906 -2.0494 -2.2715  1.0784
  342MOL0     H46147   5.911   6.154   1.946 -1.9641 -0.5833  0.4380
  342MOL0     H46148   5.896   6.384   2.153  0.5839 -0.0521 -0.1583
  342MOL0     H46149   5.978   6.233   2.175 -2.4298 -0.9979  2.0949
  342MOL0     H46150   5.762   6.217   2.278  2.3738  0.4992 -0.5842
  342MOL0     H46151   5.784   6.096   2.151  0.6093  0.0863 -0.3773
  342MOL0     H46152   6.573   6.526   1.425  0.0313  0.7765 -0.0351
  342MOL0     H46153   6.795   6.524   1.331 -0.9337  1.7112  1.1068
  342MOL0     H46154   7.183   6.450   1.280 -2.3044  1.4746 -2.6174
  342MOL0     H46155   7.423   6.457   1.197 -1.0426  0.9097 -0.7220
  342MOL0     H46156   9.104   5.946   1.123 -0.5392  0.4219 -2.4576
  342MOL0     H46157   9.297   5.826   1.228 -1.8166  1.9615  0.0399
  342MOL0     H46158   9.570   5.595   1.320 -0.2843 -2.3527 -3.5786
  342MOL0     H46159   9.791   5.525   1.388 -1.6626  0.4135 -0.6741
  342MOL0     H46160   9.846   5.190   1.686 -0.9501  2.5842 -0.2674
  342MOL0     H46161   9.841   5.109   1.532 -1.2276 -1.9501  3.1673
  342MOL0     H46162  10.054   5.078   1.598  2.3594 -0.2203  0.7872
  342MOL0     H46163  10.091   5.243   1.654  1.4637  0.9153 -0.2093
  342MOL0     H46164  10.134   5.320   1.439 -3.0001  1.9430  1.1628
  342MOL0     H46165  10.026   5.200   1.360 -1.5079  1.8297  1.1297
  342MOL0     H46166  10.227   5.125   1.297 -0.9576 -1.1110 -0.0503
  342MOL0     H46167  10.182   5.023   1.433  1.3216  0.1616  0.1380
  342MOL0     H46168  10.523   5.245   1.572 -2.0912  1.4335  0.9013
  342MOL0     H46169   9.629   5.173   1.556  1.1898 -0.9000 -1.2087
  342MOL0     H46170   9.401   5.237   1.504  0.2229  1.5975  3.5103
  343MOL0     O46171   6.138   0.729   2.050 -0.2684  0.1139 -0.3032
  343MOL0     C46172   6.216   0.731   1.956  0.4288  0.6933 -0.4106
  343MOL0     O46173   6.191   0.785   1.829  0.0195  0.7472  0.1260
  343MOL0     C46174   6.074   0.851   1.811 -0.8678  0.5722  0.4577
  343MOL0     C46175   6.076   0.988   1.796 -0.9140 -0.0906  0.8717
  343MOL0     C46176   5.967   1.057   1.748 -0.2162 -0.8312  0.1005
  343MOL0     C46177   5.847   0.988   1.726  0.0112 -0.0087  0.0148
  343MOL0     O46178   5.724   1.043   1.698  0.7597 -0.6666 -0.2553
  343MOL0     C46179   5.717   1.191   1.684  0.1382  0.7129  0.5987
  343MOL0     C46180   5.597   1.255   1.615  0.8910 -0.6077  0.3472
  343MOL0     C46181   5.466   1.218   1.688  0.3400 -0.2627  0.0486
  343MOL0     C46182   5.355   1.307   1.630 -0.3162 -0.0628  0.3489
  343MOL0     C46183   5.220   1.282   1.687 -0.2444  0.1594  0.9542
  343MOL0     C46184   5.124   1.393   1.652  0.5577 -0.0634  0.2747
  343MOL0     C46185   4.976   1.358   1.714 -0.2071 -0.0450  0.0040
  343MOL0     C46186   4.875   1.463   1.665  0.1016  0.0700 -0.5528
  343MOL0     N46187   4.734   1.450   1.705 -0.2849  0.2093  0.0470
  343MOL0     C46188   4.690   1.460   1.830  0.8546  0.0481  0.3275
  343MOL0     C46189   4.556   1.467   1.822  0.3432  0.0398 -0.3549
  343MOL0     C46190   4.468   1.462   1.947 -0.0688  0.1767 -0.3309
  343MOL0     C46191   4.341   1.541   1.935  0.0366 -0.3683 -0.2310
  343MOL0     C46192   4.350   1.698   1.949  0.0499  0.4308 -0.0658
  343MOL0     C46193   4.228   1.761   1.882 -0.0105 -0.1308  0.4638
  343MOL0     O46194   4.122   1.785   1.979  0.2244  0.3605  0.2247
  343MOL0     C46195   4.008   1.835   1.938  0.2745  0.8268  0.6324
  343MOL0     C46196   3.958   1.842   1.807  0.3964 -0.2991 -0.1527
  343MOL0     C46197   3.832   1.897   1.772  0.4167 -0.0767  0.4397
  343MOL0     C46198   3.797   1.887   1.628 -0.3322  0.4649 -0.5532
  343MOL0     C46199   3.744   1.950   1.869 -0.3568 -0.4466 -0.2981
  343MOL0     C46200   3.604   2.001   1.845 -0.1618  0.1394 -0.5186
  343MOL0     O46201   3.546   2.033   1.962  0.7899  1.0207  0.0386
  343MOL0     C46202   3.408   2.057   1.976 -1.3675  0.2552 -0.4578
  343MOL0     C46203   3.351   2.173   1.929 -0.0633 -0.0069 -0.7332
  343MOL0     C46204   3.217   2.202   1.938  0.0521 -0.8859  0.1039
  343MOL0     C46205   3.131   2.110   2.000  0.3033 -0.1400  0.4801
  343MOL0     O46206   2.994   2.117   1.999  0.0976 -0.9728 -0.1047
  343MOL0     C46207   2.940   2.216   1.920 -1.2650 -0.2229  0.3116
  343MOL0     C46208   2.784   2.198   1.924 -0.3359  0.2611 -0.0154
  343MOL0     C46209   2.732   2.069   1.857 -1.0250  0.0677 -0.4871
  343MOL0     C46210   2.587   2.044   1.890  0.4603 -0.6731 -0.4257
  343MOL0     C46211   2.545   1.928   1.804  0.0094 -0.4078  0.8869
  343MOL0     C46212   2.411   1.867   1.823  0.0421  0.2428  0.7243
  343MOL0     C46213   2.298   1.969   1.830 -0.2873 -0.2713  0.4638
  343MOL0     C46214   2.159   1.907   1.838  0.5943 -0.0235 -0.8368
  343MOL0    Cl46215   2.042   2.029   1.850 -0.0727 -0.2925  0.1774
  343MOL0     C46216   3.191   1.992   2.050 -0.0195  0.3816  0.4799
  343MOL0     C46217   3.327   1.968   2.041 -1.2835 -0.1565  0.0934
  343MOL0     O46218   3.561   2.024   1.733  0.6979 -0.1564  0.2180
  343MOL0     C46219   3.801   1.948   2.001  0.5062  0.0015 -0.7295
  343MOL0     C46220   3.926   1.893   2.029  0.2970  1.1439  0.5980
  343MOL0     N46221   4.522   1.470   1.690  0.7613  0.5261  0.6241
  343MOL0     N46222   4.632   1.455   1.618  0.4160 -0.0890  0.3450
  343MOL0     C46223   5.832   0.851   1.758 -0.5137 -0.1173 -0.3033
  343MOL0     C46224   5.950   0.784   1.798  0.6928  0.1353 -1.0219
  343MOL0     C46225   6.351   0.675   1.969 -0.0979  0.5410 -0.0540
  343MOL0     C46226   6.381   0.588   2.070  0.4048 -0.1822  0.6232
  343MOL0     C46227   6.514   0.531   2.090  0.8674 -1.2207 -0.4479
  343MOL0     C46228   6.619   0.571   2.007  0.2666  0.9141  0.3727
  343MOL0     O46229   6.738   0.510   2.011  0.1442 -0.0787 -0.1860
  343MOL0     C46230   6.771   0.427   2.121 -1.1222  0.1965 -0.3005
  343MOL0     C46231   6.916   0.380   2.112 -0.7119 -0.3606  0.0967
  343MOL0     C46232   7.010   0.492   2.048 -0.5857  0.7376 -0.5082
  343MOL0     C46233   7.157   0.460   2.084 -0.3829 -0.6925  0.1769
  343MOL0     C46234   7.241   0.576   2.040 -0.4688  0.6860  0.4875
  343MOL0     C46235   7.327   0.649   1.996  0.1071  0.8109 -0.6552
  343MOL0     C46236   6.595   0.660   1.904  0.3209 -0.3443 -0.4134
  343MOL0     C46237   6.460   0.711   1.884 -0.4429  0.6474  0.5342
  343MOL0     H46238   6.169   1.041   1.817 -0.9679 -0.4908  2.2384
  343MOL0     H46239   5.980   1.164   1.746  0.2269 -0.8320  1.5045
  343MOL0     H46240   5.728   1.219   1.789  0.6652 -0.1043  0.7716
  343MOL0     H46241   5.803   1.225   1.625 -0.6219 -2.0154 -2.3674
  343MOL0     H46242   5.605   1.364   1.619 -2.0700 -0.2840 -0.5486
  343MOL0     H46243   5.588   1.221   1.512 -3.2214 -0.9466  0.6811
  343MOL0     H46244   5.437   1.113   1.687 -2.4247  0.3740  1.9256
  343MOL0     H46245   5.470   1.248   1.793 -0.6223 -0.2230  0.0814
  343MOL0     H46246   5.383   1.412   1.624 -1.0758  0.0683 -2.0081
  343MOL0     H46247   5.354   1.268   1.527 -0.5460 -2.6749  1.2537
  343MOL0     H46248   5.181   1.184   1.657  0.3968 -0.0766  0.8788
  343MOL0     H46249   5.221   1.282   1.797 -0.0590 -0.1002  0.9519
  343MOL0     H46250   5.160   1.491   1.682  0.4302  0.3258 -0.7953
  343MOL0     H46251   5.108   1.385   1.544 -2.4162  0.2467  0.6117
  343MOL0     H46252   4.941   1.259   1.683  1.0669 -0.8003  0.9234
  343MOL0     H46253   4.977   1.365   1.823 -0.8549 -0.8632  0.0674
  343MOL0     H46254   4.878   1.450   1.557 -0.2895  1.5175 -0.7510
  343MOL0     H46255   4.909   1.562   1.697 -2.3947  1.3469 -1.5872
  343MOL0     H46256   4.739   1.465   1.927 -1.0943  1.6260  1.3099
  343MOL0     H46257   4.447   1.356   1.968  1.3923 -0.0449  0.0750
  343MOL0     H46258   4.519   1.506   2.033  0.1563 -1.9541  0.6982
  343MOL0     H46259   4.265   1.504   2.005  0.9066 -0.4874  0.6627
  343MOL0     H46260   4.301   1.502   1.840 -0.4486 -2.2394  0.6847
  343MOL0     H46261   4.435   1.730   1.889  0.3688  0.7142  0.5219
  343MOL0     H46262   4.352   1.740   2.051 -1.5650  1.4825 -0.4399
  343MOL0     H46263   4.186   1.696   1.804  2.3962  2.3071 -3.1921
  343MOL0     H46264   4.253   1.853   1.828  0.9170  0.0665  1.2037
  343MOL0     H46265   4.020   1.802   1.727  1.8832 -2.3877  1.9080
  343MOL0     H46266   3.717   1.812   1.628 -0.2078  0.1176  3.4194
  343MOL0     H46267   3.767   1.984   1.588  0.4129  0.2662 -1.6346
  343MOL0     H46268   3.872   1.836   1.567  1.0227  2.1399 -0.3354
  343MOL0     H46269   3.411   2.236   1.864  0.3871 -0.1180 -0.4342
  343MOL0     H46270   3.186   2.297   1.896  1.2518 -0.7071 -0.4135
  343MOL0     H46271   2.960   2.314   1.964  1.6774 -1.1073  1.1033
  343MOL0     H46272   2.981   2.220   1.818  2.0773  2.7931  1.5701
  343MOL0     H46273   2.743   2.198   2.026 -0.2518  2.9944  0.1086
  343MOL0     H46274   2.744   2.281   1.865  2.3989  2.1311  0.5388
  343MOL0     H46275   2.793   1.982   1.882  0.1340  0.6014 -1.3666
  343MOL0     H46276   2.745   2.079   1.749 -1.3689 -2.9543 -0.8920
  343MOL0     H46277   2.579   2.014   1.995 -0.0153 -0.3583 -0.3696
  343MOL0     H46278   2.530   2.136   1.876 -1.1843 -1.5241  0.3230
  343MOL0     H46279   2.621   1.849   1.802  1.1701  0.6655 -1.8663
  343MOL0     H46280   2.550   1.971   1.704  2.3117  0.3518  1.2750
  343MOL0     H46281   2.411   1.806   1.732  0.6128  0.2593  0.7097
  343MOL0     H46282   2.392   1.812   1.915 -4.4940  0.8422  0.3876
  343MOL0     H46283   2.300   2.027   1.738 -2.3106 -1.9614 -0.7410
  343MOL0     H46284   2.314   2.040   1.912  1.5377 -0.6666  0.4812
  343MOL0     H46285   2.150   1.838   1.923 -0.2925  1.2818  0.1600
  343MOL0     H46286   2.141   1.851   1.746 -1.9266  1.1154 -1.1091
  343MOL0     H46287   3.128   1.918   2.098  0.9807 -1.4048 -0.8384
  343MOL0     H46288   3.364   1.875   2.084  0.7980  0.8517  0.5987
  343MOL0     H46289   3.751   1.985   2.090  0.5482 -1.6306  0.0064
  343MOL0     H46290   3.960   1.901   2.132 -0.8375  1.1188  0.9907
  343MOL0     H46291   5.730   0.813   1.757 -0.6696  0.2952 -1.0405
  343MOL0     H46292   5.941   0.679   1.821  1.8009 -0.1538 -1.7985
  343MOL0     H46293   6.295   0.561   2.131 -0.2976  0.6801  0.0394
  343MOL0     H46294   6.513   0.452   2.164 -1.3457  0.1189  1.0682
  343MOL0     H46295   6.747   0.470   2.219  2.4766 -0.7188  1.1504
  343MOL0     H46296   6.704   0.341   2.111 -2.1596  1.1703 -2.2121
  343MOL0     H46297   6.913   0.289   2.051  1.4668 -0.5672  0.2035
  343MOL0     H46298   6.963   0.360   2.209 -1.9951  0.3635  0.9017
  343MOL0     H46299   6.978   0.592   2.078  2.9764  1.2981  2.0876
  343MOL0     H46300   6.989   0.487   1.940 -0.5242  1.2793 -0.5470
  343MOL0     H46301   7.185   0.372   2.025  0.3078  0.0143 -0.5885
  343MOL0     H46302   7.163   0.445   2.192 -0.4842  0.6656  0.3878
  343MOL0     H46303   7.392   0.723   1.955 -0.2505  0.8523 -1.1549
  343MOL0     H46304   6.673   0.699   1.839  0.0502  0.6064 -0.1795
  343MOL0     H46305   6.442   0.769   1.794  0.0645 -1.9969 -1.4025
  344MOL0     O46306   3.615  10.131   8.447 -0.1496 -0.0116 -0.2294
  344MOL0     C46307   3.629  10.167   8.330  0.2796  0.7472  0.0234
  344MOL0     O46308   3.530  10.178   8.226 -0.8286  0.1709  0.0156
  344MOL0     C46309   3.403  10.144   8.252  0.8019  0.6106  0.4094
  344MOL0     C46310   3.334  10.038   8.171 -0.3915 -0.0077  0.2190
  344MOL0     C46311   3.206  10.002   8.202 -0.7983  0.3809  0.4633
  344MOL0     C46312   3.134  10.061   8.310  0.9736  0.1334  0.1228
  344MOL0     O46313   3.002  10.035   8.330  0.5095 -0.6336 -0.0223
  344MOL0     C46314   2.950   9.919   8.269 -0.8426 -0.5086 -0.1415
  344MOL0     C46315   2.804   9.887   8.308 -0.1773 -0.3360 -0.7665
  344MOL0     C46316   2.692   9.991   8.279  0.0299 -0.2555  0.7850
  344MOL0     C46317   2.557   9.951   8.329 -0.3000 -0.7905 -0.7454
  344MOL0     C46318   2.448  10.067   8.320 -0.6754  0.6526  0.2934
  344MOL0     C46319   2.314  10.035   8.398 -0.4885  0.3171  0.1516
  344MOL0     C46320   2.327  10.019   8.547 -0.2517  0.1614  0.1694
  344MOL0     C46321   2.203   9.940   8.609  0.3974  1.1059 -0.3072
  344MOL0     N46322   2.067  10.002   8.613 -0.6693 -0.0155  0.0205
  344MOL0     C46323   1.967   9.963   8.689  0.5425  0.5027 -0.5212
  344MOL0     C46324   1.856  10.019   8.632  0.5633  0.2063 -0.5104
  344MOL0     C46325   1.717   9.972   8.685  0.0788 -0.1095  0.4304
  344MOL0     C46326   1.613  10.032   8.586  0.4740  0.3853 -0.8864
  344MOL0     C46327   1.465  10.005   8.635  0.0672  0.2628  0.8139
  344MOL0     C46328   1.356  10.086   8.563  1.0002 -0.1106  0.1887
  344MOL0     O46329   1.236  10.093   8.648 -0.4503 -0.5964  0.0058
  344MOL0     C46330   1.130  10.171   8.604  0.6898  0.1366 -0.2105
  344MOL0     C46331   1.142  10.256   8.497 -0.3759 -0.2561  0.2248
  344MOL0     C46332   1.032  10.340   8.449  0.3356  0.2113  0.5856
  344MOL0     C46333   1.045  10.410   8.317 -0.7196  0.3080  0.5430
  344MOL0     C46334   0.912  10.329   8.523 -0.0738 -0.3166  0.1603
  344MOL0     C46335   0.786  10.386   8.469 -0.0202  0.7687 -0.2339
  344MOL0     O46336   0.676  10.301   8.487  0.7322 -0.3127 -0.3131
  344MOL0     C46337   0.551  10.357   8.458 -0.5646  0.0484 -1.4419
  344MOL0     C46338   0.456  10.359   8.567  0.8017  1.3156 -0.0157
  344MOL0     C46339   0.314  10.372   8.547 -0.1239  1.0474  0.3709
  344MOL0     C46340   0.266  10.408   8.417 -0.2321  0.0149  0.0052
  344MOL0     O46341   0.136  10.430   8.363 -0.1216 -0.8988 -0.3413
  344MOL0     C46342   0.029  10.411   8.455  0.4364  0.5503  0.3409
  344MOL0     C46343  -0.109  10.435   8.390 -1.2016 -0.1131 -0.4010
  344MOL0     C46344  -0.215  10.392   8.482  0.2889 -0.2106  0.4323
  344MOL0     C46345  -0.352  10.394   8.407  0.3569  0.4083  0.0588
  344MOL0     C46346  -0.462  10.413   8.516 -0.0646  0.4659 -0.7126
  344MOL0     C46347  -0.595  10.466   8.462  0.7558 -0.9041  0.3655
  344MOL0     C46348  -0.570  10.623   8.444 -0.3633 -0.4744  0.5630
  344MOL0     C46349  -0.703  10.707   8.423 -0.4992  0.0669  0.2556
  344MOL0    Cl46350  -0.665  10.874   8.391  0.3409  0.0064  0.0459
  344MOL0     C46351   0.366  10.423   8.317  0.4199 -1.4159  0.1487
  344MOL0     C46352   0.501  10.386   8.333 -0.2708 -0.6388  0.0802
  344MOL0     O46353   0.778  10.497   8.423 -0.2010 -0.8974  0.0660
  344MOL0     C46354   0.901  10.237   8.630  0.4225  0.1682  0.1658
  344MOL0     C46355   1.004  10.161   8.672 -0.1079  0.4556  0.2061
  344MOL0     N46356   1.903  10.103   8.533  0.2243 -0.1734  0.1556
  344MOL0     N46357   2.028  10.094   8.525  0.4308  1.0678 -0.1472
  344MOL0     C46358   3.192  10.161   8.388  0.6339  0.0657 -0.1695
  344MOL0     C46359   3.321  10.200   8.358 -0.6249  0.7448 -0.5411
  344MOL0     C46360   3.762  10.205   8.294 -0.0067 -1.1785 -0.1110
  344MOL0     C46361   3.785  10.261   8.168 -1.2111  0.1176 -0.0159
  344MOL0     C46362   3.918  10.287   8.134  0.0412 -0.3962 -0.1100
  344MOL0     C46363   4.023  10.273   8.217  0.2891  0.2604 -0.4707
  344MOL0     O46364   4.147  10.298   8.162 -0.5303  0.5486 -0.2027
  344MOL0     C46365   4.267  10.254   8.240  0.6859 -0.8144 -0.1254
  344MOL0     C46366   4.397  10.300   8.169  0.1423 -0.6022  0.0276
  344MOL0     C46367   4.383  10.442   8.110  0.1089  0.3137  0.3003
  344MOL0     C46368   4.512  10.519   8.092 -0.3117 -0.2951 -0.1113
  344MOL0     C46369   4.576  10.571   8.216  0.3033  0.7002  0.2937
  344MOL0     C46370   4.618  10.609   8.322  0.0016  0.2491  0.0260
  344MOL0     C46371   3.996  10.228   8.348 -0.2112  0.7500  0.3971
  344MOL0     C46372   3.871  10.197   8.382  1.1944  0.6451  0.1158
  344MOL0     H46373   3.383   9.978   8.095  1.1227 -0.5723  1.5688
  344MOL0     H46374   3.176   9.920   8.136  1.6352 -0.1381 -0.0764
  344MOL0     H46375   2.950   9.940   8.161  0.2784  3.2370  0.4431
  344MOL0     H46376   3.020   9.842   8.301  1.3384  1.7162  0.7734
  344MOL0     H46377   2.783   9.790   8.262  0.7770 -1.3001  0.7475
  344MOL0     H46378   2.810   9.866   8.415  3.2142  2.4958 -0.1987
  344MOL0     H46379   2.715  10.089   8.322 -1.1490 -0.1836  1.2873
  344MOL0     H46380   2.685   9.997   8.170  0.3946 -2.2394  0.6148
  344MOL0     H46381   2.521   9.866   8.272  1.0282 -2.2130  0.4562
  344MOL0     H46382   2.554   9.931   8.436 -3.4832  0.7247 -0.4288
  344MOL0     H46383   2.507  10.147   8.366  1.3301 -0.7994  0.3991
  344MOL0     H46384   2.439  10.093   8.215  1.0533  2.7182  0.5830
  344MOL0     H46385   2.249  10.123   8.390 -0.2847  0.7150  2.2668
  344MOL0     H46386   2.269   9.945   8.356  2.0828 -1.5688  1.1690
  344MOL0     H46387   2.416   9.965   8.580 -1.5374 -2.0129  0.2919
  344MOL0     H46388   2.333  10.114   8.601 -0.8455  0.2426  0.1055
  344MOL0     H46389   2.223   9.935   8.716  1.4453  1.8580 -0.4577
  344MOL0     H46390   2.190   9.837   8.574  1.8805  0.7772  0.0759
  344MOL0     H46391   1.973   9.899   8.776  0.5537  1.0104 -0.1447
  344MOL0     H46392   1.707   9.864   8.676  1.5940 -0.3583  1.3647
  344MOL0     H46393   1.689   9.999   8.787 -2.4661 -3.2783  0.7371
  344MOL0     H46394   1.624   9.998   8.483 -0.0296 -3.1870  0.1254
  344MOL0     H46395   1.626  10.141   8.588 -1.9980  0.7272 -0.7744
  344MOL0     H46396   1.461  10.035   8.740 -0.8098  5.3369 -0.3943
  344MOL0     H46397   1.443   9.899   8.619 -1.5374  0.8137 -0.9660
  344MOL0     H46398   1.330  10.061   8.460  2.6358 -1.9559  0.1674
  344MOL0     H46399   1.407  10.183   8.564 -0.1605  0.6451  4.1711
  344MOL0     H46400   1.239  10.257   8.448 -0.5291 -2.4319 -0.2482
  344MOL0     H46401   0.979  10.369   8.240  1.6585  0.6547 -1.8616
  344MOL0     H46402   1.015  10.515   8.331 -0.0454  0.4835  0.6852
  344MOL0     H46403   1.149  10.404   8.285 -1.1801 -0.7976 -0.8761
  344MOL0     H46404   0.491  10.334   8.667  0.8017  1.9153  0.1412
  344MOL0     H46405   0.241  10.367   8.627  1.5641 -2.9321  1.9445
  344MOL0     H46406   0.032  10.308   8.492  5.1841  0.1345 -0.6154
  344MOL0     H46407   0.033  10.470   8.547 -0.8718  0.4836  0.4651
  344MOL0     H46408  -0.113  10.543   8.376  2.3200  0.2928  0.6594
  344MOL0     H46409  -0.121  10.384   8.294  0.7449  0.5193 -1.0435
  344MOL0     H46410  -0.204  10.460   8.567 -0.1107  2.6473 -1.6374
  344MOL0     H46411  -0.194  10.287   8.503 -0.3692 -0.6859 -1.1524
  344MOL0     H46412  -0.353  10.480   8.340 -2.0680  0.6323  0.2734
  344MOL0     H46413  -0.372  10.305   8.346  0.3249  1.6946 -1.9046
  344MOL0     H46414  -0.430  10.486   8.591  2.4269 -0.4880 -0.7815
  344MOL0     H46415  -0.477  10.320   8.572  0.1229 -0.9114 -2.8620
  344MOL0     H46416  -0.625  10.411   8.373 -0.5859 -1.2260  0.9934
  344MOL0     H46417  -0.683  10.450   8.525 -1.6178  1.8641 -1.9484
  344MOL0     H46418  -0.502  10.639   8.360 -1.2825  1.3547  0.1144
  344MOL0     H46419  -0.534  10.665   8.539  0.5520  1.0389 -0.4159
  344MOL0     H46420  -0.776  10.697   8.504 -0.3852  0.2711  0.3857
  344MOL0     H46421  -0.748  10.665   8.333 -3.4242  4.4624 -0.6495
  344MOL0     H46422   0.327  10.462   8.223  0.6566  1.4545  1.1492
  344MOL0     H46423   0.576  10.383   8.254 -0.6250  1.4261 -0.4019
  344MOL0     H46424   0.804  10.217   8.675 -1.1319 -2.3069 -3.7544
  344MOL0     H46425   1.001  10.090   8.753 -0.3248 -2.7380 -2.4046
  344MOL0     H46426   3.143  10.197   8.478 -0.9052  0.0324 -0.9444
  344MOL0     H46427   3.362  10.277   8.422  1.7953 -0.6809 -0.2528
  344MOL0     H46428   3.697  10.289   8.111 -2.0021  1.8766  1.9193
  344MOL0     H46429   3.940  10.324   8.034 -1.3282  0.6680 -0.0326
  344MOL0     H46430   4.263  10.310   8.334  1.6078 -0.1547 -0.4632
  344MOL0     H46431   4.270  10.145   8.250  0.0107 -0.8239 -0.0040
  344MOL0     H46432   4.418  10.235   8.083 -1.6569  1.5091 -2.1450
  344MOL0     H46433   4.480  10.305   8.241  0.6265  0.1107 -0.5675
  344MOL0     H46434   4.311  10.491   8.177  0.2366  2.9874 -1.3992
  344MOL0     H46435   4.344  10.431   8.008  0.0469  1.1252  0.2342
  344MOL0     H46436   4.493  10.603   8.024  0.8117  0.4960  0.4982
  344MOL0     H46437   4.575  10.444   8.044 -2.9458 -4.3095  2.2081
  344MOL0     H46438   4.647  10.627   8.423  0.5464 -0.3703 -0.0116
  344MOL0     H46439   4.078  10.219   8.419  1.5944 -1.1314 -1.7718
  344MOL0     H46440   3.861  10.158   8.483  0.0198 -0.3986 -0.3886
  345MOL0     O46441   9.257   4.757  10.275  0.0754  0.2191  0.3975
  345MOL0     C46442   9.358   4.827  10.296  0.0797 -0.6455  0.5388
  345MOL0     O46443   9.371   4.939  10.386 -0.5649  0.6614 -0.1233
  345MOL0     C46444   9.261   4.946  10.466 -0.4685  0.7761 -0.2405
  345MOL0     C46445   9.150   5.018  10.408 -0.3121  0.4936  0.9492
  345MOL0     C46446   9.019   4.996  10.451 -0.2715  0.6524  0.4017
  345MOL0     C46447   8.994   4.922  10.568 -1.3294  0.2218 -1.0138
  345MOL0     O46448   8.865   4.923  10.622 -0.4034  0.3046  0.1206
  345MOL0     C46449   8.817   4.810  10.699  1.2281 -0.0627  0.1371
  345MOL0     C46450   8.668   4.837  10.727  0.5126  0.5307 -0.1065
  345MOL0     C46451   8.569   4.824  10.604 -0.4258 -0.3756 -0.1355
  345MOL0     C46452   8.434   4.890  10.643  0.9194  0.3201 -0.5250
  345MOL0     C46453   8.327   4.893  10.537  0.0325  0.6026  0.4875
  345MOL0     C46454   8.352   4.978  10.413 -0.7022 -0.3811 -0.2394
  345MOL0     C46455   8.250   4.929  10.303 -0.3008  0.0185  0.4389
  345MOL0     C46456   8.110   4.903  10.367 -0.2650 -0.1447  0.1337
  345MOL0     N46457   8.008   4.906  10.261 -0.0002 -0.0230  0.7055
  345MOL0     C46458   7.880   4.960  10.280  0.8356 -0.6621  0.5993
  345MOL0     C46459   7.823   4.950  10.150  0.0418  0.9330 -0.5238
  345MOL0     C46460   7.692   5.011  10.116  0.3149 -0.1101 -0.4796
  345MOL0     C46461   7.566   4.930  10.142 -0.6873 -0.3879 -0.0544
  345MOL0     C46462   7.566   4.801  10.059 -0.0098 -1.6732 -0.7563
  345MOL0     C46463   7.436   4.721  10.077  0.1230 -0.1762 -0.1702
  345MOL0     O46464   7.320   4.779  10.010 -0.4503  0.1246 -0.2809
  345MOL0     C46465   7.201   4.727  10.030 -0.3561  0.2932  0.5918
  345MOL0     C46466   7.094   4.807   9.985 -0.5795  0.1816  0.7482
  345MOL0     C46467   6.959   4.764   9.993 -0.2435  0.1801  0.1118
  345MOL0     C46468   6.854   4.856   9.933 -0.8403  0.4738 -0.2555
  345MOL0     C46469   6.934   4.631  10.037 -0.0059  0.1829  0.6449
  345MOL0     C46470   6.803   4.566  10.035  0.8316 -0.9961 -0.7025
  345MOL0     O46471   6.756   4.537  10.163 -0.4888 -0.5693  0.5183
  345MOL0     C46472   6.627   4.508  10.186  0.6580  0.2995 -0.1006
  345MOL0     C46473   6.534   4.599  10.231 -0.0314  0.1321  0.7082
  345MOL0     C46474   6.404   4.560  10.266  0.0052 -0.8828  0.2508
  345MOL0     C46475   6.350   4.434  10.237 -0.3270  0.1746 -0.7932
  345MOL0     O46476   6.227   4.392  10.238  0.1698 -0.8075 -0.1669
  345MOL0     C46477   6.117   4.485  10.265  0.2061  0.0196  0.3456
  345MOL0     C46478   5.995   4.420  10.201  0.4461  0.0658  0.0524
  345MOL0     C46479   5.866   4.492  10.244  0.8720 -0.3112  0.1989
  345MOL0     C46480   5.807   4.452  10.382  0.3198 -0.1938  0.7321
  345MOL0     C46481   5.713   4.336  10.375 -0.9708  0.1485 -0.1374
  345MOL0     C46482   5.658   4.285  10.509 -0.6639 -0.2799  0.2451
  345MOL0     C46483   5.583   4.393  10.588 -0.3337 -0.0261 -0.7068
  345MOL0     C46484   5.559   4.345  10.727 -0.8444  0.3639  0.1609
  345MOL0    Cl46485   5.462   4.455  10.822 -0.2777  0.1588 -0.3273
  345MOL0     C46486   6.448   4.339  10.199 -0.5376 -0.0202  0.3011
  345MOL0     C46487   6.580   4.376  10.178 -0.5383  0.1177 -0.1907
  345MOL0     O46488   6.749   4.548   9.931  0.1991  0.2201 -0.3938
  345MOL0     C46489   7.040   4.555  10.090 -0.9398 -0.2001 -0.6551
  345MOL0     C46490   7.173   4.597  10.087 -0.0184 -0.9758 -0.9325
  345MOL0     N46491   7.921   4.897  10.064 -0.2805 -0.3650  0.0232
  345MOL0     N46492   8.025   4.857  10.136  0.0058  0.1259 -0.3290
  345MOL0     C46493   9.109   4.854  10.627  0.4527  0.6298  0.6622
  345MOL0     C46494   9.237   4.864  10.578 -0.5636 -0.0999 -0.6961
  345MOL0     C46495   9.459   4.823  10.182  0.4099 -0.0066  0.0021
  345MOL0     C46496   9.561   4.911  10.178  0.7398 -0.3114 -0.1122
  345MOL0     C46497   9.651   4.915  10.067 -0.0972  0.0807 -0.0122
  345MOL0     C46498   9.631   4.830   9.956 -0.4719  0.6313 -0.0934
  345MOL0     O46499   9.704   4.833   9.834  0.1573  0.2122  0.2560
  345MOL0     C46500   9.813   4.923   9.831  0.4722  0.9278 -0.5133
  345MOL0     C46501   9.938   4.855   9.897 -0.8534  0.3264 -0.4287
  345MOL0     C46502   9.951   4.708   9.858  0.6171 -0.1625  0.5490
  345MOL0     C46503   9.969   4.679   9.707  0.4151 -0.4109 -0.6705
  345MOL0     C46504   9.941   4.542   9.672  0.7557 -0.8791 -0.8969
  345MOL0     C46505   9.939   4.423   9.658  0.0966  0.0241 -0.9969
  345MOL0     C46506   9.524   4.745   9.964  0.3799 -0.1104  0.3482
  345MOL0     C46507   9.444   4.736  10.076 -0.5536 -0.5270  0.4379
  345MOL0     H46508   9.165   5.074  10.317 -5.8890  1.6475  0.3374
  345MOL0     H46509   8.927   5.031  10.406 -2.4873 -3.4305  1.2516
  345MOL0     H46510   8.838   4.713  10.653 -0.0089  0.1796 -0.9997
  345MOL0     H46511   8.873   4.816  10.793  3.3797  1.0141 -1.1154
  345MOL0     H46512   8.634   4.779  10.813 -1.2056  0.3522 -0.8550
  345MOL0     H46513   8.664   4.943  10.754 -3.9878  0.3232  0.8716
  345MOL0     H46514   8.612   4.884  10.523  2.8074 -1.1453  0.8327
  345MOL0     H46515   8.547   4.720  10.578 -1.0362 -1.0593  2.7357
  345MOL0     H46516   8.401   4.832  10.730  1.8862  0.4773 -0.0419
  345MOL0     H46517   8.444   4.987  10.691 -0.7229 -0.3749  1.3544
  345MOL0     H46518   8.307   4.792  10.499  2.1355  0.7287 -1.1775
  345MOL0     H46519   8.238   4.925  10.591  0.4367 -0.2817  1.7355
  345MOL0     H46520   8.332   5.083  10.434  2.7390  0.0461  1.7187
  345MOL0     H46521   8.456   4.963  10.381 -0.5617  1.0371 -0.4916
  345MOL0     H46522   8.247   5.009  10.229 -0.8687  0.1092  0.5563
  345MOL0     H46523   8.281   4.836  10.254  1.3163  0.5492  0.3982
  345MOL0     H46524   8.087   4.980  10.440 -1.8566 -0.7267  0.2948
  345MOL0     H46525   8.103   4.807  10.420 -1.0155 -0.2338 -0.1173
  345MOL0     H46526   7.833   4.994  10.372 -0.1990  0.4315 -0.2942
  345MOL0     H46527   7.680   5.105  10.171 -2.2239  1.4746 -3.3670
  345MOL0     H46528   7.704   5.042  10.012 -1.4118  0.6503 -0.5038
  345MOL0     H46529   7.487   4.997  10.108 -0.0807  0.1175 -0.4994
  345MOL0     H46530   7.550   4.913  10.249  1.0864  2.5282  0.7893
  345MOL0     H46531   7.645   4.733  10.092  1.9956 -0.1358 -2.0974
  345MOL0     H46532   7.596   4.818   9.955  0.3158 -0.4451 -0.4751
  345MOL0     H46533   7.415   4.709  10.183  1.7250 -2.3616 -0.0360
  345MOL0     H46534   7.452   4.617  10.048 -1.3691 -0.6138  0.4728
  345MOL0     H46535   7.118   4.902   9.937 -3.2663  0.4983 -0.1158
  345MOL0     H46536   6.854   4.847   9.824  0.8879 -2.1793 -0.1162
  345MOL0     H46537   6.754   4.841   9.975 -1.4418 -0.5176 -1.9395
  345MOL0     H46538   6.887   4.957   9.962 -2.0214 -0.0302  3.2054
  345MOL0     H46539   6.569   4.700  10.248  2.2131 -0.7194  1.5256
  345MOL0     H46540   6.332   4.637  10.291  1.9837  1.4021 -0.7605
  345MOL0     H46541   6.107   4.490  10.374  0.5165 -2.2395  0.5207
  345MOL0     H46542   6.139   4.584  10.225 -0.8510 -0.3631 -1.2753
  345MOL0     H46543   6.010   4.420  10.093 -1.4696  0.0020 -0.2597
  345MOL0     H46544   5.996   4.315  10.232 -2.2376  0.1277  0.5901
  345MOL0     H46545   5.786   4.492  10.169  0.2158  1.4632  0.8319
  345MOL0     H46546   5.882   4.599  10.260 -1.7804  0.2044 -0.0172
  345MOL0     H46547   5.891   4.417  10.443  1.9159 -0.4378 -1.4855
  345MOL0     H46548   5.770   4.542  10.433 -0.5111 -0.9485  1.5133
  345MOL0     H46549   5.762   4.250  10.330  2.8426  2.1344 -0.1855
  345MOL0     H46550   5.624   4.369  10.321 -1.2009 -0.1870  0.0346
  345MOL0     H46551   5.583   4.207  10.491 -1.1380 -0.4999  2.8086
  345MOL0     H46552   5.744   4.252  10.568 -1.1308 -0.4618  0.8320
  345MOL0     H46553   5.484   4.404  10.542 -1.5926 -1.2870  1.5068
  345MOL0     H46554   5.624   4.494  10.600 -2.6508  0.8236  0.7561
  345MOL0     H46555   5.658   4.339  10.772 -1.3165 -0.2465  1.1580
  345MOL0     H46556   5.517   4.245  10.712  1.6773 -0.5284 -1.6590
  345MOL0     H46557   6.431   4.232  10.198  2.2736 -0.6874 -3.8149
  345MOL0     H46558   6.652   4.299  10.152 -2.8799 -1.7583 -1.5243
  345MOL0     H46559   7.017   4.460  10.136  1.5666 -0.2074  0.7561
  345MOL0     H46560   7.247   4.533  10.134 -0.3591 -0.0187  1.0099
  345MOL0     H46561   9.088   4.786  10.709  1.0986  0.7752  0.9587
  345MOL0     H46562   9.319   4.815  10.628 -1.6090 -0.1205  1.0895
  345MOL0     H46563   9.570   4.988  10.254  1.1991 -0.6115  0.1375
  345MOL0     H46564   9.726   4.992  10.051  1.3778 -1.1938  0.4905
  345MOL0     H46565   9.838   4.931   9.725  0.0321 -2.9920 -1.0328
  345MOL0     H46566   9.787   5.017   9.881 -1.2275  0.1655  0.1287
  345MOL0     H46567   9.923   4.855  10.005  0.9136 -0.2398 -0.1448
  345MOL0     H46568  10.030   4.901   9.858 -0.9767 -0.7415 -2.0700
  345MOL0     H46569   9.873   4.643   9.898 -1.2613  1.2870 -0.5500
  345MOL0     H46570  10.043   4.670   9.902  0.1739 -3.0688 -0.7971
  345MOL0     H46571  10.068   4.704   9.668  1.0996 -2.4381 -0.3749
  345MOL0     H46572   9.901   4.741   9.648  1.8485  1.9647  0.0468
  345MOL0     H46573   9.914   4.320   9.640 -2.0022  0.0469  1.2862
  345MOL0     H46574   9.520   4.673   9.882  4.0839 -2.0719  1.6095
  345MOL0     H46575   9.379   4.649  10.080 -0.1019 -0.8269  1.9900
  346MOL0     O46576   9.007   6.137   5.393  0.9005  0.1400  0.0524
  346MOL0     C46577   9.060   6.239   5.348  0.7225  0.3833 -0.0710
  346MOL0     O46578   9.003   6.334   5.269  0.3520  0.0783  0.5198
  346MOL0     C46579   8.875   6.335   5.218 -0.5866 -0.5426 -0.3452
  346MOL0     C46580   8.850   6.423   5.113  0.0632  0.9929  0.0371
  346MOL0     C46581   8.718   6.431   5.055  0.9505 -0.2033 -0.5305
  346MOL0     C46582   8.615   6.345   5.107  0.4244 -0.0432  0.1855
  346MOL0     O46583   8.496   6.371   5.051  0.1869 -0.2246  0.0404
  346MOL0     C46584   8.380   6.291   5.089  0.3480 -0.0506  0.5276
  346MOL0     C46585   8.248   6.358   5.024  0.4131 -0.1036  0.4804
  346MOL0     C46586   8.207   6.300   4.879 -0.0782 -0.5005 -1.1222
  346MOL0     C46587   8.107   6.389   4.805 -0.3478 -0.3966  0.0449
  346MOL0     C46588   7.969   6.382   4.852 -0.0246  0.0735 -0.0417
  346MOL0     C46589   7.886   6.476   4.768  0.2514  0.6490  0.0108
  346MOL0     C46590   7.736   6.449   4.796  0.6362 -0.2204  0.1069
  346MOL0     C46591   7.672   6.325   4.731  0.2554  0.0900 -0.5906
  346MOL0     N46592   7.536   6.300   4.769 -0.2759  0.0203  0.2559
  346MOL0     C46593   7.419   6.372   4.749 -0.0926 -0.0496 -0.4055
  346MOL0     C46594   7.329   6.312   4.829  0.0427  0.6412 -0.2697
  346MOL0     C46595   7.192   6.351   4.834  0.3513  0.8405  0.3244
  346MOL0     C46596   7.177   6.486   4.904 -0.0301 -0.2056  0.1194
  346MOL0     C46597   7.184   6.484   5.056 -0.3122 -0.0986  0.0759
  346MOL0     C46598   7.184   6.618   5.123 -0.4090  0.2027  1.2294
  346MOL0     O46599   7.234   6.637   5.261  0.5614  0.0417 -0.0558
  346MOL0     C46600   7.158   6.600   5.375 -0.3133 -0.0279  0.6562
  346MOL0     C46601   7.042   6.513   5.370 -0.4468 -0.4853  0.3896
  346MOL0     C46602   6.959   6.501   5.476 -0.2588 -0.5329 -0.4756
  346MOL0     C46603   6.851   6.390   5.459 -0.6574 -1.2102 -0.0581
  346MOL0     C46604   6.981   6.587   5.592  0.2255  0.4222 -1.0317
  346MOL0     C46605   6.885   6.595   5.704  0.5598 -0.2033 -1.0844
  346MOL0     O46606   6.761   6.550   5.681 -0.1397 -0.1444  0.2977
  346MOL0     C46607   6.657   6.577   5.767  0.6867 -0.1876 -0.1489
  346MOL0     C46608   6.543   6.492   5.765 -0.2989  0.1821  1.2879
  346MOL0     C46609   6.440   6.503   5.856 -0.7352 -0.5053 -0.0187
  346MOL0     C46610   6.439   6.611   5.951  0.0867  0.8753  0.1980
  346MOL0     O46611   6.323   6.631   6.021  0.7427  0.4905  0.1169
  346MOL0     C46612   6.344   6.691   6.147  0.3855 -0.6476  0.1126
  346MOL0     C46613   6.406   6.594   6.246 -0.8254 -0.9063  0.0231
  346MOL0     C46614   6.326   6.470   6.256  0.0168  0.1988  0.1766
  346MOL0     C46615   6.417   6.357   6.324  0.4155 -0.0143 -0.0925
  346MOL0     C46616   6.332   6.235   6.333  0.8050 -0.2132 -0.6648
  346MOL0     C46617   6.391   6.131   6.422  0.1638  0.5708  0.0994
  346MOL0     C46618   6.323   5.994   6.417 -0.4567  0.6152 -0.3671
  346MOL0     C46619   6.425   5.880   6.443  0.0149 -0.2886  0.3901
  346MOL0    Cl46620   6.331   5.731   6.474 -0.3643 -0.1458  0.4388
  346MOL0     C46621   6.547   6.702   5.945 -0.4342 -0.4741 -0.2492
  346MOL0     C46622   6.648   6.686   5.855 -0.6241  0.6685  0.2398
  346MOL0     O46623   6.932   6.620   5.815  0.4009  0.1384  0.1827
  346MOL0     C46624   7.099   6.663   5.595 -0.0439 -0.7981 -0.6901
  346MOL0     C46625   7.185   6.672   5.487  0.2330 -0.0012 -0.5614
  346MOL0     N46626   7.399   6.224   4.913  0.7944  0.3959  0.4643
  346MOL0     N46627   7.516   6.220   4.871 -0.1216 -0.2069 -0.6614
  346MOL0     C46628   8.648   6.255   5.211  0.3813  0.7561  0.1115
  346MOL0     C46629   8.775   6.246   5.260  0.0191 -0.5217  1.1599
  346MOL0     C46630   9.202   6.262   5.371 -0.2804  0.9163 -0.1232
  346MOL0     C46631   9.270   6.206   5.475 -0.4294 -0.2289  0.3882
  346MOL0     C46632   9.400   6.251   5.514  0.1084  0.8672  0.0155
  346MOL0     C46633   9.481   6.331   5.424 -0.0527  0.7848  0.5919
  346MOL0     O46634   9.611   6.372   5.437 -0.0708  0.3281 -0.8459
  346MOL0     C46635   9.672   6.338   5.569  0.6299  0.4138 -0.0429
  346MOL0     C46636   9.809   6.391   5.577  0.0027 -0.9099 -0.0020
  346MOL0     C46637   9.890   6.358   5.451  0.1059  0.4970 -0.6809
  346MOL0     C46638  10.023   6.414   5.454 -0.5287  0.2020 -0.2306
  346MOL0     C46639  10.115   6.342   5.370 -0.6326  0.0003  0.1064
  346MOL0     C46640  10.206   6.315   5.302 -0.5321 -0.3236 -0.2979
  346MOL0     C46641   9.408   6.383   5.310 -0.6824  0.0767  0.6738
  346MOL0     C46642   9.279   6.344   5.280 -0.0424 -0.3941  0.1394
  346MOL0     H46643   8.940   6.473   5.080  0.7210 -1.1563 -1.6358
  346MOL0     H46644   8.702   6.508   4.981 -2.5550 -2.6810 -2.6960
  346MOL0     H46645   8.402   6.188   5.058  1.6665  0.4306 -0.2285
  346MOL0     H46646   8.358   6.289   5.196  2.9963  1.0759  1.1671
  346MOL0     H46647   8.160   6.350   5.090 -0.1235  0.1423 -0.1959
  346MOL0     H46648   8.270   6.463   5.005 -0.2915 -0.4240 -2.6153
  346MOL0     H46649   8.295   6.279   4.817  0.6012 -0.2275 -0.2818
  346MOL0     H46650   8.165   6.202   4.901 -0.5366  0.0035  0.3404
  346MOL0     H46651   8.154   6.488   4.806 -0.1338 -0.4996  0.5224
  346MOL0     H46652   8.104   6.359   4.700 -3.1549  3.6684 -1.2534
  346MOL0     H46653   7.928   6.281   4.839  0.0663  0.2630 -2.2116
  346MOL0     H46654   7.960   6.409   4.957  0.4538  0.8379 -0.1945
  346MOL0     H46655   7.920   6.579   4.779  0.1571  0.6997 -0.1658
  346MOL0     H46656   7.893   6.452   4.661 -0.8031 -0.4714  0.1749
  346MOL0     H46657   7.737   6.456   4.905  0.7424 -0.6340  0.1362
  346MOL0     H46658   7.673   6.532   4.764 -1.7960 -1.6253  0.9553
  346MOL0     H46659   7.739   6.241   4.752 -0.4456 -0.5960 -1.0693
  346MOL0     H46660   7.681   6.332   4.622  0.1222  0.8576 -0.5604
  346MOL0     H46661   7.406   6.451   4.676 -2.1602 -0.9660 -1.1231
  346MOL0     H46662   7.155   6.361   4.732 -2.8671 -2.1350  0.9740
  346MOL0     H46663   7.129   6.277   4.885  1.1443  0.6096  0.9958
  346MOL0     H46664   7.079   6.530   4.884 -0.4545 -0.6204  1.2257
  346MOL0     H46665   7.265   6.545   4.875 -0.6711  0.8862  0.3520
  346MOL0     H46666   7.273   6.430   5.091 -1.6490 -1.8952  0.8707
  346MOL0     H46667   7.095   6.431   5.090 -3.1862  3.4163 -1.3976
  346MOL0     H46668   7.086   6.666   5.114 -0.2233  0.1204 -2.9979
  346MOL0     H46669   7.253   6.676   5.061  0.1864 -1.8381 -0.1243
  346MOL0     H46670   7.004   6.445   5.294 -1.5315 -0.3676  0.8092
  346MOL0     H46671   6.760   6.426   5.412  0.7242  0.7124 -1.3902
  346MOL0     H46672   6.878   6.307   5.392 -1.0157 -0.6832 -0.8681
  346MOL0     H46673   6.820   6.355   5.558 -1.6401  2.0858  0.9102
  346MOL0     H46674   6.523   6.414   5.693 -3.4217  1.4399  0.6064
  346MOL0     H46675   6.365   6.425   5.850 -2.9113  1.5828 -2.3836
  346MOL0     H46676   6.401   6.784   6.140  0.7430 -0.9557 -1.6612
  346MOL0     H46677   6.240   6.717   6.171  0.5600  1.7803 -1.4075
  346MOL0     H46678   6.510   6.569   6.223 -0.6077 -0.4849  0.5203
  346MOL0     H46679   6.416   6.641   6.345 -1.7876 -1.8594  0.6010
  346MOL0     H46680   6.293   6.437   6.157  0.7634  1.4894 -0.5234
  346MOL0     H46681   6.242   6.490   6.323  2.4481  1.4761  3.0360
  346MOL0     H46682   6.505   6.340   6.262 -1.0235 -1.6881 -1.8308
  346MOL0     H46683   6.454   6.398   6.419 -0.7389 -0.8264  0.7387
  346MOL0     H46684   6.314   6.199   6.231  0.3804 -1.8644 -0.0314
  346MOL0     H46685   6.237   6.279   6.366  1.0497  1.1539 -1.6596
  346MOL0     H46686   6.495   6.124   6.388  1.8861  4.9205  3.4898
  346MOL0     H46687   6.393   6.163   6.527  1.3819  0.5337  0.1068
  346MOL0     H46688   6.285   5.979   6.316  1.1704 -2.9370 -0.5976
  346MOL0     H46689   6.242   5.981   6.490 -0.0626 -0.0892 -0.0419
  346MOL0     H46690   6.490   5.895   6.529  1.2579 -0.4647 -0.5017
  346MOL0     H46691   6.491   5.862   6.358  0.6539  0.3698  0.7353
  346MOL0     H46692   6.549   6.789   6.011  3.0917 -0.0927 -0.6942
  346MOL0     H46693   6.726   6.762   5.859  0.0655  0.0297 -0.5498
  346MOL0     H46694   7.125   6.714   5.687 -0.4674 -1.8052  0.0082
  346MOL0     H46695   7.269   6.740   5.485  0.2593  0.4246  3.8366
  346MOL0     H46696   8.565   6.195   5.248 -0.0549  0.8411 -0.7233
  346MOL0     H46697   8.799   6.169   5.333  0.6115 -0.8857  0.5965
  346MOL0     H46698   9.215   6.141   5.543 -0.2936 -0.5385  0.2030
  346MOL0     H46699   9.437   6.211   5.608 -1.2094  2.5244  1.3004
  346MOL0     H46700   9.612   6.376   5.652 -3.9349 -1.6365 -2.0439
  346MOL0     H46701   9.675   6.229   5.567 -2.5324  0.2228  0.4299
  346MOL0     H46702   9.864   6.366   5.668  1.8321 -2.0030 -1.3370
  346MOL0     H46703   9.799   6.500   5.581  1.3320 -0.6945 -1.4534
  346MOL0     H46704   9.850   6.400   5.359 -2.0966 -1.4062 -0.7153
  346MOL0     H46705   9.882   6.249   5.442 -0.2779  0.4919 -0.3327
  346MOL0     H46706  10.048   6.417   5.561  0.4884  0.3912 -0.4694
  346MOL0     H46707  10.026   6.515   5.413  0.9030  0.0683 -0.4953
  346MOL0     H46708  10.291   6.310   5.237 -0.4275  0.9252 -0.2811
  346MOL0     H46709   9.456   6.443   5.233  0.7909 -2.6755 -0.7274
  346MOL0     H46710   9.235   6.388   5.191 -0.8995  1.6670  1.4888
  347MOL0     O46711   8.691   9.837   0.018  0.6553  0.2529  0.1402
  347MOL0     C46712   8.714   9.908  -0.073 -0.2890 -0.2198 -0.5733
  347MOL0     O46713   8.642  10.018  -0.107 -0.2070  0.6191  0.5208
  347MOL0     C46714   8.517  10.045  -0.047 -0.2459  0.2239  0.5580
  347MOL0     C46715   8.432   9.944   0.002 -0.4497 -0.1942  0.0871
  347MOL0     C46716   8.299   9.974   0.041  0.0332 -0.1786  0.0485
  347MOL0     C46717   8.259  10.114   0.042 -1.2030  0.1231 -0.5196
  347MOL0     O46718   8.136  10.161   0.083  0.1372 -0.1368 -0.5908
  347MOL0     C46719   8.036  10.065   0.118 -0.2013 -0.5306  0.3646
  347MOL0     C46720   7.907  10.136   0.158  1.2531  0.5106 -0.5043
  347MOL0     C46721   7.831  10.035   0.252  0.8597 -0.1890 -0.2015
  347MOL0     C46722   7.692  10.084   0.292 -0.4033  0.3994 -0.6169
  347MOL0     C46723   7.611   9.986   0.378 -0.4111  0.2760 -0.4363
  347MOL0     C46724   7.541   9.881   0.303  0.3126  1.5525 -0.5822
  347MOL0     C46725   7.446   9.794   0.388 -0.7752 -0.1069 -0.5332
  347MOL0     C46726   7.381   9.690   0.306  0.1229  0.9225  0.3920
  347MOL0     N46727   7.350   9.571   0.395 -0.0205 -0.7529  0.2496
  347MOL0     C46728   7.257   9.567   0.497 -0.9738 -0.2905  0.3767
  347MOL0     C46729   7.244   9.438   0.522  0.0388  0.1871 -0.5312
  347MOL0     C46730   7.140   9.396   0.620 -0.7306  0.5684  0.4413
  347MOL0     C46731   7.097   9.247   0.617 -0.1142  0.7358 -0.3151
  347MOL0     C46732   7.012   9.193   0.502  1.2359 -0.3146  0.2147
  347MOL0     C46733   6.971   9.048   0.533  0.1093 -0.2371 -0.3950
  347MOL0     O46734   6.883   9.042   0.647 -0.8986  0.0926 -0.3770
  347MOL0     C46735   6.749   9.076   0.642 -0.2652  0.2587  0.6332
  347MOL0     C46736   6.696   9.169   0.723 -0.6580 -0.1021  0.1065
  347MOL0     C46737   6.558   9.203   0.730 -0.0723  0.5134  0.8831
  347MOL0     C46738   6.522   9.303   0.830  0.1276  0.6625  0.7251
  347MOL0     C46739   6.475   9.140   0.630 -0.1387  0.5093  0.1500
  347MOL0     C46740   6.327   9.160   0.624  0.0254  0.1670  0.2297
  347MOL0     O46741   6.279   9.141   0.496 -0.0362  0.3714  0.5426
  347MOL0     C46742   6.148   9.166   0.473 -0.1790 -0.7821 -0.3964
  347MOL0     C46743   6.114   9.287   0.416  0.1594 -0.3827 -0.2957
  347MOL0     C46744   5.984   9.320   0.388  0.1161  0.3982 -0.3701
  347MOL0     C46745   5.877   9.229   0.423  0.6406 -0.1559 -0.5171
  347MOL0     O46746   5.748   9.275   0.396  0.2764  0.5010  0.5762
  347MOL0     C46747   5.634   9.188   0.402 -0.0251  0.3244 -1.0988
  347MOL0     C46748   5.527   9.230   0.294 -0.2347 -0.1517  0.1695
  347MOL0     C46749   5.396   9.170   0.334  0.8277  0.5741  0.9138
  347MOL0     C46750   5.397   9.012   0.341 -0.3590  0.1932  0.1254
  347MOL0     C46751   5.256   8.969   0.378  0.2265  0.1771 -0.5151
  347MOL0     C46752   5.223   8.827   0.360  1.0180  0.1217  0.6611
  347MOL0     C46753   5.074   8.796   0.368 -0.0443  0.1038  0.1860
  347MOL0     C46754   4.997   8.856   0.250  0.0585  0.8514 -1.0265
  347MOL0    Cl46755   4.829   8.786   0.240 -0.2554  0.2780  0.3175
  347MOL0     C46756   5.908   9.108   0.485 -1.0394 -0.3087  1.7278
  347MOL0     C46757   6.046   9.081   0.512 -0.2459 -0.2487  0.2471
  347MOL0     O46758   6.265   9.208   0.720 -0.1238 -0.0981 -0.0983
  347MOL0     C46759   6.538   9.047   0.541  0.3992 -0.4922 -0.2389
  347MOL0     C46760   6.669   9.015   0.545 -0.9015 -0.1287 -0.8221
  347MOL0     N46761   7.326   9.357   0.444 -0.7200  0.4365  0.6980
  347MOL0     N46762   7.388   9.444   0.369  0.4075  0.1864 -0.0890
  347MOL0     C46763   8.355  10.211   0.007  0.3283 -0.4103  0.8984
  347MOL0     C46764   8.481  10.178  -0.034 -0.3067  0.3085  0.9978
  347MOL0     C46765   8.830   9.870  -0.157  0.1794 -0.0219 -0.9352
  347MOL0     C46766   8.818   9.866  -0.296  0.3450 -0.2686  0.2896
  347MOL0     C46767   8.930   9.822  -0.375  0.2581  0.2548  0.0264
  347MOL0     C46768   9.050   9.796  -0.321 -0.7159  0.0922 -1.1354
  347MOL0     O46769   9.155   9.749  -0.398  0.1870  0.3915 -0.0681
  347MOL0     C46770   9.149   9.613  -0.436 -0.0519  0.4284 -0.0430
  347MOL0     C46771   9.234   9.531  -0.334 -1.3451 -0.4156  0.3113
  347MOL0     C46772   9.391   9.552  -0.352 -0.4003 -0.1207 -0.1839
  347MOL0     C46773   9.457   9.684  -0.316 -0.2393 -0.5287 -0.0154
  347MOL0     C46774   9.598   9.671  -0.360 -0.9592 -0.4290 -0.7993
  347MOL0     C46775   9.717   9.684  -0.389  0.3712 -0.1068  1.1338
  347MOL0     C46776   9.067   9.808  -0.183 -0.0502 -0.6973 -0.0285
  347MOL0     C46777   8.957   9.836  -0.101  0.1533 -1.3442  0.4677
  347MOL0     H46778   8.465   9.842  -0.011  1.9184  0.4998  0.0141
  347MOL0     H46779   8.236   9.892   0.072  1.3523 -2.2170 -2.3361
  347MOL0     H46780   8.019  10.005   0.029 -1.6582  0.8138 -0.3154
  347MOL0     H46781   8.062  10.005   0.206 -0.5366  0.3315  1.0671
  347MOL0     H46782   7.915  10.230   0.213 -1.2888  0.3753  0.2257
  347MOL0     H46783   7.849  10.168   0.072 -0.5359 -1.4442 -0.1129
  347MOL0     H46784   7.824   9.935   0.207  1.3299 -0.9456  1.3313
  347MOL0     H46785   7.882  10.026   0.348  0.0400  0.5665  0.3108
  347MOL0     H46786   7.709  10.174   0.352  0.8556 -1.0399  1.2894
  347MOL0     H46787   7.639  10.102   0.198  0.6155 -2.8729 -1.9408
  347MOL0     H46788   7.671   9.924   0.444 -0.8061  0.9422  0.5702
  347MOL0     H46789   7.538  10.047   0.432 -0.9598  0.2244 -1.1087
  347MOL0     H46790   7.486   9.925   0.220  1.6299  0.0355 -2.3251
  347MOL0     H46791   7.619   9.818   0.259 -1.2857 -0.0608 -1.1929
  347MOL0     H46792   7.518   9.751   0.459 -1.4028 -0.5725 -0.1774
  347MOL0     H46793   7.377   9.861   0.440  0.8483 -0.1876  1.9091
  347MOL0     H46794   7.445   9.663   0.221 -1.7371  1.2622 -1.1746
  347MOL0     H46795   7.291   9.733   0.261  0.7360  2.5034  0.6134
  347MOL0     H46796   7.196   9.649   0.535  1.7288  1.7348  0.6417
  347MOL0     H46797   7.185   9.407   0.719  3.3914 -1.7238 -0.9753
  347MOL0     H46798   7.047   9.453   0.606 -1.8864 -1.1820  0.7177
  347MOL0     H46799   7.036   9.234   0.707  1.8147 -1.0139  0.8412
  347MOL0     H46800   7.187   9.186   0.631 -2.2685 -2.8953 -0.9932
  347MOL0     H46801   7.065   9.197   0.406  2.0475  0.8572  0.6841
  347MOL0     H46802   6.919   9.248   0.488  0.8344 -0.8132  0.8916
  347MOL0     H46803   7.060   8.986   0.547  1.4540  1.6238 -0.3800
  347MOL0     H46804   6.914   9.008   0.448 -2.7957 -0.7618  1.6481
  347MOL0     H46805   6.773   9.211   0.788 -0.8858 -0.8848  0.8985
  347MOL0     H46806   6.612   9.361   0.850  2.6181 -2.3150 -0.9651
  347MOL0     H46807   6.450   9.370   0.782  1.4303  2.4854  1.2255
  347MOL0     H46808   6.486   9.259   0.924  2.4285 -0.5518  1.1159
  347MOL0     H46809   6.199   9.347   0.382 -0.5625  1.1164  0.4470
  347MOL0     H46810   5.959   9.417   0.347 -1.6366 -0.8979 -2.5953
  347MOL0     H46811   5.658   9.083   0.383 -0.9735 -0.6492  2.3582
  347MOL0     H46812   5.589   9.197   0.502  2.3586 -1.1613  0.2087
  347MOL0     H46813   5.513   9.337   0.278  2.2667 -0.0959 -2.4541
  347MOL0     H46814   5.549   9.201   0.191 -1.0397 -0.3983  0.0524
  347MOL0     H46815   5.320   9.205   0.262  1.0875  1.4127  1.0293
  347MOL0     H46816   5.371   9.207   0.434  0.7544  2.8681  0.1138
  347MOL0     H46817   5.445   8.966   0.254 -1.5227  0.7583 -0.8396
  347MOL0     H46818   5.463   8.999   0.427 -0.1309 -0.1014 -0.0947
  347MOL0     H46819   5.189   9.031   0.318  2.2188  1.9638 -0.9986
  347MOL0     H46820   5.234   8.987   0.483 -1.5261 -0.3538 -0.7612
  347MOL0     H46821   5.257   8.811   0.257 -1.4333  1.4305 -0.4336
  347MOL0     H46822   5.283   8.771   0.432  1.7697  0.2170  0.1185
  347MOL0     H46823   5.025   8.829   0.460  1.0001  2.5444 -0.0592
  347MOL0     H46824   5.059   8.687   0.360 -2.8784  0.5545 -4.6704
  347MOL0     H46825   5.049   8.831   0.158  1.1440 -2.1529  0.2587
  347MOL0     H46826   4.986   8.964   0.263 -0.2816  0.6890  0.1972
  347MOL0     H46827   5.829   9.044   0.523 -1.3286 -0.9033  0.1937
  347MOL0     H46828   6.061   8.986   0.562  0.4051  1.2521  3.0576
  347MOL0     H46829   6.467   8.997   0.476 -3.2269  1.9586  1.5535
  347MOL0     H46830   6.704   8.937   0.478 -0.4398 -1.1844  0.6217
  347MOL0     H46831   8.323  10.314   0.018 -1.7764 -1.0074  0.7729
  347MOL0     H46832   8.546  10.259  -0.067  0.3651 -1.0518 -1.1924
  347MOL0     H46833   8.736   9.907  -0.354  0.2820  2.9577  2.3557
  347MOL0     H46834   8.934   9.816  -0.483  0.9257  3.0934 -0.1924
  347MOL0     H46835   9.046   9.576  -0.434  0.1418 -0.1779 -0.7950
  347MOL0     H46836   9.178   9.588  -0.539  0.0892  0.0736  0.0797
  347MOL0     H46837   9.219   9.424  -0.351  1.7510 -0.7215 -1.1739
  347MOL0     H46838   9.213   9.547  -0.228  2.2300 -1.6871  1.3613
  347MOL0     H46839   9.418   9.518  -0.453 -1.4218 -0.7545 -0.2623
  347MOL0     H46840   9.437   9.477  -0.287 -0.3907  1.3614  1.5977
  347MOL0     H46841   9.452   9.687  -0.207  0.6710 -0.8431  0.0421
  347MOL0     H46842   9.411   9.766  -0.372 -0.2255 -2.2168 -2.6497
  347MOL0     H46843   9.816   9.710  -0.423  1.3634 -3.2692  1.3092
  347MOL0     H46844   9.159   9.784  -0.131  0.0495  0.5146  0.3880
  347MOL0     H46845   8.967   9.835   0.007 -0.6468 -1.8571  0.5441
  348MOL0     O46846   6.428   0.603   4.584 -0.3061 -1.0715  0.2495
  348MOL0     C46847   6.495   0.550   4.673 -0.3623  0.3824 -0.9634
  348MOL0     O46848   6.450   0.517   4.800  0.5029  0.8961 -0.1157
  348MOL0     C46849   6.315   0.523   4.841 -0.1719  0.2746 -0.7165
  348MOL0     C46850   6.201   0.584   4.770  0.2900  0.3071  0.1633
  348MOL0     C46851   6.075   0.578   4.824 -0.2478 -0.5466  0.4417
  348MOL0     C46852   6.053   0.517   4.949 -0.1562 -0.4059 -0.1491
  348MOL0     O46853   5.930   0.516   5.004  0.0152 -0.2628 -0.3160
  348MOL0     C46854   5.827   0.602   4.944 -0.1195  0.2253  0.8512
  348MOL0     C46855   5.702   0.573   5.018  1.0900  0.1872  0.7002
  348MOL0     C46856   5.590   0.634   4.939 -0.5207  0.9215  0.9876
  348MOL0     C46857   5.456   0.626   5.008 -0.3076 -0.3182 -0.3396
  348MOL0     C46858   5.337   0.697   4.924  0.0681 -0.0797  1.1846
  348MOL0     C46859   5.209   0.728   4.997 -0.3341 -0.3878 -0.2553
  348MOL0     C46860   5.112   0.808   4.906 -0.4575 -0.2533  0.1592
  348MOL0     C46861   5.072   0.749   4.777  0.0525 -0.0896 -0.0524
  348MOL0     N46862   4.990   0.623   4.802 -0.7243 -0.3135  1.3958
  348MOL0     C46863   4.856   0.623   4.798 -1.0020  1.3518  0.5929
  348MOL0     C46864   4.820   0.492   4.827  0.6062 -0.1426  0.1693
  348MOL0     C46865   4.683   0.441   4.852  0.2087 -0.3579  0.4509
  348MOL0     C46866   4.646   0.349   4.736 -0.1587 -0.1722 -0.8551
  348MOL0     C46867   4.503   0.311   4.751  0.0151  0.0536 -0.0321
  348MOL0     C46868   4.481   0.180   4.675 -0.9464  0.1477 -0.4853
  348MOL0     O46869   4.341   0.145   4.691 -0.1258 -0.5891 -0.4796
  348MOL0     C46870   4.242   0.198   4.611  0.2514 -0.3882 -0.3749
  348MOL0     C46871   4.118   0.137   4.630 -0.3598  0.9818  0.3182
  348MOL0     C46872   4.004   0.179   4.559 -0.4665  1.2306  0.1837
  348MOL0     C46873   3.886   0.091   4.583 -0.6828 -0.5845  0.4183
  348MOL0     C46874   4.013   0.281   4.459  0.5253 -0.1819  0.6767
  348MOL0     C46875   3.893   0.328   4.387 -0.3359  0.8606  0.0392
  348MOL0     O46876   3.916   0.418   4.293  0.3427 -0.9325  0.3121
  348MOL0     C46877   3.815   0.471   4.218 -0.0189 -0.4176 -0.3372
  348MOL0     C46878   3.801   0.435   4.085  0.5312 -0.2358  0.2115
  348MOL0     C46879   3.689   0.489   4.020  0.1399 -0.2456  0.2833
  348MOL0     C46880   3.608   0.591   4.073 -0.1930  1.0767 -0.7810
  348MOL0     O46881   3.526   0.646   3.988  0.2550 -0.0240 -0.2633
  348MOL0     C46882   3.387   0.634   4.013  0.2483 -0.1665 -0.3208
  348MOL0     C46883   3.308   0.632   3.886  0.2608 -0.1737  1.1345
  348MOL0     C46884   3.152   0.646   3.926 -0.9426 -0.2982  0.4638
  348MOL0     C46885   3.064   0.599   3.818  0.0607 -0.2864  0.1258
  348MOL0     C46886   2.915   0.600   3.863 -0.8533 -0.2216  0.1839
  348MOL0     C46887   2.832   0.730   3.848 -0.6552 -0.6422 -0.3503
  348MOL0     C46888   2.686   0.719   3.884 -0.6948  0.1726 -0.2320
  348MOL0     C46889   2.656   0.643   4.007  0.6198  0.2036 -0.0307
  348MOL0    Cl46890   2.475   0.634   4.012  0.0364 -0.1808 -0.6060
  348MOL0     C46891   3.634   0.637   4.203  0.9869 -0.2172  0.1190
  348MOL0     C46892   3.735   0.575   4.276 -0.0734 -0.9693  0.1897
  348MOL0     O46893   3.779   0.302   4.425 -0.0616  0.3263  0.0136
  348MOL0     C46894   4.134   0.341   4.439 -0.4866  0.1718 -0.2898
  348MOL0     C46895   4.251   0.304   4.515 -0.1696 -0.5082 -0.3069
  348MOL0     N46896   4.940   0.423   4.854  0.2881 -1.0478 -0.0985
  348MOL0     N46897   5.038   0.498   4.828  0.4743 -0.8616  0.5544
  348MOL0     C46898   6.157   0.450   5.018  0.7469 -0.4395 -0.7599
  348MOL0     C46899   6.288   0.469   4.974 -0.3814 -0.4702  0.0083
  348MOL0     C46900   6.643   0.526   4.658 -0.1136 -1.3511  0.3711
  348MOL0     C46901   6.736   0.501   4.762  0.5362 -0.5551 -0.2549
  348MOL0     C46902   6.869   0.485   4.729  0.4807  0.1692 -0.3775
  348MOL0     C46903   6.920   0.488   4.599  0.4247 -0.1701 -0.6449
  348MOL0     O46904   7.058   0.475   4.587 -0.3637  0.0187 -0.3452
  348MOL0     C46905   7.108   0.483   4.449  0.6607  0.1181  1.0606
  348MOL0     C46906   7.084   0.353   4.371  0.4038 -0.3368  0.6070
  348MOL0     C46907   7.157   0.343   4.236 -0.3248  0.7119  0.0993
  348MOL0     C46908   7.304   0.327   4.248  0.4430  0.4801  0.4724
  348MOL0     C46909   7.363   0.322   4.115 -1.1237 -0.5892 -0.1910
  348MOL0     C46910   7.430   0.317   4.010 -0.6362  0.3274 -0.2669
  348MOL0     C46911   6.830   0.522   4.500  0.1273  0.0108 -1.0927
  348MOL0     C46912   6.695   0.535   4.526 -0.3271 -1.0222  0.3196
  348MOL0     H46913   6.191   0.630   4.672 -0.8915  0.1732  0.2045
  348MOL0     H46914   5.997   0.637   4.777  0.4372  0.9695  1.1152
  348MOL0     H46915   5.857   0.706   4.959  2.1479  0.0130 -1.5910
  348MOL0     H46916   5.807   0.580   4.839  1.9960 -0.6299  0.5772
  348MOL0     H46917   5.673   0.468   5.019  1.6968 -0.0220 -0.7234
  348MOL0     H46918   5.705   0.613   5.120  3.5823  0.3042  0.6484
  348MOL0     H46919   5.614   0.741   4.934 -2.7908  1.4314 -0.9339
  348MOL0     H46920   5.590   0.589   4.839 -0.0989  0.7777  1.0510
  348MOL0     H46921   5.439   0.519   5.024  0.6002 -0.4713 -0.3914
  348MOL0     H46922   5.453   0.667   5.109  0.8208 -0.5779 -0.1904
  348MOL0     H46923   5.373   0.788   4.875  1.2405 -0.7105  0.8311
  348MOL0     H46924   5.316   0.629   4.841 -0.3783  0.7545  0.6031
  348MOL0     H46925   5.163   0.636   5.035  1.0117 -0.8125  0.4030
  348MOL0     H46926   5.224   0.794   5.083  1.9217  2.7664 -2.8255
  348MOL0     H46927   5.020   0.816   4.966 -1.6805 -1.6882 -1.4329
  348MOL0     H46928   5.146   0.910   4.885  1.5321 -1.1538 -1.2345
  348MOL0     H46929   5.163   0.724   4.722  1.5845 -0.7818  2.6214
  348MOL0     H46930   5.016   0.826   4.723 -1.7247 -0.2106  1.5297
  348MOL0     H46931   4.802   0.716   4.779  0.5243  1.6342 -3.2711
  348MOL0     H46932   4.683   0.385   4.946  0.1286 -2.5218 -0.7645
  348MOL0     H46933   4.615   0.526   4.857  2.6696  1.7155  0.7310
  348MOL0     H46934   4.704   0.259   4.761 -2.0640 -1.3009 -0.2375
  348MOL0     H46935   4.663   0.383   4.634 -2.2031 -3.0081 -2.3129
  348MOL0     H46936   4.449   0.399   4.715 -0.4748 -0.2887 -0.1530
  348MOL0     H46937   4.480   0.296   4.857 -3.3368 -0.6398 -0.7291
  348MOL0     H46938   4.542   0.098   4.715  0.4121  1.6328  0.6172
  348MOL0     H46939   4.509   0.189   4.570 -3.2187 -1.7182 -1.3452
  348MOL0     H46940   4.110   0.055   4.700 -1.3433 -0.0451 -0.9545
  348MOL0     H46941   3.899   0.007   4.652  0.8479 -1.5685 -0.9949
  348MOL0     H46942   3.800   0.150   4.616  0.7805  0.7455  2.0382
  348MOL0     H46943   3.862   0.034   4.494  0.3558  1.6896 -1.4445
  348MOL0     H46944   3.863   0.362   4.034 -0.1190  0.8637 -2.2960
  348MOL0     H46945   3.686   0.455   3.917  0.8711  0.5210  0.0030
  348MOL0     H46946   3.377   0.537   4.062 -1.4019  0.9199  1.6880
  348MOL0     H46947   3.343   0.707   4.081  2.0140  1.0082 -0.3726
  348MOL0     H46948   3.331   0.713   3.816 -4.3270 -0.4286 -1.0578
  348MOL0     H46949   3.328   0.536   3.837  2.3046 -0.0379  1.6331
  348MOL0     H46950   3.130   0.750   3.952 -0.6865  0.1626 -1.1023
  348MOL0     H46951   3.129   0.578   4.009 -0.3470  1.3215  2.0244
  348MOL0     H46952   3.070   0.673   3.738  3.9459 -0.7507 -0.2387
  348MOL0     H46953   3.099   0.500   3.785  1.3178  0.5497 -1.2075
  348MOL0     H46954   2.904   0.551   3.960  1.2538  2.3976  1.8954
  348MOL0     H46955   2.861   0.535   3.792 -0.1144 -1.6123  0.8444
  348MOL0     H46956   2.868   0.802   3.921  0.5300 -1.2093 -0.3576
  348MOL0     H46957   2.842   0.769   3.746  3.6971 -0.5824 -0.0902
  348MOL0     H46958   2.641   0.665   3.801 -0.7598 -0.3477  0.1339
  348MOL0     H46959   2.637   0.817   3.885 -2.5677 -0.6340  3.5272
  348MOL0     H46960   2.693   0.690   4.099  0.7195 -1.6087  0.9100
  348MOL0     H46961   2.695   0.542   3.993  0.6210  0.1235  0.5217
  348MOL0     H46962   3.581   0.726   4.235  0.3004 -0.5099 -0.2054
  348MOL0     H46963   3.769   0.617   4.371 -0.8526  2.7616 -1.0082
  348MOL0     H46964   4.153   0.404   4.354  0.5044 -1.8364 -1.6366
  348MOL0     H46965   4.349   0.338   4.482 -1.6098  3.4578 -0.9685
  348MOL0     H46966   6.140   0.403   5.115  1.4175  0.5050 -0.1791
  348MOL0     H46967   6.372   0.429   5.031 -0.0916  1.7465  1.2174
  348MOL0     H46968   6.709   0.501   4.867 -0.0753  0.4387 -0.4037
  348MOL0     H46969   6.944   0.470   4.806  1.3189 -1.2587 -1.4375
  348MOL0     H46970   7.065   0.577   4.413  0.6062  0.6231  2.4061
  348MOL0     H46971   7.215   0.507   4.453  0.3359  1.7206  0.6392
  348MOL0     H46972   6.979   0.333   4.351  0.6319 -1.6159  0.6053
  348MOL0     H46973   7.120   0.274   4.437  0.5636 -2.2298 -1.6121
  348MOL0     H46974   7.131   0.427   4.170 -0.7620  2.4891  2.4073
  348MOL0     H46975   7.116   0.255   4.186  2.2331  0.4475 -1.7766
  348MOL0     H46976   7.327   0.232   4.296 -0.0779  0.4925  0.7479
  348MOL0     H46977   7.347   0.414   4.298  0.9010  1.0316 -0.8186
  348MOL0     H46978   7.490   0.303   3.922  3.5061  0.9866  2.1533
  348MOL0     H46979   6.860   0.543   4.398 -0.1364 -0.1477 -1.2032
  348MOL0     H46980   6.630   0.545   4.440 -0.3761 -2.6767  0.1272
  349MOL0     O46981   0.536   2.728   6.711 -0.1993 -0.6732  0.3963
  349MOL0     C46982   0.590   2.630   6.759 -0.6764 -0.4141 -0.0262
  349MOL0     O46983   0.519   2.520   6.807  0.0421 -0.0253  0.6841
  349MOL0     C46984   0.384   2.518   6.804  0.0627  0.2615  0.2044
  349MOL0     C46985   0.311   2.623   6.864  0.4342  0.3053 -0.0487
  349MOL0     C46986   0.180   2.618   6.871  0.0165 -0.3473 -0.0977
  349MOL0     C46987   0.100   2.514   6.819  0.5521  0.1127  0.1017
  349MOL0     O46988  -0.036   2.518   6.836  0.1524  0.4001  0.2109
  349MOL0     C46989  -0.121   2.421   6.767 -0.1618 -0.8916  0.0630
  349MOL0     C46990  -0.259   2.482   6.762 -0.4669 -0.3499  0.2168
  349MOL0     C46991  -0.364   2.384   6.719 -0.4332  0.2972 -0.3022
  349MOL0     C46992  -0.506   2.431   6.728 -0.2821  0.0889 -0.6889
  349MOL0     C46993  -0.610   2.315   6.717  0.3730  0.5768 -0.0587
  349MOL0     C46994  -0.756   2.347   6.731  0.4757  0.3273 -0.4768
  349MOL0     C46995  -0.796   2.429   6.616  0.0825 -1.0312  0.2803
  349MOL0     C46996  -0.944   2.451   6.599 -0.2207 -0.8998  0.0771
  349MOL0     N46997  -1.016   2.478   6.728 -0.2676 -0.7558  0.2108
  349MOL0     C46998  -1.024   2.608   6.780  0.1498 -0.7570 -0.2759
  349MOL0     C46999  -1.109   2.598   6.881  0.3317 -0.0505 -0.3167
  349MOL0     C47000  -1.156   2.711   6.964 -0.5431 -0.0028  0.3193
  349MOL0     C47001  -1.304   2.717   6.985 -0.1600  0.4223 -0.3175
  349MOL0     C47002  -1.366   2.614   7.083  0.1174  0.1364 -0.4381
  349MOL0     C47003  -1.506   2.664   7.130  0.2542 -1.0511  0.1199
  349MOL0     O47004  -1.601   2.637   7.031  0.5712 -0.5380 -0.3497
  349MOL0     C47005  -1.725   2.677   7.066  0.2653 -0.0422 -0.7247
  349MOL0     C47006  -1.815   2.660   6.968 -0.3138 -0.1576  0.6062
  349MOL0     C47007  -1.949   2.681   6.984  0.6039  0.2387 -0.4298
  349MOL0     C47008  -2.033   2.662   6.859 -0.1017 -0.7629 -0.5388
  349MOL0     C47009  -1.999   2.731   7.111  0.4102  0.6707  0.8492
  349MOL0     C47010  -2.149   2.756   7.149 -0.0156 -0.3234  0.0919
  349MOL0     O47011  -2.247   2.719   7.060 -0.0634 -0.1569 -0.5356
  349MOL0     C47012  -2.377   2.719   7.097  0.1358  0.5378  0.1051
  349MOL0     C47013  -2.431   2.647   7.201 -0.2454  0.8864 -0.1574
  349MOL0     C47014  -2.570   2.653   7.234  0.6172 -0.3147  1.1406
  349MOL0     C47015  -2.660   2.715   7.149 -0.2397 -0.4226  0.1872
  349MOL0     O47016  -2.797   2.699   7.162  0.3115 -0.8323  0.3666
  349MOL0     C47017  -2.853   2.659   7.281 -0.3553  1.1707 -0.4706
  349MOL0     C47018  -3.003   2.671   7.283  0.1112  0.1182 -0.8241
  349MOL0     C47019  -3.071   2.577   7.183  0.7692  0.4292 -0.8709
  349MOL0     C47020  -3.226   2.582   7.194 -0.9103  0.0975  0.4815
  349MOL0     C47021  -3.276   2.449   7.140  0.1813  0.4786 -0.0679
  349MOL0     C47022  -3.430   2.451   7.131 -0.5339  0.0960 -0.1354
  349MOL0     C47023  -3.504   2.333   7.069  0.4088  0.3578  0.7143
  349MOL0     C47024  -3.453   2.206   7.133  0.2429  0.3799 -0.7090
  349MOL0    Cl47025  -3.544   2.064   7.074  0.1352  0.1370  0.2505
  349MOL0     C47026  -2.608   2.789   7.040 -0.3491  0.6715 -0.3516
  349MOL0     C47027  -2.472   2.780   7.013 -0.4531 -0.1494  0.4929
  349MOL0     O47028  -2.172   2.818   7.247 -0.2286 -0.5450 -1.0195
  349MOL0     C47029  -1.909   2.742   7.212 -0.5287 -0.4787  0.2231
  349MOL0     C47030  -1.771   2.723   7.192 -0.6076 -0.5239  0.7458
  349MOL0     N47031  -1.138   2.460   6.897  0.0658 -0.3103  0.3988
  349MOL0     N47032  -1.089   2.398   6.804  0.2164 -0.2150  0.7521
  349MOL0     C47033   0.176   2.409   6.765  0.7360  0.5359  0.1955
  349MOL0     C47034   0.312   2.408   6.760  0.4762 -0.3373 -0.6857
  349MOL0     C47035   0.739   2.621   6.752  0.0654 -0.5813  0.4110
  349MOL0     C47036   0.811   2.687   6.661  0.3480  0.0042  0.6809
  349MOL0     C47037   0.954   2.697   6.657 -0.4420  0.8368  0.1562
  349MOL0     C47038   1.021   2.629   6.761 -0.5328  0.0844  0.5113
  349MOL0     O47039   1.156   2.630   6.760 -0.7692  0.0743 -0.2096
  349MOL0     C47040   1.245   2.731   6.698  0.7541  0.0975 -0.3510
  349MOL0     C47041   1.386   2.709   6.735 -0.5178 -0.0822 -0.7906
  349MOL0     C47042   1.478   2.820   6.679 -0.3975 -0.2853 -0.7616
  349MOL0     C47043   1.606   2.831   6.757  0.0101 -0.7461  0.9756
  349MOL0     C47044   1.677   2.710   6.790 -0.5757 -0.2908  0.5164
  349MOL0     C47045   1.732   2.614   6.830 -0.3208  1.1881 -0.3503
  349MOL0     C47046   0.953   2.567   6.871  0.1360  0.0224 -0.2717
  349MOL0     C47047   0.812   2.561   6.857  0.6218 -0.6421  0.7932
  349MOL0     H47048   0.360   2.717   6.889  1.1563 -0.5550  1.9847
  349MOL0     H47049   0.139   2.711   6.910  0.5712 -0.3346  0.4538
  349MOL0     H47050  -0.078   2.395   6.670  1.5298 -1.9150  1.0527
  349MOL0     H47051  -0.107   2.335   6.833  0.5091  0.5279  1.8517
  349MOL0     H47052  -0.284   2.518   6.862  3.2699 -0.0926  1.1954
  349MOL0     H47053  -0.254   2.570   6.698  2.4100  0.6213  1.6055
  349MOL0     H47054  -0.345   2.338   6.621  1.9569  0.6542 -0.0810
  349MOL0     H47055  -0.353   2.311   6.800 -0.2620  1.4994  0.7867
  349MOL0     H47056  -0.519   2.474   6.828 -2.3770 -1.7765 -0.0836
  349MOL0     H47057  -0.525   2.508   6.653  2.4704  1.5040 -0.0521
  349MOL0     H47058  -0.616   2.261   6.622 -3.5956  0.3913  0.1064
  349MOL0     H47059  -0.590   2.226   6.778  0.9717 -0.1742 -1.3172
  349MOL0     H47060  -0.817   2.257   6.741  0.5721  0.4136  1.1558
  349MOL0     H47061  -0.772   2.395   6.828 -0.7830 -1.7196  0.3888
  349MOL0     H47062  -0.739   2.522   6.625  3.2485 -2.8552  0.5052
  349MOL0     H47063  -0.755   2.393   6.520  4.5387  1.4377  0.9824
  349MOL0     H47064  -0.990   2.375   6.535 -0.6432  0.4309 -1.2740
  349MOL0     H47065  -0.961   2.545   6.546  1.2544 -0.0032  1.1365
  349MOL0     H47066  -0.972   2.697   6.745 -3.8981  1.1699 -2.0251
  349MOL0     H47067  -1.109   2.708   7.063  2.5515  1.4925 -0.9820
  349MOL0     H47068  -1.129   2.798   6.905 -1.2938 -2.5823 -4.3131
  349MOL0     H47069  -1.349   2.725   6.885  0.4459  1.4699 -0.5265
  349MOL0     H47070  -1.326   2.810   7.039  1.0345  1.4642 -1.5435
  349MOL0     H47071  -1.307   2.606   7.175  1.4620 -1.4294 -1.3829
  349MOL0     H47072  -1.367   2.514   7.038 -0.9702 -1.2410  2.3784
  349MOL0     H47073  -1.497   2.773   7.140 -1.2681 -0.9736  0.9356
  349MOL0     H47074  -1.531   2.609   7.221  1.6033  0.6148  1.5763
  349MOL0     H47075  -1.771   2.625   6.875 -1.1017 -1.5615  0.7274
  349MOL0     H47076  -2.121   2.727   6.864  3.7225  5.2246 -0.7178
  349MOL0     H47077  -1.970   2.690   6.774 -0.4106 -5.3138 -2.5461
  349MOL0     H47078  -2.051   2.555   6.845 -1.4892 -0.9838  2.2322
  349MOL0     H47079  -2.370   2.590   7.270 -2.9016 -0.5864  1.0985
  349MOL0     H47080  -2.606   2.601   7.322  1.7335 -4.4001 -0.6034
  349MOL0     H47081  -2.838   2.553   7.301 -3.1401  1.2110  2.7140
  349MOL0     H47082  -2.823   2.728   7.361 -1.1614 -0.8823  1.7229
  349MOL0     H47083  -3.039   2.647   7.384 -0.3544  0.5497 -0.8816
  349MOL0     H47084  -3.045   2.771   7.269 -0.9946 -0.3117 -0.6491
  349MOL0     H47085  -3.028   2.477   7.187  0.5204  0.3675  0.9249
  349MOL0     H47086  -3.048   2.609   7.080 -0.3619  1.2232 -0.8930
  349MOL0     H47087  -3.256   2.585   7.299  1.8470  2.4563  1.3260
  349MOL0     H47088  -3.277   2.665   7.143 -0.3543  0.1190 -0.0509
  349MOL0     H47089  -3.236   2.374   7.209 -0.4543 -0.5901 -0.8256
  349MOL0     H47090  -3.229   2.428   7.043  1.8494  0.9710  0.6016
  349MOL0     H47091  -3.467   2.459   7.234 -1.5658  0.7577 -0.5472
  349MOL0     H47092  -3.466   2.544   7.086 -1.4218  0.0841  0.5263
  349MOL0     H47093  -3.481   2.326   6.962 -4.0578 -4.4299 -0.3289
  349MOL0     H47094  -3.612   2.346   7.075  0.5319  1.3674  0.9569
  349MOL0     H47095  -3.472   2.211   7.241  1.6117  0.2866 -0.4393
  349MOL0     H47096  -3.346   2.189   7.116  0.1862 -0.7887  0.0128
  349MOL0     H47097  -2.674   2.835   6.967 -0.2231 -1.9770 -2.2839
  349MOL0     H47098  -2.441   2.830   6.922 -4.3027  1.5959 -0.0556
  349MOL0     H47099  -1.936   2.761   7.315 -0.5049 -1.4413  0.4139
  349MOL0     H47100  -1.703   2.735   7.277 -2.0804 -0.8336  2.0061
  349MOL0     H47101   0.125   2.319   6.734  0.3815  1.0971 -0.9014
  349MOL0     H47102   0.363   2.327   6.709 -1.2922 -0.3718 -2.5185
  349MOL0     H47103   0.765   2.743   6.580  2.4100  0.7469 -0.0573
  349MOL0     H47104   0.995   2.758   6.577 -1.4309  1.4774  0.1108
  349MOL0     H47105   1.231   2.735   6.590 -0.0126  2.1815 -0.2326
  349MOL0     H47106   1.220   2.827   6.746  0.9990 -0.9880  2.1318
  349MOL0     H47107   1.414   2.610   6.697 -0.8906  0.2570 -1.9669
  349MOL0     H47108   1.387   2.700   6.844  2.1767 -0.7965 -0.8008
  349MOL0     H47109   1.424   2.913   6.658 -0.1195 -0.0969 -0.6362
  349MOL0     H47110   1.509   2.788   6.579 -0.3950  0.6420 -1.0659
  349MOL0     H47111   1.591   2.887   6.849 -3.7996 -0.6543  0.4350
  349MOL0     H47112   1.663   2.898   6.692 -2.0331 -1.2075 -1.4189
  349MOL0     H47113   1.780   2.521   6.852 -0.7042  1.1707  0.4736
  349MOL0     H47114   0.996   2.534   6.966  2.5203  1.5223 -0.7190
  349MOL0     H47115   0.743   2.500   6.914 -1.2419  0.5091 -0.1430
  350MOL0     O47116   1.886   7.271   4.287  0.2348  0.5002 -0.0576
  350MOL0     C47117   1.884   7.344   4.383 -0.4359  0.4929 -0.6540
  350MOL0     O47118   1.783   7.425   4.409  0.0570  0.3510 -0.3090
  350MOL0     C47119   1.672   7.439   4.326  0.2593 -0.4918  0.5050
  350MOL0     C47120   1.620   7.357   4.217 -0.5339 -0.0743  0.1487
  350MOL0     C47121   1.492   7.379   4.164 -0.3798  0.1385 -0.5888
  350MOL0     C47122   1.402   7.479   4.213 -0.3472 -0.4141 -0.4819
  350MOL0     O47123   1.280   7.498   4.150 -0.5823  0.4382 -0.1139
  350MOL0     C47124   1.203   7.616   4.170  0.4495 -0.0348 -0.1719
  350MOL0     C47125   1.085   7.609   4.066  0.1835 -0.3288  0.1055
  350MOL0     C47126   0.998   7.489   4.101 -0.7846  0.1761 -0.3880
  350MOL0     C47127   0.886   7.489   3.998  1.1479 -0.7809  0.2101
  350MOL0     C47128   0.807   7.360   4.021  0.5302 -0.8860  0.0150
  350MOL0     C47129   0.671   7.351   3.930 -0.8394 -0.4023 -0.3954
  350MOL0     C47130   0.592   7.223   3.972 -0.6865 -0.1007 -0.0189
  350MOL0     C47131   0.542   7.227   4.116  0.1537 -0.6940  1.0977
  350MOL0     N47132   0.425   7.136   4.126 -0.5407 -0.4587  0.0130
  350MOL0     C47133   0.291   7.163   4.116 -0.3568  0.1378 -0.7903
  350MOL0     C47134   0.229   7.048   4.141  0.2081  0.6096  0.8967
  350MOL0     C47135   0.075   7.039   4.113  0.3375  0.4500 -0.1125
  350MOL0     C47136   0.010   6.963   4.229  0.2346  0.0521 -0.4288
  350MOL0     C47137  -0.144   6.983   4.218 -0.2890 -0.4294 -0.1677
  350MOL0     C47138  -0.222   6.894   4.309  0.2849  0.6373  0.3494
  350MOL0     O47139  -0.357   6.930   4.294  0.0607 -1.1407  0.8011
  350MOL0     C47140  -0.473   6.877   4.343 -0.7054  0.5413 -0.8252
  350MOL0     C47141  -0.594   6.923   4.296 -0.2165 -1.3102  0.3426
  350MOL0     C47142  -0.716   6.873   4.344  0.7560 -0.7886 -0.5728
  350MOL0     C47143  -0.850   6.916   4.283 -0.1475 -0.0879  0.1223
  350MOL0     C47144  -0.710   6.770   4.444  0.1024  0.2850  0.6977
  350MOL0     C47145  -0.830   6.713   4.521  1.1443 -0.5088  0.3980
  350MOL0     O47146  -0.922   6.804   4.561  0.1227 -0.2025 -0.3723
  350MOL0     C47147  -1.036   6.761   4.626 -0.1168 -0.0398  0.2237
  350MOL0     C47148  -1.156   6.740   4.561 -0.1002  0.1488  0.5727
  350MOL0     C47149  -1.280   6.715   4.623 -0.2386 -0.8350  0.1443
  350MOL0     C47150  -1.280   6.692   4.762 -0.1212  0.0776  0.3107
  350MOL0     O47151  -1.386   6.677   4.844 -0.1091 -0.6340  0.0544
  350MOL0     C47152  -1.520   6.660   4.797 -0.6089 -0.6777  0.0899
  350MOL0     C47153  -1.629   6.649   4.904 -0.2229  0.1937 -0.8336
  350MOL0     C47154  -1.774   6.622   4.861 -0.0593 -0.1968 -0.5578
  350MOL0     C47155  -1.801   6.467   4.886 -0.8851  0.1568 -0.2247
  350MOL0     C47156  -1.946   6.424   4.896 -0.1431 -0.0685  0.0799
  350MOL0     C47157  -2.014   6.439   4.768 -0.3091  0.4870  0.1202
  350MOL0     C47158  -2.120   6.332   4.747  0.1292  0.4364  0.1572
  350MOL0     C47159  -2.194   6.353   4.612 -1.0497 -0.1938 -1.5885
  350MOL0    Cl47160  -2.240   6.524   4.582 -0.0321  0.0327  0.4189
  350MOL0     C47161  -1.154   6.697   4.831  0.2688 -0.2115  0.7089
  350MOL0     C47162  -1.032   6.731   4.758  0.6300  0.3297 -0.1858
  350MOL0     O47163  -0.837   6.594   4.537 -0.0192  0.9596 -0.0171
  350MOL0     C47164  -0.583   6.723   4.485  0.1947 -0.1989  0.4112
  350MOL0     C47165  -0.468   6.766   4.428 -0.4669 -0.7484 -0.4933
  350MOL0     N47166   0.320   6.957   4.168  0.8606  0.2316 -0.2774
  350MOL0     N47167   0.440   7.009   4.171  1.3669  0.1181  0.4360
  350MOL0     C47168   1.446   7.557   4.318  0.0457  0.1439  0.6592
  350MOL0     C47169   1.573   7.534   4.375 -0.4626  0.4604 -0.3983
  350MOL0     C47170   2.006   7.344   4.481  0.2404 -0.2202 -0.1902
  350MOL0     C47171   2.128   7.283   4.447  0.1128  0.4091  0.0833
  350MOL0     C47172   2.246   7.291   4.528  0.1332  0.2076  0.4082
  350MOL0     C47173   2.240   7.357   4.654 -0.0384  0.1630  0.4999
  350MOL0     O47174   2.347   7.356   4.737  0.0408  0.3810 -0.4148
  350MOL0     C47175   2.326   7.324   4.876 -0.2684 -0.2950 -0.2010
  350MOL0     C47176   2.260   7.190   4.889  0.3324  0.4612 -0.5265
  350MOL0     C47177   2.271   7.130   5.032 -0.4215  0.0712  0.4143
  350MOL0     C47178   2.201   6.992   5.050  0.1987  1.4130  0.7968
  350MOL0     C47179   2.063   7.009   5.096  0.5759  0.9285  0.0699
  350MOL0     C47180   1.945   7.022   5.134  0.2030 -0.7170 -0.1098
  350MOL0     C47181   2.120   7.416   4.689 -0.1316  0.3457  0.1160
  350MOL0     C47182   2.010   7.419   4.602 -0.1335 -0.8462  0.1035
  350MOL0     H47183   1.680   7.280   4.169 -2.7064 -2.4817  1.0691
  350MOL0     H47184   1.462   7.324   4.075 -1.3589 -1.8872  0.9161
  350MOL0     H47185   1.167   7.639   4.271  1.4069  2.8217 -0.3689
  350MOL0     H47186   1.257   7.704   4.131  0.4067 -1.4087 -3.7188
  350MOL0     H47187   1.026   7.699   4.085  0.9983  0.6670 -1.7739
  350MOL0     H47188   1.131   7.607   3.967  1.2122 -1.0987  0.5802
  350MOL0     H47189   1.050   7.394   4.083 -2.9874 -0.9103 -1.3286
  350MOL0     H47190   0.963   7.502   4.204  0.1349 -0.5327  0.0371
  350MOL0     H47191   0.827   7.581   4.005  0.4334 -1.3023  1.6619
  350MOL0     H47192   0.937   7.487   3.902 -0.3498  0.7748 -0.6589
  350MOL0     H47193   0.869   7.275   3.989  0.6062 -0.0137 -2.4136
  350MOL0     H47194   0.780   7.363   4.126  0.3002 -1.4637 -0.0227
  350MOL0     H47195   0.603   7.434   3.947  1.4600  1.8010 -1.3225
  350MOL0     H47196   0.694   7.355   3.824  1.2479  0.4819  0.0411
  350MOL0     H47197   0.507   7.211   3.903  0.2773 -0.4525 -1.1842
  350MOL0     H47198   0.660   7.138   3.965 -0.6433 -0.2820  2.0210
  350MOL0     H47199   0.516   7.330   4.143  1.4190  0.3890 -1.4599
  350MOL0     H47200   0.619   7.192   4.185  0.4167  1.5356  2.0301
  350MOL0     H47201   0.240   7.256   4.094 -0.8265 -0.3743 -1.9300
  350MOL0     H47202   0.033   7.140   4.118 -2.2518 -0.5187 -0.8689
  350MOL0     H47203   0.055   6.992   4.017  0.2080 -3.7367  1.7624
  350MOL0     H47204   0.044   7.005   4.324  1.7440 -1.7640 -0.1149
  350MOL0     H47205   0.049   6.861   4.225  1.4890  0.5535 -1.8768
  350MOL0     H47206  -0.166   6.945   4.118  2.8965 -2.3091 -0.2955
  350MOL0     H47207  -0.168   7.090   4.224  0.7431 -0.2337  0.8868
  350MOL0     H47208  -0.185   6.895   4.412  2.3000 -1.3368 -0.2629
  350MOL0     H47209  -0.202   6.791   4.277 -0.2103  1.1802 -1.8754
  350MOL0     H47210  -0.612   6.989   4.212 -0.2682 -2.1785 -0.3419
  350MOL0     H47211  -0.931   6.843   4.294  0.7594 -1.2560 -0.7261
  350MOL0     H47212  -0.890   7.012   4.318  0.6840 -0.4606  2.1940
  350MOL0     H47213  -0.838   6.931   4.175  0.9671  4.0707  0.6411
  350MOL0     H47214  -1.162   6.742   4.453  0.6781  1.6298  0.5179
  350MOL0     H47215  -1.367   6.713   4.558  0.0948  3.3638 -0.7488
  350MOL0     H47216  -1.551   6.747   4.738 -2.5390 -0.3688  1.4724
  350MOL0     H47217  -1.533   6.585   4.719 -0.7017  2.0363 -2.7090
  350MOL0     H47218  -1.588   6.588   4.985 -0.7331  0.8225 -0.0738
  350MOL0     H47219  -1.633   6.748   4.951 -1.1439 -0.5948  0.8191
  350MOL0     H47220  -1.783   6.639   4.754  2.0966  1.3595 -0.5814
  350MOL0     H47221  -1.842   6.694   4.907 -0.1869  0.6850 -2.0667
  350MOL0     H47222  -1.748   6.417   4.804  0.3108  0.8149  0.1232
  350MOL0     H47223  -1.752   6.445   4.982 -0.5872 -0.6697 -0.5525
  350MOL0     H47224  -2.000   6.466   4.981 -0.1651 -0.8186  0.4510
  350MOL0     H47225  -1.948   6.319   4.927 -2.9933  0.4083  1.9122
  350MOL0     H47226  -2.054   6.541   4.772 -2.7726 -0.4410  1.1938
  350MOL0     H47227  -1.954   6.432   4.677 -0.6616 -0.5149 -0.0480
  350MOL0     H47228  -2.194   6.340   4.827 -0.0817  0.6994 -0.0635
  350MOL0     H47229  -2.087   6.228   4.749  0.3616  0.3600 -2.7277
  350MOL0     H47230  -2.288   6.299   4.616 -1.0719 -0.2308 -2.3645
  350MOL0     H47231  -2.121   6.328   4.534  0.6658  4.0349 -1.6257
  350MOL0     H47232  -1.145   6.683   4.938  0.6453  1.8414  0.9799
  350MOL0     H47233  -0.935   6.723   4.807  0.5492 -0.5272 -0.1521
  350MOL0     H47234  -0.561   6.647   4.560 -1.6860 -0.4259  0.7914
  350MOL0     H47235  -0.367   6.743   4.458 -1.3470 -1.5562  2.0621
  350MOL0     H47236   1.386   7.641   4.353 -0.6036  0.7243 -1.6907
  350MOL0     H47237   1.595   7.591   4.464 -0.2157 -1.2977  0.7085
  350MOL0     H47238   2.135   7.225   4.355  0.1204  2.1133 -1.0491
  350MOL0     H47239   2.334   7.231   4.508 -1.5078 -2.4000  0.5710
  350MOL0     H47240   2.417   7.318   4.937 -0.4537 -0.0293  0.1078
  350MOL0     H47241   2.270   7.404   4.925  0.5408 -0.2809  0.7501
  350MOL0     H47242   2.298   7.117   4.818 -3.3213 -2.0243 -0.1969
  350MOL0     H47243   2.155   7.205   4.866  0.5206  4.3345  0.4273
  350MOL0     H47244   2.232   7.204   5.103 -1.1243  1.8709 -1.7143
  350MOL0     H47245   2.378   7.121   5.050 -0.1601 -2.0160 -1.6609
  350MOL0     H47246   2.242   6.924   5.125 -1.4632 -1.9903 -1.1091
  350MOL0     H47247   2.221   6.945   4.953 -0.2691 -0.0425  1.3785
  350MOL0     H47248   1.847   7.032   5.177  0.0836  0.0460 -0.5452
  350MOL0     H47249   2.130   7.473   4.781 -2.4048 -1.2970  1.4945
  350MOL0     H47250   1.926   7.473   4.645  0.2345 -2.3692  2.9720
  351MOL0     O47251   4.606   1.335   9.802 -0.3440 -0.4396 -0.3391
  351MOL0     C47252   4.658   1.288   9.702 -0.1843  0.4820 -0.7134
  351MOL0     O47253   4.592   1.244   9.593 -0.5847  0.0564 -0.3966
  351MOL0     C47254   4.453   1.239   9.585  0.1186  0.5317  0.2676
  351MOL0     C47255   4.398   1.278   9.463  0.1851 -0.9544  0.2311
  351MOL0     C47256   4.262   1.300   9.458  0.4260 -0.4150  0.5408
  351MOL0     C47257   4.177   1.272   9.567 -0.8808 -0.3649  0.5330
  351MOL0     O47258   4.044   1.286   9.577  0.1858  0.8613  0.3741
  351MOL0     C47259   3.977   1.322   9.454 -0.2561  0.2793  0.3364
  351MOL0     C47260   3.823   1.294   9.472 -0.0396  0.2649 -0.5642
  351MOL0     C47261   3.751   1.367   9.590  0.4251  0.2221  0.6984
  351MOL0     C47262   3.606   1.348   9.586  0.2482 -0.3605 -0.2864
  351MOL0     C47263   3.544   1.384   9.720 -0.2985  0.5978  0.9465
  351MOL0     C47264   3.573   1.522   9.768 -1.0588  0.1692 -0.4141
  351MOL0     C47265   3.480   1.568   9.873  0.0593  1.2414 -0.2644
  351MOL0     C47266   3.498   1.709   9.915 -0.4486  0.2770 -0.5201
  351MOL0     N47267   3.385   1.746   9.994  0.1343  0.4153 -0.2492
  351MOL0     C47268   3.295   1.848   9.963  0.3069  0.8411 -0.2042
  351MOL0     C47269   3.212   1.858  10.073  0.3222  0.4214 -0.0358
  351MOL0     C47270   3.111   1.968  10.102 -0.1763 -0.5518  0.0986
  351MOL0     C47271   2.966   1.912  10.129  0.8280 -0.3221 -0.3269
  351MOL0     C47272   2.856   2.009  10.121 -0.9115  0.7172 -0.6552
  351MOL0     C47273   2.727   1.965  10.183 -0.1212 -0.0215  0.1058
  351MOL0     O47274   2.621   2.063  10.175 -0.4770 -0.1465  0.4650
  351MOL0     C47275   2.487   2.022  10.188  0.0721  0.4556 -0.4218
  351MOL0     C47276   2.381   2.107  10.159 -0.1664 -0.4405  0.7169
  351MOL0     C47277   2.244   2.084  10.158 -0.1620 -0.1027  0.1554
  351MOL0     C47278   2.143   2.192  10.123 -0.1573  0.7131  0.3418
  351MOL0     C47279   2.206   1.950  10.196 -0.3241  0.2038  0.1942
  351MOL0     C47280   2.062   1.905  10.217  0.1085  0.1246  0.6805
  351MOL0     O47281   2.031   1.770  10.222 -0.2596  0.0903  0.1168
  351MOL0     C47282   1.914   1.716  10.268 -0.7362  0.0975  0.7121
  351MOL0     C47283   1.857   1.772  10.380  1.0696 -0.6719 -0.0169
  351MOL0     C47284   1.746   1.708  10.443  0.6680 -0.7684 -0.0650
  351MOL0     C47285   1.703   1.594  10.388 -0.2217 -0.0588 -0.1695
  351MOL0     O47286   1.588   1.542  10.456 -0.9458 -0.5307 -0.1142
  351MOL0     C47287   1.574   1.396  10.476  0.2510  0.0997  0.3559
  351MOL0     C47288   1.485   1.335  10.362  0.1650  0.8590  0.4756
  351MOL0     C47289   1.344   1.403  10.366  0.2016 -0.1037  0.5779
  351MOL0     C47290   1.245   1.332  10.285 -0.2886 -0.4195  0.2854
  351MOL0     C47291   1.123   1.417  10.271 -0.7693  0.3887  0.0411
  351MOL0     C47292   1.028   1.347  10.175  0.7424  0.0475  0.6892
  351MOL0     C47293   0.903   1.428  10.146  0.3043  0.2152  0.6304
  351MOL0     C47294   0.795   1.346  10.068  0.2644  0.1600  0.6399
  351MOL0    Cl47295   0.655   1.446  10.053  0.6996 -0.0847 -0.0408
  351MOL0     C47296   1.762   1.535  10.275 -0.9415 -0.1417  1.1070
  351MOL0     C47297   1.869   1.600  10.207  0.3650  0.2042  0.3023
  351MOL0     O47298   1.972   1.989  10.215 -0.2365 -0.7116 -0.7567
  351MOL0     C47299   2.309   1.858  10.234  0.3234 -0.7114  0.1202
  351MOL0     C47300   2.450   1.892  10.227  0.1748 -1.5555  0.4443
  351MOL0     N47301   3.246   1.762  10.161 -0.1055 -0.3657 -0.1307
  351MOL0     N47302   3.365   1.705  10.122  0.6595 -0.6155 -0.5373
  351MOL0     C47303   4.232   1.225   9.684  0.0424 -0.4418 -0.6022
  351MOL0     C47304   4.370   1.211   9.698  0.0676  0.3726 -0.0084
  351MOL0     C47305   4.808   1.271   9.692 -0.4335 -0.6144  0.6352
  351MOL0     C47306   4.865   1.218   9.572  0.0748  0.3950 -0.5670
  351MOL0     C47307   5.001   1.217   9.557 -0.1588  0.3551 -0.0933
  351MOL0     C47308   5.089   1.246   9.662 -0.2811 -0.7462  0.7889
  351MOL0     O47309   5.214   1.208   9.634 -0.9089  0.2276 -0.0634
  351MOL0     C47310   5.310   1.197   9.747 -0.2826 -0.2084  0.8019
  351MOL0     C47311   5.451   1.158   9.698 -0.2980  0.6291  0.2037
  351MOL0     C47312   5.493   1.222   9.572  0.4613  0.0604 -0.5220
  351MOL0     C47313   5.463   1.137   9.447 -1.0418 -0.2758  0.1060
  351MOL0     C47314   5.571   1.037   9.410 -1.0169  0.1200  0.1426
  351MOL0     C47315   5.656   0.943   9.391  0.3031 -0.2895 -0.0096
  351MOL0     C47316   5.036   1.289   9.786 -0.4445  0.2667  0.5161
  351MOL0     C47317   4.901   1.301   9.798 -0.1792  0.9823 -0.2423
  351MOL0     H47318   4.465   1.305   9.382  1.0514 -0.3793  1.1095
  351MOL0     H47319   4.220   1.324   9.361  1.2077 -2.0616 -0.2536
  351MOL0     H47320   3.988   1.430   9.439  3.0756 -0.0226 -0.0715
  351MOL0     H47321   4.015   1.274   9.364  1.2371  1.6737  0.1857
  351MOL0     H47322   3.784   1.320   9.373  2.8953  1.6902 -1.4810
  351MOL0     H47323   3.797   1.190   9.491  0.4979  0.1093 -0.6494
  351MOL0     H47324   3.793   1.324   9.681  2.6220 -0.8607 -0.7291
  351MOL0     H47325   3.781   1.473   9.592  0.5492  0.1758  1.3918
  351MOL0     H47326   3.566   1.391   9.494  0.5714  0.9143  0.1475
  351MOL0     H47327   3.591   1.240   9.577 -0.3513 -0.2652 -0.5128
  351MOL0     H47328   3.436   1.375   9.710 -0.3035  2.2316 -0.8319
  351MOL0     H47329   3.578   1.311   9.795 -3.6159  0.8152  2.8742
  351MOL0     H47330   3.678   1.528   9.797 -0.8557 -2.9339 -0.1138
  351MOL0     H47331   3.566   1.592   9.685  1.6828  1.0146 -0.0446
  351MOL0     H47332   3.378   1.547   9.839 -0.2198 -0.8047  1.5755
  351MOL0     H47333   3.486   1.495   9.954  1.0382 -0.4576 -1.8185
  351MOL0     H47334   3.510   1.771   9.826  0.1693  1.4650  0.3648
  351MOL0     H47335   3.589   1.720   9.976  1.3231 -0.3176 -2.9143
  351MOL0     H47336   3.301   1.908   9.873  1.8287 -0.0294 -0.7132
  351MOL0     H47337   3.150   2.029  10.183  0.6294 -0.5987 -0.2492
  351MOL0     H47338   3.107   2.031  10.012  0.7259 -1.3828 -0.5479
  351MOL0     H47339   2.969   1.857  10.223  0.4481  0.5760  0.2223
  351MOL0     H47340   2.943   1.837  10.053 -0.7888 -0.7447  0.5401
  351MOL0     H47341   2.846   2.043  10.017  0.4417 -0.0074 -1.0357
  351MOL0     H47342   2.902   2.097  10.168  2.5000  0.3461 -2.9410
  351MOL0     H47343   2.742   1.936  10.287  0.1363 -0.2592  0.0041
  351MOL0     H47344   2.702   1.875  10.126 -2.1330  1.5938 -1.7696
  351MOL0     H47345   2.410   2.209  10.135  0.5443 -0.0892  2.8519
  351MOL0     H47346   2.195   2.283  10.091 -0.0428  0.7463  0.6246
  351MOL0     H47347   2.080   2.155  10.041  1.3305 -0.8906 -0.1193
  351MOL0     H47348   2.076   2.206  10.208 -0.9663 -0.9378  0.0371
  351MOL0     H47349   1.881   1.871  10.417 -0.5470 -0.2181 -0.0923
  351MOL0     H47350   1.692   1.750  10.527 -0.2857  0.7088 -1.3622
  351MOL0     H47351   1.672   1.348  10.486  0.5467  0.6739  0.2863
  351MOL0     H47352   1.515   1.377  10.566 -1.2235 -0.6960 -0.7352
  351MOL0     H47353   1.521   1.340  10.259 -1.6149  0.3697 -0.2111
  351MOL0     H47354   1.464   1.229  10.380 -2.6169  1.3100  0.4423
  351MOL0     H47355   1.357   1.506  10.332  1.4931  0.8021  3.5433
  351MOL0     H47356   1.309   1.414  10.469  0.1457  2.8764  0.3106
  351MOL0     H47357   1.291   1.315  10.187 -3.8570 -2.3715 -1.2207
  351MOL0     H47358   1.215   1.237  10.329  0.5039 -0.3497  1.0156
  351MOL0     H47359   1.138   1.518  10.233 -1.0481  1.8029  3.2854
  351MOL0     H47360   1.068   1.421  10.366 -1.1768 -0.2865 -0.1582
  351MOL0     H47361   1.078   1.332  10.079  0.2387  0.1538  0.4084
  351MOL0     H47362   0.988   1.254  10.217 -1.1119  1.2267  1.7060
  351MOL0     H47363   0.937   1.514  10.087 -0.3500  0.6246  0.8426
  351MOL0     H47364   0.872   1.470  10.242  0.8241 -0.0984  0.9415
  351MOL0     H47365   0.765   1.257  10.125 -1.4531 -0.0465 -0.5407
  351MOL0     H47366   0.839   1.305   9.977  1.8930  1.0960  0.9620
  351MOL0     H47367   1.725   1.442  10.234 -0.7946  0.1186  0.3598
  351MOL0     H47368   1.922   1.563  10.119 -2.3495 -0.2228 -1.2807
  351MOL0     H47369   2.293   1.756  10.266 -1.3328 -0.9372 -1.3056
  351MOL0     H47370   2.524   1.821  10.262 -0.0690 -1.3964  1.3136
  351MOL0     H47371   4.168   1.213   9.771  0.6596  1.7442  0.2298
  351MOL0     H47372   4.421   1.184   9.790  0.7952 -2.0440 -1.0404
  351MOL0     H47373   4.801   1.193   9.488  0.2187 -2.1826  0.0088
  351MOL0     H47374   5.038   1.173   9.465  0.3914 -1.8247  1.1055
  351MOL0     H47375   5.327   1.295   9.793  1.2460  0.0391 -0.2271
  351MOL0     H47376   5.274   1.128   9.824 -2.3112 -1.7907 -1.4046
  351MOL0     H47377   5.450   1.049   9.686  0.9435  0.7330 -1.1697
  351MOL0     H47378   5.518   1.190   9.778 -1.1447  1.3906  0.6330
  351MOL0     H47379   5.596   1.258   9.582 -0.4837  2.2668  2.9572
  351MOL0     H47380   5.433   1.312   9.558 -3.2086 -2.0712  0.0148
  351MOL0     H47381   5.447   1.196   9.356  1.3489 -0.9063 -0.7823
  351MOL0     H47382   5.364   1.095   9.468 -2.8561  3.6315  0.3076
  351MOL0     H47383   5.713   0.854   9.373 -0.6090 -0.5131 -2.0222
  351MOL0     H47384   5.087   1.309   9.880  3.6459  0.6284 -1.5762
  351MOL0     H47385   4.857   1.321   9.895  0.5913  0.6041  0.1956
  352MOL0     O47386   9.133   4.937   6.904  0.5593 -0.7131 -0.3092
  352MOL0     C47387   9.188   4.908   6.794  0.4689  0.4206 -0.4979
  352MOL0     O47388   9.123   4.860   6.679  0.6325 -0.3413 -0.0246
  352MOL0     C47389   8.984   4.855   6.681 -0.4726  1.1024 -0.7086
  352MOL0     C47390   8.906   4.756   6.744 -0.5443  0.1739 -0.3083
  352MOL0     C47391   8.769   4.768   6.736  0.2905  0.3515  0.4536
  352MOL0     C47392   8.706   4.865   6.662  0.1845 -0.3267  0.5322
  352MOL0     O47393   8.569   4.865   6.665  0.8032  0.4196  0.1611
  352MOL0     C47394   8.507   4.921   6.554  0.0296  0.7244 -0.1253
  352MOL0     C47395   8.356   4.891   6.560 -0.1926  0.5940  0.2083
  352MOL0     C47396   8.320   4.756   6.486 -1.0249 -0.3712 -0.1757
  352MOL0     C47397   8.182   4.719   6.508  1.0441  0.6190  0.1567
  352MOL0     C47398   8.156   4.570   6.473 -0.8344  0.6633  0.3262
  352MOL0     C47399   8.189   4.539   6.329 -0.1890  0.1137 -0.0931
  352MOL0     C47400   8.129   4.408   6.289  0.6454  0.2186  0.1761
  352MOL0     C47401   8.185   4.276   6.350 -0.2326 -0.5241 -0.2396
  352MOL0     N47402   8.139   4.166   6.265 -0.4068 -0.4767  0.1140
  352MOL0     C47403   8.013   4.101   6.282  0.6409  0.2159  0.4977
  352MOL0     C47404   8.004   4.027   6.170  0.1198 -0.1590  0.0276
  352MOL0     C47405   7.883   3.943   6.131  0.4416 -0.7058  0.0928
  352MOL0     C47406   7.780   4.042   6.057  0.1491  0.7627  0.5549
  352MOL0     C47407   7.653   3.976   6.011 -0.8749 -0.3596 -0.6293
  352MOL0     C47408   7.572   4.073   5.919 -0.4495  0.4421 -0.6164
  352MOL0     O47409   7.465   4.143   5.989 -0.1409  0.1650 -0.5704
  352MOL0     C47410   7.365   4.199   5.910  0.4698  0.4246  0.6372
  352MOL0     C47411   7.270   4.276   5.987  0.3949  0.3173 -0.7792
  352MOL0     C47412   7.158   4.336   5.917 -0.2727 -0.5857 -0.4687
  352MOL0     C47413   7.065   4.410   6.011  0.0978  0.3497  0.1010
  352MOL0     C47414   7.166   4.349   5.771 -0.8426  0.8784 -0.2865
  352MOL0     C47415   7.064   4.426   5.692  0.4666  0.6761  0.2150
  352MOL0     O47416   7.075   4.427   5.550  0.5700  0.9383 -0.2307
  352MOL0     C47417   6.996   4.516   5.483  0.7903 -0.6354  0.8618
  352MOL0     C47418   7.040   4.636   5.435 -0.2906 -0.0862  0.7924
  352MOL0     C47419   6.955   4.726   5.363 -0.3561  0.4711  0.0889
  352MOL0     C47420   6.825   4.691   5.344 -0.5526  0.6641  0.7227
  352MOL0     O47421   6.749   4.781   5.276 -0.2507  0.3061  0.8554
  352MOL0     C47422   6.611   4.783   5.302  0.5975 -0.2729 -0.1374
  352MOL0     C47423   6.563   4.928   5.271  0.5330 -0.0668 -0.4928
  352MOL0     C47424   6.630   5.039   5.351 -0.1039 -0.9115  0.3363
  352MOL0     C47425   6.579   5.178   5.319 -0.2781  0.1954  0.2296
  352MOL0     C47426   6.609   5.282   5.420  0.1347 -0.6032  0.7743
  352MOL0     C47427   6.564   5.428   5.381 -0.2989  0.4305 -0.6885
  352MOL0     C47428   6.621   5.535   5.470 -0.7217  0.0969 -0.1203
  352MOL0     C47429   6.571   5.673   5.433 -0.1545 -0.2581 -0.4772
  352MOL0    Cl47430   6.604   5.700   5.252 -0.0330  0.0024  0.3413
  352MOL0     C47431   6.772   4.574   5.409  0.6836  0.1092  0.4451
  352MOL0     C47432   6.867   4.484   5.466  0.3291 -0.6895  0.2249
  352MOL0     O47433   6.969   4.480   5.752  0.3911  0.3749 -0.3583
  352MOL0     C47434   7.268   4.287   5.701 -0.5146  0.6059  0.3039
  352MOL0     C47435   7.352   4.198   5.763  0.1324  0.5048 -0.7506
  352MOL0     N47436   8.108   4.044   6.083  0.1589 -0.4450  0.2880
  352MOL0     N47437   8.190   4.131   6.137  0.2582  0.0195 -0.7603
  352MOL0     C47438   8.786   4.956   6.588  0.4525  0.0638 -0.1268
  352MOL0     C47439   8.922   4.949   6.603 -0.4695  0.6822  0.1249
  352MOL0     C47440   9.335   4.916   6.788 -0.9195  0.1500 -0.1728
  352MOL0     C47441   9.414   4.957   6.894  0.0081  0.2593  0.1334
  352MOL0     C47442   9.550   4.938   6.898 -0.1665 -0.4905 -0.0354
  352MOL0     C47443   9.616   4.889   6.790 -0.4532  0.1645 -0.2957
  352MOL0     O47444   9.752   4.897   6.820 -1.0743  0.1302  0.0217
  352MOL0     C47445   9.848   4.837   6.728  0.2969 -0.1921 -0.2341
  352MOL0     C47446   9.991   4.862   6.795  0.6418 -0.8401 -0.3782
  352MOL0     C47447  10.103   4.789   6.718 -0.0437  0.2858 -0.5446
  352MOL0     C47448  10.234   4.814   6.795  0.0655  0.6589  0.5763
  352MOL0     C47449  10.282   4.952   6.781  0.6815 -0.8184 -0.0692
  352MOL0     C47450  10.307   5.070   6.764  0.3337  0.3813  0.6080
  352MOL0     C47451   9.550   4.850   6.673 -0.5485  0.0354  0.0711
  352MOL0     C47452   9.405   4.862   6.679  0.3012 -0.0113  1.2759
  352MOL0     H47453   8.953   4.675   6.799 -0.9519 -0.6229 -1.1143
  352MOL0     H47454   8.709   4.692   6.784  1.3374 -0.1785  0.9700
  352MOL0     H47455   8.527   5.028   6.552  1.0622  0.5591  0.6241
  352MOL0     H47456   8.542   4.879   6.459 -2.5555  2.6914 -2.0957
  352MOL0     H47457   8.335   4.880   6.667  0.4980 -2.1650  0.1388
  352MOL0     H47458   8.297   4.977   6.528  1.2836  1.5215 -0.1239
  352MOL0     H47459   8.339   4.767   6.379 -0.4091  2.4772  0.1454
  352MOL0     H47460   8.394   4.687   6.527  0.9627  1.7828  0.0604
  352MOL0     H47461   8.159   4.733   6.614  0.4383 -1.9229  0.4405
  352MOL0     H47462   8.115   4.782   6.449 -0.5855  0.0228  1.2893
  352MOL0     H47463   8.203   4.507   6.550 -1.2137  2.6542  2.2982
  352MOL0     H47464   8.052   4.537   6.483 -0.4377 -1.3989 -1.4937
  352MOL0     H47465   8.152   4.620   6.266  0.7765 -0.1888 -1.0816
  352MOL0     H47466   8.298   4.527   6.335 -0.2199  0.4217  1.3170
  352MOL0     H47467   8.022   4.405   6.309  1.1481  0.5237  3.3640
  352MOL0     H47468   8.145   4.395   6.181 -3.8945  1.0923 -0.8192
  352MOL0     H47469   8.148   4.249   6.450 -1.1467  0.8034 -0.1907
  352MOL0     H47470   8.294   4.273   6.353 -0.1954  0.6200  0.3036
  352MOL0     H47471   7.947   4.093   6.367 -1.9545  0.3701 -1.3959
  352MOL0     H47472   7.905   3.862   6.061 -1.4860  0.2699 -1.7507
  352MOL0     H47473   7.836   3.916   6.227  0.0752  2.7281  1.0336
  352MOL0     H47474   7.833   4.093   5.977 -2.4626 -1.1427 -2.6251
  352MOL0     H47475   7.759   4.125   6.125  1.2641  0.4259  1.3527
  352MOL0     H47476   7.592   3.948   6.097 -0.0624 -2.1646 -0.6027
  352MOL0     H47477   7.671   3.876   5.970  0.1886 -0.0257 -1.0127
  352MOL0     H47478   7.527   4.003   5.848  0.3838  1.4203 -2.1473
  352MOL0     H47479   7.631   4.139   5.855  1.0930  1.5235  1.7702
  352MOL0     H47480   7.277   4.270   6.095  1.0307  0.3450 -0.8181
  352MOL0     H47481   6.967   4.362   6.018 -0.7124  2.1351  3.6081
  352MOL0     H47482   7.102   4.410   6.114  1.1876  1.5006 -0.2661
  352MOL0     H47483   7.068   4.519   6.003  0.9733  0.5812  2.6370
  352MOL0     H47484   7.144   4.654   5.456 -0.4165  0.3181  1.0701
  352MOL0     H47485   6.991   4.821   5.326  1.4671 -0.3305 -0.3153
  352MOL0     H47486   6.563   4.711   5.235  1.3872 -2.6159  1.6531
  352MOL0     H47487   6.587   4.747   5.402 -1.8955 -0.5268 -0.7762
  352MOL0     H47488   6.578   4.954   5.166 -0.7588  0.6467 -0.5295
  352MOL0     H47489   6.459   4.936   5.305  0.0094 -0.0568 -2.0200
  352MOL0     H47490   6.738   5.044   5.333 -0.1655  1.6342  0.2484
  352MOL0     H47491   6.619   5.034   5.460  1.1703  3.1706  0.8168
  352MOL0     H47492   6.614   5.210   5.220  1.7457  0.7713  1.0762
  352MOL0     H47493   6.470   5.174   5.311 -0.2629  2.3448 -2.8061
  352MOL0     H47494   6.718   5.280   5.428  0.5881  2.7266 -2.2032
  352MOL0     H47495   6.576   5.252   5.520  1.0290 -2.1786  0.6385
  352MOL0     H47496   6.597   5.450   5.279 -1.1195  0.2315 -1.0013
  352MOL0     H47497   6.455   5.430   5.387 -0.3337 -2.0238  1.5687
  352MOL0     H47498   6.729   5.525   5.456 -0.5670  1.0274  0.3152
  352MOL0     H47499   6.604   5.514   5.576 -0.7044  2.3847  0.3889
  352MOL0     H47500   6.636   5.742   5.487 -1.6178  0.4035  0.5112
  352MOL0     H47501   6.470   5.705   5.460  0.5329  1.3979  0.2527
  352MOL0     H47502   6.666   4.550   5.403  0.7286  0.2461 -1.2547
  352MOL0     H47503   6.830   4.391   5.509 -0.5829 -1.0854 -1.3080
  352MOL0     H47504   7.265   4.286   5.592 -0.1596 -2.2961  0.2465
  352MOL0     H47505   7.420   4.144   5.698 -0.5301 -0.1885 -0.8763
  352MOL0     H47506   8.736   5.026   6.522 -0.9841  0.6569  1.5186
  352MOL0     H47507   8.996   5.012   6.555  1.6815 -1.9431 -0.2464
  352MOL0     H47508   9.360   4.995   6.980 -0.9589 -2.3906  0.7653
  352MOL0     H47509   9.605   4.978   6.983 -0.3607  0.3021 -0.2706
  352MOL0     H47510   9.823   4.731   6.715 -0.4814  0.1168 -1.4605
  352MOL0     H47511   9.837   4.895   6.636 -0.7982  3.0447  1.7671
  352MOL0     H47512   9.990   4.820   6.897  0.8044  1.6295  0.7035
  352MOL0     H47513  10.010   4.969   6.794 -2.1876 -0.2697 -1.3272
  352MOL0     H47514  10.100   4.827   6.615 -0.2623 -0.3656 -0.7853
  352MOL0     H47515  10.076   4.683   6.719 -1.2183  0.4559  4.0176
  352MOL0     H47516  10.308   4.748   6.748 -1.4513 -0.4762 -0.2905
  352MOL0     H47517  10.223   4.784   6.899 -0.9469  2.1627  0.9412
  352MOL0     H47518  10.315   5.175   6.743  2.0155 -0.0980 -1.4858
  352MOL0     H47519   9.607   4.806   6.591 -0.9929  0.3156 -0.3909
  352MOL0     H47520   9.344   4.816   6.602  1.9751 -0.3106  0.0764
  353MOL0     O47521   4.335   5.674  11.225 -0.5739 -0.2620  0.2817
  353MOL0     C47522   4.427   5.601  11.252 -0.6016  0.0037  0.4873
  353MOL0     O47523   4.420   5.461  11.284  0.2371  0.0989  0.8116
  353MOL0     C47524   4.293   5.397  11.282 -0.5626  0.4232  0.0058
  353MOL0     C47525   4.266   5.312  11.175  0.2284 -0.6995  0.2586
  353MOL0     C47526   4.146   5.244  11.161  0.4462  0.4502  0.7536
  353MOL0     C47527   4.041   5.264  11.257  0.0598  0.1946  0.2104
  353MOL0     O47528   3.920   5.213  11.249 -0.1002  0.8263  0.0760
  353MOL0     C47529   3.901   5.110  11.145  0.1571  0.0089  0.8448
  353MOL0     C47530   3.765   5.041  11.159 -0.1090  0.6844 -0.2327
  353MOL0     C47531   3.667   5.142  11.104  0.6369  0.6421  0.1174
  353MOL0     C47532   3.527   5.085  11.115  0.0590  0.0009  1.0296
  353MOL0     C47533   3.420   5.157  11.020 -0.8859 -0.0455 -0.0292
  353MOL0     C47534   3.426   5.310  11.049 -0.0622  0.3673  1.1300
  353MOL0     C47535   3.312   5.386  10.969  0.2826  0.0490 -0.8259
  353MOL0     C47536   3.304   5.537  10.997  0.2903  0.0752  0.3536
  353MOL0     N47537   3.268   5.571  11.134 -0.0665 -0.2350  0.4492
  353MOL0     C47538   3.150   5.608  11.185  0.6024 -0.8421  0.3953
  353MOL0     C47539   3.179   5.635  11.312 -0.0015  0.3783 -0.1669
  353MOL0     C47540   3.070   5.649  11.409 -0.0443 -0.5874  0.8927
  353MOL0     C47541   3.104   5.643  11.554  0.0580 -0.5318 -0.1891
  353MOL0     C47542   2.986   5.680  11.649 -0.4718  0.3799 -0.5069
  353MOL0     C47543   2.874   5.583  11.669 -0.6607 -0.0940 -0.5853
  353MOL0     O47544   2.787   5.556  11.556 -0.7465  0.2339  0.0916
  353MOL0     C47545   2.661   5.501  11.571  0.2025  0.8242  0.6046
  353MOL0     C47546   2.587   5.485  11.450  0.7104  0.1240 -0.1900
  353MOL0     C47547   2.456   5.443  11.453  0.1798  0.5749  0.7855
  353MOL0     C47548   2.373   5.438  11.326  1.0090 -0.6797  0.7069
  353MOL0     C47549   2.391   5.415  11.584 -0.1778 -0.0407 -0.0772
  353MOL0     C47550   2.247   5.399  11.604  0.0202 -0.0517  0.1241
  353MOL0     O47551   2.193   5.472  11.703 -0.8674  0.0603  0.2472
  353MOL0     C47552   2.056   5.486  11.708  0.3682  0.5512  0.0076
  353MOL0     C47553   1.981   5.504  11.593 -0.3803  0.2494 -0.0616
  353MOL0     C47554   1.843   5.524  11.600  0.0079  0.1001  0.0365
  353MOL0     C47555   1.773   5.540  11.724  0.1108  0.4304  0.0590
  353MOL0     O47556   1.637   5.548  11.748  0.0730 -0.3919 -0.8414
  353MOL0     C47557   1.543   5.490  11.662 -0.0255 -0.0257  0.9838
  353MOL0     C47558   1.458   5.595  11.611 -0.6927 -0.3074  0.5763
  353MOL0     C47559   1.361   5.569  11.498  0.2430  0.8715 -0.3122
  353MOL0     C47560   1.260   5.675  11.469  0.1170 -0.7385  0.0845
  353MOL0     C47561   1.327   5.785  11.396  0.1776 -0.2047 -0.7533
  353MOL0     C47562   1.235   5.904  11.381  0.0217  0.3584 -0.3015
  353MOL0     C47563   1.308   6.018  11.307 -0.4910  0.4596  0.9864
  353MOL0     C47564   1.225   6.059  11.186 -0.1959  0.0949 -1.0965
  353MOL0    Cl47565   1.086   6.157  11.223 -0.0846  0.1746 -0.0141
  353MOL0     C47566   1.855   5.524  11.836  0.0879 -0.6925 -0.4586
  353MOL0     C47567   1.992   5.501  11.833  0.7252  0.2462  0.9259
  353MOL0     O47568   2.198   5.310  11.537  1.0036 -0.6505 -0.5409
  353MOL0     C47569   2.469   5.427  11.703 -0.6049 -0.8839 -0.4489
  353MOL0     C47570   2.597   5.472  11.693 -0.0114  0.7714  0.4905
  353MOL0     N47571   3.316   5.629  11.343 -0.2657 -0.2257  0.0655
  353MOL0     N47572   3.365   5.598  11.227  0.2235  0.4912 -0.0357
  353MOL0     C47573   4.066   5.352  11.365 -0.4586  0.3412 -0.1748
  353MOL0     C47574   4.197   5.413  11.385  0.4546  0.3833 -0.6496
  353MOL0     C47575   4.561   5.652  11.246 -0.2818 -0.1645  0.1920
  353MOL0     C47576   4.597   5.783  11.268  0.7289 -0.9218  0.2068
  353MOL0     C47577   4.732   5.820  11.274  0.0375 -0.2612 -0.4028
  353MOL0     C47578   4.835   5.730  11.254  0.1439 -0.0726  0.4728
  353MOL0     O47579   4.960   5.775  11.288  0.8423 -0.0170  0.0655
  353MOL0     C47580   5.074   5.686  11.289  0.7513 -0.9250 -0.2085
  353MOL0     C47581   5.122   5.654  11.145 -0.1568  1.0537  1.0756
  353MOL0     C47582   5.209   5.765  11.083  0.2341 -0.3563 -0.4030
  353MOL0     C47583   5.136   5.901  11.075 -0.3520  0.8651  0.2221
  353MOL0     C47584   5.196   6.001  10.983 -0.6568  0.3972  0.7250
  353MOL0     C47585   5.253   6.085  10.917 -0.7700  0.0991  0.3220
  353MOL0     C47586   4.798   5.604  11.231  0.3458  0.4569  0.4879
  353MOL0     C47587   4.663   5.561  11.230 -1.3034  0.2286 -0.0736
  353MOL0     H47588   4.339   5.309  11.094  0.3714 -2.1908  0.4236
  353MOL0     H47589   4.130   5.170  11.084  0.4959 -1.6056  2.6090
  353MOL0     H47590   3.906   5.160  11.048  1.2726  0.7178  1.2436
  353MOL0     H47591   3.981   5.035  11.139  2.3452  2.3020 -0.1611
  353MOL0     H47592   3.757   4.949  11.100 -1.5133  0.5814  0.0958
  353MOL0     H47593   3.748   5.022  11.266  2.0360 -2.4246 -0.2996
  353MOL0     H47594   3.681   5.235  11.160  2.8437  0.4643 -0.0677
  353MOL0     H47595   3.690   5.159  10.999  1.5110  2.0564  0.5141
  353MOL0     H47596   3.530   4.978  11.092 -0.4102  0.1048  0.4791
  353MOL0     H47597   3.491   5.086  11.219 -0.2176 -2.2245  0.9973
  353MOL0     H47598   3.443   5.146  10.914 -0.7593  1.1627 -0.1373
  353MOL0     H47599   3.319   5.124  11.046 -1.9665  1.7052 -1.7212
  353MOL0     H47600   3.426   5.316  11.158  0.9729 -1.0589  1.2355
  353MOL0     H47601   3.526   5.338  11.015 -0.3752  0.2655  0.0796
  353MOL0     H47602   3.326   5.376  10.861 -2.6714  0.1604 -1.2875
  353MOL0     H47603   3.219   5.344  11.009  1.4953 -0.1248  2.0764
  353MOL0     H47604   3.229   5.580  10.930  0.1421  0.4284  0.7356
  353MOL0     H47605   3.395   5.589  10.969 -0.8685  1.7661 -0.4518
  353MOL0     H47606   3.060   5.636  11.131  0.3454  0.4905  1.4427
  353MOL0     H47607   3.022   5.745  11.389  2.7020  0.4363 -1.5019
  353MOL0     H47608   2.993   5.573  11.393  2.1922 -2.7595 -0.1816
  353MOL0     H47609   3.185   5.714  11.570  1.5327 -1.3736 -3.2097
  353MOL0     H47610   3.141   5.543  11.581  0.4308 -0.8845 -1.9049
  353MOL0     H47611   2.942   5.776  11.620  0.1299  1.0576  0.7522
  353MOL0     H47612   3.020   5.703  11.750 -0.3083  0.4222 -0.5708
  353MOL0     H47613   2.809   5.624  11.747  1.9893  3.9302 -0.2018
  353MOL0     H47614   2.915   5.494  11.716  1.8811  1.6429  0.7060
  353MOL0     H47615   2.627   5.514  11.353 -0.4530 -1.6247 -1.2675
  353MOL0     H47616   2.268   5.423  11.352  0.9540 -0.1086  0.8223
  353MOL0     H47617   2.383   5.530  11.269 -1.4486 -0.9154 -0.2119
  353MOL0     H47618   2.410   5.354  11.267  0.1066  0.1848 -1.1569
  353MOL0     H47619   2.028   5.509  11.495 -0.6859 -2.5015 -0.4301
  353MOL0     H47620   1.785   5.550  11.512 -0.5486  3.0424  1.1320
  353MOL0     H47621   1.595   5.447  11.576  2.2037  3.0738  0.5873
  353MOL0     H47622   1.476   5.426  11.720 -0.4240  1.3688  2.1362
  353MOL0     H47623   1.402   5.639  11.694 -3.4107 -0.9795 -0.7722
  353MOL0     H47624   1.525   5.675  11.578 -2.2323  1.1028  0.7726
  353MOL0     H47625   1.306   5.481  11.535  2.9842 -2.1486 -2.8363
  353MOL0     H47626   1.415   5.543  11.407  2.7111  0.1826  1.2601
  353MOL0     H47627   1.180   5.622  11.417 -1.0862 -0.6902  1.8051
  353MOL0     H47628   1.213   5.716  11.558  2.4726 -0.1459  1.1404
  353MOL0     H47629   1.377   5.757  11.304  1.3881 -2.5258  0.5340
  353MOL0     H47630   1.412   5.811  11.460  0.0331 -2.3546  0.4063
  353MOL0     H47631   1.152   5.865  11.321  0.6146 -0.8042 -0.4034
  353MOL0     H47632   1.195   5.936  11.477 -1.6558  0.6684 -1.0787
  353MOL0     H47633   1.404   5.977  11.275  0.2646  1.0028  2.4421
  353MOL0     H47634   1.326   6.100  11.377  0.5003 -0.2606  1.6013
  353MOL0     H47635   1.197   5.974  11.123  1.0503 -0.2774 -1.1729
  353MOL0     H47636   1.277   6.123  11.115 -0.4184 -0.3698 -1.6883
  353MOL0     H47637   1.813   5.536  11.936 -1.9731  0.6613 -1.4316
  353MOL0     H47638   2.037   5.505  11.931  1.9734  1.0871  0.3335
  353MOL0     H47639   2.431   5.428  11.805  3.3458  0.5060  1.2366
  353MOL0     H47640   2.654   5.493  11.783  2.6209 -0.1910 -0.8324
  353MOL0     H47641   3.983   5.366  11.434 -0.5183 -1.1511  0.0731
  353MOL0     H47642   4.201   5.470  11.477 -1.9833  1.4423 -1.1260
  353MOL0     H47643   4.516   5.853  11.281  0.5671 -1.2154  0.8123
  353MOL0     H47644   4.759   5.925  11.275  0.1085 -0.2481 -2.0669
  353MOL0     H47645   5.161   5.730  11.339  0.6464 -1.5151  0.5033
  353MOL0     H47646   5.046   5.600  11.351  1.1144 -2.3839 -1.9939
  353MOL0     H47647   5.039   5.632  11.077  1.5230  2.4704 -1.6669
  353MOL0     H47648   5.182   5.565  11.163  1.2385  2.0819  1.7563
  353MOL0     H47649   5.216   5.736  10.977 -1.4603 -2.3214 -0.0326
  353MOL0     H47650   5.306   5.777  11.133 -0.4133  1.0169  0.5520
  353MOL0     H47651   5.127   5.948  11.174 -1.9700 -1.2799  1.1670
  353MOL0     H47652   5.030   5.887  11.053  0.1527 -4.2436 -0.1024
  353MOL0     H47653   5.296   6.162  10.857  0.4117 -0.6167  0.2178
  353MOL0     H47654   4.878   5.532  11.214 -0.6283 -0.5744  0.1617
  353MOL0     H47655   4.644   5.455  11.214 -0.0884  0.1053 -0.7811
  354MOL0     O47656   6.062   0.455   8.990 -0.1225 -0.7146 -0.0062
  354MOL0     C47657   6.048   0.538   8.905 -0.2591 -0.1062  0.4041
  354MOL0     O47658   5.933   0.567   8.832  0.1104 -0.0732 -1.2584
  354MOL0     C47659   5.810   0.515   8.866  0.0629  0.2510  0.2848
  354MOL0     C47660   5.718   0.519   8.760 -0.3114  0.1498 -0.3773
  354MOL0     C47661   5.592   0.452   8.762 -0.9410  1.5854 -0.4120
  354MOL0     C47662   5.553   0.372   8.871  0.3192 -0.0487 -0.2617
  354MOL0     O47663   5.432   0.312   8.865  0.4624  0.3228  0.1019
  354MOL0     C47664   5.384   0.237   8.980 -0.2208 -0.3471  0.3680
  354MOL0     C47665   5.240   0.184   8.951  0.7716  0.2565  0.8724
  354MOL0     C47666   5.180   0.090   9.052 -0.0016 -0.3392 -0.4063
  354MOL0     C47667   5.057   0.018   8.989 -0.3957 -0.3162 -0.4673
  354MOL0     C47668   4.986  -0.065   9.099 -0.1485  0.5193 -0.0212
  354MOL0     C47669   4.836  -0.081   9.073  1.5087  0.4127 -0.6070
  354MOL0     C47670   4.805  -0.157   8.947  0.0569 -0.5401  1.5716
  354MOL0     C47671   4.662  -0.192   8.920  0.1597  0.0681 -0.0638
  354MOL0     N47672   4.567  -0.075   8.928 -0.0502 -0.0215  0.5465
  354MOL0     C47673   4.522   0.004   8.826  0.4435 -0.0700 -0.5446
  354MOL0     C47674   4.464   0.113   8.883 -0.3129  0.1055  0.3294
  354MOL0     C47675   4.388   0.216   8.807 -0.3640 -0.0653  0.0006
  354MOL0     C47676   4.251   0.157   8.762 -0.6884  0.3774  0.1350
  354MOL0     C47677   4.205   0.204   8.623 -0.3377 -1.0322 -0.3593
  354MOL0     C47678   4.186   0.355   8.609 -0.0366  0.3625  0.2583
  354MOL0     O47679   4.125   0.382   8.480  0.3043  0.1450 -0.3405
  354MOL0     C47680   3.986   0.358   8.471 -0.0128  0.7665 -0.2389
  354MOL0     C47681   3.890   0.389   8.566  0.4531 -0.3514 -0.6484
  354MOL0     C47682   3.750   0.376   8.540 -0.2993  0.1388  0.1181
  354MOL0     C47683   3.643   0.416   8.632  0.5310  0.2217 -0.3897
  354MOL0     C47684   3.710   0.296   8.429 -0.2747  0.4322 -0.2404
  354MOL0     C47685   3.569   0.259   8.408 -0.0674  0.3867 -0.0620
  354MOL0     O47686   3.526   0.322   8.293  0.4940  0.1976 -0.8635
  354MOL0     C47687   3.411   0.290   8.227 -0.1012 -0.5215  0.1770
  354MOL0     C47688   3.322   0.177   8.252  1.6232  0.1427 -0.9899
  354MOL0     C47689   3.199   0.168   8.184  0.3662  0.1737  0.1805
  354MOL0     C47690   3.166   0.265   8.088  0.4653  0.0953  0.1637
  354MOL0     O47691   3.049   0.266   8.015  0.1330  0.1501 -0.0277
  354MOL0     C47692   2.927   0.306   8.076  0.0394  0.7670 -0.3128
  354MOL0     C47693   2.819   0.276   7.969  0.3804 -0.4779  0.4707
  354MOL0     C47694   2.807   0.148   7.885 -0.2533  0.0114 -0.4458
  354MOL0     C47695   2.690   0.147   7.798  0.0704 -0.9914 -0.2307
  354MOL0     C47696   2.703   0.058   7.679 -0.0286 -0.0633 -0.1987
  354MOL0     C47697   2.729  -0.080   7.724  0.7260  0.3499  0.1170
  354MOL0     C47698   2.696  -0.175   7.605  0.2606  0.4222 -0.0366
  354MOL0     C47699   2.677  -0.313   7.660 -1.1917  0.8680 -0.6971
  354MOL0    Cl47700   2.507  -0.323   7.728 -0.6250  0.1083  0.1037
  354MOL0     C47701   3.253   0.369   8.055 -0.5908  0.5047  0.3185
  354MOL0     C47702   3.377   0.379   8.125  0.7572 -0.2744 -0.6153
  354MOL0     O47703   3.506   0.195   8.490 -0.3862  0.1423 -1.2462
  354MOL0     C47704   3.803   0.263   8.329  0.5623  0.3729  0.4509
  354MOL0     C47705   3.941   0.299   8.347  0.1597  0.3635 -0.6048
  354MOL0     N47706   4.469   0.096   9.024  0.5661 -0.4059  0.1571
  354MOL0     N47707   4.539  -0.016   9.045 -0.5612 -0.1678 -0.6932
  354MOL0     C47708   5.639   0.376   8.985  0.3011 -0.2918 -0.3169
  354MOL0     C47709   5.763   0.444   8.974 -0.2762  0.3072 -0.3658
  354MOL0     C47710   6.162   0.626   8.879  0.4398  0.2003 -0.4114
  354MOL0     C47711   6.135   0.767   8.859  0.4804  0.0352 -0.1993
  354MOL0     C47712   6.242   0.859   8.850  0.3868 -0.2520  0.0488
  354MOL0     C47713   6.376   0.815   8.865 -0.4942  0.0244 -0.6682
  354MOL0     O47714   6.482   0.902   8.850 -0.4736  0.5227 -0.8679
  354MOL0     C47715   6.486   0.994   8.740 -0.4187  0.4193 -0.6934
  354MOL0     C47716   6.519   0.923   8.611 -0.3815  0.5256  0.2504
  354MOL0     C47717   6.545   1.016   8.496 -0.6231 -0.4015  0.7700
  354MOL0     C47718   6.422   1.114   8.477 -0.2227  0.0884  0.0451
  354MOL0     C47719   6.427   1.186   8.357 -0.3118 -1.3707  1.1837
  354MOL0     C47720   6.442   1.257   8.255  0.6668 -0.5360 -0.0929
  354MOL0     C47721   6.399   0.679   8.875 -0.1313  0.3975  0.8332
  354MOL0     C47722   6.297   0.588   8.881 -0.0704  0.3670  0.7170
  354MOL0     H47723   5.738   0.581   8.674  2.4937 -0.8589 -0.5572
  354MOL0     H47724   5.523   0.455   8.678 -0.7837 -2.8058 -0.9343
  354MOL0     H47725   5.455   0.159   9.009  1.9223  0.9726 -1.0583
  354MOL0     H47726   5.383   0.296   9.073 -1.7226 -0.9268  0.7575
  354MOL0     H47727   5.177   0.269   8.924  0.6650 -0.9386 -3.3659
  354MOL0     H47728   5.234   0.131   8.856 -1.8498 -2.3171  2.2867
  354MOL0     H47729   5.244   0.005   9.077  1.3313  0.2479 -1.6775
  354MOL0     H47730   5.155   0.138   9.147  2.1112 -0.0025  0.0328
  354MOL0     H47731   4.995   0.092   8.938  0.1436  1.5451  1.4737
  354MOL0     H47732   5.085  -0.058   8.915 -2.3277 -2.1591  0.5990
  354MOL0     H47733   5.039  -0.161   9.106 -0.1929  0.5857  1.6187
  354MOL0     H47734   5.000  -0.031   9.202  0.0680  0.4992 -0.0439
  354MOL0     H47735   4.788  -0.124   9.162  1.6207  0.0681 -0.7111
  354MOL0     H47736   4.797   0.020   9.059 -0.1494 -0.2256 -0.7711
  354MOL0     H47737   4.844  -0.104   8.860  0.5090  0.1026  2.1565
  354MOL0     H47738   4.856  -0.252   8.967  0.1600 -1.0781 -0.9836
  354MOL0     H47739   4.626  -0.264   8.995  0.1490  1.5996  1.4688
  354MOL0     H47740   4.655  -0.235   8.820  0.4121  1.6235 -0.7818
  354MOL0     H47741   4.536  -0.012   8.720 -0.6848  0.5975 -0.8125
  354MOL0     H47742   4.359   0.303   8.867 -1.2508 -0.7282  0.5599
  354MOL0     H47743   4.449   0.236   8.718  2.2290 -0.5736  1.5391
  354MOL0     H47744   4.177   0.178   8.839 -0.8027  1.2883 -0.2133
  354MOL0     H47745   4.256   0.047   8.766 -0.8690  0.4060  1.5847
  354MOL0     H47746   4.110   0.156   8.597 -0.1469 -0.8307 -1.4418
  354MOL0     H47747   4.292   0.185   8.561  0.9362  1.7614  0.4135
  354MOL0     H47748   4.285   0.401   8.618 -0.1883  2.2647 -4.6910
  354MOL0     H47749   4.125   0.385   8.695 -2.0158 -2.1361 -0.1594
  354MOL0     H47750   3.926   0.432   8.658 -1.2387 -1.3670  0.5388
  354MOL0     H47751   3.688   0.483   8.705 -1.2040  0.5163  0.4573
  354MOL0     H47752   3.562   0.470   8.582 -1.2751 -1.3317  0.7416
  354MOL0     H47753   3.598   0.332   8.685  2.4573 -0.2866  0.5069
  354MOL0     H47754   3.336   0.107   8.334 -0.1153  0.6758 -0.1906
  354MOL0     H47755   3.129   0.085   8.192  3.3587 -3.1690 -4.0112
  354MOL0     H47756   2.907   0.246   8.165 -0.7097 -0.0397 -1.0071
  354MOL0     H47757   2.930   0.407   8.118  0.2214 -0.1374  2.0302
  354MOL0     H47758   2.717   0.289   8.007  0.6848  2.1446  0.5520
  354MOL0     H47759   2.827   0.355   7.894 -2.9436 -0.9581 -0.5639
  354MOL0     H47760   2.811   0.065   7.956  0.9277  0.4545  0.0317
  354MOL0     H47761   2.899   0.145   7.825  0.7464 -1.1268  1.0729
  354MOL0     H47762   2.601   0.119   7.855  1.2725 -0.6630  1.9017
  354MOL0     H47763   2.673   0.249   7.762  0.5545 -0.3821  1.2150
  354MOL0     H47764   2.791   0.084   7.619 -0.0399  1.1905  0.2884
  354MOL0     H47765   2.613   0.066   7.617 -0.2118 -0.6537 -0.0114
  354MOL0     H47766   2.836  -0.091   7.745  1.0344  1.4956 -0.7641
  354MOL0     H47767   2.661  -0.105   7.806 -2.3335  3.3291 -1.2688
  354MOL0     H47768   2.783  -0.167   7.539  0.8535  0.2312  0.7100
  354MOL0     H47769   2.605  -0.145   7.551 -0.4809 -0.0447  0.9259
  354MOL0     H47770   2.748  -0.354   7.731 -3.6456 -4.5543 -0.8972
  354MOL0     H47771   2.697  -0.381   7.576 -1.7882 -1.0001  0.6168
  354MOL0     H47772   3.238   0.444   7.978  4.1131  2.0388  0.5378
  354MOL0     H47773   3.449   0.460   8.118 -1.7185  2.3038  1.2427
  354MOL0     H47774   3.766   0.217   8.238  0.3073  1.4443 -0.0087
  354MOL0     H47775   4.012   0.277   8.267  2.2256 -2.4764  1.7772
  354MOL0     H47776   5.612   0.314   9.070 -0.6646 -0.1968 -0.5455
  354MOL0     H47777   5.834   0.448   9.056  1.5168  2.4215 -1.8848
  354MOL0     H47778   6.033   0.802   8.853 -0.8867 -3.6721 -0.8700
  354MOL0     H47779   6.206   0.961   8.842  0.1067  0.0290  3.6001
  354MOL0     H47780   6.392   1.049   8.732 -0.9093 -0.2273  0.3762
  354MOL0     H47781   6.569   1.063   8.755  0.1056 -0.6704  2.0324
  354MOL0     H47782   6.440   0.851   8.589  0.9422 -1.3365  1.3263
  354MOL0     H47783   6.610   0.862   8.614 -0.0953  0.6276 -2.9000
  354MOL0     H47784   6.557   0.955   8.406  0.4286  0.5960  0.2025
  354MOL0     H47785   6.643   1.061   8.515 -0.7481 -0.0795  0.6626
  354MOL0     H47786   6.418   1.190   8.555 -0.1663 -0.1999  0.3359
  354MOL0     H47787   6.328   1.057   8.467  0.4786 -0.8219 -1.8556
  354MOL0     H47788   6.449   1.314   8.165 -0.4438 -0.1710  0.0349
  354MOL0     H47789   6.505   0.656   8.879  0.1755  1.3269 -0.7277
  354MOL0     H47790   6.323   0.484   8.897  1.4948  0.4165 -1.1621
  355MOL0     O47791   6.772   9.917   8.722  0.7053  0.1129 -0.2195
  355MOL0     C47792   6.789  10.034   8.743  0.3158 -0.0883 -0.7700
  355MOL0     O47793   6.710  10.133   8.700 -0.4572 -0.0991 -0.6437
  355MOL0     C47794   6.604  10.100   8.626 -0.6913  0.5001  0.0843
  355MOL0     C47795   6.475  10.136   8.664 -0.2255 -0.2923  0.0327
  355MOL0     C47796   6.369  10.105   8.578 -0.4797 -0.4098 -0.5664
  355MOL0     C47797   6.388  10.037   8.457  0.2567  0.1803 -0.8287
  355MOL0     O47798   6.277  10.007   8.383 -0.0846 -0.5022  0.3426
  355MOL0     C47799   6.283  10.031   8.241 -1.3268 -0.0016  0.2019
  355MOL0     C47800   6.259   9.912   8.158 -0.0259 -0.3312  1.2322
  355MOL0     C47801   6.286   9.928   8.002  0.5552 -0.8655 -0.1024
  355MOL0     C47802   6.182  10.001   7.910 -0.5197 -0.5209  0.4097
  355MOL0     C47803   6.065   9.904   7.893 -0.0557 -0.1670  0.3506
  355MOL0     C47804   5.958   9.973   7.821  0.5348 -0.5020 -0.4365
  355MOL0     C47805   5.859   9.867   7.767 -1.0506 -0.1394  0.0345
  355MOL0     C47806   5.738   9.929   7.701  0.9603 -0.1885  0.4870
  355MOL0     N47807   5.661   9.825   7.624 -0.8767  0.2552 -0.2344
  355MOL0     C47808   5.637   9.825   7.487  0.1340  0.1797 -0.0129
  355MOL0     C47809   5.532   9.748   7.471  0.5165 -0.2923  0.0042
  355MOL0     C47810   5.455   9.705   7.342 -0.4085 -0.0053 -0.4879
  355MOL0     C47811   5.361   9.808   7.276 -0.0398 -0.1551 -0.0084
  355MOL0     C47812   5.323   9.930   7.368 -0.0550 -0.4798 -0.4109
  355MOL0     C47813   5.207  10.011   7.303  0.2437 -0.2369 -0.2706
  355MOL0     O47814   5.209  10.144   7.364  0.7854  0.0454  0.3457
  355MOL0     C47815   5.099  10.216   7.348  0.5740 -1.1113  0.4015
  355MOL0     C47816   4.998  10.179   7.257 -0.2244  0.0317 -0.3423
  355MOL0     C47817   4.882  10.256   7.250  0.1558  0.3741  0.6233
  355MOL0     C47818   4.772  10.203   7.155 -0.2006 -0.4974  0.1956
  355MOL0     C47819   4.871  10.379   7.318 -0.4783  0.4782 -0.1826
  355MOL0     C47820   4.748  10.465   7.310 -0.9389 -0.1069 -0.0231
  355MOL0     O47821   4.635  10.413   7.255  0.0577 -0.2860  1.2706
  355MOL0     C47822   4.511  10.472   7.274  0.0280 -0.4473 -1.5092
  355MOL0     C47823   4.465  10.556   7.384  0.1463 -0.2025  0.6162
  355MOL0     C47824   4.331  10.604   7.382 -1.3444  0.4456 -0.3680
  355MOL0     C47825   4.244  10.581   7.281  0.8585  0.4867  0.5767
  355MOL0     O47826   4.119  10.635   7.298 -0.4409  0.0477 -0.5354
  355MOL0     C47827   4.030  10.648   7.193 -0.0833  0.3715 -0.4517
  355MOL0     C47828   3.962  10.788   7.199  0.4210  0.1946  0.1062
  355MOL0     C47829   3.852  10.816   7.099  0.4613  0.9044 -0.3819
  355MOL0     C47830   3.713  10.764   7.137 -0.3597 -0.1122 -0.3929
  355MOL0     C47831   3.611  10.852   7.063  0.1439 -0.3266  0.2941
  355MOL0     C47832   3.470  10.792   7.098 -0.0816  0.4985 -0.6978
  355MOL0     C47833   3.351  10.869   7.035 -0.0514 -1.0162  0.0655
  355MOL0     C47834   3.216  10.818   7.052  0.0524  0.5573 -0.4719
  355MOL0    Cl47835   3.104  10.918   6.956  0.0981  0.0148  0.1044
  355MOL0     C47836   4.286  10.500   7.170  0.3185  0.7615  0.6907
  355MOL0     C47837   4.417  10.444   7.170  0.6496 -0.0422 -0.5081
  355MOL0     O47838   4.754  10.587   7.339 -0.2997 -0.4697 -0.7202
  355MOL0     C47839   4.976  10.411   7.409 -0.6216  0.1108 -0.0974
  355MOL0     C47840   5.084  10.321   7.428 -0.3275 -0.0577  0.2743
  355MOL0     N47841   5.496   9.697   7.597 -0.4560  0.0923 -0.2390
  355MOL0     N47842   5.579   9.742   7.686  0.2519  0.4967  0.1954
  355MOL0     C47843   6.520  10.004   8.420  0.0132 -0.0863  0.0919
  355MOL0     C47844   6.630  10.039   8.498  0.2733  0.1163  0.4148
  355MOL0     C47845   6.911  10.066   8.821  0.7114 -0.0940  0.8623
  355MOL0     C47846   6.967  10.198   8.819  0.5601  0.0341 -0.1355
  355MOL0     C47847   7.083  10.221   8.886 -0.4176 -0.0034 -0.6291
  355MOL0     C47848   7.145  10.124   8.966 -1.2272 -0.8817  0.1854
  355MOL0     O47849   7.238  10.167   9.049 -0.7062 -0.9590 -0.1481
  355MOL0     C47850   7.294  10.086   9.150  0.4990  0.8446 -0.4698
  355MOL0     C47851   7.401  10.171   9.221  0.4269  0.2676  0.5435
  355MOL0     C47852   7.517  10.225   9.139 -0.8950 -1.1777 -0.8485
  355MOL0     C47853   7.598  10.329   9.227 -0.7171  1.2660 -0.0853
  355MOL0     C47854   7.720  10.379   9.160 -0.2299  0.1914 -0.0268
  355MOL0     C47855   7.824  10.404   9.106 -0.9833 -0.8771  0.5505
  355MOL0     C47856   7.099   9.990   8.957  0.5540  0.1819 -0.6602
  355MOL0     C47857   6.988   9.964   8.885  1.2938  0.4241  0.2681
  355MOL0     H47858   6.454  10.184   8.759 -0.3968 -2.9213  1.4213
  355MOL0     H47859   6.265  10.130   8.598 -0.5825  0.6805 -2.2625
  355MOL0     H47860   6.207  10.098   8.201 -2.3187 -0.0928  1.8540
  355MOL0     H47861   6.377  10.083   8.223 -1.4296  0.5326  1.1385
  355MOL0     H47862   6.316   9.826   8.194 -2.7206 -2.5611  0.5350
  355MOL0     H47863   6.156   9.878   8.176 -0.4548 -0.0371 -0.5294
  355MOL0     H47864   6.384   9.975   7.988  0.6163 -0.3965  1.6354
  355MOL0     H47865   6.300   9.828   7.962 -0.7496 -1.1143  0.0272
  355MOL0     H47866   6.139  10.088   7.960 -1.0939  0.3775 -1.5655
  355MOL0     H47867   6.237  10.016   7.817 -1.9947 -0.0005 -0.4016
  355MOL0     H47868   6.090   9.816   7.833 -1.9746 -2.2723  2.4604
  355MOL0     H47869   6.028   9.863   7.988  2.3533 -1.6535  0.7281
  355MOL0     H47870   5.896  10.043   7.878 -0.9592 -2.4070  0.3447
  355MOL0     H47871   6.007  10.025   7.738 -0.2981  0.7133 -0.1929
  355MOL0     H47872   5.918   9.798   7.706  3.2336  3.7155 -0.7272
  355MOL0     H47873   5.815   9.822   7.856 -0.5755  0.2291  0.4624
  355MOL0     H47874   5.761  10.012   7.633  1.3617 -0.8385 -0.1780
  355MOL0     H47875   5.667   9.967   7.775 -1.1296  1.6559 -2.2732
  355MOL0     H47876   5.692   9.880   7.411 -1.4482  1.1721 -0.4685
  355MOL0     H47877   5.528   9.673   7.267  0.7868  0.0146  0.6385
  355MOL0     H47878   5.406   9.609   7.361  0.9284 -0.6704 -0.2570
  355MOL0     H47879   5.278   9.750   7.235  0.6756 -0.4930 -0.9958
  355MOL0     H47880   5.418   9.854   7.195  0.8260  2.6596  2.0439
  355MOL0     H47881   5.410   9.995   7.384 -0.6412 -0.1685  1.9010
  355MOL0     H47882   5.285   9.893   7.464  0.2390 -0.2805 -0.2148
  355MOL0     H47883   5.109   9.966   7.317  1.3002 -2.4458  0.5485
  355MOL0     H47884   5.218  10.026   7.196 -0.9721 -1.0555 -0.5247
  355MOL0     H47885   5.001  10.092   7.193 -1.3670  1.3909 -2.3120
  355MOL0     H47886   4.728  10.268   7.078 -3.9444 -2.6114  0.3397
  355MOL0     H47887   4.801  10.118   7.092 -0.5716 -1.3455  1.1572
  355MOL0     H47888   4.683  10.168   7.207 -0.5549 -1.0548 -0.7684
  355MOL0     H47889   4.545  10.594   7.447  2.4134 -3.5768  0.0642
  355MOL0     H47890   4.302  10.670   7.462  1.2462  3.5332 -1.7776
  355MOL0     H47891   4.091  10.646   7.102 -0.5905  1.8064 -0.8490
  355MOL0     H47892   3.958  10.566   7.185  0.2288  0.0996 -0.5180
  355MOL0     H47893   3.931  10.809   7.301  0.0526 -2.0670  0.5150
  355MOL0     H47894   4.043  10.856   7.170 -1.6971  2.1945 -1.5672
  355MOL0     H47895   3.871  10.759   7.008  1.0029 -0.1812  0.3865
  355MOL0     H47896   3.852  10.923   7.078  0.5460  0.6020 -1.9999
  355MOL0     H47897   3.699  10.658   7.115  0.0288 -0.2344 -0.0511
  355MOL0     H47898   3.700  10.778   7.244  0.0690  2.6413 -0.6153
  355MOL0     H47899   3.631  10.857   6.956  1.4558 -1.1853  0.4851
  355MOL0     H47900   3.608  10.958   7.092 -0.7127 -0.4517  0.7006
  355MOL0     H47901   3.475  10.689   7.059 -1.3470  0.4794 -0.8391
  355MOL0     H47902   3.461  10.781   7.206 -0.5607  3.7386 -0.3375
  355MOL0     H47903   3.364  10.858   6.926 -0.9170  1.9995 -0.4200
  355MOL0     H47904   3.365  10.972   7.068 -1.1552 -0.9070  0.2370
  355MOL0     H47905   3.195  10.818   7.159 -0.5384  1.9317 -0.5708
  355MOL0     H47906   3.210  10.716   7.013  0.7213  0.5914 -0.6752
  355MOL0     H47907   4.219  10.482   7.087  2.2501  0.9571 -1.0005
  355MOL0     H47908   4.446  10.390   7.081  1.6603 -0.7944  0.2461
  355MOL0     H47909   4.979  10.503   7.465  1.9870  0.2630 -0.3861
  355MOL0     H47910   5.155  10.350   7.505 -0.7231  2.3991 -0.1947
  355MOL0     H47911   6.544   9.966   8.322  0.8723 -0.8384  0.5834
  355MOL0     H47912   6.730  10.022   8.461  0.5564  4.7683 -1.5901
  355MOL0     H47913   6.920  10.281   8.766 -0.0986  0.3535  0.9188
  355MOL0     H47914   7.126  10.319   8.870 -0.5845 -0.2912 -3.1951
  355MOL0     H47915   7.218  10.058   9.224 -2.5521 -0.8805 -3.9070
  355MOL0     H47916   7.341   9.992   9.120 -1.6006 -0.5296  0.3316
  355MOL0     H47917   7.430  10.115   9.311 -3.0030  1.1159  2.3130
  355MOL0     H47918   7.351  10.260   9.258  0.5197  0.8010 -0.5800
  355MOL0     H47919   7.476  10.273   9.049  0.7474  0.0177 -0.9949
  355MOL0     H47920   7.588  10.149   9.107  0.8099  0.5023 -1.2421
  355MOL0     H47921   7.620  10.279   9.322 -0.4231  2.2204  0.3590
  355MOL0     H47922   7.531  10.414   9.246 -3.3399 -0.7228  0.0990
  355MOL0     H47923   7.920  10.445   9.083 -0.3318 -2.3410  0.5916
  355MOL0     H47924   7.154   9.914   9.012  1.7130  0.5897 -1.2108
  355MOL0     H47925   6.961   9.859   8.884  2.3406  0.1390  0.0441
  356MOL0     O47926   2.459   6.374   7.267  0.0384  0.4470  0.0261
  356MOL0     C47927   2.478   6.270   7.199 -0.1138 -0.1640  0.3221
  356MOL0     O47928   2.382   6.186   7.143  0.2309 -0.0946 -0.0825
  356MOL0     C47929   2.252   6.243   7.144  0.1641 -0.6333  0.4960
  356MOL0     C47930   2.223   6.362   7.078 -0.6448  0.7336  0.0712
  356MOL0     C47931   2.098   6.417   7.072  0.3267 -0.0175 -0.5548
  356MOL0     C47932   1.991   6.354   7.140 -0.6682 -0.0254 -0.1273
  356MOL0     O47933   1.866   6.404   7.138  0.1108  0.6651  0.4364
  356MOL0     C47934   1.821   6.436   7.005 -0.6657  0.8500  0.1247
  356MOL0     C47935   1.680   6.391   6.996  0.1080  1.4620  0.0438
  356MOL0     C47936   1.678   6.236   7.006  0.3056 -0.1067  0.2581
  356MOL0     C47937   1.534   6.188   6.973  0.4928 -0.4982  0.1499
  356MOL0     C47938   1.522   6.052   6.917 -0.2750 -0.1640  0.2304
  356MOL0     C47939   1.379   6.005   6.880  0.4295 -0.6176 -0.1933
  356MOL0     C47940   1.284   5.984   7.009  0.0251  0.4743  0.1454
  356MOL0     C47941   1.142   5.930   6.959  0.1537 -0.2648  0.0968
  356MOL0     N47942   1.050   5.896   7.067  0.0638  1.2727  0.4021
  356MOL0     C47943   1.088   5.800   7.165  0.7750  0.7833 -0.5346
  356MOL0     C47944   0.975   5.773   7.234  0.3591 -0.4007 -1.1246
  356MOL0     C47945   0.953   5.681   7.357 -0.6738  0.1162  0.1309
  356MOL0     C47946   0.894   5.753   7.475  0.9900  0.1231 -0.2784
  356MOL0     C47947   0.863   5.647   7.584 -0.2656 -0.1386 -0.4342
  356MOL0     C47948   0.855   5.716   7.710 -0.1639  0.3514 -0.4468
  356MOL0     O47949   0.777   5.838   7.691  0.2720 -0.1026 -0.3477
  356MOL0     C47950   0.645   5.837   7.661 -0.9857 -0.4163  0.6940
  356MOL0     C47951   0.565   5.724   7.668  0.1021 -0.3964  0.1160
  356MOL0     C47952   0.427   5.731   7.664 -0.7831 -0.4564 -0.1730
  356MOL0     C47953   0.360   5.594   7.677 -0.0662 -0.3101 -0.6412
  356MOL0     C47954   0.360   5.858   7.641 -0.3501  0.6254  0.5785
  356MOL0     C47955   0.211   5.880   7.633 -0.6576 -0.0917 -0.2201
  356MOL0     O47956   0.169   6.009   7.609 -0.1583 -0.3594  0.4699
  356MOL0     C47957   0.036   6.026   7.632 -0.3027  0.0174  0.3329
  356MOL0     C47958  -0.043   6.054   7.518  0.1212  0.1541  0.1393
  356MOL0     C47959  -0.178   6.083   7.533 -0.7260  0.4415 -0.1824
  356MOL0     C47960  -0.235   6.083   7.663 -0.6389  0.0920 -0.0804
  356MOL0     O47961  -0.375   6.092   7.681 -0.3204 -0.2388 -0.4234
  356MOL0     C47962  -0.468   6.063   7.582 -0.1651 -0.4512  0.3630
  356MOL0     C47963  -0.593   6.077   7.668  0.2498  0.5688  0.1094
  356MOL0     C47964  -0.712   6.098   7.584  0.3097 -0.4541  0.0836
  356MOL0     C47965  -0.751   5.968   7.505 -0.3741 -0.9740  0.1546
  356MOL0     C47966  -0.888   5.996   7.435 -0.1935 -0.3267 -0.3194
  356MOL0     C47967  -0.927   5.870   7.357  0.0242 -0.2079  0.6048
  356MOL0     C47968  -1.046   5.905   7.260  0.5365 -0.2066  0.3679
  356MOL0     C47969  -1.063   5.792   7.158  0.0041  0.2184 -0.1669
  356MOL0    Cl47970  -1.090   5.638   7.262  0.1197  0.0458 -0.7075
  356MOL0     C47971  -0.159   6.040   7.770  0.3804  0.4062  0.1640
  356MOL0     C47972  -0.025   6.030   7.761  0.1719  0.9278 -0.3458
  356MOL0     O47973   0.141   5.783   7.642  0.2388 -0.0788  0.3631
  356MOL0     C47974   0.445   5.974   7.631  0.0733  0.7032  0.3961
  356MOL0     C47975   0.580   5.957   7.634 -0.0622  0.8319 -0.8088
  356MOL0     N47976   0.871   5.848   7.179 -0.1967  0.1169  0.2711
  356MOL0     N47977   0.916   5.921   7.076 -0.0957  0.7596 -0.4362
  356MOL0     C47978   2.014   6.236   7.215 -0.3026  0.3449  0.5072
  356MOL0     C47979   2.146   6.191   7.219  0.6386  1.0793 -1.0168
  356MOL0     C47980   2.623   6.219   7.175 -0.0708 -0.2667  0.2186
  356MOL0     C47981   2.725   6.289   7.239  1.0387 -0.4913  0.0084
  356MOL0     C47982   2.859   6.249   7.217 -0.0285 -0.5427 -0.3472
  356MOL0     C47983   2.888   6.129   7.146 -0.2469  0.0520  0.9672
  356MOL0     O47984   3.019   6.081   7.118  1.1784 -0.8775 -0.3757
  356MOL0     C47985   3.123   6.123   7.207 -0.2909 -0.0379  0.0293
  356MOL0     C47986   3.107   6.044   7.340 -0.2311 -0.9050  0.5622
  356MOL0     C47987   3.223   6.084   7.442  0.6984  0.0436 -0.8802
  356MOL0     C47988   3.239   5.976   7.549 -0.4592  0.2079 -0.3311
  356MOL0     C47989   3.144   5.987   7.663 -0.0027 -0.3068 -0.3682
  356MOL0     C47990   3.081   5.986   7.766  0.2505  0.2439 -0.6429
  356MOL0     C47991   2.782   6.055   7.092  0.3607 -0.2659 -0.0347
  356MOL0     C47992   2.648   6.097   7.104 -0.2499  0.3273  0.0477
  356MOL0     H47993   2.299   6.424   7.033 -0.8780  0.9463 -0.0306
  356MOL0     H47994   2.062   6.510   7.029 -3.3548 -0.5249  1.0528
  356MOL0     H47995   1.832   6.544   6.995 -2.4722  1.1326  0.9142
  356MOL0     H47996   1.887   6.389   6.931  0.8375  4.1225 -0.7693
  356MOL0     H47997   1.607   6.427   7.070 -0.5029 -0.7962  0.6026
  356MOL0     H47998   1.642   6.425   6.899  0.1495  1.3089 -0.0260
  356MOL0     H47999   1.742   6.195   6.928  1.3309  1.3468  0.3110
  356MOL0     H48000   1.708   6.200   7.105 -0.5287  3.8991  2.1882
  356MOL0     H48001   1.485   6.189   7.071  1.6513 -1.8684  0.7829
  356MOL0     H48002   1.473   6.256   6.913  1.4136  0.2723  0.0556
  356MOL0     H48003   1.582   6.057   6.826  2.0553  0.5908  1.7113
  356MOL0     H48004   1.562   5.974   6.983 -1.8595 -1.8280 -0.6822
  356MOL0     H48005   1.322   6.070   6.814  0.6388 -1.7523 -1.5475
  356MOL0     H48006   1.399   5.907   6.835  2.6538 -1.6319  2.7090
  356MOL0     H48007   1.333   5.919   7.082 -3.0895 -2.4843 -0.1396
  356MOL0     H48008   1.260   6.081   7.053 -0.1681  0.5653 -0.1609
  356MOL0     H48009   1.160   5.841   6.899 -0.6021 -1.6101  1.7778
  356MOL0     H48010   1.088   5.996   6.890  0.9240 -1.4060 -1.6592
  356MOL0     H48011   1.184   5.753   7.188 -0.4703 -1.0007  1.3439
  356MOL0     H48012   0.893   5.593   7.331  0.2775 -1.1093  1.8389
  356MOL0     H48013   1.053   5.645   7.383  0.8062  2.0508 -2.4175
  356MOL0     H48014   0.805   5.811   7.452 -0.3516 -0.9601  1.8413
  356MOL0     H48015   0.974   5.822   7.504 -0.2452  2.3212 -1.8706
  356MOL0     H48016   0.949   5.579   7.592 -0.7614 -1.0186 -2.0951
  356MOL0     H48017   0.782   5.579   7.554  2.3096 -3.1389 -1.1966
  356MOL0     H48018   0.955   5.751   7.736 -0.3291  0.7575 -0.3544
  356MOL0     H48019   0.817   5.648   7.787  2.0065 -2.4083 -1.6257
  356MOL0     H48020   0.603   5.628   7.701  1.4486  0.5589  1.4661
  356MOL0     H48021   0.433   5.527   7.723 -1.3637 -0.1701  1.8088
  356MOL0     H48022   0.278   5.614   7.747 -0.0910  2.9227 -1.4279
  356MOL0     H48023   0.320   5.562   7.581 -5.8299 -1.1130  1.6202
  356MOL0     H48024   0.004   6.042   7.421 -2.1051  1.4541 -1.2027
  356MOL0     H48025  -0.224   6.105   7.437  1.4750 -0.9011 -1.6330
  356MOL0     H48026  -0.467   6.142   7.506 -1.5485 -2.1311 -1.5166
  356MOL0     H48027  -0.446   5.971   7.527  0.6097  1.1822 -2.2775
  356MOL0     H48028  -0.595   5.981   7.720  1.0038 -1.5108 -3.3680
  356MOL0     H48029  -0.581   6.161   7.737 -1.4791 -0.5068  1.8207
  356MOL0     H48030  -0.694   6.174   7.508  2.6129 -0.8476  0.1551
  356MOL0     H48031  -0.796   6.132   7.645 -1.1668  0.8300 -2.5281
  356MOL0     H48032  -0.669   5.951   7.435  0.5943  3.1820 -0.0256
  356MOL0     H48033  -0.752   5.884   7.575  0.9007 -0.7656  0.4469
  356MOL0     H48034  -0.881   6.085   7.371 -0.0531 -0.1084 -0.0023
  356MOL0     H48035  -0.968   6.017   7.506  0.5029  0.9383  0.1432
  356MOL0     H48036  -0.835   5.834   7.308  0.6232  1.9836  0.0174
  356MOL0     H48037  -0.970   5.801   7.431 -1.8822 -0.0827 -0.3541
  356MOL0     H48038  -1.025   5.996   7.203  0.7111  0.0184  0.7852
  356MOL0     H48039  -1.138   5.921   7.317 -1.2519  2.3828 -2.9480
  356MOL0     H48040  -0.971   5.796   7.099 -0.9236  2.1159 -1.6009
  356MOL0     H48041  -1.145   5.810   7.088 -0.5847 -0.4686  0.3225
  356MOL0     H48042  -0.200   6.029   7.869  0.8371  3.4747  0.8197
  356MOL0     H48043   0.036   6.003   7.846  1.5060  0.9622 -1.2621
  356MOL0     H48044   0.401   6.072   7.615  1.0974  1.2284  0.7041
  356MOL0     H48045   0.638   6.048   7.638 -2.3505  2.3402  0.4244
  356MOL0     H48046   1.925   6.194   7.262  0.8736 -1.8723  0.9030
  356MOL0     H48047   2.158   6.097   7.273 -0.8011  1.1104 -0.5985
  356MOL0     H48048   2.700   6.384   7.284 -2.8487 -1.5163  0.4095
  356MOL0     H48049   2.947   6.306   7.245  1.0415 -0.7660 -2.9631
  356MOL0     H48050   3.218   6.111   7.153 -1.3819  0.4504 -2.0927
  356MOL0     H48051   3.120   6.231   7.221 -0.0595  0.1283 -1.1399
  356MOL0     H48052   3.102   5.936   7.324  2.5424 -0.9997 -0.1840
  356MOL0     H48053   3.013   6.082   7.381 -0.9588  0.9601 -2.4686
  356MOL0     H48054   3.200   6.177   7.496  1.8076  0.3537 -0.9185
  356MOL0     H48055   3.320   6.098   7.393  0.1150  4.3166 -1.2565
  356MOL0     H48056   3.343   5.988   7.582 -1.1520 -0.2949  2.2679
  356MOL0     H48057   3.229   5.878   7.502  3.1403  0.6229 -2.2934
  356MOL0     H48058   3.020   5.984   7.854 -2.4914  0.8397 -2.3928
  356MOL0     H48059   2.804   5.968   7.031  1.6110 -1.4488  1.9762
  356MOL0     H48060   2.574   6.041   7.048  1.8593 -3.6327  0.8181
  357MOL0     O48061   0.570   3.135   5.266 -0.1391 -0.3111 -0.2504
  357MOL0     C48062   0.643   3.049   5.314 -0.0168 -0.7239 -0.0234
  357MOL0     O48063   0.597   2.932   5.379 -0.7487  0.0448 -0.3070
  357MOL0     C48064   0.463   2.913   5.376 -0.9967 -0.0578  0.2694
  357MOL0     C48065   0.395   2.839   5.277  0.3073 -0.1927  1.0663
  357MOL0     C48066   0.253   2.836   5.278 -0.3519  0.6559 -0.0505
  357MOL0     C48067   0.176   2.891   5.384 -0.2981  0.3464 -0.6865
  357MOL0     O48068   0.043   2.890   5.367  0.2997  0.0828  0.2302
  357MOL0     C48069  -0.043   2.925   5.476 -0.1034 -0.4376  0.0206
  357MOL0     C48070  -0.188   2.889   5.440  0.2690 -0.3361  0.4402
  357MOL0     C48071  -0.239   2.969   5.319  0.0981 -0.7041  0.0174
  357MOL0     C48072  -0.393   3.011   5.323  0.4695  0.0838  0.4616
  357MOL0     C48073  -0.424   3.067   5.182  0.3901 -0.5526  0.0033
  357MOL0     C48074  -0.569   3.123   5.167 -0.5532 -0.0342 -0.0119
  357MOL0     C48075  -0.595   3.147   5.024 -0.3354  0.2584 -0.0761
  357MOL0     C48076  -0.740   3.195   5.001  0.0881  0.2625 -0.6690
  357MOL0     N48077  -0.841   3.079   5.008  0.2089 -0.3824  0.2859
  357MOL0     C48078  -0.926   3.058   4.908 -0.3624 -0.0590  0.2640
  357MOL0     C48079  -1.005   2.960   4.964 -0.1833 -0.2721 -0.7232
  357MOL0     C48080  -1.138   2.914   4.913 -0.2189 -0.4766  0.3175
  357MOL0     C48081  -1.248   3.015   4.944  0.1552  0.7093 -0.0937
  357MOL0     C48082  -1.375   2.966   4.860 -1.1561 -0.1809 -0.4642
  357MOL0     C48083  -1.489   3.068   4.874 -0.0904  0.7516 -0.6335
  357MOL0     O48084  -1.577   3.049   4.759  0.2415  0.3903  0.4359
  357MOL0     C48085  -1.704   3.104   4.762 -0.1040  0.6705  0.2760
  357MOL0     C48086  -1.742   3.202   4.844 -0.0923 -0.2219 -0.4055
  357MOL0     C48087  -1.878   3.254   4.842 -0.8229  0.2861  1.3247
  357MOL0     C48088  -1.889   3.380   4.933 -0.3811 -0.7675 -0.0384
  357MOL0     C48089  -1.968   3.208   4.742  0.0859 -0.0109 -0.2501
  357MOL0     C48090  -2.103   3.263   4.723 -0.2426  0.0588  0.2579
  357MOL0     O48091  -2.189   3.186   4.651 -0.1752  0.1325 -0.5250
  357MOL0     C48092  -2.298   3.245   4.599  0.4905 -0.1165  0.1848
  357MOL0     C48093  -2.399   3.313   4.666  0.6141  0.4265 -0.4252
  357MOL0     C48094  -2.502   3.375   4.602  0.6102 -0.5481 -0.2540
  357MOL0     C48095  -2.519   3.360   4.463  0.0738 -0.8740 -0.1700
  357MOL0     O48096  -2.631   3.411   4.408  0.6364 -0.0401 -0.6248
  357MOL0     C48097  -2.647   3.408   4.266 -0.0156  0.5491 -0.9711
  357MOL0     C48098  -2.720   3.529   4.222  0.5971 -0.0820 -0.6222
  357MOL0     C48099  -2.781   3.502   4.085  1.0290  0.1414 -0.0182
  357MOL0     C48100  -2.787   3.639   4.011 -0.5317  0.5949 -0.3520
  357MOL0     C48101  -2.869   3.615   3.883 -0.1942 -0.2488 -0.2653
  357MOL0     C48102  -2.903   3.749   3.807 -0.5530 -0.3486  0.4038
  357MOL0     C48103  -2.941   3.725   3.666  0.0301  0.3774  0.6266
  357MOL0     C48104  -3.019   3.844   3.609 -0.3045 -0.2025  0.1791
  357MOL0    Cl48105  -3.071   3.798   3.452  0.5244  0.4072 -0.0463
  357MOL0     C48106  -2.412   3.294   4.394 -0.1631 -0.8100 -0.6504
  357MOL0     C48107  -2.308   3.242   4.462 -0.8498 -0.1262 -0.3266
  357MOL0     O48108  -2.122   3.382   4.758  0.7193 -0.4316 -0.0727
  357MOL0     C48109  -1.920   3.107   4.656 -0.4023 -0.1380  0.2041
  357MOL0     C48110  -1.791   3.057   4.664 -0.5715 -0.2648  0.1755
  357MOL0     N48111  -0.949   2.927   5.091  0.0926 -0.1872  1.0732
  357MOL0     N48112  -0.858   3.007   5.116  0.2604  0.1329 -0.1152
  357MOL0     C48113   0.242   2.951   5.492 -0.2950 -0.1283  1.2436
  357MOL0     C48114   0.382   2.959   5.483  0.7735 -0.3878  0.5215
  357MOL0     C48115   0.781   3.086   5.336 -0.2157 -0.2464 -0.0533
  357MOL0     C48116   0.821   3.214   5.358  0.2542 -0.2360 -0.1619
  357MOL0     C48117   0.956   3.250   5.362  0.0036  0.5034  0.1426
  357MOL0     C48118   1.054   3.141   5.367 -0.9193 -0.8581 -0.4308
  357MOL0     O48119   1.183   3.182   5.380 -0.7186 -0.5992  0.0848
  357MOL0     C48120   1.282   3.092   5.437 -0.7289 -0.1013  0.6789
  357MOL0     C48121   1.393   3.094   5.334  0.4116 -0.0398 -0.1176
  357MOL0     C48122   1.532   3.036   5.392  0.6455  0.0990  0.6745
  357MOL0     C48123   1.589   2.929   5.298  0.3488 -0.4155  0.6513
  357MOL0     C48124   1.726   2.903   5.333 -0.0365 -0.4655 -0.5566
  357MOL0     C48125   1.845   2.907   5.357  0.1996 -0.2686 -0.0757
  357MOL0     C48126   1.011   3.012   5.366  1.0872  0.3980  0.2542
  357MOL0     C48127   0.881   2.983   5.335 -0.1801  1.3132 -0.8400
  357MOL0     H48128   0.451   2.790   5.198 -0.2711  2.0033 -0.8265
  357MOL0     H48129   0.197   2.792   5.196  2.3996 -4.4926  0.4311
  357MOL0     H48130  -0.015   2.872   5.567 -2.2589 -0.1954  0.8961
  357MOL0     H48131  -0.027   3.030   5.503 -2.0247 -0.4088  1.2825
  357MOL0     H48132  -0.191   2.782   5.421 -0.6246 -0.3150  0.4167
  357MOL0     H48133  -0.241   2.906   5.534  2.9843 -0.7250  2.1230
  357MOL0     H48134  -0.177   3.056   5.297 -1.1001 -0.2500 -1.7545
  357MOL0     H48135  -0.229   2.901   5.234 -1.3024  0.9625 -1.5638
  357MOL0     H48136  -0.463   2.928   5.334 -1.1333  1.2925 -0.1850
  357MOL0     H48137  -0.409   3.076   5.409  0.6000  0.6492  0.0636
  357MOL0     H48138  -0.351   3.145   5.160 -0.0071 -0.6203 -1.7231
  357MOL0     H48139  -0.422   2.989   5.105  0.1888 -0.8763  0.3211
  357MOL0     H48140  -0.637   3.046   5.205 -1.3980  0.6489 -0.1107
  357MOL0     H48141  -0.577   3.214   5.227 -0.6812  0.4658 -0.7850
  357MOL0     H48142  -0.529   3.223   4.982  1.1844 -1.4503 -0.8926
  357MOL0     H48143  -0.584   3.063   4.955  0.5924 -0.3714  0.8017
  357MOL0     H48144  -0.751   3.229   4.898  2.6841 -2.8317 -2.1296
  357MOL0     H48145  -0.755   3.270   5.079  0.4858  0.1833 -0.5171
  357MOL0     H48146  -0.940   3.120   4.820 -1.3095  0.8482  1.0235
  357MOL0     H48147  -1.135   2.903   4.804  0.7410  2.5867 -0.0664
  357MOL0     H48148  -1.164   2.817   4.958  0.1082 -1.6980 -1.9902
  357MOL0     H48149  -1.217   3.118   4.925 -2.1991  1.7653  1.4466
  357MOL0     H48150  -1.271   3.004   5.050 -0.9375  0.8995 -0.3055
  357MOL0     H48151  -1.401   2.865   4.893  1.8790 -0.2579  2.0699
  357MOL0     H48152  -1.347   2.959   4.754  0.2032 -2.8093 -0.0040
  357MOL0     H48153  -1.443   3.167   4.870  2.7480 -0.5082 -2.4621
  357MOL0     H48154  -1.542   3.050   4.968 -1.8932 -1.1643 -1.9195
  357MOL0     H48155  -1.667   3.253   4.904  0.6503 -0.2152 -1.3215
  357MOL0     H48156  -1.987   3.379   4.981 -1.2216  1.2489 -1.5455
  357MOL0     H48157  -1.803   3.387   5.000  1.0322 -1.0346 -1.7618
  357MOL0     H48158  -1.889   3.474   4.877 -0.7779  0.3306  1.7220
  357MOL0     H48159  -2.385   3.302   4.774  2.6585 -2.3006 -0.8565
  357MOL0     H48160  -2.576   3.440   4.648  1.2734  2.0999 -2.6187
  357MOL0     H48161  -2.554   3.397   4.209 -0.5436 -0.3867 -1.6726
  357MOL0     H48162  -2.709   3.322   4.239  0.8453 -1.1109  1.9044
  357MOL0     H48163  -2.801   3.549   4.294  0.9757 -1.5189  0.2415
  357MOL0     H48164  -2.651   3.613   4.235 -0.8977  0.9307  1.4618
  357MOL0     H48165  -2.879   3.455   4.092  0.8299  0.6907  1.0624
  357MOL0     H48166  -2.717   3.433   4.029 -0.5908 -1.7005  0.3104
  357MOL0     H48167  -2.838   3.708   4.079 -1.2685 -1.2152  1.0141
  357MOL0     H48168  -2.688   3.677   3.984  0.5347 -1.4406  0.4492
  357MOL0     H48169  -2.956   3.552   3.907 -0.0529  0.2293  1.6171
  357MOL0     H48170  -2.804   3.556   3.817 -2.3830 -1.3170 -1.6114
  357MOL0     H48171  -2.981   3.809   3.856 -1.4194 -0.3553 -0.9336
  357MOL0     H48172  -2.809   3.804   3.798 -0.2680 -1.1584 -2.5858
  357MOL0     H48173  -3.000   3.633   3.665 -0.3654  0.6155 -1.2998
  357MOL0     H48174  -2.844   3.716   3.616 -0.8499 -1.0391 -0.9223
  357MOL0     H48175  -2.969   3.941   3.605 -1.8775  0.6549  0.6312
  357MOL0     H48176  -3.110   3.855   3.668 -1.4870  1.1411 -1.7995
  357MOL0     H48177  -2.405   3.269   4.288 -2.5799 -0.2185 -1.0189
  357MOL0     H48178  -2.234   3.190   4.402 -1.0451 -0.1154 -0.5752
  357MOL0     H48179  -1.986   3.058   4.584  0.1802 -2.5176  1.1891
  357MOL0     H48180  -1.764   2.981   4.592 -1.4564 -0.2267 -0.2058
  357MOL0     H48181   0.187   3.006   5.568 -1.0130 -0.1420  0.7333
  357MOL0     H48182   0.428   3.038   5.542 -2.8845  3.8425 -1.6638
  357MOL0     H48183   0.743   3.289   5.363 -1.0015 -1.4360 -1.0913
  357MOL0     H48184   0.986   3.354   5.368  0.6532  0.2256  2.8977
  357MOL0     H48185   1.309   3.130   5.536  0.5833  4.7112 -1.2280
  357MOL0     H48186   1.243   2.990   5.449  2.8672 -1.5196  1.5591
  357MOL0     H48187   1.419   3.199   5.319 -0.0992  0.0761 -0.1879
  357MOL0     H48188   1.362   3.039   5.245  1.8551 -2.1891  0.6132
  357MOL0     H48189   1.529   2.979   5.485 -0.3950 -0.4580  0.3191
  357MOL0     H48190   1.595   3.123   5.410 -0.8192  1.0457  1.4696
  357MOL0     H48191   1.584   2.967   5.195  2.0936 -1.9344 -0.0459
  357MOL0     H48192   1.521   2.844   5.289  0.6042 -0.5915  0.3479
  357MOL0     H48193   1.945   2.914   5.393  0.0605  1.3055  0.0637
  357MOL0     H48194   1.071   2.922   5.374 -1.1123 -1.0964  1.1021
  357MOL0     H48195   0.844   2.883   5.318  0.0700  1.2079 -0.7734
  358MOL0     O48196  11.264   0.855   6.563  0.1887 -0.1470  0.2895
  358MOL0     C48197  11.285   0.879   6.443 -0.2687  0.3283  0.4910
  358MOL0     O48198  11.183   0.910   6.357 -0.0013 -0.1217  0.0087
  358MOL0     C48199  11.049   0.879   6.396  0.6094 -0.2134  0.8355
  358MOL0     C48200  10.947   0.974   6.372  1.1646  0.3595 -0.1778
  358MOL0     C48201  10.811   0.948   6.408 -0.5704 -0.0244  0.0861
  358MOL0     C48202  10.783   0.841   6.489 -0.1402  0.3643  0.1868
  358MOL0     O48203  10.657   0.813   6.518  0.6226 -0.5878  0.2561
  358MOL0     C48204  10.588   0.740   6.418 -0.7909  0.5003 -0.4676
  358MOL0     C48205  10.457   0.808   6.369 -0.4359 -0.7417 -0.6230
  358MOL0     C48206  10.386   0.715   6.279  0.0413  0.2528  0.7852
  358MOL0     C48207  10.293   0.623   6.355 -0.1740  0.3453  0.0845
  358MOL0     C48208  10.229   0.517   6.259  0.0417  0.2396 -0.2815
  358MOL0     C48209  10.118   0.443   6.331  0.1574  0.3794 -0.2826
  358MOL0     C48210  10.049   0.324   6.252 -0.1968  0.5556  0.2266
  358MOL0     C48211   9.921   0.263   6.321  0.7992  0.6186  0.0833
  358MOL0     N48212   9.872   0.148   6.241  0.4238  0.0540  0.0151
  358MOL0     C48213   9.746   0.138   6.188  0.9519  0.7852 -0.3428
  358MOL0     C48214   9.745   0.026   6.125  0.4270 -0.0434  0.6803
  358MOL0     C48215   9.627  -0.020   6.041  0.3449  0.4587 -0.2530
  358MOL0     C48216   9.567  -0.152   6.084  1.0369 -0.5995  0.9814
  358MOL0     C48217   9.427  -0.173   6.016 -0.1719  0.0205 -0.4345
  358MOL0     C48218   9.379  -0.319   6.044  0.3702 -0.3646  0.6549
  358MOL0     O48219   9.270  -0.341   5.957 -0.4124 -0.1166 -0.1314
  358MOL0     C48220   9.135  -0.319   5.980  0.4157  0.6774  0.2872
  358MOL0     C48221   9.060  -0.319   5.861 -0.9059  0.6668  0.1284
  358MOL0     C48222   8.918  -0.294   5.866  0.1392  0.0839  0.1064
  358MOL0     C48223   8.847  -0.298   5.730 -0.0209  0.5867  1.1684
  358MOL0     C48224   8.857  -0.287   5.992  0.8745  0.4152  0.3774
  358MOL0     C48225   8.709  -0.272   6.013  1.1537  0.2826 -0.0843
  358MOL0     O48226   8.635  -0.196   5.917 -0.2090  0.3072 -0.4434
  358MOL0     C48227   8.505  -0.172   5.945  0.2652 -0.2894  0.5236
  358MOL0     C48228   8.462  -0.052   5.899  0.3560 -0.8140 -0.2738
  358MOL0     C48229   8.325  -0.018   5.929 -0.9981  0.5655 -0.0865
  358MOL0     C48230   8.220  -0.111   5.948 -0.9086  0.9198 -0.1777
  358MOL0     O48231   8.092  -0.085   5.929 -0.3431 -0.4053 -0.0752
  358MOL0     C48232   8.060   0.018   5.829 -1.0035  0.6710 -0.1168
  358MOL0     C48233   7.923  -0.003   5.771  0.9313  0.3033  0.2843
  358MOL0     C48234   7.787   0.015   5.864 -0.0514  0.0545  0.1120
  358MOL0     C48235   7.668   0.052   5.776  0.3954  0.6808 -0.1690
  358MOL0     C48236   7.530   0.086   5.846  0.4374 -0.1869 -0.0407
  358MOL0     C48237   7.468  -0.046   5.883 -0.4478  1.2204  0.5452
  358MOL0     C48238   7.352  -0.027   5.969  0.0638 -0.1141  0.2555
  358MOL0     C48239   7.238   0.048   5.892 -0.1775 -0.3054  0.3761
  358MOL0    Cl48240   7.094   0.052   6.002 -0.0218 -0.0613  0.4554
  358MOL0     C48241   8.269  -0.237   5.981  0.0792  0.0445  0.7681
  358MOL0     C48242   8.408  -0.268   5.985 -0.0611  0.2113 -0.3162
  358MOL0     O48243   8.666  -0.305   6.126  0.6101  0.2652 -0.2701
  358MOL0     C48244   8.930  -0.295   6.108 -0.0989  0.4408 -0.3610
  358MOL0     C48245   9.068  -0.306   6.101  0.7865 -0.1753  0.2833
  358MOL0     N48246   9.867  -0.034   6.134 -1.5518 -0.0936 -0.5311
  358MOL0     N48247   9.942   0.036   6.211  0.9074  0.0554  0.3308
  358MOL0     C48248  10.877   0.741   6.513  0.1483 -0.3922 -0.9104
  358MOL0     C48249  11.006   0.758   6.463 -0.5062  0.1939 -0.9975
  358MOL0     C48250  11.426   0.867   6.395  0.6565  0.8854  0.0600
  358MOL0     C48251  11.448   0.842   6.257 -0.1918  0.1498  0.2384
  358MOL0     C48252  11.577   0.836   6.207  0.6824 -0.1336 -0.1102
  358MOL0     C48253  11.687   0.849   6.295  0.1478 -1.0580 -0.8752
  358MOL0     O48254  11.824   0.858   6.258  0.3138  0.3112  0.6423
  358MOL0     C48255  11.864   0.842   6.121  0.2050  0.4938 -0.2667
  358MOL0     C48256  11.996   0.917   6.102 -0.2888 -0.0040  1.1624
  358MOL0     C48257  12.106   0.896   6.210 -0.7131  0.4515  1.0206
  358MOL0     C48258  12.200   0.778   6.180  0.3471 -0.1180  0.3728
  358MOL0     C48259  12.323   0.803   6.093  0.3506 -0.2265  0.3236
  358MOL0     C48260  12.422   0.825   6.019  0.6307  0.2782  0.1312
  358MOL0     C48261  11.666   0.865   6.432  0.2677  0.4540  0.1740
  358MOL0     C48262  11.534   0.874   6.482 -1.0735 -0.4395 -0.6565
  358MOL0     H48263  10.982   1.068   6.332  5.5664  0.8750  3.9808
  358MOL0     H48264  10.744   1.021   6.362 -1.1541 -1.0417 -0.7073
  358MOL0     H48265  10.654   0.704   6.339  1.9454 -0.3081  2.0192
  358MOL0     H48266  10.557   0.653   6.477  4.6426  0.1412  2.4150
  358MOL0     H48267  10.384   0.830   6.448 -0.0500 -1.3631 -0.0825
  358MOL0     H48268  10.483   0.905   6.325 -0.3571  0.0718  1.1206
  358MOL0     H48269  10.317   0.767   6.213 -2.6798 -2.8913  0.9014
  358MOL0     H48270  10.458   0.668   6.211 -0.3681  1.8343 -0.8125
  358MOL0     H48271  10.347   0.580   6.439  0.8258 -0.6915 -1.0402
  358MOL0     H48272  10.213   0.686   6.395  0.6421  2.0520 -0.8537
  358MOL0     H48273  10.196   0.563   6.165  0.5296  0.7632 -0.2048
  358MOL0     H48274  10.306   0.453   6.216  1.1201  0.0111  1.8788
  358MOL0     H48275  10.155   0.404   6.426 -3.3501 -0.3425  0.9297
  358MOL0     H48276  10.039   0.515   6.352 -0.6132 -0.4252 -0.3404
  358MOL0     H48277  10.019   0.368   6.157 -0.1765 -0.3419 -0.2040
  358MOL0     H48278  10.124   0.245   6.238 -0.3708  0.2139  1.1576
  358MOL0     H48279   9.840   0.336   6.331  0.9270  0.6860  0.6780
  358MOL0     H48280   9.963   0.234   6.418  0.9660  0.9860  0.1218
  358MOL0     H48281   9.666   0.212   6.187  0.4249  0.4310  3.2199
  358MOL0     H48282   9.550   0.055   6.061 -0.6292 -0.9619  1.6604
  358MOL0     H48283   9.656  -0.019   5.936 -0.4404  1.7458 -0.4783
  358MOL0     H48284   9.552  -0.153   6.192 -0.4478 -1.2604  0.7827
  358MOL0     H48285   9.634  -0.237   6.066  0.2734 -0.9991 -0.0445
  358MOL0     H48286   9.437  -0.159   5.908 -0.5440  2.7889 -0.1865
  358MOL0     H48287   9.345  -0.105   6.041 -1.2735 -0.4690 -2.4282
  358MOL0     H48288   9.343  -0.337   6.146 -0.5800 -0.2079  0.3597
  358MOL0     H48289   9.453  -0.395   6.016 -2.4816 -2.7072 -1.1983
  358MOL0     H48290   9.112  -0.332   5.767  0.1050  0.0681  0.7545
  358MOL0     H48291   8.867  -0.202   5.682 -0.3816  0.7336  1.3098
  358MOL0     H48292   8.887  -0.376   5.665 -2.3675  0.5853 -0.3773
  358MOL0     H48293   8.739  -0.314   5.733 -0.5781  2.0233 -3.3460
  358MOL0     H48294   8.526   0.020   5.850 -1.5956 -0.7524 -2.9981
  358MOL0     H48295   8.300   0.087   5.916  1.8640  1.5351  1.3500
  358MOL0     H48296   8.088   0.115   5.870 -0.1648  0.0735  0.7712
  358MOL0     H48297   8.125   0.008   5.741  0.2168  2.1290  0.5761
  358MOL0     H48298   7.926   0.061   5.682  2.8395 -1.5806 -1.1099
  358MOL0     H48299   7.924  -0.108   5.740 -0.1280  0.1591  0.6741
  358MOL0     H48300   7.795   0.096   5.936  2.8453  0.5792 -0.6470
  358MOL0     H48301   7.772  -0.078   5.920 -0.1462  1.2202  2.1109
  358MOL0     H48302   7.710   0.137   5.722  1.8335 -0.0828 -0.2969
  358MOL0     H48303   7.653  -0.028   5.703 -0.2687 -1.5624  2.2797
  358MOL0     H48304   7.464   0.116   5.764  1.4580  1.2145 -0.3817
  358MOL0     H48305   7.527   0.156   5.930  0.4420 -0.8853  0.5553
  358MOL0     H48306   7.436  -0.098   5.792  0.9835 -0.7419  1.1086
  358MOL0     H48307   7.534  -0.109   5.943 -2.4972  0.6734  2.3696
  358MOL0     H48308   7.387   0.025   6.058  3.4885 -0.1815 -0.9068
  358MOL0     H48309   7.317  -0.125   6.004  5.2435 -1.0576  3.9098
  358MOL0     H48310   7.212   0.006   5.794 -1.1530 -0.9560  0.8963
  358MOL0     H48311   7.275   0.150   5.873 -0.5812 -0.8588 -5.2794
  358MOL0     H48312   8.188  -0.309   5.993 -1.1314  0.6875 -2.4050
  358MOL0     H48313   8.438  -0.367   6.017 -1.2495  0.2317  0.9258
  358MOL0     H48314   8.886  -0.298   6.208 -0.0242 -1.5784 -0.3338
  358MOL0     H48315   9.125  -0.321   6.192  0.7710  1.2930  0.5533
  358MOL0     H48316  10.849   0.649   6.563 -1.6203  0.5479 -0.0915
  358MOL0     H48317  11.080   0.689   6.502  0.1922  0.7562 -1.3048
  358MOL0     H48318  11.364   0.839   6.187 -0.7750  0.9225  0.8883
  358MOL0     H48319  11.594   0.836   6.099 -2.8024 -1.3552 -0.7774
  358MOL0     H48320  11.879   0.737   6.093  0.9065  0.5829 -0.2435
  358MOL0     H48321  11.795   0.892   6.053  0.4005  0.6725 -0.3338
  358MOL0     H48322  11.977   1.024   6.094  0.6150  0.0746 -0.2708
  358MOL0     H48323  12.039   0.885   6.007 -0.0184  2.5477  0.3525
  358MOL0     H48324  12.074   0.894   6.315 -0.8284 -1.3377  0.9669
  358MOL0     H48325  12.159   0.992   6.217  0.0353 -0.0702  3.7048
  358MOL0     H48326  12.144   0.699   6.129  0.6764 -0.4193  0.4698
  358MOL0     H48327  12.241   0.740   6.274 -2.0403 -0.1429  1.4519
  358MOL0     H48328  12.503   0.842   5.952 -1.9176 -0.8019 -3.5371
  358MOL0     H48329  11.746   0.872   6.506 -1.2349 -1.2257  2.0617
  358MOL0     H48330  11.517   0.885   6.589 -1.7009  2.1836 -0.9590
  359MOL0     O48331   3.004   6.071   0.357  0.4217  0.2936  0.2155
  359MOL0     C48332   3.029   6.152   0.270  0.9823 -0.0769 -0.8404
  359MOL0     O48333   2.952   6.254   0.246  0.0431 -0.0457  0.0025
  359MOL0     C48334   2.821   6.241   0.298 -0.8275 -0.2496 -0.0800
  359MOL0     C48335   2.795   6.302   0.421  0.3855  1.4936  0.0526
  359MOL0     C48336   2.668   6.306   0.468 -0.0993  0.1767 -0.7030
  359MOL0     C48337   2.559   6.257   0.403  0.0064 -0.1237  0.6888
  359MOL0     O48338   2.434   6.279   0.463  0.3631  0.6651 -0.1628
  359MOL0     C48339   2.322   6.201   0.420  0.0664  0.4014 -0.0669
  359MOL0     C48340   2.222   6.188   0.541 -0.6690  1.1345  0.8239
  359MOL0     C48341   2.147   6.311   0.572  0.4200 -0.4168 -0.9767
  359MOL0     C48342   2.053   6.282   0.695 -1.0333  0.5795  0.1382
  359MOL0     C48343   2.014   6.417   0.764  0.0336 -0.0532 -0.0126
  359MOL0     C48344   1.933   6.406   0.899 -0.0679 -0.6770  0.7854
  359MOL0     C48345   1.797   6.336   0.884  0.0659 -0.7897  0.3921
  359MOL0     C48346   1.702   6.437   0.823  0.2342 -0.2561  0.3420
  359MOL0     N48347   1.566   6.369   0.814 -0.1375  0.3399 -0.3517
  359MOL0     C48348   1.454   6.431   0.876 -0.0114  0.6287 -0.4930
  359MOL0     C48349   1.347   6.356   0.835 -0.2863 -0.5615 -0.3229
  359MOL0     C48350   1.204   6.371   0.873 -1.0997  0.3919 -0.6495
  359MOL0     C48351   1.101   6.317   0.775 -0.3892 -0.9073 -0.4163
  359MOL0     C48352   0.962   6.305   0.829 -0.7473 -0.7882  0.2052
  359MOL0     C48353   0.862   6.268   0.726 -0.5792  0.5623 -0.7202
  359MOL0     O48354   0.736   6.274   0.787 -0.2644 -0.3958 -0.3891
  359MOL0     C48355   0.621   6.218   0.729  0.0705  0.1418 -0.2630
  359MOL0     C48356   0.614   6.207   0.592 -0.4772  0.4772  0.0859
  359MOL0     C48357   0.500   6.165   0.524  0.0777  0.7159 -0.1937
  359MOL0     C48358   0.499   6.169   0.376 -0.4906 -1.1693  0.0725
  359MOL0     C48359   0.389   6.118   0.601 -0.1337  0.0041 -0.2945
  359MOL0     C48360   0.256   6.063   0.536 -0.2808  0.2182 -0.5735
  359MOL0     O48361   0.143   6.083   0.615  0.4483 -0.2739 -0.0590
  359MOL0     C48362   0.030   6.081   0.539  0.6611  0.1877  0.0191
  359MOL0     C48363  -0.025   6.201   0.486 -1.1816  0.0255 -0.2557
  359MOL0     C48364  -0.147   6.197   0.414 -0.6705 -0.6235  0.1203
  359MOL0     C48365  -0.208   6.075   0.389 -0.4063  0.5133  0.4496
  359MOL0     O48366  -0.319   6.092   0.314 -0.4194  0.5727 -0.4001
  359MOL0     C48367  -0.410   5.983   0.310 -0.2305  0.2012 -0.3248
  359MOL0     C48368  -0.522   6.008   0.203  0.1860  0.7543 -0.9759
  359MOL0     C48369  -0.621   5.893   0.181  0.3264  0.6841 -0.1486
  359MOL0     C48370  -0.722   5.935   0.073  1.2775 -0.3611 -0.2736
  359MOL0     C48371  -0.830   5.830   0.017 -0.0783 -0.1975 -0.1915
  359MOL0     C48372  -0.889   5.887  -0.110 -0.5384 -0.0736  0.2181
  359MOL0     C48373  -1.015   5.805  -0.155 -0.0620  0.1260  0.1165
  359MOL0     C48374  -1.085   5.860  -0.278  0.3119  0.4680 -0.1727
  359MOL0    Cl48375  -1.131   6.030  -0.238  0.4800 -0.3045  0.2112
  359MOL0     C48376  -0.154   5.952   0.436 -0.3813  0.6282 -0.6680
  359MOL0     C48377  -0.032   5.961   0.510 -0.7712 -0.3983 -0.2959
  359MOL0     O48378   0.264   6.003   0.426 -0.6020  0.5070 -0.1304
  359MOL0     C48379   0.398   6.139   0.746  0.4493  0.3630 -0.1609
  359MOL0     C48380   0.510   6.186   0.806  0.5836  0.0779  0.2276
  359MOL0     N48381   1.403   6.249   0.754  0.4968 -0.1469  0.5172
  359MOL0     N48382   1.526   6.269   0.735 -0.0444 -0.0100 -0.3924
  359MOL0     C48383   2.580   6.205   0.272  0.4769 -0.3934 -0.4917
  359MOL0     C48384   2.713   6.193   0.219  0.1040  0.0633  0.2282
  359MOL0     C48385   3.165   6.139   0.210 -0.2264  0.7992  0.2024
  359MOL0     C48386   3.221   6.237   0.136  0.4805  0.1428 -0.3874
  359MOL0     C48387   3.338   6.220   0.066  0.2657 -0.2152  0.1641
  359MOL0     C48388   3.403   6.098   0.066  0.0595  0.3436  0.5942
  359MOL0     O48389   3.523   6.078  -0.000  0.4005  0.3900  0.0636
  359MOL0     C48390   3.555   6.165  -0.110  0.2148 -0.5429 -0.0104
  359MOL0     C48391   3.676   6.121  -0.178 -0.8371  0.5047  0.4542
  359MOL0     C48392   3.798   6.110  -0.092  0.0114 -0.8615  0.4572
  359MOL0     C48393   3.923   6.078  -0.183  0.5464 -0.5272 -0.1353
  359MOL0     C48394   4.031   6.025  -0.103  0.9115 -0.2909  0.4988
  359MOL0     C48395   4.111   5.970  -0.029  0.0216 -0.1103  0.5659
  359MOL0     C48396   3.350   5.995   0.135 -1.1356  0.0093 -0.5828
  359MOL0     C48397   3.228   6.013   0.209 -1.2695  0.9077 -0.0412
  359MOL0     H48398   2.881   6.357   0.457  0.8041  1.6069 -1.0664
  359MOL0     H48399   2.650   6.361   0.560 -2.7003 -0.7928 -0.5521
  359MOL0     H48400   2.272   6.244   0.333 -0.7267  1.3322  0.8179
  359MOL0     H48401   2.361   6.102   0.394  2.6061  0.4681  2.9597
  359MOL0     H48402   2.147   6.114   0.511 -1.6991  2.0549  1.0940
  359MOL0     H48403   2.283   6.146   0.622 -0.3470 -3.4973 -1.4356
  359MOL0     H48404   2.228   6.384   0.588  0.3931 -0.7888  1.0472
  359MOL0     H48405   2.091   6.346   0.484  0.7787  0.9051 -0.7099
  359MOL0     H48406   1.967   6.216   0.677 -0.7973 -0.5121  2.6649
  359MOL0     H48407   2.101   6.231   0.779 -3.1706  0.1012  1.1488
  359MOL0     H48408   2.112   6.458   0.793 -0.7916  1.6353  0.5258
  359MOL0     H48409   1.960   6.489   0.701 -0.0568 -0.3744 -0.3029
  359MOL0     H48410   1.989   6.342   0.969 -1.8467 -1.1794  1.8235
  359MOL0     H48411   1.920   6.506   0.941 -0.6969  0.0788 -1.1475
  359MOL0     H48412   1.804   6.250   0.817  0.8272 -1.1395  0.9005
  359MOL0     H48413   1.760   6.312   0.984  0.8666  0.4284  1.0022
  359MOL0     H48414   1.740   6.452   0.722  3.0809 -2.2147  1.0105
  359MOL0     H48415   1.704   6.532   0.878  0.9448  0.4363 -0.8477
  359MOL0     H48416   1.449   6.511   0.950 -0.1071  1.9188 -1.8450
  359MOL0     H48417   1.186   6.324   0.969 -0.4062  0.5522 -0.4377
  359MOL0     H48418   1.184   6.479   0.879  1.0402  0.9376 -1.8446
  359MOL0     H48419   1.128   6.222   0.727  2.4099 -0.0680 -0.6624
  359MOL0     H48420   1.095   6.386   0.691 -2.8310 -0.8611 -0.2869
  359MOL0     H48421   0.939   6.400   0.879 -0.3353 -0.2539 -0.5780
  359MOL0     H48422   0.952   6.227   0.905  0.8260 -1.3189 -0.1051
  359MOL0     H48423   0.898   6.172   0.689  1.2992  0.2213  1.7645
  359MOL0     H48424   0.859   6.338   0.641  1.0519 -0.3209 -1.5644
  359MOL0     H48425   0.703   6.229   0.534 -0.4559 -1.7541 -0.8408
  359MOL0     H48426   0.565   6.248   0.336 -0.3713 -1.3465 -0.0849
  359MOL0     H48427   0.538   6.073   0.341  3.0977  0.6135 -1.4153
  359MOL0     H48428   0.406   6.197   0.325 -0.4034  2.0966  1.4583
  359MOL0     H48429   0.024   6.296   0.505  2.9409 -2.0275  0.5513
  359MOL0     H48430  -0.194   6.285   0.372  1.0324 -0.1297 -0.8543
  359MOL0     H48431  -0.358   5.890   0.285  0.9750 -0.8577  4.9141
  359MOL0     H48432  -0.452   5.969   0.410  0.6009 -0.1040 -0.0025
  359MOL0     H48433  -0.568   6.105   0.222 -0.5526  0.2667 -0.2303
  359MOL0     H48434  -0.466   6.003   0.109  1.3767 -5.2820 -0.3847
  359MOL0     H48435  -0.676   5.877   0.274 -0.0797 -0.2884 -0.5383
  359MOL0     H48436  -0.566   5.802   0.155 -1.0118 -1.2632  3.2747
  359MOL0     H48437  -0.783   6.017   0.113 -0.5369 -2.2968  1.1797
  359MOL0     H48438  -0.666   5.962  -0.018 -1.2233 -0.9159 -2.1023
  359MOL0     H48439  -0.905   5.812   0.094 -1.0596  0.9735 -0.8269
  359MOL0     H48440  -0.778   5.736  -0.003  2.2737  0.9203  0.3392
  359MOL0     H48441  -0.925   5.986  -0.081 -0.0053  0.3010 -0.3719
  359MOL0     H48442  -0.820   5.887  -0.195  0.4981 -1.0090  1.0412
  359MOL0     H48443  -1.080   5.805  -0.067  0.1074  0.5556  0.2475
  359MOL0     H48444  -0.980   5.704  -0.177 -2.3498 -0.3678 -1.6161
  359MOL0     H48445  -1.178   5.804  -0.293  0.2924 -0.9982  3.9964
  359MOL0     H48446  -1.017   5.856  -0.363 -1.7837  1.5492 -2.0136
  359MOL0     H48447  -0.200   5.857   0.412 -1.4825  0.9951 -0.0617
  359MOL0     H48448   0.022   5.873   0.544 -3.2142 -2.0753 -0.4633
  359MOL0     H48449   0.310   6.112   0.803 -0.3175 -1.6032 -2.1282
  359MOL0     H48450   0.509   6.192   0.914  0.3283 -1.3596  0.3256
  359MOL0     H48451   2.494   6.172   0.214 -0.5223 -1.8735  1.7052
  359MOL0     H48452   2.718   6.161   0.116 -1.5669 -0.3805  0.2552
  359MOL0     H48453   3.164   6.329   0.127 -1.5522 -1.2023 -2.2743
  359MOL0     H48454   3.368   6.313   0.019 -2.2673  0.8341  0.4743
  359MOL0     H48455   3.477   6.176  -0.185  0.2632  0.2557  0.0516
  359MOL0     H48456   3.573   6.268  -0.078  2.1107 -0.8356  0.0066
  359MOL0     H48457   3.697   6.180  -0.267 -1.5714 -1.4145 -1.0668
  359MOL0     H48458   3.662   6.020  -0.219  0.3583  1.0525 -1.3926
  359MOL0     H48459   3.796   6.040  -0.008  2.1658  0.8698  2.0728
  359MOL0     H48460   3.805   6.211  -0.050 -0.5286 -0.8428  0.5077
  359MOL0     H48461   3.945   6.172  -0.234  0.0142  1.2472  2.6653
  359MOL0     H48462   3.891   6.011  -0.263 -3.2866  0.9297 -0.0287
  359MOL0     H48463   4.172   5.922   0.045 -3.0800 -1.3401  2.5038
  359MOL0     H48464   3.412   5.906   0.127  2.3186  1.8613  2.6290
  359MOL0     H48465   3.185   5.931   0.264  0.2984  0.2369  0.2366
  360MOL0     O48466   5.574   7.960   9.602  1.0250 -0.8268  0.3031
  360MOL0     C48467   5.638   8.028   9.682  0.1213 -0.5526 -0.3735
  360MOL0     O48468   5.594   8.075   9.799  0.0803 -0.5767  0.0423
  360MOL0     C48469   5.463   8.071   9.834  0.5193 -0.4936  0.1329
  360MOL0     C48470   5.450   8.129   9.959 -0.3263  1.1996 -0.4176
  360MOL0     C48471   5.327   8.135  10.029 -0.5064 -0.5904 -0.2396
  360MOL0     C48472   5.217   8.077   9.967  0.0858  0.2874  0.3120
  360MOL0     O48473   5.093   8.099  10.029  1.0543 -0.4401 -0.4912
  360MOL0     C48474   5.002   8.174   9.947  0.8114 -1.1522  0.5578
  360MOL0     C48475   4.877   8.216  10.033  0.6071 -0.6829 -0.7139
  360MOL0     C48476   4.786   8.094  10.057 -0.6365  0.2009 -0.1011
  360MOL0     C48477   4.662   8.110  10.135  0.8083  0.1852  0.1351
  360MOL0     C48478   4.560   7.994  10.110 -0.3202 -0.6206  0.7866
  360MOL0     C48479   4.431   8.039  10.184 -0.0390  0.0088  0.0634
  360MOL0     C48480   4.301   7.980  10.121  0.1043  1.2394  0.0490
  360MOL0     C48481   4.173   8.000  10.200 -0.4723  0.1712  0.4438
  360MOL0     N48482   4.057   7.972  10.108  0.5108 -0.4125  0.4212
  360MOL0     C48483   4.032   7.857  10.035 -0.9891 -0.4885 -0.1808
  360MOL0     C48484   3.916   7.867   9.973  1.0719  0.3567  0.3759
  360MOL0     C48485   3.841   7.757   9.897 -0.1405  0.1124  0.3768
  360MOL0     C48486   3.705   7.810   9.839  0.0257  0.9498 -0.5240
  360MOL0     C48487   3.656   7.708   9.722 -0.5642 -0.0129  0.1991
  360MOL0     C48488   3.667   7.764   9.575 -0.1609  0.2628  0.0652
  360MOL0     O48489   3.572   7.864   9.562  0.4738  0.5473  0.0042
  360MOL0     C48490   3.439   7.831   9.570  0.2563 -0.4767 -0.2449
  360MOL0     C48491   3.384   7.720   9.503 -0.4775 -0.3630 -0.0327
  360MOL0     C48492   3.244   7.690   9.516 -0.5080  0.7243 -0.6420
  360MOL0     C48493   3.201   7.566   9.436  0.0782 -0.5309 -0.2996
  360MOL0     C48494   3.156   7.774   9.589  0.3434 -0.6880 -1.1576
  360MOL0     C48495   3.015   7.748   9.613 -0.2067 -0.1905  0.2798
  360MOL0     O48496   2.952   7.644   9.559 -0.1126  0.3941  0.7479
  360MOL0     C48497   2.830   7.600   9.599  0.2277 -0.2438 -1.1176
  360MOL0     C48498   2.786   7.581   9.734  0.1901 -0.9787  0.1565
  360MOL0     C48499   2.656   7.531   9.764 -0.3819 -0.4632 -0.7534
  360MOL0     C48500   2.578   7.475   9.662  0.2942 -0.8415 -0.0767
  360MOL0     O48501   2.454   7.427   9.687  0.5137  0.6753 -0.0487
  360MOL0     C48502   2.368   7.384   9.583  0.2010 -0.3331  0.3061
  360MOL0     C48503   2.254   7.318   9.656  0.0491 -0.3670 -0.1823
  360MOL0     C48504   2.133   7.301   9.561  0.1992 -0.2403 -0.0009
  360MOL0     C48505   2.002   7.277   9.642  0.0945  0.8549 -0.4106
  360MOL0     C48506   1.898   7.190   9.563 -0.3741  0.3218 -0.1285
  360MOL0     C48507   1.763   7.224   9.629  0.1636  0.0292 -0.0317
  360MOL0     C48508   1.696   7.359   9.596 -0.2492  0.8738 -0.3820
  360MOL0     C48509   1.544   7.342   9.626  0.2708  0.9806 -0.1013
  360MOL0    Cl48510   1.465   7.205   9.542  0.1055  0.0663 -0.2768
  360MOL0     C48511   2.624   7.494   9.528  0.2645 -0.0177 -0.7101
  360MOL0     C48512   2.745   7.547   9.499 -0.1131  0.4496 -0.3518
  360MOL0     O48513   2.956   7.831   9.683 -0.6207 -0.2786  0.3320
  360MOL0     C48514   3.218   7.897   9.634 -0.4497  0.4037  0.0859
  360MOL0     C48515   3.354   7.917   9.623 -0.3356 -0.9978 -0.2626
  360MOL0     N48516   3.865   7.996   9.998 -0.2176 -0.4474  0.0927
  360MOL0     N48517   3.951   8.057  10.082 -0.6524  0.5185  0.8186
  360MOL0     C48518   5.229   8.020   9.843 -0.4920  0.4977  0.2923
  360MOL0     C48519   5.349   8.010   9.773 -0.3543 -0.0754 -0.3239
  360MOL0     C48520   5.778   8.070   9.646  1.2422  0.2711 -0.2410
  360MOL0     C48521   5.864   8.126   9.749  0.5869  0.4058  1.0503
  360MOL0     C48522   5.994   8.146   9.729  0.6634 -0.9054  0.0774
  360MOL0     C48523   6.061   8.111   9.610 -0.5945 -1.1253 -0.1431
  360MOL0     O48524   6.194   8.129   9.611  0.5948  0.3699 -0.2742
  360MOL0     C48525   6.259   8.140   9.485 -0.1415 -0.7279 -0.4767
  360MOL0     C48526   6.234   8.279   9.425 -0.4293 -0.0073  0.7248
  360MOL0     C48527   6.243   8.398   9.526 -0.1281  0.5074 -0.7386
  360MOL0     C48528   6.377   8.400   9.604  0.1093 -0.3419  0.6370
  360MOL0     C48529   6.487   8.440   9.519  0.2852  0.2352  0.2475
  360MOL0     C48530   6.577   8.473   9.447 -0.7732 -0.0448 -0.2796
  360MOL0     C48531   5.981   8.061   9.505 -0.1214 -0.6895  0.8644
  360MOL0     C48532   5.844   8.039   9.523  0.3953 -0.3256 -0.2472
  360MOL0     H48533   5.538   8.184   9.990  2.0706 -1.0092 -2.7501
  360MOL0     H48534   5.308   8.191  10.120  0.4157 -1.4194  0.4806
  360MOL0     H48535   5.060   8.264   9.922  0.5211 -0.8462  0.9929
  360MOL0     H48536   4.976   8.120   9.855  2.1960  1.1415 -1.3180
  360MOL0     H48537   4.904   8.265  10.127 -1.3531 -2.6822  1.0128
  360MOL0     H48538   4.819   8.290   9.977  0.2024 -1.8042 -1.8052
  360MOL0     H48539   4.769   8.056   9.956  1.6857  0.7434 -0.7448
  360MOL0     H48540   4.852   8.025  10.111  1.8023  0.8660 -2.0718
  360MOL0     H48541   4.687   8.122  10.240 -1.3428  1.9913  0.5018
  360MOL0     H48542   4.628   8.210  10.107  0.5866  0.0430 -0.1118
  360MOL0     H48543   4.547   7.994  10.001 -0.2826 -0.0033  0.7792
  360MOL0     H48544   4.598   7.896  10.140  1.1838  0.0371  1.1732
  360MOL0     H48545   4.443   8.013  10.290 -2.1743  3.2970  1.2614
  360MOL0     H48546   4.423   8.148  10.182  1.2910  0.1274  0.5167
  360MOL0     H48547   4.281   8.028  10.025  0.3293 -0.7964 -1.0620
  360MOL0     H48548   4.315   7.874  10.096 -0.1749  0.7720  1.7230
  360MOL0     H48549   4.170   8.104  10.233 -1.7245  0.2279  0.2122
  360MOL0     H48550   4.161   7.937  10.288 -1.7140 -0.0035  0.1726
  360MOL0     H48551   4.101   7.774  10.031  0.5683  0.7824 -1.2495
  360MOL0     H48552   3.904   7.717   9.817 -1.6568 -0.1739 -0.7061
  360MOL0     H48553   3.830   7.682   9.976 -0.7644 -0.0688  0.1228
  360MOL0     H48554   3.720   7.906   9.788 -0.6375  0.6574 -1.3006
  360MOL0     H48555   3.630   7.818   9.918 -0.7122  1.8159 -1.2857
  360MOL0     H48556   3.552   7.681   9.742 -1.3039  1.4983 -1.3228
  360MOL0     H48557   3.717   7.617   9.725 -1.6605 -0.7789 -0.3260
  360MOL0     H48558   3.661   7.679   9.507  2.6171 -0.7837  0.9641
  360MOL0     H48559   3.760   7.810   9.542  1.0790 -0.4436  2.3018
  360MOL0     H48560   3.447   7.659   9.439  2.0959  2.0680 -0.0134
  360MOL0     H48561   3.121   7.587   9.364 -0.4893 -1.4460  0.0437
  360MOL0     H48562   3.288   7.550   9.371 -0.7662 -3.3086 -0.9021
  360MOL0     H48563   3.180   7.476   9.494 -1.1192  0.3586  0.6796
  360MOL0     H48564   2.844   7.606   9.822 -0.0866  0.9219 -0.1553
  360MOL0     H48565   2.616   7.530   9.865 -0.7311  1.4390 -0.8252
  360MOL0     H48566   2.344   7.468   9.517  1.5519  0.0236  0.2453
  360MOL0     H48567   2.412   7.306   9.520 -2.1344 -1.1537 -0.4305
  360MOL0     H48568   2.283   7.222   9.699 -1.0185 -0.3916  0.5178
  360MOL0     H48569   2.224   7.388   9.735 -0.3997  0.3679 -0.9872
  360MOL0     H48570   2.150   7.228   9.481 -1.5180 -0.5280 -0.1449
  360MOL0     H48571   2.111   7.395   9.511  2.7980 -0.4713 -1.7836
  360MOL0     H48572   2.030   7.215   9.727  1.2726 -2.5783 -3.0620
  360MOL0     H48573   1.966   7.373   9.681  3.0178  1.7045  0.4509
  360MOL0     H48574   1.906   7.082   9.578 -3.7962 -0.2355 -1.3156
  360MOL0     H48575   1.890   7.211   9.456 -0.8861  0.5242 -0.0548
  360MOL0     H48576   1.693   7.142   9.610 -0.4342  0.6593 -0.5577
  360MOL0     H48577   1.783   7.219   9.737  3.1273 -2.1086 -0.5587
  360MOL0     H48578   1.707   7.379   9.489  0.4283 -1.1053 -0.7259
  360MOL0     H48579   1.724   7.447   9.654  0.5889  2.5779 -3.1762
  360MOL0     H48580   1.507   7.435   9.581 -4.2085 -1.5291 -2.2906
  360MOL0     H48581   1.525   7.336   9.733  3.4059  1.6058  0.6123
  360MOL0     H48582   2.569   7.456   9.443  0.7099  0.5919 -1.2821
  360MOL0     H48583   2.772   7.554   9.395  0.6732 -0.3250 -0.2124
  360MOL0     H48584   3.162   7.972   9.690  0.3254 -0.3029  1.8476
  360MOL0     H48585   3.397   7.998   9.682 -0.0055 -0.8562 -0.6974
  360MOL0     H48586   5.134   7.981   9.808 -1.7422  0.8453  3.0107
  360MOL0     H48587   5.345   7.957   9.678 -2.4335  0.1000 -0.3719
  360MOL0     H48588   5.814   8.150   9.842  0.6199  0.0103  1.1731
  360MOL0     H48589   6.053   8.186   9.811  3.0367  0.8735 -2.3051
  360MOL0     H48590   6.365   8.117   9.505 -0.5257 -2.6472 -0.4603
  360MOL0     H48591   6.226   8.063   9.415 -0.9870 -0.2568 -0.6057
  360MOL0     H48592   6.140   8.270   9.370 -0.4970  2.7829  0.2235
  360MOL0     H48593   6.317   8.284   9.353 -0.9181 -4.1415 -0.3660
  360MOL0     H48594   6.155   8.396   9.592  0.7943 -2.0706  0.5183
  360MOL0     H48595   6.238   8.495   9.476 -0.8380  0.4364 -0.8188
  360MOL0     H48596   6.392   8.306   9.658 -3.5922 -1.5265 -0.1198
  360MOL0     H48597   6.367   8.470   9.687  3.3892  1.2369 -0.1261
  360MOL0     H48598   6.660   8.493   9.382 -0.0756  1.5176  1.0324
  360MOL0     H48599   6.029   8.027   9.414 -0.4277 -0.6491  0.6860
  360MOL0     H48600   5.791   7.979   9.451  0.5312  1.0090 -1.5145
  361MOL0     O48601   7.461   1.607   2.869  0.1892 -0.7343 -0.0724
  361MOL0     C48602   7.515   1.719   2.873 -0.8393 -0.5351  0.9483
  361MOL0     O48603   7.455   1.834   2.921 -0.2640  0.1059  0.1985
  361MOL0     C48604   7.317   1.835   2.922 -0.0835  0.2592 -0.1561
  361MOL0     C48605   7.247   1.853   2.799 -0.2011  0.3984  0.1339
  361MOL0     C48606   7.105   1.850   2.801 -0.4339  0.0150  0.3738
  361MOL0     C48607   7.037   1.828   2.913 -0.1658  0.8479 -1.1015
  361MOL0     O48608   6.898   1.811   2.898  0.2937 -1.2195 -0.4197
  361MOL0     C48609   6.816   1.861   3.008 -0.2012  0.5734 -0.4873
  361MOL0     C48610   6.667   1.820   2.967 -0.3349  0.2564 -0.2404
  361MOL0     C48611   6.580   1.809   3.086 -0.2474  0.1084 -0.1691
  361MOL0     C48612   6.436   1.796   3.045 -0.7931 -0.1806  0.4740
  361MOL0     C48613   6.336   1.828   3.157 -0.3477  0.6411 -0.2477
  361MOL0     C48614   6.197   1.861   3.090  0.3137 -0.2157  0.3001
  361MOL0     C48615   6.105   1.919   3.200  0.0500  0.5164  0.1801
  361MOL0     C48616   5.961   1.876   3.168 -0.6558 -0.7667 -1.0674
  361MOL0     N48617   5.862   1.938   3.264  0.0831  0.4578 -0.5808
  361MOL0     C48618   5.785   2.057   3.250  0.4213  0.5520 -0.0257
  361MOL0     C48619   5.709   2.080   3.360 -0.2484 -0.4789 -0.0568
  361MOL0     C48620   5.622   2.192   3.378  0.3018  0.5980 -0.2886
  361MOL0     C48621   5.473   2.143   3.393 -0.4599  0.4941  0.2582
  361MOL0     C48622   5.374   2.262   3.432 -0.0479 -0.2804  0.9375
  361MOL0     C48623   5.227   2.222   3.432 -0.1608  1.1417  0.0727
  361MOL0     O48624   5.194   2.165   3.549  1.1406  0.0659 -0.2921
  361MOL0     C48625   5.064   2.121   3.566  0.2828 -1.0251  0.1940
  361MOL0     C48626   5.009   2.134   3.695  0.2435 -0.1166  0.2130
  361MOL0     C48627   4.879   2.082   3.721 -0.5445 -0.2647 -0.1878
  361MOL0     C48628   4.823   2.113   3.858  0.4223  0.4392  0.4309
  361MOL0     C48629   4.802   2.008   3.624 -0.2579  0.9558  0.1804
  361MOL0     C48630   4.669   1.950   3.633  0.0268 -1.0990 -0.6021
  361MOL0     O48631   4.626   1.869   3.543 -0.3193 -0.3069  0.0268
  361MOL0     C48632   4.498   1.814   3.549  1.0026  0.0803  0.9081
  361MOL0     C48633   4.430   1.792   3.424 -0.0443 -1.0223 -0.2770
  361MOL0     C48634   4.295   1.743   3.428 -0.2163 -0.2240 -0.2077
  361MOL0     C48635   4.230   1.707   3.545  0.2007  1.3184  0.7476
  361MOL0     O48636   4.103   1.654   3.548  0.7021  0.0103 -0.5644
  361MOL0     C48637   4.104   1.516   3.509 -0.0877  0.2432  0.3997
  361MOL0     C48638   3.968   1.443   3.550 -0.2466  0.2260 -0.3632
  361MOL0     C48639   3.856   1.504   3.461 -0.2261  0.7945 -0.3146
  361MOL0     C48640   3.719   1.496   3.537  0.4299 -0.1416 -0.4534
  361MOL0     C48641   3.595   1.517   3.443  0.8169 -0.4921  0.5629
  361MOL0     C48642   3.471   1.561   3.515 -0.2691  0.0512 -0.4598
  361MOL0     C48643   3.356   1.558   3.412  0.1250 -0.3354 -0.4729
  361MOL0     C48644   3.228   1.552   3.490  0.0552 -0.8147  0.5773
  361MOL0    Cl48645   3.097   1.579   3.371 -0.3519  0.2139  0.2577
  361MOL0     C48646   4.301   1.713   3.663 -0.4999  0.4187 -0.5200
  361MOL0     C48647   4.431   1.767   3.665  0.0042 -0.4325  0.0472
  361MOL0     O48648   4.594   2.007   3.716 -0.4612 -0.4174 -0.2453
  361MOL0     C48649   4.861   1.999   3.497 -1.0556 -0.3255  0.9077
  361MOL0     C48650   4.988   2.047   3.472  0.2884  0.4619  0.7993
  361MOL0     N48651   5.742   1.963   3.437  0.0086  0.2778  0.6214
  361MOL0     N48652   5.829   1.886   3.382 -0.0989 -0.0032  0.2196
  361MOL0     C48653   7.108   1.807   3.032  0.0380 -0.0368  0.1782
  361MOL0     C48654   7.243   1.818   3.041  0.1058 -0.0593  0.1188
  361MOL0     C48655   7.667   1.723   2.852 -0.4162 -0.3820  0.2828
  361MOL0     C48656   7.738   1.603   2.839 -0.2553 -0.2692 -0.0513
  361MOL0     C48657   7.876   1.609   2.805  0.0633 -0.1855 -0.5338
  361MOL0     C48658   7.947   1.730   2.795  0.7708  0.2125 -0.6816
  361MOL0     O48659   8.084   1.712   2.783 -0.3162 -0.2086  0.1197
  361MOL0     C48660   8.156   1.818   2.727  0.8619  0.8834 -0.5957
  361MOL0     C48661   8.298   1.767   2.708  0.0395  0.4743 -1.1019
  361MOL0     C48662   8.381   1.743   2.836  0.1313  0.0344 -0.0121
  361MOL0     C48663   8.534   1.752   2.809 -0.2123  0.4380  0.1170
  361MOL0     C48664   8.584   1.642   2.721 -0.7115 -0.1331 -0.2968
  361MOL0     C48665   8.622   1.540   2.667  0.9526 -1.1190 -0.5687
  361MOL0     C48666   7.877   1.844   2.807  0.3298 -0.5029 -0.5061
  361MOL0     C48667   7.737   1.844   2.834 -0.0463  0.7131 -0.1980
  361MOL0     H48668   7.296   1.872   2.703 -2.2189  0.5729 -0.9135
  361MOL0     H48669   7.045   1.863   2.712 -0.7758 -1.9884  0.2561
  361MOL0     H48670   6.845   1.805   3.098  0.6812  3.8971  1.5068
  361MOL0     H48671   6.828   1.964   3.043 -0.1729  0.2392  0.5141
  361MOL0     H48672   6.623   1.896   2.902 -1.6958 -1.6078 -1.6209
  361MOL0     H48673   6.670   1.720   2.922  2.4905 -0.1985  0.7866
  361MOL0     H48674   6.625   1.733   3.152 -0.5881  0.0192 -0.0335
  361MOL0     H48675   6.578   1.908   3.132 -4.5144  0.5581 -0.9075
  361MOL0     H48676   6.415   1.860   2.959 -3.9231 -2.5333 -0.7065
  361MOL0     H48677   6.412   1.700   2.999  0.4727  0.8693 -2.6950
  361MOL0     H48678   6.343   1.743   3.225  2.8998  2.0951  1.4687
  361MOL0     H48679   6.370   1.914   3.216  1.4621 -1.0864  1.4009
  361MOL0     H48680   6.209   1.928   3.004  1.0801  1.7635  1.8739
  361MOL0     H48681   6.153   1.768   3.052  0.8960 -0.3182 -0.1378
  361MOL0     H48682   6.137   1.882   3.297  1.1832 -0.7269 -0.6332
  361MOL0     H48683   6.117   2.027   3.187  2.1980  0.3095  0.1007
  361MOL0     H48684   5.958   1.767   3.180  1.6580 -0.7729  0.0274
  361MOL0     H48685   5.938   1.900   3.064  2.3499  1.9015 -1.2620
  361MOL0     H48686   5.775   2.129   3.170 -0.9731  0.7092  0.2643
  361MOL0     H48687   5.638   2.237   3.477 -2.7523 -2.0052  1.6054
  361MOL0     H48688   5.632   2.263   3.296  1.7318  1.5773  0.6951
  361MOL0     H48689   5.471   2.077   3.480  2.1337  2.1753  1.7353
  361MOL0     H48690   5.450   2.095   3.297  2.7791  0.0913 -0.4484
  361MOL0     H48691   5.385   2.347   3.363 -2.3178 -1.8325 -1.5346
  361MOL0     H48692   5.399   2.292   3.534  1.3773 -0.4431  0.6612
  361MOL0     H48693   5.211   2.151   3.350  2.1253  2.7121 -1.9033
  361MOL0     H48694   5.165   2.312   3.429  1.3569  2.2220  0.1265
  361MOL0     H48695   5.078   2.173   3.768  0.7345  0.6635 -0.6380
  361MOL0     H48696   4.727   2.165   3.844 -1.3760 -2.5565  0.5700
  361MOL0     H48697   4.797   2.020   3.909 -0.2758  0.2788 -0.1810
  361MOL0     H48698   4.892   2.176   3.913  0.8854 -0.8789  1.4072
  361MOL0     H48699   4.475   1.826   3.331 -0.9839  1.8431  0.2075
  361MOL0     H48700   4.241   1.741   3.333  1.2589  0.9981 -1.1262
  361MOL0     H48701   4.118   1.507   3.401 -3.0104  0.0983 -0.0496
  361MOL0     H48702   4.189   1.467   3.558 -1.1563 -0.7103  1.3379
  361MOL0     H48703   3.975   1.335   3.535  0.4598  0.6687 -4.0653
  361MOL0     H48704   3.949   1.468   3.655 -0.3123  2.1656 -0.8025
  361MOL0     H48705   3.853   1.441   3.371 -2.3583 -0.9824  0.9066
  361MOL0     H48706   3.881   1.606   3.429  1.6535 -0.4725 -3.3141
  361MOL0     H48707   3.716   1.402   3.593  0.3519  0.0050 -0.2064
  361MOL0     H48708   3.729   1.575   3.613  1.5983 -1.0227  0.3404
  361MOL0     H48709   3.569   1.419   3.403 -0.2134  0.1679 -0.4747
  361MOL0     H48710   3.613   1.584   3.358  0.5541 -3.0373 -1.6249
  361MOL0     H48711   3.446   1.491   3.595 -0.9410 -0.1037 -0.7956
  361MOL0     H48712   3.486   1.662   3.554  0.3549  0.1614 -0.9752
  361MOL0     H48713   3.343   1.474   3.344  0.5757  1.0912 -2.4006
  361MOL0     H48714   3.361   1.646   3.348 -1.0230 -0.0202 -0.1619
  361MOL0     H48715   3.232   1.624   3.572  0.4113  0.5444 -0.5772
  361MOL0     H48716   3.222   1.452   3.534  3.8357  0.6302  5.2386
  361MOL0     H48717   4.262   1.664   3.752 -1.0608 -0.2976 -1.1502
  361MOL0     H48718   4.483   1.765   3.761  2.0244 -4.2499 -0.9177
  361MOL0     H48719   4.810   1.949   3.416 -1.0373  0.3276  0.4788
  361MOL0     H48720   5.027   2.025   3.373 -0.7920  0.9571  0.2381
  361MOL0     H48721   7.060   1.783   3.126  0.5825 -2.1199 -0.0361
  361MOL0     H48722   7.305   1.803   3.129  0.0234 -1.6132 -0.0709
  361MOL0     H48723   7.698   1.502   2.846 -1.1244  0.0498 -0.1984
  361MOL0     H48724   7.937   1.519   2.801  0.0045 -0.5894  3.5945
  361MOL0     H48725   8.116   1.832   2.627  2.4348 -1.3415 -1.6355
  361MOL0     H48726   8.143   1.909   2.786  0.4661  0.0592  0.6494
  361MOL0     H48727   8.348   1.853   2.662  2.3421  0.6028  1.3513
  361MOL0     H48728   8.312   1.686   2.636  0.2725  2.0947 -2.9933
  361MOL0     H48729   8.365   1.640   2.869 -1.5755  0.6837  1.3339
  361MOL0     H48730   8.363   1.819   2.913  2.5062  0.4105  0.2745
  361MOL0     H48731   8.588   1.750   2.904 -0.8909  0.6161  0.5065
  361MOL0     H48732   8.556   1.845   2.756  1.2516 -0.9579 -1.9073
  361MOL0     H48733   8.661   1.454   2.616  1.0765 -1.5102  0.1838
  361MOL0     H48734   7.924   1.938   2.777 -3.9988  1.7399 -1.0186
  361MOL0     H48735   7.686   1.939   2.838 -0.9186  0.2302  0.7277
  362MOL0     O48736   5.758   2.227   5.394  0.5630  0.0086 -0.3314
  362MOL0     C48737   5.725   2.262   5.281 -0.6295 -0.6131 -0.3449
  362MOL0     O48738   5.606   2.317   5.259  0.4556  0.2301  0.4421
  362MOL0     C48739   5.524   2.347   5.355  0.6082  0.7638  0.2818
  362MOL0     C48740   5.400   2.284   5.376 -0.2373  0.4900 -0.2584
  362MOL0     C48741   5.307   2.325   5.470  0.5413  0.3664 -0.3105
  362MOL0     C48742   5.341   2.423   5.559  0.8137 -0.5679 -0.1926
  362MOL0     O48743   5.248   2.439   5.661  0.8596  0.5154 -0.1011
  362MOL0     C48744   5.250   2.559   5.728 -0.3065 -0.3740  0.5850
  362MOL0     C48745   5.127   2.574   5.817  0.1063 -0.0852 -0.2972
  362MOL0     C48746   5.011   2.583   5.716  1.2857  0.0227  0.2883
  362MOL0     C48747   4.878   2.570   5.786  0.2349 -0.2655  0.4334
  362MOL0     C48748   4.864   2.680   5.890  0.2827 -1.2092 -0.2966
  362MOL0     C48749   4.716   2.681   5.931 -0.0521 -0.2872 -0.0449
  362MOL0     C48750   4.676   2.556   6.003 -0.1748 -0.1661 -0.6901
  362MOL0     C48751   4.540   2.583   6.078 -0.6243  0.3466 -0.0240
  362MOL0     N48752   4.430   2.590   5.989  0.6998 -0.0618 -0.8738
  362MOL0     C48753   4.360   2.484   5.932  0.4915 -0.2765 -0.0749
  362MOL0     C48754   4.271   2.547   5.852 -0.2038 -0.0758 -0.5376
  362MOL0     C48755   4.183   2.453   5.769 -0.6750  0.7450 -0.1743
  362MOL0     C48756   4.038   2.488   5.776  0.0911 -0.1707  0.1093
  362MOL0     C48757   3.963   2.435   5.650 -0.4826 -0.3753  0.3423
  362MOL0     C48758   3.815   2.466   5.656  0.6483  0.3279 -0.5375
  362MOL0     O48759   3.757   2.453   5.527 -0.3738  0.7829  0.1289
  362MOL0     C48760   3.625   2.488   5.509 -0.0515 -0.1646  0.4095
  362MOL0     C48761   3.569   2.456   5.383 -0.4512 -0.4045 -0.5325
  362MOL0     C48762   3.428   2.486   5.359 -0.4637  0.0427 -0.0769
  362MOL0     C48763   3.358   2.431   5.227 -0.5428  1.0705  0.0737
  362MOL0     C48764   3.352   2.549   5.454 -0.0743  0.0270 -0.9333
  362MOL0     C48765   3.208   2.587   5.447 -1.1926 -0.1406 -0.6681
  362MOL0     O48766   3.162   2.677   5.543  0.1511 -0.1052 -0.9701
  362MOL0     C48767   3.035   2.721   5.545  0.0845  0.3005  0.1703
  362MOL0     C48768   2.936   2.628   5.583  0.5122 -0.0956 -0.6952
  362MOL0     C48769   2.800   2.674   5.597  0.3691  0.3362  0.9488
  362MOL0     C48770   2.763   2.807   5.572 -0.1489  0.0489 -0.3681
  362MOL0     O48771   2.638   2.857   5.591  1.1356  0.2469 -0.5097
  362MOL0     C48772   2.524   2.789   5.542 -0.9846  0.0284  0.1316
  362MOL0     C48773   2.433   2.742   5.654 -0.0927 -0.5053  0.3743
  362MOL0     C48774   2.305   2.697   5.595  0.4504  0.5734  0.2846
  362MOL0     C48775   2.190   2.697   5.687 -0.1745 -0.4797 -0.3947
  362MOL0     C48776   2.070   2.649   5.615 -0.2668 -0.4611 -1.1583
  362MOL0     C48777   1.944   2.647   5.702  0.3326  0.5169 -0.4884
  362MOL0     C48778   1.817   2.595   5.632 -0.0414 -0.2075  0.2017
  362MOL0     C48779   1.689   2.658   5.689  0.3854  0.3155  0.6883
  362MOL0    Cl48780   1.663   2.826   5.658 -0.0321 -0.3965 -0.0299
  362MOL0     C48781   2.864   2.894   5.527  0.5254  0.4542  0.2787
  362MOL0     C48782   3.000   2.851   5.524 -0.1235 -0.1840 -0.3531
  362MOL0     O48783   3.142   2.548   5.357  0.4390 -0.7003  0.7097
  362MOL0     C48784   3.419   2.570   5.575  0.6385 -0.5449  0.0749
  362MOL0     C48785   3.550   2.544   5.608  0.2741  0.2054  0.3696
  362MOL0     N48786   4.291   2.683   5.858  0.0796 -0.6042 -0.3196
  362MOL0     N48787   4.383   2.705   5.949  0.4158  0.0408 -0.0024
  362MOL0     C48788   5.458   2.498   5.536  0.3491  0.2079 -0.1669
  362MOL0     C48789   5.547   2.461   5.434  0.6976  0.1089  0.3385
  362MOL0     C48790   5.820   2.238   5.167  1.4912 -0.5638  0.8500
  362MOL0     C48791   5.804   2.306   5.042  0.7097  0.6079  0.6724
  362MOL0     C48792   5.900   2.289   4.940 -0.2429  0.7323 -0.7242
  362MOL0     C48793   6.012   2.206   4.956 -0.1255 -0.0421  0.0012
  362MOL0     O48794   6.120   2.196   4.873  0.2855  0.0195  0.0754
  362MOL0     C48795   6.152   2.316   4.795 -0.5286 -0.1300  0.6326
  362MOL0     C48796   6.307   2.335   4.785 -0.5094  0.7305 -0.7857
  362MOL0     C48797   6.377   2.207   4.732  0.9619 -0.7370 -0.2577
  362MOL0     C48798   6.372   2.193   4.589  0.7542 -0.0152  0.3403
  362MOL0     C48799   6.446   2.305   4.522  0.6133  0.4544  0.6004
  362MOL0     C48800   6.495   2.407   4.478  0.0742 -0.1434 -0.1359
  362MOL0     C48801   6.025   2.129   5.075  0.1980  0.0978  0.2843
  362MOL0     C48802   5.937   2.155   5.185  0.7005 -0.3741  0.3398
  362MOL0     H48803   5.378   2.193   5.321 -0.6175  1.0787 -1.1062
  362MOL0     H48804   5.218   2.268   5.495  2.1309 -0.4498  4.5638
  362MOL0     H48805   5.340   2.561   5.789  0.3574 -0.1701 -0.3733
  362MOL0     H48806   5.243   2.642   5.657 -1.6378 -0.6873  0.3127
  362MOL0     H48807   5.117   2.479   5.871  2.7766 -2.1386 -3.0299
  362MOL0     H48808   5.151   2.663   5.876 -0.4668 -0.7451  0.9777
  362MOL0     H48809   5.003   2.676   5.658 -0.9677 -0.7251 -0.7235
  362MOL0     H48810   5.011   2.491   5.657 -0.5934 -0.9359  1.7068
  362MOL0     H48811   4.800   2.568   5.710 -0.3276 -0.3912  1.0034
  362MOL0     H48812   4.887   2.477   5.842  0.2277  1.0925  2.8665
  362MOL0     H48813   4.926   2.665   5.979 -1.8349  0.8321  1.6644
  362MOL0     H48814   4.882   2.779   5.847 -0.3619 -0.9179  0.0879
  362MOL0     H48815   4.691   2.763   6.000 -3.2566  0.0108 -1.3635
  362MOL0     H48816   4.657   2.686   5.839  1.0503  3.1725 -0.7353
  362MOL0     H48817   4.655   2.475   5.932  0.1237  0.9627 -2.1111
  362MOL0     H48818   4.754   2.533   6.076 -0.0353  0.3618 -0.6749
  362MOL0     H48819   4.529   2.671   6.141  0.1114  0.4128  0.0145
  362MOL0     H48820   4.533   2.505   6.154 -0.6291 -0.4371 -0.8063
  362MOL0     H48821   4.375   2.377   5.945 -1.9198 -0.3834  2.9060
  362MOL0     H48822   4.206   2.474   5.664 -1.5037  2.4180 -0.0547
  362MOL0     H48823   4.203   2.349   5.795  1.1440  2.0221  4.3506
  362MOL0     H48824   4.036   2.597   5.780  1.1712 -0.1736  1.6479
  362MOL0     H48825   3.992   2.445   5.865 -2.7810  0.9322 -0.7340
  362MOL0     H48826   3.988   2.328   5.648 -0.6443 -0.4096 -0.3249
  362MOL0     H48827   4.003   2.466   5.553  0.2702 -0.9087  0.4727
  362MOL0     H48828   3.798   2.570   5.686  0.4392  1.0641 -3.0141
  362MOL0     H48829   3.776   2.391   5.725 -0.2443  1.5491  0.3347
  362MOL0     H48830   3.629   2.413   5.304 -0.9795 -2.0804 -0.0638
  362MOL0     H48831   3.431   2.370   5.173 -1.3465  1.4813 -1.5411
  362MOL0     H48832   3.264   2.377   5.243 -1.0926  2.3901  1.5382
  362MOL0     H48833   3.337   2.520   5.168  1.1640  2.4939  1.5106
  362MOL0     H48834   2.951   2.521   5.595  0.4587 -0.2165 -1.6117
  362MOL0     H48835   2.725   2.604   5.633 -1.1198 -0.1247 -2.5945
  362MOL0     H48836   2.479   2.867   5.480  2.8680  0.4549 -2.5029
  362MOL0     H48837   2.549   2.705   5.476 -0.8731  0.1778 -0.0193
  362MOL0     H48838   2.480   2.660   5.709 -0.4674 -1.9916 -1.4050
  362MOL0     H48839   2.409   2.826   5.719  0.8956  0.8721 -0.9593
  362MOL0     H48840   2.311   2.590   5.572 -1.7492  0.5305 -0.3202
  362MOL0     H48841   2.273   2.755   5.508  0.1949  1.2717  0.8253
  362MOL0     H48842   2.207   2.645   5.782  2.4286  3.4458  1.5871
  362MOL0     H48843   2.172   2.803   5.711 -0.4224 -0.2345 -1.5959
  362MOL0     H48844   2.076   2.544   5.585  0.0672 -1.1857  1.2367
  362MOL0     H48845   2.046   2.708   5.526 -0.2062  3.7697  1.3476
  362MOL0     H48846   1.975   2.576   5.779  0.1152  0.7666 -0.1652
  362MOL0     H48847   1.923   2.745   5.746 -1.4737 -1.1809  2.8145
  362MOL0     H48848   1.811   2.487   5.648 -0.5314  0.0917  2.2405
  362MOL0     H48849   1.815   2.602   5.522 -1.3085 -3.8636 -0.1523
  362MOL0     H48850   1.695   2.639   5.797  0.4808  0.6910  0.7516
  362MOL0     H48851   1.600   2.607   5.651  1.5876 -1.4208  0.0722
  362MOL0     H48852   2.846   2.999   5.505  0.5836  0.2421 -0.8252
  362MOL0     H48853   3.072   2.931   5.510  2.2385 -1.9176  1.1545
  362MOL0     H48854   3.358   2.618   5.651 -0.5974  0.4979 -1.5035
  362MOL0     H48855   3.587   2.573   5.705  3.8523  0.3351 -0.8723
  362MOL0     H48856   5.473   2.580   5.604  1.7942 -1.6084  1.8304
  362MOL0     H48857   5.638   2.517   5.416  1.3138 -1.2447 -0.9470
  362MOL0     H48858   5.722   2.377   5.030  1.9020  1.9397  0.1353
  362MOL0     H48859   5.887   2.353   4.854  1.6024  0.8409 -0.9572
  362MOL0     H48860   6.104   2.311   4.697  1.8834 -0.8518 -0.5807
  362MOL0     H48861   6.115   2.408   4.842 -0.3715  0.4884 -0.4242
  362MOL0     H48862   6.339   2.348   4.888  0.4845 -1.4359 -0.7705
  362MOL0     H48863   6.328   2.428   4.732  1.1142  1.8683  1.6817
  362MOL0     H48864   6.326   2.120   4.775 -0.9809  0.6148  0.2959
  362MOL0     H48865   6.479   2.201   4.773  1.6906 -1.4157 -2.0562
  362MOL0     H48866   6.268   2.200   4.557  1.0590  2.4539 -0.2691
  362MOL0     H48867   6.417   2.096   4.563 -0.2903  0.0441 -1.9135
  362MOL0     H48868   6.543   2.494   4.439 -0.0953 -0.9963 -2.3603
  362MOL0     H48869   6.108   2.062   5.093  0.0863 -0.4953 -1.2393
  362MOL0     H48870   5.945   2.095   5.275  0.5391 -1.3050 -0.2555
  363MOL0     O48871   0.368  11.143   3.041  0.1184 -0.1682  0.0686
  363MOL0     C48872   0.322  11.037   2.998  0.0601 -0.1082 -0.4140
  363MOL0     O48873   0.224  11.032   2.901  0.0535 -0.4493 -0.1959
  363MOL0     C48874   0.195  11.148   2.828  0.0311  0.2946  0.7560
  363MOL0     C48875   0.292  11.225   2.774  0.5901  0.4379  0.4971
  363MOL0     C48876   0.257  11.348   2.704  0.3783  0.1604  0.6954
  363MOL0     C48877   0.122  11.399   2.701 -0.9830  0.1804  0.4714
  363MOL0     O48878   0.107  11.514   2.629 -0.2502  0.1821  0.6450
  363MOL0     C48879  -0.019  11.584   2.623  0.7198  0.1719 -0.4163
  363MOL0     C48880  -0.087  11.543   2.497 -0.3089 -0.1207  0.2037
  363MOL0     C48881  -0.216  11.618   2.463  0.5902 -0.7682 -0.0599
  363MOL0     C48882  -0.338  11.585   2.548  0.2469  0.2448  0.2198
  363MOL0     C48883  -0.469  11.631   2.492  0.6200 -0.0007 -0.1629
  363MOL0     C48884  -0.595  11.566   2.561 -0.7265 -0.7324  0.0021
  363MOL0     C48885  -0.725  11.651   2.533 -1.1041 -0.1113 -0.2505
  363MOL0     C48886  -0.846  11.586   2.599 -1.6021 -1.3426 -0.4932
  363MOL0     N48887  -0.966  11.658   2.566 -0.7231 -0.8743 -0.0089
  363MOL0     C48888  -1.061  11.618   2.483 -0.3391 -0.0946 -0.2868
  363MOL0     C48889  -1.173  11.667   2.541  0.5313 -0.8796  0.5563
  363MOL0     C48890  -1.309  11.637   2.483 -1.1222 -0.1421  0.0797
  363MOL0     C48891  -1.388  11.557   2.591 -0.2227  0.8962 -0.1267
  363MOL0     C48892  -1.529  11.540   2.535 -0.0539 -0.4211  0.5438
  363MOL0     C48893  -1.630  11.501   2.641  0.4632  0.2754 -0.0923
  363MOL0     O48894  -1.764  11.523   2.606  0.2439 -0.2970 -0.1879
  363MOL0     C48895  -1.854  11.506   2.709  0.4906  0.0596  0.0038
  363MOL0     C48896  -1.977  11.561   2.701  0.0998 -0.4794 -0.0696
  363MOL0     C48897  -2.083  11.548   2.789  0.2996  0.7709  0.2457
  363MOL0     C48898  -2.212  11.610   2.754  0.9617 -0.1464  0.8028
  363MOL0     C48899  -2.060  11.469   2.901  0.2751 -0.1735 -0.7121
  363MOL0     C48900  -2.153  11.419   3.001 -0.3261 -0.3734  0.3909
  363MOL0     O48901  -2.117  11.339   3.102 -0.1534  0.0972 -0.2005
  363MOL0     C48902  -2.212  11.248   3.149 -0.0983 -0.4696  0.6185
  363MOL0     C48903  -2.331  11.291   3.215 -0.1419  0.1830 -1.6246
  363MOL0     C48904  -2.420  11.198   3.263 -0.3396  0.0950 -0.5493
  363MOL0     C48905  -2.391  11.061   3.259  0.1299  0.8342  0.5833
  363MOL0     O48906  -2.488  10.970   3.303  0.2544 -0.5953  0.6838
  363MOL0     C48907  -2.474  10.836   3.261 -0.5258 -0.8463  0.0065
  363MOL0     C48908  -2.595  10.753   3.294 -0.0559 -0.4146 -1.0376
  363MOL0     C48909  -2.626  10.758   3.445  0.3929  0.1520 -0.0904
  363MOL0     C48910  -2.751  10.690   3.496 -0.2507 -0.7654 -0.8244
  363MOL0     C48911  -2.874  10.757   3.432  0.1702  0.3638  0.3916
  363MOL0     C48912  -2.992  10.729   3.518 -0.4098 -0.2908  0.2879
  363MOL0     C48913  -3.105  10.801   3.444 -0.0526 -0.4797  0.6076
  363MOL0     C48914  -3.223  10.828   3.530  1.2004 -0.2482 -0.1738
  363MOL0    Cl48915  -3.363  10.895   3.438 -0.6286  0.0781  0.4162
  363MOL0     C48916  -2.267  11.022   3.206  0.5566  0.1768  0.5112
  363MOL0     C48917  -2.179  11.117   3.154  0.4276 -0.8983  0.4828
  363MOL0     O48918  -2.263  11.472   2.984  0.2495 -0.6158  0.4836
  363MOL0     C48919  -1.928  11.406   2.912 -0.3442  0.7032 -0.4312
  363MOL0     C48920  -1.832  11.427   2.820  0.2531  0.1227  0.0680
  363MOL0     N48921  -1.154  11.755   2.641  0.0123 -0.1638 -0.1219
  363MOL0     N48922  -1.027  11.744   2.650  0.1088 -0.0107  0.4997
  363MOL0     C48923   0.027  11.313   2.756 -0.3671  0.0085 -0.6874
  363MOL0     C48924   0.064  11.196   2.816  0.0572 -0.8769 -0.0245
  363MOL0     C48925   0.377  10.916   3.052  0.4070 -0.1888 -0.0484
  363MOL0     C48926   0.519  10.913   3.087 -0.6193 -0.2619 -0.8041
  363MOL0     C48927   0.576  10.804   3.151 -0.2517  0.4998 -0.2559
  363MOL0     C48928   0.504  10.681   3.174  0.5711  0.1064 -0.4931
  363MOL0     O48929   0.555  10.573   3.246 -0.1155 -0.5471  0.5083
  363MOL0     C48930   0.660  10.599   3.336 -0.5369 -1.0004 -0.2599
  363MOL0     C48931   0.665  10.486   3.443 -0.0759  0.0414 -1.0583
  363MOL0     C48932   0.528  10.474   3.511 -0.0261  0.4643 -0.3659
  363MOL0     C48933   0.535  10.353   3.606 -0.9843 -0.2578  0.6628
  363MOL0     C48934   0.621  10.377   3.726  0.0648 -0.2014  0.4450
  363MOL0     C48935   0.689  10.393   3.827  0.4426  0.4263  0.7364
  363MOL0     C48936   0.367  10.687   3.141 -0.0698  0.1006 -1.2559
  363MOL0     C48937   0.301  10.800   3.077 -0.0409  0.5066  0.6331
  363MOL0     H48938   0.387  11.175   2.757  2.0861  2.7642  1.4712
  363MOL0     H48939   0.329  11.398   2.638 -0.4072  0.9640  0.4318
  363MOL0     H48940  -0.087  11.560   2.705  0.4052  1.3127 -0.3213
  363MOL0     H48941   0.003  11.691   2.630  1.5023  0.1363 -1.9591
  363MOL0     H48942  -0.028  11.573   2.410 -1.1208  1.6473  0.2301
  363MOL0     H48943  -0.103  11.435   2.488 -0.6403 -0.0814  0.3074
  363MOL0     H48944  -0.205  11.726   2.474  0.7691 -0.9056  1.1546
  363MOL0     H48945  -0.252  11.591   2.363  0.9013  1.0171 -0.6940
  363MOL0     H48946  -0.346  11.476   2.543 -1.6575  0.2299  2.0502
  363MOL0     H48947  -0.321  11.606   2.655 -1.3494 -2.0188  0.9906
  363MOL0     H48948  -0.465  11.740   2.501  5.6704  0.0450 -0.2635
  363MOL0     H48949  -0.480  11.611   2.385 -1.7814 -0.1041  0.0488
  363MOL0     H48950  -0.611  11.463   2.528  1.7966 -1.9710  2.2560
  363MOL0     H48951  -0.581  11.558   2.669 -0.4190  0.1278  0.0293
  363MOL0     H48952  -0.713  11.747   2.584 -1.0323 -0.3598  0.2038
  363MOL0     H48953  -0.725  11.665   2.424  1.5210  1.3244 -0.1528
  363MOL0     H48954  -0.833  11.571   2.706  1.1108  0.9519 -0.4082
  363MOL0     H48955  -0.859  11.483   2.564 -1.5487 -1.6631  0.4197
  363MOL0     H48956  -1.058  11.555   2.395 -0.0658  0.4068 -0.6492
  363MOL0     H48957  -1.357  11.734   2.469  1.6014  1.0301 -1.7311
  363MOL0     H48958  -1.298  11.581   2.390  3.3439  3.5360 -1.9745
  363MOL0     H48959  -1.397  11.625   2.676  1.5008  2.6808 -1.2737
  363MOL0     H48960  -1.354  11.456   2.615  1.8021  0.8509 -2.7166
  363MOL0     H48961  -1.529  11.469   2.452 -3.2533 -3.3869  2.7939
  363MOL0     H48962  -1.569  11.633   2.495  0.3919 -0.9392 -1.1751
  363MOL0     H48963  -1.606  11.559   2.731  0.2320 -0.5310  0.4942
  363MOL0     H48964  -1.615  11.396   2.666  1.4145 -0.1169 -2.1525
  363MOL0     H48965  -1.983  11.611   2.604 -0.6862 -1.9556 -0.8166
  363MOL0     H48966  -2.272  11.651   2.835  0.8051 -1.2909  1.2829
  363MOL0     H48967  -2.187  11.686   2.679  4.7827 -0.6628  1.3344
  363MOL0     H48968  -2.277  11.533   2.711 -0.4721 -0.2174  2.9627
  363MOL0     H48969  -2.344  11.397   3.232  5.2962  0.6323  2.3997
  363MOL0     H48970  -2.517  11.232   3.299 -0.8085 -0.3761 -1.3356
  363MOL0     H48971  -2.442  10.830   3.156 -1.4007 -0.2649 -0.3013
  363MOL0     H48972  -2.395  10.791   3.322 -0.4958 -0.3687  0.3279
  363MOL0     H48973  -2.674  10.802   3.237  2.2712  0.2829 -3.9225
  363MOL0     H48974  -2.576  10.651   3.260  2.5545 -1.3420  2.5687
  363MOL0     H48975  -2.624  10.863   3.476 -0.9162 -0.3948  2.0722
  363MOL0     H48976  -2.542  10.711   3.497 -0.3906  1.2796  2.3263
  363MOL0     H48977  -2.755  10.584   3.469  0.0543 -1.7050  2.4213
  363MOL0     H48978  -2.749  10.692   3.605  0.5947  0.6922 -0.8450
  363MOL0     H48979  -2.882  10.708   3.334  0.3651 -2.1031  1.5483
  363MOL0     H48980  -2.857  10.862   3.406 -0.7277  0.0091 -1.8509
  363MOL0     H48981  -3.009  10.622   3.532  2.2071 -0.9261 -0.7555
  363MOL0     H48982  -2.979  10.771   3.618  0.2572  0.4561 -0.1051
  363MOL0     H48983  -3.142  10.756   3.351 -3.1961  0.3625  1.3034
  363MOL0     H48984  -3.059  10.899   3.434  2.3513 -1.6999 -1.2356
  363MOL0     H48985  -3.206  10.887   3.621  1.1060 -0.6613  0.1149
  363MOL0     H48986  -3.261  10.727   3.545  0.6423 -0.7634 -3.9352
  363MOL0     H48987  -2.239  10.917   3.215  5.6944  1.2461 -0.0644
  363MOL0     H48988  -2.086  11.081   3.112 -0.6326 -0.8827 -2.0390
  363MOL0     H48989  -1.911  11.340   2.996  1.7256  0.4339 -1.0039
  363MOL0     H48990  -1.737  11.378   2.841 -0.3828 -1.4596 -0.5768
  363MOL0     H48991  -0.078  11.341   2.752  0.4797  3.8666  0.1360
  363MOL0     H48992  -0.010  11.122   2.845 -0.3963 -0.4815 -0.1613
  363MOL0     H48993   0.570  11.008   3.098 -3.6542  1.3958  0.3846
  363MOL0     H48994   0.677  10.805   3.190 -0.1446 -0.2271 -0.4939
  363MOL0     H48995   0.753  10.611   3.279 -1.2882  0.6866 -1.2312
  363MOL0     H48996   0.648  10.696   3.386  2.8606  0.5601 -2.0993
  363MOL0     H48997   0.746  10.508   3.513 -3.0950  2.4009  1.9794
  363MOL0     H48998   0.695  10.394   3.391 -0.0484  0.6912 -2.2511
  363MOL0     H48999   0.454  10.462   3.433  0.7041 -0.3320 -0.9528
  363MOL0     H49000   0.513  10.569   3.564 -0.5666 -0.4717  1.2473
  363MOL0     H49001   0.572  10.271   3.544  2.0343  2.2527 -1.2385
  363MOL0     H49002   0.432  10.338   3.639 -0.3479 -1.1013  2.3784
  363MOL0     H49003   0.761  10.427   3.898 -0.9717 -1.8126  3.4598
  363MOL0     H49004   0.316  10.592   3.151  2.1063 -1.1717 -1.7830
  363MOL0     H49005   0.195  10.785   3.056  0.1426 -2.1225  1.1720
  364MOL0     O49006   7.513   6.477   4.430  1.0600  0.3985 -0.0846
  364MOL0     C49007   7.492   6.497   4.311 -0.0336  0.1760  0.7551
  364MOL0     O49008   7.394   6.579   4.255 -0.6271  0.5253 -0.1002
  364MOL0     C49009   7.278   6.594   4.326  0.1541  0.4245  0.0899
  364MOL0     C49010   7.200   6.480   4.355  0.5173  0.1785 -0.3084
  364MOL0     C49011   7.091   6.488   4.442 -0.0816  0.4933  0.1492
  364MOL0     C49012   7.050   6.613   4.494  0.1255 -0.0310  0.1383
  364MOL0     O49013   6.930   6.637   4.563  0.1154 -0.1470  0.3881
  364MOL0     C49014   6.830   6.537   4.553 -0.6037 -0.7042  0.2226
  364MOL0     C49015   6.729   6.576   4.664 -0.7942  1.0902 -0.0165
  364MOL0     C49016   6.605   6.483   4.674 -0.4585 -0.4521  0.3424
  364MOL0     C49017   6.498   6.524   4.775  0.1852  0.2738  0.3634
  364MOL0     C49018   6.369   6.438   4.759 -0.0992  0.8583  0.4790
  364MOL0     C49019   6.255   6.506   4.828 -0.3581 -0.5055 -0.3125
  364MOL0     C49020   6.136   6.420   4.823  0.3294 -0.2425  0.7813
  364MOL0     C49021   6.006   6.497   4.864 -0.0927  0.2445 -0.7846
  364MOL0     N49022   5.894   6.409   4.882  0.7060 -0.0755 -0.3906
  364MOL0     C49023   5.834   6.343   4.776  0.3581 -0.8970  1.1097
  364MOL0     C49024   5.721   6.293   4.819  0.4174  0.0183 -0.6782
  364MOL0     C49025   5.626   6.225   4.731 -0.4868 -0.1434  0.0047
  364MOL0     C49026   5.489   6.198   4.800  0.6783  0.1993 -0.2862
  364MOL0     C49027   5.410   6.335   4.814 -0.0824 -0.2791  0.1285
  364MOL0     C49028   5.275   6.310   4.876  0.6666  0.2800 -0.4243
  364MOL0     O49029   5.188   6.211   4.808 -0.2150  0.1220  0.0157
  364MOL0     C49030   5.057   6.211   4.836  0.1057 -0.0099  0.1330
  364MOL0     C49031   4.967   6.170   4.730 -0.9157 -0.8217  0.5127
  364MOL0     C49032   4.834   6.188   4.734  0.2035  0.2942 -0.3773
  364MOL0     C49033   4.753   6.132   4.621 -0.1255  0.1617 -0.1319
  364MOL0     C49034   4.776   6.231   4.859  0.1699  0.1323 -0.5416
  364MOL0     C49035   4.630   6.247   4.879  0.3600  0.2254  0.6706
  364MOL0     O49036   4.579   6.221   5.000  0.3230 -0.0280  0.0878
  364MOL0     C49037   4.449   6.235   5.028  0.0146  0.4313  0.3682
  364MOL0     C49038   4.355   6.148   4.979 -0.6272  0.2559  0.6895
  364MOL0     C49039   4.222   6.162   5.021 -1.0815 -0.1223 -0.3555
  364MOL0     C49040   4.181   6.258   5.117 -0.3779  0.5546  0.3435
  364MOL0     O49041   4.051   6.272   5.168  0.5592 -0.1143 -1.0398
  364MOL0     C49042   3.935   6.218   5.102 -0.0994  0.0305  0.6776
  364MOL0     C49043   3.806   6.248   5.167  0.1880  0.0454 -0.2050
  364MOL0     C49044   3.684   6.223   5.074  0.2755 -0.1999  0.2684
  364MOL0     C49045   3.543   6.255   5.131 -0.5009  0.1877 -0.0331
  364MOL0     C49046   3.438   6.212   5.027 -0.3547  0.7568 -0.2482
  364MOL0     C49047   3.303   6.215   5.096  0.2879 -0.3798 -1.1590
  364MOL0     C49048   3.184   6.148   5.019  0.3465 -0.1804  0.0160
  364MOL0     C49049   3.202   6.005   4.984 -0.3232 -0.3760 -0.0233
  364MOL0    Cl49050   3.053   5.925   4.929  0.0119 -0.0682  0.3323
  364MOL0     C49051   4.283   6.349   5.157  0.1158  0.0031 -0.4861
  364MOL0     C49052   4.414   6.334   5.122 -0.4936  0.3979  0.2015
  364MOL0     O49053   4.563   6.261   4.775 -0.2061  1.0018  0.2267
  364MOL0     C49054   4.861   6.259   4.966  0.3991  0.7772 -0.2631
  364MOL0     C49055   4.997   6.250   4.960  0.0638  1.2347  0.0789
  364MOL0     N49056   5.713   6.324   4.957  0.6457 -0.8085 -0.3085
  364MOL0     N49057   5.814   6.397   4.992  0.3794  0.1824  0.4743
  364MOL0     C49058   7.124   6.726   4.448  0.3426 -0.1073 -0.2727
  364MOL0     C49059   7.240   6.712   4.377 -0.0717 -0.3973 -0.6104
  364MOL0     C49060   7.587   6.429   4.222  0.2191 -0.4605  0.4762
  364MOL0     C49061   7.691   6.345   4.273  0.0602 -0.7417  0.3979
  364MOL0     C49062   7.788   6.301   4.186  0.4460  0.0407  0.2144
  364MOL0     C49063   7.794   6.352   4.056 -0.7976 -0.2313  1.0485
  364MOL0     O49064   7.897   6.330   3.967  0.0220 -0.2190  0.2402
  364MOL0     C49065   7.963   6.197   3.957 -0.5061 -0.6095 -0.1971
  364MOL0     C49066   8.102   6.213   3.884 -0.6585  0.5342 -0.3340
  364MOL0     C49067   8.214   6.272   3.963  0.4108  0.4036 -0.2447
  364MOL0     C49068   8.346   6.291   3.888 -0.4735 -0.3023  0.2765
  364MOL0     C49069   8.363   6.394   3.782  0.8313  0.6088  0.0025
  364MOL0     C49070   8.368   6.474   3.688  0.0055 -0.2033  0.8015
  364MOL0     C49071   7.695   6.437   4.005 -0.2600 -0.4463  0.3042
  364MOL0     C49072   7.593   6.479   4.091  0.1422  0.2215 -0.9416
  364MOL0     H49073   7.222   6.384   4.309  1.2129 -0.3652  1.1204
  364MOL0     H49074   7.041   6.397   4.474 -0.3832  1.2527  1.9217
  364MOL0     H49075   6.780   6.532   4.455 -0.9284  2.0833  0.1618
  364MOL0     H49076   6.868   6.437   4.571 -2.5750 -1.7241 -0.9453
  364MOL0     H49077   6.786   6.573   4.758 -0.2404 -1.3119 -0.3544
  364MOL0     H49078   6.697   6.679   4.642  0.4578  1.6098  0.5128
  364MOL0     H49079   6.559   6.476   4.575  1.2817 -0.0228 -0.5459
  364MOL0     H49080   6.644   6.386   4.706  0.0437  0.2444  1.9705
  364MOL0     H49081   6.537   6.519   4.877  1.9981 -0.0545 -0.3101
  364MOL0     H49082   6.480   6.630   4.757  1.2169  0.2118 -1.3072
  364MOL0     H49083   6.353   6.430   4.651  3.1445  2.2118 -0.2430
  364MOL0     H49084   6.402   6.340   4.794  2.6067  1.1111 -1.0658
  364MOL0     H49085   6.287   6.543   4.926 -0.3512 -0.8428 -0.1857
  364MOL0     H49086   6.228   6.588   4.761 -3.8444 -1.1757  0.0865
  364MOL0     H49087   6.127   6.377   4.723 -1.5436 -1.5016  1.4343
  364MOL0     H49088   6.158   6.338   4.891  1.0147 -0.9098 -0.2175
  364MOL0     H49089   5.987   6.564   4.780 -0.1306  0.7604 -0.3664
  364MOL0     H49090   6.009   6.564   4.951 -1.7330  0.7830 -1.1111
  364MOL0     H49091   5.863   6.332   4.672 -1.9209 -0.3549  0.3465
  364MOL0     H49092   5.603   6.284   4.643 -0.8194  0.5051  0.5190
  364MOL0     H49093   5.672   6.128   4.711 -4.3658 -3.5105  4.8743
  364MOL0     H49094   5.496   6.156   4.901  2.0894  0.3287 -0.3144
  364MOL0     H49095   5.434   6.120   4.744  2.2680 -1.5733  0.5100
  364MOL0     H49096   5.393   6.371   4.712  2.4568  1.7926  0.3217
  364MOL0     H49097   5.474   6.401   4.872 -1.4561 -1.0534  2.6813
  364MOL0     H49098   5.220   6.403   4.893 -3.1269 -2.0428  0.9473
  364MOL0     H49099   5.287   6.274   4.978 -2.9990  2.6920  1.0700
  364MOL0     H49100   5.011   6.134   4.638  1.7810  0.8776  0.9882
  364MOL0     H49101   4.807   6.055   4.566  0.3106 -1.7453  2.7665
  364MOL0     H49102   4.677   6.075   4.675 -0.4399  0.5032 -0.2078
  364MOL0     H49103   4.708   6.213   4.563  0.9559  0.8993  0.0380
  364MOL0     H49104   4.381   6.070   4.909  1.0072  0.7759  0.6725
  364MOL0     H49105   4.146   6.092   4.988 -0.7350 -1.6810  1.9467
  364MOL0     H49106   3.928   6.249   4.997 -4.3341 -0.7572  0.5575
  364MOL0     H49107   3.948   6.110   5.111 -0.8701 -0.1760 -0.5026
  364MOL0     H49108   3.790   6.187   5.256 -2.5278  0.8848 -0.0316
  364MOL0     H49109   3.809   6.351   5.204 -1.2775 -0.5483  1.7324
  364MOL0     H49110   3.693   6.116   5.052 -1.7938 -0.3647  0.0351
  364MOL0     H49111   3.692   6.273   4.977  2.4299 -2.3740 -0.7976
  364MOL0     H49112   3.541   6.200   5.226  0.3992  2.9706  1.7016
  364MOL0     H49113   3.523   6.360   5.152 -3.3972 -0.0786 -0.9915
  364MOL0     H49114   3.457   6.109   4.994 -0.9392  0.3050  0.7730
  364MOL0     H49115   3.436   6.274   4.937  1.5412 -1.8454 -2.2414
  364MOL0     H49116   3.303   6.165   5.194 -1.0279 -1.3262 -1.6029
  364MOL0     H49117   3.281   6.321   5.107 -0.3757 -0.4463 -1.7874
  364MOL0     H49118   3.177   6.207   4.928 -0.2692  1.6498  1.1864
  364MOL0     H49119   3.089   6.160   5.071  0.6351 -0.4087  0.6178
  364MOL0     H49120   3.228   5.958   5.079 -1.0951 -0.4655  0.1484
  364MOL0     H49121   3.284   5.981   4.915 -0.0071 -1.4155  0.7036
  364MOL0     H49122   4.248   6.427   5.224 -0.7417  1.8105 -2.8908
  364MOL0     H49123   4.496   6.400   5.150  0.3331 -0.7043  0.4071
  364MOL0     H49124   4.821   6.285   5.064 -1.1230  1.6097 -1.0622
  364MOL0     H49125   5.051   6.247   5.055  2.6474 -1.2664 -1.3230
  364MOL0     H49126   7.087   6.822   4.482  0.6659  0.1324 -0.5906
  364MOL0     H49127   7.309   6.796   4.368  1.2030 -1.5513 -2.4259
  364MOL0     H49128   7.697   6.313   4.377  1.6033 -1.7613  0.0160
  364MOL0     H49129   7.868   6.240   4.227  0.3824 -0.6586 -0.6657
  364MOL0     H49130   7.981   6.159   4.058  1.3914  1.5449  0.3610
  364MOL0     H49131   7.897   6.126   3.907  0.9000 -0.4724 -2.3975
  364MOL0     H49132   8.070   6.287   3.810 -0.6141  0.6930 -0.1929
  364MOL0     H49133   8.134   6.121   3.834 -0.6021  1.2743 -1.7115
  364MOL0     H49134   8.237   6.195   4.037  1.3579  0.0522 -0.8820
  364MOL0     H49135   8.191   6.361   4.023 -2.4450  0.9277 -1.9505
  364MOL0     H49136   8.382   6.197   3.846  1.3013 -0.0045  1.0538
  364MOL0     H49137   8.425   6.321   3.957 -1.3519  2.6681  0.1169
  364MOL0     H49138   8.377   6.547   3.610 -2.9082  2.3345  2.5982
  364MOL0     H49139   7.710   6.485   3.909  1.2431  1.2283  1.3184
  364MOL0     H49140   7.516   6.546   4.054 -0.8106  0.5642  1.4856
  365MOL0     O49141   9.071  10.314   4.311  0.0464 -0.3748 -1.0748
  365MOL0     C49142   9.093  10.416   4.382  0.6052  0.3719 -0.3528
  365MOL0     O49143   9.002  10.487   4.447 -0.2298 -0.4769 -0.5510
  365MOL0     C49144   8.870  10.474   4.426 -0.1652 -0.8210  0.6965
  365MOL0     C49145   8.815  10.350   4.408  0.5094 -0.3735  0.4619
  365MOL0     C49146   8.674  10.351   4.370 -0.7403  0.1758 -0.0178
  365MOL0     C49147   8.600  10.469   4.352  0.4656  0.2188 -1.0464
  365MOL0     O49148   8.466  10.460   4.323  0.5297 -0.4206  1.0937
  365MOL0     C49149   8.382  10.585   4.328  0.1440  0.2976  0.1770
  365MOL0     C49150   8.240  10.537   4.320 -0.2687 -0.0308  0.3060
  365MOL0     C49151   8.132  10.641   4.276 -0.3476  0.1942  0.8258
  365MOL0     C49152   7.994  10.572   4.268  0.4657 -1.3011  0.2173
  365MOL0     C49153   7.900  10.675   4.197 -0.5950  0.1478 -0.2753
  365MOL0     C49154   7.834  10.771   4.293  0.2803 -0.0256 -0.6553
  365MOL0     C49155   7.781  10.895   4.217  0.1804  0.3086  0.2333
  365MOL0     C49156   7.676  10.969   4.291 -0.5849 -0.1272  0.2375
  365MOL0     N49157   7.552  10.890   4.320  0.3626 -0.3881  0.0476
  365MOL0     C49158   7.442  10.949   4.393 -0.0434  0.1555  0.5655
  365MOL0     C49159   7.353  10.847   4.401 -0.0190  0.0184 -0.4322
  365MOL0     C49160   7.216  10.846   4.464 -0.6434 -0.0569 -0.2553
  365MOL0     C49161   7.142  10.711   4.443  0.0613 -0.3641 -0.0395
  365MOL0     C49162   7.016  10.695   4.533 -0.4800  0.2783  0.0895
  365MOL0     C49163   6.948  10.561   4.509 -0.2350 -0.6611 -0.2327
  365MOL0     O49164   6.813  10.572   4.557 -0.3539 -0.0464  0.4842
  365MOL0     C49165   6.718  10.492   4.512 -0.0905  0.8535  0.3047
  365MOL0     C49166   6.747  10.364   4.465  1.4004  0.5461 -0.2589
  365MOL0     C49167   6.652  10.278   4.405 -0.0470  0.0144 -0.5334
  365MOL0     C49168   6.698  10.135   4.381 -0.1869  0.3181 -0.3238
  365MOL0     C49169   6.524  10.330   4.391 -0.1377 -0.0065  0.6262
  365MOL0     C49170   6.407  10.248   4.333  0.3390 -0.2781 -0.5133
  365MOL0     O49171   6.444  10.157   4.243  0.4826 -0.1556 -0.2715
  365MOL0     C49172   6.348  10.103   4.164 -0.2217 -0.0776  0.4133
  365MOL0     C49173   6.324   9.966   4.184  0.5984 -0.1712 -0.1783
  365MOL0     C49174   6.221   9.896   4.119 -1.1516 -0.7564  0.2830
  365MOL0     C49175   6.138   9.968   4.030 -0.8153  0.1415  1.0517
  365MOL0     O49176   6.036   9.897   3.967 -0.3396  0.5017 -0.2240
  365MOL0     C49177   5.907   9.938   4.027 -0.7717  0.4228  0.1808
  365MOL0     C49178   5.797   9.885   3.938  0.0027  0.0574  0.0718
  365MOL0     C49179   5.818   9.739   3.900 -0.3248  0.3414  0.5065
  365MOL0     C49180   5.737   9.704   3.780 -0.0506  0.2105  0.1829
  365MOL0     C49181   5.736   9.553   3.751  0.5632  0.0068  0.2206
  365MOL0     C49182   5.847   9.497   3.661  0.2642 -0.5888  0.4830
  365MOL0     C49183   5.816   9.344   3.641  1.1818 -0.0959 -0.1438
  365MOL0     C49184   5.919   9.259   3.569 -0.1843  0.0489 -0.2437
  365MOL0    Cl49185   5.921   9.309   3.389 -0.1737 -0.2447  0.2285
  365MOL0     C49186   6.158  10.101   4.005 -0.0733  1.1156  0.2319
  365MOL0     C49187   6.269  10.164   4.072  1.2366 -0.9002 -0.4028
  365MOL0     O49188   6.291  10.281   4.365 -0.1455  0.8021 -0.6476
  365MOL0     C49189   6.488  10.450   4.450  0.1613 -1.3760  0.5940
  365MOL0     C49190   6.584  10.534   4.513  0.0712  1.2710  0.2388
  365MOL0     N49191   7.406  10.742   4.335  0.0506  0.3684 -0.2926
  365MOL0     N49192   7.518  10.773   4.281 -0.4025  0.8493  0.1410
  365MOL0     C49193   8.669  10.586   4.376 -0.3746  0.7674  0.5009
  365MOL0     C49194   8.801  10.594   4.412 -0.0644  0.3374  0.4152
  365MOL0     C49195   9.232  10.444   4.398 -0.2220  0.3151 -0.1562
  365MOL0     C49196   9.277  10.562   4.466  0.1879 -0.8396 -0.6160
  365MOL0     C49197   9.413  10.582   4.497  0.5749  0.1677  0.6788
  365MOL0     C49198   9.516  10.498   4.444  0.4871 -0.0878 -0.6110
  365MOL0     O49199   9.652  10.529   4.463  0.2132  0.0123 -0.3105
  365MOL0     C49200   9.695  10.637   4.542 -0.9032 -0.1247  0.5032
  365MOL0     C49201   9.850  10.646   4.548  0.0076 -0.1257 -0.2269
  365MOL0     C49202   9.916  10.512   4.600  0.5094 -0.1983  0.3890
  365MOL0     C49203   9.942  10.509   4.754 -0.4823 -0.5915 -0.6071
  365MOL0     C49204   9.843  10.557   4.847  0.5975 -0.8443  0.2535
  365MOL0     C49205   9.771  10.628   4.916 -0.9312  0.3601  0.2681
  365MOL0     C49206   9.471  10.399   4.359  0.4391  0.5009 -0.3595
  365MOL0     C49207   9.334  10.366   4.344 -0.5115  0.5433  0.1012
  365MOL0     H49208   8.868  10.260   4.436 -1.7351 -2.5418 -1.7685
  365MOL0     H49209   8.616  10.260   4.363  0.1638 -0.5432  1.3036
  365MOL0     H49210   8.405  10.635   4.423  1.8443 -1.1763  0.6036
  365MOL0     H49211   8.401  10.651   4.243 -3.8472  0.2176 -0.9585
  365MOL0     H49212   8.248  10.445   4.263 -2.0171 -1.4010  2.1199
  365MOL0     H49213   8.194  10.512   4.416 -0.2716 -2.1098 -0.1957
  365MOL0     H49214   8.128  10.727   4.343  1.1390  2.3568 -1.6441
  365MOL0     H49215   8.160  10.668   4.174  0.8328 -3.9410 -0.1651
  365MOL0     H49216   8.007  10.484   4.205  3.2210  1.1700 -3.1357
  365MOL0     H49217   7.952  10.546   4.365 -0.7216 -3.9287 -0.9052
  365MOL0     H49218   7.944  10.719   4.108  3.5653 -4.5551 -0.9906
  365MOL0     H49219   7.818  10.621   4.147  0.8268 -1.6282 -0.7890
  365MOL0     H49220   7.748  10.717   4.333  0.1410 -0.4707 -1.5323
  365MOL0     H49221   7.898  10.801   4.376  0.2746  0.8009 -0.9400
  365MOL0     H49222   7.855  10.972   4.194 -0.6143  1.6881  2.0500
  365MOL0     H49223   7.729  10.868   4.125 -0.1123  1.7012 -0.0209
  365MOL0     H49224   7.643  11.054   4.231 -2.6378 -2.0117 -1.4525
  365MOL0     H49225   7.719  11.012   4.382 -0.9888  0.3414  0.2114
  365MOL0     H49226   7.447  11.038   4.455 -1.3109 -0.8469  2.2298
  365MOL0     H49227   7.232  10.847   4.572 -0.3781 -0.8657 -0.2813
  365MOL0     H49228   7.153  10.927   4.426  1.2780  0.9538 -1.4619
  365MOL0     H49229   7.199  10.625   4.482 -1.0500 -1.1708 -0.1526
  365MOL0     H49230   7.104  10.709   4.341 -0.3182  1.7324  0.0230
  365MOL0     H49231   6.939  10.772   4.521 -0.3089  0.8766  2.3624
  365MOL0     H49232   7.043  10.713   4.637 -2.8195  1.4912  0.5741
  365MOL0     H49233   7.004  10.480   4.558 -1.1378 -0.3860  1.3226
  365MOL0     H49234   6.949  10.537   4.402 -3.0264 -0.3216 -0.3887
  365MOL0     H49235   6.847  10.324   4.476  0.3273 -2.9194 -1.5355
  365MOL0     H49236   6.619  10.063   4.406 -2.2017  1.5950 -2.6356
  365MOL0     H49237   6.732  10.109   4.280  2.1006 -0.7177  0.6345
  365MOL0     H49238   6.787  10.115   4.442 -0.5039  1.5096  0.5720
  365MOL0     H49239   6.376   9.921   4.268 -0.4775  0.7311  1.0136
  365MOL0     H49240   6.215   9.790   4.140  4.0961 -1.5938 -1.0228
  365MOL0     H49241   5.899   9.905   4.131  0.7265  0.9602  0.4966
  365MOL0     H49242   5.899  10.047   4.032  2.2255  0.9421 -2.5253
  365MOL0     H49243   5.695   9.902   3.975  0.0665  0.2304  0.1674
  365MOL0     H49244   5.800   9.949   3.850 -1.2327  1.1622  0.7928
  365MOL0     H49245   5.795   9.680   3.989  0.3698  2.7206  2.3892
  365MOL0     H49246   5.920   9.713   3.870 -1.5538 -3.6597 -0.8995
  365MOL0     H49247   5.631   9.732   3.787 -0.1215 -0.1297  0.5326
  365MOL0     H49248   5.766   9.758   3.690 -2.0340  0.4417 -0.3768
  365MOL0     H49249   5.643   9.529   3.698  0.4155 -0.0668  0.5115
  365MOL0     H49250   5.725   9.495   3.843 -0.4145  1.5757  1.1289
  365MOL0     H49251   5.843   9.539   3.560  0.2747 -1.6925  0.0140
  365MOL0     H49252   5.945   9.528   3.699 -0.5575  1.1226  1.3205
  365MOL0     H49253   5.718   9.336   3.593  1.1404  1.4478 -0.3706
  365MOL0     H49254   5.807   9.306   3.744 -0.9628 -2.0003 -0.9374
  365MOL0     H49255   5.896   9.152   3.561  0.1198  0.0834 -2.4234
  365MOL0     H49256   6.014   9.293   3.610  0.4916 -1.0609 -0.8309
  365MOL0     H49257   6.100  10.149   3.927  0.7851  0.1674 -1.0220
  365MOL0     H49258   6.277  10.270   4.050  0.1143 -0.6569  0.2642
  365MOL0     H49259   6.386  10.488   4.451  0.6625  0.1554  3.8632
  365MOL0     H49260   6.562  10.630   4.558 -1.0226  1.4936 -0.7319
  365MOL0     H49261   8.622  10.684   4.384 -0.5241  0.6200  1.4502
  365MOL0     H49262   8.845  10.694   4.409 -1.9720  1.2085 -0.5704
  365MOL0     H49263   9.210  10.641   4.499  0.9705  0.1557 -1.3318
  365MOL0     H49264   9.418  10.661   4.570 -3.9600  0.4097  0.9533
  365MOL0     H49265   9.654  10.733   4.509  1.7556  1.3098  1.0515
  365MOL0     H49266   9.674  10.621   4.648  2.6228 -1.6606  1.1147
  365MOL0     H49267   9.875  10.734   4.606 -0.8048 -1.2691  1.9598
  365MOL0     H49268   9.899  10.670   4.453  1.6930 -0.1612  0.5878
  365MOL0     H49269  10.005  10.492   4.538 -0.5738 -1.6879 -0.7509
  365MOL0     H49270   9.849  10.430   4.576  0.2170 -0.7103  2.7127
  365MOL0     H49271  10.026  10.577   4.772  0.0030 -0.6568 -2.4637
  365MOL0     H49272   9.972  10.406   4.777 -0.9577 -0.6168 -0.0962
  365MOL0     H49273   9.716  10.696   4.979 -0.8072  0.9634 -0.2625
  365MOL0     H49274   9.540  10.326   4.318 -0.4210 -1.2162  1.1113
  365MOL0     H49275   9.318  10.275   4.288 -1.3487  0.9718 -0.3691
  366MOL0     O49276   3.120   3.203   2.145  0.9267 -0.0332 -0.1434
  366MOL0     C49277   3.118   3.261   2.038  0.1204  0.1745 -0.6345
  366MOL0     O49278   3.044   3.371   2.010 -0.8841 -0.1815  0.1788
  366MOL0     C49279   2.916   3.392   2.063  0.3025  0.1824  0.1956
  366MOL0     C49280   2.834   3.291   2.120 -0.6898  0.3214  0.3570
  366MOL0     C49281   2.701   3.322   2.147 -0.4770  0.3350  0.5222
  366MOL0     C49282   2.643   3.446   2.124 -0.1738  0.2857 -0.5836
  366MOL0     O49283   2.509   3.450   2.160 -0.1653 -0.7171 -0.3384
  366MOL0     C49284   2.443   3.573   2.138  0.2745 -0.2274 -1.0289
  366MOL0     C49285   2.290   3.567   2.166 -0.3087 -0.4228 -0.0108
  366MOL0     C49286   2.222   3.518   2.035  0.6475  0.7003 -0.1894
  366MOL0     C49287   2.068   3.504   2.059 -0.1503 -0.0989 -0.4523
  366MOL0     C49288   1.989   3.418   1.958 -0.0363  0.3871 -0.0314
  366MOL0     C49289   1.841   3.411   2.004  0.5191 -0.0734 -0.3344
  366MOL0     C49290   1.753   3.326   1.907  0.1158  0.0488  0.2836
  366MOL0     C49291   1.614   3.298   1.965 -0.7065  1.1714  0.0249
  366MOL0     N49292   1.510   3.393   1.926 -0.6094  0.4289  0.7245
  366MOL0     C49293   1.446   3.389   1.800  0.1941 -0.8714  0.1080
  366MOL0     C49294   1.373   3.497   1.794 -0.3902  0.1239 -0.2769
  366MOL0     C49295   1.297   3.556   1.681 -0.0873  0.2591  0.6941
  366MOL0     C49296   1.179   3.464   1.648  0.5510  0.8261  0.6196
  366MOL0     C49297   1.085   3.516   1.536  0.0643 -0.4525  0.4389
  366MOL0     C49298   0.992   3.414   1.474 -1.2745  0.9803 -0.1203
  366MOL0     O49299   0.884   3.465   1.397  0.5607 -0.0377  1.1259
  366MOL0     C49300   0.898   3.571   1.309 -0.0071  0.0481 -0.0088
  366MOL0     C49301   0.838   3.691   1.341  0.6850  0.2566  0.1529
  366MOL0     C49302   0.861   3.806   1.262  0.1723 -0.2520  0.4509
  366MOL0     C49303   0.787   3.936   1.282 -0.0697  0.6408  0.2194
  366MOL0     C49304   0.954   3.797   1.154 -0.3217 -0.2899 -0.9921
  366MOL0     C49305   1.010   3.903   1.073 -0.0260 -0.3473 -0.1801
  366MOL0     O49306   1.096   3.985   1.143 -0.4209 -1.2809  0.4496
  366MOL0     C49307   1.118   4.109   1.087 -0.3592 -0.2202 -0.5283
  366MOL0     C49308   1.245   4.147   1.036 -0.4083  0.0599  0.6515
  366MOL0     C49309   1.266   4.257   0.963 -0.3338 -1.4774  0.1945
  366MOL0     C49310   1.157   4.341   0.923  0.2167 -0.1871 -0.4933
  366MOL0     O49311   1.163   4.458   0.843 -0.1691 -0.3343  0.7310
  366MOL0     C49312   1.292   4.505   0.794 -0.1105 -0.3432  0.0184
  366MOL0     C49313   1.259   4.631   0.705  0.0656  0.5458  0.2588
  366MOL0     C49314   1.196   4.580   0.570  0.9907 -0.4936  0.1876
  366MOL0     C49315   1.129   4.694   0.488 -0.8908  0.3251  0.2587
  366MOL0     C49316   1.067   4.640   0.352 -0.0272  0.7607 -0.6500
  366MOL0     C49317   1.021   4.749   0.252  0.9458 -0.2515 -0.5952
  366MOL0     C49318   0.926   4.699   0.152  0.2806  0.0636  0.6656
  366MOL0     C49319   0.784   4.751   0.195  0.5146 -0.1038  0.0849
  366MOL0    Cl49320   0.667   4.678   0.087 -0.3223 -0.0065 -0.0674
  366MOL0     C49321   1.035   4.310   0.986 -0.4204 -0.2081 -0.3725
  366MOL0     C49322   1.013   4.202   1.072  0.4101 -0.3559 -0.3086
  366MOL0     O49323   0.966   3.911   0.959 -0.6974  0.1144 -0.5751
  366MOL0     C49324   0.994   3.667   1.112  0.0648 -0.1368 -0.9681
  366MOL0     C49325   0.964   3.555   1.189  0.4354  0.2229 -1.1273
  366MOL0     N49326   1.373   3.562   1.917  0.9856  0.1824  0.1805
  366MOL0     N49327   1.469   3.503   1.984  0.6993  0.4576 -0.3591
  366MOL0     C49328   2.726   3.556   2.074  0.1197  1.0824  0.3968
  366MOL0     C49329   2.863   3.525   2.036 -1.1057  0.5767 -0.1192
  366MOL0     C49330   3.221   3.222   1.948 -0.1147 -0.0865  0.7311
  366MOL0     C49331   3.276   3.094   1.955 -0.2796  0.9512 -0.3316
  366MOL0     C49332   3.390   3.064   1.880  0.0715 -0.0627 -0.1090
  366MOL0     C49333   3.451   3.159   1.792 -0.3586 -0.4430 -0.0816
  366MOL0     O49334   3.569   3.127   1.736 -0.4403  0.0826  0.1240
  366MOL0     C49335   3.650   3.223   1.666 -0.0315  0.4188  0.2418
  366MOL0     C49336   3.762   3.138   1.608  0.4881  0.0595 -0.5566
  366MOL0     C49337   3.866   3.214   1.527 -0.6345  0.8149  0.8071
  366MOL0     C49338   3.938   3.333   1.607  1.0198  0.2558  0.0462
  366MOL0     C49339   4.043   3.401   1.540 -0.1561 -1.1277 -0.4309
  366MOL0     C49340   4.127   3.461   1.479  0.4995 -0.6014  0.3867
  366MOL0     C49341   3.393   3.288   1.786  0.5047 -0.1204 -0.0715
  366MOL0     C49342   3.280   3.317   1.862  0.4749  0.0359  0.4424
  366MOL0     H49343   2.863   3.186   2.127 -0.8736  0.2753  0.4342
  366MOL0     H49344   2.640   3.244   2.192 -0.0185 -0.1347  0.3381
  366MOL0     H49345   2.488   3.638   2.213  0.0780 -0.0705 -1.0462
  366MOL0     H49346   2.463   3.608   2.036 -0.3381 -2.8541 -2.1424
  366MOL0     H49347   2.279   3.495   2.248  1.1686 -1.6185 -0.8154
  366MOL0     H49348   2.258   3.671   2.181  0.7621 -0.2244  1.0771
  366MOL0     H49349   2.238   3.593   1.957  2.4520  0.8476  0.2899
  366MOL0     H49350   2.258   3.421   1.999  0.7947  1.5878 -2.6453
  366MOL0     H49351   2.052   3.449   2.152 -0.4505  0.6046 -0.0784
  366MOL0     H49352   2.027   3.603   2.081  2.2111  1.2551 -1.7843
  366MOL0     H49353   1.988   3.463   1.858 -0.2756 -1.8570 -1.1016
  366MOL0     H49354   2.025   3.315   1.958  0.7536  0.6502  1.1947
  366MOL0     H49355   1.838   3.367   2.104  0.0371  2.4766  0.8658
  366MOL0     H49356   1.802   3.513   2.018  2.4242  0.4929  1.4862
  366MOL0     H49357   1.743   3.374   1.809 -0.4679  0.7295  0.6688
  366MOL0     H49358   1.808   3.232   1.907 -0.5014 -0.3128  0.7680
  366MOL0     H49359   1.624   3.281   2.073 -0.3603  0.3539 -0.1323
  366MOL0     H49360   1.583   3.203   1.923  1.7869 -0.8181  2.2811
  366MOL0     H49361   1.455   3.324   1.714  0.2139 -0.9314  0.1558
  366MOL0     H49362   1.240   3.645   1.709 -4.4052 -1.9243 -0.1702
  366MOL0     H49363   1.360   3.576   1.594  0.8101 -0.8139  1.0786
  366MOL0     H49364   1.115   3.463   1.736  2.0484 -0.7503  1.7609
  366MOL0     H49365   1.213   3.362   1.627  1.1976  1.0561  0.5443
  366MOL0     H49366   1.137   3.568   1.455  2.3690 -0.9698  1.4857
  366MOL0     H49367   1.019   3.587   1.585  0.8999  0.6434  0.0199
  366MOL0     H49368   0.960   3.352   1.558 -0.5765 -2.4426 -2.1729
  366MOL0     H49369   1.049   3.345   1.411 -2.8322 -1.5888  1.0982
  366MOL0     H49370   0.766   3.702   1.422 -0.7053  0.5600 -1.0754
  366MOL0     H49371   0.691   3.932   1.231  1.3683 -1.0665 -2.5851
  366MOL0     H49372   0.776   3.948   1.390 -0.4410  0.7066  0.1745
  366MOL0     H49373   0.845   4.022   1.247  0.4327  0.1890 -0.0757
  366MOL0     H49374   1.327   4.080   1.059 -0.3628  0.9989  3.5601
  366MOL0     H49375   1.361   4.287   0.920 -1.8397  1.7313 -1.2615
  366MOL0     H49376   1.355   4.539   0.877 -2.0901 -0.7360  1.7534
  366MOL0     H49377   1.338   4.428   0.730  3.3717 -0.0708  1.9642
  366MOL0     H49378   1.191   4.708   0.742  0.9017  3.3615 -3.4219
  366MOL0     H49379   1.352   4.688   0.698 -1.2204  2.7277  0.1534
  366MOL0     H49380   1.124   4.499   0.589 -1.4452  0.9385 -2.1020
  366MOL0     H49381   1.273   4.534   0.509 -0.1600 -0.1277 -1.6203
  366MOL0     H49382   1.056   4.743   0.553 -0.5731  0.9786  0.1254
  366MOL0     H49383   1.203   4.772   0.467 -2.6220  2.0266  0.1919
  366MOL0     H49384   0.982   4.578   0.384 -0.3840  0.6265 -1.8157
  366MOL0     H49385   1.141   4.579   0.299  1.0893  2.3494 -0.9793
  366MOL0     H49386   0.982   4.830   0.315  3.1902 -0.1464  0.7667
  366MOL0     H49387   1.106   4.787   0.193  0.2443  0.0690 -1.4279
  366MOL0     H49388   0.930   4.590   0.140 -1.4926  0.2582 -3.0849
  366MOL0     H49389   0.943   4.735   0.050  0.0436 -2.5667 -0.3878
  366MOL0     H49390   0.783   4.860   0.195 -1.5242 -0.0730  0.5795
  366MOL0     H49391   0.760   4.725   0.299  1.1131  0.6849  0.4324
  366MOL0     H49392   0.950   4.377   0.981 -2.5394 -2.6589  0.2178
  366MOL0     H49393   0.919   4.193   1.126 -0.2922  2.4551 -0.9347
  366MOL0     H49394   1.056   3.660   1.023 -0.0309 -0.0543 -1.0411
  366MOL0     H49395   1.016   3.461   1.175  0.5569  0.1488 -0.2079
  366MOL0     H49396   2.681   3.655   2.066  2.0644  1.9566 -0.2114
  366MOL0     H49397   2.927   3.595   1.983 -2.0995  0.1509 -2.0080
  366MOL0     H49398   3.244   3.021   2.028  2.4878 -0.2948 -0.2336
  366MOL0     H49399   3.434   2.966   1.888 -1.3886 -0.5857  3.6054
  366MOL0     H49400   3.576   3.260   1.594 -1.1813 -3.3695 -0.7432
  366MOL0     H49401   3.691   3.298   1.734 -0.6258  0.2976  0.7393
  366MOL0     H49402   3.718   3.070   1.535 -1.6134  2.5816 -1.8444
  366MOL0     H49403   3.803   3.078   1.689 -1.8944 -1.8539 -0.6668
  366MOL0     H49404   3.821   3.261   1.439  2.4337 -0.2075 -1.4891
  366MOL0     H49405   3.942   3.142   1.496 -0.5157  0.9749  0.7226
  366MOL0     H49406   3.987   3.286   1.693  0.5042 -1.9023 -0.7646
  366MOL0     H49407   3.862   3.408   1.633 -1.5271 -1.7600 -1.0717
  366MOL0     H49408   4.207   3.506   1.424  0.7661 -2.1817 -0.5740
  366MOL0     H49409   3.435   3.368   1.725 -3.4993  0.7858 -1.9305
  366MOL0     H49410   3.224   3.409   1.851  1.4994  0.5740 -0.5533
  367MOL0     O49411   3.406   9.168   8.884  0.4238 -1.0573  0.1299
  367MOL0     C49412   3.447   9.086   8.806 -0.0893 -0.8953 -0.3729
  367MOL0     O49413   3.370   9.012   8.717  0.2925  0.4788  0.2477
  367MOL0     C49414   3.233   9.037   8.712 -0.1614 -0.1360  0.2438
  367MOL0     C49415   3.185   9.163   8.662  0.2612  0.1978 -0.7622
  367MOL0     C49416   3.050   9.189   8.654 -0.0878  0.3165 -0.6665
  367MOL0     C49417   2.950   9.093   8.688  0.1618  0.3901  0.5040
  367MOL0     O49418   2.821   9.120   8.676  0.3776  0.4317  0.4638
  367MOL0     C49419   2.776   9.239   8.610  0.1827 -0.1433  0.1177
  367MOL0     C49420   2.623   9.236   8.588  0.4939 -0.0073  0.0212
  367MOL0     C49421   2.551   9.263   8.716  0.4997  0.0015  0.0466
  367MOL0     C49422   2.405   9.247   8.702  0.8974 -0.2077 -0.0717
  367MOL0     C49423   2.329   9.271   8.837  0.4565  0.5194 -0.5097
  367MOL0     C49424   2.172   9.247   8.830  0.7415 -1.0138 -0.0171
  367MOL0     C49425   2.095   9.244   8.962  0.2148  0.1722 -0.0372
  367MOL0     C49426   1.940   9.267   8.921 -0.1438  0.4102  0.1559
  367MOL0     N49427   1.852   9.252   9.041 -1.0139  0.3512  0.2666
  367MOL0     C49428   1.770   9.146   9.071  0.3217  0.0003 -0.7334
  367MOL0     C49429   1.706   9.188   9.183 -0.6752  0.0714 -0.2414
  367MOL0     C49430   1.597   9.121   9.257 -0.0816  0.2327  0.6282
  367MOL0     C49431   1.474   9.112   9.171 -0.3395 -1.0263  0.3603
  367MOL0     C49432   1.356   9.101   9.264 -0.4202  0.4935 -0.1514
  367MOL0     C49433   1.228   9.087   9.181 -0.5834 -0.6496 -0.4834
  367MOL0     O49434   1.115   9.065   9.267  0.1643 -0.2596 -0.1262
  367MOL0     C49435   0.991   9.033   9.211  0.0777  0.3821 -0.2094
  367MOL0     C49436   0.980   9.018   9.080 -1.0143 -0.3815  0.5868
  367MOL0     C49437   0.856   8.986   9.018 -0.3638 -0.9294 -0.6060
  367MOL0     C49438   0.857   8.983   8.867  0.0116 -0.4074 -0.4604
  367MOL0     C49439   0.740   8.971   9.103  0.1788  0.2764  0.3036
  367MOL0     C49440   0.604   8.940   9.043 -1.3468 -0.0801 -0.2084
  367MOL0     O49441   0.580   8.969   8.915 -0.0070 -1.0766 -0.3177
  367MOL0     C49442   0.456   9.003   8.866  0.3599  0.5235 -0.0727
  367MOL0     C49443   0.447   9.100   8.770 -0.4317  0.0497 -0.2019
  367MOL0     C49444   0.332   9.144   8.713  0.3408  1.2191  0.6107
  367MOL0     C49445   0.214   9.080   8.741  0.5185  0.8183  0.3840
  367MOL0     O49446   0.088   9.113   8.695  0.1925 -0.4093 -0.6363
  367MOL0     C49447   0.078   9.215   8.593  0.5732 -0.1221 -0.0423
  367MOL0     C49448  -0.043   9.185   8.509  0.0320  0.3491 -0.0403
  367MOL0     C49449  -0.172   9.186   8.590 -0.7244  0.3584 -0.0374
  367MOL0     C49450  -0.291   9.251   8.518  0.2517  0.0808  0.4452
  367MOL0     C49451  -0.412   9.262   8.606  0.6282  0.5522 -0.3305
  367MOL0     C49452  -0.504   9.350   8.533 -0.2491  0.0489  0.1411
  367MOL0     C49453  -0.638   9.341   8.592 -0.5164 -0.3133  0.2892
  367MOL0     C49454  -0.733   9.439   8.533 -0.0096 -0.0447 -0.2356
  367MOL0    Cl49455  -0.885   9.444   8.628  0.3469 -0.0791 -0.1379
  367MOL0     C49456   0.219   8.970   8.829  0.1260 -0.7383  0.3843
  367MOL0     C49457   0.338   8.935   8.894  0.4398 -0.1141  0.5434
  367MOL0     O49458   0.523   8.878   9.113 -0.2856 -0.6577  0.0230
  367MOL0     C49459   0.752   8.973   9.242  0.2965 -0.2295  0.2239
  367MOL0     C49460   0.878   9.012   9.294  0.3461 -0.1171 -0.2380
  367MOL0     N49461   1.758   9.320   9.210 -0.6421  0.3309 -0.2155
  367MOL0     N49462   1.830   9.360   9.112  0.5172 -0.8354 -0.1846
  367MOL0     C49463   3.007   8.967   8.746  0.6100 -0.1435  0.1176
  367MOL0     C49464   3.139   8.942   8.742 -0.8441  0.5685 -1.1243
  367MOL0     C49465   3.596   9.059   8.813 -0.7569  0.5249  0.4825
  367MOL0     C49466   3.678   9.120   8.911 -0.2853 -0.7231 -0.2118
  367MOL0     C49467   3.815   9.075   8.931 -0.0766 -0.2572  0.3361
  367MOL0     C49468   3.862   8.967   8.863  0.1693 -0.8406  0.4960
  367MOL0     O49469   3.991   8.914   8.853  0.7333  0.3487 -0.1492
  367MOL0     C49470   4.112   8.976   8.902 -0.4680  0.8130 -0.0902
  367MOL0     C49471   4.112   8.974   9.054 -0.4941 -0.0807  0.1579
  367MOL0     C49472   4.146   8.837   9.117 -0.1311  0.0979 -0.1863
  367MOL0     C49473   4.172   8.861   9.269 -0.8665 -1.0184  0.2877
  367MOL0     C49474   4.318   8.867   9.292 -0.7583  0.2565  0.9514
  367MOL0     C49475   4.436   8.870   9.322 -0.7910  0.7329 -0.4485
  367MOL0     C49476   3.774   8.899   8.777 -0.8185 -0.0271 -0.3036
  367MOL0     C49477   3.647   8.944   8.750 -0.4655  1.2071 -0.4186
  367MOL0     H49478   3.243   9.252   8.639 -3.6375  2.8844 -1.3184
  367MOL0     H49479   3.017   9.289   8.627 -0.8132  0.8351  1.9553
  367MOL0     H49480   2.800   9.332   8.661  1.9757 -0.0190 -0.8415
  367MOL0     H49481   2.825   9.243   8.512  1.1630 -2.8740  0.3931
  367MOL0     H49482   2.602   9.321   8.522  1.1595 -0.2534 -0.5132
  367MOL0     H49483   2.591   9.143   8.540 -1.4182  0.5508  0.1213
  367MOL0     H49484   2.588   9.192   8.790 -0.4645 -0.0626  0.4809
  367MOL0     H49485   2.566   9.364   8.755  1.6962 -0.2093  0.1537
  367MOL0     H49486   2.352   9.307   8.628  0.3732  0.2765  0.6775
  367MOL0     H49487   2.389   9.141   8.676 -1.9381  0.3376 -0.8596
  367MOL0     H49488   2.362   9.203   8.916  0.1607  2.6489  1.5626
  367MOL0     H49489   2.343   9.376   8.865 -1.2404  0.8545 -0.8125
  367MOL0     H49490   2.149   9.331   8.764  0.7429 -1.2859 -0.3653
  367MOL0     H49491   2.148   9.161   8.769 -1.9441 -0.3738  0.0335
  367MOL0     H49492   2.100   9.150   9.018  0.2009  0.8311  1.1032
  367MOL0     H49493   2.129   9.322   9.031  1.8983  0.3241 -0.9853
  367MOL0     H49494   1.909   9.191   8.849 -0.6307 -0.1337  0.9269
  367MOL0     H49495   1.931   9.363   8.870  0.1183  0.9182  1.0406
  367MOL0     H49496   1.756   9.054   9.017 -2.2478  0.1814 -0.5203
  367MOL0     H49497   1.629   9.019   9.282 -0.8651 -0.2046 -0.0690
  367MOL0     H49498   1.574   9.184   9.343  1.1185  0.6478  0.6564
  367MOL0     H49499   1.483   9.023   9.108 -2.0807 -1.3998  0.5787
  367MOL0     H49500   1.463   9.201   9.109  2.0910  0.0401  1.3500
  367MOL0     H49501   1.352   9.174   9.345  0.6924  0.9987 -0.5379
  367MOL0     H49502   1.373   9.002   9.307 -0.9863  0.0491 -0.9323
  367MOL0     H49503   1.243   9.002   9.113  2.9535  0.3995 -1.2206
  367MOL0     H49504   1.210   9.178   9.122  3.2945  0.6306  0.0360
  367MOL0     H49505   1.058   9.031   9.007 -1.2181  0.9320  0.5773
  367MOL0     H49506   0.957   8.999   8.825 -0.9161 -0.4106 -2.7830
  367MOL0     H49507   0.820   8.888   8.827 -0.7973  0.4785 -1.9171
  367MOL0     H49508   0.803   9.060   8.812  2.1153 -0.6113 -3.0112
  367MOL0     H49509   0.537   9.151   8.737 -1.2587  0.5699 -1.7627
  367MOL0     H49510   0.332   9.227   8.643 -2.0875  1.0156  0.3075
  367MOL0     H49511   0.079   9.316   8.634  0.8541 -0.0200 -0.2889
  367MOL0     H49512   0.165   9.218   8.526  3.7804  1.5145  3.8326
  367MOL0     H49513  -0.045   9.261   8.430  2.6522  0.7153  0.1287
  367MOL0     H49514  -0.038   9.085   8.466 -3.1079  0.3049 -0.4744
  367MOL0     H49515  -0.159   9.235   8.687  0.6074 -1.4809  0.7713
  367MOL0     H49516  -0.202   9.084   8.616  0.3186 -0.6868 -2.5687
  367MOL0     H49517  -0.268   9.347   8.473 -2.2276 -0.0103 -1.1633
  367MOL0     H49518  -0.329   9.185   8.439  0.6604  1.0052 -0.5380
  367MOL0     H49519  -0.379   9.301   8.703  3.1875 -2.8102  0.3066
  367MOL0     H49520  -0.452   9.161   8.614 -1.1365  1.3464  2.6993
  367MOL0     H49521  -0.472   9.454   8.544 -0.0831 -0.2073  3.0204
  367MOL0     H49522  -0.514   9.323   8.428 -0.1392  0.8479 -0.0786
  367MOL0     H49523  -0.631   9.364   8.699 -2.6532  0.7968  0.2655
  367MOL0     H49524  -0.672   9.239   8.573  3.8076 -1.7598 -0.7072
  367MOL0     H49525  -0.753   9.419   8.427 -0.8261 -0.7944  0.0548
  367MOL0     H49526  -0.693   9.539   8.553  0.4661 -0.0236 -1.1889
  367MOL0     H49527   0.127   8.922   8.861  1.1603 -1.8832  1.7649
  367MOL0     H49528   0.346   8.846   8.956 -0.7163 -0.5584  0.0973
  367MOL0     H49529   0.664   8.964   9.304 -1.8404  2.2787 -2.2200
  367MOL0     H49530   0.902   9.017   9.400  2.1753 -1.4722 -0.5532
  367MOL0     H49531   2.946   8.882   8.774 -0.1721 -0.2462 -1.7293
  367MOL0     H49532   3.180   8.843   8.759 -1.5408  0.3769 -0.4948
  367MOL0     H49533   3.651   9.199   8.979 -0.4249 -1.3255  0.4445
  367MOL0     H49534   3.873   9.125   9.008  2.8454 -1.4186 -0.9489
  367MOL0     H49535   4.205   8.930   8.869 -0.6003  0.3921  0.1161
  367MOL0     H49536   4.124   9.077   8.862  0.1246  0.1562 -1.6367
  367MOL0     H49537   4.012   9.001   9.089  0.3045 -1.0253  3.5811
  367MOL0     H49538   4.169   9.065   9.077 -0.0854  0.4421 -2.5717
  367MOL0     H49539   4.227   8.784   9.065  0.4554 -0.3750  1.1681
  367MOL0     H49540   4.053   8.780   9.118 -0.3089  0.1059  4.5496
  367MOL0     H49541   4.148   8.773   9.329 -0.1931 -1.3045  0.1455
  367MOL0     H49542   4.124   8.952   9.307 -1.9070 -2.2970  2.1605
  367MOL0     H49543   4.538   8.886   9.352 -0.5115  1.3229 -1.6391
  367MOL0     H49544   3.793   8.801   8.734  0.5283  0.0874 -0.0297
  367MOL0     H49545   3.584   8.889   8.682  0.8085 -0.4147 -0.3649
  368MOL0     O49546  10.526   5.268   9.815 -0.0516 -0.0988  0.3114
  368MOL0     C49547  10.539   5.149   9.806 -0.3828 -0.3021 -0.2276
  368MOL0     O49548  10.456   5.063   9.747 -0.0388  0.4469  0.4581
  368MOL0     C49549  10.340   5.100   9.675  0.0388  0.3535  0.3838
  368MOL0     C49550  10.246   4.994   9.650 -0.0123 -0.2485 -0.5887
  368MOL0     C49551  10.123   5.021   9.589  0.3207 -0.5088 -0.0557
  368MOL0     C49552  10.085   5.147   9.542  0.1596  0.1339 -0.5714
  368MOL0     O49553   9.970   5.166   9.476 -0.2546 -0.0607 -0.8278
  368MOL0     C49554   9.872   5.207   9.571 -0.2184 -0.3447 -0.5908
  368MOL0     C49555   9.739   5.196   9.502 -0.8653 -0.0006  0.9248
  368MOL0     C49556   9.627   5.220   9.589  1.1704  0.3203 -0.5961
  368MOL0     C49557   9.485   5.197   9.524  0.7029  0.4463  0.6300
  368MOL0     C49558   9.368   5.247   9.598 -0.1743  0.6992  1.0431
  368MOL0     C49559   9.331   5.174   9.727 -0.0080 -0.1074  0.2813
  368MOL0     C49560   9.289   5.024   9.717 -0.3247  0.1003 -0.1229
  368MOL0     C49561   9.272   4.971   9.862 -0.7517  0.2472  0.3484
  368MOL0     N49562   9.145   5.020   9.925 -0.3165 -0.1250 -0.6486
  368MOL0     C49563   9.025   4.955   9.937  0.5908  0.9521 -0.1543
  368MOL0     C49564   8.946   5.041  10.013 -0.1852 -0.0770  0.1850
  368MOL0     C49565   8.809   5.030  10.071 -0.1166 -0.1615 -0.4529
  368MOL0     C49566   8.713   5.132   9.993  0.0448  0.5606 -0.4546
  368MOL0     C49567   8.572   5.120  10.060  0.5507 -0.4123 -0.1967
  368MOL0     C49568   8.484   5.226  10.008 -0.4088 -0.5453  0.3409
  368MOL0     O49569   8.358   5.209  10.085 -0.2037 -0.5898 -0.0621
  368MOL0     C49570   8.263   5.302  10.068 -0.5643 -0.5368 -0.0531
  368MOL0     C49571   8.263   5.407   9.974  0.0280  0.0960  0.4873
  368MOL0     C49572   8.146   5.484   9.949 -0.4230 -0.1301  0.0627
  368MOL0     C49573   8.153   5.600   9.844 -1.0878 -0.1048 -0.3230
  368MOL0     C49574   8.031   5.460  10.017 -0.0348  0.3727 -0.2935
  368MOL0     C49575   7.895   5.524   9.991  0.1081  0.3615  0.1569
  368MOL0     O49576   7.780   5.448  10.012 -0.2240  0.1427 -0.7072
  368MOL0     C49577   7.653   5.499  10.005  0.8325 -0.2251  0.1940
  368MOL0     C49578   7.556   5.422   9.929 -0.1159  0.3422 -0.2563
  368MOL0     C49579   7.415   5.463   9.925 -0.4269 -0.0677  0.5617
  368MOL0     C49580   7.385   5.584   9.980  0.2234 -0.5086  0.5784
  368MOL0     O49581   7.261   5.644   9.981  0.7219  0.0218 -0.2853
  368MOL0     C49582   7.151   5.583   9.904  0.1581  0.5782 -0.1944
  368MOL0     C49583   7.032   5.679   9.895 -0.1921  0.0814 -0.4323
  368MOL0     C49584   6.911   5.606   9.835  0.2068  0.4830 -0.1476
  368MOL0     C49585   6.806   5.701   9.799 -0.1073 -0.0967 -0.2146
  368MOL0     C49586   6.680   5.654   9.729 -0.1823  0.2688 -0.9876
  368MOL0     C49587   6.576   5.762   9.723  0.2480 -0.0576 -0.0144
  368MOL0     C49588   6.451   5.715   9.647  0.2527  0.1624 -0.7783
  368MOL0     C49589   6.407   5.570   9.683  0.1719  0.3968  0.1941
  368MOL0    Cl49590   6.351   5.568   9.855  0.0973  0.2505  0.1334
  368MOL0     C49591   7.478   5.651  10.052 -1.1685 -0.2694 -0.2177
  368MOL0     C49592   7.608   5.616  10.071  0.2332  0.4006  0.3941
  368MOL0     O49593   7.895   5.641   9.951  0.3910  0.1151 -0.4338
  368MOL0     C49594   8.028   5.356  10.114 -0.2809  0.6462  0.4102
  368MOL0     C49595   8.138   5.270  10.131 -0.0899 -0.4590 -0.4871
  368MOL0     N49596   9.023   5.147  10.052 -0.5770  0.0245  0.5252
  368MOL0     N49597   9.135   5.140   9.989  0.0529  0.3003  0.2782
  368MOL0     C49598  10.188   5.245   9.553 -0.1236 -1.2715 -0.1555
  368MOL0     C49599  10.305   5.229   9.622  0.1971  0.2218 -0.4973
  368MOL0     C49600  10.671   5.109   9.860 -0.5128 -0.2239 -0.5067
  368MOL0     C49601  10.739   5.012   9.787 -0.7154  0.3722  0.4905
  368MOL0     C49602  10.858   4.953   9.835 -0.1062  0.2136 -0.5219
  368MOL0     C49603  10.912   4.986   9.960  0.1853  0.1127  0.4829
  368MOL0     O49604  11.035   4.947  10.017 -0.0589  0.2592 -0.2936
  368MOL0     C49605  11.126   4.879   9.934 -0.1383  0.7465 -0.3671
  368MOL0     C49606  11.268   4.910   9.967  0.0417 -0.3289 -0.3549
  368MOL0     C49607  11.301   4.895  10.127  0.6623  1.1153  0.4488
  368MOL0     C49608  11.449   4.908  10.160 -1.0018 -0.9080  0.5006
  368MOL0     C49609  11.491   5.052  10.140 -0.6235 -0.2193  0.2783
  368MOL0     C49610  11.514   5.175  10.129 -0.3418 -0.3669  0.3731
  368MOL0     C49611  10.843   5.095  10.026 -0.2244  0.4956  0.2569
  368MOL0     C49612  10.727   5.151   9.977 -0.6105 -0.0606 -0.4416
  368MOL0     H49613  10.257   4.895   9.693 -2.5279  0.1514  1.2195
  368MOL0     H49614  10.047   4.943   9.586  0.1576 -0.9324  5.3292
  368MOL0     H49615   9.872   5.146   9.662  0.0143 -1.6281 -1.4356
  368MOL0     H49616   9.892   5.309   9.607 -0.0624 -0.6704  0.2651
  368MOL0     H49617   9.735   5.274   9.424 -2.6846  0.5843  1.5583
  368MOL0     H49618   9.734   5.096   9.458 -0.1140 -0.0602  0.9466
  368MOL0     H49619   9.642   5.145   9.668  0.6197  1.0177  0.1856
  368MOL0     H49620   9.627   5.318   9.638  0.5442 -0.1352  0.3428
  368MOL0     H49621   9.480   5.245   9.426 -1.9193  0.6835  0.7945
  368MOL0     H49622   9.468   5.090   9.508 -2.4103  0.7730  1.0788
  368MOL0     H49623   9.369   5.352   9.627  1.7991  1.2584 -0.8341
  368MOL0     H49624   9.288   5.235   9.524  1.3104 -0.7616 -0.4254
  368MOL0     H49625   9.424   5.176   9.784 -0.3841 -1.5210  1.0008
  368MOL0     H49626   9.247   5.223   9.776  1.0377  0.5610  1.4578
  368MOL0     H49627   9.198   5.027   9.657  0.0671 -2.8077 -1.0252
  368MOL0     H49628   9.362   4.963   9.664 -0.1470  0.6618 -0.5221
  368MOL0     H49629   9.364   4.997   9.915 -0.7642 -1.8138  1.4628
  368MOL0     H49630   9.268   4.862   9.863 -1.4975  0.2456 -0.7716
  368MOL0     H49631   8.979   4.864   9.901 -1.5378  1.9660 -0.1390
  368MOL0     H49632   8.786   4.923  10.068  0.9705 -0.3814 -1.4724
  368MOL0     H49633   8.809   5.064  10.175  0.8792 -1.1473 -0.1133
  368MOL0     H49634   8.713   5.106   9.887  1.2391 -1.4951 -0.0068
  368MOL0     H49635   8.746   5.235  10.008 -2.1821  1.0524  1.7834
  368MOL0     H49636   8.579   5.124  10.169  2.5925 -0.2828 -0.2848
  368MOL0     H49637   8.523   5.025  10.033 -3.6153  1.8619 -1.4882
  368MOL0     H49638   8.465   5.215   9.901  1.7992 -0.8111 -0.0623
  368MOL0     H49639   8.528   5.322  10.035 -2.6804  0.2582  1.4667
  368MOL0     H49640   8.350   5.435   9.917 -1.6832 -0.1179 -2.4367
  368MOL0     H49641   8.250   5.600   9.792  0.4232  0.4431  2.3266
  368MOL0     H49642   8.070   5.592   9.773  0.1038 -4.3543 -1.5619
  368MOL0     H49643   8.146   5.695   9.897 -0.1078 -1.1430  1.7965
  368MOL0     H49644   7.595   5.336   9.876 -0.9770  0.6742 -1.4764
  368MOL0     H49645   7.344   5.414   9.859 -0.0589  0.6479 -0.3774
  368MOL0     H49646   7.181   5.552   9.803  0.6589  0.8520 -0.1328
  368MOL0     H49647   7.116   5.494   9.957  0.1404 -1.0032 -2.6762
  368MOL0     H49648   7.012   5.700  10.000 -0.1312 -1.5629 -0.0727
  368MOL0     H49649   7.058   5.769   9.838 -4.8494  1.2708 -1.0723
  368MOL0     H49650   6.872   5.532   9.905 -3.4869 -0.8231 -3.2945
  368MOL0     H49651   6.943   5.553   9.745 -1.4526 -1.7968  0.4992
  368MOL0     H49652   6.779   5.756   9.890  0.8297 -0.4735  0.3042
  368MOL0     H49653   6.863   5.770   9.737  1.2340  1.4133  2.4952
  368MOL0     H49654   6.646   5.567   9.786 -1.3618  1.6659  0.5455
  368MOL0     H49655   6.700   5.616   9.628  0.5968 -0.0774 -0.7070
  368MOL0     H49656   6.550   5.791   9.825  4.4078  1.4354  0.7964
  368MOL0     H49657   6.627   5.849   9.680  2.0472 -1.4677 -0.8992
  368MOL0     H49658   6.479   5.720   9.541 -3.2723  0.3188 -1.8004
  368MOL0     H49659   6.373   5.790   9.656 -0.2941 -0.4160 -0.6452
  368MOL0     H49660   6.486   5.499   9.655  2.0526  1.7071  1.8849
  368MOL0     H49661   6.324   5.540   9.618  0.1803 -0.2218  0.4570
  368MOL0     H49662   7.447   5.747  10.093  0.8968 -0.5262  2.2259
  368MOL0     H49663   7.683   5.680  10.117  0.2865  0.2806  0.4746
  368MOL0     H49664   7.948   5.327  10.182 -0.2383  1.4688  0.8247
  368MOL0     H49665   8.114   5.193  10.204 -1.2686 -0.6446 -1.0496
  368MOL0     H49666  10.170   5.335   9.496  0.9194 -0.7314  0.3361
  368MOL0     H49667  10.383   5.305   9.628 -0.0021  0.4342 -0.5931
  368MOL0     H49668  10.686   4.968   9.704  0.1471 -2.6336  1.4109
  368MOL0     H49669  10.910   4.882   9.771  4.3424 -0.5660  3.4005
  368MOL0     H49670  11.113   4.772   9.951 -3.7644  0.9359 -1.2675
  368MOL0     H49671  11.110   4.911   9.831  0.5579 -0.5125 -0.8981
  368MOL0     H49672  11.288   5.015   9.942  0.5236 -0.3587 -0.0927
  368MOL0     H49673  11.334   4.851   9.903  2.6478  1.9761 -0.0071
  368MOL0     H49674  11.272   4.793  10.155  3.8130 -0.3355 -1.0649
  368MOL0     H49675  11.234   4.961  10.183 -1.3352  1.4873 -2.1511
  368MOL0     H49676  11.518   4.844  10.104 -1.7426 -0.4680 -0.9673
  368MOL0     H49677  11.466   4.883  10.265  1.5174  0.3421  0.4605
  368MOL0     H49678  11.525   5.281  10.119 -1.5671 -0.4551 -3.6573
  368MOL0     H49679  10.890   5.133  10.115 -1.8057 -1.4236  2.0123
  368MOL0     H49680  10.683   5.229  10.037  1.9761  1.5856 -0.5076
  369MOL0     O49681  10.201   8.837   3.415  0.6619  0.7219 -0.0944
  369MOL0     C49682  10.244   8.901   3.509  0.5310 -0.9013 -0.0917
  369MOL0     O49683  10.175   8.924   3.624  0.3189 -0.0121  0.4137
  369MOL0     C49684  10.041   8.892   3.619  0.0669 -0.6408 -0.1572
  369MOL0     C49685   9.999   8.808   3.721 -0.0537  0.0650 -0.3224
  369MOL0     C49686   9.860   8.779   3.728 -0.8683  0.0470 -0.3028
  369MOL0     C49687   9.766   8.834   3.642  0.3725 -0.5226 -0.6210
  369MOL0     O49688   9.631   8.808   3.663  0.1733 -0.4507 -0.3753
  369MOL0     C49689   9.551   8.842   3.554 -0.2086  0.1491  0.3569
  369MOL0     C49690   9.432   8.747   3.558  0.3140  0.6504  0.2578
  369MOL0     C49691   9.343   8.762   3.683  0.3316  0.5052  0.7224
  369MOL0     C49692   9.202   8.703   3.682 -0.0614  0.0761  0.7596
  369MOL0     C49693   9.126   8.735   3.813 -0.3423  0.0976  0.7628
  369MOL0     C49694   8.989   8.671   3.813  0.3301  0.5165 -0.8248
  369MOL0     C49695   8.917   8.729   3.942 -0.2293 -0.5503  0.9417
  369MOL0     C49696   8.773   8.670   3.953 -1.2464 -0.4461 -0.6341
  369MOL0     N49697   8.686   8.751   4.048 -0.3389 -0.1623 -0.0650
  369MOL0     C49698   8.676   8.733   4.182  0.1523 -0.3340 -0.1675
  369MOL0     C49699   8.580   8.818   4.228  0.1920 -0.0810 -0.5585
  369MOL0     C49700   8.527   8.832   4.362 -0.0368  0.5053 -0.6781
  369MOL0     C49701   8.554   8.976   4.423 -0.5515  0.1698 -0.8087
  369MOL0     C49702   8.695   9.014   4.475 -0.1057  0.1971 -0.2633
  369MOL0     C49703   8.746   8.932   4.596  0.1970 -0.4454 -0.3465
  369MOL0     O49704   8.651   8.941   4.693  0.1533  0.5142 -0.7722
  369MOL0     C49705   8.621   8.818   4.758 -0.3732  0.0688 -0.0343
  369MOL0     C49706   8.708   8.720   4.795 -0.3945  0.2647  0.3277
  369MOL0     C49707   8.665   8.597   4.846  1.0331  0.3188 -0.3265
  369MOL0     C49708   8.766   8.496   4.869 -0.9104  0.1979  0.2715
  369MOL0     C49709   8.526   8.567   4.870  0.2946  0.4786  0.2801
  369MOL0     C49710   8.475   8.440   4.933  0.4408 -0.7765  1.4567
  369MOL0     O49711   8.336   8.423   4.929  0.0218  0.6694 -0.4261
  369MOL0     C49712   8.261   8.314   4.972  0.7971  0.0401 -0.2198
  369MOL0     C49713   8.122   8.330   4.942 -0.3786  0.7121 -0.0402
  369MOL0     C49714   8.039   8.225   4.975  0.3619  0.0149  0.3880
  369MOL0     C49715   8.074   8.116   5.055 -1.3236 -0.0752 -0.1576
  369MOL0     O49716   7.980   8.031   5.110  0.0180  0.9009 -0.2340
  369MOL0     C49717   7.851   8.031   5.061  0.7206  0.2843  0.2149
  369MOL0     C49718   7.790   7.903   5.122  0.0913  0.2925 -0.5857
  369MOL0     C49719   7.639   7.881   5.104 -0.1577  0.1026 -0.2819
  369MOL0     C49720   7.562   8.009   5.141  0.6021 -0.6522  1.0994
  369MOL0     C49721   7.412   7.982   5.148  0.6506 -0.6022  0.6355
  369MOL0     C49722   7.335   8.092   5.231  0.9615 -0.2263  0.1636
  369MOL0     C49723   7.192   8.045   5.263 -0.1172  0.5288 -1.0109
  369MOL0     C49724   7.097   8.063   5.150 -0.4281 -0.9544  0.0689
  369MOL0    Cl49725   6.927   7.998   5.182 -0.0386  0.3921  0.1106
  369MOL0     C49726   8.208   8.106   5.088 -0.4446  0.1368  1.0402
  369MOL0     C49727   8.302   8.201   5.043 -0.5677 -0.4285  0.0756
  369MOL0     O49728   8.553   8.359   4.977  0.1443  0.3297 -0.2648
  369MOL0     C49729   8.433   8.668   4.837  0.1099 -0.3447 -0.3292
  369MOL0     C49730   8.482   8.785   4.775 -0.0324  0.6486  0.7285
  369MOL0     N49731   8.535   8.888   4.128 -0.0307 -0.3097 -0.0779
  369MOL0     N49732   8.596   8.844   4.017 -0.6384 -0.2464  0.4708
  369MOL0     C49733   9.812   8.937   3.560 -0.8240 -0.2881  0.0079
  369MOL0     C49734   9.949   8.957   3.533  0.2687  0.2269  0.5893
  369MOL0     C49735  10.380   8.946   3.508 -0.3234 -0.0970 -0.0325
  369MOL0     C49736  10.455   8.923   3.391 -0.0562 -0.3889 -0.6952
  369MOL0     C49737  10.581   8.964   3.375 -0.4787  0.1265  0.4299
  369MOL0     C49738  10.640   9.045   3.473  1.0758  0.0871  0.1768
  369MOL0     O49739  10.759   9.110   3.460 -0.1345  0.2339 -0.4227
  369MOL0     C49740  10.819   9.102   3.331  0.3709 -0.8596  0.5963
  369MOL0     C49741  10.949   9.183   3.325 -0.0729 -0.1326  0.0023
  369MOL0     C49742  11.078   9.109   3.386 -0.3789  0.7549 -0.2971
  369MOL0     C49743  11.135   9.000   3.299  0.9210  0.0392 -0.3643
  369MOL0     C49744  11.213   9.063   3.195 -0.7720 -0.6882  0.2380
  369MOL0     C49745  11.273   9.117   3.103  0.1969  0.2403 -0.3482
  369MOL0     C49746  10.570   9.060   3.597 -0.2266  0.1129  0.1183
  369MOL0     C49747  10.442   9.001   3.618 -0.6168 -0.1364 -0.9604
  369MOL0     H49748  10.062   8.765   3.799  0.6814  1.1079 -0.3222
  369MOL0     H49749   9.814   8.717   3.803  0.7370 -1.9370 -0.8584
  369MOL0     H49750   9.513   8.944   3.554 -0.9310 -0.1187  0.4499
  369MOL0     H49751   9.612   8.824   3.465 -0.0758 -1.6059  0.7694
  369MOL0     H49752   9.379   8.768   3.464  1.6171  0.0179 -0.6499
  369MOL0     H49753   9.458   8.641   3.560 -0.4825  0.4542  0.8302
  369MOL0     H49754   9.395   8.718   3.769  0.4381 -0.8876 -0.0308
  369MOL0     H49755   9.335   8.867   3.712  0.3268  0.0634  2.4678
  369MOL0     H49756   9.138   8.720   3.594  0.4981  0.6612  0.4535
  369MOL0     H49757   9.200   8.594   3.670  2.4424  0.0040  0.4286
  369MOL0     H49758   9.190   8.715   3.900 -1.7956 -1.8182  1.4730
  369MOL0     H49759   9.100   8.841   3.818 -0.1902  0.0892  2.0938
  369MOL0     H49760   8.936   8.696   3.721 -2.3211 -1.6220  0.0003
  369MOL0     H49761   9.001   8.563   3.830  1.0357  0.8191  0.8384
  369MOL0     H49762   8.965   8.722   4.040  0.8420  2.4673  0.7326
  369MOL0     H49763   8.892   8.834   3.921 -3.7382 -1.8766 -2.9513
  369MOL0     H49764   8.772   8.567   3.990 -1.4825  0.2863  1.5677
  369MOL0     H49765   8.728   8.679   3.854 -1.6030 -2.9928 -0.7696
  369MOL0     H49766   8.733   8.665   4.245 -2.3860 -3.2732 -0.8234
  369MOL0     H49767   8.420   8.809   4.365 -0.2675  1.6206  0.6537
  369MOL0     H49768   8.574   8.760   4.429 -0.5134  1.9576  1.3250
  369MOL0     H49769   8.479   8.985   4.502 -0.9649 -1.1167 -1.0298
  369MOL0     H49770   8.524   9.053   4.352 -1.5342  0.8619  0.3268
  369MOL0     H49771   8.700   9.118   4.506  1.2396 -0.1698  0.8680
  369MOL0     H49772   8.766   9.009   4.393 -1.6513  1.1565 -1.7234
  369MOL0     H49773   8.836   8.965   4.648  0.6454 -2.1319  0.0068
  369MOL0     H49774   8.756   8.827   4.567  0.6949  0.2259 -2.8682
  369MOL0     H49775   8.813   8.741   4.776  0.0323 -1.0076  1.1480
  369MOL0     H49776   8.738   8.405   4.815  0.2137 -0.1947  0.3191
  369MOL0     H49777   8.866   8.525   4.838 -1.2425 -0.4807 -1.5437
  369MOL0     H49778   8.774   8.482   4.977  2.3485  4.6546  0.8966
  369MOL0     H49779   8.087   8.420   4.893  5.3034  1.5544 -3.3269
  369MOL0     H49780   7.934   8.232   4.951  0.6690 -2.0848 -1.9740
  369MOL0     H49781   7.802   8.121   5.100 -3.1346  0.5028 -4.1452
  369MOL0     H49782   7.858   8.017   4.952 -0.5307 -3.4017  0.4875
  369MOL0     H49783   7.847   7.813   5.095  1.7544  1.4777 -1.2597
  369MOL0     H49784   7.814   7.913   5.228 -1.8909 -2.3531  0.2108
  369MOL0     H49785   7.601   7.791   5.151  0.4246 -0.6922 -1.2929
  369MOL0     H49786   7.621   7.859   4.998  0.1184 -0.7322 -0.1573
  369MOL0     H49787   7.603   8.055   5.231  0.9297  0.9881  0.1594
  369MOL0     H49788   7.572   8.085   5.062  1.5017 -0.3120  1.5243
  369MOL0     H49789   7.391   7.890   5.203 -0.7736  0.4674  1.9592
  369MOL0     H49790   7.380   7.978   5.043 -3.9786  1.8786  1.7100
  369MOL0     H49791   7.378   8.106   5.331 -5.8895  0.3984  3.5927
  369MOL0     H49792   7.330   8.183   5.170 -2.0643 -0.5792 -0.2845
  369MOL0     H49793   7.162   8.089   5.358  1.2161 -0.8572  0.1054
  369MOL0     H49794   7.185   7.937   5.274  1.8371  0.4401 -0.3407
  369MOL0     H49795   7.123   8.004   5.062 -1.5120 -2.3207  0.6167
  369MOL0     H49796   7.088   8.171   5.134  1.5681 -0.9119 -1.0460
  369MOL0     H49797   8.249   8.022   5.145  0.3456  0.6441  1.2351
  369MOL0     H49798   8.403   8.185   5.079 -0.4226 -3.6989 -1.3515
  369MOL0     H49799   8.326   8.648   4.840  0.0230  0.0928  2.4546
  369MOL0     H49800   8.405   8.850   4.734  0.0101  0.1380 -0.1927
  369MOL0     H49801   9.747   8.991   3.492 -0.1499  1.8811  1.0254
  369MOL0     H49802   9.982   9.028   3.458 -1.5225  1.6895  1.1167
  369MOL0     H49803  10.406   8.871   3.309 -1.0347  0.5478 -0.7316
  369MOL0     H49804  10.629   8.939   3.281 -1.6621 -1.5535  0.2396
  369MOL0     H49805  10.838   8.996   3.309  1.8791 -0.5234  0.1311
  369MOL0     H49806  10.749   9.148   3.261 -1.2066  0.8520  3.1395
  369MOL0     H49807  10.926   9.269   3.388 -0.5310 -0.3877  0.1810
  369MOL0     H49808  10.963   9.215   3.221  4.4057  3.0450  1.2650
  369MOL0     H49809  11.059   9.070   3.486  2.2009  2.5536  0.9922
  369MOL0     H49810  11.165   9.171   3.409  1.7027 -1.7997 -0.7945
  369MOL0     H49811  11.055   8.939   3.256 -0.4479  0.3618  1.6052
  369MOL0     H49812  11.203   8.938   3.359 -0.6405  1.0226  2.6076
  369MOL0     H49813  11.323   9.156   3.017 -0.8843 -0.8216 -1.4847
  369MOL0     H49814  10.630   9.113   3.670  3.2730 -1.3567 -1.4446
  369MOL0     H49815  10.387   9.028   3.708  2.0603 -0.8254  1.0087
  370MOL0     O49816   4.719   3.297   9.186 -0.1199  0.1032 -0.4156
  370MOL0     C49817   4.671   3.356   9.283 -0.2303 -0.1701 -0.0364
  370MOL0     O49818   4.746   3.414   9.386 -0.7602 -0.3855 -0.1738
  370MOL0     C49819   4.882   3.428   9.391 -0.5435  0.6362  0.1645
  370MOL0     C49820   4.972   3.384   9.296  0.2199  0.0832 -0.5838
  370MOL0     C49821   5.108   3.417   9.298 -0.6870 -0.8897 -0.3201
  370MOL0     C49822   5.154   3.500   9.399 -0.7340  0.4618  0.1537
  370MOL0     O49823   5.288   3.536   9.395 -0.3203  0.3444 -0.0506
  370MOL0     C49824   5.369   3.515   9.511  0.2912 -0.7912 -0.1814
  370MOL0     C49825   5.524   3.525   9.497  0.4830 -0.2055 -0.3160
  370MOL0     C49826   5.586   3.463   9.372 -0.2235 -0.8308  0.3151
  370MOL0     C49827   5.561   3.314   9.372  0.0611 -0.5166  0.3744
  370MOL0     C49828   5.614   3.279   9.232  0.0040 -0.4930 -0.9054
  370MOL0     C49829   5.582   3.132   9.214  0.9124 -0.0911 -0.0601
  370MOL0     C49830   5.434   3.099   9.202  0.5411 -0.2573  0.0771
  370MOL0     C49831   5.417   2.948   9.176  0.4483 -0.0459  0.0262
  370MOL0     N49832   5.270   2.926   9.173 -0.2888 -0.0777 -1.2392
  370MOL0     C49833   5.176   2.981   9.103  0.7474 -0.5182 -0.2904
  370MOL0     C49834   5.054   2.944   9.163 -0.1900  0.0003  0.2102
  370MOL0     C49835   4.918   3.001   9.126  0.9632 -0.3339  0.8722
  370MOL0     C49836   4.835   2.906   9.033 -0.0112  0.0039 -0.0121
  370MOL0     C49837   4.735   2.986   8.948 -0.0728 -0.8856 -0.5895
  370MOL0     C49838   4.602   3.004   9.021 -0.6593 -0.1504  0.3243
  370MOL0     O49839   4.496   3.049   8.933 -0.3605 -0.4409  0.4001
  370MOL0     C49840   4.362   3.051   8.963  0.9966 -0.2808 -0.6457
  370MOL0     C49841   4.308   2.995   9.080  0.5089  0.4855 -0.8684
  370MOL0     C49842   4.173   2.994   9.110  0.9743 -0.0017  0.4610
  370MOL0     C49843   4.131   2.912   9.232  0.0605  0.2064  0.0435
  370MOL0     C49844   4.080   3.072   9.022 -0.4145 -0.1672  0.1699
  370MOL0     C49845   3.935   3.087   9.055 -0.0581  0.7000 -0.9019
  370MOL0     O49846   3.856   3.125   8.948 -0.3644  0.4493  0.3083
  370MOL0     C49847   3.741   3.184   8.984 -0.3668  0.1844  0.7883
  370MOL0     C49848   3.619   3.110   9.013  0.9479  0.0794 -0.2766
  370MOL0     C49849   3.500   3.175   9.061  0.5560  0.3241  0.5836
  370MOL0     C49850   3.506   3.314   9.084 -0.7306  0.0838  0.2229
  370MOL0     O49851   3.407   3.398   9.127 -0.4470 -0.1311 -0.0291
  370MOL0     C49852   3.289   3.326   9.171 -0.0880  1.0019 -0.8195
  370MOL0     C49853   3.191   3.424   9.241  0.4013  0.1279  0.9911
  370MOL0     C49854   3.058   3.365   9.282 -0.1694  0.7796  0.4549
  370MOL0     C49855   2.953   3.461   9.338 -0.0731 -0.4359 -0.0297
  370MOL0     C49856   2.803   3.425   9.324  0.4915 -0.2467  0.4271
  370MOL0     C49857   2.706   3.539   9.358  0.5226  0.5154  0.0131
  370MOL0     C49858   2.559   3.502   9.368 -0.3928 -0.7790  0.6917
  370MOL0     C49859   2.510   3.358   9.378  0.1014  0.1286  0.3222
  370MOL0    Cl49860   2.535   3.289   9.542  0.1322 -0.1293 -0.3229
  370MOL0     C49861   3.627   3.382   9.044  0.7464  0.1603 -0.3415
  370MOL0     C49862   3.742   3.318   9.001  0.1889  0.2846 -0.2167
  370MOL0     O49863   3.888   3.074   9.172  0.0414 -0.7781  0.0261
  370MOL0     C49864   4.130   3.118   8.901 -0.4164  0.2923  0.8251
  370MOL0     C49865   4.267   3.099   8.866 -0.1828  0.3072  0.3525
  370MOL0     N49866   5.078   2.866   9.271 -0.5157 -0.6097 -0.6738
  370MOL0     N49867   5.211   2.853   9.274 -0.0763 -0.0568 -0.0503
  370MOL0     C49868   5.073   3.538   9.504 -0.1254  0.0519 -0.2257
  370MOL0     C49869   4.937   3.504   9.496  0.1025 -0.7071  0.0169
  370MOL0     C49870   4.525   3.370   9.293 -0.4341  0.0101 -0.8944
  370MOL0     C49871   4.483   3.466   9.387  0.7277 -0.1183  0.4317
  370MOL0     C49872   4.343   3.479   9.411  0.3024  0.4884 -0.1619
  370MOL0     C49873   4.250   3.405   9.339  0.3462 -0.4786 -0.6302
  370MOL0     O49874   4.118   3.421   9.382  0.1861 -0.0259  0.2255
  370MOL0     C49875   4.021   3.351   9.317 -0.2267  0.5166  0.3026
  370MOL0     C49876   3.887   3.385   9.379 -0.7594  0.0525  0.1727
  370MOL0     C49877   3.873   3.542   9.368  0.1539 -0.1750  0.4029
  370MOL0     C49878   3.733   3.588   9.408  0.5594 -0.2034 -0.9335
  370MOL0     C49879   3.714   3.568   9.548 -0.2645  0.1404 -0.4537
  370MOL0     C49880   3.668   3.540   9.659  0.8585 -0.3300 -0.1656
  370MOL0     C49881   4.300   3.314   9.245  1.0541 -0.7757 -0.3899
  370MOL0     C49882   4.434   3.295   9.222  0.6551 -0.5403  0.3858
  370MOL0     H49883   4.943   3.317   9.215  1.8570 -2.2175  0.6204
  370MOL0     H49884   5.188   3.373   9.239  0.8388  1.1236  0.1377
  370MOL0     H49885   5.350   3.589   9.590 -1.7153  0.0168 -1.3467
  370MOL0     H49886   5.357   3.417   9.558  0.0610  0.6044  2.9267
  370MOL0     H49887   5.558   3.628   9.504 -1.1629  0.6519 -3.3070
  370MOL0     H49888   5.569   3.481   9.587  1.9820  1.9022  0.0391
  370MOL0     H49889   5.553   3.514   9.281 -0.4461 -1.2741  0.1475
  370MOL0     H49890   5.695   3.471   9.370 -0.2534 -0.4254 -1.5778
  370MOL0     H49891   5.628   3.270   9.447  2.5082  1.6596 -0.3742
  370MOL0     H49892   5.457   3.286   9.390  0.5909 -3.2087 -0.3124
  370MOL0     H49893   5.577   3.340   9.150  0.8727 -0.0992 -1.0061
  370MOL0     H49894   5.723   3.290   9.232 -0.1719  1.7075 -1.2180
  370MOL0     H49895   5.636   3.087   9.130  0.1579 -1.0020 -0.0736
  370MOL0     H49896   5.615   3.075   9.302 -2.9044 -2.6974 -0.0361
  370MOL0     H49897   5.385   3.120   9.297  1.1881  2.3769 -0.0844
  370MOL0     H49898   5.390   3.170   9.131  0.5543 -0.3518 -0.0259
  370MOL0     H49899   5.463   2.878   9.246 -2.3422 -1.2931  0.7642
  370MOL0     H49900   5.447   2.930   9.072 -2.3691 -2.1956 -0.5423
  370MOL0     H49901   5.182   3.057   9.026 -1.0415  1.5504  1.5110
  370MOL0     H49902   4.860   3.031   9.214  1.8194  0.6239  1.1407
  370MOL0     H49903   4.933   3.097   9.075  1.1966 -1.3470 -1.0206
  370MOL0     H49904   4.791   2.824   9.091 -0.0029 -0.7994 -1.1272
  370MOL0     H49905   4.900   2.849   8.967  0.8003  0.1510  0.6437
  370MOL0     H49906   4.714   2.929   8.857 -4.2569  0.0558 -0.3953
  370MOL0     H49907   4.776   3.082   8.914  1.1126  0.0376  2.9861
  370MOL0     H49908   4.616   3.078   9.100 -0.5814 -1.1840  1.3101
  370MOL0     H49909   4.564   2.918   9.078 -2.9009  1.1744  0.9501
  370MOL0     H49910   4.376   2.955   9.154  1.7123  1.1169 -1.5968
  370MOL0     H49911   4.221   2.855   9.258  1.4578  1.6326 -1.4132
  370MOL0     H49912   4.107   2.982   9.313 -0.1155  1.9744 -1.4725
  370MOL0     H49913   4.048   2.844   9.214 -0.1282 -0.2814  2.4078
  370MOL0     H49914   3.614   3.003   8.998 -0.8954  0.0190  0.5516
  370MOL0     H49915   3.410   3.115   9.058 -0.1322  1.3351 -1.5355
  370MOL0     H49916   3.244   3.283   9.081  3.1728 -0.0061 -2.0864
  370MOL0     H49917   3.317   3.245   9.238  0.4237  2.3696  0.7083
  370MOL0     H49918   3.246   3.452   9.331  2.5886 -1.4252  0.2253
  370MOL0     H49919   3.163   3.512   9.182 -2.5332 -1.0318  0.5235
  370MOL0     H49920   3.085   3.294   9.360  0.3611  0.7103  0.2099
  370MOL0     H49921   3.009   3.307   9.203  0.3783 -1.1673  1.5099
  370MOL0     H49922   2.969   3.478   9.445 -0.3145  2.4580 -0.3706
  370MOL0     H49923   2.972   3.560   9.295  0.8897 -1.3430 -1.7807
  370MOL0     H49924   2.780   3.337   9.385 -1.7243 -1.0212 -1.3909
  370MOL0     H49925   2.772   3.405   9.221 -1.5217 -0.4292  1.0338
  370MOL0     H49926   2.743   3.565   9.458 -1.8452 -0.7116  1.3070
  370MOL0     H49927   2.718   3.620   9.286  0.7573 -2.5762 -3.7590
  370MOL0     H49928   2.514   3.537   9.275  1.7030 -0.4416 -0.2348
  370MOL0     H49929   2.513   3.550   9.455 -1.7006  0.5089 -0.6445
  370MOL0     H49930   2.556   3.292   9.305 -0.4824  1.3753 -1.2274
  370MOL0     H49931   2.402   3.346   9.360 -0.0065 -0.7354  1.3783
  370MOL0     H49932   3.635   3.490   9.052 -0.9950  0.2830  0.0817
  370MOL0     H49933   3.832   3.376   8.982  1.5812 -0.4146  3.3995
  370MOL0     H49934   4.079   3.165   8.818  0.8946  2.0206  0.9186
  370MOL0     H49935   4.310   3.127   8.771 -0.2698 -0.6255  0.0216
  370MOL0     H49936   5.110   3.604   9.582  1.2546 -1.0818  0.1162
  370MOL0     H49937   4.866   3.539   9.570 -0.8970 -2.9506  0.2047
  370MOL0     H49938   4.554   3.519   9.449 -0.7164  0.7677  1.3733
  370MOL0     H49939   4.304   3.547   9.487  1.0219 -1.2585  1.8616
  370MOL0     H49940   4.019   3.368   9.209 -0.1100 -0.2637  0.1689
  370MOL0     H49941   4.041   3.246   9.339  1.1242  0.9350  1.1800
  370MOL0     H49942   3.894   3.362   9.486  2.5168 -0.2921 -0.0265
  370MOL0     H49943   3.804   3.328   9.335  1.7320 -2.3884 -1.6875
  370MOL0     H49944   3.886   3.560   9.261  0.4213 -3.4015 -0.2154
  370MOL0     H49945   3.950   3.588   9.430  1.5578 -1.2613 -0.4434
  370MOL0     H49946   3.658   3.527   9.357  1.6060 -2.1473 -0.2705
  370MOL0     H49947   3.715   3.694   9.388  0.9309  0.4021  1.6731
  370MOL0     H49948   3.614   3.548   9.751 -0.1739  1.1260 -0.8454
  370MOL0     H49949   4.238   3.265   9.171  0.4964  2.2534 -2.1150
  370MOL0     H49950   4.465   3.234   9.137  2.2545  1.9046 -0.8802
  371MOL0     O49951   6.731  11.138   9.782 -0.4439  0.6575 -0.0951
  371MOL0     C49952   6.842  11.092   9.831  0.1766  0.2195  0.4187
  371MOL0     O49953   6.856  10.974   9.884 -0.5300  0.7636  1.0295
  371MOL0     C49954   6.749  10.885   9.848 -0.6147  0.3028 -0.2235
  371MOL0     C49955   6.740  10.829   9.717  0.2819  0.1619 -0.1937
  371MOL0     C49956   6.631  10.740   9.688  0.6679  0.6618 -0.3913
  371MOL0     C49957   6.538  10.699   9.788  0.0032  0.6929  0.6332
  371MOL0     O49958   6.446  10.607   9.748 -0.3323 -0.8469 -0.6747
  371MOL0     C49959   6.317  10.644   9.793  0.4416 -0.4408  0.9219
  371MOL0     C49960   6.210  10.551   9.726 -0.0273  0.0529 -0.0302
  371MOL0     C49961   6.192  10.412   9.802 -0.1561  0.1463  0.4614
  371MOL0     C49962   6.120  10.436   9.942 -0.0379  0.0256  0.1038
  371MOL0     C49963   5.975  10.377   9.933 -0.7561  0.9596  0.2221
  371MOL0     C49964   5.905  10.394  10.073  0.3230 -0.0996  0.3760
  371MOL0     C49965   5.769  10.327  10.074  0.5689 -0.6242  0.2117
  371MOL0     C49966   5.712  10.311  10.220  0.2564  0.3821  1.1203
  371MOL0     N49967   5.574  10.367  10.226 -0.2790 -0.2431  0.2456
  371MOL0     C49968   5.543  10.505  10.224 -0.5249  0.8903 -0.0344
  371MOL0     C49969   5.404  10.507  10.227 -0.3424  0.1486 -0.6267
  371MOL0     C49970   5.314  10.628  10.213  0.7681  0.1064  1.0660
  371MOL0     C49971   5.209  10.608  10.104  0.1676  0.1770  0.4592
  371MOL0     C49972   5.142  10.738  10.069  0.1447  1.1022 -0.6838
  371MOL0     C49973   5.086  10.812  10.186  0.2133 -0.4684 -0.3968
  371MOL0     O49974   5.033  10.943  10.148 -0.5289  0.1107  0.5741
  371MOL0     C49975   4.908  10.935  10.092  0.0181 -0.0024  0.2778
  371MOL0     C49976   4.822  10.819  10.069 -0.3915  0.2677 -0.4840
  371MOL0     C49977   4.698  10.831  10.003 -0.0912  0.3588 -1.3125
  371MOL0     C49978   4.627  10.696   9.983  0.6649 -0.8885 -0.6292
  371MOL0     C49979   4.650  10.959   9.953 -0.0718  0.3009 -0.5810
  371MOL0     C49980   4.517  10.981   9.897  0.0913  0.7999  0.3012
  371MOL0     O49981   4.484  11.114   9.897  0.1243 -0.2443 -0.7110
  371MOL0     C49982   4.346  11.141   9.878 -0.1138  0.7938 -0.1558
  371MOL0     C49983   4.237  11.090   9.941  0.1201  0.7359  0.2862
  371MOL0     C49984   4.108  11.127   9.911  0.3754  0.3385  0.7682
  371MOL0     C49985   4.088  11.243   9.829  0.8635 -0.0636  0.3818
  371MOL0     O49986   3.955  11.286   9.809 -0.2942  0.3546  0.0536
  371MOL0     C49987   3.844  11.222   9.868  0.1225  0.2203  0.0638
  371MOL0     C49988   3.726  11.294   9.807  0.6514  0.0595  0.2105
  371MOL0     C49989   3.602  11.237   9.876 -0.1983 -0.6019 -0.3382
  371MOL0     C49990   3.483  11.330   9.864 -0.2009  0.3354  0.1443
  371MOL0     C49991   3.358  11.275   9.938 -0.0843  0.0860  0.5653
  371MOL0     C49992   3.358  11.262  10.093  0.0213 -0.4592 -0.3489
  371MOL0     C49993   3.412  11.379  10.180 -0.2705 -0.4064  0.2350
  371MOL0     C49994   3.309  11.488  10.200 -0.4690 -1.0391 -1.0449
  371MOL0    Cl49995   3.176  11.441  10.307 -0.1418  0.4932 -0.3879
  371MOL0     C49996   4.201  11.305   9.777  0.5352 -0.5814 -0.8366
  371MOL0     C49997   4.326  11.254   9.803 -0.1061 -0.4460 -0.5884
  371MOL0     O49998   4.448  10.885   9.857  0.3043 -0.4162  0.4078
  371MOL0     C49999   4.734  11.070   9.974  0.0269 -0.0528  0.9246
  371MOL0     C50000   4.856  11.055  10.041 -1.0626  0.0187 -0.0462
  371MOL0     N50001   5.359  10.375  10.230 -0.6914 -0.4752 -0.2398
  371MOL0     N50002   5.460  10.294  10.238  0.0389 -1.0055 -0.8285
  371MOL0     C50003   6.561  10.740   9.917 -0.1440  0.6846 -1.3035
  371MOL0     C50004   6.663  10.835   9.947 -0.7650  0.0382 -0.0413
  371MOL0     C50005   6.964  11.182   9.811  0.0932 -0.0288 -0.4415
  371MOL0     C50006   6.941  11.317   9.774 -0.1520 -0.0929  0.7461
  371MOL0     C50007   7.047  11.404   9.761 -0.2340  0.4350  0.6709
  371MOL0     C50008   7.177  11.364   9.772 -0.7892  1.5028 -0.9648
  371MOL0     O50009   7.272  11.461   9.759  1.1444 -0.0305  0.2493
  371MOL0     C50010   7.409  11.435   9.767 -0.6707 -0.1043  0.3926
  371MOL0     C50011   7.496  11.561   9.800  0.3682  0.9836 -0.1814
  371MOL0     C50012   7.645  11.566   9.756  0.6939  1.5540 -0.8521
  371MOL0     C50013   7.750  11.540   9.865  0.1342 -0.7654  0.1760
  371MOL0     C50014   7.879  11.586   9.824 -0.3656  0.6704  0.1241
  371MOL0     C50015   7.986  11.626   9.784 -0.1774 -0.1704  0.4538
  371MOL0     C50016   7.201  11.227   9.806  0.5971 -0.1472 -0.1925
  371MOL0     C50017   7.097  11.137   9.838  0.8434 -0.6560 -0.6197
  371MOL0     H50018   6.805  10.872   9.642 -1.0041 -0.2940 -1.6345
  371MOL0     H50019   6.614  10.703   9.588  2.2550  0.1413 -0.5073
  371MOL0     H50020   6.315  10.644   9.903 -1.3266  3.1393  1.0397
  371MOL0     H50021   6.296  10.747   9.764  1.2840 -0.9643 -1.7769
  371MOL0     H50022   6.114  10.601   9.717  0.3583  0.5996 -1.3615
  371MOL0     H50023   6.242  10.536   9.622  1.6608 -0.0123  0.4605
  371MOL0     H50024   6.122  10.354   9.741  1.2573 -1.0549 -0.0891
  371MOL0     H50025   6.280  10.347   9.808 -1.3330 -1.5006  0.5515
  371MOL0     H50026   6.174  10.386  10.022  1.3636  3.0099  1.1884
  371MOL0     H50027   6.107  10.542   9.969  1.2846  0.1961  0.1123
  371MOL0     H50028   5.926  10.427   9.849  0.2575 -1.7673 -2.2067
  371MOL0     H50029   5.978  10.271   9.906 -0.6785  0.6929  1.2289
  371MOL0     H50030   5.961  10.347  10.155 -0.5471  2.0021  2.2605
  371MOL0     H50031   5.903  10.498  10.105  0.5234 -0.6893  2.4048
  371MOL0     H50032   5.696  10.371  10.006  0.0234 -0.5708  0.8184
  371MOL0     H50033   5.780  10.224  10.039  0.6013 -1.1103  1.5976
  371MOL0     H50034   5.775  10.349  10.300 -0.6170 -2.2611  3.1950
  371MOL0     H50035   5.700  10.204  10.238 -1.6292  0.5094  0.8075
  371MOL0     H50036   5.622  10.574  10.198  0.8239 -1.2424 -2.0117
  371MOL0     H50037   5.252  10.641  10.301 -2.5182  0.5193 -1.1281
  371MOL0     H50038   5.376  10.715  10.191  0.3311  0.7416  2.2770
  371MOL0     H50039   5.136  10.538  10.144  1.2438 -0.0932  2.0543
  371MOL0     H50040   5.247  10.573  10.008  0.3316 -1.0887  0.9671
  371MOL0     H50041   5.060  10.721   9.999 -1.9038  0.1479  1.7839
  371MOL0     H50042   5.216  10.802  10.020  1.0469  0.2833 -0.4157
  371MOL0     H50043   5.165  10.830  10.260 -2.2317  1.2022  2.0330
  371MOL0     H50044   5.014  10.747  10.238  1.4954 -0.8539  0.9841
  371MOL0     H50045   4.842  10.721  10.110 -0.4401  0.9153  1.1614
  371MOL0     H50046   4.702  10.617   9.974  1.3351 -0.0528 -5.1880
  371MOL0     H50047   4.549  10.688  10.059 -1.5941 -0.3135 -2.7502
  371MOL0     H50048   4.578  10.684   9.885  2.2554  1.0559 -1.7381
  371MOL0     H50049   4.263  10.998   9.993  0.4335 -1.2440 -3.0426
  371MOL0     H50050   4.031  11.067   9.959  1.6004 -3.6689 -1.7478
  371MOL0     H50051   3.831  11.117   9.841  1.7087  0.6932 -2.9396
  371MOL0     H50052   3.845  11.239   9.976  1.0808  2.0219 -0.1874
  371MOL0     H50053   3.727  11.403   9.820 -2.2637  0.1663  0.2085
  371MOL0     H50054   3.708  11.271   9.702 -1.9295  2.5947 -0.0381
  371MOL0     H50055   3.627  11.226   9.982 -1.2522 -1.9009 -0.2097
  371MOL0     H50056   3.574  11.139   9.838 -2.4796 -0.1896  0.1365
  371MOL0     H50057   3.507  11.423   9.915 -1.5457  0.7727  0.0235
  371MOL0     H50058   3.450  11.337   9.759 -2.5388 -1.2347  0.6886
  371MOL0     H50059   3.336  11.174   9.902 -2.7775  0.2457  1.5510
  371MOL0     H50060   3.268  11.333   9.914 -0.2600  0.7594  2.6147
  371MOL0     H50061   3.265  11.229  10.141  1.6977  0.3870  4.0321
  371MOL0     H50062   3.430  11.181  10.111  0.6241  0.1295 -0.0778
  371MOL0     H50063   3.500  11.431  10.139 -1.7158  0.1690 -2.3282
  371MOL0     H50064   3.430  11.341  10.281 -1.8161  0.4459  0.8646
  371MOL0     H50065   3.284  11.532  10.102 -1.5273 -0.8188 -0.6841
  371MOL0     H50066   3.356  11.567  10.259 -1.9887 -1.7979  1.2764
  371MOL0     H50067   4.188  11.391   9.713 -1.9518 -0.1280  0.1592
  371MOL0     H50068   4.417  11.305   9.772 -0.3378  1.6681  1.9441
  371MOL0     H50069   4.700  11.167   9.939  1.3474 -0.3537 -1.3857
  371MOL0     H50070   4.921  11.141  10.056  1.2337 -1.4761 -0.8714
  371MOL0     H50071   6.493  10.718   9.998  1.8046 -0.0830  0.1880
  371MOL0     H50072   6.668  10.869  10.050 -0.9887 -1.6172  0.5588
  371MOL0     H50073   6.841  11.357   9.764 -0.8263 -1.4750  1.6736
  371MOL0     H50074   7.032  11.510   9.740 -3.5008  0.3890  2.2212
  371MOL0     H50075   7.433  11.362   9.845  1.0192 -0.7883 -0.6912
  371MOL0     H50076   7.434  11.392   9.669  2.7446  0.1610  1.0112
  371MOL0     H50077   7.487  11.580   9.907 -1.1433  0.6180 -0.2135
  371MOL0     H50078   7.449  11.643   9.745  1.2894  1.0608 -0.8875
  371MOL0     H50079   7.655  11.666   9.713 -1.2656  1.4950 -1.5493
  371MOL0     H50080   7.656  11.494   9.675 -3.2703 -0.9332  0.5019
  371MOL0     H50081   7.754  11.433   9.885 -2.1723 -1.8581 -3.9835
  371MOL0     H50082   7.728  11.605   9.950  1.3464  0.1349 -0.1616
  371MOL0     H50083   8.084  11.660   9.755 -0.2471 -0.1786  0.2123
  371MOL0     H50084   7.299  11.181   9.801  0.5531 -1.2463  4.4485
  371MOL0     H50085   7.111  11.038   9.879 -2.1513 -1.0004 -0.1851
  372MOL0     O50086   7.120   8.182  10.825  0.8467  0.3455  0.1418
  372MOL0     C50087   7.166   8.293  10.840 -0.6906 -0.5380 -0.6504
  372MOL0     O50088   7.099   8.413  10.828 -0.3536 -0.0114  0.2466
  372MOL0     C50089   6.967   8.419  10.817 -0.2230 -0.3427  0.2446
  372MOL0     C50090   6.878   8.345  10.901  0.6434  0.3971  0.2408
  372MOL0     C50091   6.736   8.365  10.897 -0.3592 -0.4236  0.7647
  372MOL0     C50092   6.677   8.451  10.804  0.3530 -0.2338 -0.0684
  372MOL0     O50093   6.540   8.460  10.791 -0.4432  0.0459  0.3205
  372MOL0     C50094   6.462   8.346  10.839  0.6423 -0.2759 -0.6648
  372MOL0     C50095   6.312   8.370  10.810  0.8836 -0.0209 -0.5391
  372MOL0     C50096   6.230   8.258  10.866  0.8607  0.0037  0.0319
  372MOL0     C50097   6.084   8.289  10.867  0.2641 -0.9524 -0.0426
  372MOL0     C50098   5.996   8.178  10.927  0.4487 -0.4353 -0.3618
  372MOL0     C50099   5.852   8.220  10.946  0.1602  0.5204  0.3849
  372MOL0     C50100   5.770   8.107  11.000 -0.3156  0.1272 -0.4960
  372MOL0     C50101   5.660   8.073  10.897 -0.8106 -0.0393  0.3111
  372MOL0     N50102   5.560   7.970  10.930  0.0106 -0.0754 -0.1368
  372MOL0     C50103   5.595   7.837  10.937 -0.7307  0.4195  0.1183
  372MOL0     C50104   5.480   7.775  10.976  0.8855  0.1264  0.2478
  372MOL0     C50105   5.478   7.630  11.015  0.2775 -0.1431 -0.1393
  372MOL0     C50106   5.507   7.527  10.902 -1.8181  1.4207 -0.9108
  372MOL0     C50107   5.563   7.397  10.962  0.9841  0.1289  0.1686
  372MOL0     C50108   5.463   7.308  11.039 -0.9969  0.2266 -0.1962
  372MOL0     O50109   5.362   7.261  10.948 -0.8022  1.2238 -0.7948
  372MOL0     C50110   5.249   7.203  10.994 -0.9775  0.9050  0.0594
  372MOL0     C50111   5.180   7.133  10.893 -0.0085 -0.0997  0.6079
  372MOL0     C50112   5.075   7.048  10.934  0.5148 -0.2066 -0.7754
  372MOL0     C50113   5.014   6.959  10.828  0.7493 -0.1205  1.0783
  372MOL0     C50114   5.024   7.043  11.067 -0.4339 -0.2653  0.2465
  372MOL0     C50115   4.901   6.978  11.109 -0.8024 -0.0139 -0.2883
  372MOL0     O50116   4.846   7.027  11.227 -0.2341 -0.0742  0.0619
  372MOL0     C50117   4.723   6.978  11.253 -0.0204 -0.2714  0.1567
  372MOL0     C50118   4.692   6.869  11.347  0.0683 -0.6705 -0.5551
  372MOL0     C50119   4.562   6.825  11.366  0.1937 -0.4937  0.7728
  372MOL0     C50120   4.452   6.870  11.287 -0.6775  0.5555  0.3613
  372MOL0     O50121   4.337   6.799  11.311 -0.2392  0.7523  0.4385
  372MOL0     C50122   4.227   6.856  11.246 -0.0330  0.5878  0.2680
  372MOL0     C50123   4.094   6.796  11.274 -0.9635 -0.3843  0.0051
  372MOL0     C50124   3.994   6.835  11.165  0.4280 -0.6369  0.0628
  372MOL0     C50125   3.864   6.747  11.191  0.1990 -0.7154  0.8347
  372MOL0     C50126   3.743   6.785  11.096 -0.3136  0.7274 -0.3006
  372MOL0     C50127   3.612   6.737  11.147  0.5665  0.0948  0.5836
  372MOL0     C50128   3.497   6.742  11.039 -0.4895 -0.9752  1.0364
  372MOL0     C50129   3.371   6.658  11.077 -0.7895  0.1213 -0.0996
  372MOL0    Cl50130   3.374   6.479  11.026  0.2445  0.3800  0.1255
  372MOL0     C50131   4.483   6.973  11.201 -0.3760 -1.1756  0.5983
  372MOL0     C50132   4.617   7.027  11.182  0.5702 -0.0506  0.5900
  372MOL0     O50133   4.850   6.885  11.045 -0.4187  0.2191 -0.3249
  372MOL0     C50134   5.086   7.119  11.162  0.7318 -0.8967 -0.1570
  372MOL0     C50135   5.203   7.195  11.130 -0.0291 -0.3315 -0.6413
  372MOL0     N50136   5.373   7.867  10.974  0.2263  0.1134 -0.5987
  372MOL0     N50137   5.423   7.987  10.956  0.3291  0.0227 -0.0073
  372MOL0     C50138   6.763   8.529  10.725 -0.6087  0.1691  1.0914
  372MOL0     C50139   6.902   8.509  10.729 -0.0530 -0.1438 -0.4251
  372MOL0     C50140   7.311   8.291  10.873  0.1381 -0.8570 -0.3688
  372MOL0     C50141   7.389   8.412  10.874 -0.1853 -0.0156  0.2253
  372MOL0     C50142   7.528   8.405  10.899  0.4926 -0.8055 -0.0217
  372MOL0     C50143   7.586   8.282  10.914 -1.6251  0.2217 -0.1428
  372MOL0     O50144   7.725   8.299  10.935  0.4809 -1.0823  0.9226
  372MOL0     C50145   7.818   8.192  10.947 -0.1495  0.4473  0.0331
  372MOL0     C50146   7.955   8.240  10.912  1.0964  0.2934 -0.4661
  372MOL0     C50147   8.005   8.330  11.028 -0.0451 -0.5083 -0.2948
  372MOL0     C50148   8.143   8.389  10.994  0.7695 -0.4525 -0.8582
  372MOL0     C50149   8.258   8.301  10.960 -0.6335  0.5616 -0.3092
  372MOL0     C50150   8.353   8.230  10.931  0.7319  0.1570 -0.1588
  372MOL0     C50151   7.517   8.158  10.912  0.3356 -0.6000  1.3184
  372MOL0     C50152   7.379   8.166  10.895 -0.0950 -0.7415  0.1870
  372MOL0     H50153   6.926   8.282  10.976  0.7720  0.5419  0.2804
  372MOL0     H50154   6.673   8.298  10.955 -4.1938  0.8049 -1.5957
  372MOL0     H50155   6.494   8.250  10.797  0.5054  0.5196 -2.7049
  372MOL0     H50156   6.473   8.343  10.948 -0.8409  1.2319 -0.4335
  372MOL0     H50157   6.278   8.464  10.855  1.8272  1.5703 -2.9337
  372MOL0     H50158   6.294   8.375  10.702 -0.2417 -2.6769 -0.5581
  372MOL0     H50159   6.248   8.163  10.814 -0.6461 -0.5093  0.4085
  372MOL0     H50160   6.253   8.228  10.969  0.3902 -0.9713 -0.1356
  372MOL0     H50161   6.067   8.367  10.942 -0.0490 -1.5970  0.5756
  372MOL0     H50162   6.044   8.329  10.774 -0.0817 -0.5711  0.2643
  372MOL0     H50163   5.993   8.089  10.863 -0.1436 -0.3207 -0.4971
  372MOL0     H50164   6.037   8.141  11.022  2.1579 -1.2697 -1.3564
  372MOL0     H50165   5.853   8.306  11.013 -2.5352  0.8433  0.1032
  372MOL0     H50166   5.800   8.260  10.858  1.2749 -0.7180 -0.8949
  372MOL0     H50167   5.832   8.020  11.022  1.1859  0.7230 -2.1450
  372MOL0     H50168   5.714   8.144  11.087 -1.6644  0.3362 -1.4215
  372MOL0     H50169   5.704   8.039  10.803  0.6462  0.7001  0.7095
  372MOL0     H50170   5.606   8.163  10.866 -0.6268 -0.4336 -1.2723
  372MOL0     H50171   5.691   7.788  10.931 -0.8956 -1.0365  5.0265
  372MOL0     H50172   5.539   7.610  11.104 -1.2815 -0.5607  0.8717
  372MOL0     H50173   5.376   7.609  11.048 -0.2473  0.4603 -1.3277
  372MOL0     H50174   5.581   7.561  10.829  0.8710 -2.7292 -0.4389
  372MOL0     H50175   5.411   7.505  10.854 -1.7052  0.2950 -0.6477
  372MOL0     H50176   5.649   7.414  11.028  1.6601  1.2226 -0.9419
  372MOL0     H50177   5.595   7.331  10.881 -0.9422 -2.4762  1.3865
  372MOL0     H50178   5.413   7.364  11.119 -1.5566  0.4026 -0.6574
  372MOL0     H50179   5.519   7.224  11.079 -0.7871 -1.1439 -3.1096
  372MOL0     H50180   5.216   7.132  10.791  1.1301 -2.8734  0.9557
  372MOL0     H50181   5.007   6.854  10.857  2.3740 -0.3509  0.7162
  372MOL0     H50182   4.918   7.000  10.797  0.6300 -0.5127  0.9187
  372MOL0     H50183   5.085   6.965  10.745  2.9096 -0.4944  2.7918
  372MOL0     H50184   4.776   6.832  11.405  1.3934 -0.2330 -2.1044
  372MOL0     H50185   4.559   6.755  11.449  0.9014 -1.9833 -0.4199
  372MOL0     H50186   4.216   6.960  11.280 -0.9379  0.4243  0.5016
  372MOL0     H50187   4.244   6.856  11.138 -2.0207  0.3405 -0.0802
  372MOL0     H50188   4.112   6.688  11.280 -0.2145 -0.1950  2.8753
  372MOL0     H50189   4.073   6.824  11.378  5.6932  1.9178  1.2401
  372MOL0     H50190   4.030   6.820  11.062  0.8018 -2.1808  0.3864
  372MOL0     H50191   3.974   6.941  11.182  0.3013 -1.1041  3.3628
  372MOL0     H50192   3.896   6.644  11.173  1.5490 -0.1932  0.0536
  372MOL0     H50193   3.823   6.758  11.292 -0.4375  0.1224  0.4953
  372MOL0     H50194   3.758   6.741  10.997 -1.0633  3.6093 -1.8309
  372MOL0     H50195   3.729   6.893  11.082 -3.3078  0.7177  1.7200
  372MOL0     H50196   3.615   6.639  11.195 -2.3580 -0.3419  0.0796
  372MOL0     H50197   3.588   6.808  11.227  0.0219 -1.2898  1.6929
  372MOL0     H50198   3.547   6.717  10.945 -0.2345  2.1658  0.2103
  372MOL0     H50199   3.460   6.845  11.046  1.9903  0.1828 -1.2458
  372MOL0     H50200   3.294   6.708  11.018  0.0342  0.9420 -0.4939
  372MOL0     H50201   3.360   6.667  11.185  0.5731 -0.0547  0.0704
  372MOL0     H50202   4.404   7.024  11.146  0.4763 -0.5867 -0.1092
  372MOL0     H50203   4.623   7.111  11.114 -0.3003  0.3227  0.9580
  372MOL0     H50204   5.043   7.136  11.260  0.2527  4.2492 -0.9592
  372MOL0     H50205   5.248   7.263  11.201 -1.3439 -1.1969  1.0729
  372MOL0     H50206   6.723   8.594  10.648 -0.5457 -1.9632 -0.8191
  372MOL0     H50207   6.964   8.571  10.666  0.4710 -0.4562 -0.2242
  372MOL0     H50208   7.333   8.504  10.866  1.5152  0.9538 -1.1644
  372MOL0     H50209   7.581   8.499  10.905 -0.6016 -0.2564  1.7376
  372MOL0     H50210   7.819   8.162  11.053 -0.9567  1.3431  0.3076
  372MOL0     H50211   7.799   8.101  10.889  1.9035  0.2380 -0.4060
  372MOL0     H50212   7.953   8.290  10.815  0.0972 -1.2573 -1.2738
  372MOL0     H50213   8.022   8.153  10.908  0.6554 -0.0037 -1.6126
  372MOL0     H50214   8.002   8.284  11.128  0.2577  0.5449  0.2130
  372MOL0     H50215   7.933   8.411  11.039 -1.1619 -1.8266  3.9656
  372MOL0     H50216   8.176   8.450  11.078  1.3908 -1.2395 -0.5286
  372MOL0     H50217   8.123   8.460  10.912 -0.4024  0.5472  0.2552
  372MOL0     H50218   8.434   8.166  10.901 -1.2381 -1.5577 -2.0876
  372MOL0     H50219   7.565   8.061  10.921 -0.6296 -1.0763  1.5011
  372MOL0     H50220   7.322   8.074  10.904 -2.0820  0.6490  3.3451
  373MOL0     O50221   6.041   3.128   1.493 -0.3185  0.1559 -0.0602
  373MOL0     C50222   6.080   3.188   1.397  0.5036  0.4341  0.2226
  373MOL0     O50223   6.011   3.274   1.331  0.3637 -0.0250 -0.3379
  373MOL0     C50224   5.878   3.304   1.346  0.3851 -0.1724 -1.0454
  373MOL0     C50225   5.829   3.428   1.309 -0.0405 -0.8132  0.3579
  373MOL0     C50226   5.697   3.467   1.312  0.1762  0.2831 -1.0079
  373MOL0     C50227   5.596   3.371   1.357 -0.4848 -0.1755  0.7589
  373MOL0     O50228   5.461   3.384   1.373 -0.0380  0.0940 -0.2748
  373MOL0     C50229   5.391   3.489   1.296 -1.1994  0.1162  0.8046
  373MOL0     C50230   5.257   3.505   1.370  0.0431  0.1084 -0.1565
  373MOL0     C50231   5.149   3.550   1.267 -0.2070  0.2567  0.1914
  373MOL0     C50232   5.002   3.546   1.325 -0.2496 -0.1268 -0.0773
  373MOL0     C50233   4.899   3.567   1.214  0.1084  0.5949 -0.2424
  373MOL0     C50234   4.754   3.602   1.256  0.0865 -0.3600 -0.2156
  373MOL0     C50235   4.701   3.494   1.342 -0.3280  0.2434  0.1915
  373MOL0     C50236   4.546   3.495   1.337 -0.4517  0.9049  1.4132
  373MOL0     N50237   4.486   3.609   1.407 -0.4905  0.4451  0.4277
  373MOL0     C50238   4.445   3.611   1.537  0.0309 -0.5820  1.2885
  373MOL0     C50239   4.402   3.740   1.559  0.1482  0.0601  0.9948
  373MOL0     C50240   4.340   3.785   1.689 -0.2172 -0.2609 -0.3587
  373MOL0     C50241   4.201   3.718   1.721  0.7445  0.2462  0.2727
  373MOL0     C50242   4.084   3.794   1.640  0.0062 -1.3758 -0.1475
  373MOL0     C50243   3.943   3.738   1.678  0.0380  0.2271 -0.2335
  373MOL0     O50244   3.840   3.771   1.585 -0.9372  0.4661  0.2910
  373MOL0     C50245   3.704   3.752   1.615  0.4473  0.1257  0.1667
  373MOL0     C50246   3.656   3.697   1.736 -0.8391 -1.1741  0.0700
  373MOL0     C50247   3.523   3.678   1.765 -0.6633 -0.6271 -0.0904
  373MOL0     C50248   3.502   3.612   1.896  0.0108 -0.7159 -0.4110
  373MOL0     C50249   3.425   3.730   1.682  0.6525  0.1600 -1.0132
  373MOL0     C50250   3.282   3.743   1.724 -0.4728 -0.9207 -0.2042
  373MOL0     O50251   3.207   3.758   1.616  0.1752 -0.3938  0.6570
  373MOL0     C50252   3.071   3.767   1.635 -0.1354  0.2180  0.0344
  373MOL0     C50253   3.004   3.877   1.572 -0.4129  0.7240 -0.1921
  373MOL0     C50254   2.869   3.891   1.573  0.4453  0.1948  0.5411
  373MOL0     C50255   2.786   3.797   1.646  0.2310  1.0769  0.3604
  373MOL0     O50256   2.650   3.814   1.649 -0.2336  0.2691  0.3493
  373MOL0     C50257   2.559   3.710   1.687 -0.1772  0.5915  0.3473
  373MOL0     C50258   2.423   3.725   1.607  0.1963  0.2882 -0.9140
  373MOL0     C50259   2.308   3.774   1.703 -0.4651  0.1644 -0.4901
  373MOL0     C50260   2.180   3.773   1.628  0.0028 -0.0553  0.1629
  373MOL0     C50261   2.062   3.761   1.726 -0.8305  0.6758  0.0665
  373MOL0     C50262   1.930   3.726   1.645 -0.3622 -1.0494  0.2595
  373MOL0     C50263   1.822   3.729   1.755 -0.3566 -1.1945  0.6402
  373MOL0     C50264   1.689   3.668   1.716 -1.3926 -0.6988 -0.7673
  373MOL0    Cl50265   1.605   3.778   1.605  0.2294  0.1508  0.2720
  373MOL0     C50266   2.855   3.690   1.699 -0.2308 -0.1566 -0.1725
  373MOL0     C50267   2.992   3.671   1.702  0.2330 -0.5813  0.3368
  373MOL0     O50268   3.240   3.732   1.837  0.2636  0.2998 -0.4028
  373MOL0     C50269   3.470   3.792   1.565 -0.0056  0.2971 -0.6308
  373MOL0     C50270   3.608   3.792   1.523 -0.1505 -0.9985 -0.4857
  373MOL0     N50271   4.421   3.811   1.434 -0.5433 -0.0311  0.1567
  373MOL0     N50272   4.477   3.725   1.348  1.1859  0.1930 -0.2907
  373MOL0     C50273   5.637   3.243   1.385 -0.7359 -0.3277 -0.1231
  373MOL0     C50274   5.779   3.218   1.391 -0.8106 -0.6515  0.7666
  373MOL0     C50275   6.223   3.185   1.380  0.7883  0.3696  0.0340
  373MOL0     C50276   6.301   3.080   1.426 -0.9800  0.7951  0.3948
  373MOL0     C50277   6.439   3.086   1.414  0.3697 -0.2382 -0.6056
  373MOL0     C50278   6.505   3.196   1.357 -0.6561  0.3218  0.4301
  373MOL0     O50279   6.646   3.192   1.328  0.4868 -0.0340  0.5093
  373MOL0     C50280   6.703   3.069   1.289  0.5153 -0.0076 -0.1943
  373MOL0     C50281   6.813   3.029   1.395 -0.2726 -0.3571  0.9059
  373MOL0     C50282   6.943   3.120   1.378  0.0417  0.5853 -0.3634
  373MOL0     C50283   6.947   3.227   1.492  0.4716 -0.0453  0.2733
  373MOL0     C50284   7.082   3.285   1.490  0.3913 -0.2038 -0.2248
  373MOL0     C50285   7.198   3.322   1.520  1.0395 -0.2857 -0.1674
  373MOL0     C50286   6.430   3.299   1.311 -0.1357  0.4496 -0.5855
  373MOL0     C50287   6.291   3.298   1.325  0.4210 -0.8201 -0.0419
  373MOL0     H50288   5.895   3.510   1.284 -0.2350 -1.5372 -2.9466
  373MOL0     H50289   5.673   3.573   1.304  2.0133  0.5701 -4.2690
  373MOL0     H50290   5.439   3.587   1.281 -0.0731 -0.6425 -0.9087
  373MOL0     H50291   5.363   3.446   1.199 -0.1851  0.3173  0.4064
  373MOL0     H50292   5.232   3.409   1.417 -0.7347 -1.8580 -4.1254
  373MOL0     H50293   5.258   3.574   1.455 -0.8062 -0.8128  0.6273
  373MOL0     H50294   5.172   3.649   1.227  0.0109 -0.4316 -1.4884
  373MOL0     H50295   5.150   3.480   1.182 -2.7372  0.9458 -0.4925
  373MOL0     H50296   4.996   3.450   1.377  3.0022 -0.7843 -0.7246
  373MOL0     H50297   4.995   3.628   1.398 -0.1035  0.5042 -0.7607
  373MOL0     H50298   4.924   3.656   1.155 -0.1818  0.2442 -0.9109
  373MOL0     H50299   4.910   3.475   1.155 -1.4018 -0.1061  0.5386
  373MOL0     H50300   4.753   3.693   1.316  0.2679 -0.9046  0.6370
  373MOL0     H50301   4.687   3.612   1.171 -0.7419 -0.0831  0.4600
  373MOL0     H50302   4.747   3.403   1.304  2.2484  1.5859 -0.0849
  373MOL0     H50303   4.740   3.509   1.443 -0.3346  0.5620  0.1502
  373MOL0     H50304   4.509   3.404   1.386 -0.3458  0.3932  0.5725
  373MOL0     H50305   4.515   3.487   1.232  1.7303 -0.0045  0.7701
  373MOL0     H50306   4.442   3.534   1.613 -1.7324 -2.1489 -0.2826
  373MOL0     H50307   4.420   3.769   1.763  1.0620  0.6762 -1.4799
  373MOL0     H50308   4.328   3.893   1.688  1.5952 -0.0180 -1.6743
  373MOL0     H50309   4.181   3.722   1.829  1.2259  0.8867  0.3457
  373MOL0     H50310   4.208   3.612   1.696  0.4387  0.7566 -2.2285
  373MOL0     H50311   4.091   3.770   1.534  1.2852  3.4931 -1.4168
  373MOL0     H50312   4.090   3.903   1.651  0.5555 -1.4832  0.7030
  373MOL0     H50313   3.918   3.772   1.778  2.8519  1.3864  0.1702
  373MOL0     H50314   3.949   3.629   1.688 -1.0124  0.0529 -1.2617
  373MOL0     H50315   3.729   3.672   1.813 -0.7665  0.3937  0.5462
  373MOL0     H50316   3.600   3.585   1.936  2.1046  3.4169 -2.1266
  373MOL0     H50317   3.462   3.670   1.980 -2.2729 -0.1086 -1.8295
  373MOL0     H50318   3.436   3.525   1.885  0.6321 -2.0802  4.3900
  373MOL0     H50319   3.061   3.941   1.505  0.1478  0.7313  0.2787
  373MOL0     H50320   2.819   3.965   1.512  1.3633 -0.0874 -0.5804
  373MOL0     H50321   2.604   3.613   1.663 -2.0612  0.4465 -3.4215
  373MOL0     H50322   2.532   3.709   1.793  0.7541 -1.1487  0.6034
  373MOL0     H50323   2.452   3.790   1.524  2.1591 -2.0151 -2.1550
  373MOL0     H50324   2.390   3.629   1.567 -1.7118  0.5727 -0.1166
  373MOL0     H50325   2.336   3.871   1.743  1.0571  0.2354 -1.6548
  373MOL0     H50326   2.303   3.706   1.789  0.1878  1.0554  0.2672
  373MOL0     H50327   2.171   3.867   1.573  3.4713  1.7824  2.3165
  373MOL0     H50328   2.172   3.693   1.555 -0.5796 -0.4953  0.6926
  373MOL0     H50329   2.051   3.849   1.789  2.0080  1.0785  0.1274
  373MOL0     H50330   2.088   3.676   1.790  0.2189  0.0051 -1.2002
  373MOL0     H50331   1.918   3.801   1.567 -2.2253  1.0683  2.4291
  373MOL0     H50332   1.934   3.632   1.589 -0.0037  0.0075 -1.5751
  373MOL0     H50333   1.815   3.831   1.796  1.3084 -1.3426  1.3764
  373MOL0     H50334   1.859   3.672   1.840  1.6661  1.7037  1.8487
  373MOL0     H50335   1.629   3.665   1.807 -1.0001  1.5663 -0.3788
  373MOL0     H50336   1.697   3.566   1.678 -2.9668 -0.9396 -0.5085
  373MOL0     H50337   2.786   3.622   1.748  0.2146  0.7414  1.7991
  373MOL0     H50338   3.032   3.590   1.762 -1.1140 -1.4315  0.1278
  373MOL0     H50339   3.408   3.850   1.497  3.5309  1.4940 -3.1602
  373MOL0     H50340   3.637   3.827   1.425 -0.2258  2.1938  0.5326
  373MOL0     H50341   5.570   3.160   1.405  1.3944 -1.8442  1.2180
  373MOL0     H50342   5.813   3.119   1.421  1.3870  0.1771  1.1987
  373MOL0     H50343   6.259   2.994   1.479 -0.2190  0.2615  0.1371
  373MOL0     H50344   6.508   3.008   1.444  0.9239 -0.6391 -2.7571
  373MOL0     H50345   6.622   2.997   1.272 -1.4460  2.3032 -1.1081
  373MOL0     H50346   6.743   3.076   1.187 -1.5650 -2.5748 -1.3005
  373MOL0     H50347   6.828   2.923   1.372 -2.2828 -0.1625 -1.7823
  373MOL0     H50348   6.785   3.039   1.500  0.8943  1.8874  1.0492
  373MOL0     H50349   6.949   3.174   1.283  0.6564  3.2330  1.0755
  373MOL0     H50350   7.031   3.055   1.378  0.2592  0.6568 -4.4942
  373MOL0     H50351   6.917   3.181   1.587 -1.6303 -0.0799 -0.3725
  373MOL0     H50352   6.869   3.296   1.459  1.2893 -0.0354 -1.7536
  373MOL0     H50353   7.294   3.346   1.560  1.2671 -2.2833  0.6327
  373MOL0     H50354   6.468   3.394   1.275  0.9991  0.6237  0.9637
  373MOL0     H50355   6.245   3.391   1.293  3.1091 -0.1766 -2.3343
  374MOL0     O50356   8.404   1.104  10.870  0.3401 -0.4613 -0.5217
  374MOL0     C50357   8.461   1.131  10.767 -0.3255  0.9126 -0.2883
  374MOL0     O50358   8.397   1.179  10.656 -0.5669  0.1767  0.0856
  374MOL0     C50359   8.258   1.181  10.645 -0.1290 -0.5766  0.3841
  374MOL0     C50360   8.178   1.080  10.701  0.3701  0.8137 -0.1864
  374MOL0     C50361   8.041   1.081  10.690  0.2100  0.2285 -0.5573
  374MOL0     C50362   7.974   1.180  10.613 -0.0076 -0.7763 -0.4678
  374MOL0     O50363   7.840   1.200  10.588  0.5468 -0.0865  0.2554
  374MOL0     C50364   7.750   1.109  10.649 -1.1428 -0.7947 -0.1012
  374MOL0     C50365   7.603   1.157  10.651 -0.0049  0.2011  0.0028
  374MOL0     C50366   7.521   1.059  10.732 -0.3050  0.8999  0.1205
  374MOL0     C50367   7.371   1.067  10.709  0.3093 -0.4443 -0.1566
  374MOL0     C50368   7.297   0.982  10.819  0.4118 -0.2587  0.0254
  374MOL0     C50369   7.314   1.034  10.961 -0.4216  0.2378 -0.1782
  374MOL0     C50370   7.221   1.157  10.982  0.3775  0.0343  0.4651
  374MOL0     C50371   7.250   1.228  11.110  0.5008 -1.3358 -0.4325
  374MOL0     N50372   7.147   1.327  11.150  0.5896  0.0157  0.7525
  374MOL0     C50373   7.010   1.311  11.156  0.2860 -0.0539  0.2701
  374MOL0     C50374   6.965   1.430  11.204 -0.3929 -0.3283  0.5554
  374MOL0     C50375   6.831   1.477  11.246 -1.0933 -0.3926 -0.2926
  374MOL0     C50376   6.756   1.381  11.324  0.1161  0.1984  0.2369
  374MOL0     C50377   6.622   1.440  11.358 -1.1074  0.9219 -0.0123
  374MOL0     C50378   6.540   1.341  11.438 -0.2147 -0.1429  0.3411
  374MOL0     O50379   6.477   1.251  11.339  0.0304  0.3937 -0.0222
  374MOL0     C50380   6.354   1.199  11.361  0.7596 -0.3144 -0.1651
  374MOL0     C50381   6.325   1.122  11.471  0.2484  1.0581 -0.2877
  374MOL0     C50382   6.196   1.069  11.489 -0.5767  0.1142  0.6901
  374MOL0     C50383   6.170   0.999  11.623 -0.6335 -0.1340 -0.1829
  374MOL0     C50384   6.094   1.087  11.388 -0.8686 -1.4987 -1.0602
  374MOL0     C50385   5.951   1.027  11.406  0.1291  0.0500 -0.0307
  374MOL0     O50386   5.864   1.083  11.318  0.1030  0.3644 -1.0355
  374MOL0     C50387   5.733   1.029  11.316 -1.2714  0.5129  0.1339
  374MOL0     C50388   5.712   0.895  11.281  0.2022 -0.0385 -0.7725
  374MOL0     C50389   5.581   0.854  11.270  0.9345 -1.1397  0.1093
  374MOL0     C50390   5.470   0.941  11.292 -1.4315 -0.2395 -0.6702
  374MOL0     O50391   5.348   0.879  11.299  0.3102 -0.1609  0.0460
  374MOL0     C50392   5.232   0.957  11.275 -0.6780  0.7782 -0.2187
  374MOL0     C50393   5.138   0.862  11.203  0.8128  0.1096  0.3657
  374MOL0     C50394   5.003   0.930  11.193 -1.0821  0.0534 -1.5605
  374MOL0     C50395   4.885   0.845  11.147  0.4396 -0.2256  0.2075
  374MOL0     C50396   4.746   0.913  11.169 -0.1784 -0.2321 -0.4302
  374MOL0     C50397   4.743   1.067  11.155  0.5092  0.5316 -0.3731
  374MOL0     C50398   4.593   1.109  11.169 -0.1306  0.2352 -0.0281
  374MOL0     C50399   4.577   1.260  11.179  0.3199 -0.3187  0.0361
  374MOL0    Cl50400   4.395   1.286  11.181 -0.2978 -0.1070  0.2148
  374MOL0     C50401   5.499   1.074  11.328  0.4931 -0.2386 -0.8091
  374MOL0     C50402   5.632   1.119  11.330 -0.7278  0.8461 -0.6433
  374MOL0     O50403   5.928   0.933  11.486 -0.3482 -0.2219  0.5022
  374MOL0     C50404   6.125   1.167  11.271 -0.1923 -0.2919  0.0679
  374MOL0     C50405   6.253   1.217  11.260  0.2174 -0.5316 -0.6423
  374MOL0     N50406   7.069   1.516  11.216 -0.2566 -0.4476  0.2348
  374MOL0     N50407   7.180   1.453  11.186  0.4183 -0.2549  0.3284
  374MOL0     C50408   8.060   1.279  10.552  0.4947 -0.1627  0.5422
  374MOL0     C50409   8.199   1.279  10.569  0.0644  0.1470 -0.6933
  374MOL0     C50410   8.612   1.134  10.773 -0.3092 -0.0060  0.1765
  374MOL0     C50411   8.691   1.179  10.667 -0.1470  0.4960 -0.3542
  374MOL0     C50412   8.830   1.188  10.673 -0.5823 -0.0330  0.1127
  374MOL0     C50413   8.896   1.143  10.785  0.1269 -1.1516  0.5307
  374MOL0     O50414   9.026   1.130  10.804 -0.7042 -0.3034 -0.8708
  374MOL0     C50415   9.122   1.195  10.722  0.0369  0.0303 -0.5018
  374MOL0     C50416   9.259   1.143  10.753  0.1336 -0.3102  0.6991
  374MOL0     C50417   9.310   1.164  10.891 -0.0754  0.0361 -0.3655
  374MOL0     C50418   9.251   1.080  11.005 -0.0065  0.0447  0.0529
  374MOL0     C50419   9.244   0.941  10.952 -0.2251 -0.3519 -0.7201
  374MOL0     C50420   9.256   0.818  10.927  0.1106 -0.3675  0.0673
  374MOL0     C50421   8.820   1.096  10.892 -0.6837 -0.3077  0.3686
  374MOL0     C50422   8.679   1.092  10.889 -0.0626  0.9724  0.1411
  374MOL0     H50423   8.222   1.005  10.766  0.0163  1.6200  1.0200
  374MOL0     H50424   7.978   1.004  10.734 -0.5736  0.0986 -1.8539
  374MOL0     H50425   7.755   1.011  10.601  0.6699 -1.1081  0.6453
  374MOL0     H50426   7.778   1.098  10.754 -0.8981 -1.5268 -0.2322
  374MOL0     H50427   7.592   1.254  10.700  2.0087  0.0103  0.9143
  374MOL0     H50428   7.565   1.173  10.550  1.6333  0.1459 -0.6490
  374MOL0     H50429   7.547   0.953  10.726 -3.1808  0.1536 -0.7587
  374MOL0     H50430   7.540   1.090  10.835 -2.0628  0.7473  0.5338
  374MOL0     H50431   7.340   1.172  10.702 -1.0599 -0.9245 -2.1442
  374MOL0     H50432   7.347   1.029  10.610 -4.1434 -0.4188  0.6884
  374MOL0     H50433   7.191   0.972  10.792  0.2075  1.4878  0.0233
  374MOL0     H50434   7.344   0.884  10.818  1.8712  0.4114 -0.1866
  374MOL0     H50435   7.279   0.953  11.026 -0.0134  1.2805  1.3957
  374MOL0     H50436   7.418   1.046  10.994 -1.1064  0.0259  2.3065
  374MOL0     H50437   7.246   1.225  10.900 -1.2003  2.8929  2.2170
  374MOL0     H50438   7.113   1.138  10.977  0.5059 -0.5623 -0.5337
  374MOL0     H50439   7.348   1.275  11.098  0.7853 -1.8511 -0.1669
  374MOL0     H50440   7.241   1.161  11.195 -0.9771  0.5515  0.9871
  374MOL0     H50441   6.949   1.227  11.124 -2.7154  2.4222 -1.1003
  374MOL0     H50442   6.846   1.572  11.298 -1.4782  0.7407 -2.1609
  374MOL0     H50443   6.774   1.498  11.155  0.3002  0.6965 -0.9685
  374MOL0     H50444   6.808   1.353  11.416  1.2132  1.7814  0.1371
  374MOL0     H50445   6.742   1.288  11.267 -1.4265  2.7619 -4.0511
  374MOL0     H50446   6.566   1.465  11.267 -2.0639 -0.3817  0.1885
  374MOL0     H50447   6.643   1.528  11.419 -0.4093 -0.5427  1.9710
  374MOL0     H50448   6.473   1.402  11.499 -0.4933  1.2338 -1.2735
  374MOL0     H50449   6.604   1.293  11.513  0.4008  1.0004  0.5727
  374MOL0     H50450   6.407   1.111  11.542 -1.3160 -0.1277  1.4353
  374MOL0     H50451   6.160   0.891  11.605  1.4064 -0.2674 -0.7640
  374MOL0     H50452   6.248   1.016  11.699  0.3971 -1.0981 -0.9843
  374MOL0     H50453   6.076   1.037  11.664 -2.0657 -2.7776 -0.8030
  374MOL0     H50454   5.788   0.819  11.276 -1.3300 -1.5850 -1.6108
  374MOL0     H50455   5.552   0.751  11.251 -1.0623 -0.1817 -2.5550
  374MOL0     H50456   5.190   0.998  11.367 -1.8235  2.5762 -1.4864
  374MOL0     H50457   5.257   1.046  11.215 -1.0040  0.1836 -1.2585
  374MOL0     H50458   5.173   0.843  11.102  1.7547  0.1792  0.6748
  374MOL0     H50459   5.117   0.769  11.257 -0.0400  0.5147  0.7655
  374MOL0     H50460   5.013   1.021  11.133  1.9866 -0.6529 -2.3424
  374MOL0     H50461   4.979   0.963  11.294  1.2029 -3.0240  0.2046
  374MOL0     H50462   4.906   0.821  11.042  4.3338 -1.7070  1.1702
  374MOL0     H50463   4.887   0.752  11.204  1.3936  1.0381  2.3124
  374MOL0     H50464   4.712   0.885  11.269  2.8433 -0.0393  0.7760
  374MOL0     H50465   4.677   0.869  11.097  2.5930 -4.1127 -1.0604
  374MOL0     H50466   4.808   1.123  11.224 -0.8989 -0.6916  2.1113
  374MOL0     H50467   4.786   1.074  11.055  0.1249  1.8003 -0.4575
  374MOL0     H50468   4.555   1.063  11.261  4.5515 -0.5361  1.8235
  374MOL0     H50469   4.545   1.072  11.078  0.8725  1.3941 -1.0589
  374MOL0     H50470   4.631   1.298  11.092  2.0370  0.9804  1.5843
  374MOL0     H50471   4.618   1.311  11.267  0.3205  0.5204 -0.4417
  374MOL0     H50472   5.419   1.144  11.346  2.2698  2.3505 -2.2219
  374MOL0     H50473   5.651   1.222  11.358  2.3146  0.2269 -0.0998
  374MOL0     H50474   6.052   1.187  11.193  0.0684 -0.1985 -0.1545
  374MOL0     H50475   6.266   1.281  11.174 -2.4925 -0.5291 -1.1152
  374MOL0     H50476   8.018   1.359  10.492  3.4956  1.3789  0.2815
  374MOL0     H50477   8.262   1.353  10.520 -2.3680  2.3641 -0.6651
  374MOL0     H50478   8.662   1.215  10.568  1.8963 -0.3003 -1.2941
  374MOL0     H50479   8.880   1.217  10.582 -1.6664 -0.7493 -0.7286
  374MOL0     H50480   9.100   1.170  10.618 -1.1546 -0.9156 -0.0495
  374MOL0     H50481   9.121   1.304  10.726 -1.3517  0.0148 -0.0481
  374MOL0     H50482   9.329   1.198  10.689  0.4041 -1.2025  0.2192
  374MOL0     H50483   9.273   1.040  10.722  1.9186 -0.8087  2.8853
  374MOL0     H50484   9.298   1.271  10.912  2.9184  0.7124 -1.5828
  374MOL0     H50485   9.417   1.147  10.899 -0.3284 -1.0179  1.0038
  374MOL0     H50486   9.155   1.121  11.036  0.4114 -0.0669  1.5669
  374MOL0     H50487   9.321   1.081  11.089 -1.3761  2.7890  1.2811
  374MOL0     H50488   9.268   0.713  10.908 -1.4139 -0.4470 -0.5884
  374MOL0     H50489   8.870   1.069  10.985  2.2727  0.6103 -0.8694
  374MOL0     H50490   8.633   1.052  10.978  0.1143 -1.3253 -0.7461
  375MOL0     O50491   5.130   0.306   6.603 -1.3739  0.0411  0.3574
  375MOL0     C50492   5.080   0.200   6.645 -0.6224  0.5229 -0.2679
  375MOL0     O50493   5.154   0.086   6.681 -0.4921  0.1187  0.7088
  375MOL0     C50494   5.285   0.084   6.648 -0.3065 -0.3471 -0.5393
  375MOL0     C50495   5.324  -0.013   6.562  0.2738 -0.1432 -0.1249
  375MOL0     C50496   5.462  -0.020   6.526 -0.1856  1.3260  0.7424
  375MOL0     C50497   5.555   0.065   6.579 -0.0164 -0.2469  0.0844
  375MOL0     O50498   5.683   0.058   6.524  0.0672 -0.0389 -0.0198
  375MOL0     C50499   5.793   0.134   6.576  0.3215  0.0870  0.3701
  375MOL0     C50500   5.798   0.268   6.510 -0.4246 -0.3087 -0.0936
  375MOL0     C50501   5.798   0.275   6.359 -0.4253  0.0289  0.2383
  375MOL0     C50502   5.898   0.177   6.292  0.4644  0.6584  0.3719
  375MOL0     C50503   6.040   0.222   6.307 -0.2039 -0.9414 -0.4916
  375MOL0     C50504   6.083   0.328   6.204 -0.4229  0.0794 -0.6528
  375MOL0     C50505   6.232   0.327   6.179  0.6225  0.1916 -0.3912
  375MOL0     C50506   6.260   0.456   6.098 -0.5521  0.1574  0.4141
  375MOL0     N50507   6.406   0.464   6.057 -0.2384 -0.5485 -0.4570
  375MOL0     C50508   6.516   0.478   6.138 -0.4918 -0.3750 -0.5928
  375MOL0     C50509   6.627   0.484   6.055 -0.3913  0.5981  0.1560
  375MOL0     C50510   6.770   0.499   6.100  0.1058 -0.9002 -0.7490
  375MOL0     C50511   6.838   0.361   6.092  1.3341 -0.7455  0.0739
  375MOL0     C50512   6.772   0.261   6.187 -0.1400 -0.1346 -0.0813
  375MOL0     C50513   6.804   0.288   6.333  0.3111  0.3779  0.5007
  375MOL0     O50514   6.701   0.367   6.395  0.8526 -0.3973  0.0794
  375MOL0     C50515   6.575   0.325   6.436  0.0319  0.3040  0.3350
  375MOL0     C50516   6.496   0.411   6.510  0.7081 -0.1461 -0.2862
  375MOL0     C50517   6.368   0.380   6.563  0.1304 -0.7272  0.1300
  375MOL0     C50518   6.299   0.489   6.633 -0.0453  0.0794 -0.3642
  375MOL0     C50519   6.325   0.239   6.563  0.0204  0.1797 -0.1424
  375MOL0     C50520   6.199   0.185   6.619  0.4531  0.9664 -0.1353
  375MOL0     O50521   6.122   0.275   6.692 -0.0251 -0.8275  0.3254
  375MOL0     C50522   6.036   0.241   6.795 -0.5180 -0.6507  0.1674
  375MOL0     C50523   6.030   0.115   6.859  0.4836 -0.9829  0.1888
  375MOL0     C50524   5.914   0.090   6.952 -0.4827 -0.6009  1.3135
  375MOL0     C50525   5.813   0.185   6.969 -0.4313 -0.6071  0.4457
  375MOL0     O50526   5.704   0.157   7.048 -0.0015 -0.1346  0.4336
  375MOL0     C50527   5.665   0.024   7.065 -0.1497 -0.9117  0.3922
  375MOL0     C50528   5.543   0.013   7.156 -0.6269 -0.9196  0.0134
  375MOL0     C50529   5.412   0.072   7.086 -0.2802 -0.1888  0.9235
  375MOL0     C50530   5.284   0.017   7.156  0.2844  0.1661  0.9535
  375MOL0     C50531   5.161   0.072   7.070 -0.5081  0.2669 -0.1365
  375MOL0     C50532   5.030   0.060   7.139  0.0304  0.2495 -0.7862
  375MOL0     C50533   4.984   0.158   7.249  0.1701  0.2861 -0.1934
  375MOL0     C50534   4.826   0.150   7.275 -0.3367  0.5838  0.1218
  375MOL0    Cl50535   4.767  -0.015   7.335 -0.4307 -0.4707  0.0855
  375MOL0     C50536   5.837   0.316   6.919  0.1879  0.0148 -0.7249
  375MOL0     C50537   5.944   0.339   6.832  0.3760 -0.2021 -0.7450
  375MOL0     O50538   6.159   0.068   6.595 -0.3908 -0.5438 -0.0748
  375MOL0     C50539   6.409   0.152   6.494 -1.2798  1.4273 -0.4788
  375MOL0     C50540   6.532   0.190   6.433 -0.2455  0.5603  0.9384
  375MOL0     N50541   6.577   0.485   5.930 -0.3153 -0.3681 -0.7113
  375MOL0     N50542   6.447   0.483   5.934  0.2586 -0.4761  0.1765
  375MOL0     C50543   5.516   0.160   6.673  0.2477  0.4912 -0.1352
  375MOL0     C50544   5.380   0.170   6.711  0.3863 -0.3763  0.5266
  375MOL0     C50545   4.935   0.194   6.684  0.7881 -1.0045 -0.2905
  375MOL0     C50546   4.843   0.294   6.643 -0.2494  0.1690  0.2759
  375MOL0     C50547   4.705   0.297   6.695 -1.4878  0.1112  0.6383
  375MOL0     C50548   4.665   0.197   6.787  0.2100 -0.3467 -0.7832
  375MOL0     O50549   4.531   0.198   6.839 -0.0886 -0.5710 -0.5186
  375MOL0     C50550   4.502   0.121   6.956 -0.3221  0.4473 -1.2044
  375MOL0     C50551   4.360   0.151   6.997  0.7897  0.9913  0.3638
  375MOL0     C50552   4.330   0.296   7.033  0.8234 -0.2969  0.5198
  375MOL0     C50553   4.392   0.340   7.160 -0.2311 -0.1022 -0.0989
  375MOL0     C50554   4.347   0.265   7.276  0.7759  0.5609 -0.1318
  375MOL0     C50555   4.309   0.225   7.387 -0.5243  0.7256  0.5583
  375MOL0     C50556   4.765   0.099   6.830  1.1187  0.0424 -0.6754
  375MOL0     C50557   4.892   0.092   6.775 -0.0027 -0.4621  0.7924
  375MOL0     H50558   5.245  -0.077   6.524  0.2231 -0.1685  0.0270
  375MOL0     H50559   5.497  -0.099   6.459 -0.3415  1.7116  0.1982
  375MOL0     H50560   5.783   0.137   6.685 -0.2433  0.6948  0.3110
  375MOL0     H50561   5.884   0.079   6.551 -0.8703 -0.7765 -2.4472
  375MOL0     H50562   5.718   0.336   6.541  0.2347  0.3269  0.2585
  375MOL0     H50563   5.884   0.310   6.563 -0.9277  2.5053 -1.3005
  375MOL0     H50564   5.698   0.242   6.329 -0.9305  0.4803  1.3513
  375MOL0     H50565   5.805   0.382   6.333  0.9913 -0.3561 -1.1100
  375MOL0     H50566   5.907   0.077   6.335  3.0092  0.5448 -0.2690
  375MOL0     H50567   5.867   0.175   6.187 -0.6523 -3.7344  0.5834
  375MOL0     H50568   6.057   0.262   6.407 -3.2113  0.8525 -0.5605
  375MOL0     H50569   6.105   0.137   6.284 -0.8108 -1.4488 -0.3492
  375MOL0     H50570   6.041   0.300   6.107 -0.2751 -2.5812 -0.0269
  375MOL0     H50571   6.051   0.423   6.249  0.1566  0.7112 -1.5449
  375MOL0     H50572   6.288   0.343   6.271  1.4466 -0.6134 -0.7389
  375MOL0     H50573   6.259   0.240   6.119 -1.8005 -0.1982 -1.0574
  375MOL0     H50574   6.229   0.544   6.156 -0.8689 -1.2621  2.5069
  375MOL0     H50575   6.197   0.465   6.009  0.1439 -2.1473 -0.3759
  375MOL0     H50576   6.511   0.488   6.246  1.0458  1.1039 -0.6195
  375MOL0     H50577   6.808   0.564   6.020 -1.2012  2.1049  0.9031
  375MOL0     H50578   6.787   0.549   6.196  1.4539 -1.9865 -0.3948
  375MOL0     H50579   6.946   0.359   6.114  1.5990 -1.6327 -1.1716
  375MOL0     H50580   6.834   0.333   5.986  1.4911 -0.1171 -0.1038
  375MOL0     H50581   6.815   0.164   6.159 -3.3299 -1.2434 -1.5309
  375MOL0     H50582   6.665   0.259   6.166  0.2097  0.4223 -2.2495
  375MOL0     H50583   6.899   0.344   6.333 -0.5871  1.9866 -0.8007
  375MOL0     H50584   6.815   0.196   6.390 -0.1971  0.9200  1.4961
  375MOL0     H50585   6.532   0.513   6.522  0.6450  0.7111 -5.1057
  375MOL0     H50586   6.330   0.582   6.583 -1.3889  0.1820 -1.0451
  375MOL0     H50587   6.190   0.483   6.640 -0.3196  3.7120  0.8284
  375MOL0     H50588   6.337   0.494   6.735 -1.5952 -0.7096  0.2875
  375MOL0     H50589   6.098   0.040   6.819  0.2662 -1.2142  0.2548
  375MOL0     H50590   5.903  -0.012   6.986 -3.5831 -0.6017  0.6402
  375MOL0     H50591   5.657  -0.023   6.966  3.8886 -1.9126  0.3702
  375MOL0     H50592   5.744  -0.028   7.120  1.6945  0.2319 -1.0555
  375MOL0     H50593   5.513  -0.090   7.174  0.7505 -1.6551 -1.5983
  375MOL0     H50594   5.548   0.054   7.258 -0.4734 -2.5270  0.6829
  375MOL0     H50595   5.430   0.058   6.979  2.1673 -3.8319  1.5887
  375MOL0     H50596   5.411   0.179   7.106 -1.6003 -0.1620  0.8075
  375MOL0     H50597   5.293  -0.091   7.169 -3.8732 -0.1425  2.5429
  375MOL0     H50598   5.269   0.062   7.254 -0.3941  0.7616  0.5880
  375MOL0     H50599   5.161   0.013   6.978 -2.2336  0.5599 -0.3512
  375MOL0     H50600   5.183   0.179   7.057  0.8734  0.1420  0.9485
  375MOL0     H50601   4.955   0.048   7.060  0.6412  0.9419 -1.4836
  375MOL0     H50602   5.041  -0.038   7.186  2.0341  1.7479  2.1210
  375MOL0     H50603   5.012   0.258   7.212  0.4424 -0.3244 -1.7076
  375MOL0     H50604   5.040   0.141   7.341  0.7739 -0.2261 -0.6443
  375MOL0     H50605   4.772   0.170   7.182 -0.6805 -0.5976  0.0609
  375MOL0     H50606   4.800   0.231   7.344  2.3539 -1.0137  3.2958
  375MOL0     H50607   5.771   0.398   6.946 -2.4997 -2.9579  2.8626
  375MOL0     H50608   5.953   0.440   6.792 -0.6538  0.2388  0.0765
  375MOL0     H50609   6.388   0.046   6.495  3.4515  0.2454  1.8855
  375MOL0     H50610   6.593   0.114   6.385 -0.4229  0.2741  1.1578
  375MOL0     H50611   5.588   0.228   6.718  0.2853 -1.1269  2.4302
  375MOL0     H50612   5.356   0.248   6.783  1.7574  0.6475 -0.0793
  375MOL0     H50613   4.888   0.370   6.580  3.2177 -0.2006  2.1105
  375MOL0     H50614   4.635   0.371   6.657 -1.4705 -0.7802 -1.2179
  375MOL0     H50615   4.530   0.020   6.926  0.6131  0.2734  0.1383
  375MOL0     H50616   4.569   0.151   7.037 -1.7575  1.0716 -0.2072
  375MOL0     H50617   4.326   0.083   7.075  1.2256 -2.4798 -2.1891
  375MOL0     H50618   4.301   0.122   6.910 -0.0837 -1.7075  1.7455
  375MOL0     H50619   4.221   0.309   7.035  0.7539  0.6940 -3.0733
  375MOL0     H50620   4.351   0.367   6.953 -1.9889  0.7057  0.5583
  375MOL0     H50621   4.386   0.448   7.176  0.8111 -0.3912  2.9736
  375MOL0     H50622   4.500   0.328   7.146 -0.1906 -1.5451  1.1744
  375MOL0     H50623   4.276   0.178   7.477 -1.0786 -3.1741 -1.4257
  375MOL0     H50624   4.729   0.020   6.895 -0.3270  0.0235 -1.4558
  375MOL0     H50625   4.956   0.008   6.801  3.7063  0.7533 -3.1178
  376MOL0     O50626   0.308   8.230   3.636 -0.6161  0.4432 -0.1974
  376MOL0     C50627   0.403   8.280   3.693  0.1325  0.1579 -0.7671
  376MOL0     O50628   0.444   8.245   3.823 -0.1317  0.5421  0.2038
  376MOL0     C50629   0.361   8.175   3.906  0.4602  0.7915 -0.7340
  376MOL0     C50630   0.326   8.226   4.026 -0.1489 -0.0648  0.0629
  376MOL0     C50631   0.214   8.178   4.092  0.9217  0.0667 -0.6047
  376MOL0     C50632   0.144   8.063   4.053  0.1723 -0.2829  0.5312
  376MOL0     O50633   0.027   8.018   4.101 -0.9419  0.3750 -0.5839
  376MOL0     C50634  -0.014   8.043   4.238  0.1934  0.1825 -0.1282
  376MOL0     C50635  -0.133   7.953   4.274 -0.5817  0.4969 -0.0349
  376MOL0     C50636  -0.107   7.804   4.256 -0.8827  0.4433 -0.7745
  376MOL0     C50637  -0.235   7.732   4.291 -0.5400 -0.4273  0.0675
  376MOL0     C50638  -0.212   7.576   4.294 -0.0344 -1.4205  0.2924
  376MOL0     C50639  -0.337   7.499   4.254  0.4739 -0.5913 -0.4130
  376MOL0     C50640  -0.306   7.357   4.226  0.3297  0.7768  0.3572
  376MOL0     C50641  -0.428   7.261   4.200 -0.5302  0.4498  0.9119
  376MOL0     N50642  -0.525   7.276   4.313  0.3157 -0.4301  0.4233
  376MOL0     C50643  -0.502   7.246   4.448 -0.4347 -0.3407 -0.1387
  376MOL0     C50644  -0.611   7.291   4.517  0.5920  0.4149  0.0017
  376MOL0     C50645  -0.630   7.289   4.664  0.4027 -0.7011  0.1174
  376MOL0     C50646  -0.775   7.275   4.709 -0.0457  0.8539  0.5723
  376MOL0     C50647  -0.853   7.169   4.632 -0.3337  0.0778  0.6615
  376MOL0     C50648  -0.974   7.132   4.706  0.0353  0.1496  0.6994
  376MOL0     O50649  -1.075   7.075   4.620  0.0032  0.8374 -0.1369
  376MOL0     C50650  -1.201   7.055   4.677  0.1076 -0.3779  0.6284
  376MOL0     C50651  -1.232   7.064   4.816 -0.2683 -0.1158 -0.0679
  376MOL0     C50652  -1.367   7.056   4.857 -0.2257 -1.1037  0.1616
  376MOL0     C50653  -1.389   7.062   5.006 -0.0844  0.4726  0.3046
  376MOL0     C50654  -1.470   7.044   4.756 -0.1703 -0.2829 -0.0968
  376MOL0     C50655  -1.612   7.045   4.797 -0.7088  0.5879  0.4393
  376MOL0     O50656  -1.695   7.071   4.690 -0.7156  0.0472  0.0675
  376MOL0     C50657  -1.823   7.118   4.713  0.3833 -0.0981  0.6273
  376MOL0     C50658  -1.919   7.024   4.760 -0.0167 -0.9206  0.1850
  376MOL0     C50659  -2.050   7.067   4.790  0.0205 -0.7172  0.4981
  376MOL0     C50660  -2.076   7.205   4.772  0.1758 -0.1606  0.1193
  376MOL0     O50661  -2.198   7.264   4.780 -0.7349 -0.2199  0.0358
  376MOL0     C50662  -2.295   7.197   4.863 -0.1870 -0.2214  0.0590
  376MOL0     C50663  -2.427   7.269   4.835  0.7605  0.6289 -0.3191
  376MOL0     C50664  -2.530   7.230   4.946 -0.5077  0.2248  0.1484
  376MOL0     C50665  -2.653   7.312   4.938  0.3840 -0.3008  0.0855
  376MOL0     C50666  -2.772   7.240   5.009  0.0652 -0.1743 -0.2996
  376MOL0     C50667  -2.892   7.325   5.039 -0.6188 -0.3060 -0.4408
  376MOL0     C50668  -3.007   7.241   5.105 -0.3133  0.6791 -0.5424
  376MOL0     C50669  -3.133   7.328   5.146 -0.3596 -0.2828  0.0608
  376MOL0    Cl50670  -3.187   7.411   4.997 -0.0062  0.4348 -0.0433
  376MOL0     C50671  -1.977   7.293   4.729 -0.3296  0.2418  0.1469
  376MOL0     C50672  -1.852   7.251   4.697 -0.1489 -0.1347  0.3064
  376MOL0     O50673  -1.647   7.026   4.916 -0.4970 -0.0103 -0.5613
  376MOL0     C50674  -1.429   7.038   4.622  0.1165  0.1749  0.3205
  376MOL0     C50675  -1.297   7.042   4.579 -0.6582  0.6720  0.0944
  376MOL0     N50676  -0.691   7.349   4.423  0.8134 -0.7643  0.3038
  376MOL0     N50677  -0.646   7.334   4.301  1.4689  0.1078 -0.5247
  376MOL0     C50678   0.194   7.993   3.940  0.3889 -0.4495 -0.0548
  376MOL0     C50679   0.291   8.056   3.868  0.6418 -0.4505 -0.0256
  376MOL0     C50680   0.499   8.364   3.613 -0.0265 -0.5666 -0.0437
  376MOL0     C50681   0.639   8.352   3.614  0.8594  0.0797  0.9966
  376MOL0     C50682   0.718   8.424   3.525 -0.5493  1.2775  0.3951
  376MOL0     C50683   0.661   8.514   3.435 -0.3439  0.7280  0.0098
  376MOL0     O50684   0.740   8.584   3.351  0.4452  0.4110  0.9195
  376MOL0     C50685   0.692   8.711   3.314 -0.4265 -1.0631  0.0269
  376MOL0     C50686   0.802   8.782   3.235  0.8079 -0.3080  0.2567
  376MOL0     C50687   0.926   8.804   3.323  0.3410  0.2516 -0.1473
  376MOL0     C50688   1.034   8.889   3.254 -0.8464 -0.0137 -0.5781
  376MOL0     C50689   1.149   8.914   3.349  0.3654 -1.2689  0.2281
  376MOL0     C50690   1.247   8.940   3.416  0.4718 -0.8110 -0.3865
  376MOL0     C50691   0.517   8.533   3.438  0.3290 -0.6044  0.2385
  376MOL0     C50692   0.444   8.462   3.525  0.3854 -0.5327 -0.0822
  376MOL0     H50693   0.366   8.321   4.058  0.5647 -0.4399  0.3037
  376MOL0     H50694   0.191   8.223   4.188  1.6215 -1.7948  0.4868
  376MOL0     H50695   0.072   8.028   4.305 -0.1568 -2.2471 -0.1195
  376MOL0     H50696  -0.034   8.150   4.247 -4.1962 -0.3729 -1.0343
  376MOL0     H50697  -0.163   7.963   4.379 -1.8964  1.4504 -0.4682
  376MOL0     H50698  -0.223   7.989   4.223 -0.0772 -0.4816 -1.6608
  376MOL0     H50699  -0.082   7.774   4.154  0.1829 -6.5457  0.9949
  376MOL0     H50700  -0.019   7.773   4.314  0.0077  2.6543 -0.8515
  376MOL0     H50701  -0.268   7.765   4.389  0.5058  0.1751  0.2294
  376MOL0     H50702  -0.317   7.754   4.222  0.2344 -0.7087 -0.9690
  376MOL0     H50703  -0.130   7.549   4.228 -0.2793  1.7829 -1.5138
  376MOL0     H50704  -0.181   7.567   4.399 -0.7078 -0.0109  0.6379
  376MOL0     H50705  -0.403   7.507   4.340 -1.1629 -0.8023 -1.5894
  376MOL0     H50706  -0.383   7.552   4.170  0.4266  2.8464  1.6161
  376MOL0     H50707  -0.252   7.356   4.131 -0.7984 -2.5015 -0.3912
  376MOL0     H50708  -0.232   7.320   4.298  0.7508  0.7467 -0.0794
  376MOL0     H50709  -0.395   7.158   4.183  0.0260  0.5253  1.4881
  376MOL0     H50710  -0.479   7.289   4.107  1.0559 -0.5174 -0.2989
  376MOL0     H50711  -0.413   7.198   4.487 -1.3749 -1.0329  1.2758
  376MOL0     H50712  -0.560   7.218   4.708  1.6951  0.2283 -0.3599
  376MOL0     H50713  -0.591   7.386   4.694  0.2379 -0.3803 -0.6673
  376MOL0     H50714  -0.827   7.371   4.696 -1.9123 -0.1100  0.5635
  376MOL0     H50715  -0.776   7.249   4.815  0.8588  4.3371  1.5664
  376MOL0     H50716  -0.795   7.080   4.608  0.9274  0.7809  1.0298
  376MOL0     H50717  -0.884   7.206   4.534  2.9532  1.5367  0.0465
  376MOL0     H50718  -1.005   7.228   4.748 -0.8488 -0.0693  0.5698
  376MOL0     H50719  -0.949   7.064   4.788  0.1038 -2.6319 -1.4733
  376MOL0     H50720  -1.149   7.070   4.885  0.7344 -1.0860 -1.1705
  376MOL0     H50721  -1.446   7.154   5.020 -0.2735  0.9389 -2.7122
  376MOL0     H50722  -1.446   6.975   5.039 -1.9272  0.5423 -2.3807
  376MOL0     H50723  -1.295   7.062   5.061 -0.8907 -0.0916  1.7566
  376MOL0     H50724  -1.891   6.920   4.777 -4.1924 -2.6803 -2.1255
  376MOL0     H50725  -2.118   6.992   4.831  0.4668 -1.7248 -0.5776
  376MOL0     H50726  -2.306   7.092   4.837  1.0436 -0.0310 -1.3478
  376MOL0     H50727  -2.258   7.218   4.964  1.9766  2.3345 -1.1346
  376MOL0     H50728  -2.407   7.376   4.836  0.5962  0.6713  1.4238
  376MOL0     H50729  -2.445   7.242   4.731  0.2845  1.4973 -0.4679
  376MOL0     H50730  -2.489   7.236   5.047  0.5141  0.7080 -0.2810
  376MOL0     H50731  -2.553   7.124   4.934 -0.2901  0.3382 -1.4915
  376MOL0     H50732  -2.643   7.418   4.963 -3.8363  0.7835 -2.0153
  376MOL0     H50733  -2.681   7.317   4.833  0.2210 -4.1450 -0.2016
  376MOL0     H50734  -2.736   7.199   5.104  1.3105  0.4991 -0.4516
  376MOL0     H50735  -2.810   7.156   4.951  0.0301 -1.0375  0.9480
  376MOL0     H50736  -2.856   7.411   5.096 -0.2137  1.0249 -2.5794
  376MOL0     H50737  -2.924   7.364   4.942 -1.9339  2.2950  0.9268
  376MOL0     H50738  -2.968   7.195   5.196 -2.1472 -0.2492 -0.1995
  376MOL0     H50739  -3.038   7.164   5.033  1.6776 -0.6399 -0.0722
  376MOL0     H50740  -3.096   7.405   5.214 -0.3458 -1.5774  1.5745
  376MOL0     H50741  -3.215   7.267   5.184 -3.4219  0.1747 -4.9189
  376MOL0     H50742  -1.989   7.400   4.730  0.9998  0.4132  0.6346
  376MOL0     H50743  -1.777   7.317   4.652  0.9989 -2.1454 -0.9191
  376MOL0     H50744  -1.494   7.015   4.539  2.2455  3.0503 -2.4178
  376MOL0     H50745  -1.274   7.030   4.474 -0.3880 -1.7563  0.3766
  376MOL0     H50746   0.141   7.908   3.899  0.4435  0.5501 -2.3716
  376MOL0     H50747   0.315   8.003   3.776 -1.4331  0.8330 -1.3911
  376MOL0     H50748   0.678   8.272   3.676 -0.9652 -1.2575  0.5186
  376MOL0     H50749   0.825   8.411   3.523 -0.5071  1.1073  2.0892
  376MOL0     H50750   0.606   8.700   3.248 -0.0617 -1.0392 -0.4593
  376MOL0     H50751   0.649   8.773   3.393  1.4994  2.1488 -1.2738
  376MOL0     H50752   0.762   8.881   3.210 -0.6193 -1.2612 -1.5245
  376MOL0     H50753   0.826   8.723   3.146  1.8581 -0.3703  0.5662
  376MOL0     H50754   0.957   8.703   3.352  1.6439  1.0360  1.3098
  376MOL0     H50755   0.903   8.858   3.415  0.2655 -0.0804  0.0315
  376MOL0     H50756   0.995   8.985   3.218 -0.7319  0.1802 -0.1955
  376MOL0     H50757   1.070   8.832   3.168  1.4753 -0.3825  0.5434
  376MOL0     H50758   1.336   8.951   3.475 -0.5142  0.2156  0.9816
  376MOL0     H50759   0.467   8.614   3.385  0.5327 -1.4459 -1.3077
  376MOL0     H50760   0.338   8.483   3.523  0.3128 -0.5177  1.7319
  377MOL0     O50761   7.112   1.168   6.213  0.0087 -0.0522  0.3241
  377MOL0     C50762   7.202   1.150   6.123  0.2471  0.1437 -0.2217
  377MOL0     O50763   7.182   1.159   5.987 -0.2783  0.2031 -0.1657
  377MOL0     C50764   7.064   1.190   5.919  0.0035 -0.4046 -0.3883
  377MOL0     C50765   7.084   1.201   5.777 -0.3439  0.0027 -0.2899
  377MOL0     C50766   6.987   1.245   5.694 -0.0571 -0.1903 -0.4977
  377MOL0     C50767   6.858   1.265   5.743 -0.3428  0.1089 -0.2870
  377MOL0     O50768   6.756   1.316   5.660  0.5732 -0.3129 -0.0459
  377MOL0     C50769   6.714   1.229   5.559  0.0894  0.0781 -1.0210
  377MOL0     C50770   6.597   1.286   5.487 -0.0201 -0.2791  0.2103
  377MOL0     C50771   6.471   1.283   5.572 -0.1261  0.2256 -0.2398
  377MOL0     C50772   6.365   1.370   5.520  0.5107 -0.5101 -0.6223
  377MOL0     C50773   6.236   1.362   5.602  0.6121 -0.2323  0.5886
  377MOL0     C50774   6.155   1.247   5.554  0.1770  0.5666  0.5954
  377MOL0     C50775   6.048   1.204   5.648  1.5814  0.9234 -0.7033
  377MOL0     C50776   5.978   1.073   5.611  0.6260 -0.7051 -0.3241
  377MOL0     N50777   5.840   1.063   5.679 -0.7356  0.7416  0.2801
  377MOL0     C50778   5.819   0.965   5.768 -0.1490  0.2097 -0.8687
  377MOL0     C50779   5.684   0.949   5.764 -0.3771 -0.0459 -0.7070
  377MOL0     C50780   5.595   0.856   5.852  0.0616 -0.9600 -0.5654
  377MOL0     C50781   5.606   0.719   5.793 -0.5269  0.1424  0.2771
  377MOL0     C50782   5.491   0.622   5.841 -0.2481 -0.2311  0.6300
  377MOL0     C50783   5.349   0.663   5.796  0.2249 -0.7486 -0.0532
  377MOL0     O50784   5.261   0.568   5.862 -0.5534 -0.2842  0.6024
  377MOL0     C50785   5.123   0.578   5.858 -0.5548  1.2707  0.7885
  377MOL0     C50786   5.047   0.466   5.879  1.0058  0.0873  0.1157
  377MOL0     C50787   4.908   0.479   5.870 -0.2128  0.3570 -0.5088
  377MOL0     C50788   4.834   0.350   5.886 -0.0047  0.8333 -0.2326
  377MOL0     C50789   4.839   0.590   5.821  0.2253 -0.4846  0.3165
  377MOL0     C50790   4.694   0.602   5.804 -0.1434  0.8660  0.5507
  377MOL0     O50791   4.652   0.697   5.712 -0.5797  0.3147  0.3415
  377MOL0     C50792   4.525   0.691   5.680  0.2908 -0.0625 -0.2026
  377MOL0     C50793   4.431   0.743   5.767  0.3366  0.2261 -0.1460
  377MOL0     C50794   4.299   0.737   5.742  0.2301  0.8303 -0.1878
  377MOL0     C50795   4.256   0.692   5.614  0.0135  0.0845  0.5972
  377MOL0     O50796   4.124   0.679   5.578  0.1385  0.3312  0.3446
  377MOL0     C50797   4.027   0.618   5.667  0.9159 -0.2221 -0.1204
  377MOL0     C50798   3.900   0.568   5.592  0.9666  0.5995  0.2717
  377MOL0     C50799   3.919   0.475   5.465  0.4593 -0.0854 -0.1586
  377MOL0     C50800   3.780   0.414   5.421 -0.4777 -0.1561 -0.1835
  377MOL0     C50801   3.823   0.299   5.334  0.1929 -0.6160 -0.2413
  377MOL0     C50802   3.858   0.165   5.408  0.1081 -0.7610  0.3319
  377MOL0     C50803   3.734   0.076   5.445 -0.0227 -0.1991 -0.4074
  377MOL0     C50804   3.785  -0.061   5.510  1.4254 -0.1182  0.5395
  377MOL0    Cl50805   3.816  -0.037   5.678 -0.3399 -0.2446  0.4505
  377MOL0     C50806   4.350   0.645   5.519  0.1659  0.3636 -0.5939
  377MOL0     C50807   4.482   0.641   5.558  0.3887  0.1681  0.7811
  377MOL0     O50808   4.625   0.550   5.894 -0.4714  0.0504 -0.0201
  377MOL0     C50809   4.914   0.700   5.813 -0.1085 -0.3687 -0.2074
  377MOL0     C50810   5.052   0.689   5.828 -0.8271 -0.4081  0.6001
  377MOL0     N50811   5.632   1.030   5.668 -0.0127  0.3845  0.3379
  377MOL0     N50812   5.725   1.101   5.614  0.1598 -0.1371 -1.1407
  377MOL0     C50813   6.836   1.263   5.883 -0.3024  0.0200  0.5649
  377MOL0     C50814   6.938   1.227   5.970  0.3872 -0.0286  0.1975
  377MOL0     C50815   7.335   1.109   6.160  0.6028 -0.2624 -0.7653
  377MOL0     C50816   7.420   1.050   6.062  0.0781  0.5380 -0.7681
  377MOL0     C50817   7.551   1.039   6.085 -0.0191  0.5030  0.1731
  377MOL0     C50818   7.603   1.058   6.215  0.1897  0.0508  0.1172
  377MOL0     O50819   7.739   1.057   6.242 -0.1762 -0.3877 -0.0429
  377MOL0     C50820   7.835   1.000   6.150  0.1017 -0.2328 -0.0781
  377MOL0     C50821   7.823   0.851   6.109 -0.1915  0.1280  0.4049
  377MOL0     C50822   7.910   0.754   6.186 -0.0641  0.3647  0.3931
  377MOL0     C50823   8.051   0.751   6.111 -0.3186 -0.2432  0.0889
  377MOL0     C50824   8.149   0.679   6.200 -0.5809  0.4368 -0.3078
  377MOL0     C50825   8.229   0.631   6.276 -0.7199  1.0602  0.3588
  377MOL0     C50826   7.515   1.108   6.315 -0.5805  0.2391 -0.4031
  377MOL0     C50827   7.387   1.128   6.294  1.3045 -0.6163  0.4371
  377MOL0     H50828   7.186   1.182   5.745  0.8737  1.3462  2.4601
  377MOL0     H50829   7.002   1.260   5.588  1.0800 -0.3627 -0.3699
  377MOL0     H50830   6.796   1.201   5.492  1.6375  2.1784 -0.1158
  377MOL0     H50831   6.688   1.134   5.606 -1.0190 -0.7625 -3.1672
  377MOL0     H50832   6.622   1.389   5.462 -0.5146 -0.4048 -0.8334
  377MOL0     H50833   6.573   1.233   5.394  2.0690  4.0881 -3.1758
  377MOL0     H50834   6.433   1.181   5.571  1.8380 -0.5964  1.2558
  377MOL0     H50835   6.492   1.322   5.672 -0.7605  1.5608 -0.6073
  377MOL0     H50836   6.406   1.471   5.524 -3.4464  1.2734  1.1228
  377MOL0     H50837   6.343   1.357   5.413  1.0782  1.5134 -1.0173
  377MOL0     H50838   6.259   1.364   5.709  0.2691  2.3001  0.6664
  377MOL0     H50839   6.165   1.444   5.584 -1.2217 -1.7956  0.2869
  377MOL0     H50840   6.114   1.277   5.458  0.8092 -0.7799 -0.1123
  377MOL0     H50841   6.223   1.164   5.535 -0.3795 -0.4874  2.8547
  377MOL0     H50842   6.084   1.199   5.751 -0.2532 -2.2714 -0.1073
  377MOL0     H50843   5.975   1.285   5.665 -0.4413 -0.9495 -0.0422
  377MOL0     H50844   6.048   0.999   5.651  1.2679  0.9085  1.7374
  377MOL0     H50845   5.976   1.055   5.503  0.4741 -0.7264 -0.3183
  377MOL0     H50846   5.890   0.908   5.827 -0.3814  0.2646 -0.5352
  377MOL0     H50847   5.634   0.855   5.954  1.7674  2.5217 -1.0170
  377MOL0     H50848   5.494   0.895   5.843 -0.1400 -0.9363  1.3815
  377MOL0     H50849   5.707   0.683   5.815  0.3390  0.3471 -2.8110
  377MOL0     H50850   5.589   0.736   5.686  0.2344  2.7986  0.5096
  377MOL0     H50851   5.495   0.599   5.948  0.1240 -1.4589  0.3710
  377MOL0     H50852   5.506   0.520   5.804  0.4555 -0.0544  0.4091
  377MOL0     H50853   5.334   0.662   5.688 -2.1799 -0.3904  0.2221
  377MOL0     H50854   5.342   0.764   5.837 -0.2731  0.7403 -3.5137
  377MOL0     H50855   5.101   0.375   5.903  0.7473 -0.0164  0.3118
  377MOL0     H50856   4.748   0.350   5.819 -0.8155  1.9604  0.7599
  377MOL0     H50857   4.891   0.261   5.860 -0.8527  0.7111 -1.7588
  377MOL0     H50858   4.797   0.330   5.987  1.4656 -1.2947 -0.0302
  377MOL0     H50859   4.465   0.766   5.868  1.5290 -0.1560 -0.4459
  377MOL0     H50860   4.228   0.783   5.810 -0.9094  2.4255 -2.3114
  377MOL0     H50861   4.072   0.524   5.699 -0.2513 -1.4443 -1.8662
  377MOL0     H50862   3.997   0.688   5.746  0.5771  1.1458 -1.3986
  377MOL0     H50863   3.841   0.519   5.671  1.9727  2.8057  2.5234
  377MOL0     H50864   3.830   0.650   5.572 -2.5869 -2.6239 -1.8693
  377MOL0     H50865   3.988   0.403   5.510  2.6725  0.9047 -1.7670
  377MOL0     H50866   3.976   0.542   5.399  4.0222 -1.8034  0.9249
  377MOL0     H50867   3.715   0.386   5.504 -0.2628 -0.3020 -0.0638
  377MOL0     H50868   3.728   0.495   5.368 -2.5695 -1.3602 -0.0804
  377MOL0     H50869   3.908   0.335   5.275  2.0730  0.5431  2.9182
  377MOL0     H50870   3.738   0.268   5.273  2.8829 -4.0635 -2.6688
  377MOL0     H50871   3.917   0.107   5.336 -2.7310 -1.1170 -1.8604
  377MOL0     H50872   3.917   0.196   5.495 -1.7662  0.8473  1.1228
  377MOL0     H50873   3.684   0.064   5.348 -1.7946  0.6633  0.3462
  377MOL0     H50874   3.679   0.140   5.514  2.8447  3.9912 -1.6412
  377MOL0     H50875   3.865  -0.107   5.453 -2.4194 -3.9398 -2.4314
  377MOL0     H50876   3.710  -0.141   5.512  0.9899  0.2534 -0.5430
  377MOL0     H50877   4.317   0.611   5.422 -0.2852 -0.1238 -0.2765
  377MOL0     H50878   4.561   0.605   5.492 -1.0661  0.1424 -1.0531
  377MOL0     H50879   4.878   0.801   5.795 -4.1529 -0.8021  3.7421
  377MOL0     H50880   5.107   0.782   5.815 -0.5471 -0.3104  2.2831
  377MOL0     H50881   6.743   1.293   5.931 -1.0026 -1.9614  0.5334
  377MOL0     H50882   6.903   1.219   6.073 -4.6452 -0.0493 -1.2799
  377MOL0     H50883   7.378   1.025   5.965 -1.9108  0.3766  0.0811
  377MOL0     H50884   7.623   1.013   6.008 -1.6987 -1.9371 -0.7065
  377MOL0     H50885   7.816   1.065   6.064 -1.7927  1.9903  1.8667
  377MOL0     H50886   7.933   1.026   6.192  0.2036 -0.4541 -0.1785
  377MOL0     H50887   7.854   0.850   6.004  2.1083  2.1150  0.9533
  377MOL0     H50888   7.720   0.817   6.105  0.8247 -3.7700 -5.7383
  377MOL0     H50889   7.868   0.653   6.183 -0.3348  0.4584  0.9525
  377MOL0     H50890   7.915   0.794   6.288 -0.1197  0.1950  0.4617
  377MOL0     H50891   8.089   0.850   6.085 -1.3622 -0.1632 -1.2767
  377MOL0     H50892   8.038   0.702   6.014 -0.8296  2.1639 -1.1456
  377MOL0     H50893   8.292   0.589   6.352  0.4068  1.5881 -0.2565
  377MOL0     H50894   7.544   1.126   6.418  0.5039  3.1290 -1.1251
  377MOL0     H50895   7.333   1.174   6.376 -0.1011 -0.5339 -0.4896
  378MOL0     O50896   6.934   1.253  10.636 -0.0548 -0.1812 -0.0815
  378MOL0     C50897   6.986   1.335  10.716  0.2748  0.0591 -0.2196
  378MOL0     O50898   6.919   1.397  10.829 -0.9918  0.4286  0.2111
  378MOL0     C50899   6.786   1.396  10.832  1.0602 -0.2772 -0.1950
  378MOL0     C50900   6.719   1.347  10.940  0.3674  0.3353 -0.3060
  378MOL0     C50901   6.581   1.355  10.953 -0.1210  0.4917  0.0970
  378MOL0     C50902   6.505   1.405  10.844  0.1097  0.1534 -0.0168
  378MOL0     O50903   6.366   1.420  10.859 -0.4689  0.0171 -0.1376
  378MOL0     C50904   6.283   1.442  10.742  0.3854  0.7633  0.1000
  378MOL0     C50905   6.132   1.425  10.776 -0.0433 -0.2220  0.7921
  378MOL0     C50906   6.085   1.291  10.828  0.4902  0.3533 -0.7385
  378MOL0     C50907   5.955   1.291  10.899  0.2911  0.2529  0.0588
  378MOL0     C50908   5.900   1.151  10.913  0.6893 -0.7772 -0.5001
  378MOL0     C50909   5.775   1.136  10.988 -0.1539  0.8113 -0.2894
  378MOL0     C50910   5.652   1.177  10.903  0.6009  0.5103 -0.4924
  378MOL0     C50911   5.524   1.143  10.975 -0.3399 -0.3283  0.3085
  378MOL0     N50912   5.412   1.217  10.925  0.6317  0.7317 -1.0803
  378MOL0     C50913   5.278   1.188  10.946  0.0149 -0.1275  1.1389
  378MOL0     C50914   5.211   1.295  10.918 -0.2196 -0.5043 -0.1785
  378MOL0     C50915   5.059   1.312  10.927  0.6224  0.4275 -0.0930
  378MOL0     C50916   5.003   1.434  10.866  0.5456  0.2895 -0.2315
  378MOL0     C50917   4.858   1.457  10.913  0.4703  0.3028 -0.3584
  378MOL0     C50918   4.811   1.593  10.855  0.0272 -0.4606 -0.1746
  378MOL0     O50919   4.676   1.615  10.880  0.2917 -0.2228 -0.2925
  378MOL0     C50920   4.618   1.730  10.836  0.0385  0.3557  0.5542
  378MOL0     C50921   4.517   1.782  10.914 -0.1728  0.5846  0.4371
  378MOL0     C50922   4.440   1.898  10.882  0.0901  0.9985  0.1396
  378MOL0     C50923   4.317   1.929  10.972 -0.2933  0.8655  1.1313
  378MOL0     C50924   4.480   1.974  10.769  0.3601  0.0730  0.2611
  378MOL0     C50925   4.405   2.091  10.716 -0.0690 -0.2391  0.5081
  378MOL0     O50926   4.321   2.152  10.812 -0.0328 -0.1232 -0.1451
  378MOL0     C50927   4.260   2.273  10.785  0.3825 -0.0714  0.2048
  378MOL0     C50928   4.120   2.289  10.808 -0.1710  0.4490  0.9003
  378MOL0     C50929   4.068   2.418  10.799 -0.9194 -0.7650  0.0545
  378MOL0     C50930   4.146   2.532  10.769  0.3561 -0.0369 -0.4002
  378MOL0     O50931   4.078   2.654  10.763  0.1650 -0.4324  0.5526
  378MOL0     C50932   4.145   2.779  10.737 -0.0995  0.5464  0.8892
  378MOL0     C50933   4.057   2.891  10.690 -0.0473 -0.4016 -0.1375
  378MOL0     C50934   3.944   2.908  10.795  0.0247  0.0497 -0.2615
  378MOL0     C50935   3.983   2.957  10.940 -0.0516  0.4924  0.1176
  378MOL0     C50936   4.043   3.095  10.946  0.9198 -0.1776 -0.1597
  378MOL0     C50937   4.101   3.142  11.082 -1.2053  0.1733 -0.4638
  378MOL0     C50938   4.001   3.135  11.194  0.1445 -0.3103 -0.5177
  378MOL0     C50939   4.039   3.219  11.307  0.2348 -0.1447 -0.5266
  378MOL0    Cl50940   3.914   3.219  11.433  0.0491  0.2374  0.4680
  378MOL0     C50941   4.282   2.513  10.744 -0.6387 -0.3157 -0.7356
  378MOL0     C50942   4.338   2.388  10.769 -0.5454 -0.5746  0.4573
  378MOL0     O50943   4.412   2.135  10.601  0.4004 -0.0814  0.0705
  378MOL0     C50944   4.586   1.923  10.686 -0.2004  0.0471 -0.1665
  378MOL0     C50945   4.650   1.803  10.718  0.2117 -0.6941  0.2890
  378MOL0     N50946   5.299   1.397  10.887 -0.3619 -0.5163  0.5716
  378MOL0     N50947   5.414   1.348  10.887 -0.0748 -0.4599 -0.0075
  378MOL0     C50948   6.566   1.462  10.733  0.2351  0.3993 -0.1641
  378MOL0     C50949   6.705   1.451  10.729 -0.8603 -0.5649  0.5722
  378MOL0     C50950   7.113   1.393  10.681  0.2320 -0.9895 -0.2843
  378MOL0     C50951   7.170   1.505  10.753  0.1610  0.5602 -0.0398
  378MOL0     C50952   7.292   1.556  10.719  0.1409  0.0996 -0.4994
  378MOL0     C50953   7.357   1.512  10.602  0.7067  0.1596 -0.6910
  378MOL0     O50954   7.464   1.587  10.569 -0.3451  0.3004  0.4378
  378MOL0     C50955   7.570   1.521  10.492  0.0461 -0.4260 -0.0553
  378MOL0     C50956   7.683   1.624  10.510  0.2942  0.1623 -0.1263
  378MOL0     C50957   7.813   1.584  10.431  1.1102 -0.1499  0.0035
  378MOL0     C50958   7.940   1.664  10.465  0.0499 -0.3625 -0.0519
  378MOL0     C50959   8.048   1.613  10.386 -0.1928  0.0168  0.5401
  378MOL0     C50960   8.139   1.558  10.330 -0.1481  0.1788  0.5425
  378MOL0     C50961   7.304   1.401  10.538  0.1862  0.5351  0.6186
  378MOL0     C50962   7.189   1.332  10.578 -1.5941 -0.8489 -0.3130
  378MOL0     H50963   6.770   1.310  11.028  0.7572  0.2256 -0.5780
  378MOL0     H50964   6.531   1.316  11.041  1.7896 -0.3000  0.8914
  378MOL0     H50965   6.290   1.549  10.718 -2.7826  0.8848 -0.8037
  378MOL0     H50966   6.321   1.386  10.656  2.6926  1.3950  0.6383
  378MOL0     H50967   6.106   1.502  10.848 -0.2340  0.7857 -0.3238
  378MOL0     H50968   6.072   1.449  10.688  1.3330  2.1190  0.3957
  378MOL0     H50969   6.075   1.217  10.748 -2.1160 -0.1423 -0.0473
  378MOL0     H50970   6.166   1.255  10.891 -0.1233  0.7874  0.3323
  378MOL0     H50971   5.980   1.334  10.996 -0.4338  1.6347 -0.3390
  378MOL0     H50972   5.879   1.344  10.841  0.3047 -1.1488 -1.3207
  378MOL0     H50973   5.905   1.105  10.814 -0.2101  3.0672 -2.5338
  378MOL0     H50974   5.972   1.094  10.972 -1.2297 -2.2965  0.4762
  378MOL0     H50975   5.765   1.030  11.014 -0.3138  0.6274 -1.0726
  378MOL0     H50976   5.774   1.197  11.079  1.3040  3.5039 -1.9523
  378MOL0     H50977   5.657   1.286  10.894  0.1121  0.6745  0.9463
  378MOL0     H50978   5.659   1.128  10.806  1.0356  2.1896 -1.3459
  378MOL0     H50979   5.536   1.170  11.080  0.6034 -2.2008  0.7235
  378MOL0     H50980   5.497   1.038  10.980 -1.5155 -0.0012  1.2748
  378MOL0     H50981   5.237   1.096  10.985  0.4623 -0.3778  1.0389
  378MOL0     H50982   5.024   1.215  10.888  1.4247 -1.6352  3.8138
  378MOL0     H50983   5.030   1.314  11.032  1.7572 -0.0874  0.2477
  378MOL0     H50984   5.003   1.434  10.757 -1.2368  0.4701 -0.2576
  378MOL0     H50985   5.066   1.515  10.905  1.5769 -1.5533  2.2036
  378MOL0     H50986   4.850   1.452  11.022  2.6462 -0.2448 -0.1792
  378MOL0     H50987   4.790   1.384  10.867 -1.3929  1.1897  0.8777
  378MOL0     H50988   4.834   1.586  10.748  3.0370  2.8802  0.0915
  378MOL0     H50989   4.872   1.673  10.896 -1.6168  0.1146  1.2935
  378MOL0     H50990   4.499   1.728  11.006  0.2488 -0.3292 -0.0125
  378MOL0     H50991   4.231   1.940  10.906 -0.0905  2.7665  1.1301
  378MOL0     H50992   4.296   1.848  11.042 -2.1143 -1.5763 -1.9557
  378MOL0     H50993   4.332   2.021  11.029 -0.0437  0.6502  1.4144
  378MOL0     H50994   4.051   2.210  10.837 -0.8079 -0.3070 -2.3269
  378MOL0     H50995   3.963   2.434  10.818 -0.2965  2.1816  1.6169
  378MOL0     H50996   4.193   2.816  10.829  0.4328 -0.7380  1.1385
  378MOL0     H50997   4.231   2.771  10.670  0.7992 -2.3368  2.2272
  378MOL0     H50998   4.121   2.979  10.675  0.5550 -0.5154  1.5454
  378MOL0     H50999   4.019   2.861  10.591  1.3356 -0.8082 -0.5620
  378MOL0     H51000   3.897   2.810  10.808  2.5053 -1.3880 -1.3465
  378MOL0     H51001   3.871   2.980  10.757  0.7918  1.2169  0.4169
  378MOL0     H51002   3.897   2.949  11.008  2.7352  1.4008  4.1134
  378MOL0     H51003   4.057   2.887  10.980  0.3136 -0.9683 -2.8623
  378MOL0     H51004   3.967   3.164  10.910  0.7987 -1.0372 -1.6237
  378MOL0     H51005   4.128   3.106  10.877  1.8870  1.1352  1.1859
  378MOL0     H51006   4.187   3.087  11.122  0.0567  2.2722 -0.1268
  378MOL0     H51007   4.137   3.245  11.068 -0.6617  0.3387  1.7420
  378MOL0     H51008   3.995   3.030  11.227 -1.3936 -0.2707 -0.5811
  378MOL0     H51009   3.905   3.174  11.157 -1.5454 -3.5160  0.0760
  378MOL0     H51010   4.058   3.315  11.258  2.4292 -1.0902 -1.6811
  378MOL0     H51011   4.135   3.190  11.352 -0.3693  1.0391  1.6869
  378MOL0     H51012   4.340   2.592  10.696  2.8597 -2.1979  0.0440
  378MOL0     H51013   4.443   2.384  10.740 -0.7803 -1.1587 -0.3748
  378MOL0     H51014   4.613   1.968  10.591  2.0222  2.8267  1.6354
  378MOL0     H51015   4.722   1.759  10.650 -0.0790  0.1030 -0.5440
  378MOL0     H51016   6.510   1.521  10.661 -0.9389  0.0723  0.4639
  378MOL0     H51017   6.752   1.497  10.643  1.6804  0.2248  2.2740
  378MOL0     H51018   7.111   1.544  10.835  0.2140 -0.4583  0.4987
  378MOL0     H51019   7.341   1.636  10.774 -1.0050 -0.3471  1.2593
  378MOL0     H51020   7.587   1.419  10.527  1.1992  0.4816  2.1956
  378MOL0     H51021   7.541   1.521  10.386 -2.9628 -0.5406  0.6723
  378MOL0     H51022   7.703   1.624  10.618  0.5317 -0.0578 -0.1708
  378MOL0     H51023   7.647   1.715  10.461 -3.8154 -0.9165  0.4420
  378MOL0     H51024   7.788   1.595  10.325 -1.2938  2.1517  0.7015
  378MOL0     H51025   7.829   1.477  10.448 -1.0011 -0.7551 -1.3873
  378MOL0     H51026   7.964   1.648  10.571  2.3473 -1.4445 -0.6648
  378MOL0     H51027   7.923   1.770  10.446  0.6309  0.1578  1.9901
  378MOL0     H51028   8.220   1.517  10.273 -0.1140  1.2557 -0.2252
  378MOL0     H51029   7.366   1.370  10.454  1.0490  1.0467  1.0594
  378MOL0     H51030   7.166   1.243  10.519  3.3587 -1.5739 -1.6266
  379MOL0     O51031  10.783   5.971   7.240 -0.1802 -0.1255  0.2070
  379MOL0     C51032  10.844   5.918   7.154 -0.0437  0.1528  0.3012
  379MOL0     O51033  10.808   5.905   7.022 -0.3627 -0.2205  0.1263
  379MOL0     C51034  10.681   5.937   6.970 -0.7100 -0.1683 -0.6700
  379MOL0     C51035  10.668   5.909   6.831  0.4483 -0.0389  0.1404
  379MOL0     C51036  10.541   5.930   6.766  0.0239 -0.7039  0.8400
  379MOL0     C51037  10.433   5.980   6.836 -0.0976  0.3146 -0.7429
  379MOL0     O51038  10.314   6.004   6.767 -0.7437 -0.3124  0.0043
  379MOL0     C51039  10.206   6.069   6.840  0.9210 -0.9369  0.4846
  379MOL0     C51040  10.086   6.097   6.755 -0.0138 -0.7937 -0.2810
  379MOL0     C51041   9.967   6.139   6.841  0.7562 -0.9054  0.2991
  379MOL0     C51042   9.839   6.155   6.761  0.3176  0.3536  0.5014
  379MOL0     C51043   9.720   6.200   6.843  0.0061  0.8824 -1.6775
  379MOL0     C51044   9.590   6.207   6.765  0.4010  0.2295  0.2131
  379MOL0     C51045   9.466   6.233   6.844  0.8513 -0.7162  0.3815
  379MOL0     C51046   9.424   6.098   6.898  0.3931  0.1543  0.4392
  379MOL0     N51047   9.288   6.115   6.951 -0.3661  0.9209  0.1760
  379MOL0     C51048   9.183   6.028   6.920 -0.1327  0.1463 -0.7497
  379MOL0     C51049   9.088   6.061   7.012 -0.7218 -1.1107 -0.4549
  379MOL0     C51050   8.956   5.985   7.013 -0.6966 -0.3012  0.0704
  379MOL0     C51051   8.841   6.081   7.014 -0.6668 -0.0661  0.0089
  379MOL0     C51052   8.720   6.005   7.066 -1.2110 -0.0871  0.4162
  379MOL0     C51053   8.598   6.077   7.019 -0.1135 -0.3472 -0.0106
  379MOL0     O51054   8.495   6.016   7.094  0.4639 -0.1654 -0.1258
  379MOL0     C51055   8.367   6.054   7.069  0.4985  0.6906  0.3150
  379MOL0     C51056   8.270   5.972   7.133 -0.4289 -0.1580  0.3110
  379MOL0     C51057   8.134   5.995   7.110 -0.6332 -0.9023 -0.3636
  379MOL0     C51058   8.039   5.898   7.169 -1.0077 -0.2416  0.5476
  379MOL0     C51059   8.097   6.101   7.019 -0.8095 -0.2600 -0.1624
  379MOL0     C51060   7.961   6.136   6.996  1.5085 -1.0708  0.9749
  379MOL0     O51061   7.935   6.205   6.872 -0.0157  0.2555  0.3480
  379MOL0     C51062   7.813   6.253   6.852 -0.3213 -0.8203 -0.3690
  379MOL0     C51063   7.687   6.187   6.863  0.3973 -0.8029  0.7966
  379MOL0     C51064   7.571   6.245   6.819  1.0101 -0.3104 -0.1625
  379MOL0     C51065   7.567   6.372   6.763  0.7134  0.4198 -0.4141
  379MOL0     O51066   7.455   6.437   6.719  0.6059  0.3307  0.0235
  379MOL0     C51067   7.330   6.392   6.764 -0.3490 -0.5816 -0.0742
  379MOL0     C51068   7.207   6.470   6.695 -0.3161 -0.0274  0.0285
  379MOL0     C51069   7.080   6.387   6.684 -0.8524 -0.6212 -0.0654
  379MOL0     C51070   7.000   6.391   6.823  0.2267 -0.0219  0.4667
  379MOL0     C51071   6.890   6.292   6.817  0.1131  0.3069  0.0641
  379MOL0     C51072   6.776   6.324   6.914 -0.0820  0.2526 -0.2579
  379MOL0     C51073   6.684   6.203   6.924  0.0704 -0.1108 -0.3198
  379MOL0     C51074   6.596   6.167   6.809  0.9124  0.9089  0.2154
  379MOL0    Cl51075   6.474   6.293   6.790  0.5547  0.4743  0.1480
  379MOL0     C51076   7.685   6.435   6.760 -0.6245 -0.8945  0.3898
  379MOL0     C51077   7.804   6.377   6.794 -0.3735 -0.6385  0.7796
  379MOL0     O51078   7.882   6.102   7.078  0.9421  0.0320 -0.5974
  379MOL0     C51079   8.198   6.173   6.946  0.2127  0.0841 -0.0735
  379MOL0     C51080   8.325   6.141   6.973  0.6193 -0.9096  0.9002
  379MOL0     N51081   9.134   6.165   7.093 -0.2370  0.4599  0.1630
  379MOL0     N51082   9.262   6.185   7.066  0.4353 -0.6875  0.4903
  379MOL0     C51083  10.449   6.012   6.973  0.3617 -0.4948 -0.1613
  379MOL0     C51084  10.567   5.983   7.035  0.0520 -0.1209  0.0794
  379MOL0     C51085  10.981   5.884   7.186  0.6662  0.2920 -0.3781
  379MOL0     C51086  11.081   5.892   7.090  0.7797 -0.2055  0.8228
  379MOL0     C51087  11.212   5.850   7.131  0.3592 -0.2450 -0.7012
  379MOL0     C51088  11.243   5.800   7.254 -0.2365  1.2172  0.2314
  379MOL0     O51089  11.363   5.747   7.298 -0.2350 -0.0244  0.0536
  379MOL0     C51090  11.473   5.755   7.206  0.1023 -0.0597 -0.7382
  379MOL0     C51091  11.597   5.739   7.294 -0.8957  0.7563 -0.0740
  379MOL0     C51092  11.718   5.716   7.201  0.1108 -0.6490  0.4665
  379MOL0     C51093  11.844   5.682   7.283  0.4636 -0.8400  0.0571
  379MOL0     C51094  11.846   5.552   7.352  0.0602  0.1782 -0.5334
  379MOL0     C51095  11.862   5.452   7.418 -0.6339  0.6151  0.0715
  379MOL0     C51096  11.136   5.791   7.345 -0.2276 -0.2609  0.4336
  379MOL0     C51097  11.003   5.833   7.310 -0.0407  0.7545  0.0423
  379MOL0     H51098  10.756   5.874   6.779 -0.0106 -0.3351 -0.4463
  379MOL0     H51099  10.538   5.914   6.658 -0.6890 -0.4138  0.8099
  379MOL0     H51100  10.175   6.005   6.923 -0.3778 -0.0302  0.7314
  379MOL0     H51101  10.233   6.165   6.885  0.2363 -1.1845  1.4606
  379MOL0     H51102  10.111   6.173   6.680 -1.4760  1.2211  1.1869
  379MOL0     H51103  10.052   6.004   6.708 -2.1324  0.1258 -0.6812
  379MOL0     H51104   9.948   6.073   6.926  1.0701 -2.0001 -0.4662
  379MOL0     H51105   9.982   6.243   6.872 -0.4604 -0.5255 -0.2857
  379MOL0     H51106   9.856   6.232   6.686 -0.3375 -2.2382 -2.4888
  379MOL0     H51107   9.818   6.065   6.703  0.0004 -0.3873  1.7138
  379MOL0     H51108   9.715   6.127   6.925 -0.1550 -0.3102 -2.7278
  379MOL0     H51109   9.741   6.300   6.881 -0.6821  1.0285 -1.6687
  379MOL0     H51110   9.605   6.286   6.691  3.1882 -0.0170  0.4046
  379MOL0     H51111   9.578   6.115   6.707  0.3595 -1.2484  2.4276
  379MOL0     H51112   9.484   6.312   6.917 -1.5996  3.1115 -2.7715
  379MOL0     H51113   9.395   6.272   6.771  2.2993  3.5718  0.9939
  379MOL0     H51114   9.496   6.068   6.976 -0.2284 -1.7467  0.3220
  379MOL0     H51115   9.422   6.025   6.817  0.1218 -0.2474  0.8025
  379MOL0     H51116   9.191   5.945   6.851 -0.0992 -0.6109  0.1503
  379MOL0     H51117   8.958   5.908   6.935  2.0871  0.0048 -0.2726
  379MOL0     H51118   8.960   5.941   7.113  1.9099 -2.0818 -0.7075
  379MOL0     H51119   8.826   6.116   6.911 -0.4751 -0.0631 -0.0188
  379MOL0     H51120   8.865   6.160   7.085 -2.1638 -0.7612  1.3482
  379MOL0     H51121   8.725   5.991   7.175  2.2929 -0.8895  0.2649
  379MOL0     H51122   8.715   5.904   7.023 -1.7000 -0.2189  0.7696
  379MOL0     H51123   8.596   6.055   6.912 -0.2985  0.5189 -0.1930
  379MOL0     H51124   8.600   6.186   7.032 -1.3757  0.0128 -2.2392
  379MOL0     H51125   8.297   5.896   7.205 -2.6246 -0.9898  0.3439
  379MOL0     H51126   8.093   5.803   7.180 -0.0999  0.3422  1.3691
  379MOL0     H51127   8.004   5.923   7.270 -0.2689  2.8108  0.1595
  379MOL0     H51128   7.951   5.876   7.108 -0.4298 -0.0243 -0.3865
  379MOL0     H51129   7.682   6.085   6.901 -0.6725 -1.3426 -0.6864
  379MOL0     H51130   7.482   6.184   6.835  0.9462  0.2990  2.3064
  379MOL0     H51131   7.329   6.286   6.736  3.6841 -0.6784 -0.3996
  379MOL0     H51132   7.324   6.402   6.873 -1.9869 -0.8177 -0.1149
  379MOL0     H51133   7.191   6.562   6.753 -1.1804 -1.2610  1.8585
  379MOL0     H51134   7.234   6.500   6.594  0.1334 -0.1513  0.1100
  379MOL0     H51135   7.123   6.289   6.663 -0.1739 -0.4490  0.4762
  379MOL0     H51136   7.012   6.417   6.604  0.1310 -1.0184 -1.0582
  379MOL0     H51137   7.059   6.363   6.910 -0.6347  1.2367  1.4833
  379MOL0     H51138   6.956   6.491   6.828 -0.2423 -0.0381 -1.8548
  379MOL0     H51139   6.930   6.197   6.855  0.0130  1.0003  2.0598
  379MOL0     H51140   6.842   6.281   6.720  1.6737  2.1975 -0.9897
  379MOL0     H51141   6.810   6.348   7.015 -1.2132 -3.3308  1.1406
  379MOL0     H51142   6.714   6.410   6.886  1.9619  1.3175 -1.7724
  379MOL0     H51143   6.617   6.211   7.010 -2.2697 -2.4005 -1.7937
  379MOL0     H51144   6.738   6.110   6.942 -2.7946 -1.7007  0.6463
  379MOL0     H51145   6.546   6.072   6.829  1.8146  0.0353 -1.5411
  379MOL0     H51146   6.659   6.148   6.722 -1.6742 -0.3083 -1.5095
  379MOL0     H51147   7.689   6.532   6.712  1.8817 -0.5255  1.1991
  379MOL0     H51148   7.900   6.420   6.769 -0.5312 -0.1255  1.0442
  379MOL0     H51149   8.185   6.254   6.875  0.4649 -0.5110 -0.8149
  379MOL0     H51150   8.396   6.205   6.922  0.7099 -3.1997 -2.1707
  379MOL0     H51151  10.369   6.053   7.034  0.5607 -0.6868  0.2342
  379MOL0     H51152  10.567   5.986   7.143 -0.1243  0.8695  0.0610
  379MOL0     H51153  11.065   5.919   6.986 -0.8208 -0.6597  0.9265
  379MOL0     H51154  11.288   5.856   7.053  1.5582  2.2277  0.5343
  379MOL0     H51155  11.461   5.669   7.139 -1.5438 -0.6743  0.2971
  379MOL0     H51156  11.476   5.843   7.141  0.0185 -1.9233 -3.4427
  379MOL0     H51157  11.588   5.651   7.358  0.0793  0.3611 -0.4599
  379MOL0     H51158  11.598   5.827   7.359 -2.7754  0.8727 -0.1463
  379MOL0     H51159  11.731   5.811   7.147  0.7436 -2.0677 -2.0898
  379MOL0     H51160  11.705   5.637   7.126  3.5776 -1.3708  0.4555
  379MOL0     H51161  11.856   5.759   7.360  1.3617  0.2706 -1.1436
  379MOL0     H51162  11.929   5.679   7.213 -2.9947 -0.2003 -4.6299
  379MOL0     H51163  11.864   5.376   7.493  0.1804  1.2091  0.6771
  379MOL0     H51164  11.153   5.762   7.448  1.1705  1.7074  0.7967
  379MOL0     H51165  10.919   5.828   7.379 -0.6509  2.5528 -0.5274
  380MOL0     O51166   2.045   5.855   0.363  0.2917 -0.1453 -0.5078
  380MOL0     C51167   2.140   5.818   0.300 -0.1700  0.3957 -0.2005
  380MOL0     O51168   2.133   5.777   0.175 -0.2182 -0.2311 -0.7629
  380MOL0     C51169   2.022   5.767   0.095 -0.2532 -0.0777  0.1703
  380MOL0     C51170   1.885   5.804   0.119 -0.3524  0.3028  0.6145
  380MOL0     C51171   1.788   5.769   0.024 -0.3937 -0.1101 -0.7568
  380MOL0     C51172   1.819   5.702  -0.094  0.2779  0.1401  0.1334
  380MOL0     O51173   1.728   5.652  -0.187 -0.2029 -0.4486  0.0138
  380MOL0     C51174   1.591   5.673  -0.156  0.4920  1.0826 -0.0985
  380MOL0     C51175   1.516   5.643  -0.273  0.4917  0.5180  1.0064
  380MOL0     C51176   1.358   5.659  -0.255  0.5504  1.0441 -0.8287
  380MOL0     C51177   1.284   5.589  -0.368  0.1291 -0.1790  0.0428
  380MOL0     C51178   1.138   5.632  -0.397  0.1066 -0.6401 -0.0083
  380MOL0     C51179   1.092   5.596  -0.538 -0.2921  0.3171 -0.0663
  380MOL0     C51180   0.966   5.674  -0.594 -0.8616  0.2324  0.3579
  380MOL0     C51181   0.933   5.650  -0.743 -0.1700  0.5704 -0.5246
  380MOL0     N51182   0.805   5.703  -0.786  0.4895  0.0082 -0.4692
  380MOL0     C51183   0.682   5.637  -0.768  0.3661  0.0196  1.2441
  380MOL0     C51184   0.583   5.720  -0.816 -0.4614  0.1478  0.2456
  380MOL0     C51185   0.433   5.680  -0.824 -0.6677 -0.7254 -0.0322
  380MOL0     C51186   0.358   5.740  -0.713  0.5417  0.2225  0.5063
  380MOL0     C51187   0.203   5.717  -0.691  0.2985  0.1693  0.2573
  380MOL0     C51188   0.129   5.762  -0.810  0.5445 -1.1872 -0.3935
  380MOL0     O51189   0.128   5.653  -0.904  0.5027  0.7355  0.0369
  380MOL0     C51190   0.020   5.643  -0.992  0.3938  0.5860 -0.2803
  380MOL0     C51191   0.004   5.529  -1.072  0.3522  0.2217  0.4193
  380MOL0     C51192  -0.118   5.495  -1.152 -0.0233  0.3346  0.1220
  380MOL0     C51193  -0.106   5.366  -1.240 -0.9297 -0.8565 -0.4616
  380MOL0     C51194  -0.233   5.583  -1.132  0.4232  0.0991 -0.6549
  380MOL0     C51195  -0.372   5.550  -1.171  0.8825  0.2003 -0.9816
  380MOL0     O51196  -0.459   5.659  -1.185 -0.3826  0.0017  0.0653
  380MOL0     C51197  -0.579   5.642  -1.252 -0.2632  0.0518  0.1104
  380MOL0     C51198  -0.635   5.749  -1.325  0.9006  0.0180 -0.8035
  380MOL0     C51199  -0.758   5.757  -1.389 -0.2762  0.0484  0.5475
  380MOL0     C51200  -0.844   5.646  -1.383 -0.1003 -0.3790  0.3720
  380MOL0     O51201  -0.971   5.657  -1.440 -0.3843 -0.5069 -0.0871
  380MOL0     C51202  -1.067   5.545  -1.433 -0.0894 -0.5813 -0.1928
  380MOL0     C51203  -1.209   5.603  -1.455  0.1884 -0.7813 -0.4510
  380MOL0     C51204  -1.245   5.618  -1.600  0.0665  0.3828 -0.4913
  380MOL0     C51205  -1.389   5.617  -1.623  0.7278  0.1793 -0.1417
  380MOL0     C51206  -1.417   5.633  -1.774 -0.1729 -0.5865  0.3221
  380MOL0     C51207  -1.564   5.594  -1.812 -0.1320 -0.2137  0.1821
  380MOL0     C51208  -1.590   5.607  -1.965  0.0166 -0.3376 -0.0435
  380MOL0     C51209  -1.709   5.538  -2.017  0.4697  0.1274 -0.2473
  380MOL0    Cl51210  -1.864   5.605  -1.953  0.1541 -0.2390  0.3269
  380MOL0     C51211  -0.798   5.536  -1.307 -0.3251 -0.2933 -0.3419
  380MOL0     C51212  -0.667   5.532  -1.244  0.3273  0.7949  0.4232
  380MOL0     O51213  -0.402   5.438  -1.199  0.0745 -0.0013  0.0708
  380MOL0     C51214  -0.208   5.709  -1.063 -0.1999  0.3750  0.4424
  380MOL0     C51215  -0.089   5.733  -0.991 -1.5431 -0.1026  0.0655
  380MOL0     N51216   0.651   5.830  -0.870 -0.0406 -0.6126  0.0408
  380MOL0     N51217   0.776   5.819  -0.855 -0.1510  0.7504  0.3148
  380MOL0     C51218   1.955   5.675  -0.117 -0.3964  0.1620  0.7845
  380MOL0     C51219   2.051   5.701  -0.025  0.1240 -0.4797 -0.3298
  380MOL0     C51220   2.281   5.826   0.352 -0.1212 -0.0995 -0.2732
  380MOL0     C51221   2.293   5.833   0.487  0.5777 -0.3838  0.0808
  380MOL0     C51222   2.420   5.826   0.548  0.3556  0.8200 -0.0287
  380MOL0     C51223   2.532   5.809   0.474 -0.9458  0.2914 -0.2278
  380MOL0     O51224   2.657   5.809   0.532  0.2669  0.3012 -1.0302
  380MOL0     C51225   2.731   5.929   0.509  0.0911  0.5564  0.5615
  380MOL0     C51226   2.760   5.985   0.639 -0.0697 -0.0057  0.1572
  380MOL0     C51227   2.643   6.026   0.729 -0.2969  0.5770 -0.1105
  380MOL0     C51228   2.688   6.084   0.866  0.2819 -0.4888 -0.8455
  380MOL0     C51229   2.739   6.221   0.861  0.2365 -0.1323 -0.2829
  380MOL0     C51230   2.779   6.334   0.878 -0.2930  0.1106 -0.4307
  380MOL0     C51231   2.522   5.806   0.332 -0.0096 -0.2082  0.0060
  380MOL0     C51232   2.397   5.815   0.277  0.3979 -0.2118  0.7768
  380MOL0     H51233   1.856   5.845   0.215 -0.0310  1.3856  0.2612
  380MOL0     H51234   1.691   5.801   0.062  0.5148 -0.6244  2.3265
  380MOL0     H51235   1.559   5.611  -0.072  0.4681 -1.7659 -2.0255
  380MOL0     H51236   1.569   5.775  -0.124  0.3331  1.6744 -1.9839
  380MOL0     H51237   1.558   5.695  -0.360  2.6164 -1.6195  0.6476
  380MOL0     H51238   1.532   5.539  -0.303 -0.0979  0.9814 -1.1042
  380MOL0     H51239   1.325   5.608  -0.164 -1.6240 -0.0946 -2.1549
  380MOL0     H51240   1.336   5.765  -0.245  2.3539  1.7151 -3.1044
  380MOL0     H51241   1.349   5.610  -0.453 -1.0755  0.7788 -0.6877
  380MOL0     H51242   1.284   5.481  -0.350  0.9109 -0.5216 -1.8702
  380MOL0     H51243   1.057   5.603  -0.330 -1.2151  2.7888  0.0938
  380MOL0     H51244   1.134   5.740  -0.378 -1.0974 -0.4582 -1.2007
  380MOL0     H51245   1.173   5.619  -0.608 -0.6163 -0.8198 -0.8376
  380MOL0     H51246   1.060   5.492  -0.545 -0.5538  0.4881 -2.3496
  380MOL0     H51247   0.870   5.655  -0.545 -0.6717 -0.9191  0.3144
  380MOL0     H51248   0.992   5.780  -0.590  0.1485  0.1472 -1.9483
  380MOL0     H51249   0.918   5.542  -0.746 -3.6015  0.8273  1.2799
  380MOL0     H51250   1.013   5.682  -0.810  1.8381  0.0685  1.5162
  380MOL0     H51251   0.670   5.534  -0.735  0.7234 -0.6919 -0.7304
  380MOL0     H51252   0.390   5.712  -0.919  0.0162  1.1454  0.2506
  380MOL0     H51253   0.432   5.571  -0.816 -0.3445 -0.6301  1.7510
  380MOL0     H51254   0.367   5.849  -0.716 -1.4723  0.4877  1.8151
  380MOL0     H51255   0.397   5.717  -0.614 -0.8768 -1.1765  0.7891
  380MOL0     H51256   0.173   5.782  -0.608  2.0557  1.0382  0.2562
  380MOL0     H51257   0.167   5.617  -0.665  0.3451 -0.0363 -0.4505
  380MOL0     H51258   0.177   5.846  -0.860 -2.3254  0.3094 -0.8400
  380MOL0     H51259   0.026   5.781  -0.777  0.4879 -1.2001 -0.5648
  380MOL0     H51260   0.088   5.465  -1.093  2.3552  3.3627 -2.2244
  380MOL0     H51261  -0.126   5.382  -1.346  0.6375  2.8328 -0.3379
  380MOL0     H51262  -0.005   5.325  -1.239 -0.2692  0.6730  1.1172
  380MOL0     H51263  -0.169   5.290  -1.192  0.5413 -1.7905  0.0589
  380MOL0     H51264  -0.575   5.839  -1.311 -1.2891  1.2048  2.1734
  380MOL0     H51265  -0.791   5.844  -1.445 -2.3944 -0.9009  0.2062
  380MOL0     H51266  -1.049   5.485  -1.522 -1.0266  1.0674 -1.5566
  380MOL0     H51267  -1.068   5.501  -1.333 -0.5073  0.6890  0.3776
  380MOL0     H51268  -1.278   5.529  -1.414  0.0506 -0.1472  0.4967
  380MOL0     H51269  -1.222   5.695  -1.397  1.6640 -0.1133 -1.1407
  380MOL0     H51270  -1.200   5.533  -1.653 -0.0475  1.2692 -2.0308
  380MOL0     H51271  -1.207   5.713  -1.639  0.1901  0.0055 -1.3106
  380MOL0     H51272  -1.430   5.519  -1.596 -1.3305  0.4795 -1.8959
  380MOL0     H51273  -1.450   5.692  -1.573 -0.4128 -0.7357 -0.1257
  380MOL0     H51274  -1.365   5.554  -1.829 -3.1330 -2.2757 -0.2375
  380MOL0     H51275  -1.392   5.734  -1.808  1.3127  0.0132  2.9186
  380MOL0     H51276  -1.580   5.488  -1.790  0.7715 -0.9119 -2.2419
  380MOL0     H51277  -1.630   5.659  -1.754 -0.3810  1.7332 -2.1293
  380MOL0     H51278  -1.503   5.566  -2.018 -1.1454 -1.7687 -0.9164
  380MOL0     H51279  -1.603   5.715  -1.982  0.5031 -0.2643  0.0127
  380MOL0     H51280  -1.703   5.433  -1.990  0.7852 -0.0003 -0.8137
  380MOL0     H51281  -1.716   5.539  -2.127 -1.4639  0.0718 -0.1719
  380MOL0     H51282  -0.866   5.453  -1.288 -0.8177  0.2733  0.4411
  380MOL0     H51283  -0.639   5.449  -1.180  0.5071  1.1863  0.8562
  380MOL0     H51284  -0.282   5.787  -1.054  1.8451  2.6282 -0.9535
  380MOL0     H51285  -0.074   5.836  -0.960  4.6957 -0.8467  0.8940
  380MOL0     H51286   1.980   5.639  -0.216  0.9725 -1.5396  1.6979
  380MOL0     H51287   2.155   5.677  -0.045  0.6735  1.5171 -0.1064
  380MOL0     H51288   2.202   5.846   0.545  0.3794  0.8952 -0.4696
  380MOL0     H51289   2.412   5.850   0.654 -3.7358  0.2868 -0.0774
  380MOL0     H51290   2.816   5.906   0.445 -1.8592 -0.6610 -1.7266
  380MOL0     H51291   2.672   5.999   0.448 -0.5448  1.3301  1.9884
  380MOL0     H51292   2.818   6.078   0.632  2.5737 -1.5492 -0.0252
  380MOL0     H51293   2.822   5.917   0.697 -1.2520  0.3539  1.9118
  380MOL0     H51294   2.586   5.937   0.758 -1.2101  1.4832  0.9888
  380MOL0     H51295   2.582   6.101   0.678 -2.1796  0.6110  2.0259
  380MOL0     H51296   2.763   6.019   0.912  0.7674  0.7171  0.1227
  380MOL0     H51297   2.609   6.076   0.940  1.8391  2.2591  1.3094
  380MOL0     H51298   2.821   6.431   0.897  0.8177 -0.2254 -1.0686
  380MOL0     H51299   2.612   5.791   0.273  2.3726  0.0583  3.3242
  380MOL0     H51300   2.398   5.804   0.169  2.2264 -3.0602  0.9719
  381MOL0     O51301   6.072   8.254   0.862 -0.1108  0.2894 -0.7850
  381MOL0     C51302   6.191   8.262   0.882  0.0851  0.1693  0.6061
  381MOL0     O51303   6.253   8.354   0.956 -0.4051  0.3772  0.2044
  381MOL0     C51304   6.192   8.441   1.033  0.5955 -0.8437  0.0088
  381MOL0     C51305   6.076   8.519   0.993 -0.7432  0.5100 -0.4288
  381MOL0     C51306   6.029   8.613   1.087 -0.0837  0.2100 -0.1194
  381MOL0     C51307   6.080   8.616   1.219  0.3867 -0.1215  0.3774
  381MOL0     O51308   6.025   8.699   1.318 -0.3929 -0.4913  0.2341
  381MOL0     C51309   5.888   8.740   1.316 -0.0299 -0.4979 -1.4312
  381MOL0     C51310   5.873   8.869   1.250  0.1018  0.3745  0.1503
  381MOL0     C51311   5.730   8.928   1.266 -0.0919  0.3104 -0.1489
  381MOL0     C51312   5.728   9.074   1.202  0.5945 -0.6749 -0.6016
  381MOL0     C51313   5.576   9.129   1.219  0.4240  0.2505  0.2517
  381MOL0     C51314   5.580   9.277   1.180  0.4244  0.4406  0.7186
  381MOL0     C51315   5.442   9.347   1.178  0.2004  0.4447 -0.0043
  381MOL0     C51316   5.436   9.466   1.093  0.2214 -0.2777 -0.4009
  381MOL0     N51317   5.294   9.510   1.080 -0.1628  0.2646 -0.0044
  381MOL0     C51318   5.202   9.458   0.990 -0.5271 -0.1560  0.5005
  381MOL0     C51319   5.080   9.518   1.011  0.2277 -0.2869  0.5957
  381MOL0     C51320   4.955   9.510   0.925  0.2049 -0.7661 -0.2914
  381MOL0     C51321   4.820   9.516   0.997 -0.1523 -0.4168  0.1609
  381MOL0     C51322   4.790   9.386   1.065  0.0156 -0.4268  0.1484
  381MOL0     C51323   4.642   9.367   1.090 -1.3998  0.5679 -0.1717
  381MOL0     O51324   4.575   9.362   0.965 -0.2931  0.4674 -0.5767
  381MOL0     C51325   4.438   9.357   0.954  0.5887 -0.0682  0.0527
  381MOL0     C51326   4.352   9.367   1.059 -0.0154 -0.0561 -0.2803
  381MOL0     C51327   4.209   9.351   1.048 -0.8140 -0.0760 -0.3876
  381MOL0     C51328   4.125   9.350   1.174  0.1248 -0.0418  0.3348
  381MOL0     C51329   4.149   9.341   0.925  0.6664  0.0580  0.1139
  381MOL0     C51330   4.007   9.349   0.884 -0.0358 -0.7514 -0.0191
  381MOL0     O51331   3.979   9.379   0.754  0.6729 -0.0450  0.0619
  381MOL0     C51332   3.848   9.394   0.714  1.3251  0.4538  0.2988
  381MOL0     C51333   3.743   9.299   0.743 -0.8180  0.7680  0.1223
  381MOL0     C51334   3.610   9.327   0.697  0.3097 -0.0062 -0.2519
  381MOL0     C51335   3.580   9.441   0.615 -0.8252 -0.1830  0.3605
  381MOL0     O51336   3.451   9.465   0.569 -0.3223  1.1356  0.6890
  381MOL0     C51337   3.372   9.349   0.535 -0.1535  0.4357  0.0087
  381MOL0     C51338   3.248   9.384   0.455 -0.4008 -0.4008 -0.0941
  381MOL0     C51339   3.182   9.260   0.393 -0.6705  0.2963  0.3264
  381MOL0     C51340   3.029   9.275   0.375 -0.0927 -0.0161  0.9358
  381MOL0     C51341   2.972   9.159   0.298 -0.2657  0.8505 -0.3718
  381MOL0     C51342   2.824   9.178   0.267 -0.0171  0.7066  0.1321
  381MOL0     C51343   2.776   9.129   0.134  0.5331  0.7290 -1.0578
  381MOL0     C51344   2.625   9.116   0.138  0.4546 -0.0817  0.3666
  381MOL0    Cl51345   2.569   9.004   0.273  0.3424  0.2039 -0.3787
  381MOL0     C51346   3.687   9.527   0.594  0.4576 -0.7255 -0.0637
  381MOL0     C51347   3.817   9.499   0.632 -0.3548  0.0757 -0.3916
  381MOL0     O51348   3.925   9.331   0.972  0.4338  0.5810 -0.5087
  381MOL0     C51349   4.240   9.331   0.814  0.8151 -0.1027  0.5440
  381MOL0     C51350   4.379   9.337   0.828  0.1414  0.5784 -0.3206
  381MOL0     N51351   5.102   9.603   1.116  0.0594 -0.2351 -0.7163
  381MOL0     N51352   5.229   9.603   1.157  0.2084 -0.5617 -0.0920
  381MOL0     C51353   6.184   8.539   1.257  0.6725  0.6753  0.4274
  381MOL0     C51354   6.244   8.463   1.163  0.0722  0.0459 -0.1745
  381MOL0     C51355   6.272   8.152   0.833  0.2977 -0.1232 -0.0694
  381MOL0     C51356   6.412   8.139   0.862 -1.0759 -1.0161  0.6806
  381MOL0     C51357   6.486   8.027   0.817 -0.3329  0.0632 -0.1746
  381MOL0     C51358   6.422   7.929   0.746  0.0916  0.1001 -0.4128
  381MOL0     O51359   6.493   7.816   0.729 -0.4730 -0.8073  0.2389
  381MOL0     C51360   6.463   7.710   0.821  1.1673  0.5649 -0.1700
  381MOL0     C51361   6.593   7.646   0.869 -0.4282  0.4545 -0.4397
  381MOL0     C51362   6.689   7.737   0.958 -0.2777 -0.3847  0.0120
  381MOL0     C51363   6.814   7.656   0.995 -0.1809 -0.0030  0.2765
  381MOL0     C51364   6.908   7.739   1.065  0.2961 -0.0628  0.2717
  381MOL0     C51365   6.984   7.824   1.115 -0.4106 -0.0853  0.0567
  381MOL0     C51366   6.294   7.945   0.706  0.2167 -0.8068 -0.0729
  381MOL0     C51367   6.216   8.056   0.742 -0.5132 -0.0526 -0.0084
  381MOL0     H51368   6.027   8.516   0.897 -0.0718 -1.7200 -0.7566
  381MOL0     H51369   5.952   8.678   1.046  2.6507  2.0046 -2.9235
  381MOL0     H51370   5.831   8.662   1.265 -0.0900 -1.7076  0.3680
  381MOL0     H51371   5.850   8.738   1.419  1.0188 -1.1296 -1.0465
  381MOL0     H51372   5.938   8.944   1.295  0.0697  2.0792 -2.4345
  381MOL0     H51373   5.902   8.858   1.145  2.0345 -0.9361  0.7626
  381MOL0     H51374   5.647   8.865   1.233 -0.0776  0.0076  0.3702
  381MOL0     H51375   5.707   8.930   1.373  0.6764 -2.2556  0.1312
  381MOL0     H51376   5.798   9.136   1.259 -0.9960 -0.6590  1.4307
  381MOL0     H51377   5.752   9.076   1.095 -0.2166 -0.3874 -0.7880
  381MOL0     H51378   5.511   9.064   1.160  1.2908  0.7734 -1.3478
  381MOL0     H51379   5.545   9.129   1.324  0.3966  2.3099  0.2940
  381MOL0     H51380   5.639   9.337   1.250 -0.9259  2.8379 -0.0980
  381MOL0     H51381   5.632   9.281   1.084 -1.0157 -2.4115 -0.2941
  381MOL0     H51382   5.368   9.272   1.149  2.2097 -0.7871 -2.3679
  381MOL0     H51383   5.425   9.381   1.281  0.0376 -0.4665  0.2760
  381MOL0     H51384   5.474   9.447   0.993 -0.7741 -0.9958 -0.6650
  381MOL0     H51385   5.505   9.538   1.138 -1.4464  1.3331 -0.2562
  381MOL0     H51386   5.214   9.390   0.906 -1.5235  3.1075 -2.5315
  381MOL0     H51387   4.950   9.594   0.856  1.8762 -2.0310 -2.0533
  381MOL0     H51388   4.966   9.424   0.859 -2.2541 -0.4632 -1.2084
  381MOL0     H51389   4.741   9.552   0.931 -0.0936  0.5437  0.5985
  381MOL0     H51390   4.823   9.600   1.067  0.1229  0.3906 -0.7905
  381MOL0     H51391   4.838   9.379   1.163 -0.1512 -1.0715  0.1879
  381MOL0     H51392   4.827   9.302   1.004 -0.9375  1.2406 -2.9520
  381MOL0     H51393   4.612   9.456   1.148 -1.0108  0.9467 -0.5493
  381MOL0     H51394   4.625   9.282   1.157  1.7337  0.2041  0.2824
  381MOL0     H51395   4.393   9.390   1.157 -0.2927 -0.6108 -0.0262
  381MOL0     H51396   4.187   9.355   1.264 -0.1572 -2.0284  0.6741
  381MOL0     H51397   4.056   9.435   1.185 -0.2382 -0.5593  2.3430
  381MOL0     H51398   4.065   9.259   1.174  0.7526 -0.4819 -0.7962
  381MOL0     H51399   3.765   9.219   0.812  1.8396 -1.1180 -2.6332
  381MOL0     H51400   3.529   9.263   0.730  0.5974 -1.8480 -2.8413
  381MOL0     H51401   3.431   9.273   0.482  2.2803  0.1537  2.8558
  381MOL0     H51402   3.334   9.289   0.618  2.0124  1.4051  1.7941
  381MOL0     H51403   3.175   9.433   0.519  1.1982 -2.3539  3.5008
  381MOL0     H51404   3.268   9.448   0.368  0.5901  0.5854  0.8337
  381MOL0     H51405   3.207   9.167   0.445 -2.0270  0.2110  0.8527
  381MOL0     H51406   3.219   9.234   0.293 -0.6519  0.8554  0.1865
  381MOL0     H51407   2.979   9.276   0.472 -3.4479  1.3457 -0.6334
  381MOL0     H51408   3.010   9.366   0.317 -1.0672 -1.0789 -0.4965
  381MOL0     H51409   2.989   9.069   0.357 -1.4394  1.5294  1.0775
  381MOL0     H51410   3.026   9.129   0.209  0.8521  1.7619 -0.0181
  381MOL0     H51411   2.772   9.133   0.352  2.3047  1.2641  1.9688
  381MOL0     H51412   2.804   9.285   0.263  2.0227  1.2547  2.0615
  381MOL0     H51413   2.814   9.027   0.118 -1.1709 -0.1615  0.2670
  381MOL0     H51414   2.824   9.184   0.052  1.1032 -0.4708 -1.5671
  381MOL0     H51415   2.593   9.066   0.046  0.8173 -0.3413  0.3785
  381MOL0     H51416   2.586   9.218   0.143  1.2205  0.1947  1.0049
  381MOL0     H51417   3.665   9.614   0.533  0.3002  0.6977  1.9208
  381MOL0     H51418   3.890   9.575   0.604 -1.4692  1.3861  0.0965
  381MOL0     H51419   4.198   9.327   0.714  1.0956 -1.2207  0.4652
  381MOL0     H51420   4.444   9.330   0.741 -0.8023 -0.1983 -0.9903
  381MOL0     H51421   6.221   8.546   1.359 -0.7865 -1.5499  1.1754
  381MOL0     H51422   6.332   8.406   1.189 -0.6347 -0.5104  1.0936
  381MOL0     H51423   6.466   8.226   0.899 -2.1789 -0.7141  1.6384
  381MOL0     H51424   6.593   8.019   0.838 -0.3218 -1.2465 -0.6646
  381MOL0     H51425   6.416   7.748   0.912 -0.9439 -1.8804 -0.1165
  381MOL0     H51426   6.395   7.630   0.789  2.0555 -0.5609  0.6598
  381MOL0     H51427   6.649   7.614   0.781 -2.7719  2.1676 -2.6936
  381MOL0     H51428   6.573   7.554   0.925  1.7788  0.5569  0.6160
  381MOL0     H51429   6.646   7.773   1.052 -0.6718 -1.6175  0.3239
  381MOL0     H51430   6.714   7.826   0.898  1.4709 -1.7286 -1.3465
  381MOL0     H51431   6.866   7.616   0.907  2.2811 -0.6206  1.9066
  381MOL0     H51432   6.781   7.577   1.064 -4.0258  2.0673  1.0965
  381MOL0     H51433   7.033   7.897   1.176 -3.0893  0.9110  1.2132
  381MOL0     H51434   6.237   7.867   0.655 -0.0886  1.7604 -4.1290
  381MOL0     H51435   6.112   8.060   0.711  0.2206  0.1568 -2.6544
  382MOL0     O51436   9.808   6.961   8.966 -0.7412 -0.0432 -0.2821
  382MOL0     C51437   9.833   6.865   8.890 -0.6997 -0.4016  0.2054
  382MOL0     O51438   9.741   6.776   8.840 -0.2628 -0.0550 -0.2351
  382MOL0     C51439   9.614   6.815   8.809  0.7014  0.1753 -0.2301
  382MOL0     C51440   9.519   6.715   8.810  0.0031  0.9307 -0.2155
  382MOL0     C51441   9.387   6.740   8.765  0.0269  0.0176 -0.0896
  382MOL0     C51442   9.342   6.875   8.738 -0.5527 -0.0139  1.3601
  382MOL0     O51443   9.208   6.893   8.703 -0.3645 -0.0959  0.1052
  382MOL0     C51444   9.149   7.024   8.693 -0.5863 -0.3551  0.2552
  382MOL0     C51445   8.998   7.011   8.660  0.4502 -0.3891  0.5525
  382MOL0     C51446   8.983   6.988   8.508  0.5388 -0.1056 -0.2043
  382MOL0     C51447   8.829   6.999   8.485  0.3321  0.0750  0.0188
  382MOL0     C51448   8.779   6.931   8.359  0.2757 -0.4149  0.5356
  382MOL0     C51449   8.640   6.987   8.325  0.4161 -0.3201 -0.6128
  382MOL0     C51450   8.562   6.877   8.254 -0.8715 -0.6027  0.3390
  382MOL0     C51451   8.408   6.900   8.233 -0.4445 -0.9497 -0.2631
  382MOL0     N51452   8.346   6.791   8.162  0.2415  0.1637 -0.9438
  382MOL0     C51453   8.300   6.787   8.029 -0.2403 -0.0654 -0.2427
  382MOL0     C51454   8.223   6.677   8.022  0.0234 -0.0243 -0.6715
  382MOL0     C51455   8.144   6.631   7.894  0.0763 -0.1147  0.4462
  382MOL0     C51456   7.999   6.657   7.907  0.3902  0.2125 -0.1594
  382MOL0     C51457   7.918   6.589   7.795 -1.0436  0.5822 -0.1810
  382MOL0     C51458   7.764   6.592   7.806 -0.3039  0.5389 -0.2700
  382MOL0     O51459   7.732   6.731   7.833 -0.5872 -0.1611 -0.3316
  382MOL0     C51460   7.603   6.771   7.842 -0.1296  0.1137  0.1155
  382MOL0     C51461   7.584   6.909   7.832  0.3449  0.2368  0.8947
  382MOL0     C51462   7.460   6.965   7.864  0.3626 -0.0851 -0.0922
  382MOL0     C51463   7.450   7.119   7.856 -0.4360  0.6574 -0.0770
  382MOL0     C51464   7.349   6.884   7.895 -0.0592  0.6280  0.0322
  382MOL0     C51465   7.208   6.930   7.915  0.0048  0.4300  0.0070
  382MOL0     O51466   7.166   7.047   7.853  0.0567 -0.1638 -0.2523
  382MOL0     C51467   7.059   7.111   7.909  0.3136  0.0337 -0.8054
  382MOL0     C51468   6.950   7.133   7.826 -1.1851  0.5688  0.3068
  382MOL0     C51469   6.843   7.207   7.876 -0.2275 -0.1320  0.2323
  382MOL0     C51470   6.830   7.261   8.004 -1.0129  0.8110  0.1353
  382MOL0     O51471   6.733   7.327   8.066  0.2092  0.8431  0.6648
  382MOL0     C51472   6.611   7.351   7.995 -0.4401  1.2000 -0.4426
  382MOL0     C51473   6.511   7.403   8.088 -0.6031 -0.1661 -0.3945
  382MOL0     C51474   6.371   7.433   8.036 -0.2073  0.2605 -0.1981
  382MOL0     C51475   6.291   7.504   8.152  0.2295  0.1245 -0.2925
  382MOL0     C51476   6.209   7.417   8.255 -0.2613  0.2038 -0.0182
  382MOL0     C51477   6.114   7.509   8.332  0.5221  0.0118 -0.1923
  382MOL0     C51478   6.013   7.453   8.429  0.4082 -0.7681  0.1739
  382MOL0     C51479   5.938   7.562   8.510 -0.4252 -0.4017  0.6903
  382MOL0    Cl51480   5.792   7.494   8.594 -0.2411 -0.3438 -0.1345
  382MOL0     C51481   6.940   7.239   8.082  0.1884 -0.8503 -0.0098
  382MOL0     C51482   7.054   7.175   8.038  0.2718 -0.0986 -0.3293
  382MOL0     O51483   7.148   6.875   8.006  0.1184 -0.6179  0.1925
  382MOL0     C51484   7.369   6.748   7.888  0.3605 -0.6364 -0.2550
  382MOL0     C51485   7.492   6.692   7.858  0.6948  0.1591 -0.3284
  382MOL0     N51486   8.220   6.616   8.140  0.8239 -0.4487  0.2861
  382MOL0     N51487   8.286   6.683   8.225 -0.3868  0.0511 -0.2993
  382MOL0     C51488   9.440   6.971   8.728  0.5232 -0.3094  0.4745
  382MOL0     C51489   9.577   6.950   8.769  0.1237  0.2944  0.4343
  382MOL0     C51490   9.975   6.846   8.863 -0.1506  0.0014  0.1780
  382MOL0     C51491  10.017   6.740   8.784 -0.1414 -0.5388  0.2245
  382MOL0     C51492  10.156   6.722   8.762  0.4135  0.0390 -0.4365
  382MOL0     C51493  10.252   6.810   8.816  0.1614 -0.7330 -0.0871
  382MOL0     O51494  10.383   6.794   8.777 -0.3150 -0.1602 -0.0472
  382MOL0     C51495  10.487   6.889   8.805 -0.0574 -0.6821  0.1542
  382MOL0     C51496  10.624   6.819   8.788 -0.3917  0.3866  0.5018
  382MOL0     C51497  10.654   6.712   8.896 -0.7895 -0.2068  0.5174
  382MOL0     C51498  10.791   6.636   8.884  0.3846  0.6957  0.5788
  382MOL0     C51499  10.822   6.564   9.008  0.4772  0.8603 -0.2835
  382MOL0     C51500  10.875   6.493   9.095  0.5175 -0.7065 -0.0268
  382MOL0     C51501  10.208   6.924   8.889  0.6399  0.6136 -1.0694
  382MOL0     C51502  10.070   6.935   8.908  1.1853 -0.1340 -0.1233
  382MOL0     H51503   9.542   6.612   8.835 -3.3944  0.6221  2.1658
  382MOL0     H51504   9.308   6.666   8.777 -1.3918  1.3687 -0.8271
  382MOL0     H51505   9.147   7.072   8.792  2.2476 -0.9925  0.7142
  382MOL0     H51506   9.190   7.082   8.610 -1.4483  1.1990  0.8847
  382MOL0     H51507   8.956   6.920   8.702 -1.9233  0.2935 -0.1889
  382MOL0     H51508   8.944   7.098   8.698 -0.4661 -0.7012 -0.0075
  382MOL0     H51509   9.039   7.063   8.452 -2.3438  1.7454 -0.8093
  382MOL0     H51510   9.014   6.886   8.487  0.0714 -0.0468 -1.2327
  382MOL0     H51511   8.786   6.949   8.572 -1.2663  2.2146  0.5425
  382MOL0     H51512   8.789   7.101   8.489 -2.1070 -0.8427  1.3742
  382MOL0     H51513   8.845   6.967   8.279  1.7405 -1.2550  1.3158
  382MOL0     H51514   8.788   6.824   8.377  0.0463 -0.2350  1.8000
  382MOL0     H51515   8.586   7.022   8.414  0.1379 -1.4790 -0.3188
  382MOL0     H51516   8.640   7.075   8.260  1.6842  1.2262  1.3677
  382MOL0     H51517   8.604   6.863   8.154  1.4608  2.7786  0.6457
  382MOL0     H51518   8.570   6.790   8.319  1.6541 -0.5804  0.1692
  382MOL0     H51519   8.394   6.997   8.185  1.7529 -0.0843  0.7112
  382MOL0     H51520   8.365   6.909   8.333  0.8061  2.5607  0.0911
  382MOL0     H51521   8.313   6.852   7.943 -0.9767  0.2676 -0.1082
  382MOL0     H51522   8.180   6.688   7.808  0.0853  2.2942  1.9447
  382MOL0     H51523   8.151   6.523   7.878 -0.0804  0.3085 -3.2105
  382MOL0     H51524   7.981   6.764   7.892  0.3014 -0.1172 -2.8223
  382MOL0     H51525   7.953   6.618   7.998 -0.4693  0.1973 -0.5952
  382MOL0     H51526   7.949   6.484   7.785  0.2468  1.0590 -1.4389
  382MOL0     H51527   7.937   6.637   7.699  3.0123  0.1491  0.2176
  382MOL0     H51528   7.728   6.541   7.895 -0.5516 -1.3667 -1.4028
  382MOL0     H51529   7.717   6.546   7.718  1.3122  1.5529 -1.7337
  382MOL0     H51530   7.668   6.976   7.818 -1.8064  3.0358  0.4597
  382MOL0     H51531   7.546   7.156   7.891 -0.1029 -1.0018  0.8685
  382MOL0     H51532   7.429   7.155   7.755  3.4734 -1.8528 -1.9875
  382MOL0     H51533   7.376   7.157   7.928  0.3695 -1.4943  2.0343
  382MOL0     H51534   6.956   7.093   7.725  0.6328 -0.1023  0.6429
  382MOL0     H51535   6.761   7.220   7.805 -0.3033  2.0592  0.6449
  382MOL0     H51536   6.618   7.410   7.904 -0.0404 -1.7925 -2.5169
  382MOL0     H51537   6.582   7.246   7.981 -0.8469  1.1933  0.3522
  382MOL0     H51538   6.499   7.336   8.174 -0.2758  0.5441  0.2188
  382MOL0     H51539   6.557   7.484   8.146  0.5924 -0.4888 -0.8537
  382MOL0     H51540   6.317   7.344   8.002  1.4033 -0.4796 -0.9083
  382MOL0     H51541   6.375   7.507   7.955  2.9205  0.5138  0.0854
  382MOL0     H51542   6.364   7.559   8.213  2.4878 -2.1114 -0.8158
  382MOL0     H51543   6.217   7.571   8.108  0.4955  0.4798 -0.2007
  382MOL0     H51544   6.279   7.368   8.323 -2.0692 -1.1487  0.9378
  382MOL0     H51545   6.153   7.337   8.206 -0.1773 -2.1407  3.4416
  382MOL0     H51546   6.169   7.578   8.396  1.1603  0.2860 -1.0150
  382MOL0     H51547   6.077   7.578   8.256  0.5748  0.0517 -0.1827
  382MOL0     H51548   6.055   7.373   8.491 -0.8956 -0.3390  1.6670
  382MOL0     H51549   5.922   7.408   8.388 -0.1007  0.4081 -0.0136
  382MOL0     H51550   5.902   7.637   8.439 -1.1674 -0.9989  0.4203
  382MOL0     H51551   5.997   7.607   8.591 -1.4749  0.5439  0.9632
  382MOL0     H51552   6.938   7.296   8.174  0.2638  0.0749 -0.5650
  382MOL0     H51553   7.136   7.171   8.109  0.7137  1.1072 -0.7468
  382MOL0     H51554   7.284   6.682   7.899 -0.9021  0.6168 -2.1294
  382MOL0     H51555   7.479   6.585   7.845 -2.5619  0.5707 -1.4634
  382MOL0     H51556   9.417   7.067   8.681 -0.4270 -0.3461  0.8304
  382MOL0     H51557   9.649   7.031   8.767 -0.3046  0.6813 -1.6590
  382MOL0     H51558   9.952   6.666   8.738 -0.6857  0.5505 -0.7951
  382MOL0     H51559  10.192   6.636   8.707 -1.3041 -2.6632  2.3100
  382MOL0     H51560  10.478   6.969   8.731  0.0348  2.5747  3.3602
  382MOL0     H51561  10.486   6.942   8.901  1.4493 -1.4318  0.6120
  382MOL0     H51562  10.697   6.901   8.798 -0.9361  0.8779  0.4791
  382MOL0     H51563  10.625   6.779   8.686 -1.4642 -1.6265  1.2251
  382MOL0     H51564  10.579   6.632   8.890 -0.1556 -0.7914  0.3514
  382MOL0     H51565  10.652   6.768   8.990  1.5416  0.9222 -0.0315
  382MOL0     H51566  10.873   6.706   8.868 -0.5529  2.1110  1.7479
  382MOL0     H51567  10.791   6.569   8.797  1.1433  1.2634  0.1309
  382MOL0     H51568  10.895   6.433   9.181 -3.8836 -0.5345  1.3517
  382MOL0     H51569  10.269   6.988   8.952  0.1410 -2.3857  2.8984
  382MOL0     H51570  10.029   7.016   8.968  1.9101  1.3312 -1.5346
  383MOL0     O51571   8.094  10.995   9.427 -0.8537  0.1917  0.9275
  383MOL0     C51572   8.126  10.982   9.312  0.1864 -0.5384  0.6793
  383MOL0     O51573   8.051  10.914   9.213 -0.3832  0.7335  0.6212
  383MOL0     C51574   7.927  10.868   9.245  0.3290 -0.4314 -0.3192
  383MOL0     C51575   7.814  10.927   9.186 -1.4118  0.0774 -0.8987
  383MOL0     C51576   7.692  10.898   9.229  0.5067  0.8827 -0.9109
  383MOL0     C51577   7.667  10.798   9.322  0.6582 -0.5337 -0.5787
  383MOL0     O51578   7.543  10.751   9.364  0.0605  0.5610 -0.6765
  383MOL0     C51579   7.440  10.739   9.265 -0.5389  0.2537  0.0521
  383MOL0     C51580   7.328  10.679   9.348 -0.1718  0.6452 -0.1467
  383MOL0     C51581   7.233  10.600   9.260 -0.0723 -0.2745  1.4131
  383MOL0     C51582   7.096  10.567   9.331  0.4803  0.3885 -0.3579
  383MOL0     C51583   6.996  10.481   9.253  0.1820  0.2115 -0.4104
  383MOL0     C51584   6.896  10.416   9.344 -0.6160  0.0018  0.2800
  383MOL0     C51585   6.794  10.334   9.278 -0.0893  0.0386 -0.9131
  383MOL0     C51586   6.841  10.211   9.195 -0.2913  0.1772  0.3185
  383MOL0     N51587   6.734  10.120   9.158 -0.5881  0.8713  0.4979
  383MOL0     C51588   6.752   9.985   9.158  0.5717  0.0919  0.1856
  383MOL0     C51589   6.625   9.932   9.134 -0.1896 -1.0665 -0.7138
  383MOL0     C51590   6.577   9.785   9.134 -0.2926  0.5558  0.2598
  383MOL0     C51591   6.477   9.764   9.027 -0.2798 -0.5031  0.1333
  383MOL0     C51592   6.533   9.807   8.894 -0.7723  0.0831 -0.0829
  383MOL0     C51593   6.449   9.787   8.764  0.2241 -0.1294  0.0548
  383MOL0     O51594   6.389   9.656   8.771 -0.0263 -0.3068  0.3954
  383MOL0     C51595   6.291   9.623   8.686 -0.3844 -0.5918  0.5125
  383MOL0     C51596   6.230   9.709   8.590 -0.0044 -0.1614 -0.9215
  383MOL0     C51597   6.117   9.669   8.521  0.4187 -0.5085 -0.0110
  383MOL0     C51598   6.033   9.773   8.439  0.2291  0.2156 -0.2527
  383MOL0     C51599   6.063   9.543   8.540  0.7573  0.0883 -0.8250
  383MOL0     C51600   5.934   9.502   8.476  0.6746 -0.4392 -0.3842
  383MOL0     O51601   5.837   9.486   8.567  0.2008 -0.0545 -0.2324
  383MOL0     C51602   5.716   9.434   8.542 -0.3754  0.2426  0.8055
  383MOL0     C51603   5.707   9.301   8.496 -0.5487  0.9561 -0.0119
  383MOL0     C51604   5.586   9.243   8.477  0.3431 -0.0917  0.7749
  383MOL0     C51605   5.472   9.313   8.485 -0.5932  0.1526 -0.6119
  383MOL0     O51606   5.354   9.242   8.462 -0.1647 -0.1250 -0.5238
  383MOL0     C51607   5.240   9.317   8.424 -0.3546  0.1532 -0.5389
  383MOL0     C51608   5.156   9.226   8.346 -0.3771 -0.9109  0.3742
  383MOL0     C51609   5.123   9.105   8.424 -0.1331  0.2549 -0.4923
  383MOL0     C51610   4.976   9.063   8.413 -0.5162  0.0437 -0.2955
  383MOL0     C51611   4.959   8.917   8.451 -0.1902 -0.3706 -0.0280
  383MOL0     C51612   4.805   8.890   8.479  0.1473  0.0139  0.2542
  383MOL0     C51613   4.759   8.744   8.475  1.0997  0.0203 -0.4586
  383MOL0     C51614   4.609   8.725   8.476  0.9563 -0.4754 -0.2988
  383MOL0    Cl51615   4.528   8.846   8.591 -0.2395 -0.6478 -0.1568
  383MOL0     C51616   5.478   9.451   8.515  0.8465  0.0024  0.2402
  383MOL0     C51617   5.599   9.510   8.559  0.0019 -0.0977 -0.5586
  383MOL0     O51618   5.930   9.484   8.353 -0.1431  0.5227 -0.0448
  383MOL0     C51619   6.133   9.445   8.618 -0.4731  0.3394 -0.2348
  383MOL0     C51620   6.240   9.493   8.696 -0.5226  0.2217 -0.3869
  383MOL0     N51621   6.533  10.043   9.129 -0.0872 -0.5296  1.1008
  383MOL0     N51622   6.611  10.150   9.126 -0.4956  0.4722  0.1665
  383MOL0     C51623   7.775  10.733   9.383 -0.0304 -0.3436 -0.7278
  383MOL0     C51624   7.905  10.776   9.355 -0.7627  0.4256 -0.1379
  383MOL0     C51625   8.270  11.020   9.281  0.1340  0.3288  0.0952
  383MOL0     C51626   8.317  10.998   9.149 -0.2176 -0.1897  0.2351
  383MOL0     C51627   8.455  11.009   9.125 -0.0879  0.1706 -0.4134
  383MOL0     C51628   8.543  11.067   9.216 -0.8926  0.5492 -0.8632
  383MOL0     O51629   8.678  11.074   9.170 -0.1360  0.2394  1.4149
  383MOL0     C51630   8.744  11.182   9.236  0.2657  0.1202  0.0539
  383MOL0     C51631   8.879  11.212   9.169  0.3254 -0.2092  0.2857
  383MOL0     C51632   8.925  11.095   9.085  0.1736  0.2390 -0.3735
  383MOL0     C51633   9.067  11.120   9.033  0.2030  0.0024  1.1836
  383MOL0     C51634   9.054  11.204   8.909 -1.2775  0.3457  0.6172
  383MOL0     C51635   9.039  11.273   8.812 -0.0175  0.2911  0.5390
  383MOL0     C51636   8.488  11.110   9.341 -0.9357 -1.5599 -0.9981
  383MOL0     C51637   8.356  11.087   9.373 -0.4870  0.1108 -0.2408
  383MOL0     H51638   7.832  11.005   9.113  1.3375  0.8836  0.5191
  383MOL0     H51639   7.605  10.944   9.183 -0.7587  0.0496  0.5442
  383MOL0     H51640   7.414  10.837   9.225 -0.9264 -0.2435 -0.9274
  383MOL0     H51641   7.477  10.674   9.186 -0.0678 -1.5892  1.6998
  383MOL0     H51642   7.377  10.617   9.423 -1.6208 -1.3040 -0.7459
  383MOL0     H51643   7.278  10.756   9.408  1.3282  0.0393  2.0141
  383MOL0     H51644   7.215  10.666   9.174  0.1616  1.7146  2.8229
  383MOL0     H51645   7.267  10.503   9.223  0.2622 -0.0487  1.1215
  383MOL0     H51646   7.133  10.520   9.423 -0.9021  3.5691  2.0461
  383MOL0     H51647   7.038  10.656   9.357 -0.5785  0.5249 -2.9420
  383MOL0     H51648   6.943  10.542   9.179 -0.5122  0.6575  0.4278
  383MOL0     H51649   7.049  10.400   9.203 -0.1695 -0.5334  0.4060
  383MOL0     H51650   6.942  10.353   9.421 -3.3404  0.4059  2.3891
  383MOL0     H51651   6.848  10.501   9.394  3.7637  1.9660  1.6231
  383MOL0     H51652   6.736  10.299   9.364 -1.2060  2.0132 -0.8191
  383MOL0     H51653   6.724  10.388   9.214 -1.3977 -0.9323 -0.3525
  383MOL0     H51654   6.916  10.157   9.253 -1.9559 -0.1722  2.2466
  383MOL0     H51655   6.889  10.243   9.102 -1.1980  0.1622 -0.1687
  383MOL0     H51656   6.847   9.934   9.165  0.8787  0.5583 -0.4226
  383MOL0     H51657   6.663   9.718   9.124 -1.1236 -0.5104  0.0595
  383MOL0     H51658   6.533   9.755   9.229  1.3631  0.6314  1.0728
  383MOL0     H51659   6.387   9.818   9.055  0.3320  0.6233 -0.0352
  383MOL0     H51660   6.452   9.657   9.027  0.2872 -0.6504  1.4587
  383MOL0     H51661   6.617   9.741   8.871 -0.6750  0.3557 -0.5221
  383MOL0     H51662   6.567   9.911   8.903 -0.4321 -0.1618  1.7986
  383MOL0     H51663   6.506   9.792   8.671 -0.5353 -0.2599 -0.4277
  383MOL0     H51664   6.374   9.865   8.746  1.6543  1.2203 -0.2911
  383MOL0     H51665   6.273   9.806   8.568  0.4839 -0.4141 -1.0735
  383MOL0     H51666   5.927   9.772   8.468  0.7364 -2.2411  1.9428
  383MOL0     H51667   6.064   9.877   8.449 -0.4479  0.8881 -3.8141
  383MOL0     H51668   6.039   9.749   8.333  0.5867  0.8527 -0.3778
  383MOL0     H51669   5.790   9.232   8.490 -2.1776 -1.3507  1.9283
  383MOL0     H51670   5.578   9.138   8.452 -0.0173  0.0658  0.2096
  383MOL0     H51671   5.191   9.348   8.517  0.1187  0.1226 -0.2798
  383MOL0     H51672   5.273   9.401   8.362 -0.2922  2.8640  2.8579
  383MOL0     H51673   5.073   9.289   8.313 -1.0330 -1.0907  1.6174
  383MOL0     H51674   5.217   9.185   8.265  0.9562 -2.7275  2.1979
  383MOL0     H51675   5.132   9.123   8.531 -2.3082 -1.1248 -0.0118
  383MOL0     H51676   5.183   9.024   8.380  0.0977  1.0894 -1.7753
  383MOL0     H51677   4.905   9.123   8.471 -0.7633 -1.3013  0.8349
  383MOL0     H51678   4.963   9.071   8.305 -2.1487 -0.8824 -0.2016
  383MOL0     H51679   5.011   8.894   8.544  3.7697  1.1194 -1.6131
  383MOL0     H51680   5.002   8.848   8.377  1.1481  0.4120 -0.0260
  383MOL0     H51681   4.785   8.933   8.578 -2.7599 -0.6071  0.0342
  383MOL0     H51682   4.747   8.949   8.407  1.2165 -0.5238 -1.0963
  383MOL0     H51683   4.799   8.695   8.564  1.2449 -2.1991 -1.6755
  383MOL0     H51684   4.804   8.693   8.390  1.2948 -0.1404 -0.2592
  383MOL0     H51685   4.597   8.623   8.513 -1.1694 -0.8315 -1.8177
  383MOL0     H51686   4.563   8.735   8.378  2.2265 -0.4373 -0.9176
  383MOL0     H51687   5.382   9.502   8.518  0.7118 -0.2813  0.9171
  383MOL0     H51688   5.600   9.614   8.592 -0.0767 -0.4608  0.6535
  383MOL0     H51689   6.093   9.345   8.634  0.2870 -0.1304 -1.2016
  383MOL0     H51690   6.297   9.428   8.762  0.8079  1.3232 -0.4247
  383MOL0     H51691   7.759  10.670   9.470  1.0977  1.4859  0.9089
  383MOL0     H51692   7.989  10.734   9.409 -0.9775 -1.5529 -1.2634
  383MOL0     H51693   8.254  10.960   9.068  0.9091 -1.0010 -0.2944
  383MOL0     H51694   8.496  10.978   9.029 -2.1910  0.8846 -1.5925
  383MOL0     H51695   8.689  11.277   9.232  1.4390  0.8448  0.6641
  383MOL0     H51696   8.757  11.164   9.343  0.8843 -0.8551 -0.1779
  383MOL0     H51697   8.955  11.244   9.241  0.5364 -1.8521  0.8478
  383MOL0     H51698   8.858  11.294   9.100  0.9432  0.2852  0.6788
  383MOL0     H51699   8.855  11.076   9.003 -0.3007 -4.0220  0.7472
  383MOL0     H51700   8.934  11.002   9.141  0.9300  0.7092  0.3088
  383MOL0     H51701   9.107  11.022   9.006 -0.3318  0.3149 -0.8922
  383MOL0     H51702   9.133  11.176   9.099  0.1533  0.7607  0.5979
  383MOL0     H51703   9.030  11.354   8.743 -1.2725 -2.9876 -3.6482
  383MOL0     H51704   8.552  11.156   9.416 -1.9972 -0.7776 -0.5444
  383MOL0     H51705   8.322  11.125   9.469 -1.4376 -2.5000  0.5400
  384MOL0     O51706   8.338   0.648   0.847 -0.1252  0.2240  0.0638
  384MOL0     C51707   8.450   0.643   0.796 -0.3961 -0.0425 -0.3015
  384MOL0     O51708   8.490   0.548   0.709  0.3633 -0.5048  0.0946
  384MOL0     C51709   8.404   0.455   0.674  0.6828  0.8251  0.0704
  384MOL0     C51710   8.367   0.443   0.544 -0.1662 -0.4104  0.2460
  384MOL0     C51711   8.282   0.342   0.491 -0.0180 -0.8826 -0.4867
  384MOL0     C51712   8.223   0.246   0.578  0.1434 -0.3800 -0.4563
  384MOL0     O51713   8.142   0.139   0.542 -1.3346  0.1011 -0.1205
  384MOL0     C51714   8.076   0.148   0.417 -0.5829  0.6472  0.1575
  384MOL0     C51715   7.986   0.026   0.388 -0.0150 -0.7756 -0.0819
  384MOL0     C51716   7.867   0.010   0.485  0.1050  0.5655 -0.4999
  384MOL0     C51717   7.770  -0.095   0.447 -0.1811  0.5377 -0.1710
  384MOL0     C51718   7.664  -0.104   0.563 -0.1978  0.2401  0.9405
  384MOL0     C51719   7.564  -0.205   0.533  0.3523  0.6040 -0.7936
  384MOL0     C51720   7.446  -0.218   0.632 -0.2343 -0.9573  0.3295
  384MOL0     C51721   7.342  -0.321   0.584 -0.5192 -0.1808 -0.0615
  384MOL0     N51722   7.222  -0.345   0.672 -0.6483 -0.1642 -0.7414
  384MOL0     C51723   7.174  -0.280   0.785 -0.0777 -0.0987  0.5262
  384MOL0     C51724   7.086  -0.377   0.830  0.3689 -0.2169 -0.2868
  384MOL0     C51725   7.011  -0.360   0.958 -0.1259  0.2676  0.0061
  384MOL0     C51726   6.865  -0.377   0.941 -0.0699  0.1060 -0.3988
  384MOL0     C51727   6.826  -0.517   0.929  0.4508  0.4744 -0.6421
  384MOL0     C51728   6.671  -0.544   0.926  0.0153 -0.0597  0.6075
  384MOL0     O51729   6.599  -0.420   0.904 -0.8438  0.2360 -0.1186
  384MOL0     C51730   6.467  -0.437   0.888  0.0075  0.1557  0.1855
  384MOL0     C51731   6.387  -0.482   0.994  0.9917 -0.5630 -0.3679
  384MOL0     C51732   6.248  -0.480   0.990  0.2138 -0.7025 -0.7924
  384MOL0     C51733   6.167  -0.522   1.111 -0.6018  0.1659 -0.5615
  384MOL0     C51734   6.183  -0.432   0.872  1.1467 -0.0034  0.3422
  384MOL0     C51735   6.029  -0.425   0.854  1.0048  0.2958 -0.6459
  384MOL0     O51736   5.978  -0.442   0.732 -0.0530 -0.0753  0.0425
  384MOL0     C51737   5.842  -0.445   0.708 -0.5757 -1.2218 -0.1190
  384MOL0     C51738   5.790  -0.574   0.676 -0.2839 -0.0109  0.3711
  384MOL0     C51739   5.653  -0.580   0.637  0.4563  0.0721  0.4451
  384MOL0     C51740   5.575  -0.465   0.633  0.0340 -0.5679 -0.6059
  384MOL0     O51741   5.437  -0.463   0.617  0.1631 -0.3361 -0.3939
  384MOL0     C51742   5.365  -0.593   0.616  0.5041  0.2799 -1.0554
  384MOL0     C51743   5.216  -0.561   0.638 -0.2264 -0.4815 -0.0461
  384MOL0     C51744   5.146  -0.485   0.533  0.3556 -0.2333  0.5527
  384MOL0     C51745   5.136  -0.553   0.398 -0.5401 -0.3091  0.2329
  384MOL0     C51746   5.071  -0.694   0.402  0.3764 -0.1553  0.0717
  384MOL0     C51747   4.925  -0.670   0.452  0.7189 -0.1050  0.3961
  384MOL0     C51748   4.817  -0.776   0.432  0.5452  0.5471 -0.7766
  384MOL0     C51749   4.692  -0.735   0.519  0.0346 -0.5396  0.8961
  384MOL0    Cl51750   4.556  -0.851   0.511  0.1324  0.0437  0.0983
  384MOL0     C51751   5.629  -0.343   0.655 -0.4164 -0.5846 -0.6093
  384MOL0     C51752   5.771  -0.332   0.681 -0.3280 -0.6731 -0.0085
  384MOL0     O51753   5.962  -0.407   0.955 -0.4848 -0.0123 -0.1573
  384MOL0     C51754   6.264  -0.394   0.761 -0.3776 -0.1125 -0.0980
  384MOL0     C51755   6.407  -0.401   0.760 -0.9507 -0.0958 -0.7443
  384MOL0     N51756   7.085  -0.491   0.752 -0.6380  0.5206 -0.1837
  384MOL0     N51757   7.169  -0.467   0.661  0.3403  0.4709  0.4603
  384MOL0     C51758   8.257   0.253   0.713 -0.2459  0.0919 -0.1082
  384MOL0     C51759   8.351   0.357   0.756  0.2971  0.0264  0.1623
  384MOL0     C51760   8.544   0.756   0.824  0.2043 -0.8424  0.0458
  384MOL0     C51761   8.493   0.880   0.867  0.0883 -0.2910 -0.3298
  384MOL0     C51762   8.571   0.981   0.909  0.3125 -0.8271 -0.2826
  384MOL0     C51763   8.714   0.967   0.894 -0.3229  0.6237 -1.0986
  384MOL0     O51764   8.819   1.053   0.920 -0.1013  0.8875  0.5891
  384MOL0     C51765   8.781   1.171   0.978  1.1306 -0.5131  0.0254
  384MOL0     C51766   8.883   1.281   0.954 -0.2759 -0.6864 -0.3744
  384MOL0     C51767   9.031   1.232   0.970 -1.0203  0.1716 -0.4468
  384MOL0     C51768   9.130   1.344   0.995  0.1169  0.8367 -0.2121
  384MOL0     C51769   9.144   1.390   1.130 -0.5873 -0.4514  0.2218
  384MOL0     C51770   9.156   1.421   1.247 -0.8415  0.5168  0.3362
  384MOL0     C51771   8.766   0.843   0.856  0.3418 -0.1813  0.5800
  384MOL0     C51772   8.682   0.738   0.824 -0.8447 -0.1437 -0.1134
  384MOL0     H51773   8.405   0.514   0.472 -0.7897 -0.2372  0.0777
  384MOL0     H51774   8.276   0.348   0.383 -1.3103  0.5668 -0.3858
  384MOL0     H51775   8.019   0.241   0.409  2.9613  2.8795 -2.2024
  384MOL0     H51776   8.150   0.149   0.336 -1.2694 -3.0571 -0.6683
  384MOL0     H51777   7.948   0.052   0.288  0.8859 -0.7852 -0.4368
  384MOL0     H51778   8.048  -0.063   0.378  1.1385 -0.1682  1.3933
  384MOL0     H51779   7.910  -0.017   0.582 -0.5160 -2.1105 -0.8846
  384MOL0     H51780   7.815   0.105   0.494  0.5535  0.7051  0.9009
  384MOL0     H51781   7.714  -0.058   0.360 -0.0548 -0.6895 -0.7850
  384MOL0     H51782   7.823  -0.189   0.434 -1.4855 -0.8313  3.2511
  384MOL0     H51783   7.723  -0.130   0.652 -2.3018 -1.6987  1.8633
  384MOL0     H51784   7.617  -0.008   0.587 -1.0286  0.3489 -0.9784
  384MOL0     H51785   7.525  -0.184   0.433  2.6924 -1.9379 -2.3998
  384MOL0     H51786   7.612  -0.303   0.525 -2.2374 -0.8062  0.1403
  384MOL0     H51787   7.480  -0.234   0.735  1.1404  1.9834  0.4477
  384MOL0     H51788   7.392  -0.123   0.631  1.9216  0.3566 -0.2806
  384MOL0     H51789   7.382  -0.418   0.554 -0.2423  0.1210 -0.6971
  384MOL0     H51790   7.314  -0.280   0.486  1.3945  1.2742 -0.0637
  384MOL0     H51791   7.197  -0.185   0.830 -0.8007 -0.1849  1.0942
  384MOL0     H51792   7.050  -0.434   1.029  1.2878  3.0264  2.2952
  384MOL0     H51793   7.041  -0.264   1.001 -0.3496  0.0978  0.5532
  384MOL0     H51794   6.833  -0.317   0.854  1.6425  1.8263  0.0929
  384MOL0     H51795   6.817  -0.341   1.032  0.6808 -1.7474  0.7783
  384MOL0     H51796   6.875  -0.571   1.010  0.2155  0.4992 -0.4789
  384MOL0     H51797   6.863  -0.559   0.835  1.2392  1.8918 -0.9891
  384MOL0     H51798   6.644  -0.590   1.022 -2.0952 -1.2412 -0.4839
  384MOL0     H51799   6.648  -0.609   0.841  0.3791  1.3080 -0.5703
  384MOL0     H51800   6.441  -0.518   1.081  1.8907 -0.8242 -1.0190
  384MOL0     H51801   6.221  -0.589   1.179 -3.3059 -2.2726 -0.6296
  384MOL0     H51802   6.135  -0.434   1.167  0.0177  0.7008 -1.0452
  384MOL0     H51803   6.083  -0.581   1.073  1.8125 -3.8305 -0.2443
  384MOL0     H51804   5.860  -0.657   0.669 -0.4499 -0.2349  1.2028
  384MOL0     H51805   5.610  -0.672   0.599 -0.8492  0.1349  1.6950
  384MOL0     H51806   5.376  -0.642   0.518 -0.6609  0.8030 -1.4795
  384MOL0     H51807   5.390  -0.656   0.701 -0.2827  1.3716  0.0166
  384MOL0     H51808   5.169  -0.660   0.649 -0.2998 -0.4352  0.0601
  384MOL0     H51809   5.195  -0.505   0.730 -1.1137 -0.2622 -0.3741
  384MOL0     H51810   5.195  -0.388   0.524 -0.6214  0.4624  2.2361
  384MOL0     H51811   5.048  -0.457   0.573 -0.9764 -1.9500 -1.3042
  384MOL0     H51812   5.086  -0.480   0.334  0.1975 -1.0751 -1.2754
  384MOL0     H51813   5.238  -0.555   0.358 -0.4021 -1.7282  0.6175
  384MOL0     H51814   5.135  -0.769   0.449 -1.2588 -1.4922  0.2668
  384MOL0     H51815   5.068  -0.726   0.297  2.2980 -1.9086  0.4962
  384MOL0     H51816   4.928  -0.661   0.561 -1.4161  0.2590  0.4685
  384MOL0     H51817   4.880  -0.574   0.423  1.6425  0.1882 -0.0851
  384MOL0     H51818   4.862  -0.870   0.466 -0.9842 -0.5000 -1.5508
  384MOL0     H51819   4.789  -0.789   0.327 -2.1974  2.1637 -0.3673
  384MOL0     H51820   4.653  -0.634   0.502 -1.3771 -1.5053 -2.1406
  384MOL0     H51821   4.723  -0.742   0.624  1.8179 -1.5967  0.3473
  384MOL0     H51822   5.578  -0.252   0.627 -0.9323  0.0131  2.0497
  384MOL0     H51823   5.824  -0.238   0.694  1.1396 -1.1142 -2.3573
  384MOL0     H51824   6.208  -0.377   0.670 -0.4907  0.6911  0.1172
  384MOL0     H51825   6.472  -0.378   0.676 -3.1866  0.5614 -2.3836
  384MOL0     H51826   8.221   0.175   0.779 -0.0115 -1.1235 -1.3794
  384MOL0     H51827   8.391   0.363   0.857  2.8304  0.0957 -0.7657
  384MOL0     H51828   8.386   0.889   0.857  0.0779 -0.3558 -0.2843
  384MOL0     H51829   8.523   1.062   0.962  0.2322 -1.1745  0.1829
  384MOL0     H51830   8.690   1.209   0.930  0.4021 -1.1125  0.9081
  384MOL0     H51831   8.760   1.168   1.085  1.9420  2.2117  0.3489
  384MOL0     H51832   8.870   1.363   1.025  0.8385 -0.0550 -0.8710
  384MOL0     H51833   8.868   1.322   0.854 -2.3310  2.8805  1.2094
  384MOL0     H51834   9.058   1.190   0.872  0.1412  1.0468 -0.5152
  384MOL0     H51835   9.052   1.154   1.044  1.3978  0.4656 -0.7563
  384MOL0     H51836   9.090   1.430   0.941 -0.1400 -0.2848 -1.9041
  384MOL0     H51837   9.227   1.317   0.951 -0.8378  0.0781 -1.9637
  384MOL0     H51838   9.145   1.460   1.346 -1.4651 -2.5688  1.6145
  384MOL0     H51839   8.873   0.828   0.860  0.4349  0.7437  2.0135
  384MOL0     H51840   8.726   0.640   0.812 -0.4792 -0.3014  2.0635
  385MOL0     O51841   4.658   7.108   8.600 -0.2433 -0.1243 -0.4515
  385MOL0     C51842   4.690   7.225   8.569  0.2088  0.5332 -0.4645
  385MOL0     O51843   4.617   7.335   8.600 -0.8579  0.5263  0.1668
  385MOL0     C51844   4.514   7.322   8.686  0.1901 -0.9858 -0.3227
  385MOL0     C51845   4.384   7.309   8.639  0.3341 -0.0833  0.9573
  385MOL0     C51846   4.278   7.287   8.720  0.1862 -0.2507 -0.5908
  385MOL0     C51847   4.295   7.289   8.855 -0.0054 -1.2439 -0.4388
  385MOL0     O51848   4.177   7.284   8.929 -0.8925  0.2339  0.0302
  385MOL0     C51849   4.182   7.307   9.063  0.3417 -0.7032 -0.7155
  385MOL0     C51850   4.043   7.293   9.119  0.5314 -0.2464  0.2275
  385MOL0     C51851   3.982   7.165   9.077  0.3717  0.4801 -0.1012
  385MOL0     C51852   3.868   7.121   9.156 -0.0448 -0.1960 -0.1207
  385MOL0     C51853   3.790   7.009   9.094 -0.1272  0.6579  0.1955
  385MOL0     C51854   3.673   6.958   9.175 -0.2207  0.1362  0.2679
  385MOL0     C51855   3.551   6.912   9.104 -0.0239  0.0982 -0.0255
  385MOL0     C51856   3.452   6.861   9.213  0.2105 -0.1480 -0.6807
  385MOL0     N51857   3.329   6.809   9.156  0.0288 -0.0903  0.9669
  385MOL0     C51858   3.228   6.884   9.098  0.1859  0.0506  0.4598
  385MOL0     C51859   3.144   6.795   9.036 -0.7202 -0.5414 -0.2334
  385MOL0     C51860   3.013   6.829   8.962  1.0628 -0.0215  0.2912
  385MOL0     C51861   2.908   6.722   8.944 -0.0504 -0.1536 -0.2231
  385MOL0     C51862   2.864   6.661   9.084  0.5558  0.8768 -0.5176
  385MOL0     C51863   2.739   6.571   9.053 -0.0461  0.7370  0.0849
  385MOL0     O51864   2.708   6.513   9.184 -0.8566  0.6223  0.5180
  385MOL0     C51865   2.578   6.511   9.220  0.3053 -0.2159  0.1368
  385MOL0     C51866   2.558   6.548   9.350  0.4494  0.9528 -0.0300
  385MOL0     C51867   2.432   6.556   9.411  0.4370  0.0472 -0.3308
  385MOL0     C51868   2.436   6.631   9.545 -0.7545  0.0573  0.8350
  385MOL0     C51869   2.316   6.501   9.338  0.5661  0.0834 -0.8032
  385MOL0     C51870   2.181   6.507   9.396 -0.5738 -0.1755  0.5276
  385MOL0     O51871   2.098   6.425   9.333  1.0547  0.4503  0.1698
  385MOL0     C51872   1.978   6.400   9.392 -0.2174 -0.7770  0.3087
  385MOL0     C51873   1.952   6.294   9.476 -0.0333 -0.3384 -0.7668
  385MOL0     C51874   1.825   6.269   9.527  0.2738 -0.0463 -0.6014
  385MOL0     C51875   1.716   6.344   9.471  0.5544 -1.0698 -1.0878
  385MOL0     O51876   1.585   6.309   9.485 -0.5023 -0.7304 -0.6665
  385MOL0     C51877   1.555   6.243   9.605  1.1116 -0.0238  0.2930
  385MOL0     C51878   1.409   6.232   9.606 -0.4749  0.0089 -0.3657
  385MOL0     C51879   1.367   6.119   9.510 -0.2682  0.1316  0.2329
  385MOL0     C51880   1.212   6.110   9.509 -0.2317 -0.2509  0.0821
  385MOL0     C51881   1.155   6.004   9.607  0.0415 -0.7655  0.2977
  385MOL0     C51882   1.005   6.012   9.596  0.0755  0.3653  0.1923
  385MOL0     C51883   0.941   5.901   9.682 -0.6376 -0.0035 -0.0855
  385MOL0     C51884   0.812   5.952   9.741  0.5885  0.4890 -0.0628
  385MOL0    Cl51885   0.707   5.980   9.604 -0.1602 -0.0607 -0.2260
  385MOL0     C51886   1.749   6.449   9.382 -0.2128 -0.4917  0.2535
  385MOL0     C51887   1.878   6.480   9.350  0.9929 -1.0495  0.6628
  385MOL0     O51888   2.148   6.582   9.488  0.1228 -0.1071  0.1164
  385MOL0     C51889   2.338   6.471   9.209 -0.1896  1.0581  0.5958
  385MOL0     C51890   2.468   6.482   9.145 -0.1850 -0.4053  0.3905
  385MOL0     N51891   3.201   6.672   9.046  0.1165 -0.4807  0.6061
  385MOL0     N51892   3.314   6.691   9.102  0.1425  1.5076  0.1097
  385MOL0     C51893   4.426   7.301   8.906  0.6524 -0.4696  0.2467
  385MOL0     C51894   4.540   7.313   8.825  0.5463 -0.4557  0.2909
  385MOL0     C51895   4.831   7.247   8.521 -0.5156  0.4548  0.0109
  385MOL0     C51896   4.904   7.137   8.486  0.6690  0.2021 -0.3209
  385MOL0     C51897   5.040   7.152   8.439 -0.2628 -0.1500 -0.0071
  385MOL0     C51898   5.102   7.276   8.435 -0.3495  0.2032  0.2122
  385MOL0     O51899   5.229   7.295   8.374 -0.4381 -0.5280  0.4502
  385MOL0     C51900   5.303   7.174   8.338 -0.7962  0.5720 -0.7274
  385MOL0     C51901   5.431   7.186   8.250 -0.0990  0.2099 -0.6538
  385MOL0     C51902   5.502   7.317   8.268  0.4333 -0.5894 -0.4377
  385MOL0     C51903   5.617   7.342   8.169  1.0264 -0.3628 -0.2429
  385MOL0     C51904   5.710   7.227   8.172  0.6483 -0.2991  0.0537
  385MOL0     C51905   5.793   7.135   8.158  0.3892  0.6429  0.8219
  385MOL0     C51906   5.027   7.389   8.451 -0.2446  0.9779  0.2967
  385MOL0     C51907   4.896   7.370   8.503  0.3371  0.1705  0.8643
  385MOL0     H51908   4.385   7.307   8.530  3.4770  0.1523  0.8939
  385MOL0     H51909   4.182   7.248   8.688 -0.1709  0.7242 -0.7434
  385MOL0     H51910   4.254   7.242   9.113 -0.7636 -2.1729 -0.9453
  385MOL0     H51911   4.209   7.412   9.078 -1.2944 -0.1588 -1.3325
  385MOL0     H51912   4.049   7.305   9.227 -4.6488 -0.4788  0.8222
  385MOL0     H51913   3.987   7.377   9.075  0.5559  0.7113  1.9552
  385MOL0     H51914   3.940   7.187   8.978 -0.4317  1.3670  0.4249
  385MOL0     H51915   4.059   7.089   9.060 -1.4660 -1.5836  0.4451
  385MOL0     H51916   3.896   7.086   9.255  1.2502 -2.2328 -1.1315
  385MOL0     H51917   3.792   7.199   9.167 -1.7485 -1.4828 -1.9665
  385MOL0     H51918   3.758   7.047   8.996  0.1885  2.8095  0.8802
  385MOL0     H51919   3.860   6.926   9.087 -1.9684 -1.9372  6.2429
  385MOL0     H51920   3.706   6.869   9.230  1.2990  0.0980 -0.6576
  385MOL0     H51921   3.643   7.044   9.236 -0.5500 -0.1716  0.5429
  385MOL0     H51922   3.512   6.991   9.039  3.2004 -0.8683 -3.4659
  385MOL0     H51923   3.579   6.825   9.044 -0.2611 -1.0470  1.4599
  385MOL0     H51924   3.425   6.945   9.278  0.2476  0.3481 -1.2941
  385MOL0     H51925   3.500   6.784   9.274 -1.3320 -1.7508 -1.4138
  385MOL0     H51926   3.202   6.989   9.098 -0.0053  0.0839 -2.6671
  385MOL0     H51927   2.966   6.917   9.009 -1.5277  1.1051 -3.8567
  385MOL0     H51928   3.031   6.879   8.866 -0.1346 -1.7783 -0.9176
  385MOL0     H51929   2.960   6.643   8.890  0.8220  0.4408 -0.2953
  385MOL0     H51930   2.823   6.759   8.888  0.8731  0.0113 -1.5573
  385MOL0     H51931   2.837   6.729   9.166  0.1037 -1.0298  0.9961
  385MOL0     H51932   2.949   6.601   9.116 -0.7320 -1.9061 -1.9765
  385MOL0     H51933   2.763   6.501   8.972  0.1906  1.1679 -0.2273
  385MOL0     H51934   2.658   6.623   9.001 -1.5088 -0.6947  0.8548
  385MOL0     H51935   2.643   6.580   9.410  0.6014 -0.1267  0.3619
  385MOL0     H51936   2.536   6.672   9.559 -0.8433  1.4613 -1.9396
  385MOL0     H51937   2.357   6.706   9.547 -2.1871 -1.1269 -2.6583
  385MOL0     H51938   2.413   6.562   9.627  1.0832  0.2487  1.5552
  385MOL0     H51939   2.032   6.225   9.503  0.0216  1.0274  3.2840
  385MOL0     H51940   1.814   6.182   9.590 -0.0153 -0.0148 -0.6069
  385MOL0     H51941   1.600   6.143   9.607  3.0725  0.8398  0.6892
  385MOL0     H51942   1.595   6.304   9.687  2.5745 -1.2181  0.5090
  385MOL0     H51943   1.378   6.205   9.707  2.6650 -1.9097  0.2406
  385MOL0     H51944   1.356   6.322   9.574 -0.5181 -0.6233 -2.2043
  385MOL0     H51945   1.397   6.019   9.544 -2.3995  0.7368  4.5795
  385MOL0     H51946   1.400   6.145   9.409 -1.4378  0.1773 -0.1443
  385MOL0     H51947   1.164   6.201   9.545  2.4893  2.7143 -3.0016
  385MOL0     H51948   1.181   6.112   9.404  3.3805 -0.9496 -1.1627
  385MOL0     H51949   1.192   6.032   9.706  0.2565  0.1785 -0.0366
  385MOL0     H51950   1.196   5.903   9.594  4.5681  0.5362  2.2526
  385MOL0     H51951   0.974   6.113   9.626  0.2988  0.4226  0.2355
  385MOL0     H51952   0.970   5.992   9.495  0.3842 -0.3681  0.2286
  385MOL0     H51953   1.007   5.870   9.764  1.9132  1.7333 -1.3159
  385MOL0     H51954   0.927   5.806   9.631 -1.2801  0.1571 -0.2133
  385MOL0     H51955   0.840   6.043   9.795 -0.1254  0.0554  1.0620
  385MOL0     H51956   0.788   5.882   9.821 -0.5907  1.7865  0.7467
  385MOL0     H51957   1.669   6.499   9.329  0.8786  0.2217 -0.7725
  385MOL0     H51958   1.900   6.554   9.274 -1.6647 -0.8797 -0.0342
  385MOL0     H51959   2.258   6.438   9.145 -0.1149 -0.5914  1.3032
  385MOL0     H51960   2.482   6.461   9.040 -0.8667  3.5673 -0.6214
  385MOL0     H51961   4.452   7.319   9.010  3.6075  3.2964 -0.9108
  385MOL0     H51962   4.643   7.315   8.859  0.3270 -0.7022  0.9894
  385MOL0     H51963   4.853   7.041   8.483 -0.3784  0.7471 -0.5069
  385MOL0     H51964   5.088   7.062   8.402  1.1474  0.0722  1.2012
  385MOL0     H51965   5.335   7.123   8.430 -1.0848  2.7864  0.6788
  385MOL0     H51966   5.243   7.101   8.284  0.3161  0.6894 -2.1797
  385MOL0     H51967   5.419   7.155   8.146  3.6465 -0.7877 -0.9469
  385MOL0     H51968   5.496   7.109   8.294 -0.1207  0.0647 -0.8743
  385MOL0     H51969   5.538   7.348   8.367  1.0830 -1.9208 -0.2271
  385MOL0     H51970   5.433   7.398   8.244  0.4964  0.5063  2.6701
  385MOL0     H51971   5.668   7.433   8.203 -0.4407  1.1008 -1.7836
  385MOL0     H51972   5.577   7.352   8.068 -0.1767 -0.0833  0.2411
  385MOL0     H51973   5.856   7.048   8.157 -0.0307  0.3414  0.1563
  385MOL0     H51974   5.057   7.491   8.431  3.2991 -0.0220 -0.1576
  385MOL0     H51975   4.828   7.454   8.513 -0.3454 -0.4182  1.2723
  386MOL0     O51976   2.311   5.820   1.362  0.9904  0.6616 -0.1456
  386MOL0     C51977   2.327   5.806   1.484  0.3760 -0.1170 -0.5122
  386MOL0     O51978   2.240   5.742   1.573 -0.0244  0.0858 -0.3145
  386MOL0     C51979   2.123   5.705   1.520 -0.0378 -0.7934  0.6441
  386MOL0     C51980   2.032   5.799   1.483  0.0916 -0.5863  0.2345
  386MOL0     C51981   1.907   5.763   1.432  0.0105  0.4107  0.8232
  386MOL0     C51982   1.870   5.630   1.424  0.0697  0.7126 -1.4227
  386MOL0     O51983   1.745   5.592   1.368 -0.5246 -0.4617 -0.5595
  386MOL0     C51984   1.704   5.456   1.378 -0.4857 -0.1707  0.2445
  386MOL0     C51985   1.559   5.427   1.345  0.1729  0.3458 -0.5993
  386MOL0     C51986   1.466   5.534   1.394 -0.1415  0.3876  0.3873
  386MOL0     C51987   1.333   5.470   1.428 -0.2059 -0.2622  0.2186
  386MOL0     C51988   1.242   5.470   1.303 -0.5596 -0.3510  0.3557
  386MOL0     C51989   1.137   5.364   1.314 -0.7875  0.1245  0.5196
  386MOL0     C51990   1.026   5.396   1.417  0.2154 -0.0476 -0.0153
  386MOL0     C51991   0.934   5.284   1.460 -0.5704 -0.3516 -0.5979
  386MOL0     N51992   0.843   5.243   1.354  0.5990  0.0649 -0.2922
  386MOL0     C51993   0.760   5.329   1.281  0.9672  0.7549 -0.4389
  386MOL0     C51994   0.702   5.241   1.192 -0.1743 -0.1584  0.3431
  386MOL0     C51995   0.605   5.293   1.091  0.0109 -0.0286  0.8043
  386MOL0     C51996   0.482   5.202   1.084 -0.9678 -0.3029  0.9804
  386MOL0     C51997   0.508   5.095   0.972 -0.7393  0.6317 -0.3910
  386MOL0     C51998   0.373   5.022   0.942  0.3810  0.3692  0.7081
  386MOL0     O51999   0.397   4.931   0.822  0.4461  0.0432 -0.2324
  386MOL0     C52000   0.281   4.900   0.752 -0.4977  0.0266  0.2667
  386MOL0     C52001   0.290   4.879   0.611 -0.0067  0.6826  0.2768
  386MOL0     C52002   0.172   4.853   0.533  0.5810 -0.2464 -0.5379
  386MOL0     C52003   0.183   4.838   0.383 -0.0479  0.0115  0.3393
  386MOL0     C52004   0.047   4.851   0.600  0.0408  0.1118 -0.0857
  386MOL0     C52005  -0.073   4.862   0.524  0.1250  0.3788  0.1806
  386MOL0     O52006  -0.086   4.960   0.421  0.3814  0.4680 -0.2532
  386MOL0     C52007  -0.196   4.973   0.345 -0.0120  0.2780  0.0333
  386MOL0     C52008  -0.291   4.865   0.313 -0.3492  0.1992  0.3992
  386MOL0     C52009  -0.394   4.891   0.223 -0.0515 -0.7958  0.5946
  386MOL0     C52010  -0.409   5.024   0.170 -0.4117  0.3313 -0.6148
  386MOL0     O52011  -0.524   5.038   0.091  0.3392 -0.1242 -0.1554
  386MOL0     C52012  -0.550   5.172   0.046  0.1838  0.3149  0.0177
  386MOL0     C52013  -0.691   5.179  -0.005 -0.1446 -0.2312 -0.7387
  386MOL0     C52014  -0.723   5.068  -0.108  0.2378 -0.2010 -0.8804
  386MOL0     C52015  -0.870   5.080  -0.146  0.3200  0.4957 -0.0541
  386MOL0     C52016  -0.911   4.968  -0.239 -0.0441 -0.0114  0.0128
  386MOL0     C52017  -1.056   4.937  -0.248  0.8491  0.2647 -0.0280
  386MOL0     C52018  -1.072   4.828  -0.347 -0.0425 -0.0837 -0.3399
  386MOL0     C52019  -1.220   4.817  -0.380  0.3952  0.1491 -0.1522
  386MOL0    Cl52020  -1.274   4.964  -0.470  0.3943 -0.1985 -0.3044
  386MOL0     C52021  -0.319   5.123   0.195 -0.2202 -0.1501  0.3135
  386MOL0     C52022  -0.211   5.097   0.283 -0.1272 -0.4619  0.0997
  386MOL0     O52023  -0.161   4.792   0.555  0.9052  0.0604  0.4030
  386MOL0     C52024   0.043   4.872   0.744 -0.4229 -0.0684  0.0140
  386MOL0     C52025   0.160   4.888   0.820 -0.7029  0.9751  0.0542
  386MOL0     N52026   0.745   5.113   1.213  0.0363  0.2538  0.1928
  386MOL0     N52027   0.839   5.116   1.307  0.1433 -0.2157  0.2510
  386MOL0     C52028   1.965   5.532   1.462  0.4716 -0.6391 -0.6592
  386MOL0     C52029   2.093   5.567   1.505 -0.7400  0.6070 -0.0552
  386MOL0     C52030   2.449   5.854   1.551 -0.4719  0.4901 -0.3580
  386MOL0     C52031   2.481   5.837   1.686  0.3592 -0.0620  0.3859
  386MOL0     C52032   2.609   5.866   1.732 -0.1012  0.5370  0.2609
  386MOL0     C52033   2.711   5.915   1.648 -0.8064  0.0109 -0.2991
  386MOL0     O52034   2.841   5.958   1.681 -0.1655  0.1156 -0.0409
  386MOL0     C52035   2.905   5.902   1.790  0.5307 -0.3231 -0.0105
  386MOL0     C52036   3.053   5.940   1.800  0.2581 -0.0739  0.0882
  386MOL0     C52037   3.138   5.882   1.684 -1.1394  0.0647  0.0066
  386MOL0     C52038   3.121   5.956   1.550  1.1373 -0.0999  0.2794
  386MOL0     C52039   3.214   5.917   1.453  0.3019  0.8538  0.8639
  386MOL0     C52040   3.282   5.890   1.356 -0.5324 -0.2129  0.4180
  386MOL0     C52041   2.675   5.938   1.512 -0.3394 -0.1200 -0.5427
  386MOL0     C52042   2.551   5.904   1.466 -0.3638  0.4360  0.3277
  386MOL0     H52043   2.048   5.904   1.505  0.8078 -1.0048  1.9666
  386MOL0     H52044   1.845   5.848   1.405 -1.5931 -0.2928  2.1243
  386MOL0     H52045   1.754   5.390   1.307 -1.6353  0.7368 -1.4605
  386MOL0     H52046   1.707   5.424   1.483  0.3256  3.2037  1.3837
  386MOL0     H52047   1.541   5.425   1.238 -2.6490 -0.1525 -0.1986
  386MOL0     H52048   1.524   5.332   1.387  1.1191 -0.3049 -1.2480
  386MOL0     H52049   1.512   5.567   1.487  0.5505  0.2899  0.0860
  386MOL0     H52050   1.457   5.615   1.321  0.9132 -2.2227 -2.9078
  386MOL0     H52051   1.343   5.368   1.466  1.4846 -2.1706 -4.6769
  386MOL0     H52052   1.285   5.530   1.506 -2.3391 -1.1908 -0.2821
  386MOL0     H52053   1.192   5.567   1.295 -2.2227 -1.1885  0.2490
  386MOL0     H52054   1.310   5.465   1.218 -1.0375 -0.1695 -0.0353
  386MOL0     H52055   1.103   5.350   1.211 -0.3774  0.2079  0.3687
  386MOL0     H52056   1.185   5.266   1.329  2.5227  1.1931 -1.9373
  386MOL0     H52057   1.073   5.437   1.507  0.0575  1.1925 -0.4810
  386MOL0     H52058   0.960   5.474   1.380 -0.6977  0.3592  2.3233
  386MOL0     H52059   0.869   5.322   1.539  0.6053 -1.4015  0.9334
  386MOL0     H52060   0.983   5.193   1.496 -1.5273  0.0031  1.7645
  386MOL0     H52061   0.747   5.437   1.283 -3.3883  0.3964 -0.9954
  386MOL0     H52062   0.589   5.395   1.127  2.0456  0.9918 -0.9705
  386MOL0     H52063   0.648   5.300   0.991 -0.0785 -0.6410  0.7192
  386MOL0     H52064   0.389   5.252   1.054 -1.3291 -2.2803 -1.5000
  386MOL0     H52065   0.456   5.162   1.183 -0.7306  1.3884  1.7780
  386MOL0     H52066   0.570   5.010   1.002 -2.3149 -0.3098  0.3268
  386MOL0     H52067   0.547   5.132   0.877  1.3751 -3.4108 -1.3138
  386MOL0     H52068   0.290   5.091   0.925 -0.9199 -1.5942 -1.6830
  386MOL0     H52069   0.331   4.965   1.025  0.2708  0.4437  0.7036
  386MOL0     H52070   0.389   4.879   0.566 -0.1556  1.1026 -0.0632
  386MOL0     H52071   0.283   4.800   0.360 -0.1118 -0.9776  1.5770
  386MOL0     H52072   0.115   4.763   0.342  2.2654 -2.1919  0.3234
  386MOL0     H52073   0.164   4.935   0.336  0.1215 -0.7648 -1.4152
  386MOL0     H52074  -0.280   4.765   0.355  1.3115 -0.4690 -1.4741
  386MOL0     H52075  -0.461   4.808   0.205 -1.4517  0.3813  0.2370
  386MOL0     H52076  -0.534   5.241   0.129  0.4630  0.1910  0.0676
  386MOL0     H52077  -0.481   5.185  -0.038 -1.3799 -1.6788 -1.7194
  386MOL0     H52078  -0.764   5.165   0.075 -1.9495 -1.6120 -2.5355
  386MOL0     H52079  -0.701   5.279  -0.048 -1.4384 -0.1631 -0.3250
  386MOL0     H52080  -0.702   4.968  -0.068 -2.8963 -0.2213  1.0799
  386MOL0     H52081  -0.661   5.089  -0.195  0.9896  1.9203  0.0964
  386MOL0     H52082  -0.924   5.071  -0.052 -0.2335 -2.5239 -0.5666
  386MOL0     H52083  -0.882   5.181  -0.188  0.7674  0.2148 -0.8924
  386MOL0     H52084  -0.864   4.873  -0.209 -1.5557 -1.5567 -2.2168
  386MOL0     H52085  -0.878   4.988  -0.341 -2.3829  0.5389 -0.6930
  386MOL0     H52086  -1.098   4.911  -0.151 -0.1676  1.1007 -0.2303
  386MOL0     H52087  -1.115   5.022  -0.282 -0.7035 -0.5371  0.5831
  386MOL0     H52088  -1.044   4.731  -0.305 -5.0292 -1.3709  0.6335
  386MOL0     H52089  -1.015   4.846  -0.439 -1.8015 -0.3780 -1.5444
  386MOL0     H52090  -1.274   4.807  -0.285  1.8077 -2.5772  0.4702
  386MOL0     H52091  -1.232   4.730  -0.444  0.3167  1.7023 -2.3580
  386MOL0     H52092  -0.332   5.220   0.149 -1.1839  0.3523  1.5933
  386MOL0     H52093  -0.136   5.169   0.313 -0.8992 -0.1915  1.4488
  386MOL0     H52094  -0.052   4.881   0.794  0.4565 -0.6366  1.8825
  386MOL0     H52095   0.157   4.898   0.928  2.5215  1.3999  0.1901
  386MOL0     H52096   1.947   5.430   1.432 -0.7593 -0.0726 -2.0046
  386MOL0     H52097   2.158   5.486   1.537 -3.0219 -0.6167  1.8388
  386MOL0     H52098   2.404   5.799   1.753  1.3834 -2.1185  0.4785
  386MOL0     H52099   2.623   5.853   1.839 -2.4623  1.3814  0.7353
  386MOL0     H52100   2.849   5.944   1.874 -0.7359  0.3907 -1.1594
  386MOL0     H52101   2.888   5.794   1.781  5.0031 -1.3852  1.8114
  386MOL0     H52102   3.098   5.913   1.896  1.5045 -0.6525 -0.6333
  386MOL0     H52103   3.059   6.049   1.803  0.2654 -0.0089 -1.4445
  386MOL0     H52104   3.107   5.777   1.673 -2.3084  0.1218  2.1970
  386MOL0     H52105   3.242   5.880   1.719 -0.3120  1.3808 -2.1730
  386MOL0     H52106   3.118   6.064   1.562 -0.6115 -0.0208 -0.5891
  386MOL0     H52107   3.022   5.918   1.525  1.7707 -0.9046 -1.0888
  386MOL0     H52108   3.341   5.870   1.270  1.0912 -0.6100  1.5832
  386MOL0     H52109   2.746   5.955   1.431  0.9786 -0.6757  0.4606
  386MOL0     H52110   2.536   5.893   1.359  0.2569 -0.4588  0.3244
  387MOL0     O52111   8.641   1.821   9.724 -0.4140 -0.1370 -0.6654
  387MOL0     C52112   8.639   1.896   9.626 -0.3592 -0.6725  0.0141
  387MOL0     O52113   8.526   1.924   9.551 -0.3315  0.0613  0.1124
  387MOL0     C52114   8.416   1.848   9.574  1.5275 -0.3617  0.9294
  387MOL0     C52115   8.311   1.879   9.662 -0.9809  0.0664  0.0643
  387MOL0     C52116   8.202   1.791   9.672  0.3405 -0.0506 -0.0271
  387MOL0     C52117   8.187   1.675   9.595 -0.6207  0.3560 -0.1056
  387MOL0     O52118   8.083   1.592   9.625 -0.3100 -0.4961  0.0398
  387MOL0     C52119   8.055   1.478   9.545  0.0605  0.1108  0.2794
  387MOL0     C52120   7.929   1.402   9.587  0.1045  0.1182 -0.0765
  387MOL0     C52121   7.817   1.497   9.615  1.2069  0.6957 -0.4041
  387MOL0     C52122   7.685   1.418   9.656  0.4970 -0.2590 -0.1349
  387MOL0     C52123   7.559   1.507   9.665 -0.7774  0.4599  0.6125
  387MOL0     C52124   7.458   1.413   9.723  0.4551  0.0099 -0.0308
  387MOL0     C52125   7.338   1.507   9.756 -0.1557  0.2797 -0.1365
  387MOL0     C52126   7.264   1.565   9.637 -0.5202 -0.1376  0.0210
  387MOL0     N52127   7.202   1.466   9.550 -0.5635 -0.3426  0.5411
  387MOL0     C52128   7.097   1.391   9.575 -1.1299 -0.1294 -0.5586
  387MOL0     C52129   7.037   1.351   9.459  0.3226  0.1485  0.1512
  387MOL0     C52130   6.913   1.261   9.448  0.4095 -0.4452  0.2312
  387MOL0     C52131   6.787   1.356   9.457 -0.4083  0.5583  0.7520
  387MOL0     C52132   6.657   1.280   9.462 -0.5610  0.1524 -0.1508
  387MOL0     C52133   6.600   1.259   9.324 -0.0742 -0.0093  0.9580
  387MOL0     O52134   6.546   1.383   9.275  0.9596  0.2685  0.2667
  387MOL0     C52135   6.422   1.362   9.215 -0.4420 -0.3988  0.2358
  387MOL0     C52136   6.421   1.349   9.074  0.3015 -0.1147  0.1273
  387MOL0     C52137   6.305   1.308   9.007  0.7108  0.2245 -0.2500
  387MOL0     C52138   6.311   1.282   8.859 -0.1819 -0.8516 -0.8342
  387MOL0     C52139   6.182   1.295   9.075  0.8807  0.1929  0.3089
  387MOL0     C52140   6.051   1.268   9.009 -0.0839 -0.3428  0.0500
  387MOL0     O52141   5.948   1.316   9.079  0.4281 -0.0793 -0.2355
  387MOL0     C52142   5.823   1.291   9.025 -1.0387 -0.1860 -0.3946
  387MOL0     C52143   5.739   1.204   9.086  0.3908 -0.3059  0.4433
  387MOL0     C52144   5.606   1.184   9.039 -0.7840  0.1649  1.1265
  387MOL0     C52145   5.569   1.231   8.911  0.1109  0.4912  0.2134
  387MOL0     O52146   5.453   1.196   8.863  0.0169  0.3681 -0.4714
  387MOL0     C52147   5.449   1.198   8.717 -1.0756  0.2207 -0.3124
  387MOL0     C52148   5.325   1.123   8.666 -0.0393  0.0931 -0.4783
  387MOL0     C52149   5.341   0.966   8.657  0.5499  0.6517 -0.0835
  387MOL0     C52150   5.430   0.914   8.535  0.4602  0.3026 -0.8249
  387MOL0     C52151   5.580   0.937   8.539 -0.4955 -0.2760 -0.2426
  387MOL0     C52152   5.657   0.916   8.673 -0.1706  0.2997  0.4217
  387MOL0     C52153   5.811   0.928   8.655  0.4875  0.1006 -1.7225
  387MOL0     C52154   5.869   1.069   8.614  0.1453  0.3848  0.1732
  387MOL0    Cl52155   6.042   1.060   8.595 -0.0184 -0.4091 -0.3321
  387MOL0     C52156   5.661   1.318   8.851  0.7554  0.4967 -0.5027
  387MOL0     C52157   5.782   1.350   8.905  0.1550  0.1333  0.8118
  387MOL0     O52158   6.044   1.195   8.912  0.2037 -0.2974 -0.4886
  387MOL0     C52159   6.183   1.326   9.215  0.2963  0.4373 -0.8341
  387MOL0     C52160   6.301   1.351   9.284 -0.0777 -0.9027 -0.1567
  387MOL0     N52161   7.118   1.400   9.357 -0.4362 -0.1650  0.2980
  387MOL0     N52162   7.216   1.464   9.413 -0.6905 -0.4841 -0.5558
  387MOL0     C52163   8.297   1.639   9.515  0.0831 -0.3703 -0.1024
  387MOL0     C52164   8.401   1.729   9.501 -0.3842 -0.2626  0.1372
  387MOL0     C52165   8.770   1.968   9.601  0.0235  0.7214 -0.1025
  387MOL0     C52166   8.784   2.060   9.501  0.4705  0.1422  0.2247
  387MOL0     C52167   8.907   2.127   9.475 -0.0488  1.0097 -0.0533
  387MOL0     C52168   9.013   2.110   9.561  0.2493 -0.2589 -0.0406
  387MOL0     O52169   9.127   2.167   9.521 -0.4219 -0.4676 -0.5494
  387MOL0     C52170   9.243   2.157   9.597  0.0432 -0.3916  0.0337
  387MOL0     C52171   9.354   2.235   9.517 -0.3632 -1.1060 -0.1875
  387MOL0     C52172   9.371   2.195   9.368  0.4596 -0.2076 -0.6650
  387MOL0     C52173   9.313   2.280   9.252  0.0071 -0.4112  0.3340
  387MOL0     C52174   9.404   2.398   9.222 -0.6157  0.2206 -0.3633
  387MOL0     C52175   9.468   2.503   9.200 -0.2730 -0.1244 -0.2806
  387MOL0     C52176   9.005   1.997   9.641  0.4608 -0.0432 -0.7012
  387MOL0     C52177   8.887   1.931   9.673 -0.6977 -0.3303  0.2612
  387MOL0     H52178   8.315   1.975   9.714  2.5708 -0.7384  1.5604
  387MOL0     H52179   8.135   1.823   9.750 -0.6034  0.4922 -1.0379
  387MOL0     H52180   8.035   1.522   9.447  2.9054  1.0657  0.0375
  387MOL0     H52181   8.139   1.408   9.546  0.0269  0.0666  0.0529
  387MOL0     H52182   7.891   1.339   9.506  0.6361 -0.6391  0.2616
  387MOL0     H52183   7.954   1.336   9.670 -0.9391 -1.8386 -1.2373
  387MOL0     H52184   7.842   1.552   9.706  0.5029 -0.6552  0.6473
  387MOL0     H52185   7.787   1.570   9.539 -1.4020  0.9100  0.7042
  387MOL0     H52186   7.672   1.338   9.583  2.0879 -0.8182  0.1590
  387MOL0     H52187   7.694   1.370   9.754  0.8110  0.6162  0.2730
  387MOL0     H52188   7.588   1.583   9.738 -3.3447  0.2567  1.9201
  387MOL0     H52189   7.527   1.546   9.568 -3.6269  2.7475  2.3084
  387MOL0     H52190   7.436   1.344   9.641 -0.5844  1.2566 -0.8561
  387MOL0     H52191   7.488   1.363   9.815 -0.4621  1.3900  1.0733
  387MOL0     H52192   7.277   1.443   9.819  0.3707  1.4629  1.6366
  387MOL0     H52193   7.369   1.588   9.823  0.1831 -0.8326  1.0713
  387MOL0     H52194   7.322   1.639   9.582 -0.1483 -0.1825  0.3514
  387MOL0     H52195   7.178   1.618   9.680  0.3668 -0.6295  2.5856
  387MOL0     H52196   7.069   1.349   9.671  3.2817 -0.9954  0.5653
  387MOL0     H52197   6.922   1.208   9.353  2.7660 -0.4456  0.3902
  387MOL0     H52198   6.923   1.182   9.523 -1.4977 -1.9353 -0.9956
  387MOL0     H52199   6.778   1.424   9.372  1.3908 -0.6180 -0.4370
  387MOL0     H52200   6.802   1.408   9.552  2.5469  0.2311  0.5559
  387MOL0     H52201   6.580   1.330   9.523 -1.2344  0.6335 -1.3599
  387MOL0     H52202   6.670   1.186   9.516  0.4720  1.5579  2.2449
  387MOL0     H52203   6.527   1.178   9.329  0.7156 -0.7157  1.0976
  387MOL0     H52204   6.673   1.222   9.252 -1.7682 -0.3113 -0.6705
  387MOL0     H52205   6.517   1.359   9.024 -0.7354  1.5227 -1.6581
  387MOL0     H52206   6.403   1.318   8.811  0.4525 -1.4469 -0.0956
  387MOL0     H52207   6.318   1.173   8.861  0.8915 -0.7835  0.9319
  387MOL0     H52208   6.228   1.325   8.802 -0.8607  2.9484  2.5944
  387MOL0     H52209   5.781   1.179   9.183  0.9825  0.8990  0.5188
  387MOL0     H52210   5.540   1.116   9.092  1.0334 -0.5637  2.6048
  387MOL0     H52211   5.439   1.299   8.676  0.1272  0.8848  0.9355
  387MOL0     H52212   5.540   1.158   8.671 -0.8065  0.5521 -0.0755
  387MOL0     H52213   5.244   1.155   8.731  0.9193  0.7452  0.4264
  387MOL0     H52214   5.316   1.156   8.562  0.5546 -0.7184 -0.8023
  387MOL0     H52215   5.240   0.925   8.648  1.1131 -0.7661 -0.2936
  387MOL0     H52216   5.381   0.928   8.752  0.7928  1.9283  0.3447
  387MOL0     H52217   5.420   0.806   8.518 -1.5117  0.3658 -0.3397
  387MOL0     H52218   5.376   0.941   8.444 -0.9894 -2.3447 -0.8719
  387MOL0     H52219   5.599   1.040   8.507 -0.4069  0.1649  1.1318
  387MOL0     H52220   5.633   0.869   8.472 -0.1656 -0.6800  0.4209
  387MOL0     H52221   5.628   0.980   8.757  0.1360  1.4906 -0.3516
  387MOL0     H52222   5.641   0.809   8.689  1.6073  0.2508  2.2733
  387MOL0     H52223   5.847   0.848   8.589  0.7177  0.4213 -1.9891
  387MOL0     H52224   5.855   0.899   8.751  1.8662 -2.1766 -2.9500
  387MOL0     H52225   5.842   1.156   8.675 -1.0212 -0.7704  1.3616
  387MOL0     H52226   5.816   1.082   8.519 -0.4001 -0.0004  0.4207
  387MOL0     H52227   5.633   1.360   8.755  2.1827 -0.5696 -1.4162
  387MOL0     H52228   5.836   1.423   8.845  1.2997 -0.3585  1.1985
  387MOL0     H52229   6.109   1.327   9.295  2.8558  2.9703  1.7568
  387MOL0     H52230   6.293   1.374   9.390 -1.4337 -2.3844  0.0982
  387MOL0     H52231   8.300   1.545   9.461  1.4630 -0.5325  0.2214
  387MOL0     H52232   8.480   1.713   9.429 -1.2622  1.1975 -1.2143
  387MOL0     H52233   8.701   2.074   9.433 -1.6311  1.0563  2.7942
  387MOL0     H52234   8.919   2.196   9.392 -0.6756  0.8846 -0.2491
  387MOL0     H52235   9.230   2.198   9.698  0.9804 -0.0376  0.0163
  387MOL0     H52236   9.284   2.057   9.607 -1.0330 -0.9677 -0.9677
  387MOL0     H52237   9.442   2.202   9.573 -1.7004 -2.8309  1.0336
  387MOL0     H52238   9.335   2.342   9.526  1.2433 -0.7026 -1.3370
  387MOL0     H52239   9.334   2.095   9.346  1.3463 -0.7019  0.0329
  387MOL0     H52240   9.479   2.186   9.355  0.2365 -3.1170 -0.9707
  387MOL0     H52241   9.216   2.318   9.284 -0.5006 -1.1029 -0.3567
  387MOL0     H52242   9.290   2.220   9.164  1.2629  0.5488 -0.7014
  387MOL0     H52243   9.519   2.596   9.185 -1.1405  0.4740  0.3584
  387MOL0     H52244   9.083   1.944   9.695 -2.4634 -2.6477  1.3379
  387MOL0     H52245   8.875   1.852   9.747  0.0288 -3.3616 -2.6374
  388MOL0     O52246   4.986   6.788   8.416  0.8065  0.8230  0.3405
  388MOL0     C52247   5.011   6.721   8.319  0.6571 -0.2605  0.0240
  388MOL0     O52248   4.920   6.661   8.238  0.7324 -0.3487 -0.0586
  388MOL0     C52249   4.783   6.669   8.256  0.0877 -0.0561  0.2526
  388MOL0     C52250   4.711   6.696   8.376 -0.0396  0.0127  0.7603
  388MOL0     C52251   4.571   6.690   8.377  0.2751  0.0566 -0.2788
  388MOL0     C52252   4.498   6.672   8.259  0.2792 -0.4099 -0.3453
  388MOL0     O52253   4.359   6.682   8.256  0.1895  0.2923  0.1787
  388MOL0     C52254   4.279   6.606   8.356  0.6805 -0.2027  0.4714
  388MOL0     C52255   4.134   6.596   8.295 -0.7375 -0.6894 -0.1533
  388MOL0     C52256   4.119   6.546   8.147 -1.5972  0.0024 -0.0236
  388MOL0     C52257   3.966   6.522   8.122 -0.2980  0.2168  0.4467
  388MOL0     C52258   3.951   6.429   8.014  0.4542  0.8344 -0.8241
  388MOL0     C52259   3.804   6.422   7.966  0.4815 -0.0589 -0.2033
  388MOL0     C52260   3.791   6.329   7.838  0.2716  0.3740  0.4327
  388MOL0     C52261   3.729   6.191   7.878 -0.1790  0.1808 -0.3014
  388MOL0     N52262   3.706   6.130   7.747 -0.4853 -0.2201  0.7320
  388MOL0     C52263   3.774   6.026   7.680 -0.2573 -0.3365  0.5511
  388MOL0     C52264   3.717   6.026   7.556  0.1056  0.1277 -0.2305
  388MOL0     C52265   3.760   5.948   7.428  0.0338  0.0241  0.5756
  388MOL0     C52266   3.771   5.799   7.434 -0.7397 -0.1062 -0.0326
  388MOL0     C52267   3.629   5.750   7.478 -0.2034 -0.7766 -0.8357
  388MOL0     C52268   3.619   5.591   7.488 -0.3454 -0.6226 -0.3486
  388MOL0     O52269   3.497   5.557   7.550  0.8457 -0.9487  0.3104
  388MOL0     C52270   3.375   5.594   7.481  0.5831 -0.0883  0.1492
  388MOL0     C52271   3.354   5.621   7.349 -0.2087  1.3226  0.0003
  388MOL0     C52272   3.228   5.655   7.296  0.4103 -0.5332  0.0800
  388MOL0     C52273   3.231   5.679   7.142  0.0453  0.1233  0.3393
  388MOL0     C52274   3.110   5.662   7.375  0.6923 -0.7411  0.1376
  388MOL0     C52275   2.973   5.687   7.321  0.0839 -0.0159 -0.0816
  388MOL0     O52276   2.881   5.740   7.416  0.2529 -0.5098  0.6995
  388MOL0     C52277   2.758   5.762   7.373 -0.5406 -0.0858 -0.0380
  388MOL0     C52278   2.708   5.887   7.379  0.7002 -0.1772  0.5708
  388MOL0     C52279   2.577   5.908   7.338  0.8617 -0.4313  0.1168
  388MOL0     C52280   2.500   5.806   7.283  0.3391  0.0956  0.7569
  388MOL0     O52281   2.368   5.831   7.251  0.1698 -0.6706  0.2185
  388MOL0     C52282   2.268   5.745   7.300 -0.3097 -0.2619  0.1289
  388MOL0     C52283   2.142   5.766   7.221 -0.2047  0.1693 -0.4636
  388MOL0     C52284   2.027   5.673   7.261 -0.8777  0.4609 -0.2376
  388MOL0     C52285   1.891   5.703   7.204 -0.3001 -0.1039 -0.5479
  388MOL0     C52286   1.797   5.600   7.264  0.5506 -0.1892  0.1389
  388MOL0     C52287   1.657   5.648   7.246  0.3428  0.4724  0.1066
  388MOL0     C52288   1.560   5.628   7.359 -0.1315 -0.5565 -0.5448
  388MOL0     C52289   1.417   5.655   7.310  0.1828 -0.5093 -0.4923
  388MOL0    Cl52290   1.316   5.629   7.456 -0.0638 -0.4126  0.1229
  388MOL0     C52291   2.559   5.683   7.258 -0.3734 -0.3145  0.1715
  388MOL0     C52292   2.683   5.659   7.313 -0.1617  0.5561 -0.4692
  388MOL0     O52293   2.957   5.682   7.201 -0.3995 -0.4963 -0.7752
  388MOL0     C52294   3.132   5.632   7.513 -0.0246  0.2276  0.0023
  388MOL0     C52295   3.261   5.593   7.558  0.3405  0.1422  0.1945
  388MOL0     N52296   3.632   6.132   7.546 -0.0483 -0.4307  0.2375
  388MOL0     N52297   3.622   6.194   7.661 -1.1143  0.2491  0.5711
  388MOL0     C52298   4.564   6.653   8.137  0.0259 -0.0161  0.2209
  388MOL0     C52299   4.707   6.645   8.140  0.2351 -0.7363 -0.5842
  388MOL0     C52300   5.151   6.725   8.280  0.6440  0.6788  0.8108
  388MOL0     C52301   5.181   6.662   8.162  0.0054 -0.8311  0.6743
  388MOL0     C52302   5.306   6.681   8.108  0.6062 -0.2225 -1.0166
  388MOL0     C52303   5.410   6.743   8.180 -0.1840  0.0242  0.0066
  388MOL0     O52304   5.537   6.782   8.125 -0.1307 -0.6526  0.0216
  388MOL0     C52305   5.567   6.777   7.983 -0.4288 -0.0638  0.6680
  388MOL0     C52306   5.706   6.826   7.941 -0.0197 -0.3666 -0.5584
  388MOL0     C52307   5.817   6.749   8.012 -0.3111  0.5866 -0.5157
  388MOL0     C52308   5.956   6.788   7.962 -0.2291 -0.2097  0.3990
  388MOL0     C52309   5.987   6.747   7.834  0.2053  0.2386 -0.5406
  388MOL0     C52310   6.037   6.711   7.728 -0.1901  0.8789  1.1522
  388MOL0     C52311   5.379   6.786   8.309 -0.6103  0.1644  0.3488
  388MOL0     C52312   5.252   6.783   8.357 -0.0984 -0.2016 -0.1704
  388MOL0     H52313   4.756   6.705   8.474 -0.6269 -3.3160  1.4647
  388MOL0     H52314   4.516   6.687   8.471 -0.7734 -1.7107 -0.8997
  388MOL0     H52315   4.328   6.514   8.386  2.3282 -0.6213 -3.0200
  388MOL0     H52316   4.256   6.665   8.446 -1.0269  0.3579 -0.2784
  388MOL0     H52317   4.088   6.519   8.358 -2.1034  0.0094 -0.2687
  388MOL0     H52318   4.088   6.693   8.312 -0.8394 -0.5785 -1.0063
  388MOL0     H52319   4.166   6.621   8.083  0.1985  1.2935  2.6352
  388MOL0     H52320   4.182   6.458   8.133  3.6637  3.4981 -0.9505
  388MOL0     H52321   3.913   6.481   8.208  0.0299  2.8294  2.0224
  388MOL0     H52322   3.923   6.619   8.095  0.2779  0.1048 -0.9565
  388MOL0     H52323   4.006   6.462   7.925  0.6334 -0.3108 -1.1495
  388MOL0     H52324   3.979   6.327   8.040  0.2471  0.5890 -1.5441
  388MOL0     H52325   3.751   6.379   8.052  0.7647  0.8211  0.4236
  388MOL0     H52326   3.761   6.521   7.948 -1.4235 -0.8061 -0.0003
  388MOL0     H52327   3.727   6.380   7.765 -0.1520 -1.7849 -0.7725
  388MOL0     H52328   3.887   6.306   7.791 -1.5531 -1.5657 -2.7083
  388MOL0     H52329   3.637   6.207   7.934  0.8547  1.8644  1.0033
  388MOL0     H52330   3.799   6.136   7.941 -0.2404  1.3039  0.7951
  388MOL0     H52331   3.857   5.964   7.712 -0.0756 -1.0076 -1.1235
  388MOL0     H52332   3.702   5.963   7.337  0.6126 -1.6086 -0.1136
  388MOL0     H52333   3.859   5.992   7.412 -0.0338  0.3722  1.0839
  388MOL0     H52334   3.849   5.763   7.502 -1.0688 -2.3047 -0.7440
  388MOL0     H52335   3.792   5.767   7.332 -2.4124 -2.6667  0.3290
  388MOL0     H52336   3.556   5.795   7.410 -1.3007  1.1211  1.4734
  388MOL0     H52337   3.601   5.788   7.576  0.5791  0.5166 -1.0984
  388MOL0     H52338   3.694   5.562   7.563 -0.4834  0.8455  0.4012
  388MOL0     H52339   3.633   5.554   7.386 -3.0786  2.0085 -1.8462
  388MOL0     H52340   3.446   5.607   7.292  1.3611  0.8032  2.5075
  388MOL0     H52341   3.172   5.768   7.118 -1.2742 -0.5661  0.9073
  388MOL0     H52342   3.328   5.687   7.093  0.0043 -0.5761  0.1280
  388MOL0     H52343   3.189   5.596   7.084  0.8658 -0.8999  1.1813
  388MOL0     H52344   2.766   5.967   7.424  0.3831  0.6894 -0.5226
  388MOL0     H52345   2.530   6.005   7.340  0.4607 -0.5743 -1.3937
  388MOL0     H52346   2.301   5.641   7.303  0.8487  0.0931  0.1166
  388MOL0     H52347   2.249   5.772   7.405  1.9800 -1.9489  1.0606
  388MOL0     H52348   2.109   5.869   7.236  1.2557  0.7831 -1.2780
  388MOL0     H52349   2.168   5.745   7.117 -0.1182  2.7023 -1.0009
  388MOL0     H52350   2.024   5.681   7.370 -2.2851  0.8514 -0.2823
  388MOL0     H52351   2.048   5.574   7.221 -2.7660  0.0247 -0.2451
  388MOL0     H52352   1.869   5.806   7.231  3.7398  1.1126 -1.2440
  388MOL0     H52353   1.889   5.689   7.095 -0.4904 -1.0672 -0.4363
  388MOL0     H52354   1.818   5.591   7.371  2.9183  0.1958 -0.2436
  388MOL0     H52355   1.816   5.505   7.213  0.3122 -1.6767  2.6288
  388MOL0     H52356   1.664   5.756   7.231  0.8257  0.4133 -0.1248
  388MOL0     H52357   1.616   5.612   7.151  2.3716  0.6422 -0.8900
  388MOL0     H52358   1.578   5.701   7.438  1.8201  2.6242 -3.6058
  388MOL0     H52359   1.576   5.529   7.404 -1.4133 -0.8699 -0.7365
  388MOL0     H52360   1.392   5.583   7.231  1.5716 -2.2108  0.5285
  388MOL0     H52361   1.410   5.755   7.267  2.6686  0.2853  0.7402
  388MOL0     H52362   2.506   5.607   7.203 -0.3477  1.4870 -2.4952
  388MOL0     H52363   2.710   5.554   7.307 -1.3760  0.2686 -1.3731
  388MOL0     H52364   3.046   5.636   7.578  0.1038  0.1263  0.1800
  388MOL0     H52365   3.281   5.574   7.663  3.0959  1.6477  0.0371
  388MOL0     H52366   4.507   6.624   8.049  0.8930 -1.1361  0.0040
  388MOL0     H52367   4.767   6.611   8.056  1.7382  1.8720 -0.6893
  388MOL0     H52368   5.116   6.597   8.103 -1.1859  2.4937 -1.9971
  388MOL0     H52369   5.325   6.650   8.005 -0.8484 -2.2029 -0.7431
  388MOL0     H52370   5.553   6.675   7.945 -0.5043  0.4716 -0.8130
  388MOL0     H52371   5.497   6.838   7.927 -1.9792 -1.3065  1.1801
  388MOL0     H52372   5.711   6.935   7.949 -1.6163 -0.1181 -2.2999
  388MOL0     H52373   5.722   6.819   7.833  1.4046  1.3595 -0.5097
  388MOL0     H52374   5.790   6.643   8.013 -0.7938  0.6908  1.2302
  388MOL0     H52375   5.811   6.781   8.116  1.4407 -0.3523 -0.0766
  388MOL0     H52376   6.036   6.743   8.021  1.1589  0.6251 -0.7773
  388MOL0     H52377   5.974   6.896   7.972  3.2271 -0.5339 -1.1387
  388MOL0     H52378   6.079   6.690   7.631  0.8330  1.5827  1.4228
  388MOL0     H52379   5.464   6.831   8.359  1.5029 -1.7637 -1.2771
  388MOL0     H52380   5.237   6.813   8.460  0.4343  1.2939 -0.5051
  389MOL0     O52381   8.023   3.911   1.850 -0.6083 -0.0986 -0.7793
  389MOL0     C52382   8.006   4.023   1.884  0.1371 -0.1636 -0.5702
  389MOL0     O52383   7.893   4.077   1.910  0.2160  0.1163  0.4918
  389MOL0     C52384   7.776   4.013   1.882  0.0698 -0.4011  0.1493
  389MOL0     C52385   7.666   4.065   1.953  0.2767 -0.7069  0.0965
  389MOL0     C52386   7.539   4.025   1.914 -0.9530 -0.2085 -0.0769
  389MOL0     C52387   7.518   3.928   1.819  0.3804  0.2580  0.1604
  389MOL0     O52388   7.387   3.892   1.787 -0.7172 -0.0799  0.4443
  389MOL0     C52389   7.309   3.850   1.899 -0.5626  0.5266 -0.5040
  389MOL0     C52390   7.167   3.813   1.852  0.6347 -0.8407  0.2686
  389MOL0     C52391   7.078   3.784   1.977  0.7382  0.7018 -0.0714
  389MOL0     C52392   6.932   3.801   1.944  0.1142  0.4432 -0.0147
  389MOL0     C52393   6.837   3.756   2.047  0.4116  0.2236  0.1169
  389MOL0     C52394   6.687   3.782   2.000  0.0151 -1.0220  0.3298
  389MOL0     C52395   6.605   3.743   2.122 -0.6521 -1.1697 -0.4567
  389MOL0     C52396   6.459   3.783   2.085 -0.2554  0.6554 -0.5859
  389MOL0     N52397   6.365   3.715   2.178 -0.2494  0.1288  1.0532
  389MOL0     C52398   6.263   3.633   2.142 -0.6169  0.4531  0.0914
  389MOL0     C52399   6.169   3.631   2.231 -0.1152 -0.3731  0.1902
  389MOL0     C52400   6.032   3.572   2.220  0.5039 -0.2230 -0.1252
  389MOL0     C52401   5.917   3.678   2.217 -0.0744  0.2762  0.0304
  389MOL0     C52402   5.783   3.611   2.217 -0.7975 -0.4121 -0.0030
  389MOL0     C52403   5.667   3.713   2.231  0.0291  1.1254 -0.3022
  389MOL0     O52404   5.653   3.800   2.123  0.1966  0.2139  0.3549
  389MOL0     C52405   5.526   3.838   2.089  0.2862 -0.2995 -0.4792
  389MOL0     C52406   5.416   3.822   2.171 -0.4347  0.3602 -0.3741
  389MOL0     C52407   5.294   3.890   2.138 -0.5761 -0.0527 -0.2382
  389MOL0     C52408   5.172   3.864   2.219 -0.3698  0.1734 -0.4905
  389MOL0     C52409   5.285   3.977   2.024  0.4193  0.0802  0.4265
  389MOL0     C52410   5.171   4.074   1.992  0.1264 -0.1204 -0.0486
  389MOL0     O52411   5.165   4.113   1.858  0.6718  0.4343  1.1433
  389MOL0     C52412   5.075   4.211   1.820 -0.2453  0.2187 -0.7351
  389MOL0     C52413   5.115   4.333   1.764 -1.0383  0.1926 -0.0477
  389MOL0     C52414   5.016   4.429   1.729  0.4214  0.3606 -0.0269
  389MOL0     C52415   4.880   4.396   1.747 -0.0841 -0.2814  0.8396
  389MOL0     O52416   4.791   4.494   1.714 -0.2656  1.0992  0.3236
  389MOL0     C52417   4.648   4.463   1.698  0.0756 -0.3142 -0.2529
  389MOL0     C52418   4.557   4.591   1.676  0.6562  1.2823  0.6240
  389MOL0     C52419   4.414   4.551   1.635 -0.4226 -0.0203 -0.0340
  389MOL0     C52420   4.327   4.668   1.588 -0.1801 -0.0662  0.2250
  389MOL0     C52421   4.177   4.624   1.578  0.4810  0.8813  0.4839
  389MOL0     C52422   4.088   4.754   1.561  0.1758  0.4434 -0.1761
  389MOL0     C52423   3.933   4.739   1.560 -0.5219 -0.2929 -0.1306
  389MOL0     C52424   3.862   4.879   1.569  1.0100  0.3767 -0.4262
  389MOL0    Cl52425   3.682   4.867   1.548  0.1015 -0.3806 -0.4177
  389MOL0     C52426   4.841   4.266   1.792 -0.1593 -0.1898 -0.9171
  389MOL0     C52427   4.939   4.177   1.820 -0.0659  0.4999  0.8320
  389MOL0     O52428   5.097   4.116   2.081 -0.8893  0.4493  0.3490
  389MOL0     C52429   5.396   3.984   1.939  1.1026 -0.0311 -0.5316
  389MOL0     C52430   5.510   3.913   1.970 -0.4220 -0.8004  0.1752
  389MOL0     N52431   6.224   3.719   2.334  1.0917 -0.1138  0.0245
  389MOL0     N52432   6.341   3.758   2.305  0.0229  0.0757  0.4303
  389MOL0     C52433   7.627   3.883   1.744 -1.2023  0.1254  0.2749
  389MOL0     C52434   7.757   3.920   1.777  0.4095 -1.0208 -0.0079
  389MOL0     C52435   8.126   4.112   1.882 -0.1901 -0.4251 -0.3479
  389MOL0     C52436   8.106   4.253   1.873 -0.0227  0.3785  0.1019
  389MOL0     C52437   8.217   4.345   1.894 -0.4100  0.0025  0.8602
  389MOL0     C52438   8.344   4.303   1.903 -0.5026  0.0924 -1.0085
  389MOL0     O52439   8.442   4.397   1.902 -0.7803  0.2180  0.5288
  389MOL0     C52440   8.578   4.360   1.880  0.7244  0.9108  0.0313
  389MOL0     C52441   8.676   4.474   1.874  0.0792  1.0501  0.9996
  389MOL0     C52442   8.824   4.442   1.844 -0.0315  0.2284 -0.3841
  389MOL0     C52443   8.920   4.564   1.866 -0.3251  0.5300  0.1105
  389MOL0     C52444   9.066   4.531   1.854  0.8852  0.1143 -0.6360
  389MOL0     C52445   9.181   4.522   1.855 -0.1292 -0.3775  0.7544
  389MOL0     C52446   8.367   4.164   1.907 -0.5760  0.2950 -0.4300
  389MOL0     C52447   8.261   4.072   1.906  0.2955  0.6101 -0.5202
  389MOL0     H52448   7.679   4.140   2.031 -0.2465 -1.9261  1.4117
  389MOL0     H52449   7.456   4.084   1.952  1.3786  2.8191  0.6813
  389MOL0     H52450   7.355   3.767   1.953 -2.2114  0.7167  1.2988
  389MOL0     H52451   7.291   3.932   1.969 -1.2526 -2.9827  3.9035
  389MOL0     H52452   7.112   3.893   1.802 -1.3160 -0.2358  3.0980
  389MOL0     H52453   7.177   3.723   1.791 -1.3989 -0.0565 -1.3391
  389MOL0     H52454   7.072   3.680   2.010 -2.8282  1.1146  1.0149
  389MOL0     H52455   7.108   3.842   2.064 -1.8174  2.7672 -0.4438
  389MOL0     H52456   6.923   3.909   1.931  0.4272  0.7913  2.2499
  389MOL0     H52457   6.919   3.755   1.846 -2.1189  1.0650 -0.0723
  389MOL0     H52458   6.852   3.650   2.068 -0.4070  0.4176  1.8678
  389MOL0     H52459   6.867   3.813   2.136 -1.1017  0.0473  0.7652
  389MOL0     H52460   6.687   3.890   1.982  1.2456 -1.1688 -0.6393
  389MOL0     H52461   6.675   3.718   1.913  3.0272 -2.6755  1.0051
  389MOL0     H52462   6.608   3.634   2.130  0.9029 -1.0351  2.1395
  389MOL0     H52463   6.640   3.786   2.216  0.5980  1.2344 -1.9226
  389MOL0     H52464   6.441   3.750   1.982  1.4072  2.7983 -1.6568
  389MOL0     H52465   6.434   3.890   2.088 -0.0487  0.7649 -2.0728
  389MOL0     H52466   6.271   3.584   2.045  0.4943  1.3990 -0.3201
  389MOL0     H52467   6.028   3.510   2.130 -0.7976  0.1218 -0.3310
  389MOL0     H52468   6.020   3.515   2.312 -0.9808 -0.6236 -0.5353
  389MOL0     H52469   5.919   3.740   2.127  0.0953  0.8441  0.4191
  389MOL0     H52470   5.926   3.738   2.308  1.2599 -1.7906  1.3505
  389MOL0     H52471   5.786   3.550   2.307  2.8307  1.2275  1.1962
  389MOL0     H52472   5.777   3.550   2.127  2.1826 -1.1642  0.1786
  389MOL0     H52473   5.654   3.769   2.324 -4.6968  0.9238 -0.5977
  389MOL0     H52474   5.579   3.648   2.233  0.0073  1.1595 -0.1390
  389MOL0     H52475   5.424   3.759   2.259  1.7144  1.3909  0.2430
  389MOL0     H52476   5.089   3.861   2.148 -0.3971 -0.3749 -0.4458
  389MOL0     H52477   5.189   3.770   2.273  1.6803  0.8580  0.1311
  389MOL0     H52478   5.139   3.933   2.297 -2.1962 -0.6636 -0.4510
  389MOL0     H52479   5.223   4.346   1.761 -1.3628  3.6677 -1.2128
  389MOL0     H52480   5.040   4.531   1.703  1.3689 -0.2133 -1.5044
  389MOL0     H52481   4.635   4.404   1.606  2.1543  1.1085 -1.5443
  389MOL0     H52482   4.606   4.406   1.781  0.7158 -0.6831 -0.1754
  389MOL0     H52483   4.556   4.657   1.764  1.8528  0.1958  1.4871
  389MOL0     H52484   4.603   4.650   1.596 -0.8201  0.4996 -0.8479
  389MOL0     H52485   4.372   4.500   1.723  3.0987 -2.3998  0.4588
  389MOL0     H52486   4.417   4.477   1.555 -1.9972 -0.6181  0.4085
  389MOL0     H52487   4.344   4.748   1.661  1.0338  0.4662 -0.5957
  389MOL0     H52488   4.371   4.710   1.497  3.3063 -4.2570 -0.3063
  389MOL0     H52489   4.142   4.572   1.667  1.0813  0.9634  0.7677
  389MOL0     H52490   4.160   4.566   1.487  0.1410  2.7881 -0.7429
  389MOL0     H52491   4.111   4.817   1.647  3.5345 -2.3362  1.2170
  389MOL0     H52492   4.127   4.810   1.475  1.8535  0.1869  0.3807
  389MOL0     H52493   3.895   4.681   1.645 -2.5465  0.4113 -0.5017
  389MOL0     H52494   3.902   4.688   1.469 -1.6086 -0.3308  0.2360
  389MOL0     H52495   3.897   4.943   1.488  2.0299 -1.6389 -1.6690
  389MOL0     H52496   3.885   4.927   1.664 -1.9912 -0.1859  0.7155
  389MOL0     H52497   4.740   4.228   1.804  0.0858 -0.0949  2.3598
  389MOL0     H52498   4.910   4.074   1.839 -2.4532  1.0295  0.3594
  389MOL0     H52499   5.393   4.052   1.855 -0.7244 -1.4242 -1.6597
  389MOL0     H52500   5.594   3.918   1.901  0.3881  2.5037  1.2309
  389MOL0     H52501   7.626   3.818   1.657  3.6790  3.6579 -2.9205
  389MOL0     H52502   7.844   3.891   1.719 -0.0667  1.6078 -2.2581
  389MOL0     H52503   8.005   4.291   1.862  0.4895  1.3503 -1.6201
  389MOL0     H52504   8.200   4.452   1.902  0.2407  0.0484  1.8203
  389MOL0     H52505   8.615   4.295   1.960  0.6117 -1.3634 -1.6684
  389MOL0     H52506   8.574   4.303   1.787 -3.9442  0.2261  0.4454
  389MOL0     H52507   8.674   4.541   1.961 -2.5790  2.0809  0.2414
  389MOL0     H52508   8.647   4.538   1.790  1.4419  0.1337 -0.2137
  389MOL0     H52509   8.840   4.418   1.739 -0.4971  1.0000 -0.6387
  389MOL0     H52510   8.864   4.359   1.903 -1.3306 -1.5825 -1.9031
  389MOL0     H52511   8.898   4.618   1.959  0.3415  2.4464 -0.7889
  389MOL0     H52512   8.898   4.646   1.797 -1.0433  1.6924  1.6551
  389MOL0     H52513   9.288   4.520   1.864  0.0560  1.3240 -0.4899
  389MOL0     H52514   8.464   4.117   1.900 -1.3964 -1.2479 -3.5455
  389MOL0     H52515   8.279   3.965   1.904 -0.5149  0.4624 -2.2806
  390MOL0     O52516   5.708   3.693   0.375 -0.2572 -0.0656 -0.0593
  390MOL0     C52517   5.734   3.788   0.457  0.1646 -0.8973 -0.4537
  390MOL0     O52518   5.639   3.868   0.521  0.4035 -0.2461  0.6041
  390MOL0     C52519   5.508   3.832   0.532  0.1640 -0.0397  0.2661
  390MOL0     C52520   5.448   3.720   0.501 -0.7855  0.4153  0.5537
  390MOL0     C52521   5.309   3.693   0.511  0.0229 -0.5596 -0.1012
  390MOL0     C52522   5.226   3.796   0.569  0.3069  0.6552 -0.2075
  390MOL0     O52523   5.088   3.792   0.558 -0.1279  0.0745  0.8653
  390MOL0     C52524   5.024   3.675   0.514 -0.6751  0.1005  0.3890
  390MOL0     C52525   4.875   3.684   0.522 -0.6867  0.2537 -0.1133
  390MOL0     C52526   4.820   3.714   0.653 -0.5557  0.1819  0.3536
  390MOL0     C52527   4.819   3.874   0.679  0.0689  0.2269  0.1572
  390MOL0     C52528   4.711   3.930   0.777  1.0102 -0.3498 -0.7094
  390MOL0     C52529   4.737   3.877   0.918  0.0778 -1.1631 -0.3680
  390MOL0     C52530   4.660   3.956   1.028  0.2610  0.5329 -0.1740
  390MOL0     C52531   4.513   3.915   1.040 -1.3514  0.3374  0.3215
  390MOL0     N52532   4.438   4.032   1.101  0.0203 -0.1766 -0.2083
  390MOL0     C52533   4.436   4.072   1.233  0.6423 -0.7285  0.0953
  390MOL0     C52534   4.334   4.164   1.248  0.0185  0.0492  0.0523
  390MOL0     C52535   4.290   4.229   1.376 -0.5146 -0.1869 -0.1468
  390MOL0     C52536   4.211   4.143   1.481  0.9462  0.3865  0.6914
  390MOL0     C52537   4.143   4.223   1.595  0.2278 -0.1358 -0.2065
  390MOL0     C52538   4.008   4.298   1.555  0.0741  0.3943  0.4699
  390MOL0     O52539   3.962   4.365   1.672 -0.1912  0.2830  1.0209
  390MOL0     C52540   3.836   4.416   1.676  0.8258  0.6581  1.2869
  390MOL0     C52541   3.762   4.438   1.560  0.1154  0.2986  0.1065
  390MOL0     C52542   3.625   4.472   1.554  0.1117 -1.1020 -0.3269
  390MOL0     C52543   3.578   4.504   1.413 -0.0345 -0.3700  0.2242
  390MOL0     C52544   3.551   4.498   1.677 -0.4163 -0.0420 -0.2436
  390MOL0     C52545   3.409   4.535   1.679  0.1674  0.4014 -0.4071
  390MOL0     O52546   3.353   4.553   1.810  0.2434 -0.2302  0.1679
  390MOL0     C52547   3.214   4.563   1.828 -0.3412 -0.1908  0.0039
  390MOL0     C52548   3.116   4.620   1.744  0.4467 -0.1077 -0.2261
  390MOL0     C52549   2.980   4.621   1.789 -0.5773  0.3932  0.7125
  390MOL0     C52550   2.937   4.571   1.912 -0.2565 -0.5782  0.2074
  390MOL0     O52551   2.808   4.571   1.956 -0.3479  0.9447 -0.3449
  390MOL0     C52552   2.689   4.580   1.876 -0.3236  0.3314 -0.6994
  390MOL0     C52553   2.582   4.508   1.960 -0.0901 -0.2167 -0.8328
  390MOL0     C52554   2.436   4.564   1.941  0.1795 -0.8829  0.7372
  390MOL0     C52555   2.327   4.480   2.003 -0.7609 -0.6670  0.3286
  390MOL0     C52556   2.193   4.543   1.954  0.2152  0.2693 -0.6122
  390MOL0     C52557   2.070   4.466   1.993 -0.0713  0.4221 -0.1892
  390MOL0     C52558   2.016   4.504   2.132  0.8725 -0.4996  0.8215
  390MOL0     C52559   1.866   4.473   2.145  0.5110  0.1861 -0.1821
  390MOL0    Cl52560   1.811   4.551   2.302 -0.1206 -0.3281 -0.0632
  390MOL0     C52561   3.031   4.508   1.993 -0.2522 -0.0925  0.6838
  390MOL0     C52562   3.168   4.515   1.953  0.3118  0.0791 -0.9673
  390MOL0     O52563   3.342   4.521   1.581  0.1314  0.0035  0.8663
  390MOL0     C52564   3.628   4.488   1.792  0.2389 -0.1834  0.3855
  390MOL0     C52565   3.760   4.437   1.790  0.3276 -0.3233  0.2636
  390MOL0     N52566   4.285   4.190   1.121  0.2627  0.0514  0.2463
  390MOL0     N52567   4.350   4.112   1.040 -0.0990  0.1601 -0.2183
  390MOL0     C52568   5.289   3.911   0.609  0.5024  0.0894 -0.5090
  390MOL0     C52569   5.428   3.928   0.593  0.2087 -0.2712  0.4984
  390MOL0     C52570   5.871   3.828   0.490  0.6697  0.4040  0.2480
  390MOL0     C52571   5.970   3.758   0.418  0.3180  0.3883  0.2427
  390MOL0     C52572   6.105   3.776   0.450  0.2410 -1.2784 -0.6717
  390MOL0     C52573   6.135   3.865   0.553 -0.4688  0.3219 -0.3758
  390MOL0     O52574   6.269   3.877   0.590 -0.2120 -0.6957  0.3031
  390MOL0     C52575   6.333   4.005   0.636  0.0518  0.1153  0.8057
  390MOL0     C52576   6.312   4.101   0.514 -0.0777 -0.5242  0.2025
  390MOL0     C52577   6.391   4.234   0.517 -0.4875  0.0648 -0.4285
  390MOL0     C52578   6.362   4.317   0.645 -0.1227 -0.3297 -0.4100
  390MOL0     C52579   6.388   4.463   0.618  0.4270 -0.1208 -0.1821
  390MOL0     C52580   6.425   4.576   0.600 -0.5858  0.0315 -0.4419
  390MOL0     C52581   6.032   3.927   0.629 -0.9593  0.4774  0.5946
  390MOL0     C52582   5.900   3.910   0.600 -0.6152  0.1684 -0.0005
  390MOL0     H52583   5.503   3.638   0.455 -0.9598  1.4864 -1.6676
  390MOL0     H52584   5.257   3.604   0.477 -2.0411 -0.7644  3.1524
  390MOL0     H52585   5.055   3.666   0.409 -2.7213 -0.0851 -0.2371
  390MOL0     H52586   5.064   3.588   0.566 -0.3051 -0.4596 -0.7880
  390MOL0     H52587   4.833   3.750   0.446 -1.3153  2.8694  2.3241
  390MOL0     H52588   4.836   3.584   0.502  0.0259  0.0090 -0.3054
  390MOL0     H52589   4.715   3.683   0.646 -0.2826 -0.5666 -0.6834
  390MOL0     H52590   4.882   3.670   0.732  2.3617  3.6040  0.2398
  390MOL0     H52591   4.922   3.891   0.709 -0.1780  0.2010  1.0302
  390MOL0     H52592   4.805   3.926   0.584  0.7200  0.3328  0.1127
  390MOL0     H52593   4.726   4.039   0.782  0.1541 -0.2096 -0.9778
  390MOL0     H52594   4.609   3.910   0.743 -0.2308  1.4492  1.6682
  390MOL0     H52595   4.710   3.771   0.913  0.6321 -1.3370  0.2398
  390MOL0     H52596   4.839   3.885   0.957 -0.9137 -0.8952  2.4221
  390MOL0     H52597   4.707   3.935   1.124  0.0310  4.0641  0.8644
  390MOL0     H52598   4.669   4.065   1.017 -1.3005  0.9014  1.7220
  390MOL0     H52599   4.493   3.823   1.095  1.4966  0.2069  1.2731
  390MOL0     H52600   4.478   3.892   0.938 -0.6731 -0.6783  0.3169
  390MOL0     H52601   4.485   4.028   1.319  2.3207  0.3074 -0.2789
  390MOL0     H52602   4.388   4.257   1.415 -0.7313 -0.5702  0.7189
  390MOL0     H52603   4.227   4.317   1.359  1.5355  0.7139 -3.9378
  390MOL0     H52604   4.285   4.075   1.524  1.1904 -1.2554 -2.1205
  390MOL0     H52605   4.134   4.077   1.441  1.9516 -1.8420  2.2349
  390MOL0     H52606   4.207   4.299   1.641 -1.5505 -0.3424  2.8825
  390MOL0     H52607   4.115   4.162   1.682 -1.3393 -1.1054 -1.3379
  390MOL0     H52608   3.933   4.229   1.514  0.6130  0.3113 -0.4024
  390MOL0     H52609   4.040   4.372   1.481  0.5963 -1.8726 -1.7254
  390MOL0     H52610   3.816   4.416   1.468  0.6041 -0.2850  0.5285
  390MOL0     H52611   3.514   4.427   1.369  0.1184  1.5712 -3.8413
  390MOL0     H52612   3.521   4.598   1.410  0.6323  0.0273 -1.9349
  390MOL0     H52613   3.664   4.523   1.348  0.0039  1.5550  0.7537
  390MOL0     H52614   3.162   4.665   1.657  1.2206 -1.7447 -0.7125
  390MOL0     H52615   2.920   4.675   1.716 -0.3580  0.4410  0.5680
  390MOL0     H52616   2.664   4.686   1.869 -0.4453  0.2512 -1.8016
  390MOL0     H52617   2.701   4.534   1.777  1.5897  0.3748 -0.5298
  390MOL0     H52618   2.583   4.408   1.914  2.0188 -0.2476 -0.8121
  390MOL0     H52619   2.602   4.499   2.067  0.8722  2.7605 -0.6955
  390MOL0     H52620   2.414   4.560   1.834 -1.4585 -3.3141  1.0897
  390MOL0     H52621   2.442   4.665   1.983  2.0612 -1.6918  2.6276
  390MOL0     H52622   2.338   4.378   1.966 -0.9329 -0.9318  0.9851
  390MOL0     H52623   2.332   4.479   2.112  1.2841  0.3482  0.2894
  390MOL0     H52624   2.192   4.559   1.846  1.2520  1.0637 -0.5264
  390MOL0     H52625   2.200   4.644   1.995  2.3190 -0.8501  2.1501
  390MOL0     H52626   1.988   4.487   1.924 -0.5413 -0.3022  0.1348
  390MOL0     H52627   2.091   4.359   1.984  0.3989  0.5751 -1.0086
  390MOL0     H52628   2.030   4.612   2.141 -0.4423  0.3316 -4.0316
  390MOL0     H52629   2.070   4.450   2.211  2.8409 -4.2762 -2.6715
  390MOL0     H52630   1.846   4.366   2.134  2.9630 -0.2097 -1.6390
  390MOL0     H52631   1.810   4.521   2.064 -3.4156  0.7491  2.5785
  390MOL0     H52632   3.000   4.464   2.087  1.0462  0.2687  1.3019
  390MOL0     H52633   3.241   4.473   2.022 -1.6956  0.2517  1.3803
  390MOL0     H52634   3.574   4.508   1.885 -0.2265 -1.1182  0.3213
  390MOL0     H52635   3.798   4.433   1.891 -3.4501  2.7821  2.0507
  390MOL0     H52636   5.223   3.989   0.645 -1.7194 -3.0765  3.0299
  390MOL0     H52637   5.466   4.025   0.623  1.2082 -1.0130  1.7344
  390MOL0     H52638   5.943   3.689   0.339 -0.3005  0.8387  0.0503
  390MOL0     H52639   6.175   3.707   0.405  2.2468  0.7436 -0.8419
  390MOL0     H52640   6.289   4.029   0.733  2.0589 -1.0375  2.0724
  390MOL0     H52641   6.441   3.993   0.653 -0.2158 -1.6130  1.5305
  390MOL0     H52642   6.207   4.126   0.498  0.6097  2.2670 -0.5343
  390MOL0     H52643   6.350   4.051   0.424  1.1631  0.3514  0.2118
  390MOL0     H52644   6.360   4.303   0.439  0.4363  2.1412  0.9414
  390MOL0     H52645   6.499   4.217   0.516 -0.0665  2.3509  0.3573
  390MOL0     H52646   6.422   4.269   0.722  1.5659 -0.3397 -1.6839
  390MOL0     H52647   6.255   4.308   0.665 -0.1717 -1.8179 -1.2561
  390MOL0     H52648   6.461   4.676   0.585  0.3328 -0.2110  0.0620
  390MOL0     H52649   6.072   3.998   0.701  2.7911 -1.0563  0.2574
  390MOL0     H52650   5.821   3.944   0.666  1.0731 -0.1860  2.3076
  391MOL0     O52651   9.592   7.411   0.117  0.7436  0.1501  0.0991
  391MOL0     C52652   9.677   7.428   0.204 -0.5963 -0.3076 -0.3288
  391MOL0     O52653   9.646   7.489   0.335 -0.7112  0.4663 -0.1688
  391MOL0     C52654   9.520   7.518   0.381  0.2906 -0.4159 -0.4598
  391MOL0     C52655   9.447   7.633   0.342  0.0093  0.2885 -0.2393
  391MOL0     C52656   9.321   7.667   0.382 -1.1585 -0.4164 -0.0057
  391MOL0     C52657   9.266   7.584   0.484  0.0328  0.3269 -0.6277
  391MOL0     O52658   9.168   7.628   0.565  0.0046 -0.4640  0.0899
  391MOL0     C52659   9.146   7.766   0.578  0.2273 -0.3335  0.1022
  391MOL0     C52660   9.060   7.802   0.701  0.2488  0.1446  0.7011
  391MOL0     C52661   8.925   7.721   0.699 -0.0083  0.2555 -0.3782
  391MOL0     C52662   8.820   7.793   0.617 -0.4009 -0.1767 -0.2029
  391MOL0     C52663   8.682   7.719   0.630 -0.6368 -0.2467 -0.1211
  391MOL0     C52664   8.615   7.732   0.759  0.7283  0.1939  0.4570
  391MOL0     C52665   8.471   7.672   0.742 -0.8103 -0.6948 -0.2817
  391MOL0     C52666   8.377   7.743   0.845  0.3198 -0.7612  0.9821
  391MOL0     N52667   8.233   7.690   0.843 -1.1028  0.0746  0.0790
  391MOL0     C52668   8.145   7.700   0.735  0.3991 -0.6048 -0.0985
  391MOL0     C52669   8.029   7.648   0.773 -0.0153 -0.1842  0.3290
  391MOL0     C52670   7.905   7.631   0.692 -0.9597 -0.8589  0.1974
  391MOL0     C52671   7.793   7.706   0.764 -0.7505  0.0920  0.7039
  391MOL0     C52672   7.668   7.708   0.677 -0.5374  0.0344  0.3979
  391MOL0     C52673   7.558   7.800   0.730  0.3033 -0.2608 -0.0023
  391MOL0     O52674   7.430   7.784   0.659  0.7595  0.8434 -0.0271
  391MOL0     C52675   7.325   7.863   0.703  0.4237 -0.5648  0.6151
  391MOL0     C52676   7.198   7.827   0.665  0.1839  0.0327  0.4176
  391MOL0     C52677   7.079   7.882   0.713  0.2827  0.0225  0.7592
  391MOL0     C52678   6.943   7.816   0.678  0.4327 -0.6449 -0.3278
  391MOL0     C52679   7.089   7.993   0.796 -0.3840 -1.0366 -0.2514
  391MOL0     C52680   6.974   8.066   0.851  0.3246 -0.0349  0.7730
  391MOL0     O52681   6.998   8.185   0.922  0.7098  0.7253  0.2663
  391MOL0     C52682   6.885   8.244   0.970 -0.1179  0.8244  0.1549
  391MOL0     C52683   6.848   8.360   0.905 -0.6891 -0.5457  0.0028
  391MOL0     C52684   6.741   8.440   0.957  0.8985  0.6005  0.4581
  391MOL0     C52685   6.669   8.398   1.072 -0.2102  0.3973 -0.3932
  391MOL0     O52686   6.589   8.477   1.150 -0.3404  0.4619  0.1869
  391MOL0     C52687   6.579   8.614   1.124 -0.6534 -0.0841  0.7256
  391MOL0     C52688   6.556   8.701   1.254  0.2643  0.5169  0.5250
  391MOL0     C52689   6.496   8.838   1.229  0.2985 -0.0021 -0.2850
  391MOL0     C52690   6.417   8.901   1.350  0.2789  0.2763 -1.5993
  391MOL0     C52691   6.382   9.046   1.320  0.4828  0.3910 -0.2623
  391MOL0     C52692   6.255   9.062   1.238  0.5700  0.0905 -0.4262
  391MOL0     C52693   6.204   9.203   1.216 -0.3639 -0.3230  0.0089
  391MOL0     C52694   6.285   9.277   1.103  0.2458  0.0995 -0.2279
  391MOL0    Cl52695   6.202   9.432   1.061  0.7891  0.0250 -0.1237
  391MOL0     C52696   6.696   8.268   1.128 -0.5309 -0.6931 -0.5572
  391MOL0     C52697   6.807   8.198   1.071  0.4786  0.0593 -0.0362
  391MOL0     O52698   6.861   8.028   0.816  0.2394 -0.0677  0.4414
  391MOL0     C52699   7.221   8.037   0.831  0.1053 -0.5961  0.0236
  391MOL0     C52700   7.339   7.970   0.790 -0.6433  0.4368 -0.0988
  391MOL0     N52701   8.048   7.605   0.901 -0.4072 -0.3427  0.5920
  391MOL0     N52702   8.172   7.627   0.947  0.0745 -0.1458  0.3351
  391MOL0     C52703   9.333   7.463   0.527  0.0744 -0.2823 -1.7826
  391MOL0     C52704   9.462   7.437   0.481  0.3116  0.0586  0.4272
  391MOL0     C52705   9.814   7.410   0.162 -0.3398  0.8678  0.1801
  391MOL0     C52706   9.852   7.371   0.032 -0.2674  0.6530  0.7592
  391MOL0     C52707   9.987   7.357  -0.010  1.0266 -0.1819  0.3944
  391MOL0     C52708  10.087   7.387   0.077 -0.2305  0.5002  0.0188
  391MOL0     O52709  10.219   7.398   0.034  0.9929 -0.2181 -0.2392
  391MOL0     C52710  10.260   7.279  -0.029  0.6055  0.8109  0.5091
  391MOL0     C52711  10.267   7.162   0.060 -0.0905  0.3033  0.4910
  391MOL0     C52712  10.309   7.032   0.004 -0.4807  0.2048  0.4655
  391MOL0     C52713  10.239   6.993  -0.128 -0.0517 -0.5637 -1.1296
  391MOL0     C52714  10.259   6.855  -0.176 -0.0341 -0.1647  0.0109
  391MOL0     C52715  10.284   6.740  -0.204  0.3155  0.1761  0.7716
  391MOL0     C52716  10.055   7.428   0.210  0.4305 -0.7856  0.9010
  391MOL0     C52717   9.918   7.439   0.253 -0.4074  0.6312  0.0089
  391MOL0     H52718   9.492   7.699   0.269 -1.3310 -0.2816 -1.6329
  391MOL0     H52719   9.263   7.744   0.333 -3.0607 -1.9851 -0.3207
  391MOL0     H52720   9.242   7.819   0.572  1.0457 -1.6290  1.3010
  391MOL0     H52721   9.079   7.790   0.494  0.8829  2.0935  0.1973
  391MOL0     H52722   9.125   7.785   0.787  2.6967  1.9106 -0.6865
  391MOL0     H52723   9.039   7.909   0.694 -2.6155 -0.3416  0.2274
  391MOL0     H52724   8.946   7.615   0.678 -0.1193  0.3107 -0.7798
  391MOL0     H52725   8.878   7.724   0.798 -2.2376  3.3576 -1.3881
  391MOL0     H52726   8.809   7.895   0.654  0.9121  0.4784 -1.5023
  391MOL0     H52727   8.850   7.803   0.513 -1.0575  0.4206 -0.3368
  391MOL0     H52728   8.613   7.749   0.550 -0.6843  1.0957  0.3929
  391MOL0     H52729   8.705   7.614   0.613 -0.3869  0.1506 -2.6402
  391MOL0     H52730   8.665   7.668   0.832  3.2042 -0.4688 -1.6966
  391MOL0     H52731   8.615   7.835   0.795 -1.0726  0.1209  0.7738
  391MOL0     H52732   8.445   7.702   0.640  2.2197  1.1993 -0.6127
  391MOL0     H52733   8.472   7.564   0.763  0.0879 -0.4634  0.9570
  391MOL0     H52734   8.377   7.850   0.825 -3.7377 -0.4264  1.9803
  391MOL0     H52735   8.418   7.735   0.946  0.7862  1.3371  0.9898
  391MOL0     H52736   8.165   7.750   0.641  1.7792  1.1380  1.0362
  391MOL0     H52737   7.910   7.681   0.594 -2.1897  1.1667  1.1085
  391MOL0     H52738   7.885   7.524   0.684 -0.0198 -1.2539  2.3659
  391MOL0     H52739   7.826   7.807   0.788 -1.0663  0.3385  0.1132
  391MOL0     H52740   7.771   7.664   0.863  0.9545  0.2008  1.1591
  391MOL0     H52741   7.634   7.604   0.679 -0.8065  0.1223  1.5969
  391MOL0     H52742   7.702   7.743   0.580  1.9332  0.8854  1.4893
  391MOL0     H52743   7.602   7.900   0.729  3.0246 -1.3207  1.9595
  391MOL0     H52744   7.546   7.778   0.837  1.4719 -2.7928 -0.3317
  391MOL0     H52745   7.188   7.736   0.607  3.0835 -0.2815  0.2329
  391MOL0     H52746   6.870   7.869   0.616 -0.8639 -1.1225  0.7516
  391MOL0     H52747   6.955   7.723   0.621  2.0544  0.3822 -1.7776
  391MOL0     H52748   6.898   7.792   0.774 -0.4061  2.3432  0.1358
  391MOL0     H52749   6.916   8.385   0.824 -1.0372  1.0163  0.1580
  391MOL0     H52750   6.722   8.521   0.888 -0.7098  0.2212  0.4284
  391MOL0     H52751   6.655   8.653   1.055 -1.6172 -1.4202 -1.1983
  391MOL0     H52752   6.494   8.622   1.055 -0.0203 -1.5528 -0.2819
  391MOL0     H52753   6.483   8.644   1.311 -0.1219  1.2897  0.8137
  391MOL0     H52754   6.654   8.701   1.303  1.6716 -1.0516 -2.0000
  391MOL0     H52755   6.421   8.825   1.150  1.2989  0.8871 -1.4244
  391MOL0     H52756   6.574   8.910   1.202  0.4961  0.3090  1.0349
  391MOL0     H52757   6.329   8.841   1.372 -0.4670  1.2540 -1.8571
  391MOL0     H52758   6.479   8.904   1.441  0.1712 -0.1279 -1.5118
  391MOL0     H52759   6.471   9.104   1.290  1.1675 -1.0684 -1.1647
  391MOL0     H52760   6.357   9.099   1.412 -0.3254  2.8672 -1.8040
  391MOL0     H52761   6.262   9.013   1.141 -0.8588  2.3347 -1.7317
  391MOL0     H52762   6.173   9.021   1.299 -1.0487 -0.7889 -3.0266
  391MOL0     H52763   6.201   9.263   1.308 -0.8928 -0.0314 -0.1978
  391MOL0     H52764   6.101   9.202   1.182 -0.3582 -1.7677  0.0073
  391MOL0     H52765   6.282   9.225   1.007  1.0625 -0.3035 -0.0405
  391MOL0     H52766   6.389   9.303   1.121 -0.0175  1.2681 -0.3069
  391MOL0     H52767   6.646   8.233   1.218 -0.0147 -0.2399 -0.0887
  391MOL0     H52768   6.833   8.098   1.103  0.2267 -0.1529 -0.4851
  391MOL0     H52769   7.244   8.118   0.900  0.7655 -2.4588  2.1166
  391MOL0     H52770   7.436   8.008   0.821 -0.1827  0.0305 -1.0170
  391MOL0     H52771   9.299   7.397   0.605  2.6871 -2.8909 -2.6469
  391MOL0     H52772   9.536   7.365   0.515  3.8262  3.1345 -0.1043
  391MOL0     H52773   9.774   7.351  -0.041 -0.6205 -2.3446  1.8233
  391MOL0     H52774   9.988   7.330  -0.115 -2.8124  2.3696 -0.4966
  391MOL0     H52775  10.198   7.256  -0.116  2.2415  0.2781 -0.5653
  391MOL0     H52776  10.363   7.297  -0.061  1.6577 -2.4669  1.6996
  391MOL0     H52777  10.168   7.152   0.105 -0.5206  0.6230 -0.3620
  391MOL0     H52778  10.350   7.168   0.131  1.3109  1.6172 -1.1733
  391MOL0     H52779  10.291   6.954   0.079 -0.1920 -1.7303 -1.4164
  391MOL0     H52780  10.418   7.032  -0.004 -0.4375 -1.3621  0.8604
  391MOL0     H52781  10.277   7.053  -0.212  0.5346 -0.4990 -0.8196
  391MOL0     H52782  10.132   7.012  -0.123 -0.0053 -0.4948 -0.3733
  391MOL0     H52783  10.299   6.641  -0.242  2.7421  0.0170  1.9564
  391MOL0     H52784  10.140   7.432   0.276  1.1910 -1.7671  0.0180
  391MOL0     H52785   9.883   7.483   0.346 -0.9101  2.7955 -1.1380
  392MOL0     O52786   4.218   4.998  10.593 -0.4123  0.2133 -0.2608
  392MOL0     C52787   4.221   5.077  10.686 -0.6641  0.7854  0.0406
  392MOL0     O52788   4.140   5.086  10.796 -0.7236 -0.4988  0.0991
  392MOL0     C52789   4.038   4.986  10.807 -0.1022 -0.2469 -0.1967
  392MOL0     C52790   3.905   5.017  10.838 -0.3869 -0.9714 -0.1386
  392MOL0     C52791   3.805   4.919  10.846 -0.7633 -0.2737 -0.3254
  392MOL0     C52792   3.841   4.782  10.819 -0.8744  0.1121 -0.3293
  392MOL0     O52793   3.741   4.684  10.814  0.2125 -0.0735 -0.3452
  392MOL0     C52794   3.605   4.735  10.845  0.5683  0.1788  0.5877
  392MOL0     C52795   3.496   4.629  10.830 -0.3937  0.7652 -0.1381
  392MOL0     C52796   3.472   4.604  10.678 -0.5807 -0.3826  0.0918
  392MOL0     C52797   3.372   4.480  10.640 -0.2826 -0.6408 -0.5555
  392MOL0     C52798   3.229   4.516  10.686 -0.4559 -0.2017 -0.2830
  392MOL0     C52799   3.183   4.645  10.607 -0.7385 -0.2991  0.0765
  392MOL0     C52800   3.042   4.692  10.655 -0.1317  0.4178  0.0659
  392MOL0     C52801   2.926   4.643  10.574  0.1323 -0.1433  0.0474
  392MOL0     N52802   2.807   4.728  10.608 -0.7941 -0.1182 -0.2684
  392MOL0     C52803   2.794   4.864  10.604  0.3579 -0.6907  0.2459
  392MOL0     C52804   2.681   4.902  10.667  0.1123  0.0446 -0.2166
  392MOL0     C52805   2.640   5.039  10.712 -0.4260  0.4681 -0.5392
  392MOL0     C52806   2.507   5.079  10.654  0.2248 -0.9506  0.2890
  392MOL0     C52807   2.380   4.999  10.703 -0.6303  0.4507  0.4409
  392MOL0     C52808   2.255   5.057  10.635 -0.6291  0.5987 -0.3645
  392MOL0     O52809   2.172   4.943  10.637  0.0616 -0.1166  0.1159
  392MOL0     C52810   2.041   4.965  10.606  0.1856 -0.0639  0.3627
  392MOL0     C52811   1.992   5.070  10.532 -0.3577 -0.3120 -0.0851
  392MOL0     C52812   1.850   5.081  10.506 -0.3304 -0.3691 -0.6188
  392MOL0     C52813   1.814   5.200  10.426  0.6080 -0.4859  1.0542
  392MOL0     C52814   1.764   4.970  10.542  0.7505 -0.1867 -0.4452
  392MOL0     C52815   1.618   4.976  10.531 -0.0851  1.5269 -0.7931
  392MOL0     O52816   1.550   4.899  10.616  0.1902 -0.0040 -0.1682
  392MOL0     C52817   1.412   4.901  10.616  0.3763 -0.4816 -0.0117
  392MOL0     C52818   1.337   4.994  10.691 -0.8530 -0.1812  0.1704
  392MOL0     C52819   1.198   4.971  10.704 -0.8472 -0.2735  0.2924
  392MOL0     C52820   1.130   4.870  10.638  1.0474 -0.2605 -0.9099
  392MOL0     O52821   0.998   4.862  10.667  0.5322 -0.0226  0.6659
  392MOL0     C52822   0.927   4.756  10.600 -0.2200  0.1729  0.1472
  392MOL0     C52823   0.777   4.754  10.635 -0.3414 -0.1578 -0.2277
  392MOL0     C52824   0.707   4.633  10.561  0.5073  0.3464 -0.0173
  392MOL0     C52825   0.559   4.608  10.611 -0.0480 -0.7404 -0.8129
  392MOL0     C52826   0.465   4.726  10.571  0.3560  0.6446  0.0480
  392MOL0     C52827   0.323   4.690  10.583  0.7099 -0.5706  0.2211
  392MOL0     C52828   0.225   4.815  10.595 -0.8387  0.3980  0.3920
  392MOL0     C52829   0.089   4.780  10.653 -1.8780 -0.5528  0.0592
  392MOL0    Cl52830   0.005   4.663  10.556 -0.2800  0.6792  0.1192
  392MOL0     C52831   1.218   4.783  10.559 -0.1109 -0.2547 -0.1224
  392MOL0     C52832   1.357   4.795  10.546  0.6218  0.1678 -0.2216
  392MOL0     O52833   1.572   5.034  10.441  0.5001  0.0876 -0.3353
  392MOL0     C52834   1.823   4.860  10.608 -0.0656 -0.2025  0.1349
  392MOL0     C52835   1.962   4.859  10.635 -0.2318  0.7799 -0.3474
  392MOL0     N52836   2.636   4.789  10.724 -0.3090 -0.4996  1.0628
  392MOL0     N52837   2.702   4.685  10.683 -0.2019 -0.2621 -0.5394
  392MOL0     C52838   3.978   4.752  10.801 -0.0465 -0.3336 -0.3504
  392MOL0     C52839   4.075   4.850  10.797 -0.8924  0.3547  0.5161
  392MOL0     C52840   4.347   5.170  10.686 -0.3005 -0.6151 -0.1578
  392MOL0     C52841   4.345   5.287  10.769 -0.3566 -0.9910  0.2375
  392MOL0     C52842   4.457   5.367  10.785  0.7327  0.1390  0.6621
  392MOL0     C52843   4.583   5.333  10.722  0.6662 -1.0663 -0.2417
  392MOL0     O52844   4.691   5.407  10.731 -0.4536  0.1835  0.3571
  392MOL0     C52845   4.716   5.505  10.833 -0.6889  0.6582 -0.0139
  392MOL0     C52846   4.817   5.607  10.783  0.3951  0.2101 -0.4442
  392MOL0     C52847   4.951   5.552  10.765 -0.6605 -0.0362 -0.0860
  392MOL0     C52848   5.051   5.644  10.696  0.2443 -0.1275  0.0428
  392MOL0     C52849   5.172   5.568  10.679  0.6059  0.9636  0.2904
  392MOL0     C52850   5.279   5.514  10.673  1.0404 -0.1813  0.2420
  392MOL0     C52851   4.585   5.222  10.638 -0.0757  0.8791  0.5391
  392MOL0     C52852   4.470   5.141  10.620  0.0465  0.0138 -0.2158
  392MOL0     H52853   3.870   5.120  10.844  0.2934 -0.7810  0.8617
  392MOL0     H52854   3.702   4.948  10.864 -1.1374 -1.8096  0.1792
  392MOL0     H52855   3.607   4.771  10.948  1.4605 -0.5263  0.8225
  392MOL0     H52856   3.567   4.817  10.784 -0.9957 -1.2156 -0.4113
  392MOL0     H52857   3.537   4.533  10.864 -0.7109  0.8490  0.4884
  392MOL0     H52858   3.405   4.642  10.888 -2.6210 -3.2584 -2.3144
  392MOL0     H52859   3.445   4.694  10.622  2.5675  0.5309 -0.1436
  392MOL0     H52860   3.574   4.579  10.645 -0.5160 -0.2661  0.2046
  392MOL0     H52861   3.381   4.456  10.534  0.1961 -0.0914 -0.6465
  392MOL0     H52862   3.398   4.389  10.695  0.0358  0.6817  1.6114
  392MOL0     H52863   3.163   4.430  10.669 -1.2503  0.0154  1.4765
  392MOL0     H52864   3.235   4.535  10.793  0.8237  0.4463 -0.4479
  392MOL0     H52865   3.243   4.736  10.610 -1.3470  0.1114 -0.0024
  392MOL0     H52866   3.172   4.625  10.501 -2.0831  0.3166  0.0838
  392MOL0     H52867   3.024   4.677  10.762  1.4419 -2.9535  0.0056
  392MOL0     H52868   3.047   4.801  10.651 -3.4087  0.6296 -0.2358
  392MOL0     H52869   2.904   4.537  10.592 -3.5449  0.3784 -0.6867
  392MOL0     H52870   2.940   4.650  10.466  0.1049  0.8706  0.1047
  392MOL0     H52871   2.876   4.931  10.578  1.1570 -2.7159 -3.0530
  392MOL0     H52872   2.643   5.054  10.820 -0.5529  2.1722 -0.7551
  392MOL0     H52873   2.719   5.110  10.685 -1.6574  1.8596 -0.6304
  392MOL0     H52874   2.524   5.072  10.547 -0.8543  0.0303  0.0329
  392MOL0     H52875   2.493   5.188  10.663 -0.2187 -1.0098  0.3005
  392MOL0     H52876   2.360   5.005  10.810  0.2898  0.4816  0.6176
  392MOL0     H52877   2.401   4.895  10.674  2.1864  1.2301 -0.6879
  392MOL0     H52878   2.280   5.086  10.532 -0.1818  0.0282 -0.4213
  392MOL0     H52879   2.215   5.142  10.691 -0.1166  2.2012 -2.2892
  392MOL0     H52880   2.061   5.135  10.480  0.0330 -1.7384 -1.4138
  392MOL0     H52881   1.751   5.162  10.345  1.2391 -2.0177  1.2385
  392MOL0     H52882   1.760   5.276  10.483 -1.1172  0.4832 -1.6870
  392MOL0     H52883   1.898   5.248  10.375 -1.4742  1.8181 -0.4529
  392MOL0     H52884   1.381   5.072  10.752  1.0147 -1.2050  0.1847
  392MOL0     H52885   1.146   5.022  10.784  1.9929 -1.6662  3.2733
  392MOL0     H52886   0.951   4.758  10.493  2.7686  2.9080  0.7156
  392MOL0     H52887   0.962   4.659  10.637 -4.3212 -1.2140  0.9863
  392MOL0     H52888   0.762   4.741  10.742 -2.2098 -0.1067 -0.4420
  392MOL0     H52889   0.720   4.846  10.614  1.2849  0.9268 -0.0724
  392MOL0     H52890   0.755   4.535  10.567 -0.0469 -0.4221 -4.5345
  392MOL0     H52891   0.695   4.654  10.454 -2.3344 -2.9580 -0.4975
  392MOL0     H52892   0.532   4.511  10.568  0.3017 -0.7549 -1.0086
  392MOL0     H52893   0.569   4.597  10.719 -1.9407 -2.4477 -0.7503
  392MOL0     H52894   0.481   4.764  10.469 -1.2477  3.2575  0.6714
  392MOL0     H52895   0.484   4.817  10.629 -0.8725  0.8598  0.1327
  392MOL0     H52896   0.297   4.634  10.493  1.9174  2.3110 -2.1163
  392MOL0     H52897   0.328   4.620  10.667  0.3398 -0.3514  0.4281
  392MOL0     H52898   0.211   4.853  10.493  0.1085 -0.4543 -0.0761
  392MOL0     H52899   0.283   4.885  10.656 -0.7175 -0.4186  1.2324
  392MOL0     H52900   0.037   4.876  10.660  1.4002  1.3452  0.0972
  392MOL0     H52901   0.100   4.754  10.758  0.3430 -0.7409 -0.1743
  392MOL0     H52902   1.180   4.698  10.503  0.5549 -1.1131  0.7089
  392MOL0     H52903   1.422   4.728  10.490  0.3645  0.2821 -0.6566
  392MOL0     H52904   1.761   4.775  10.633 -1.1463  0.5552  0.1162
  392MOL0     H52905   2.002   4.769  10.680  0.2751  2.1014  2.0567
  392MOL0     H52906   4.003   4.648  10.783  1.2245 -0.3488  1.2688
  392MOL0     H52907   4.177   4.819  10.777 -1.1533 -0.1409 -0.0793
  392MOL0     H52908   4.260   5.326  10.825  0.3978  4.2908 -1.7218
  392MOL0     H52909   4.449   5.454  10.848 -0.0402  0.2406  0.4260
  392MOL0     H52910   4.617   5.549  10.849 -0.8500  0.1452  0.4221
  392MOL0     H52911   4.755   5.451  10.920  1.7550  0.5107 -1.1311
  392MOL0     H52912   4.827   5.684  10.861  3.3251 -0.1093 -0.3949
  392MOL0     H52913   4.776   5.650  10.692  0.2395  1.0419  0.0052
  392MOL0     H52914   4.932   5.469  10.696 -1.8828 -0.2494  0.4806
  392MOL0     H52915   4.991   5.525  10.863  0.3397  1.3005 -0.1040
  392MOL0     H52916   5.063   5.732  10.760 -0.0457 -1.2612  1.7264
  392MOL0     H52917   5.003   5.686  10.607  0.5815  0.9471  0.3494
  392MOL0     H52918   5.377   5.470  10.673  0.2969 -1.9466  0.7903
  392MOL0     H52919   4.674   5.197  10.580 -1.6403 -0.0988 -1.5715
  392MOL0     H52920   4.478   5.052  10.558 -3.1861 -1.1999  0.8927
  393MOL0     O52921  10.426   0.149   1.433 -0.5972  0.3419  0.2907
  393MOL0     C52922  10.468   0.068   1.350 -0.3664 -0.1410  0.5846
  393MOL0     O52923  10.403  -0.038   1.306 -0.3251  0.0011 -0.7712
  393MOL0     C52924  10.282  -0.080   1.369  0.8750 -0.2124 -0.7242
  393MOL0     C52925  10.197  -0.168   1.289 -0.0044 -0.3244 -0.3912
  393MOL0     C52926  10.086  -0.225   1.342  0.7774 -0.1868  0.4829
  393MOL0     C52927  10.035  -0.196   1.467 -0.5464 -0.6155  0.0279
  393MOL0     O52928   9.927  -0.251   1.531 -0.4109 -0.5509  0.1837
  393MOL0     C52929   9.851  -0.337   1.449  0.6491 -0.1358 -0.4527
  393MOL0     C52930   9.726  -0.376   1.540 -0.3934  1.1122  0.4638
  393MOL0     C52931   9.667  -0.512   1.497  1.5032 -0.0909 -0.2246
  393MOL0     C52932   9.551  -0.556   1.587  0.2749  0.5250 -0.2942
  393MOL0     C52933   9.483  -0.683   1.524 -0.3023 -0.8739 -1.2595
  393MOL0     C52934   9.420  -0.762   1.635 -0.2833 -0.0425  0.1203
  393MOL0     C52935   9.274  -0.702   1.658 -0.6449  0.3467  0.7749
  393MOL0     C52936   9.225  -0.751   1.793  0.1483  0.4846  0.5239
  393MOL0     N52937   9.083  -0.719   1.816  0.5365 -0.4128 -0.0928
  393MOL0     C52938   9.017  -0.766   1.923  0.2256 -0.7118 -0.8191
  393MOL0     C52939   8.887  -0.744   1.901 -0.1713 -0.6073 -0.0241
  393MOL0     C52940   8.769  -0.792   1.982  0.8261  0.4405  0.6773
  393MOL0     C52941   8.772  -0.942   2.007 -0.0076 -0.2681  0.1197
  393MOL0     C52942   8.700  -1.022   1.907 -0.0950  0.1832 -0.4236
  393MOL0     C52943   8.546  -1.002   1.903 -0.2086 -1.0357  0.6802
  393MOL0     O52944   8.495  -1.011   2.028 -0.5142  0.7272 -0.3778
  393MOL0     C52945   8.361  -1.045   2.031  0.5282 -0.4420  0.4746
  393MOL0     C52946   8.305  -1.082   2.152 -0.1147 -0.1284  0.2197
  393MOL0     C52947   8.171  -1.124   2.169 -0.4973 -0.1057  0.1334
  393MOL0     C52948   8.121  -1.150   2.309 -0.1414 -0.4595 -0.4612
  393MOL0     C52949   8.089  -1.144   2.054 -0.1223  0.3795  0.1050
  393MOL0     C52950   7.948  -1.190   2.061  0.1441  0.4797  0.8626
  393MOL0     O52951   7.906  -1.245   1.940  0.2791  0.2950  0.2931
  393MOL0     C52952   7.797  -1.323   1.950  0.4980 -0.1314 -0.4701
  393MOL0     C52953   7.807  -1.451   2.008  0.4320  0.4828 -0.0069
  393MOL0     C52954   7.698  -1.540   2.001  0.2759  0.1988  0.4859
  393MOL0     C52955   7.571  -1.497   1.961 -0.1183  0.7463 -0.3134
  393MOL0     O52956   7.473  -1.593   1.980  0.3851 -0.2498 -0.0837
  393MOL0     C52957   7.338  -1.545   1.981  0.7832 -0.3163 -0.3171
  393MOL0     C52958   7.249  -1.658   2.021 -0.6175  0.4237  0.4983
  393MOL0     C52959   7.254  -1.778   1.919 -0.1920 -0.3970 -0.8961
  393MOL0     C52960   7.120  -1.859   1.942  0.0862  0.0441  0.0436
  393MOL0     C52961   7.093  -1.937   1.820  0.8798  0.6011 -0.4886
  393MOL0     C52962   6.979  -2.035   1.852 -0.1462  0.5655 -0.0774
  393MOL0     C52963   7.009  -2.160   1.946 -0.6294 -0.2013  0.2590
  393MOL0     C52964   7.060  -2.278   1.871 -0.2335 -0.2182  1.3701
  393MOL0    Cl52965   6.921  -2.354   1.782 -0.3299 -0.1546  0.0534
  393MOL0     C52966   7.556  -1.366   1.923  0.5742 -0.6788 -0.7867
  393MOL0     C52967   7.668  -1.286   1.905 -0.2372 -0.4222  0.4047
  393MOL0     O52968   7.871  -1.159   2.149  0.5493  0.5129  0.6702
  393MOL0     C52969   8.146  -1.112   1.925  0.0130 -0.4816 -0.9522
  393MOL0     C52970   8.281  -1.066   1.914  0.0934  0.5534  0.6827
  393MOL0     N52971   8.876  -0.676   1.781  0.1077  0.2283  0.5096
  393MOL0     N52972   8.996  -0.658   1.733 -0.6743 -0.2584 -0.1758
  393MOL0     C52973  10.119  -0.116   1.541 -0.1753 -0.2387 -0.2571
  393MOL0     C52974  10.232  -0.047   1.496 -0.5316  0.6562 -0.4655
  393MOL0     C52975  10.606   0.085   1.302 -1.0566  0.0892  0.7300
  393MOL0     C52976  10.667  -0.010   1.220 -0.8002 -0.3322  0.5740
  393MOL0     C52977  10.803  -0.010   1.176 -0.5785  0.3049 -0.0551
  393MOL0     C52978  10.888   0.097   1.238 -0.6560  0.6144  0.3804
  393MOL0     O52979  11.019   0.116   1.209  0.9022  0.3421  0.3641
  393MOL0     C52980  11.063   0.069   1.082  0.6941  0.7818 -0.0692
  393MOL0     C52981  11.206   0.102   1.054  0.7981 -0.5956 -0.2381
  393MOL0     C52982  11.221   0.257   1.032  0.1426 -0.7340 -0.1017
  393MOL0     C52983  11.332   0.289   0.936 -0.7211  0.2848 -0.3275
  393MOL0     C52984  11.465   0.226   0.973  0.4581  0.0106  0.4037
  393MOL0     C52985  11.570   0.169   0.983 -0.0627 -0.7424 -0.5214
  393MOL0     C52986  10.830   0.183   1.336 -0.4072 -0.2964 -1.2669
  393MOL0     C52987  10.694   0.171   1.363 -0.1327  0.1835  0.4386
  393MOL0     H52988  10.239  -0.199   1.194  0.7093 -0.5628 -0.0051
  393MOL0     H52989  10.030  -0.298   1.285 -0.0947 -0.7604  2.0229
  393MOL0     H52990   9.809  -0.276   1.368 -2.2299 -0.3037  0.7852
  393MOL0     H52991   9.911  -0.422   1.415 -0.7162 -1.0426 -0.6624
  393MOL0     H52992   9.770  -0.385   1.640 -0.1067  1.8734  0.4095
  393MOL0     H52993   9.652  -0.296   1.539 -0.0950  1.4314  1.5452
  393MOL0     H52994   9.638  -0.508   1.391 -0.3245 -1.3740  0.1866
  393MOL0     H52995   9.744  -0.589   1.488  1.3595 -0.1465 -1.0800
  393MOL0     H52996   9.592  -0.576   1.686  4.6851  2.3415 -1.4933
  393MOL0     H52997   9.482  -0.471   1.599  0.8028  0.9091  0.0670
  393MOL0     H52998   9.407  -0.661   1.449 -0.3057  0.9248 -0.7756
  393MOL0     H52999   9.551  -0.754   1.475 -1.4532 -2.6935 -0.3365
  393MOL0     H53000   9.416  -0.868   1.609 -0.1693 -0.0035 -0.0600
  393MOL0     H53001   9.484  -0.762   1.724  1.2790 -0.2499 -0.9630
  393MOL0     H53002   9.267  -0.594   1.647 -0.4264  0.4902  1.9194
  393MOL0     H53003   9.205  -0.743   1.583 -0.5832 -1.6172  1.7295
  393MOL0     H53004   9.287  -0.704   1.870 -1.6189  0.9539  1.7135
  393MOL0     H53005   9.243  -0.859   1.794 -0.8243  0.3016 -0.4663
  393MOL0     H53006   9.065  -0.820   2.004  2.0012  1.1353 -0.5815
  393MOL0     H53007   8.780  -0.731   2.073  1.3025  2.5210 -0.7071
  393MOL0     H53008   8.670  -0.770   1.943 -0.6173 -5.2738  0.2276
  393MOL0     H53009   8.722  -0.951   2.104 -3.3767  0.9151 -1.3697
  393MOL0     H53010   8.871  -0.989   2.012  0.3043 -0.1086 -2.7807
  393MOL0     H53011   8.712  -1.127   1.936  1.8615  0.0982 -1.3497
  393MOL0     H53012   8.746  -1.009   1.809 -0.9810  1.2831 -0.7054
  393MOL0     H53013   8.516  -1.078   1.830  0.1041  0.3661 -0.9859
  393MOL0     H53014   8.513  -0.914   1.847 -0.2903 -1.5171 -0.0469
  393MOL0     H53015   8.371  -1.064   2.237 -1.3581 -1.1735  1.4709
  393MOL0     H53016   8.017  -1.118   2.324 -0.2335  0.6218 -2.8458
  393MOL0     H53017   8.115  -1.255   2.340 -0.5336 -0.1523  0.5515
  393MOL0     H53018   8.184  -1.097   2.380  1.1422  0.0830 -1.9608
  393MOL0     H53019   7.905  -1.478   2.047  0.2061 -1.2613 -0.5827
  393MOL0     H53020   7.710  -1.643   2.033 -1.5251  0.6978  3.1116
  393MOL0     H53021   7.329  -1.465   2.055  1.2128 -1.2934  0.8310
  393MOL0     H53022   7.316  -1.524   1.876  2.4446 -0.6062 -0.7527
  393MOL0     H53023   7.294  -1.684   2.118  0.4700  3.2313  0.8344
  393MOL0     H53024   7.150  -1.623   2.050 -1.4118 -0.9800 -0.4141
  393MOL0     H53025   7.340  -1.840   1.942 -0.0688  0.0363 -0.1608
  393MOL0     H53026   7.256  -1.739   1.817  1.7327 -1.9980 -1.5365
  393MOL0     H53027   7.148  -1.929   2.021  1.3524  0.8088  0.3032
  393MOL0     H53028   7.036  -1.795   1.970  1.3895  1.5027  0.8436
  393MOL0     H53029   7.183  -1.994   1.796  1.1341  0.5379  0.5923
  393MOL0     H53030   7.061  -1.877   1.733 -0.7914 -0.5809 -0.7380
  393MOL0     H53031   6.898  -1.981   1.902 -1.2746 -1.4197  0.3557
  393MOL0     H53032   6.943  -2.071   1.755  1.0081 -2.0644  0.3569
  393MOL0     H53033   6.916  -2.204   1.983  0.2512 -4.0709 -1.6033
  393MOL0     H53034   7.077  -2.135   2.028  0.4238  3.0966 -1.4249
  393MOL0     H53035   7.115  -2.348   1.935  0.2909 -0.5114  0.6207
  393MOL0     H53036   7.130  -2.243   1.794 -0.6883  0.2387  1.1544
  393MOL0     H53037   7.462  -1.319   1.894 -0.1461 -2.0421 -0.7492
  393MOL0     H53038   7.659  -1.189   1.858  3.2970 -0.5111 -0.7196
  393MOL0     H53039   8.084  -1.114   1.836  0.6012 -0.8051 -1.3589
  393MOL0     H53040   8.316  -1.030   1.818  1.0646  1.3865  1.3322
  393MOL0     H53041  10.093  -0.096   1.645 -1.0481  1.7929 -0.8210
  393MOL0     H53042  10.294   0.013   1.562  0.6335 -0.4038 -0.5500
  393MOL0     H53043  10.600  -0.083   1.176  0.1876 -1.5354  0.9973
  393MOL0     H53044  10.844  -0.078   1.102  1.9338 -0.6700  2.1200
  393MOL0     H53045  11.063  -0.039   1.062 -1.4426  1.1418 -2.6155
  393MOL0     H53046  10.996   0.102   1.002  1.4619 -0.6408 -1.3534
  393MOL0     H53047  11.235   0.047   0.964  0.7247 -0.9309 -0.0556
  393MOL0     H53048  11.273   0.073   1.136  1.2355 -3.1628 -1.4265
  393MOL0     H53049  11.238   0.301   1.131 -1.0367 -1.4777  0.4447
  393MOL0     H53050  11.123   0.292   0.999 -0.4634 -1.8387  0.4735
  393MOL0     H53051  11.353   0.396   0.938  1.0919 -0.0294 -1.2952
  393MOL0     H53052  11.323   0.285   0.828  2.6862  0.9992 -0.7522
  393MOL0     H53053  11.662   0.115   0.979 -0.1185 -0.8518 -0.3359
  393MOL0     H53054  10.883   0.260   1.391  0.5106 -0.3084 -2.1162
  393MOL0     H53055  10.665   0.250   1.432  1.5527  2.6189 -1.5187
  394MOL0     O53056   5.870   0.035   0.620  0.0706  0.1565 -0.7861
  394MOL0     C53057   5.937   0.130   0.657  0.3382 -0.0422 -0.0978
  394MOL0     O53058   5.884   0.257   0.672  0.0736 -0.0381  0.9440
  394MOL0     C53059   5.757   0.282   0.634  0.0609  0.7533 -0.6157
  394MOL0     C53060   5.655   0.283   0.730  0.2269  0.1638  0.9315
  394MOL0     C53061   5.526   0.303   0.681  0.7289  0.0125  0.0340
  394MOL0     C53062   5.489   0.311   0.550  0.2253 -0.3753  0.0310
  394MOL0     O53063   5.354   0.313   0.521 -0.1341  0.0777  0.2114
  394MOL0     C53064   5.323   0.291   0.381 -0.3968 -0.0754 -0.0421
  394MOL0     C53065   5.168   0.271   0.379  0.0650  0.4387  0.0482
  394MOL0     C53066   5.108   0.262   0.237 -0.2657  0.0555 -0.0532
  394MOL0     C53067   4.971   0.186   0.229 -0.2044  0.0438  0.0898
  394MOL0     C53068   4.857   0.267   0.293 -0.2459 -0.0064  0.3373
  394MOL0     C53069   4.736   0.178   0.322 -0.6974  0.5965 -0.5962
  394MOL0     C53070   4.630   0.283   0.334  0.4194 -0.4895 -0.4674
  394MOL0     C53071   4.500   0.219   0.379 -0.7697 -0.3114 -1.4574
  394MOL0     N53072   4.402   0.327   0.408  0.7819  0.1885  0.3257
  394MOL0     C53073   4.304   0.363   0.314  0.0176  0.4253  0.1840
  394MOL0     C53074   4.235   0.460   0.378 -0.1359 -0.0919  0.1178
  394MOL0     C53075   4.117   0.532   0.307 -0.3895 -0.5987 -0.4922
  394MOL0     C53076   4.025   0.604   0.402  0.2532  0.5183 -0.7589
  394MOL0     C53077   3.905   0.674   0.331  0.4859 -0.1344  1.3822
  394MOL0     C53078   3.813   0.575   0.247 -0.0178  0.2693 -0.7831
  394MOL0     O53079   3.715   0.657   0.179 -1.4061 -0.5225  0.6955
  394MOL0     C53080   3.635   0.604   0.090 -0.3810  0.7322  0.8762
  394MOL0     C53081   3.641   0.476   0.038 -0.4867 -0.6055  0.0145
  394MOL0     C53082   3.544   0.428  -0.047 -0.3655 -0.5373 -0.3056
  394MOL0     C53083   3.554   0.280  -0.085  0.0456  0.2425  0.1800
  394MOL0     C53084   3.426   0.504  -0.074  0.6652  0.2285  0.1650
  394MOL0     C53085   3.307   0.449  -0.146 -0.4353 -0.3266 -0.2727
  394MOL0     O53086   3.187   0.514  -0.116  0.3119 -0.4053 -0.2035
  394MOL0     C53087   3.058   0.508  -0.172 -0.7646 -0.7985  0.5082
  394MOL0     C53088   3.022   0.418  -0.270 -0.5489 -0.6474  0.0944
  394MOL0     C53089   2.897   0.424  -0.336 -0.0607  0.7297 -0.2737
  394MOL0     C53090   2.800   0.516  -0.298 -0.1185  0.1420  0.3746
  394MOL0     O53091   2.675   0.509  -0.353 -0.0472 -0.8928 -0.1017
  394MOL0     C53092   2.562   0.591  -0.308  0.0481  0.7314 -0.2077
  394MOL0     C53093   2.432   0.543  -0.382 -0.3327 -0.0685  0.3251
  394MOL0     C53094   2.318   0.637  -0.329  0.2287 -0.1295 -0.2827
  394MOL0     C53095   2.167   0.592  -0.350 -0.5218  0.9051  0.1132
  394MOL0     C53096   2.058   0.691  -0.320  0.2801 -0.5714 -0.0011
  394MOL0     C53097   1.922   0.626  -0.343 -0.3371  0.6181  0.8915
  394MOL0     C53098   1.803   0.710  -0.316  0.5120  0.2299  0.6079
  394MOL0     C53099   1.669   0.634  -0.323  1.0796  0.1752 -0.4513
  394MOL0    Cl53100   1.526   0.697  -0.224  0.6808 -0.1702 -0.0592
  394MOL0     C53101   2.838   0.607  -0.199  0.4609 -0.3697  0.2055
  394MOL0     C53102   2.966   0.612  -0.147 -0.0847  0.1869  0.1219
  394MOL0     O53103   3.320   0.360  -0.225 -1.0564  0.3782 -0.4569
  394MOL0     C53104   3.433   0.642  -0.024  0.3660  0.5519  0.5116
  394MOL0     C53105   3.538   0.693   0.050  0.5798 -0.7387  0.2903
  394MOL0     N53106   4.287   0.483   0.503 -0.1327 -0.3831  0.6708
  394MOL0     N53107   4.389   0.403   0.524 -1.2311 -0.3148  0.0845
  394MOL0     C53108   5.590   0.311   0.451  0.3224 -0.1515  0.0155
  394MOL0     C53109   5.729   0.294   0.497  0.2946  0.3221  0.3168
  394MOL0     C53110   6.077   0.112   0.694 -0.4045 -0.0759 -0.3410
  394MOL0     C53111   6.134  -0.016   0.693  0.0383 -1.2325 -0.5614
  394MOL0     C53112   6.265  -0.033   0.736  0.1337 -0.3762 -0.2035
  394MOL0     C53113   6.343   0.075   0.778 -0.0798  0.2198 -0.3852
  394MOL0     O53114   6.466   0.061   0.832  0.2961 -0.0748  0.0780
  394MOL0     C53115   6.527  -0.065   0.861 -0.5036 -0.3063  0.0046
  394MOL0     C53116   6.666  -0.030   0.917  0.0454  0.6349 -0.4399
  394MOL0     C53117   6.776   0.018   0.819  0.1855 -0.8469  0.0841
  394MOL0     C53118   6.902   0.022   0.906 -0.2626 -0.0737  0.1124
  394MOL0     C53119   7.006   0.095   0.829  0.7744  1.2975 -0.2968
  394MOL0     C53120   7.092   0.155   0.771  0.7080  1.1124  0.7165
  394MOL0     C53121   6.287   0.198   0.764 -0.2586 -0.7213  0.6404
  394MOL0     C53122   6.157   0.226   0.717 -0.0822  0.1510 -0.9903
  394MOL0     H53123   5.667   0.265   0.837  0.6074 -0.4844  0.7871
  394MOL0     H53124   5.441   0.294   0.747  0.9561 -0.6569  0.2466
  394MOL0     H53125   5.346   0.380   0.322  1.2490  1.4440  2.7270
  394MOL0     H53126   5.370   0.205   0.333  0.1264 -0.3560  0.9582
  394MOL0     H53127   5.157   0.173   0.426  0.7093  0.9111  1.2185
  394MOL0     H53128   5.106   0.340   0.437  1.0174  0.7088  0.7701
  394MOL0     H53129   5.089   0.363   0.201 -0.9622 -0.2796 -0.6642
  394MOL0     H53130   5.176   0.220   0.163 -0.9186  0.3178 -0.8158
  394MOL0     H53131   4.963   0.149   0.126  1.6219  0.3929 -0.2162
  394MOL0     H53132   4.990   0.099   0.292 -3.0976  0.0187  1.1000
  394MOL0     H53133   4.888   0.318   0.384  1.2717  0.1824 -0.2538
  394MOL0     H53134   4.839   0.350   0.224  2.4867 -2.1262 -3.3347
  394MOL0     H53135   4.710   0.120   0.233  0.6787  0.7139 -1.0933
  394MOL0     H53136   4.749   0.131   0.420 -3.2993 -2.0136 -1.3709
  394MOL0     H53137   4.658   0.357   0.410  0.1549  0.8627 -1.6607
  394MOL0     H53138   4.615   0.340   0.243  0.0282 -0.7489 -0.5668
  394MOL0     H53139   4.518   0.165   0.473 -0.9306  0.7175 -0.8171
  394MOL0     H53140   4.458   0.156   0.300  0.0121  0.0640 -2.1897
  394MOL0     H53141   4.294   0.315   0.217 -0.9587 -2.9811  1.7955
  394MOL0     H53142   4.151   0.604   0.232 -0.3983 -2.1083 -2.0202
  394MOL0     H53143   4.073   0.453   0.246  0.5407 -1.5360  0.0015
  394MOL0     H53144   4.082   0.677   0.461  1.9975 -2.6854  1.8708
  394MOL0     H53145   3.988   0.528   0.472  1.3798  0.5097 -0.1525
  394MOL0     H53146   3.957   0.736   0.257  0.3997 -1.3307  0.2906
  394MOL0     H53147   3.853   0.735   0.406  3.4314  1.9670  1.9307
  394MOL0     H53148   3.758   0.502   0.308 -1.1301 -0.5761 -2.7341
  394MOL0     H53149   3.867   0.520   0.170  1.0924 -1.2861  1.0159
  394MOL0     H53150   3.719   0.404   0.060 -0.7534 -0.8882  0.0426
  394MOL0     H53151   3.649   0.237  -0.052 -0.3536 -1.2613 -0.5199
  394MOL0     H53152   3.469   0.224  -0.045  0.6552  0.8777  2.5332
  394MOL0     H53153   3.537   0.263  -0.192  2.2340  2.7160 -0.6945
  394MOL0     H53154   3.086   0.336  -0.301  0.1534  0.3179 -1.1267
  394MOL0     H53155   2.866   0.355  -0.414 -1.1087  0.8066  0.0523
  394MOL0     H53156   2.548   0.576  -0.200 -0.1552 -1.5157 -0.4827
  394MOL0     H53157   2.583   0.696  -0.329  2.3349  0.5753  1.0167
  394MOL0     H53158   2.453   0.549  -0.489  0.7332  1.1475  0.5661
  394MOL0     H53159   2.414   0.439  -0.356  0.2510 -0.4772 -0.8528
  394MOL0     H53160   2.332   0.738  -0.368  1.9099 -0.2356 -0.0510
  394MOL0     H53161   2.336   0.654  -0.222  0.8557 -0.3941 -0.3389
  394MOL0     H53162   2.152   0.562  -0.455 -0.9050  0.4729  0.2874
  394MOL0     H53163   2.149   0.508  -0.283  1.6642 -0.6114 -1.0296
  394MOL0     H53164   2.065   0.784  -0.379  2.8645 -0.3552  0.5224
  394MOL0     H53165   2.069   0.728  -0.218  0.1240  3.1905 -1.1858
  394MOL0     H53166   1.936   0.583  -0.443  4.0727 -0.7267  1.8427
  394MOL0     H53167   1.914   0.529  -0.293 -0.5115 -0.1992 -0.6281
  394MOL0     H53168   1.802   0.787  -0.395  3.0657  0.6580  0.8791
  394MOL0     H53169   1.811   0.760  -0.219 -0.8847  1.8407 -0.0604
  394MOL0     H53170   1.679   0.528  -0.297 -1.8739  0.2192  1.2947
  394MOL0     H53171   1.640   0.637  -0.428 -0.8329  0.9461  0.0475
  394MOL0     H53172   2.771   0.685  -0.165  0.6678 -0.6371  1.2469
  394MOL0     H53173   2.984   0.685  -0.069 -0.5986  0.3499  0.0911
  394MOL0     H53174   3.353   0.704  -0.061 -0.4910 -1.5600 -1.3952
  394MOL0     H53175   3.540   0.793   0.092 -0.3198 -0.9099  0.7645
  394MOL0     H53176   5.578   0.318   0.344  0.2026  0.1943  0.0496
  394MOL0     H53177   5.809   0.276   0.426  1.0207  0.5778  1.0525
  394MOL0     H53178   6.070  -0.099   0.663  0.6609 -1.7309 -0.5187
  394MOL0     H53179   6.288  -0.139   0.742  1.3773 -0.2127 -1.4719
  394MOL0     H53180   6.462  -0.127   0.923  1.2869 -0.9552  1.3444
  394MOL0     H53181   6.548  -0.127   0.773  1.4171  0.0059  0.1874
  394MOL0     H53182   6.695  -0.128   0.955 -0.9102  1.0445  1.4788
  394MOL0     H53183   6.657   0.050   0.992  0.3067  1.5211 -1.3320
  394MOL0     H53184   6.751   0.111   0.766  0.4600  0.3826  2.0097
  394MOL0     H53185   6.782  -0.052   0.736  2.2149  0.7749 -1.2493
  394MOL0     H53186   6.921  -0.085   0.917 -3.4207 -0.7705 -0.0816
  394MOL0     H53187   6.886   0.075   1.000 -1.6676 -0.3369  0.0502
  394MOL0     H53188   7.169   0.203   0.715 -0.5519 -0.4466 -2.6228
  394MOL0     H53189   6.358   0.278   0.783 -3.4288  2.7273 -0.6961
  394MOL0     H53190   6.112   0.324   0.709 -2.1293 -0.6476  0.0623
  395MOL0     O53191   1.165  11.123   4.166 -0.2829 -0.7899  0.6181
  395MOL0     C53192   1.243  11.035   4.150 -0.1002  0.3097 -0.0197
  395MOL0     O53193   1.262  10.971   4.030  0.2884 -0.1373 -0.2668
  395MOL0     C53194   1.169  11.011   3.931 -0.0806  0.0926 -0.7828
  395MOL0     C53195   1.224  11.085   3.823  0.5147 -0.6641  0.9081
  395MOL0     C53196   1.139  11.104   3.711  0.5067  0.1980 -0.3935
  395MOL0     C53197   1.000  11.072   3.718  0.4731  0.5347  0.1641
  395MOL0     O53198   0.925  11.086   3.602  0.1973  0.1350  0.2361
  395MOL0     C53199   0.816  11.174   3.610  0.4153  0.5070  0.0249
  395MOL0     C53200   0.772  11.193   3.467  0.3060  0.0889  0.4936
  395MOL0     C53201   0.654  11.293   3.473 -0.1827  1.0737  0.7014
  395MOL0     C53202   0.595  11.322   3.334 -0.0787 -0.5336  0.0852
  395MOL0     C53203   0.458  11.390   3.345  0.1897 -1.3055 -0.4981
  395MOL0     C53204   0.475  11.545   3.356 -0.0224 -0.6292 -0.1621
  395MOL0     C53205   0.348  11.616   3.400  0.5505  0.3946 -0.4918
  395MOL0     C53206   0.266  11.644   3.269 -0.1704  0.4644 -0.0945
  395MOL0     N53207   0.134  11.701   3.307  0.1323  0.5089 -0.1350
  395MOL0     C53208   0.114  11.814   3.384 -0.5583  0.3604 -0.0956
  395MOL0     C53209  -0.019  11.817   3.391 -0.2196 -0.2855 -0.6829
  395MOL0     C53210  -0.078  11.920   3.479  0.6923 -0.4613 -0.1280
  395MOL0     C53211  -0.212  11.973   3.425 -1.6810 -0.5035 -0.4297
  395MOL0     C53212  -0.249  12.108   3.481 -0.4242  0.4684 -0.4193
  395MOL0     C53213  -0.374  12.152   3.409  0.4590 -0.7411  0.1279
  395MOL0     O53214  -0.366  12.187   3.270 -0.1806 -0.4099  0.3566
  395MOL0     C53215  -0.473  12.245   3.205 -0.5289 -0.5984 -0.3234
  395MOL0     C53216  -0.449  12.269   3.077  0.0488  0.7579  0.0423
  395MOL0     C53217  -0.546  12.315   2.986  0.2687 -0.0716 -0.5891
  395MOL0     C53218  -0.506  12.312   2.838 -0.3337  0.5958  0.0739
  395MOL0     C53219  -0.680  12.361   3.036  0.3850 -0.3321  0.5149
  395MOL0     C53220  -0.791  12.413   2.952 -0.2847 -0.2914  0.1582
  395MOL0     O53221  -0.906  12.409   3.014 -0.3180 -0.0936  0.9290
  395MOL0     C53222  -1.012  12.475   2.954 -0.9128  0.2290 -0.0012
  395MOL0     C53223  -1.093  12.416   2.865 -0.1961  0.1580 -0.0141
  395MOL0     C53224  -1.194  12.495   2.799 -0.1548  0.2943  0.5123
  395MOL0     C53225  -1.202  12.633   2.817  0.5500  1.0679  0.3589
  395MOL0     O53226  -1.301  12.691   2.734  0.0448  0.0618  0.1261
  395MOL0     C53227  -1.308  12.835   2.726 -0.1598 -0.4296  0.0985
  395MOL0     C53228  -1.397  12.864   2.607  0.0269 -0.5145 -0.6501
  395MOL0     C53229  -1.427  13.022   2.588 -0.2347  0.0610  0.0472
  395MOL0     C53230  -1.517  13.075   2.696  0.5535  0.3413 -0.3100
  395MOL0     C53231  -1.545  13.221   2.671 -0.5338  0.7069  1.0616
  395MOL0     C53232  -1.668  13.289   2.744 -0.5031  0.5319 -0.6894
  395MOL0     C53233  -1.644  13.293   2.895  0.1815 -0.4215 -0.4033
  395MOL0     C53234  -1.765  13.330   2.972 -0.3432  0.2882 -0.1541
  395MOL0    Cl53235  -1.817  13.494   2.943 -0.4115 -0.3055  0.2560
  395MOL0     C53236  -1.121  12.688   2.916  0.0911  0.4527  0.3173
  395MOL0     C53237  -1.030  12.606   2.988  0.5114 -0.8782 -0.5536
  395MOL0     O53238  -0.768  12.460   2.836  0.4791  0.4012 -0.0585
  395MOL0     C53239  -0.702  12.338   3.168  0.2173 -0.4612 -0.7070
  395MOL0     C53240  -0.600  12.287   3.251 -1.1677 -0.1265  0.9405
  395MOL0     N53241  -0.075  11.724   3.324  0.0562  0.3157  0.5469
  395MOL0     N53242   0.016  11.649   3.273  0.0699  0.0053  0.6604
  395MOL0     C53243   0.947  11.025   3.837 -0.3342  0.5210 -0.0312
  395MOL0     C53244   1.036  10.996   3.943  0.5016  0.1818  0.4899
  395MOL0     C53245   1.315  10.990   4.274 -0.3609 -0.8506 -0.2716
  395MOL0     C53246   1.274  11.034   4.402  1.0495  0.5276  0.9552
  395MOL0     C53247   1.336  10.992   4.516  0.7290  0.5124 -0.3594
  395MOL0     C53248   1.444  10.916   4.508 -0.1401  0.3012  0.5073
  395MOL0     O53249   1.514  10.861   4.616  0.3520  0.2327 -0.1623
  395MOL0     C53250   1.477  10.913   4.740  0.1617  0.0484  0.0907
  395MOL0     C53251   1.559  10.847   4.848  0.7873  1.0966 -0.0913
  395MOL0     C53252   1.702  10.889   4.838 -0.1296  0.1683  0.0167
  395MOL0     C53253   1.780  10.803   4.733 -0.6213  0.4152  0.4560
  395MOL0     C53254   1.908  10.754   4.780 -0.4638  0.5153  0.2090
  395MOL0     C53255   2.021  10.715   4.820 -0.2444  0.7138  0.3059
  395MOL0     C53256   1.497  10.884   4.387 -0.0899 -0.3540 -0.1846
  395MOL0     C53257   1.431  10.913   4.274 -0.2353  0.4846  0.0695
  395MOL0     H53258   1.329  11.109   3.814 -0.1462  1.6197 -2.6630
  395MOL0     H53259   1.178  11.145   3.618  1.2847 -2.4431 -1.2934
  395MOL0     H53260   0.736  11.141   3.677 -1.8919  2.2253 -1.7345
  395MOL0     H53261   0.849  11.270   3.651  0.3673  1.2804 -1.6570
  395MOL0     H53262   0.854  11.227   3.403  0.1623 -1.5424 -0.6373
  395MOL0     H53263   0.728  11.095   3.444  0.6955 -0.4245  1.8650
  395MOL0     H53264   0.580  11.247   3.540  1.1642 -1.1485  0.7463
  395MOL0     H53265   0.683  11.390   3.515  1.8174 -0.2286  2.4685
  395MOL0     H53266   0.668  11.384   3.282  0.0065  0.2495  1.1006
  395MOL0     H53267   0.571  11.225   3.290  0.6040 -1.1786  1.0840
  395MOL0     H53268   0.382  11.378   3.266  1.1055  1.5642 -1.9559
  395MOL0     H53269   0.412  11.352   3.437  2.0389  2.4564  2.1978
  395MOL0     H53270   0.551  11.581   3.426 -1.8466  1.1017  1.0566
  395MOL0     H53271   0.505  11.583   3.257  1.1523 -0.6348  0.1783
  395MOL0     H53272   0.296  11.555   3.474 -0.1338 -0.8761 -1.9697
  395MOL0     H53273   0.374  11.712   3.446 -0.0505 -0.1288  1.0187
  395MOL0     H53274   0.243  11.550   3.218  2.1847  0.1398 -0.6608
  395MOL0     H53275   0.310  11.718   3.203 -0.8149  1.3461  0.4420
  395MOL0     H53276   0.190  11.879   3.427  2.2370 -0.6086 -3.1948
  395MOL0     H53277  -0.106  11.874   3.574  2.6292 -1.1696  0.1401
  395MOL0     H53278  -0.000  11.995   3.497  2.0732 -1.4414 -1.7234
  395MOL0     H53279  -0.294  11.904   3.447 -0.2842 -1.3605  2.5904
  395MOL0     H53280  -0.199  11.978   3.316 -1.3993 -0.2943 -0.3886
  395MOL0     H53281  -0.175  12.189   3.481 -2.0021  1.9704  0.2019
  395MOL0     H53282  -0.274  12.097   3.587 -1.1107  4.0423 -0.0975
  395MOL0     H53283  -0.400  12.246   3.458  1.1741 -0.0242 -0.8472
  395MOL0     H53284  -0.452  12.076   3.425  0.2890 -0.6610 -0.3106
  395MOL0     H53285  -0.350  12.249   3.036 -0.6441 -0.8038 -0.9502
  395MOL0     H53286  -0.399  12.305   2.817 -0.4479  1.3797 -0.8377
  395MOL0     H53287  -0.548  12.222   2.792  1.1049 -1.1976  2.0438
  395MOL0     H53288  -0.544  12.406   2.798 -1.6231  1.7440  3.6036
  395MOL0     H53289  -1.087  12.310   2.846  1.8074  0.0440  0.9953
  395MOL0     H53290  -1.261  12.451   2.726  0.7062  3.6063 -2.5647
  395MOL0     H53291  -1.341  12.871   2.823  1.3709  1.5075 -0.0489
  395MOL0     H53292  -1.213  12.886   2.707 -1.3344  1.6801 -0.4482
  395MOL0     H53293  -1.347  12.828   2.517  0.5499  0.2083 -0.6605
  395MOL0     H53294  -1.495  12.818   2.620  0.8187 -1.9996  0.4534
  395MOL0     H53295  -1.475  13.028   2.491 -1.2870  0.5883  0.5861
  395MOL0     H53296  -1.332  13.077   2.595 -0.0020 -0.3738  0.4133
  395MOL0     H53297  -1.611  13.019   2.702  0.5762  0.4617  2.3775
  395MOL0     H53298  -1.467  13.053   2.790  0.4585 -2.0785 -0.7772
  395MOL0     H53299  -1.572  13.223   2.565 -0.4620 -0.7695  0.9843
  395MOL0     H53300  -1.452  13.277   2.686  1.8204 -2.6329  0.3945
  395MOL0     H53301  -1.657  13.389   2.701  1.9753  0.5264 -0.2461
  395MOL0     H53302  -1.768  13.248   2.729  0.0912 -2.3880  2.2940
  395MOL0     H53303  -1.561  13.362   2.911 -0.5393  0.8488 -1.8578
  395MOL0     H53304  -1.618  13.194   2.933 -0.4179 -0.9944 -1.4371
  395MOL0     H53305  -1.745  13.320   3.079  1.7175 -1.0970 -0.6154
  395MOL0     H53306  -1.851  13.265   2.952  0.1592 -0.3212 -0.3586
  395MOL0     H53307  -1.118  12.794   2.942  2.5448 -0.1590  3.0982
  395MOL0     H53308  -0.965  12.641   3.067 -0.3193 -0.4590 -0.0423
  395MOL0     H53309  -0.795  12.358   3.219  0.7721 -0.1792  0.2247
  395MOL0     H53310  -0.614  12.258   3.355  0.1146 -0.4946  1.0297
  395MOL0     H53311   0.844  10.991   3.835  0.0930 -0.9264  0.9776
  395MOL0     H53312   0.987  10.940   4.022 -1.0149 -1.8482 -1.7737
  395MOL0     H53313   1.187  11.099   4.408  1.9695  1.8879  0.0974
  395MOL0     H53314   1.297  11.042   4.603 -1.6336 -0.1301 -0.9612
  395MOL0     H53315   1.488  11.022   4.740 -0.4731  0.1165 -0.7368
  395MOL0     H53316   1.375  10.881   4.764  1.1443 -3.0082  0.6666
  395MOL0     H53317   1.563  10.740   4.827  1.4526  1.5237 -2.3433
  395MOL0     H53318   1.509  10.866   4.944  2.5177 -1.9391  1.5494
  395MOL0     H53319   1.750  10.877   4.936  0.8924  2.1383 -0.1809
  395MOL0     H53320   1.708  10.994   4.806 -4.8048 -0.0042 -2.1412
  395MOL0     H53321   1.789  10.858   4.639 -0.3899 -1.7893 -0.8704
  395MOL0     H53322   1.716  10.718   4.708 -1.2588  0.8788  0.4703
  395MOL0     H53323   2.118  10.675   4.839 -1.3797 -1.1365  2.8546
  395MOL0     H53324   1.589  10.827   4.380 -0.2786 -0.8092  0.7779
  395MOL0     H53325   1.467  10.879   4.177 -1.7605 -1.7757  0.2167
  396MOL0     O53326   1.487   2.060   2.202  0.6527  0.4271 -0.3762
  396MOL0     C53327   1.542   1.951   2.186  0.2369 -0.0346  0.3418
  396MOL0     O53328   1.485   1.836   2.163  0.4253  0.1443 -0.0281
  396MOL0     C53329   1.349   1.828   2.180 -0.1856 -0.2446  0.4613
  396MOL0     C53330   1.280   1.860   2.301  0.1781  0.3178 -0.5014
  396MOL0     C53331   1.138   1.875   2.306 -0.4628 -0.1353 -0.0503
  396MOL0     C53332   1.064   1.858   2.184  0.7271  0.2939  0.2345
  396MOL0     O53333   0.924   1.869   2.177  0.5197 -0.2920  0.2677
  396MOL0     C53334   0.847   1.911   2.290  0.1919 -0.1732  0.1244
  396MOL0     C53335   0.693   1.932   2.261  0.1088 -0.6636 -0.8208
  396MOL0     C53336   0.663   2.007   2.126  0.6516  0.8102 -0.2194
  396MOL0     C53337   0.509   2.015   2.110 -0.3820  0.0881 -0.0705
  396MOL0     C53338   0.474   2.082   1.977  0.0992  0.0256  0.0086
  396MOL0     C53339   0.337   2.147   1.979  0.4733 -0.7131  0.0832
  396MOL0     C53340   0.309   2.259   1.869  0.6646  0.6699 -0.1676
  396MOL0     C53341   0.326   2.222   1.723  0.6184  0.1056 -0.2250
  396MOL0     N53342   0.259   2.323   1.640  0.5877  0.4768  0.6904
  396MOL0     C53343   0.318   2.400   1.538 -0.6249 -0.4626 -0.4462
  396MOL0     C53344   0.211   2.456   1.474  0.5509 -0.4158  0.5190
  396MOL0     C53345   0.228   2.541   1.356  0.3497 -0.5370 -0.4913
  396MOL0     C53346   0.188   2.462   1.220 -0.4496  0.3404 -1.3812
  396MOL0     C53347   0.094   2.567   1.138 -0.3529 -0.1010  0.0951
  396MOL0     C53348   0.081   2.530   0.989  0.2092  0.0653 -0.2814
  396MOL0     O53349   0.027   2.394   0.978  0.1724  0.5238 -0.6993
  396MOL0     C53350   0.024   2.330   0.856  0.1116 -0.6813  0.3585
  396MOL0     C53351   0.056   2.395   0.738  0.3883 -0.3221  0.1792
  396MOL0     C53352   0.065   2.332   0.612  0.6834 -0.5862  0.2737
  396MOL0     C53353   0.101   2.404   0.479  0.2329  0.1853  0.3603
  396MOL0     C53354   0.054   2.185   0.616  0.6601 -0.2142  0.3882
  396MOL0     C53355   0.066   2.103   0.499  0.5262 -0.4843  0.2834
  396MOL0     O53356  -0.017   1.990   0.491 -0.2138  0.0137  0.2981
  396MOL0     C53357  -0.015   1.930   0.371  0.4072  0.0249  0.0678
  396MOL0     C53358   0.087   1.829   0.349  0.6232 -0.1487  0.1098
  396MOL0     C53359   0.089   1.761   0.228  0.5174 -0.1610 -0.1415
  396MOL0     C53360  -0.002   1.795   0.126 -0.0780  0.6870  0.4069
  396MOL0     O53361   0.000   1.725   0.010 -0.5478  0.3351  0.5632
  396MOL0     C53362  -0.108   1.632  -0.022 -0.0485 -0.2302 -1.2288
  396MOL0     C53363  -0.201   1.701  -0.114  0.1239  0.3250  0.7975
  396MOL0     C53364  -0.337   1.626  -0.114  0.6817 -0.6002  0.2181
  396MOL0     C53365  -0.342   1.519  -0.223  0.0637  1.0799  0.0014
  396MOL0     C53366  -0.486   1.478  -0.271  0.1266 -0.3235 -0.0327
  396MOL0     C53367  -0.562   1.603  -0.339  0.1009  0.4491  0.0940
  396MOL0     C53368  -0.705   1.559  -0.383 -0.5121 -0.1443  0.5075
  396MOL0     C53369  -0.828   1.625  -0.311 -0.2673  0.5260  0.5037
  396MOL0    Cl53370  -0.810   1.586  -0.142 -0.1178  0.2558 -0.3134
  396MOL0     C53371  -0.106   1.884   0.157 -0.8978  0.6515  0.9359
  396MOL0     C53372  -0.111   1.954   0.275 -0.2943 -1.4472 -0.3376
  396MOL0     O53373   0.154   2.133   0.417  0.5472 -0.2492  0.2534
  396MOL0     C53374   0.001   2.121   0.731 -0.0553  0.0737 -0.8297
  396MOL0     C53375  -0.014   2.198   0.847 -0.8573  0.3963  0.0340
  396MOL0     N53376   0.097   2.403   1.522  0.0892 -0.4421  0.2531
  396MOL0     N53377   0.126   2.324   1.621 -0.3323  0.2821  0.7370
  396MOL0     C53378   1.139   1.831   2.063  0.4429 -0.2196 -0.0399
  396MOL0     C53379   1.279   1.813   2.062  0.6126 -0.4106  0.6414
  396MOL0     C53380   1.693   1.952   2.187  0.9528  0.0580 -0.6865
  396MOL0     C53381   1.765   1.833   2.205  0.0663  0.5205  0.2440
  396MOL0     C53382   1.906   1.829   2.211  0.4609  0.2658 -0.1539
  396MOL0     C53383   1.975   1.953   2.200  0.1784  0.3836 -0.4353
  396MOL0     O53384   2.110   1.972   2.208  0.2829  0.3281 -0.2728
  396MOL0     C53385   2.192   1.861   2.231  0.3909  0.6449  0.1052
  396MOL0     C53386   2.340   1.900   2.210  0.8262 -0.0103  0.2853
  396MOL0     C53387   2.429   1.781   2.201 -0.9643  0.1925 -1.0938
  396MOL0     C53388   2.450   1.690   2.331  0.7320  1.5445  1.0166
  396MOL0     C53389   2.362   1.570   2.303  0.2535  0.3694  0.4913
  396MOL0     C53390   2.299   1.469   2.269 -0.4900 -0.3614 -0.2553
  396MOL0     C53391   1.899   2.074   2.186 -0.3151 -0.5027  0.6020
  396MOL0     C53392   1.761   2.075   2.177 -0.5102  0.1443 -0.5304
  396MOL0     H53393   1.346   1.868   2.387  2.7848  3.5747 -2.5634
  396MOL0     H53394   1.087   1.905   2.397 -1.7874 -0.4381 -0.6652
  396MOL0     H53395   0.852   1.845   2.378 -2.7831  3.6643  3.6006
  396MOL0     H53396   0.897   2.000   2.329  0.2895 -0.0090 -0.3655
  396MOL0     H53397   0.635   1.840   2.269 -0.9264 -0.0554 -1.1304
  396MOL0     H53398   0.653   1.994   2.341  2.2036 -0.0442 -0.1693
  396MOL0     H53399   0.702   2.108   2.140 -1.6246  1.6114  0.6661
  396MOL0     H53400   0.715   1.959   2.042 -1.0076 -2.2166  0.3409
  396MOL0     H53401   0.465   1.915   2.116 -0.8476  0.2889 -0.0283
  396MOL0     H53402   0.471   2.082   2.188  1.9026  2.1024 -0.5640
  396MOL0     H53403   0.542   2.166   1.959 -1.5728  1.7645  1.3884
  396MOL0     H53404   0.474   2.012   1.892  0.9171 -2.3838  1.8819
  396MOL0     H53405   0.257   2.074   1.961 -0.0885 -0.0984  0.0330
  396MOL0     H53406   0.325   2.193   2.078 -1.7276 -1.0541  0.0257
  396MOL0     H53407   0.206   2.289   1.888  0.0563 -1.7801  0.7310
  396MOL0     H53408   0.373   2.345   1.892  0.3709  0.5100  1.3262
  396MOL0     H53409   0.283   2.125   1.694 -1.1865  1.3675 -2.0605
  396MOL0     H53410   0.434   2.226   1.709  0.8604  2.2317  1.6731
  396MOL0     H53411   0.424   2.410   1.517 -0.5790  0.4069  0.1517
  396MOL0     H53412   0.162   2.625   1.382  2.6799  0.1630  4.2071
  396MOL0     H53413   0.333   2.570   1.354 -0.3427  2.2506 -0.8210
  396MOL0     H53414   0.128   2.372   1.236  0.2356  0.1212  0.0515
  396MOL0     H53415   0.278   2.442   1.162 -0.5624  1.2373 -1.8929
  396MOL0     H53416   0.141   2.665   1.148  0.5661 -0.5021 -0.2270
  396MOL0     H53417  -0.004   2.587   1.183  0.3856  1.5448  1.0584
  396MOL0     H53418   0.178   2.541   0.941  0.4895  0.8379  0.4476
  396MOL0     H53419   0.013   2.608   0.953  1.2731  1.1950  0.1249
  396MOL0     H53420   0.070   2.503   0.736  1.4763 -0.4272  1.5076
  396MOL0     H53421   0.195   2.375   0.432  0.9024  0.6416  1.3762
  396MOL0     H53422   0.026   2.384   0.402 -0.2949  3.1338 -0.0090
  396MOL0     H53423   0.114   2.512   0.491 -0.9564  0.3197  0.6380
  396MOL0     H53424   0.157   1.807   0.428 -0.8024 -2.1064  0.9163
  396MOL0     H53425   0.170   1.689   0.220 -0.0671 -1.4837  3.6807
  396MOL0     H53426  -0.079   1.540  -0.073 -1.2868  0.3370 -3.0747
  396MOL0     H53427  -0.161   1.612   0.072  2.7336  1.1815  0.7977
  396MOL0     H53428  -0.214   1.807  -0.090  1.2818  0.5321  0.5436
  396MOL0     H53429  -0.166   1.692  -0.217 -0.5175  1.7649  0.4323
  396MOL0     H53430  -0.404   1.710  -0.134  0.2064 -0.8680  0.6457
  396MOL0     H53431  -0.380   1.592  -0.019 -0.0917  0.7940  0.4007
  396MOL0     H53432  -0.290   1.553  -0.313  0.2530 -0.3182 -0.4325
  396MOL0     H53433  -0.295   1.430  -0.181 -0.1038  0.7302 -0.5435
  396MOL0     H53434  -0.543   1.436  -0.188  1.8085  0.6501  1.6997
  396MOL0     H53435  -0.473   1.401  -0.348  1.2824 -0.4028  0.2312
  396MOL0     H53436  -0.565   1.697  -0.283  2.0418  1.5724 -1.5152
  396MOL0     H53437  -0.519   1.633  -0.435 -2.3069 -1.0759 -1.5616
  396MOL0     H53438  -0.713   1.451  -0.365 -0.8674 -0.1293  0.4461
  396MOL0     H53439  -0.720   1.580  -0.490 -1.5510 -0.5786  0.5578
  396MOL0     H53440  -0.912   1.576  -0.359  1.3967  0.3905 -2.4727
  396MOL0     H53441  -0.830   1.734  -0.325 -2.4628  0.8048  2.3889
  396MOL0     H53442  -0.181   1.902   0.080 -0.4619 -1.2134  0.0161
  396MOL0     H53443  -0.187   2.030   0.288 -0.5023 -1.5086 -1.1847
  396MOL0     H53444  -0.035   2.018   0.731 -0.5515  0.1662  1.6718
  396MOL0     H53445  -0.058   2.152   0.936  1.3503 -1.1474  0.4031
  396MOL0     H53446   1.080   1.806   1.975 -1.5349  0.8395  0.9232
  396MOL0     H53447   1.330   1.808   1.966 -0.9250  1.3338 -0.3506
  396MOL0     H53448   1.725   1.735   2.227  0.0867  0.5660  0.4804
  396MOL0     H53449   1.952   1.731   2.220  2.5840  1.0959 -1.3773
  396MOL0     H53450   2.176   1.826   2.334 -0.5158 -3.3909 -1.2075
  396MOL0     H53451   2.166   1.774   2.170 -0.1500  0.1771  0.9635
  396MOL0     H53452   2.368   1.963   2.295  0.8261  1.9299 -1.0827
  396MOL0     H53453   2.358   1.953   2.116 -2.6031 -2.3815 -1.9350
  396MOL0     H53454   2.529   1.810   2.167  0.0463 -2.4143 -0.5848
  396MOL0     H53455   2.393   1.716   2.121 -0.8705  1.0920 -1.8938
  396MOL0     H53456   2.428   1.751   2.420  0.0271 -0.5755  2.3743
  396MOL0     H53457   2.553   1.655   2.337  0.3704  0.5801  2.0136
  396MOL0     H53458   2.258   1.373   2.244  0.1827 -0.9444  0.7751
  396MOL0     H53459   1.955   2.163   2.163 -2.5273  0.7278 -0.3433
  396MOL0     H53460   1.706   2.168   2.173 -0.5623  0.0569 -2.5752
  397MOL0     O53461   2.147   7.857  10.004 -0.1367  0.3404 -0.1930
  397MOL0     C53462   2.244   7.849   9.928  0.3363 -0.1279  0.2113
  397MOL0     O53463   2.233   7.807   9.801  0.2499  0.6947 -0.1363
  397MOL0     C53464   2.111   7.786   9.739  0.1523  0.8171  0.1017
  397MOL0     C53465   2.008   7.878   9.755  0.7991  0.2194 -0.2160
  397MOL0     C53466   1.887   7.879   9.684  0.0650  0.0611  0.9222
  397MOL0     C53467   1.865   7.774   9.592  0.2594 -0.7430 -1.1599
  397MOL0     O53468   1.745   7.751   9.533  0.1197 -0.1994  0.6710
  397MOL0     C53469   1.636   7.848   9.537  0.0231 -0.5004 -0.5233
  397MOL0     C53470   1.508   7.782   9.490  0.5503  0.4604  0.1926
  397MOL0     C53471   1.377   7.868   9.500 -0.0623 -0.0133 -0.7519
  397MOL0     C53472   1.248   7.818   9.437  0.1411  0.5053 -0.8081
  397MOL0     C53473   1.130   7.924   9.452  0.0676  0.3070 -0.2817
  397MOL0     C53474   0.997   7.858   9.423  0.9336  0.2071  0.7264
  397MOL0     C53475   0.887   7.962   9.450 -0.7905  0.0103  0.2762
  397MOL0     C53476   0.745   7.915   9.440  0.4943  0.3957  0.9154
  397MOL0     N53477   0.709   7.883   9.294 -0.2287 -0.3958 -0.6443
  397MOL0     C53478   0.658   7.962   9.197  0.3696  0.5549 -1.3011
  397MOL0     C53479   0.650   7.875   9.087  0.7800  0.0905 -0.5473
  397MOL0     C53480   0.609   7.902   8.948 -0.4475  0.0110 -0.0057
  397MOL0     C53481   0.459   7.925   8.933  0.2635  0.8111 -0.4304
  397MOL0     C53482   0.387   7.786   8.975  0.2464  0.3512  0.4325
  397MOL0     C53483   0.233   7.811   8.962  0.1347 -0.5262  0.6852
  397MOL0     O53484   0.160   7.699   9.011 -0.0385 -0.5991 -0.6976
  397MOL0     C53485   0.018   7.698   8.993  0.0442  0.4338  0.2570
  397MOL0     C53486  -0.059   7.808   8.954 -0.6133  0.0113  0.6708
  397MOL0     C53487  -0.196   7.797   8.924  0.0512  1.0181  0.4586
  397MOL0     C53488  -0.254   7.917   8.871  0.1127 -0.0686 -0.5177
  397MOL0     C53489  -0.265   7.679   8.950  0.4128  0.3974 -0.3787
  397MOL0     C53490  -0.413   7.655   8.910 -1.3517  0.3107 -0.2426
  397MOL0     O53491  -0.480   7.550   8.973  0.1199  0.1450 -0.1172
  397MOL0     C53492  -0.607   7.515   8.926  1.0676 -0.4581  0.6241
  397MOL0     C53493  -0.624   7.382   8.896  0.5415 -0.4569 -0.1074
  397MOL0     C53494  -0.748   7.338   8.857 -0.6586  0.5159  0.1358
  397MOL0     C53495  -0.853   7.422   8.841 -0.7962  0.1524  0.3955
  397MOL0     O53496  -0.969   7.359   8.813  0.4923 -0.3808  0.5892
  397MOL0     C53497  -1.093   7.433   8.801 -0.0160  0.3442 -0.8229
  397MOL0     C53498  -1.208   7.336   8.792 -0.7300  0.2217  0.0043
  397MOL0     C53499  -1.196   7.265   8.659 -0.0969 -0.2528 -0.4028
  397MOL0     C53500  -1.315   7.166   8.654 -0.3882 -0.3800  0.0487
  397MOL0     C53501  -1.320   7.095   8.518  1.1642 -0.2844 -1.1227
  397MOL0     C53502  -1.419   6.977   8.529 -0.6223  0.3007 -0.1183
  397MOL0     C53503  -1.435   6.904   8.389 -0.4883  0.0405 -0.4537
  397MOL0     C53504  -1.565   6.808   8.386 -0.4066 -0.5134  0.5017
  397MOL0    Cl53505  -1.714   6.895   8.432  0.0330 -0.0233 -0.1122
  397MOL0     C53506  -0.838   7.559   8.846  0.0824  0.2277 -0.1354
  397MOL0     C53507  -0.713   7.605   8.897 -0.5291 -0.2224  0.8292
  397MOL0     O53508  -0.460   7.731   8.823 -0.9238 -0.1459  0.0680
  397MOL0     C53509  -0.189   7.571   8.995 -0.1372 -0.2720 -0.2344
  397MOL0     C53510  -0.049   7.580   9.025  0.5151 -0.1334  0.4098
  397MOL0     N53511   0.699   7.754   9.127  0.4992  0.0325  0.3274
  397MOL0     N53512   0.738   7.761   9.246  0.2448  0.6624 -0.0556
  397MOL0     C53513   1.965   7.676   9.576 -0.4525  0.2931  0.1279
  397MOL0     C53514   2.087   7.676   9.654 -1.0235 -0.4249  0.0389
  397MOL0     C53515   2.382   7.858   9.978 -0.6743 -0.4393  0.0161
  397MOL0     C53516   2.480   7.849   9.888  0.0742 -1.0539  0.1996
  397MOL0     C53517   2.614   7.875   9.921  0.1220  0.0490 -0.3140
  397MOL0     C53518   2.647   7.914  10.055 -0.0631 -0.3015  0.8697
  397MOL0     O53519   2.769   7.946  10.103  0.1621 -0.5282 -0.7438
  397MOL0     C53520   2.878   7.977  10.012  0.4860 -0.2720 -0.1426
  397MOL0     C53521   3.008   7.984  10.083 -0.1139 -0.4324 -0.9964
  397MOL0     C53522   3.126   8.062  10.017  0.5135 -0.0023 -0.0771
  397MOL0     C53523   3.251   8.009  10.074  0.3931 -0.5277  0.0751
  397MOL0     C53524   3.306   7.895   9.992 -0.0341 -0.5683 -0.0785
  397MOL0     C53525   3.338   7.787   9.933 -0.4248 -0.8142 -0.5083
  397MOL0     C53526   2.541   7.921  10.153 -0.1690  0.3686  0.4321
  397MOL0     C53527   2.408   7.901  10.111 -0.0805  0.5823  0.6375
  397MOL0     H53528   2.021   7.958   9.828 -1.3627  0.7631 -0.3736
  397MOL0     H53529   1.806   7.943   9.717 -0.8325 -1.0297  0.9265
  397MOL0     H53530   1.609   7.878   9.639  1.4818  0.8020 -0.5028
  397MOL0     H53531   1.662   7.942   9.488 -1.6250  1.4659  2.0991
  397MOL0     H53532   1.517   7.742   9.389 -0.1785  0.0464  0.2855
  397MOL0     H53533   1.496   7.690   9.548  3.5499 -0.6478 -0.7470
  397MOL0     H53534   1.370   7.893   9.606 -1.6024  3.5187 -1.5449
  397MOL0     H53535   1.396   7.959   9.441 -3.2505  0.6652 -0.9211
  397MOL0     H53536   1.260   7.803   9.329  3.2124  2.4603 -0.8584
  397MOL0     H53537   1.232   7.721   9.486  2.1570 -0.4383 -1.8809
  397MOL0     H53538   1.130   7.959   9.555  0.8815 -1.7228  0.4689
  397MOL0     H53539   1.153   8.008   9.386  0.4427 -0.0517 -0.6163
  397MOL0     H53540   0.993   7.816   9.322  2.8250 -0.3054  0.8342
  397MOL0     H53541   0.984   7.770   9.487  0.0244 -1.1859 -1.2831
  397MOL0     H53542   0.898   8.006   9.550 -1.4317 -1.2141  0.9096
  397MOL0     H53543   0.904   8.050   9.387  0.2364  2.2339  3.3938
  397MOL0     H53544   0.679   7.995   9.475  0.0602  0.5835 -0.2621
  397MOL0     H53545   0.733   7.826   9.502 -1.9722 -1.0547 -1.4141
  397MOL0     H53546   0.627   8.066   9.198  2.8077  1.3833 -2.9928
  397MOL0     H53547   0.658   7.996   8.923  1.7685 -0.9809  0.3295
  397MOL0     H53548   0.629   7.826   8.872 -3.3222  0.6676 -1.5713
  397MOL0     H53549   0.443   7.946   8.826  1.0395 -0.0070 -0.7099
  397MOL0     H53550   0.412   7.996   9.002  0.3937 -1.7734  2.4919
  397MOL0     H53551   0.416   7.747   9.073 -0.2339 -2.4687 -0.4484
  397MOL0     H53552   0.407   7.706   8.903 -1.1399  0.7777 -0.4676
  397MOL0     H53553   0.213   7.815   8.855  0.2317 -2.3890  0.5703
  397MOL0     H53554   0.205   7.907   9.008  0.2512 -1.0942  1.9827
  397MOL0     H53555  -0.018   7.907   8.938  0.3408  0.1578  3.4281
  397MOL0     H53556  -0.315   7.955   8.954  2.7751 -0.9983  2.0594
  397MOL0     H53557  -0.187   8.002   8.855 -0.0076 -0.1773 -1.6509
  397MOL0     H53558  -0.314   7.902   8.781 -1.7204 -0.9620  0.7816
  397MOL0     H53559  -0.539   7.316   8.906  2.6740  2.0549 -0.4301
  397MOL0     H53560  -0.769   7.233   8.844 -1.3294  0.8729 -2.0525
  397MOL0     H53561  -1.108   7.486   8.895  1.5101  1.9679 -1.4506
  397MOL0     H53562  -1.097   7.511   8.725 -1.1777 -0.2417 -1.3913
  397MOL0     H53563  -1.188   7.264   8.872  0.9316  0.2870 -0.3253
  397MOL0     H53564  -1.304   7.387   8.797 -1.3795 -0.9017 -0.5663
  397MOL0     H53565  -1.102   7.210   8.654  1.0320  1.4791  0.6101
  397MOL0     H53566  -1.200   7.343   8.582  1.3230  0.8314  0.5803
  397MOL0     H53567  -1.303   7.083   8.723  0.9705 -1.2802 -1.2200
  397MOL0     H53568  -1.411   7.220   8.660 -0.1877  0.6024 -3.3966
  397MOL0     H53569  -1.219   7.065   8.489  0.3671 -3.0919 -1.3205
  397MOL0     H53570  -1.346   7.171   8.443  0.8446  0.7884  0.0383
  397MOL0     H53571  -1.369   6.905   8.594 -0.4833 -0.6605 -1.2607
  397MOL0     H53572  -1.505   7.019   8.583  0.3625  1.4724  0.5891
  397MOL0     H53573  -1.346   6.847   8.362  0.2934  2.3196 -3.1972
  397MOL0     H53574  -1.449   6.980   8.311  2.3690 -0.8607 -1.9977
  397MOL0     H53575  -1.552   6.714   8.440 -1.7151 -1.0224 -0.0461
  397MOL0     H53576  -1.569   6.770   8.284 -0.2735  0.9284 -0.0684
  397MOL0     H53577  -0.917   7.632   8.833  1.7112  2.0346 -0.3758
  397MOL0     H53578  -0.692   7.711   8.908 -2.8619  0.3175  0.6263
  397MOL0     H53579  -0.235   7.474   9.013 -0.0890 -0.4715 -1.1736
  397MOL0     H53580   0.006   7.494   9.062 -0.0294  0.1421  1.9249
  397MOL0     H53581   1.935   7.603   9.501 -2.7508  2.5779 -1.3617
  397MOL0     H53582   2.169   7.605   9.641  0.3121  0.9564  0.5667
  397MOL0     H53583   2.463   7.822   9.784 -0.2151  0.6612 -0.2471
  397MOL0     H53584   2.687   7.849   9.845 -3.0119 -1.3187 -3.0998
  397MOL0     H53585   2.891   7.891   9.947  1.0651 -1.2625  1.2298
  397MOL0     H53586   2.856   8.069   9.956  1.3435  0.3317  0.4886
  397MOL0     H53587   3.031   7.880  10.111  2.1447 -0.3293 -2.2204
  397MOL0     H53588   2.991   8.038  10.177  0.6351 -0.3163 -0.9190
  397MOL0     H53589   3.131   8.169  10.041  3.0109 -0.4511  1.8559
  397MOL0     H53590   3.114   8.060   9.908  0.5334  2.3872 -0.1824
  397MOL0     H53591   3.243   7.990  10.182 -1.3820 -3.5136 -0.4490
  397MOL0     H53592   3.312   8.098  10.061 -0.9509  0.5156  0.6205
  397MOL0     H53593   3.369   7.690   9.899 -0.1725 -0.3108 -1.7985
  397MOL0     H53594   2.555   7.956  10.255 -0.2624 -0.7029  0.8263
  397MOL0     H53595   2.317   7.918  10.167 -1.9526  1.2286 -2.3360
  398MOL0     O53596   3.616   8.336   5.259  0.0849  0.2834  0.0347
  398MOL0     C53597   3.668   8.435   5.308 -0.1312 -0.7441 -0.5468
  398MOL0     O53598   3.598   8.545   5.355 -0.2554 -0.0391  0.0855
  398MOL0     C53599   3.460   8.555   5.338 -0.2856  0.2899 -0.1248
  398MOL0     C53600   3.375   8.521   5.448 -0.3472 -0.4132  0.3878
  398MOL0     C53601   3.238   8.527   5.434 -0.8249 -0.6288  0.6169
  398MOL0     C53602   3.179   8.573   5.323  0.4398 -0.8951 -0.4188
  398MOL0     O53603   3.047   8.594   5.312  0.0529  0.2999  0.4384
  398MOL0     C53604   2.966   8.590   5.438  0.1837  0.3208  0.2616
  398MOL0     C53605   2.827   8.628   5.400  0.1031 -0.3224  0.1765
  398MOL0     C53606   2.732   8.589   5.517 -0.4419 -0.7858 -0.3008
  398MOL0     C53607   2.583   8.559   5.479  0.5035 -0.1143 -0.6548
  398MOL0     C53608   2.498   8.680   5.421  0.5686 -0.4666 -0.2959
  398MOL0     C53609   2.343   8.652   5.439  0.5451 -1.0573  0.3562
  398MOL0     C53610   2.292   8.500   5.428  0.7773 -1.5953  0.7232
  398MOL0     C53611   2.140   8.513   5.415 -0.2017 -1.2077  0.1044
  398MOL0     N53612   2.082   8.389   5.374  0.7007  0.2832 -0.0792
  398MOL0     C53613   1.945   8.378   5.378 -0.0921 -0.8272 -0.6270
  398MOL0     C53614   1.924   8.256   5.335  1.1605 -0.0200  0.9378
  398MOL0     C53615   1.794   8.193   5.362  0.4609 -0.7090 -0.2519
  398MOL0     C53616   1.668   8.266   5.312  0.5579 -0.0712  0.0533
  398MOL0     C53617   1.671   8.282   5.157  0.1118 -0.8480 -0.2510
  398MOL0     C53618   1.526   8.273   5.089 -0.2276  0.7022  0.2377
  398MOL0     O53619   1.430   8.365   5.147 -0.8448 -0.0182 -0.0226
  398MOL0     C53620   1.301   8.372   5.093  1.0318  0.1319 -1.0869
  398MOL0     C53621   1.253   8.285   4.997 -0.2230  0.2848  0.2763
  398MOL0     C53622   1.118   8.290   4.964  0.0119  0.8266 -0.4145
  398MOL0     C53623   1.074   8.182   4.853  0.3319  0.2656  0.6079
  398MOL0     C53624   1.022   8.381   5.026 -0.5463 -0.2491  0.4631
  398MOL0     C53625   0.869   8.386   5.016  0.1340 -0.0890  0.6166
  398MOL0     O53626   0.797   8.466   5.108  0.2343  0.0295  0.2382
  398MOL0     C53627   0.666   8.471   5.075  0.2603  0.0147  0.3780
  398MOL0     C53628   0.572   8.362   5.097 -0.8266 -0.8225 -0.1549
  398MOL0     C53629   0.433   8.377   5.059  0.5077  0.7479  0.9479
  398MOL0     C53630   0.392   8.506   5.009  0.5177 -0.2846  0.1401
  398MOL0     O53631   0.265   8.524   4.954  0.1974 -0.4629 -0.7390
  398MOL0     C53632   0.172   8.416   4.965 -0.0916  0.2958 -0.6331
  398MOL0     C53633   0.031   8.458   4.941  0.6879 -0.4371  0.5300
  398MOL0     C53634   0.003   8.510   4.803 -0.5463  0.1169 -0.2533
  398MOL0     C53635  -0.135   8.582   4.800 -0.0157  0.6073  0.1282
  398MOL0     C53636  -0.175   8.587   4.659  0.2367 -0.0761  0.0575
  398MOL0     C53637  -0.321   8.623   4.641  0.0045 -0.0554 -0.1481
  398MOL0     C53638  -0.348   8.765   4.678  0.2065  0.5557 -0.0473
  398MOL0     C53639  -0.489   8.806   4.647  0.4436  0.0143 -0.2503
  398MOL0    Cl53640  -0.592   8.662   4.688  0.0826 -0.4641 -0.2731
  398MOL0     C53641   0.488   8.611   5.010 -0.3819 -0.0593  0.5537
  398MOL0     C53642   0.618   8.592   5.043 -0.1758  0.5517 -0.1249
  398MOL0     O53643   0.823   8.314   4.928  0.1906  0.0857  0.0360
  398MOL0     C53644   1.078   8.464   5.123  0.4919  0.0094  0.8310
  398MOL0     C53645   1.208   8.454   5.155 -0.3881 -0.5030  0.1605
  398MOL0     N53646   2.031   8.192   5.293 -0.4916 -0.2251  0.2768
  398MOL0     N53647   2.127   8.272   5.320 -0.3020  1.1576  0.4641
  398MOL0     C53648   3.257   8.613   5.216 -0.6403  0.1719 -0.2125
  398MOL0     C53649   3.399   8.602   5.224 -0.2227 -0.2010  0.0288
  398MOL0     C53650   3.818   8.440   5.310  0.0906  0.2466  0.4666
  398MOL0     C53651   3.891   8.334   5.241 -0.0183  0.3336 -0.8976
  398MOL0     C53652   4.027   8.331   5.246  0.4121 -0.6434  0.6923
  398MOL0     C53653   4.094   8.431   5.312 -0.2709  0.8182  0.6945
  398MOL0     O53654   4.230   8.423   5.323 -0.1554 -1.0509 -0.2565
  398MOL0     C53655   4.279   8.297   5.369 -0.4972  0.4804 -0.5805
  398MOL0     C53656   4.349   8.209   5.267 -0.4448 -0.7413 -0.2642
  398MOL0     C53657   4.443   8.285   5.174 -0.2351 -0.0806  0.8969
  398MOL0     C53658   4.550   8.191   5.114  0.1111  0.0943 -0.4088
  398MOL0     C53659   4.654   8.155   5.214  0.5216 -0.2666  0.6346
  398MOL0     C53660   4.733   8.129   5.301  0.2898  0.0916 -0.2553
  398MOL0     C53661   4.028   8.541   5.369  0.5028  0.4694  0.0397
  398MOL0     C53662   3.885   8.545   5.376  0.2074 -0.4424 -0.2730
  398MOL0     H53663   3.417   8.482   5.541 -0.8353 -0.1006  0.7466
  398MOL0     H53664   3.178   8.508   5.523 -1.7985  1.8595  0.5601
  398MOL0     H53665   2.968   8.487   5.474  0.6796  0.9897  2.2683
  398MOL0     H53666   3.012   8.656   5.512  2.0630  0.0287 -0.5749
  398MOL0     H53667   2.833   8.735   5.380  3.6473 -0.4126  0.1204
  398MOL0     H53668   2.794   8.584   5.306 -5.1693  0.7447  1.2164
  398MOL0     H53669   2.774   8.503   5.570  0.8146  0.0326  0.0716
  398MOL0     H53670   2.735   8.666   5.594  0.3787 -0.8656 -0.2405
  398MOL0     H53671   2.576   8.476   5.408 -3.0816 -0.0013 -0.6249
  398MOL0     H53672   2.534   8.524   5.570 -0.1261  1.2312 -0.4552
  398MOL0     H53673   2.538   8.774   5.458 -0.8306  0.8151 -1.8979
  398MOL0     H53674   2.515   8.677   5.313 -1.4852 -0.8086 -0.6528
  398MOL0     H53675   2.311   8.699   5.532 -0.0029 -1.5051  0.4018
  398MOL0     H53676   2.305   8.715   5.359  0.2080 -3.8182 -1.7952
  398MOL0     H53677   2.344   8.460   5.340 -1.2740  0.5085 -1.6024
  398MOL0     H53678   2.321   8.440   5.514  4.2652 -1.0132  0.1096
  398MOL0     H53679   2.107   8.584   5.338  1.9791  1.8373  1.7849
  398MOL0     H53680   2.101   8.548   5.512  0.0351  0.8817 -0.5141
  398MOL0     H53681   1.876   8.451   5.422  0.0675 -1.6329  1.0427
  398MOL0     H53682   1.784   8.092   5.320 -2.0950  0.1706 -1.9721
  398MOL0     H53683   1.792   8.187   5.471  0.6370  0.7273 -0.1509
  398MOL0     H53684   1.662   8.368   5.352  2.2077 -0.4681  1.4213
  398MOL0     H53685   1.580   8.205   5.335 -0.4871  1.4541  0.2928
  398MOL0     H53686   1.729   8.200   5.116  1.2949  0.3001 -0.9598
  398MOL0     H53687   1.728   8.373   5.133 -0.0852  0.4631  3.4813
  398MOL0     H53688   1.480   8.173   5.096 -1.4529  1.2274 -0.0361
  398MOL0     H53689   1.526   8.298   4.983 -1.2954 -1.8990 -0.4510
  398MOL0     H53690   1.314   8.210   4.947 -1.4660 -1.1518  0.7988
  398MOL0     H53691   1.161   8.156   4.792  0.7331 -0.8417  1.5954
  398MOL0     H53692   1.037   8.089   4.899  1.4485 -0.7409 -0.4587
  398MOL0     H53693   0.988   8.212   4.794 -0.9321 -0.9461  1.7558
  398MOL0     H53694   0.613   8.265   5.123  3.5157  0.9876  0.5618
  398MOL0     H53695   0.366   8.292   5.056 -2.5685  2.9896 -1.3513
  398MOL0     H53696   0.207   8.340   4.895 -1.8869 -1.1570 -0.0092
  398MOL0     H53697   0.182   8.369   5.063  1.5369 -0.6307 -1.2023
  398MOL0     H53698  -0.041   8.376   4.954 -1.0779  1.2040  1.4895
  398MOL0     H53699   0.004   8.531   5.017 -1.5805 -1.3499  0.7018
  398MOL0     H53700   0.007   8.422   4.738 -2.7995  0.4890 -0.9562
  398MOL0     H53701   0.085   8.575   4.771 -0.4472 -0.1248 -0.5046
  398MOL0     H53702  -0.209   8.530   4.862  1.9655 -1.1768  1.1464
  398MOL0     H53703  -0.108   8.679   4.844 -0.3911  0.2513  1.1628
  398MOL0     H53704  -0.172   8.487   4.614 -4.1226 -0.6493  0.6238
  398MOL0     H53705  -0.125   8.668   4.605 -1.7258  0.3540 -1.2008
  398MOL0     H53706  -0.350   8.598   4.539 -0.2034 -2.7939  0.4981
  398MOL0     H53707  -0.373   8.550   4.704  0.1369 -1.1156 -1.2270
  398MOL0     H53708  -0.284   8.838   4.627  1.0166 -0.8988 -1.1646
  398MOL0     H53709  -0.337   8.773   4.786  2.1970 -0.5656 -0.1262
  398MOL0     H53710  -0.481   8.819   4.539  4.6964 -0.3411 -0.1417
  398MOL0     H53711  -0.514   8.900   4.697 -0.4871 -1.2558  1.7935
  398MOL0     H53712   0.452   8.703   4.966 -2.2712 -1.1101 -0.2269
  398MOL0     H53713   0.689   8.674   5.031  0.5159 -0.2645 -1.9460
  398MOL0     H53714   1.010   8.525   5.182 -0.5621  0.0849 -0.3912
  398MOL0     H53715   1.250   8.517   5.233  0.3158 -1.4782  0.5910
  398MOL0     H53716   3.220   8.631   5.116  2.3261 -1.4728 -1.7635
  398MOL0     H53717   3.459   8.629   5.137  0.6065 -0.9571  0.3509
  398MOL0     H53718   3.838   8.256   5.187  0.0209 -0.6434  0.4208
  398MOL0     H53719   4.079   8.259   5.183  0.4057  1.3455 -1.7519
  398MOL0     H53720   4.345   8.330   5.449  1.6371 -1.7463 -1.3105
  398MOL0     H53721   4.197   8.252   5.427 -0.0964  0.2085 -0.2188
  398MOL0     H53722   4.280   8.147   5.208  0.9279 -0.6413 -2.0358
  398MOL0     H53723   4.413   8.140   5.322 -1.7295 -0.2404  1.9747
  398MOL0     H53724   4.501   8.361   5.227  0.4663  0.6750 -0.8763
  398MOL0     H53725   4.391   8.343   5.097  1.0703  0.6357  0.5147
  398MOL0     H53726   4.601   8.223   5.023 -0.7758 -0.2220 -1.0301
  398MOL0     H53727   4.508   8.096   5.079  6.0907 -1.8305 -3.6955
  398MOL0     H53728   4.790   8.095   5.386  2.9517  1.1769 -1.5003
  398MOL0     H53729   4.095   8.610   5.419  1.1676  0.3765 -0.7224
  398MOL0     H53730   3.835   8.633   5.415 -3.8512 -2.1602 -1.1719
  399MOL0     O53731   9.450   2.839  10.714 -0.1937  0.0290  0.8584
  399MOL0     C53732   9.488   2.852  10.825 -0.5503 -0.0162 -0.9188
  399MOL0     O53733   9.422   2.835  10.938  0.3141 -0.0462  0.2224
  399MOL0     C53734   9.286   2.826  10.921 -1.1141 -0.0902  0.0683
  399MOL0     C53735   9.207   2.924  10.872  0.4990 -0.9072  0.1679
  399MOL0     C53736   9.068   2.914  10.862 -0.0549 -0.0130  0.0806
  399MOL0     C53737   9.005   2.800  10.899 -0.1344  0.4790  0.7656
  399MOL0     O53738   8.868   2.784  10.868 -0.2763 -0.2541  0.0528
  399MOL0     C53739   8.803   2.663  10.908  0.8945  0.2475 -0.3666
  399MOL0     C53740   8.645   2.678  10.905 -1.1431 -0.1323 -0.3523
  399MOL0     C53741   8.605   2.779  11.018  0.0375 -0.3692  0.6936
  399MOL0     C53742   8.460   2.755  11.062 -0.1931 -0.1510 -0.8206
  399MOL0     C53743   8.365   2.759  10.947  0.7051  0.3788 -0.2259
  399MOL0     C53744   8.219   2.753  10.990  0.3371 -0.6007  0.8721
  399MOL0     C53745   8.113   2.778  10.884  0.6047  0.2141  0.0394
  399MOL0     C53746   8.147   2.900  10.800 -0.6383  1.1551  0.6852
  399MOL0     N53747   8.048   2.924  10.699 -0.0545  0.5024 -0.4089
  399MOL0     C53748   7.961   2.834  10.655  0.1560  0.3983  0.5938
  399MOL0     C53749   7.894   2.903  10.559 -0.6810  0.0818 -0.4740
  399MOL0     C53750   7.776   2.846  10.490  0.5538  0.4703  0.3940
  399MOL0     C53751   7.823   2.786  10.358 -0.5470 -0.7834 -0.7131
  399MOL0     C53752   7.720   2.704  10.272 -0.4876 -0.1684 -0.4141
  399MOL0     C53753   7.585   2.770  10.254  0.2375 -0.0973  0.5346
  399MOL0     O53754   7.568   2.883  10.163 -0.2732 -0.3853 -0.0523
  399MOL0     C53755   7.443   2.932  10.155  0.2642  0.4387 -1.6760
  399MOL0     C53756   7.399   3.023  10.258 -0.6154 -0.2870  0.3263
  399MOL0     C53757   7.273   3.080  10.250 -0.1575  0.4356 -0.3655
  399MOL0     C53758   7.228   3.184  10.345 -0.7864 -0.4751  0.5654
  399MOL0     C53759   7.185   3.025  10.149 -0.3932  0.0990 -0.7751
  399MOL0     C53760   7.039   3.070  10.145 -0.7123 -0.1493  1.0328
  399MOL0     O53761   7.018   3.202  10.128  0.5486  0.8904 -0.0692
  399MOL0     C53762   6.894   3.254  10.156 -0.2196 -0.6311  1.1441
  399MOL0     C53763   6.794   3.191  10.232 -0.2760  0.4044  0.1351
  399MOL0     C53764   6.675   3.256  10.263  0.7369 -0.3386 -0.3255
  399MOL0     C53765   6.651   3.393  10.224  0.0618 -0.0739  0.5926
  399MOL0     O53766   6.528   3.460  10.238 -0.9011 -0.5156  0.8809
  399MOL0     C53767   6.402   3.393  10.236 -0.1681 -0.5317 -0.0993
  399MOL0     C53768   6.294   3.503  10.241  0.1991  0.2023  0.0857
  399MOL0     C53769   6.242   3.515  10.385 -0.1205 -0.3990  0.4046
  399MOL0     C53770   6.136   3.622  10.392  0.5147 -0.2832 -0.2812
  399MOL0     C53771   6.062   3.638  10.521  0.1509 -0.1156 -0.1531
  399MOL0     C53772   5.981   3.770  10.517 -0.6460 -0.8544 -0.1679
  399MOL0     C53773   5.962   3.808  10.670 -0.0950 -0.8098 -0.1094
  399MOL0     C53774   5.873   3.934  10.679  0.4197  0.4975 -0.0686
  399MOL0    Cl53775   5.775   3.916  10.822  0.2145 -0.3000  0.4971
  399MOL0     C53776   6.758   3.457  10.159 -0.5246 -0.0298 -0.1633
  399MOL0     C53777   6.873   3.394  10.116 -0.4024  0.7618 -0.3131
  399MOL0     O53778   6.954   2.976  10.133 -0.5179 -0.8948 -0.1469
  399MOL0     C53779   7.239   2.943  10.045  0.2433 -0.3291 -0.2180
  399MOL0     C53780   7.372   2.893  10.053  0.1353  0.2822  0.6627
  399MOL0     N53781   7.934   3.036  10.549 -0.7571  0.2198 -0.4263
  399MOL0     N53782   8.027   3.049  10.635 -0.1203  0.1340 -0.6979
  399MOL0     C53783   9.088   2.697  10.943  0.4837  0.4115  0.4330
  399MOL0     C53784   9.224   2.709  10.953 -0.8112 -0.0530 -0.6620
  399MOL0     C53785   9.631   2.885  10.831  0.0106  0.3860  0.6387
  399MOL0     C53786   9.722   2.888  10.719  0.4078  0.5142 -0.1786
  399MOL0     C53787   9.850   2.928  10.742 -1.0489  0.5976  0.2523
  399MOL0     C53788   9.897   2.967  10.863  0.7537  0.4162 -0.4284
  399MOL0     O53789  10.024   3.006  10.901 -0.4246 -0.6257 -0.5658
  399MOL0     C53790  10.128   2.992  10.811 -0.2768 -0.5405  0.4100
  399MOL0     C53791  10.260   3.023  10.865  0.0178  0.3104  0.8634
  399MOL0     C53792  10.270   3.148  10.951 -0.5449  0.6516 -0.4264
  399MOL0     C53793  10.422   3.193  10.957  0.6850  0.1406  0.2554
  399MOL0     C53794  10.519   3.088  11.000 -0.3062 -0.1798  0.0274
  399MOL0     C53795  10.600   3.002  11.031 -0.1256  0.6737  0.1980
  399MOL0     C53796   9.814   2.974  10.974 -0.1873 -0.4143  0.2082
  399MOL0     C53797   9.683   2.938  10.952 -0.4689 -0.1961  0.5035
  399MOL0     H53798   9.255   3.016  10.840  1.1780 -1.6528 -1.0665
  399MOL0     H53799   9.006   2.991  10.818  0.8079 -0.3930 -1.9205
  399MOL0     H53800   8.829   2.588  10.833  2.2515  0.2658  0.0552
  399MOL0     H53801   8.843   2.629  11.004 -0.7023 -1.9131 -0.3930
  399MOL0     H53802   8.611   2.723  10.811  2.1463 -0.0166 -1.6462
  399MOL0     H53803   8.600   2.580  10.922  2.3451 -1.8479 -0.1095
  399MOL0     H53804   8.671   2.776  11.105 -0.0475 -2.4574  0.7231
  399MOL0     H53805   8.606   2.881  10.976 -3.0402 -1.7165 -3.2873
  399MOL0     H53806   8.464   2.654  11.104 -0.1014 -0.7951 -2.2939
  399MOL0     H53807   8.441   2.822  11.146 -0.9314 -0.3504 -0.8204
  399MOL0     H53808   8.387   2.848  10.889 -0.7159 -0.5149 -2.2507
  399MOL0     H53809   8.389   2.685  10.870  0.8612  0.9055 -0.6863
  399MOL0     H53810   8.196   2.659  11.041 -2.6424 -0.4773 -0.0421
  399MOL0     H53811   8.190   2.832  11.060  0.5604 -0.2323  0.5508
  399MOL0     H53812   8.111   2.678  10.840  2.6493  0.0161  0.3229
  399MOL0     H53813   8.016   2.797  10.932  0.0958  0.4224 -1.0298
  399MOL0     H53814   8.241   2.879  10.746 -1.0010  0.9342  0.1295
  399MOL0     H53815   8.169   2.980  10.871  1.2028  0.0674  1.4400
  399MOL0     H53816   7.932   2.734  10.684  2.0780 -0.6952 -1.0448
  399MOL0     H53817   7.724   2.776  10.556  0.5784  0.1399  0.0653
  399MOL0     H53818   7.704   2.925  10.465  0.0627  0.3485  1.3843
  399MOL0     H53819   7.903   2.724  10.397  0.2071  1.3901  1.3802
  399MOL0     H53820   7.873   2.865  10.301 -0.4929 -0.2935 -0.0047
  399MOL0     H53821   7.723   2.606  10.321 -0.0459  0.2033  0.3040
  399MOL0     H53822   7.761   2.680  10.173 -4.0238 -0.9556 -1.8629
  399MOL0     H53823   7.555   2.802  10.354  2.0953  2.3793  0.3765
  399MOL0     H53824   7.520   2.686  10.225  2.2097 -0.8456 -2.1611
  399MOL0     H53825   7.463   3.050  10.342  0.1421 -1.6110  0.2035
  399MOL0     H53826   7.311   3.197  10.415 -0.5928 -1.5101  0.5327
  399MOL0     H53827   7.214   3.285  10.304 -0.3156  0.1072  1.7630
  399MOL0     H53828   7.136   3.161  10.399 -1.0940  0.7908  0.6239
  399MOL0     H53829   6.809   3.098  10.286  0.3648  3.0769  5.1546
  399MOL0     H53830   6.609   3.206  10.333  1.2146 -1.9785 -1.0079
  399MOL0     H53831   6.385   3.358  10.133 -0.7291 -0.6288  0.0199
  399MOL0     H53832   6.396   3.306  10.303 -0.5526  0.1158  0.7145
  399MOL0     H53833   6.331   3.600  10.207 -1.7340  1.5791  1.6039
  399MOL0     H53834   6.212   3.464  10.180  0.3365 -0.8815  0.5709
  399MOL0     H53835   6.325   3.549  10.447  0.1618 -2.2420  1.0794
  399MOL0     H53836   6.215   3.413  10.412  1.5681 -0.9000  0.2950
  399MOL0     H53837   6.189   3.716  10.377  0.0465 -0.1926 -1.4862
  399MOL0     H53838   6.063   3.605  10.312  0.1865 -0.1694 -0.0096
  399MOL0     H53839   6.138   3.640  10.600  0.1901  0.1181 -0.1958
  399MOL0     H53840   5.999   3.552  10.547 -1.3578  0.9386 -0.1716
  399MOL0     H53841   6.036   3.841  10.455 -2.8018 -0.8332 -2.1860
  399MOL0     H53842   5.889   3.744  10.464  1.1192 -3.4193 -2.2138
  399MOL0     H53843   6.063   3.823  10.711  0.7327  2.1741 -2.8396
  399MOL0     H53844   5.925   3.723  10.729  0.4197 -0.6912  0.3909
  399MOL0     H53845   5.804   3.955  10.597  0.2372  0.3945  0.0562
  399MOL0     H53846   5.931   4.027  10.678  0.1458  0.6818  0.5381
  399MOL0     H53847   6.736   3.554  10.116  2.2251  1.4575  1.4998
  399MOL0     H53848   6.954   3.456  10.079 -1.5488  0.6561 -3.2823
  399MOL0     H53849   7.178   2.909   9.962 -1.3013 -3.3770  1.9865
  399MOL0     H53850   7.414   2.819   9.985  4.5837  0.8781  2.4254
  399MOL0     H53851   9.051   2.600  10.976  2.9354 -0.0841  2.0022
  399MOL0     H53852   9.276   2.625  10.999  1.8145  1.8641  0.1432
  399MOL0     H53853   9.695   2.866  10.616  0.4262  1.6648 -0.4509
  399MOL0     H53854   9.914   2.929  10.654 -0.2758 -1.1586  0.7590
  399MOL0     H53855  10.124   2.899  10.755 -1.0311  0.6876 -1.7128
  399MOL0     H53856  10.096   3.069  10.740 -0.3481  1.0274  2.0410
  399MOL0     H53857  10.333   3.028  10.784 -1.0968  0.1135 -0.1896
  399MOL0     H53858  10.284   2.933  10.923  0.7204 -0.0150  0.0800
  399MOL0     H53859  10.239   3.134  11.055 -0.7550  0.5952 -0.4960
  399MOL0     H53860  10.205   3.223  10.905  0.1138  0.4222 -1.7855
  399MOL0     H53861  10.427   3.275  11.029 -1.8601 -0.1674  0.8845
  399MOL0     H53862  10.460   3.231  10.862  1.6171 -0.7571  0.2491
  399MOL0     H53863  10.683   2.936  11.046  0.2539  0.6582 -1.7259
  399MOL0     H53864   9.835   3.006  11.075 -3.3155  0.2458  0.7455
  399MOL0     H53865   9.617   2.936  11.038 -0.7210 -2.9141  0.3399
  400MOL0     O53866   8.925   3.506   4.084 -0.1018  0.0620  0.2806
  400MOL0     C53867   8.970   3.625   4.084 -0.3010  0.0261  0.5692
  400MOL0     O53868   8.938   3.721   3.992 -0.6825  0.9251 -0.2986
  400MOL0     C53869   8.885   3.684   3.872  0.0271 -0.0852  0.4246
  400MOL0     C53870   8.796   3.780   3.817 -0.2146 -0.1769 -0.2529
  400MOL0     C53871   8.720   3.749   3.707  0.1048  0.1073 -0.3249
  400MOL0     C53872   8.748   3.631   3.636 -0.3298 -0.6313 -0.2592
  400MOL0     O53873   8.663   3.620   3.531 -0.0749  0.8618  0.5587
  400MOL0     C53874   8.636   3.499   3.457  0.5410 -0.3108 -0.7326
  400MOL0     C53875   8.573   3.546   3.321 -0.3855 -0.1826 -0.4918
  400MOL0     C53876   8.547   3.426   3.237 -0.2304 -0.3939 -0.6896
  400MOL0     C53877   8.533   3.460   3.089  0.1556  0.2188 -0.6794
  400MOL0     C53878   8.487   3.334   3.022  0.1148  0.0045  0.4718
  400MOL0     C53879   8.461   3.356   2.877 -0.3787 -0.3722  0.6645
  400MOL0     C53880   8.420   3.237   2.790 -0.3309 -0.0697  0.4576
  400MOL0     C53881   8.441   3.257   2.644 -0.7275  0.3632 -0.4586
  400MOL0     N53882   8.351   3.178   2.566  0.6187  0.3571 -0.1820
  400MOL0     C53883   8.220   3.214   2.542 -0.4483 -0.1905 -0.2419
  400MOL0     C53884   8.172   3.116   2.461 -0.0994 -0.3135  0.3854
  400MOL0     C53885   8.034   3.086   2.419 -0.9119 -0.0620 -0.1785
  400MOL0     C53886   7.951   3.035   2.533  0.2619  0.4993  0.0305
  400MOL0     C53887   7.808   3.087   2.512  0.0227  0.0381 -0.2404
  400MOL0     C53888   7.714   3.014   2.605  0.8304  0.3293 -0.2069
  400MOL0     O53889   7.595   2.959   2.536 -0.1043 -0.1765 -0.2953
  400MOL0     C53890   7.495   2.900   2.600  0.2358 -0.2403  0.8011
  400MOL0     C53891   7.500   2.842   2.726  0.7896 -0.3627 -0.0771
  400MOL0     C53892   7.390   2.763   2.778 -0.6212  0.1229 -1.1581
  400MOL0     C53893   7.425   2.687   2.904 -0.3560 -0.1170 -0.7328
  400MOL0     C53894   7.269   2.765   2.703 -0.5795 -0.1726  0.4142
  400MOL0     C53895   7.147   2.691   2.741  0.2080  0.5822  1.0612
  400MOL0     O53896   7.029   2.746   2.700 -0.7764  0.0299 -0.9155
  400MOL0     C53897   6.917   2.675   2.715 -0.4517  0.1822  0.7382
  400MOL0     C53898   6.837   2.706   2.825  0.1431  0.4553  0.2047
  400MOL0     C53899   6.711   2.642   2.834 -0.2442 -0.3268  0.0455
  400MOL0     C53900   6.660   2.559   2.729 -0.3131 -0.3001 -0.4612
  400MOL0     O53901   6.530   2.523   2.738  0.7380 -0.0891 -0.4274
  400MOL0     C53902   6.447   2.490   2.621  0.3020  0.6261  0.3288
  400MOL0     C53903   6.321   2.409   2.653 -1.2863 -0.5743  1.1914
  400MOL0     C53904   6.218   2.488   2.735  0.8408 -0.7123  0.0023
  400MOL0     C53905   6.075   2.432   2.719  0.2025  0.4682 -0.0536
  400MOL0     C53906   5.980   2.501   2.827  0.4846 -0.8054  0.4083
  400MOL0     C53907   5.829   2.488   2.802  1.1860 -0.4889  0.4078
  400MOL0     C53908   5.746   2.618   2.843  0.4070 -0.4744  0.3071
  400MOL0     C53909   5.765   2.668   2.981 -0.1970  0.3845 -0.5693
  400MOL0    Cl53910   5.722   2.551   3.111  0.3408  0.0575 -0.0692
  400MOL0     C53911   6.740   2.533   2.618  0.4747 -0.0511 -0.3263
  400MOL0     C53912   6.868   2.588   2.608  0.1032 -0.8371 -0.5583
  400MOL0     O53913   7.162   2.577   2.782  0.6292  0.7572  0.1554
  400MOL0     C53914   7.260   2.845   2.583 -0.1680  0.2225 -0.6437
  400MOL0     C53915   7.379   2.899   2.527 -0.1447 -0.2679 -0.6869
  400MOL0     N53916   8.275   3.028   2.440  0.1459  0.7411  0.2911
  400MOL0     N53917   8.380   3.066   2.500 -0.3108 -0.4777 -0.6518
  400MOL0     C53918   8.847   3.542   3.682  0.2822  0.1317  0.6474
  400MOL0     C53919   8.909   3.564   3.800 -1.3099 -0.8086  0.4329
  400MOL0     C53920   9.061   3.671   4.194  0.2297 -0.1251 -0.8752
  400MOL0     C53921   9.118   3.796   4.195  0.8729  0.0820  0.4649
  400MOL0     C53922   9.203   3.833   4.307 -0.4097  0.0255 -0.3737
  400MOL0     C53923   9.232   3.742   4.410  1.1561  0.6209  0.3133
  400MOL0     O53924   9.302   3.788   4.515 -0.5238  0.2313 -0.5178
  400MOL0     C53925   9.356   3.688   4.605 -0.5780  0.0009 -1.3211
  400MOL0     C53926   9.446   3.756   4.708 -0.3447 -0.2072 -0.0747
  400MOL0     C53927   9.558   3.842   4.644 -0.2921 -0.2554 -0.6684
  400MOL0     C53928   9.670   3.758   4.583  0.0599 -0.3293 -0.3207
  400MOL0     C53929   9.720   3.651   4.670  0.0025 -0.1322  0.1469
  400MOL0     C53930   9.765   3.557   4.725 -0.6975  1.5700  0.8485
  400MOL0     C53931   9.167   3.622   4.408  0.5009  0.4789 -0.5476
  400MOL0     C53932   9.086   3.592   4.300 -0.2517  0.9540 -0.5960
  400MOL0     H53933   8.796   3.876   3.869  2.0277 -0.4269  0.3348
  400MOL0     H53934   8.647   3.822   3.673 -0.3271  0.0533  0.4552
  400MOL0     H53935   8.733   3.457   3.427  0.8338  0.6792 -1.2347
  400MOL0     H53936   8.579   3.418   3.502  3.6209 -1.7862  0.8635
  400MOL0     H53937   8.489   3.616   3.329  1.4419  1.8837  1.9580
  400MOL0     H53938   8.645   3.608   3.267 -0.7165  0.9733  0.3515
  400MOL0     H53939   8.628   3.354   3.251  1.4022  1.3213 -0.9197
  400MOL0     H53940   8.457   3.378   3.276  0.8091 -2.4315 -0.6994
  400MOL0     H53941   8.459   3.540   3.075  2.2107  1.8672 -3.0760
  400MOL0     H53942   8.629   3.493   3.048  0.3898 -0.7127 -0.9037
  400MOL0     H53943   8.571   3.268   3.044  0.2687 -0.1209 -0.4747
  400MOL0     H53944   8.396   3.299   3.073  3.3316 -1.8682  5.8147
  400MOL0     H53945   8.378   3.427   2.876 -1.2356 -1.3032  1.9249
  400MOL0     H53946   8.552   3.403   2.837 -1.6180  1.6022  0.0258
  400MOL0     H53947   8.480   3.149   2.814  0.0411 -0.6074 -2.2175
  400MOL0     H53948   8.313   3.219   2.802  0.0654 -1.6532  2.0119
  400MOL0     H53949   8.548   3.241   2.628 -0.8594 -0.0659 -0.9288
  400MOL0     H53950   8.423   3.362   2.618  2.6138  0.6884 -1.8743
  400MOL0     H53951   8.166   3.300   2.580 -0.9173 -0.2273 -0.8116
  400MOL0     H53952   7.986   3.170   2.368 -0.2266  1.1169  1.0538
  400MOL0     H53953   8.043   3.007   2.344  0.6914 -0.9820  0.9334
  400MOL0     H53954   7.985   3.074   2.630  1.0308  1.6135 -0.6736
  400MOL0     H53955   7.955   2.926   2.547 -0.2136 -0.0114 -3.0328
  400MOL0     H53956   7.773   3.069   2.410 -1.5351  1.9306 -0.0835
  400MOL0     H53957   7.801   3.194   2.534 -0.6817 -0.2324  0.9443
  400MOL0     H53958   7.684   3.089   2.678  0.8566  0.5372 -0.4070
  400MOL0     H53959   7.772   2.932   2.649  1.4507 -0.0386 -1.6448
  400MOL0     H53960   7.590   2.839   2.786  0.8917 -1.1766 -0.2532
  400MOL0     H53961   7.354   2.607   2.928 -1.3459  0.6856 -0.8802
  400MOL0     H53962   7.523   2.642   2.892 -1.0202 -1.3498 -1.7434
  400MOL0     H53963   7.429   2.756   2.989  0.4081  0.2027 -1.0213
  400MOL0     H53964   6.870   2.770   2.906  0.6258  0.5982 -0.0972
  400MOL0     H53965   6.647   2.667   2.918 -2.4935  0.9486 -1.9053
  400MOL0     H53966   6.413   2.583   2.574 -3.3830 -0.8221 -0.2458
  400MOL0     H53967   6.504   2.425   2.554  0.7179 -0.9923  2.1531
  400MOL0     H53968   6.279   2.377   2.557 -0.4778 -4.1116  1.8785
  400MOL0     H53969   6.340   2.315   2.707 -3.6305 -1.7532  0.1217
  400MOL0     H53970   6.203   2.594   2.711 -1.0550 -1.2602 -1.4949
  400MOL0     H53971   6.239   2.481   2.842 -1.4096 -2.5387  0.3996
  400MOL0     H53972   6.047   2.446   2.614 -0.8187 -2.3894 -0.2381
  400MOL0     H53973   6.068   2.324   2.735 -1.1128  0.8326  2.3590
  400MOL0     H53974   6.018   2.604   2.831 -0.6179 -0.4033  3.4672
  400MOL0     H53975   6.010   2.470   2.928 -0.2761  2.0557  1.6257
  400MOL0     H53976   5.814   2.484   2.693 -0.8151  1.2725  0.5447
  400MOL0     H53977   5.792   2.396   2.847  1.2913 -0.9350 -0.3953
  400MOL0     H53978   5.639   2.606   2.827  0.5592  1.8667 -4.0828
  400MOL0     H53979   5.782   2.690   2.768 -1.2889  0.6057  0.4795
  400MOL0     H53980   5.708   2.760   2.995  0.0165  0.6830 -1.6109
  400MOL0     H53981   5.870   2.698   2.994  0.2947 -1.5401  0.2792
  400MOL0     H53982   6.714   2.472   2.531 -1.1677 -0.6969  0.5734
  400MOL0     H53983   6.931   2.567   2.523  0.5479 -2.2673  0.0873
  400MOL0     H53984   7.169   2.841   2.525  0.8950 -4.8852 -2.4862
  400MOL0     H53985   7.373   2.949   2.431 -1.1332 -0.6927 -0.8564
  400MOL0     H53986   8.885   3.457   3.627  1.5185 -0.2667  2.0644
  400MOL0     H53987   8.983   3.492   3.835  0.8013  1.5666  1.2176
  400MOL0     H53988   9.092   3.871   4.121 -0.3122 -2.0906 -1.4314
  400MOL0     H53989   9.239   3.935   4.313 -3.2886  1.1635 -1.0546
  400MOL0     H53990   9.279   3.627   4.653  1.1812 -0.7038  0.7511
  400MOL0     H53991   9.419   3.621   4.546  2.2750 -0.3200  1.7887
  400MOL0     H53992   9.496   3.688   4.777  3.0962 -1.1445 -3.1488
  400MOL0     H53993   9.380   3.817   4.770 -1.9218 -2.1336  0.2392
  400MOL0     H53994   9.595   3.908   4.724 -1.6511  0.5198 -0.6446
  400MOL0     H53995   9.515   3.912   4.571  0.0206 -0.7835 -1.3637
  400MOL0     H53996   9.762   3.810   4.552  0.5876 -2.9640 -3.9067
  400MOL0     H53997   9.616   3.710   4.500  0.6394 -0.4658 -0.6272
  400MOL0     H53998   9.809   3.481   4.787 -1.3440  0.2267 -0.2815
  400MOL0     H53999   9.180   3.541   4.479  0.3546  1.9865  1.2710
  400MOL0     H54000   9.049   3.491   4.294  0.4838  0.6545 -0.1289
  401MOL0     O54001   4.648   6.259  10.933  0.3772  0.0462  0.3571
  401MOL0     C54002   4.732   6.197  10.999  0.7633 -0.8637 -0.1805
  401MOL0     O54003   4.733   6.059  11.017  0.3915  0.4518  0.2792
  401MOL0     C54004   4.633   5.998  10.952  0.0823  0.2691 -0.4545
  401MOL0     C54005   4.648   5.941  10.832  0.1254  0.1874 -0.0897
  401MOL0     C54006   4.542   5.875  10.768 -0.3566 -0.7199 -0.2215
  401MOL0     C54007   4.427   5.839  10.838  0.5714 -0.0346  1.2044
  401MOL0     O54008   4.340   5.751  10.774  0.7244 -0.4229  0.3980
  401MOL0     C54009   4.203   5.770  10.805  0.2562 -0.3770  0.4087
  401MOL0     C54010   4.153   5.655  10.898  0.5607  0.1507 -0.1043
  401MOL0     C54011   4.019   5.676  10.966  0.8979 -0.3970 -0.0738
  401MOL0     C54012   3.987   5.553  11.054  0.5364 -0.5530 -0.1296
  401MOL0     C54013   3.837   5.535  11.090  1.0837 -1.0846  0.0670
  401MOL0     C54014   3.779   5.632  11.190 -0.2925 -0.1915  0.6611
  401MOL0     C54015   3.866   5.672  11.314 -0.3576 -0.0083  0.4019
  401MOL0     C54016   3.798   5.748  11.419  0.3016 -0.1333 -0.4662
  401MOL0     N54017   3.733   5.645  11.507 -0.2330  0.2956 -0.4020
  401MOL0     C54018   3.604   5.593  11.499 -0.4221 -0.3350 -0.0025
  401MOL0     C54019   3.603   5.485  11.584  0.6281  0.3047  0.0029
  401MOL0     C54020   3.485   5.389  11.581  0.6274 -0.5564  0.1494
  401MOL0     C54021   3.484   5.268  11.481  0.2736  0.3599  0.2319
  401MOL0     C54022   3.602   5.176  11.483 -0.4842 -0.1056  0.3368
  401MOL0     C54023   3.634   5.124  11.622  0.6797  0.3411  0.3537
  401MOL0     O54024   3.509   5.067  11.691 -0.5529 -1.4274 -0.0339
  401MOL0     C54025   3.430   4.969  11.638  0.2147 -1.3462 -0.6021
  401MOL0     C54026   3.465   4.890  11.525 -0.4165 -0.3290  0.0736
  401MOL0     C54027   3.382   4.803  11.465 -0.0240 -0.5330 -0.3068
  401MOL0     C54028   3.435   4.725  11.349 -0.1083  0.8035 -0.3307
  401MOL0     C54029   3.252   4.795  11.512 -0.4500 -0.5608 -0.2220
  401MOL0     C54030   3.141   4.717  11.446 -0.1215  0.5914 -0.2743
  401MOL0     O54031   3.019   4.734  11.495 -0.5531  1.0847 -0.4689
  401MOL0     C54032   2.918   4.648  11.462  0.7553 -1.0026 -0.2281
  401MOL0     C54033   2.796   4.708  11.507 -0.8162 -0.3562  0.1601
  401MOL0     C54034   2.675   4.637  11.490 -0.7731  0.5609 -0.2156
  401MOL0     C54035   2.677   4.504  11.439 -0.5655 -0.2909 -0.5801
  401MOL0     O54036   2.566   4.429  11.403 -0.5146 -0.0657 -0.3344
  401MOL0     C54037   2.433   4.464  11.446  0.0096 -0.4015 -0.1604
  401MOL0     C54038   2.335   4.357  11.417 -0.5660  0.5124  0.6005
  401MOL0     C54039   2.200   4.409  11.473  0.0551 -0.4352  0.1511
  401MOL0     C54040   2.095   4.290  11.485  0.0076 -0.3722 -0.1825
  401MOL0     C54041   2.013   4.263  11.352  0.2967 -0.0263  0.3656
  401MOL0     C54042   1.884   4.345  11.342 -0.3030  0.5547  0.1035
  401MOL0     C54043   1.803   4.301  11.220 -0.6053 -1.2237 -0.1574
  401MOL0     C54044   1.674   4.377  11.211  0.6392  0.1411  0.9541
  401MOL0    Cl54045   1.705   4.549  11.170  0.5283 -0.0924 -0.5912
  401MOL0     C54046   2.796   4.443  11.411 -0.5361  0.0808 -0.4421
  401MOL0     C54047   2.916   4.517  11.421 -0.9561  0.1271 -0.6399
  401MOL0     O54048   3.169   4.645  11.353 -0.5278  1.0668  0.0878
  401MOL0     C54049   3.219   4.862  11.631  0.0146  0.1275 -0.3033
  401MOL0     C54050   3.309   4.953  11.691 -0.3714  0.1551  1.3562
  401MOL0     N54051   3.725   5.475  11.653  0.1777 -0.0551  0.2328
  401MOL0     N54052   3.793   5.580  11.609 -0.1318 -0.5465 -0.5710
  401MOL0     C54053   4.416   5.889  10.968  0.0674 -0.7851  0.2656
  401MOL0     C54054   4.516   5.974  11.021 -0.5134  0.3026 -0.1417
  401MOL0     C54055   4.831   6.285  11.069  0.4846  0.5726  0.0432
  401MOL0     C54056   4.814   6.424  11.071  0.4714 -0.6135  0.2717
  401MOL0     C54057   4.904   6.505  11.139 -0.3878  0.2681 -0.1890
  401MOL0     C54058   5.005   6.443  11.215 -0.3851 -0.0820 -0.2459
  401MOL0     O54059   5.089   6.513  11.316 -0.1565 -0.0435  0.0458
  401MOL0     C54060   5.112   6.653  11.284  0.0596  0.1895  0.4997
  401MOL0     C54061   5.210   6.718  11.378 -0.1099 -0.6105 -0.0317
  401MOL0     C54062   5.208   6.871  11.358  0.1132 -0.0435  0.2466
  401MOL0     C54063   5.296   6.940  11.469  0.5645 -0.1807  0.0771
  401MOL0     C54064   5.326   7.085  11.449  0.1320 -0.1211  0.0076
  401MOL0     C54065   5.372   7.200  11.429  0.7235  0.9112  0.2693
  401MOL0     C54066   5.025   6.305  11.212  0.0210  0.2527  0.8534
  401MOL0     C54067   4.939   6.229  11.131  0.0736  0.8269 -0.5957
  401MOL0     H54068   4.734   5.976  10.775  0.1610  2.4157  1.1915
  401MOL0     H54069   4.562   5.844  10.666  1.5829  3.1605 -1.2025
  401MOL0     H54070   4.175   5.870  10.840  0.5263 -0.0155 -0.3871
  401MOL0     H54071   4.140   5.755  10.717 -0.4461  0.6209  0.7206
  401MOL0     H54072   4.148   5.563  10.839 -2.4672 -1.0216  1.7706
  401MOL0     H54073   4.224   5.636  10.978  1.4301 -0.4524 -0.9914
  401MOL0     H54074   4.015   5.766  11.028 -0.3992 -0.8299  0.4984
  401MOL0     H54075   3.931   5.690  10.902  0.0802  0.2530  1.1494
  401MOL0     H54076   4.007   5.465  10.992  0.0467 -0.2066 -0.7974
  401MOL0     H54077   4.050   5.546  11.143  0.6611  1.8620  0.0324
  401MOL0     H54078   3.773   5.544  11.002 -1.0004 -0.6149  1.5445
  401MOL0     H54079   3.832   5.434  11.132  0.8867 -1.3970 -0.6969
  401MOL0     H54080   3.738   5.715  11.132  1.1295 -0.1755 -0.3616
  401MOL0     H54081   3.691   5.583  11.233 -0.9661  2.1997  2.1620
  401MOL0     H54082   3.915   5.582  11.354  1.8231  0.2504 -1.4816
  401MOL0     H54083   3.935   5.747  11.277 -1.5736  1.2507  0.6094
  401MOL0     H54084   3.720   5.808  11.369  1.5053 -0.3208 -2.6761
  401MOL0     H54085   3.870   5.801  11.482  1.7479 -2.4926 -0.0206
  401MOL0     H54086   3.521   5.622  11.436 -1.6037  2.6530  2.6645
  401MOL0     H54087   3.494   5.349  11.683  1.5368  0.1052  0.3434
  401MOL0     H54088   3.391   5.445  11.573  1.4202  1.1258  1.7809
  401MOL0     H54089   3.501   5.325  11.388  0.9880  2.1751  1.4106
  401MOL0     H54090   3.389   5.215  11.485  1.0459 -1.0217  0.7043
  401MOL0     H54091   3.691   5.224  11.442 -1.5888  1.0218 -0.8307
  401MOL0     H54092   3.588   5.091  11.416  2.1347 -0.0830 -0.3460
  401MOL0     H54093   3.673   5.212  11.675  3.3142  0.6363 -1.8415
  401MOL0     H54094   3.717   5.053  11.631  1.8936  1.3906 -1.7326
  401MOL0     H54095   3.566   4.903  11.488 -0.1517 -1.5766  0.2911
  401MOL0     H54096   3.541   4.751  11.337  0.0564  0.7108  0.7813
  401MOL0     H54097   3.436   4.620  11.377 -1.0484  0.7641 -0.4061
  401MOL0     H54098   3.379   4.743  11.257 -1.8546  0.1340  0.5476
  401MOL0     H54099   2.785   4.814  11.528  0.0365 -0.0675 -0.7730
  401MOL0     H54100   2.579   4.683  11.513 -0.7906  1.0761 -1.2518
  401MOL0     H54101   2.423   4.476  11.554 -1.7387  0.2016 -0.3593
  401MOL0     H54102   2.394   4.550  11.390  1.6987  1.2776  1.1002
  401MOL0     H54103   2.325   4.348  11.308  0.4583  1.1868  0.4455
  401MOL0     H54104   2.362   4.265  11.470  0.2990  1.6735  2.2737
  401MOL0     H54105   2.164   4.498  11.421 -0.0932 -0.8418 -0.4447
  401MOL0     H54106   2.214   4.453  11.573  0.1628 -1.0975  0.4327
  401MOL0     H54107   2.156   4.204  11.513  2.7704  1.4143 -0.3060
  401MOL0     H54108   2.026   4.321  11.564  1.1602 -3.0110  2.0174
  401MOL0     H54109   1.981   4.158  11.355  2.5405 -0.7507  1.3337
  401MOL0     H54110   2.078   4.282  11.266 -1.7703  1.4731 -0.9238
  401MOL0     H54111   1.828   4.333  11.435 -1.2203  1.3040 -0.3449
  401MOL0     H54112   1.909   4.451  11.328  0.6567  0.0804 -2.4436
  401MOL0     H54113   1.774   4.195  11.223 -1.0415 -1.1802 -1.6234
  401MOL0     H54114   1.868   4.323  11.135  0.7859  2.1036  1.5839
  401MOL0     H54115   1.610   4.371  11.300  1.4023  0.9673  1.5799
  401MOL0     H54116   1.618   4.334  11.128  1.0334 -0.9428  1.2371
  401MOL0     H54117   2.792   4.341  11.375 -5.1587 -0.9873  2.3222
  401MOL0     H54118   3.009   4.470  11.391 -1.3332 -0.5459 -0.7678
  401MOL0     H54119   3.123   4.845  11.678 -0.2331 -0.8994 -1.1377
  401MOL0     H54120   3.272   5.008  11.776 -0.4831  2.7148 -0.2324
  401MOL0     H54121   4.320   5.880  11.018 -0.2750 -0.2004 -0.2686
  401MOL0     H54122   4.508   6.022  11.118 -3.7712  1.1470 -0.6953
  401MOL0     H54123   4.738   6.478  11.015  0.1510 -0.6664  0.6551
  401MOL0     H54124   4.890   6.613  11.139 -3.7882 -0.0647 -1.3743
  401MOL0     H54125   5.139   6.672  11.180  4.2237  0.2532  1.4537
  401MOL0     H54126   5.016   6.703  11.304 -0.7745 -1.6717  1.3800
  401MOL0     H54127   5.310   6.681  11.354 -0.8277 -3.1122  0.5927
  401MOL0     H54128   5.184   6.688  11.480  1.2390 -4.2033 -0.6133
  401MOL0     H54129   5.106   6.909  11.366  0.4669  0.8427  0.6708
  401MOL0     H54130   5.248   6.897  11.260 -0.6129 -1.2975 -0.4113
  401MOL0     H54131   5.393   6.891  11.462 -0.8272 -2.9702 -1.2416
  401MOL0     H54132   5.236   6.940  11.561  0.1750 -0.6521 -0.1702
  401MOL0     H54133   5.408   7.299  11.411  0.2088  0.7757 -1.7087
  401MOL0     H54134   5.116   6.274  11.261  1.1204  1.5827 -0.2658
  401MOL0     H54135   4.948   6.122  11.141 -3.2715  0.6548  2.8186
  402MOL0     O54136   3.561   5.855   8.844  0.7004 -0.6462 -0.0506
  402MOL0     C54137   3.585   5.741   8.826  0.4133  0.7109  0.2559
  402MOL0     O54138   3.487   5.641   8.824  0.2161 -0.0386 -0.3147
  402MOL0     C54139   3.355   5.681   8.816  0.0907 -0.3997  0.5093
  402MOL0     C54140   3.265   5.642   8.918  0.5598 -0.3011  0.3558
  402MOL0     C54141   3.131   5.658   8.908  0.2474  0.5764  0.6404
  402MOL0     C54142   3.069   5.712   8.796  0.3647 -0.1459  0.3719
  402MOL0     O54143   2.934   5.715   8.778 -0.4740 -0.4198  0.0335
  402MOL0     C54144   2.855   5.762   8.898 -0.2671 -0.0740  0.0824
  402MOL0     C54145   2.709   5.798   8.861 -0.5085 -0.1635 -0.0354
  402MOL0     C54146   2.604   5.681   8.892 -0.1552  0.8495 -0.0417
  402MOL0     C54147   2.457   5.746   8.893 -0.4249  0.0335  0.1346
  402MOL0     C54148   2.351   5.641   8.924  0.2297  0.1394  0.2938
  402MOL0     C54149   2.214   5.700   8.951  0.1032  0.6906  0.2517
  402MOL0     C54150   2.113   5.574   8.966 -0.5561 -0.0594  0.1617
  402MOL0     C54151   1.981   5.627   9.018  0.0460  0.4198 -0.0156
  402MOL0     N54152   1.896   5.514   9.049 -0.1163  0.4290 -0.7740
  402MOL0     C54153   1.828   5.488   9.164 -0.3767  0.4702  0.6888
  402MOL0     C54154   1.732   5.392   9.118 -0.8522  0.0004 -1.0583
  402MOL0     C54155   1.645   5.323   9.215  0.1543  0.3483 -0.4127
  402MOL0     C54156   1.535   5.412   9.268  0.8866 -0.0791  0.2223
  402MOL0     C54157   1.444   5.329   9.368  0.6775 -0.7512  1.0123
  402MOL0     C54158   1.306   5.395   9.376  0.2198 -0.4772  0.0329
  402MOL0     O54159   1.219   5.318   9.459 -0.4263 -0.3453  0.6385
  402MOL0     C54160   1.097   5.380   9.495 -0.3751 -0.4167 -0.3792
  402MOL0     C54161   1.020   5.302   9.586 -0.2013 -1.1196  0.0569
  402MOL0     C54162   0.893   5.348   9.632 -0.1311  0.2585 -0.0764
  402MOL0     C54163   0.820   5.253   9.716  0.0267  0.1841  0.0163
  402MOL0     C54164   0.850   5.477   9.590  0.0334 -0.2920  0.0719
  402MOL0     C54165   0.722   5.543   9.632  0.3600  0.2986  0.2102
  402MOL0     O54166   0.662   5.491   9.739 -0.0268  0.1298 -0.4166
  402MOL0     C54167   0.542   5.562   9.777 -1.0418  0.6785 -0.1515
  402MOL0     C54168   0.559   5.649   9.885 -0.0706 -0.2119 -0.9471
  402MOL0     C54169   0.449   5.721   9.929 -0.0623 -1.1154  0.1213
  402MOL0     C54170   0.318   5.689   9.888 -0.5588  0.1932  0.2796
  402MOL0     O54171   0.197   5.752   9.919 -0.9333  0.3166  0.3481
  402MOL0     C54172   0.212   5.855  10.012  0.2486 -0.3342 -0.1353
  402MOL0     C54173   0.075   5.923  10.038 -0.5157 -0.4886  0.4261
  402MOL0     C54174   0.013   5.999   9.919 -0.6615  1.0321  0.1551
  402MOL0     C54175   0.107   6.111   9.873 -0.0301 -0.9589  0.1351
  402MOL0     C54176   0.218   6.090   9.766  0.0235  0.5569 -0.0449
  402MOL0     C54177   0.332   6.193   9.774  0.4239 -0.5659  0.5688
  402MOL0     C54178   0.279   6.350   9.735 -1.0480  0.9427  0.2097
  402MOL0     C54179   0.233   6.383   9.585  0.0793  0.7712  0.0726
  402MOL0    Cl54180   0.381   6.364   9.485  0.2716  0.0794  0.4260
  402MOL0     C54181   0.299   5.586   9.797  0.4362 -0.4827 -0.3070
  402MOL0     C54182   0.406   5.522   9.735 -0.0897 -0.0392 -0.9129
  402MOL0     O54183   0.683   5.638   9.567  0.2023 -0.7108  0.0525
  402MOL0     C54184   0.929   5.553   9.501  0.1704  0.3389  0.3474
  402MOL0     C54185   1.043   5.498   9.443  0.6008  0.2888  0.3627
  402MOL0     N54186   1.748   5.373   8.990  0.4857  0.3538  0.1611
  402MOL0     N54187   1.846   5.446   8.943  0.1490  0.3289 -0.4568
  402MOL0     C54188   3.151   5.751   8.692  0.9016 -0.6115 -0.2873
  402MOL0     C54189   3.295   5.741   8.700 -0.4146 -0.1736  0.3425
  402MOL0     C54190   3.723   5.697   8.845 -0.4541  0.3785  0.6638
  402MOL0     C54191   3.825   5.781   8.886 -0.1441 -0.6100 -0.5233
  402MOL0     C54192   3.960   5.737   8.900 -0.1961  0.3140  0.2724
  402MOL0     C54193   3.993   5.597   8.893  0.2260 -1.1300 -0.7605
  402MOL0     O54194   4.123   5.557   8.892  0.1464  0.1024 -0.0795
  402MOL0     C54195   4.160   5.451   8.974 -0.2186  0.6116  0.2715
  402MOL0     C54196   4.160   5.465   9.127  0.2776  0.2470 -0.6290
  402MOL0     C54197   4.179   5.613   9.176  0.4684  0.4321 -0.5292
  402MOL0     C54198   4.211   5.628   9.320  0.6929  0.9468  0.0861
  402MOL0     C54199   4.344   5.579   9.355  0.3088  0.5684 -0.2002
  402MOL0     C54200   4.454   5.540   9.394 -0.1405  0.2071  0.9336
  402MOL0     C54201   3.885   5.512   8.863 -0.1109  0.4430  0.2901
  402MOL0     C54202   3.756   5.558   8.827 -0.2815 -0.4151 -0.4927
  402MOL0     H54203   3.295   5.596   9.011 -2.3714  0.6684  1.8986
  402MOL0     H54204   3.078   5.638   9.001 -1.5046  1.9376 -0.0064
  402MOL0     H54205   2.856   5.684   8.974  0.9002 -1.5123 -1.3453
  402MOL0     H54206   2.900   5.854   8.937 -0.1861  0.2301 -0.7070
  402MOL0     H54207   2.688   5.890   8.916  0.6613  1.8136 -2.7047
  402MOL0     H54208   2.687   5.823   8.757  2.6023  1.0770 -0.4974
  402MOL0     H54209   2.623   5.604   8.816 -1.7376  1.2354 -0.8866
  402MOL0     H54210   2.618   5.641   8.992  2.1376  3.3603  0.7605
  402MOL0     H54211   2.452   5.832   8.960  0.4859  2.9596 -3.2528
  402MOL0     H54212   2.439   5.789   8.794  1.4187  3.1987  1.0274
  402MOL0     H54213   2.347   5.588   8.829  0.6016 -1.4833  1.1487
  402MOL0     H54214   2.376   5.574   9.007  0.8654  0.0685  0.0463
  402MOL0     H54215   2.217   5.756   9.045 -1.3574 -0.7439  1.2075
  402MOL0     H54216   2.196   5.777   8.874  0.0843  0.4100 -0.0251
  402MOL0     H54217   2.119   5.519   8.872  3.0599  0.6221 -0.1725
  402MOL0     H54218   2.166   5.513   9.040  1.0660 -0.7504 -1.4887
  402MOL0     H54219   1.936   5.683   8.936 -2.1095  0.9790  1.4673
  402MOL0     H54220   1.996   5.689   9.107 -1.4225 -0.7890  1.1389
  402MOL0     H54221   1.833   5.529   9.264 -1.7843  2.1352  0.1246
  402MOL0     H54222   1.600   5.244   9.154  3.5208 -1.8464 -0.3330
  402MOL0     H54223   1.705   5.288   9.299 -2.8446 -0.6584  1.4860
  402MOL0     H54224   1.477   5.433   9.178  1.1810 -2.4847 -0.6046
  402MOL0     H54225   1.575   5.505   9.310  3.2913 -1.3707  0.9337
  402MOL0     H54226   1.490   5.323   9.467  0.4666  0.7925  1.2332
  402MOL0     H54227   1.429   5.229   9.327 -0.7430  0.0538 -0.5218
  402MOL0     H54228   1.255   5.414   9.281 -1.2598 -0.2401  0.8455
  402MOL0     H54229   1.319   5.493   9.422 -1.3488  0.5248 -1.5311
  402MOL0     H54230   1.060   5.204   9.610  0.3929 -0.4795  1.8522
  402MOL0     H54231   0.816   5.279   9.822  0.3829  0.2943  0.0047
  402MOL0     H54232   0.719   5.236   9.679 -0.8538  2.3668  1.2230
  402MOL0     H54233   0.865   5.154   9.702 -0.8500 -0.1811 -0.2386
  402MOL0     H54234   0.658   5.673   9.922 -1.2583  0.1669  2.2802
  402MOL0     H54235   0.463   5.803   9.999 -0.4561  0.7818 -1.8962
  402MOL0     H54236   0.249   5.808  10.103 -1.3076 -0.5693  0.3932
  402MOL0     H54237   0.289   5.920   9.968  0.5614 -2.2114 -2.6082
  402MOL0     H54238  -0.003   5.852  10.068 -0.4561 -0.8475 -0.2551
  402MOL0     H54239   0.096   5.994  10.118  2.3648  0.3593 -0.9592
  402MOL0     H54240  -0.089   6.038   9.935 -1.6015 -1.0678 -0.3781
  402MOL0     H54241   0.004   5.922   9.842  0.6222 -1.5254  2.4040
  402MOL0     H54242   0.050   6.197   9.838  1.5093 -0.9983 -2.7885
  402MOL0     H54243   0.152   6.144   9.967  0.0285 -0.1206 -0.1770
  402MOL0     H54244   0.174   6.092   9.666  0.2495 -1.5500 -0.2399
  402MOL0     H54245   0.269   5.995   9.785  0.2331  0.5626 -0.5825
  402MOL0     H54246   0.368   6.202   9.876  2.1277 -0.0635 -0.0447
  402MOL0     H54247   0.413   6.174   9.704 -3.7653 -2.1717 -4.5430
  402MOL0     H54248   0.360   6.422   9.751 -0.6574  0.9135 -1.4576
  402MOL0     H54249   0.199   6.382   9.803  0.0768  0.9200  1.6161
  402MOL0     H54250   0.189   6.482   9.571 -3.4685 -0.6439  0.1131
  402MOL0     H54251   0.169   6.301   9.552  0.4069  0.2330  0.7449
  402MOL0     H54252   0.198   5.552   9.776  0.6591 -2.2419  1.2007
  402MOL0     H54253   0.380   5.449   9.660 -2.8797 -1.4226  1.2245
  402MOL0     H54254   0.902   5.655   9.473 -0.2357 -0.1075 -0.9399
  402MOL0     H54255   1.106   5.550   9.372  1.1452 -1.7933 -0.7411
  402MOL0     H54256   3.115   5.784   8.595  1.0710 -1.4794 -0.6544
  402MOL0     H54257   3.350   5.758   8.608 -2.3255 -1.2170 -1.0722
  402MOL0     H54258   3.812   5.887   8.910  0.9636 -0.5985  0.1065
  402MOL0     H54259   4.053   5.792   8.917  0.4226 -0.2602 -1.1209
  402MOL0     H54260   4.101   5.364   8.944  0.5685 -0.1109  0.7749
  402MOL0     H54261   4.266   5.434   8.951 -1.3705 -2.9272 -3.6644
  402MOL0     H54262   4.248   5.404   9.150  0.1482  0.3650  0.1997
  402MOL0     H54263   4.067   5.427   9.171  1.2291 -0.4339  0.8923
  402MOL0     H54264   4.087   5.668   9.155 -0.1207 -0.3432 -0.0278
  402MOL0     H54265   4.260   5.649   9.112 -0.9669  1.0556 -2.0668
  402MOL0     H54266   4.135   5.575   9.377 -2.0778  4.8580  0.4271
  402MOL0     H54267   4.203   5.735   9.342 -2.1120  1.5247 -2.9392
  402MOL0     H54268   4.556   5.526   9.421 -0.5111 -2.9992  1.0131
  402MOL0     H54269   3.917   5.408   8.860  1.3827  0.8985 -0.6028
  402MOL0     H54270   3.676   5.492   8.795 -1.6153 -2.3111  5.5331
  403MOL0     O54271  10.865   0.407   8.633  0.5975  0.1801  0.6237
  403MOL0     C54272  10.901   0.411   8.749 -0.0102  0.3069 -0.4369
  403MOL0     O54273  10.826   0.364   8.855  0.6278  0.2086 -0.1096
  403MOL0     C54274  10.692   0.364   8.840 -0.1469 -0.2480  0.2772
  403MOL0     C54275  10.627   0.486   8.860 -0.7503  0.1528  0.8119
  403MOL0     C54276  10.489   0.486   8.848 -0.8851 -0.3225 -0.0389
  403MOL0     C54277  10.409   0.374   8.822 -0.7706  0.3012 -0.4385
  403MOL0     O54278  10.275   0.396   8.828 -0.1102  0.4903  0.5030
  403MOL0     C54279  10.176   0.296   8.787 -0.4416  0.2854  0.3665
  403MOL0     C54280  10.138   0.198   8.890  0.2119  0.1537 -0.2683
  403MOL0     C54281  10.053   0.069   8.857 -0.1589  0.3171  0.2661
  403MOL0     C54282  10.132  -0.037   8.774 -0.0145  0.3241 -0.5667
  403MOL0     C54283  10.053  -0.174   8.753  0.3881  0.3365 -0.2108
  403MOL0     C54284  10.139  -0.273   8.662 -0.2538 -0.2763 -0.3190
  403MOL0     C54285  10.062  -0.374   8.576  0.0979  0.9994  0.2009
  403MOL0     C54286   9.991  -0.312   8.456 -0.6237 -0.2140 -0.6209
  403MOL0     N54287   9.918  -0.415   8.379  0.3037 -0.1977 -0.2943
  403MOL0     C54288   9.975  -0.489   8.283 -0.0611 -0.3161  0.0115
  403MOL0     C54289   9.878  -0.568   8.237  0.5446 -0.6532  0.6323
  403MOL0     C54290   9.894  -0.685   8.132 -0.4844 -0.1347 -0.1094
  403MOL0     C54291   9.769  -0.687   8.041 -0.7774  0.3991 -0.4974
  403MOL0     C54292   9.777  -0.807   7.948  0.1130 -0.2653 -0.1264
  403MOL0     C54293   9.659  -0.799   7.849  0.3081 -0.5840 -0.1706
  403MOL0     O54294   9.540  -0.819   7.927 -0.5293 -0.2408  0.4378
  403MOL0     C54295   9.419  -0.845   7.867 -0.2175  0.1691 -0.0571
  403MOL0     C54296   9.313  -0.859   7.948 -0.8581  0.0275  0.0069
  403MOL0     C54297   9.188  -0.887   7.893  0.0723 -0.3038  0.0067
  403MOL0     C54298   9.074  -0.909   7.989 -0.4414 -0.2809 -0.0335
  403MOL0     C54299   9.165  -0.889   7.750 -0.3655  0.1074 -0.0439
  403MOL0     C54300   9.036  -0.917   7.682  0.0002  0.8050 -0.3134
  403MOL0     O54301   8.944  -0.991   7.749  0.4591 -0.5415 -0.0216
  403MOL0     C54302   8.813  -0.952   7.753  0.0903 -0.0601 -0.1843
  403MOL0     C54303   8.737  -0.963   7.633 -0.2663  0.2260 -0.5510
  403MOL0     C54304   8.609  -0.923   7.639  0.7800  0.0509  0.4998
  403MOL0     C54305   8.540  -0.879   7.748 -0.2108  0.5407  0.3235
  403MOL0     O54306   8.405  -0.841   7.741  0.3253 -0.1259  0.5353
  403MOL0     C54307   8.329  -0.857   7.862 -0.1938  0.1546 -0.0973
  403MOL0     C54308   8.184  -0.852   7.826 -0.1442 -1.0187 -0.2756
  403MOL0     C54309   8.105  -0.938   7.925 -0.3375  0.2681 -0.0460
  403MOL0     C54310   7.956  -0.916   7.889 -0.5942 -0.1228  0.2151
  403MOL0     C54311   7.882  -1.014   7.972 -0.2801  0.4449  0.3364
  403MOL0     C54312   7.738  -0.995   7.966 -0.0401 -0.6186 -1.1561
  403MOL0     C54313   7.684  -0.905   8.071 -0.4353  0.2734 -0.8004
  403MOL0     C54314   7.532  -0.922   8.083 -0.2193 -0.6060  0.1717
  403MOL0    Cl54315   7.436  -0.858   7.947 -0.0054  0.4505 -0.1754
  403MOL0     C54316   8.621  -0.863   7.865 -0.0570 -0.8700  0.0805
  403MOL0     C54317   8.754  -0.901   7.865 -0.2265  0.0180  0.0078
  403MOL0     O54318   9.022  -0.887   7.562  0.8406 -0.1074 -0.1562
  403MOL0     C54319   9.277  -0.859   7.672 -0.7519 -0.5055  1.0005
  403MOL0     C54320   9.401  -0.843   7.728 -0.7209  0.0107 -0.2749
  403MOL0     N54321   9.759  -0.536   8.309  0.5995 -0.2171  0.5029
  403MOL0     N54322   9.783  -0.433   8.383  0.0475  0.3873  0.0306
  403MOL0     C54323  10.480   0.253   8.800  0.5183 -0.4332 -0.2712
  403MOL0     C54324  10.617   0.242   8.816  0.3281  0.2921  0.0313
  403MOL0     C54325  11.041   0.439   8.787 -0.6462 -0.3078  0.5114
  403MOL0     C54326  11.090   0.454   8.924  0.3799  0.2075  1.0066
  403MOL0     C54327  11.215   0.498   8.952  0.2173  0.3847 -0.2296
  403MOL0     C54328  11.305   0.518   8.848  0.2317  0.3875 -0.3203
  403MOL0     O54329  11.428   0.560   8.874  0.2974 -0.0723 -0.0846
  403MOL0     C54330  11.492   0.650   8.786  0.3105 -0.1939 -0.5613
  403MOL0     C54331  11.624   0.686   8.844 -0.2944 -0.6233  0.2703
  403MOL0     C54332  11.687   0.803   8.756 -0.6710  0.0579  0.2424
  403MOL0     C54333  11.684   0.788   8.596 -0.1643 -0.2770 -0.4325
  403MOL0     C54334  11.767   0.670   8.561 -0.1365 -0.2342  0.1728
  403MOL0     C54335  11.831   0.574   8.528 -0.1874  0.9487 -0.2789
  403MOL0     C54336  11.257   0.504   8.717 -0.6882  0.9137  0.3286
  403MOL0     C54337  11.130   0.464   8.686 -0.3030  0.3902 -0.4688
  403MOL0     H54338  10.675   0.580   8.886 -0.4940  0.4290 -0.5521
  403MOL0     H54339  10.446   0.586   8.858 -1.8063 -0.6458 -0.5759
  403MOL0     H54340  10.098   0.367   8.758  0.1076  0.1434 -1.6535
  403MOL0     H54341  10.206   0.236   8.701  1.7651 -1.3784  2.1735
  403MOL0     H54342  10.226   0.162   8.944  0.2367 -0.3143 -0.6039
  403MOL0     H54343  10.085   0.260   8.963 -0.2372 -0.2913 -0.2082
  403MOL0     H54344  10.033   0.027   8.956 -1.5956 -0.5001 -0.3369
  403MOL0     H54345   9.958   0.099   8.811  0.0563 -0.1208 -0.4847
  403MOL0     H54346  10.136   0.012   8.677 -1.1894 -0.5112 -1.0529
  403MOL0     H54347  10.228  -0.069   8.816  1.3361  1.1178 -2.8525
  403MOL0     H54348  10.043  -0.226   8.849  1.5076 -1.6824 -1.1265
  403MOL0     H54349   9.953  -0.154   8.713 -0.7496 -0.5294  2.0295
  403MOL0     H54350  10.207  -0.211   8.603  1.3018 -1.4167  0.2066
  403MOL0     H54351  10.205  -0.321   8.735 -0.1316  1.0488  0.4863
  403MOL0     H54352  10.140  -0.439   8.534  0.7500  3.4631 -2.7791
  403MOL0     H54353  10.000  -0.447   8.630 -0.9091 -0.9514 -3.2450
  403MOL0     H54354  10.067  -0.258   8.399  0.2507 -0.4135  0.3105
  403MOL0     H54355   9.921  -0.236   8.491 -0.7642  0.4513 -2.2741
  403MOL0     H54356  10.079  -0.501   8.255  0.0222 -2.3356  0.9810
  403MOL0     H54357   9.984  -0.673   8.069  0.7099 -3.9048  0.6188
  403MOL0     H54358   9.901  -0.786   8.173 -0.7069 -0.5869 -1.1445
  403MOL0     H54359   9.785  -0.598   7.978 -0.1531  0.8533  0.2874
  403MOL0     H54360   9.676  -0.687   8.099 -0.5895 -0.7525 -0.1713
  403MOL0     H54361   9.770  -0.901   8.003  2.0668 -0.2169  0.2749
  403MOL0     H54362   9.866  -0.803   7.885 -1.3884 -0.2498 -2.3611
  403MOL0     H54363   9.681  -0.886   7.786  0.2316  0.7107 -2.0646
  403MOL0     H54364   9.667  -0.707   7.792  0.1354  1.4911  2.9040
  403MOL0     H54365   9.345  -0.854   8.051  1.3534  0.2945 -0.6528
  403MOL0     H54366   9.108  -0.888   8.091  2.7868  0.8485 -1.2255
  403MOL0     H54367   9.003  -0.830   7.965 -0.8864 -1.1397 -1.6714
  403MOL0     H54368   9.020  -1.004   7.984 -0.2624 -0.4992  1.6149
  403MOL0     H54369   8.768  -1.013   7.542 -1.0428 -1.4058  0.0364
  403MOL0     H54370   8.550  -0.917   7.548  1.6560  0.2537 -0.0580
  403MOL0     H54371   8.361  -0.955   7.897  0.2522 -0.8070 -2.9572
  403MOL0     H54372   8.338  -0.777   7.936  0.2144 -0.4210  0.4830
  403MOL0     H54373   8.154  -0.748   7.817 -0.7158 -1.1689 -0.1199
  403MOL0     H54374   8.156  -0.880   7.724 -2.0788  0.7600 -0.2934
  403MOL0     H54375   8.121  -0.901   8.027 -1.2810  0.0266  0.1981
  403MOL0     H54376   8.138  -1.042   7.919  2.9160  1.2410 -1.4883
  403MOL0     H54377   7.922  -0.815   7.911  4.0789  1.7359  0.0798
  403MOL0     H54378   7.939  -0.933   7.782 -2.5177  0.0780  0.4493
  403MOL0     H54379   7.917  -1.023   8.076  3.9508  1.6162 -0.8209
  403MOL0     H54380   7.902  -1.108   7.921  0.2306  1.2660 -1.0123
  403MOL0     H54381   7.707  -0.962   7.866  1.3491 -0.2194 -1.4732
  403MOL0     H54382   7.692  -1.091   7.993 -1.4338  0.6674  1.4468
  403MOL0     H54383   7.715  -0.807   8.034 -0.4883  0.6843  0.2300
  403MOL0     H54384   7.739  -0.923   8.164  1.0382 -2.7248 -2.1159
  403MOL0     H54385   7.499  -0.879   8.178  0.1340 -0.8456  0.4031
  403MOL0     H54386   7.501  -1.026   8.094 -1.0024 -0.4988 -0.8051
  403MOL0     H54387   8.576  -0.817   7.953  0.9657 -0.6036  0.4711
  403MOL0     H54388   8.805  -0.896   7.961  2.5033 -1.4296 -1.2621
  403MOL0     H54389   9.268  -0.866   7.564 -0.9326 -2.4358  1.0994
  403MOL0     H54390   9.475  -0.829   7.650 -2.0437 -0.3710 -1.6418
  403MOL0     H54391  10.417   0.165   8.803  0.5907 -0.4773 -0.0351
  403MOL0     H54392  10.659   0.142   8.818  2.6254  1.1762 -0.9215
  403MOL0     H54393  11.028   0.436   9.012 -0.0283 -0.9547  0.5022
  403MOL0     H54394  11.254   0.509   9.053 -1.7373 -0.0270  0.6089
  403MOL0     H54395  11.498   0.619   8.682  3.8463 -0.4980 -0.4069
  403MOL0     H54396  11.434   0.742   8.792  0.3198 -0.2755  1.4927
  403MOL0     H54397  11.697   0.606   8.834  1.4040  1.0434 -1.6008
  403MOL0     H54398  11.603   0.713   8.949 -0.7071  0.4034 -0.0594
  403MOL0     H54399  11.793   0.812   8.782 -1.2550 -0.1830  3.0650
  403MOL0     H54400  11.647   0.902   8.777 -0.1129 -0.1115  2.4024
  403MOL0     H54401  11.729   0.872   8.544  2.6010 -2.0323 -1.0920
  403MOL0     H54402  11.579   0.779   8.565  0.2054  2.0759 -2.6197
  403MOL0     H54403  11.872   0.480   8.497 -0.0260 -0.0316  2.5828
  403MOL0     H54404  11.321   0.508   8.629 -1.3675 -0.8286 -0.2848
  403MOL0     H54405  11.097   0.462   8.583 -0.2042 -0.0340 -0.4923
  404MOL0     O54406   7.247   6.998  11.207 -0.7948 -0.3914 -0.2636
  404MOL0     C54407   7.357   7.034  11.168  1.1974 -0.0253  1.3750
  404MOL0     O54408   7.443   7.107  11.238  0.3989  0.3151 -0.4553
  404MOL0     C54409   7.406   7.155  11.360  0.3604  0.3794 -0.0722
  404MOL0     C54410   7.502   7.146  11.461  0.3414 -0.8362 -0.3112
  404MOL0     C54411   7.474   7.214  11.584 -0.4099  0.1173  0.1193
  404MOL0     C54412   7.358   7.273  11.616 -0.2312 -0.5014  0.6691
  404MOL0     O54413   7.350   7.321  11.741 -0.6034  0.0219 -0.3946
  404MOL0     C54414   7.225   7.381  11.794 -0.0133 -0.2035  0.1691
  404MOL0     C54415   7.244   7.458  11.924 -0.3147  0.1894  0.4442
  404MOL0     C54416   7.108   7.444  12.004 -0.6654 -0.4213 -0.5828
  404MOL0     C54417   7.103   7.311  12.079  0.0519 -0.7077  0.5092
  404MOL0     C54418   6.970   7.318  12.163 -0.2082 -0.2004 -0.5907
  404MOL0     C54419   6.949   7.193  12.246 -0.1323  0.5060  0.8277
  404MOL0     C54420   6.806   7.183  12.287 -0.0409 -0.2819 -0.5721
  404MOL0     C54421   6.772   7.277  12.410  0.2213  0.2900  0.6001
  404MOL0     N54422   6.628   7.266  12.424  0.3981 -0.3469 -0.1034
  404MOL0     C54423   6.547   7.172  12.473  0.3808  0.7997  0.4852
  404MOL0     C54424   6.421   7.220  12.455  0.2883  0.0311 -0.6425
  404MOL0     C54425   6.285   7.157  12.485 -0.8346  0.5780 -0.4568
  404MOL0     C54426   6.249   7.195  12.628  0.2726  0.0160 -0.0600
  404MOL0     C54427   6.168   7.320  12.637 -0.8464 -0.4095  0.5127
  404MOL0     C54428   6.029   7.320  12.570  0.5245  0.2956  0.2125
  404MOL0     O54429   5.957   7.194  12.593 -0.5129 -0.3509  0.4637
  404MOL0     C54430   5.841   7.173  12.522  0.9281 -0.0941 -0.8750
  404MOL0     C54431   5.785   7.253  12.419  0.4770 -0.4062 -0.0641
  404MOL0     C54432   5.676   7.205  12.346 -0.8566  0.6585  0.2979
  404MOL0     C54433   5.624   7.281  12.232  0.5865  0.0282 -0.8620
  404MOL0     C54434   5.614   7.075  12.379  0.3920  1.0529  0.7612
  404MOL0     C54435   5.494   7.002  12.311 -0.2269  0.3113 -0.4263
  404MOL0     O54436   5.416   6.933  12.393 -0.4649  0.1509  0.9904
  404MOL0     C54437   5.301   6.879  12.348  0.3708 -0.2393 -0.1627
  404MOL0     C54438   5.180   6.935  12.393 -0.2164 -0.0497  1.2082
  404MOL0     C54439   5.059   6.874  12.367 -0.5596  0.2533 -0.0250
  404MOL0     C54440   5.055   6.751  12.290  0.5375  0.9704  0.2915
  404MOL0     O54441   4.941   6.692  12.247 -0.6451  0.0348  0.4484
  404MOL0     C54442   4.825   6.742  12.311  0.0961 -0.3282 -0.0258
  404MOL0     C54443   4.710   6.655  12.258  0.4876 -0.3425 -0.1549
  404MOL0     C54444   4.570   6.701  12.312  0.3705  0.6045  1.2429
  404MOL0     C54445   4.478   6.584  12.317  0.1130  0.5619  0.0380
  404MOL0     C54446   4.385   6.599  12.442  0.3206  0.9705  0.1062
  404MOL0     C54447   4.320   6.462  12.474 -0.6055  0.8337 -1.1214
  404MOL0     C54448   4.228   6.467  12.592 -0.4296 -0.4515 -0.2982
  404MOL0     C54449   4.131   6.341  12.589  0.1289 -0.1805  0.2575
  404MOL0    Cl54450   4.013   6.339  12.732  0.4332 -0.1447 -0.0493
  404MOL0     C54451   5.175   6.695  12.254 -0.8756 -0.4910  0.4027
  404MOL0     C54452   5.305   6.757  12.274 -0.2441  0.0931  0.0856
  404MOL0     O54453   5.476   7.019  12.191 -0.3386 -0.0538 -0.1069
  404MOL0     C54454   5.671   7.002  12.485 -0.4685 -0.1153  0.6418
  404MOL0     C54455   5.788   7.045  12.546  0.3682 -0.3774 -0.3820
  404MOL0     N54456   6.427   7.350  12.414  0.6045 -0.7834 -0.3393
  404MOL0     N54457   6.548   7.376  12.392 -0.6353 -0.0384  0.0953
  404MOL0     C54458   7.269   7.294  11.511 -0.3663 -0.5761  0.6344
  404MOL0     C54459   7.289   7.243  11.382  0.2933  0.3989 -0.4028
  404MOL0     C54460   7.381   6.993  11.031 -0.1161 -0.1002  0.0547
  404MOL0     C54461   7.287   6.907  10.959 -0.4848 -0.3505 -0.5850
  404MOL0     C54462   7.321   6.860  10.836  1.0105 -1.1441 -0.2453
  404MOL0     C54463   7.440   6.881  10.771  0.5167  0.5139 -1.2573
  404MOL0     O54464   7.480   6.813  10.660  0.4355  0.0886  0.3656
  404MOL0     C54465   7.622   6.785  10.646 -0.0777 -0.1777 -0.7702
  404MOL0     C54466   7.630   6.651  10.574 -0.2626 -1.0477 -0.1463
  404MOL0     C54467   7.565   6.530  10.647  0.3604 -0.4594  0.8130
  404MOL0     C54468   7.592   6.392  10.573  0.6922 -0.1760  0.3667
  404MOL0     C54469   7.729   6.360  10.581  0.5268 -0.2265 -0.4066
  404MOL0     C54470   7.855   6.350  10.577 -0.0666  0.1928  0.1167
  404MOL0     C54471   7.526   6.969  10.843  0.0218  0.4999  0.2924
  404MOL0     C54472   7.504   7.029  10.960 -0.2257  0.0221 -0.9545
  404MOL0     H54473   7.600   7.105  11.443  2.8126  2.4988  3.6033
  404MOL0     H54474   7.553   7.208  11.659 -0.5593 -1.2981  0.1828
  404MOL0     H54475   7.189   7.447  11.715  3.4905 -1.1894 -2.4662
  404MOL0     H54476   7.146   7.307  11.808  0.4310 -0.5447  0.9740
  404MOL0     H54477   7.325   7.409  11.979 -0.9895  1.0340  2.2603
  404MOL0     H54478   7.281   7.559  11.906  0.1567 -0.5607 -3.8916
  404MOL0     H54479   7.099   7.530  12.071  0.5100 -1.0109  0.3808
  404MOL0     H54480   7.028   7.465  11.932  0.0503  0.1540 -1.2261
  404MOL0     H54481   7.109   7.225  12.011 -0.0190 -0.8863  0.7292
  404MOL0     H54482   7.189   7.308  12.146  1.9366  2.9286 -1.3918
  404MOL0     H54483   6.968   7.403  12.232 -1.8150 -1.6934  1.3307
  404MOL0     H54484   6.879   7.332  12.103 -1.9968 -1.0142  1.7745
  404MOL0     H54485   6.972   7.115  12.173 -0.5599 -0.4061  1.6401
  404MOL0     H54486   7.019   7.182  12.329  1.8993  1.2525 -0.7005
  404MOL0     H54487   6.741   7.192  12.200  1.0570 -2.0856 -1.6279
  404MOL0     H54488   6.784   7.081  12.317 -0.3027  0.2979  1.3960
  404MOL0     H54489   6.806   7.379  12.394  0.5327  0.2062  0.7305
  404MOL0     H54490   6.809   7.238  12.505  0.9880  0.3807  0.3464
  404MOL0     H54491   6.576   7.073  12.507  2.8215  0.6173 -1.8008
  404MOL0     H54492   6.207   7.193  12.417 -1.1337 -0.7248 -0.8315
  404MOL0     H54493   6.305   7.049  12.483  1.0373  0.7220  2.7500
  404MOL0     H54494   6.343   7.201  12.685  1.5078  0.7532 -2.0746
  404MOL0     H54495   6.188   7.114  12.670 -0.5289 -0.9234 -2.8609
  404MOL0     H54496   6.214   7.414  12.606 -1.7799  0.7639  2.4895
  404MOL0     H54497   6.161   7.341  12.744 -1.0214  1.7015  0.1208
  404MOL0     H54498   6.043   7.338  12.463 -2.2741 -2.7241 -0.8496
  404MOL0     H54499   5.964   7.400  12.605  2.1746  0.9201  2.0420
  404MOL0     H54500   5.816   7.356  12.402  0.6500 -0.3566  0.5069
  404MOL0     H54501   5.644   7.222  12.142  1.5054  0.0312 -0.6651
  404MOL0     H54502   5.518   7.308  12.239  0.6965  0.0109  2.4236
  404MOL0     H54503   5.675   7.377  12.217 -0.9366  1.1229  0.5610
  404MOL0     H54504   5.189   7.020  12.459  1.4294  2.0687 -1.5203
  404MOL0     H54505   4.970   6.919  12.410 -0.8385 -0.9778  0.7585
  404MOL0     H54506   4.834   6.747  12.420 -0.8151  2.2458 -0.0095
  404MOL0     H54507   4.817   6.844  12.274 -2.6164 -0.6402 -0.4721
  404MOL0     H54508   4.718   6.651  12.150  0.9214 -0.1021 -0.1330
  404MOL0     H54509   4.733   6.553  12.288  0.3949 -1.3332 -3.1553
  404MOL0     H54510   4.531   6.785  12.254 -0.1796 -1.1563 -1.0701
  404MOL0     H54511   4.586   6.737  12.415 -0.7661  0.6584  1.4128
  404MOL0     H54512   4.420   6.582  12.225  0.3445  0.3838 -0.1044
  404MOL0     H54513   4.523   6.485  12.306  1.3640  1.3061 -2.1591
  404MOL0     H54514   4.322   6.681  12.406 -0.5121 -0.3617 -1.5952
  404MOL0     H54515   4.440   6.625  12.533 -0.4979  2.9445  0.0790
  404MOL0     H54516   4.266   6.428  12.385 -2.8713 -0.4427  0.6266
  404MOL0     H54517   4.396   6.385  12.489 -1.5123  0.3636  1.6299
  404MOL0     H54518   4.167   6.557  12.581 -0.4158 -0.2177  1.2364
  404MOL0     H54519   4.272   6.464  12.692  0.3054 -0.4743 -0.6187
  404MOL0     H54520   4.182   6.245  12.591  0.2017 -0.1312  1.4501
  404MOL0     H54521   4.073   6.357  12.498  3.1261  4.9834 -1.1584
  404MOL0     H54522   5.163   6.598  12.206 -2.9969  1.0785 -2.5758
  404MOL0     H54523   5.408   6.728  12.254 -0.0127  1.6081 -1.1530
  404MOL0     H54524   5.630   6.905  12.507  1.2131 -0.6049  1.8417
  404MOL0     H54525   5.838   6.987  12.623 -1.1593  1.5097  2.2022
  404MOL0     H54526   7.179   7.352  11.527  1.2912  1.5818  2.9571
  404MOL0     H54527   7.213   7.254  11.304 -2.2442 -0.5723  1.7704
  404MOL0     H54528   7.187   6.881  10.992 -2.2129  4.6522 -1.1664
  404MOL0     H54529   7.248   6.796  10.787  0.1883  0.8177 -1.6786
  404MOL0     H54530   7.661   6.863  10.580 -0.8762  1.6603  0.8459
  404MOL0     H54531   7.677   6.790  10.740  0.9028  2.7791 -1.3988
  404MOL0     H54532   7.734   6.623  10.555  0.0939  0.3731 -0.3776
  404MOL0     H54533   7.567   6.655  10.485 -3.0681 -3.6909  1.4861
  404MOL0     H54534   7.456   6.541  10.640  0.1673 -1.6785  1.5967
  404MOL0     H54535   7.596   6.521  10.751  1.5283 -0.7075  0.4510
  404MOL0     H54536   7.565   6.410  10.468  1.4002 -0.7886  0.0751
  404MOL0     H54537   7.526   6.315  10.613  0.1980 -1.6126 -2.8905
  404MOL0     H54538   7.961   6.339  10.567  0.0337  0.8857  0.4099
  404MOL0     H54539   7.626   6.996  10.810 -0.2560 -1.1880 -2.1308
  404MOL0     H54540   7.585   7.088  11.002 -1.4777  0.2668  1.2468
  405MOL0     O54541   1.626   3.368   1.528  0.3543  0.1260  0.0632
  405MOL0     C54542   1.683   3.262   1.550 -0.1940 -0.2053  0.1305
  405MOL0     O54543   1.623   3.138   1.542 -0.7571  0.2468  0.3274
  405MOL0     C54544   1.488   3.134   1.516 -0.4400 -0.3173 -0.7408
  405MOL0     C54545   1.433   3.178   1.399 -0.1678 -0.4379 -0.2684
  405MOL0     C54546   1.299   3.157   1.361  0.8803 -0.0529 -0.1630
  405MOL0     C54547   1.208   3.100   1.455 -0.1510  0.4458 -0.1236
  405MOL0     O54548   1.077   3.078   1.437  0.0950  0.2316  0.7898
  405MOL0     C54549   1.021   3.062   1.302  0.4839 -0.1260  0.2042
  405MOL0     C54550   0.879   3.027   1.330 -0.0005  0.2034 -0.0710
  405MOL0     C54551   0.786   3.049   1.202 -0.0110 -0.0779 -0.2029
  405MOL0     C54552   0.817   2.933   1.105 -0.4077 -1.0312 -1.0356
  405MOL0     C54553   0.721   2.941   0.982  0.4103 -0.0679 -0.3465
  405MOL0     C54554   0.588   2.872   1.024 -1.3433 -0.6054  0.3191
  405MOL0     C54555   0.492   2.867   0.890  0.4343  0.1509  0.1647
  405MOL0     C54556   0.355   2.811   0.938 -0.2224  0.4836 -0.0127
  405MOL0     N54557   0.245   2.905   0.952  0.4423 -0.6378  0.4752
  405MOL0     C54558   0.236   3.015   1.035  0.0383 -0.2515  0.2257
  405MOL0     C54559   0.114   3.070   1.004  0.5960 -0.2117 -0.0665
  405MOL0     C54560   0.066   3.178   1.096  0.2649  0.9107  1.1260
  405MOL0     C54561  -0.080   3.223   1.070 -0.2756  0.8574  0.8294
  405MOL0     C54562  -0.137   3.332   1.168 -0.2255 -0.1352 -0.4340
  405MOL0     C54563  -0.280   3.358   1.147  0.2898  0.5463  1.1566
  405MOL0     O54564  -0.290   3.420   1.020 -0.4871  0.3981  0.1938
  405MOL0     C54565  -0.407   3.414   0.944  0.9587  0.0679 -0.3519
  405MOL0     C54566  -0.396   3.457   0.818 -0.2888  0.2036  0.0187
  405MOL0     C54567  -0.513   3.463   0.743  0.6705 -0.2017 -0.0585
  405MOL0     C54568  -0.505   3.525   0.610 -0.6074 -0.1207 -0.3065
  405MOL0     C54569  -0.643   3.414   0.790  0.6232  0.1400 -0.0773
  405MOL0     C54570  -0.775   3.436   0.717  0.0798 -0.1303 -0.3182
  405MOL0     O54571  -0.882   3.371   0.777  0.1558 -0.5613 -0.0229
  405MOL0     C54572  -0.995   3.373   0.704  0.1436  0.0281  0.8365
  405MOL0     C54573  -1.084   3.470   0.740 -0.6990 -0.2293  0.5078
  405MOL0     C54574  -1.211   3.483   0.672  0.7798  0.3321 -1.1229
  405MOL0     C54575  -1.249   3.393   0.575 -0.5348 -0.3010 -0.6153
  405MOL0     O54576  -1.374   3.407   0.529 -0.3270 -0.5635  0.2117
  405MOL0     C54577  -1.435   3.311   0.443 -0.3058  0.6043  0.6349
  405MOL0     C54578  -1.582   3.335   0.446  0.1895  0.1074 -0.5924
  405MOL0     C54579  -1.650   3.232   0.361  0.2275  0.6595 -0.0343
  405MOL0     C54580  -1.797   3.236   0.385  0.8716 -0.2690 -0.1371
  405MOL0     C54581  -1.879   3.123   0.312 -0.3664 -0.2387 -0.0346
  405MOL0     C54582  -2.027   3.122   0.334 -0.3317 -0.0096  0.0641
  405MOL0     C54583  -2.096   3.240   0.282  0.1920  0.7677  0.0232
  405MOL0     C54584  -2.232   3.257   0.351  0.8194 -0.5664 -0.2380
  405MOL0    Cl54585  -2.345   3.356   0.244  0.3531  0.0626 -0.3312
  405MOL0     C54586  -1.158   3.293   0.540  0.2543 -0.7270 -0.0903
  405MOL0     C54587  -1.034   3.281   0.605  0.3484 -0.3378 -0.0583
  405MOL0     O54588  -0.773   3.495   0.606  0.1042  0.3264 -1.0736
  405MOL0     C54589  -0.637   3.351   0.915  0.8287  0.3662  0.0500
  405MOL0     C54590  -0.523   3.346   0.992  0.2222 -0.2989  0.3522
  405MOL0     N54591   0.062   2.994   0.902 -0.0161 -0.1330 -0.4725
  405MOL0     N54592   0.138   2.903   0.869  0.2354  0.3799  0.4864
  405MOL0     C54593   1.262   3.054   1.576  1.1254  0.8739  0.2323
  405MOL0     C54594   1.397   3.079   1.607 -0.3240  0.1783  0.9902
  405MOL0     C54595   1.833   3.260   1.558  0.0484  0.2657  0.1987
  405MOL0     C54596   1.897   3.164   1.639 -0.3443 -0.1503 -0.6556
  405MOL0     C54597   2.037   3.171   1.662 -0.2749  0.0705 -0.0937
  405MOL0     C54598   2.116   3.270   1.603 -0.4737 -0.4225  0.3548
  405MOL0     O54599   2.248   3.295   1.627 -0.1202  0.3458  0.2551
  405MOL0     C54600   2.313   3.229   1.736 -0.5207 -0.5561  0.5766
  405MOL0     C54601   2.442   3.310   1.759 -0.4532  0.6135  0.0765
  405MOL0     C54602   2.549   3.237   1.835  0.1346 -0.3839 -0.4250
  405MOL0     C54603   2.603   3.109   1.779  0.0621  0.3086  0.0611
  405MOL0     C54604   2.741   3.080   1.840 -0.1795  0.0662  0.0356
  405MOL0     C54605   2.858   3.058   1.875 -0.6272  0.6581 -0.1884
  405MOL0     C54606   2.051   3.358   1.522  0.5920 -0.5440 -0.0532
  405MOL0     C54607   1.910   3.361   1.498 -0.8433 -0.6833 -0.3658
  405MOL0     H54608   1.495   3.232   1.328  0.3858  3.1086  2.6470
  405MOL0     H54609   1.257   3.200   1.271  1.8275  1.4321  0.0687
  405MOL0     H54610   1.024   3.156   1.246  0.9429 -0.5734 -0.5387
  405MOL0     H54611   1.083   2.992   1.245 -0.5321 -0.1018 -0.9558
  405MOL0     H54612   0.873   2.936   1.390  2.2730  0.6089  0.8704
  405MOL0     H54613   0.842   3.097   1.406  0.2202  2.8157 -2.2308
  405MOL0     H54614   0.684   3.029   1.236  0.8943 -0.3894  2.6331
  405MOL0     H54615   0.799   3.149   1.158  0.3915  0.4805  1.1364
  405MOL0     H54616   0.921   2.944   1.074  0.2176  2.9497  1.7352
  405MOL0     H54617   0.832   2.839   1.159  0.2755  0.1741  0.9866
  405MOL0     H54618   0.708   3.045   0.953 -3.4818 -0.2391  0.2921
  405MOL0     H54619   0.771   2.891   0.899  2.9803  1.2078  0.3421
  405MOL0     H54620   0.603   2.767   1.053  0.6836  0.2774  2.8473
  405MOL0     H54621   0.539   2.931   1.101 -2.6141 -1.6377  0.3241
  405MOL0     H54622   0.489   2.968   0.848  3.2930 -0.4788 -1.9063
  405MOL0     H54623   0.547   2.810   0.815 -1.7849 -1.3714 -0.3976
  405MOL0     H54624   0.368   2.751   1.028 -1.8925  0.2783  0.1256
  405MOL0     H54625   0.321   2.733   0.869 -1.0678  1.1688 -0.3990
  405MOL0     H54626   0.305   3.042   1.114  1.3623 -2.4269 -0.1127
  405MOL0     H54627   0.079   3.153   1.202  1.2239 -0.0413  0.7987
  405MOL0     H54628   0.135   3.261   1.079  0.7047 -0.0088 -2.5528
  405MOL0     H54629  -0.144   3.135   1.084  0.4943  0.1703  0.1680
  405MOL0     H54630  -0.094   3.246   0.963  1.3147  1.3658  0.7034
  405MOL0     H54631  -0.082   3.424   1.143  0.0506 -0.2745 -0.3424
  405MOL0     H54632  -0.117   3.298   1.270 -1.1385 -0.8458 -0.4878
  405MOL0     H54633  -0.313   3.421   1.230 -2.5993 -2.3052  2.4099
  405MOL0     H54634  -0.322   3.257   1.140  3.0734 -0.6194 -0.4682
  405MOL0     H54635  -0.300   3.499   0.789  0.3596 -0.3763  1.2626
  405MOL0     H54636  -0.559   3.620   0.598 -0.1207 -0.1694 -4.0331
  405MOL0     H54637  -0.404   3.552   0.580 -0.8708  1.2228 -0.0573
  405MOL0     H54638  -0.546   3.462   0.530 -2.3839  0.1421  0.3439
  405MOL0     H54639  -1.059   3.536   0.822  0.1912  0.3674 -0.2225
  405MOL0     H54640  -1.267   3.567   0.712  3.3460  0.9427  1.5351
  405MOL0     H54641  -1.391   3.327   0.344 -0.1028 -3.0203  0.0334
  405MOL0     H54642  -1.418   3.208   0.473 -2.2000  0.1396  0.2429
  405MOL0     H54643  -1.616   3.315   0.547  2.8998  0.1316  0.4206
  405MOL0     H54644  -1.615   3.431   0.405 -0.8927  0.0922  0.2295
  405MOL0     H54645  -1.618   3.130   0.384 -3.3099 -0.6919 -0.4833
  405MOL0     H54646  -1.630   3.262   0.257  0.3850  2.1253  0.3877
  405MOL0     H54647  -1.809   3.221   0.493  1.3531 -1.8765 -0.2669
  405MOL0     H54648  -1.831   3.334   0.352  2.3237  0.1930 -0.3056
  405MOL0     H54649  -1.834   3.026   0.333  2.2977  0.7336 -0.8313
  405MOL0     H54650  -1.870   3.140   0.204 -0.4437 -1.0862 -0.1791
  405MOL0     H54651  -2.075   3.031   0.297 -1.2493  0.4267  0.1246
  405MOL0     H54652  -2.029   3.115   0.443  2.5613 -2.7304  0.0830
  405MOL0     H54653  -2.118   3.216   0.178  0.2357 -1.9195  0.5710
  405MOL0     H54654  -2.043   3.334   0.297 -4.1027  3.3194  0.8560
  405MOL0     H54655  -2.215   3.309   0.446 -0.7347 -1.2033  0.4221
  405MOL0     H54656  -2.287   3.165   0.371 -0.2795  0.1221 -0.0162
  405MOL0     H54657  -1.180   3.226   0.457  1.5115 -2.0453  0.6059
  405MOL0     H54658  -0.960   3.204   0.582 -0.4735 -0.8815 -1.0160
  405MOL0     H54659  -0.728   3.316   0.961  1.5411 -0.8180  0.5881
  405MOL0     H54660  -0.531   3.310   1.094  0.0098 -2.0533 -0.2407
  405MOL0     H54661   1.192   3.013   1.648 -0.0514 -2.5952 -2.6039
  405MOL0     H54662   1.433   3.060   1.708  1.1352  2.6739  1.0158
  405MOL0     H54663   1.831   3.087   1.678 -0.0934  1.4634  3.5219
  405MOL0     H54664   2.074   3.093   1.728  1.1806  0.5925 -0.2580
  405MOL0     H54665   2.254   3.249   1.825  0.1161  0.3191  0.8190
  405MOL0     H54666   2.328   3.123   1.712  0.2032 -0.1286 -1.0441
  405MOL0     H54667   2.419   3.408   1.802 -0.0368  0.5949  0.3516
  405MOL0     H54668   2.489   3.340   1.664 -1.5467  3.9260  0.4514
  405MOL0     H54669   2.506   3.219   1.934  0.3637 -1.4539 -0.5070
  405MOL0     H54670   2.633   3.307   1.838  0.2297 -0.5043 -0.2603
  405MOL0     H54671   2.602   3.107   1.669 -0.2194  0.4936  0.0594
  405MOL0     H54672   2.536   3.028   1.808 -1.0589  1.1911 -0.0062
  405MOL0     H54673   2.959   3.030   1.900 -0.2677 -1.1813 -3.1362
  405MOL0     H54674   2.099   3.446   1.479 -1.7221  0.8391 -0.0093
  405MOL0     H54675   1.883   3.436   1.423 -1.7724 -0.1748  0.4525
  406MOL0     O54676  10.583   9.502   9.794  0.3348 -0.2159 -0.2285
  406MOL0     C54677  10.564   9.444   9.894  0.0961  1.3344  0.3432
  406MOL0     O54678  10.655   9.378   9.970 -0.3261 -0.1494  0.0056
  406MOL0     C54679  10.785   9.384   9.935  0.6320  0.6555 -0.0433
  406MOL0     C54680  10.862   9.267   9.913 -0.6578  0.4386 -0.0388
  406MOL0     C54681  10.992   9.274   9.863  0.5077 -0.4242 -0.0523
  406MOL0     C54682  11.050   9.403   9.852 -0.9720  0.2239 -0.5632
  406MOL0     O54683  11.185   9.426   9.826  0.5064  0.0553  0.1661
  406MOL0     C54684  11.276   9.372   9.918 -0.6997 -0.5431  0.3332
  406MOL0     C54685  11.359   9.482   9.998 -0.1637 -0.0499 -0.7251
  406MOL0     C54686  11.446   9.579   9.904  1.5815  0.2275  0.2770
  406MOL0     C54687  11.530   9.487   9.813 -0.0372 -0.5360 -0.1116
  406MOL0     C54688  11.648   9.567   9.752  0.2380 -0.4491  0.4585
  406MOL0     C54689  11.742   9.480   9.668  0.1474 -0.3748  0.2795
  406MOL0     C54690  11.839   9.560   9.584  0.6535 -0.0010 -0.2484
  406MOL0     C54691  11.935   9.464   9.518 -0.1831  0.1115 -0.5732
  406MOL0     N54692  11.866   9.357   9.433 -0.6216  0.4650 -0.1862
  406MOL0     C54693  11.769   9.386   9.335  0.6629  0.4670  0.6747
  406MOL0     C54694  11.729   9.260   9.288 -0.5606  0.3812 -1.1837
  406MOL0     C54695  11.638   9.224   9.181  0.1376 -0.5836  0.4337
  406MOL0     C54696  11.492   9.212   9.224  0.4390  0.3314  0.1332
  406MOL0     C54697  11.396   9.147   9.124 -0.5170 -0.7585 -0.2431
  406MOL0     C54698  11.340   9.239   9.013 -0.0989 -0.7895 -0.0663
  406MOL0     O54699  11.270   9.348   9.079  0.4193  0.0593  0.5786
  406MOL0     C54700  11.131   9.343   9.068  0.5001  0.0163  0.4341
  406MOL0     C54701  11.052   9.239   9.024 -0.0510 -0.5880 -0.3892
  406MOL0     C54702  10.914   9.238   9.032 -0.2661  0.3042  0.1146
  406MOL0     C54703  10.844   9.116   8.985 -0.0727 -0.3980 -0.2018
  406MOL0     C54704  10.846   9.348   9.081  0.0999 -0.6938  0.0584
  406MOL0     C54705  10.705   9.364   9.114 -0.3865 -0.2231 -0.0674
  406MOL0     O54706  10.644   9.480   9.080 -1.0389 -0.3424 -0.1461
  406MOL0     C54707  10.507   9.510   9.093 -0.1254 -0.0365  0.1675
  406MOL0     C54708  10.466   9.640   9.146  0.2596 -1.4194 -0.5529
  406MOL0     C54709  10.330   9.669   9.153  0.1964  0.3317 -0.5155
  406MOL0     C54710  10.229   9.586   9.104  0.3622 -0.7181 -0.1666
  406MOL0     O54711  10.093   9.607   9.093  0.1010  0.2716 -0.0910
  406MOL0     C54712  10.034   9.715   9.163 -0.5304  0.2292 -0.4135
  406MOL0     C54713   9.880   9.724   9.169  0.5806  0.4295 -0.0713
  406MOL0     C54714   9.821   9.817   9.280  0.8914  0.0792  0.9347
  406MOL0     C54715   9.665   9.840   9.294 -0.4329  0.1426  0.2393
  406MOL0     C54716   9.570   9.790   9.175  0.4863 -0.5500 -0.0389
  406MOL0     C54717   9.424   9.753   9.234  0.4129 -0.6590  0.1883
  406MOL0     C54718   9.333   9.698   9.115  0.3039 -0.1025 -0.0381
  406MOL0     C54719   9.315   9.556   9.087 -0.4097  0.5243  0.4759
  406MOL0    Cl54720   9.470   9.487   9.014  0.2893 -0.1938  0.2587
  406MOL0     C54721  10.277   9.467   9.051  0.3590  0.1068  0.1086
  406MOL0     C54722  10.411   9.431   9.042  0.0056 -0.1159  0.1601
  406MOL0     O54723  10.645   9.267   9.162 -0.6903 -0.3190 -0.7621
  406MOL0     C54724  10.925   9.468   9.113 -0.9429  0.4232 -0.5201
  406MOL0     C54725  11.065   9.455   9.118 -0.5060 -0.4252 -0.5199
  406MOL0     N54726  11.802   9.166   9.366 -0.1003 -0.9901  0.1176
  406MOL0     N54727  11.882   9.224   9.445  0.5729  0.2814 -1.3810
  406MOL0     C54728  10.977   9.516   9.876 -0.1788  0.1211  0.3359
  406MOL0     C54729  10.850   9.504   9.920  0.1612 -0.0029 -0.0988
  406MOL0     C54730  10.425   9.442   9.945 -0.1095 -0.5714 -0.0675
  406MOL0     C54731  10.385   9.365  10.049  0.5953 -0.3409 -0.9881
  406MOL0     C54732  10.256   9.379  10.096 -0.7003  0.6008  0.7584
  406MOL0     C54733  10.162   9.468  10.044 -1.0165  1.3018  0.5158
  406MOL0     O54734  10.032   9.463  10.086  0.0951 -0.3336 -0.2159
  406MOL0     C54735   9.939   9.578  10.051 -0.1780 -0.4384  0.2434
  406MOL0     C54736   9.802   9.544  10.105  0.0249 -0.3339  0.2716
  406MOL0     C54737   9.704   9.648  10.048  0.3201 -0.4673 -0.4265
  406MOL0     C54738   9.559   9.612  10.083  0.1496  0.2613  0.1423
  406MOL0     C54739   9.459   9.681  10.001  0.4449  0.9722  0.4980
  406MOL0     C54740   9.366   9.739   9.947 -0.1350  0.5760 -0.1548
  406MOL0     C54741  10.204   9.551   9.943 -0.3132  0.2826  0.8650
  406MOL0     C54742  10.332   9.542   9.890 -0.9008 -0.5126  0.0058
  406MOL0     H54743  10.828   9.165   9.920 -0.8691  0.3953 -1.4545
  406MOL0     H54744  11.044   9.187   9.827 -1.2325 -1.5056 -0.0642
  406MOL0     H54745  11.236   9.293   9.982  0.5438 -0.1210  1.6732
  406MOL0     H54746  11.346   9.318   9.853  2.2655  2.2527  0.9550
  406MOL0     H54747  11.283   9.537  10.054  0.7206 -0.8158  1.3053
  406MOL0     H54748  11.422   9.442  10.078 -1.0613  3.4194  1.9356
  406MOL0     H54749  11.380   9.640   9.841 -0.6653 -1.7499  0.5663
  406MOL0     H54750  11.511   9.640   9.968  1.8342  0.9894 -0.6811
  406MOL0     H54751  11.564   9.401   9.870  0.5482 -0.2314  0.0141
  406MOL0     H54752  11.477   9.444   9.727  3.8181 -2.4474 -1.7731
  406MOL0     H54753  11.594   9.647   9.700  2.6895  0.4910 -0.7917
  406MOL0     H54754  11.700   9.616   9.835 -1.1659  1.9267  0.0421
  406MOL0     H54755  11.796   9.412   9.735  0.3321  0.3735  0.9131
  406MOL0     H54756  11.686   9.418   9.598 -1.2677  0.7272  0.4018
  406MOL0     H54757  11.781   9.611   9.507  1.3767 -0.6534 -1.2595
  406MOL0     H54758  11.896   9.634   9.640  1.2055 -0.6137  0.0244
  406MOL0     H54759  11.990   9.406   9.593  0.4171  2.0459  0.5463
  406MOL0     H54760  12.005   9.511   9.449  0.5540 -1.0091 -0.6158
  406MOL0     H54761  11.743   9.483   9.293 -1.2613  0.6091  2.0561
  406MOL0     H54762  11.639   9.303   9.105 -4.5460  1.9432  2.5541
  406MOL0     H54763  11.669   9.127   9.141 -0.4942 -0.0701 -1.4215
  406MOL0     H54764  11.455   9.312   9.251  1.4521  0.8888 -0.4811
  406MOL0     H54765  11.493   9.153   9.317 -0.2470  0.6824  0.3750
  406MOL0     H54766  11.304   9.119   9.176  0.0306 -1.2386  0.4813
  406MOL0     H54767  11.454   9.061   9.088  0.8380  0.1382 -0.2626
  406MOL0     H54768  11.284   9.187   8.935  0.4468 -0.4969 -0.6599
  406MOL0     H54769  11.424   9.287   8.963 -0.3492  1.3231  1.4141
  406MOL0     H54770  11.088   9.153   8.967 -1.5348 -0.9817 -0.7736
  406MOL0     H54771  10.884   9.075   8.892  0.6107  0.7644 -0.4455
  406MOL0     H54772  10.861   9.037   9.059 -1.6236 -1.5152 -0.9899
  406MOL0     H54773  10.737   9.128   8.968 -0.4061 -3.0844 -0.4196
  406MOL0     H54774  10.531   9.720   9.178 -2.1215  0.4595 -0.1676
  406MOL0     H54775  10.309   9.767   9.196  0.8377 -0.4851  1.8299
  406MOL0     H54776  10.077   9.712   9.264 -0.0166 -2.3170 -0.6524
  406MOL0     H54777  10.069   9.808   9.117  2.5857 -0.2835  0.6789
  406MOL0     H54778   9.857   9.761   9.068  1.8922 -2.8943 -1.7321
  406MOL0     H54779   9.836   9.624   9.177 -0.1924  0.8065  0.5413
  406MOL0     H54780   9.857   9.918   9.256  0.8147  0.2365  1.4754
  406MOL0     H54781   9.874   9.807   9.375  0.0939  0.7870  1.4692
  406MOL0     H54782   9.633   9.781   9.381  2.0801 -1.8644 -0.0608
  406MOL0     H54783   9.647   9.944   9.320  1.5439  1.2105 -2.2446
  406MOL0     H54784   9.613   9.698   9.135 -0.1509 -1.0724  0.4449
  406MOL0     H54785   9.571   9.864   9.095  2.2948  1.0687  1.3712
  406MOL0     H54786   9.437   9.670   9.305 -0.3495 -1.5199 -0.6486
  406MOL0     H54787   9.373   9.841   9.273 -2.5021 -2.7595  1.4984
  406MOL0     H54788   9.373   9.741   9.022  0.1098 -0.4287 -0.2732
  406MOL0     H54789   9.232   9.729   9.141  1.4567  1.6612  2.7365
  406MOL0     H54790   9.229   9.536   9.022  1.0105  1.9074 -1.9732
  406MOL0     H54791   9.300   9.509   9.185 -2.6878  2.1544  0.9904
  406MOL0     H54792  10.201   9.411   8.998 -0.8945  1.3643  0.4984
  406MOL0     H54793  10.434   9.339   8.990  3.5509  0.0497  1.2333
  406MOL0     H54794  10.887   9.568   9.133 -0.0846  0.8835 -1.0951
  406MOL0     H54795  11.130   9.536   9.151  0.6375 -1.4051 -0.2794
  406MOL0     H54796  11.037   9.607   9.868 -2.5141  1.6941 -0.2867
  406MOL0     H54797  10.787   9.587   9.952  2.3124  1.1348  1.4891
  406MOL0     H54798  10.446   9.293  10.102  1.8753  1.2031 -0.2949
  406MOL0     H54799  10.224   9.314  10.177  0.8393 -0.4624  0.5389
  406MOL0     H54800   9.984   9.666  10.097  1.1871 -1.9444  1.9476
  406MOL0     H54801   9.934   9.580   9.941 -0.4726 -1.0463  0.2366
  406MOL0     H54802   9.799   9.550  10.214 -2.9104  0.6465  0.2201
  406MOL0     H54803   9.780   9.440  10.076  3.9155 -1.7862  1.8356
  406MOL0     H54804   9.719   9.651   9.940  3.2086  0.3703 -0.0831
  406MOL0     H54805   9.720   9.742  10.101  0.5461 -0.3582 -0.6860
  406MOL0     H54806   9.544   9.642  10.187 -1.5568 -0.8515  0.2362
  406MOL0     H54807   9.547   9.505  10.069  0.6916  0.1972  0.1420
  406MOL0     H54808   9.285   9.800   9.914 -3.0231 -2.4267  0.8061
  406MOL0     H54809  10.142   9.633   9.909  1.7898  1.1895 -1.0262
  406MOL0     H54810  10.365   9.612   9.814 -2.0249  2.5857  2.1806
  407MOL0     O54811   1.835   6.413   8.084  0.2361  0.5600 -0.4613
  407MOL0     C54812   1.919   6.392   8.001 -0.3020  0.0908 -0.0596
  407MOL0     O54813   1.884   6.342   7.877 -0.2449  0.8877  0.2234
  407MOL0     C54814   1.753   6.318   7.847  0.5589  0.0343  0.6269
  407MOL0     C54815   1.645   6.412   7.844 -0.0632 -0.1903  0.1062
  407MOL0     C54816   1.513   6.379   7.846 -0.5040  0.2073 -0.7747
  407MOL0     C54817   1.475   6.249   7.815 -0.2356 -0.0506  0.5144
  407MOL0     O54818   1.343   6.212   7.801  0.9129  0.4168  0.6375
  407MOL0     C54819   1.239   6.301   7.845 -0.2003 -0.0444 -0.0501
  407MOL0     C54820   1.114   6.223   7.824 -0.2487  0.4578  0.2929
  407MOL0     C54821   0.997   6.312   7.866  1.0270 -0.7546  0.5807
  407MOL0     C54822   0.870   6.270   7.783  0.2469  0.1394  0.5656
  407MOL0     C54823   0.738   6.330   7.831 -1.0910 -0.2705  0.3715
  407MOL0     C54824   0.709   6.273   7.962 -0.3331  0.0937 -0.2718
  407MOL0     C54825   0.559   6.256   7.966 -0.0777 -0.6537  0.6737
  407MOL0     C54826   0.478   6.383   7.949 -0.0787 -0.2573  0.0854
  407MOL0     N54827   0.356   6.386   8.028 -0.2497  0.3029 -0.0364
  407MOL0     C54828   0.328   6.468   8.135 -0.3867 -0.2997 -0.1849
  407MOL0     C54829   0.217   6.430   8.186 -0.5997  0.3872  0.4558
  407MOL0     C54830   0.139   6.488   8.294  0.2201 -0.4113 -0.3025
  407MOL0     C54831  -0.002   6.542   8.261 -0.1516  0.2882  0.1705
  407MOL0     C54832  -0.104   6.423   8.210  0.6839  0.0245  0.5085
  407MOL0     C54833  -0.231   6.479   8.156  0.3712  0.7420  0.5099
  407MOL0     O54834  -0.245   6.461   8.011  0.8584  0.0373  0.1398
  407MOL0     C54835  -0.366   6.512   7.966 -0.4201 -0.6029  0.2381
  407MOL0     C54836  -0.481   6.435   7.948  0.6757  0.7145 -0.2677
  407MOL0     C54837  -0.597   6.484   7.884  1.1865  0.2046  0.3788
  407MOL0     C54838  -0.728   6.408   7.893 -0.3374  0.0417 -0.7460
  407MOL0     C54839  -0.594   6.608   7.809  0.0471  0.4059 -1.0082
  407MOL0     C54840  -0.708   6.665   7.728  0.1840 -0.6747  0.3098
  407MOL0     O54841  -0.834   6.613   7.747  0.1974 -0.1441 -0.2332
  407MOL0     C54842  -0.943   6.675   7.688 -0.4238 -0.3356 -1.3608
  407MOL0     C54843  -1.010   6.773   7.759 -0.0789  0.0742 -0.1441
  407MOL0     C54844  -1.132   6.814   7.709 -0.2420 -0.0849  0.3624
  407MOL0     C54845  -1.179   6.778   7.583 -0.2857  0.7484  0.5786
  407MOL0     O54846  -1.290   6.842   7.539  0.1475 -0.0004  0.2055
  407MOL0     C54847  -1.344   6.810   7.408 -0.0808  0.2356  0.7167
  407MOL0     C54848  -1.486   6.883   7.389 -0.5087  0.4025  0.4131
  407MOL0     C54849  -1.587   6.865   7.512 -0.5564  0.1664  0.2002
  407MOL0     C54850  -1.723   6.947   7.500 -0.3213  0.1579 -0.6992
  407MOL0     C54851  -1.804   6.896   7.622  0.1763 -0.8774  0.2164
  407MOL0     C54852  -1.953   6.920   7.610 -0.2268 -0.0909  0.0222
  407MOL0     C54853  -2.025   6.895   7.743  0.3563 -0.2717  0.0827
  407MOL0     C54854  -2.176   6.882   7.707  0.1444  0.4979  0.1640
  407MOL0    Cl54855  -2.264   6.855   7.856  0.3250 -0.1269  0.1186
  407MOL0     C54856  -1.115   6.670   7.514  0.4128 -0.5410 -0.7029
  407MOL0     C54857  -1.005   6.618   7.568 -0.4596 -0.5368 -0.0190
  407MOL0     O54858  -0.681   6.750   7.642 -1.1053 -0.4115 -0.3794
  407MOL0     C54859  -0.468   6.682   7.827 -0.6460 -0.4354 -0.3115
  407MOL0     C54860  -0.359   6.637   7.903  0.4059  0.8001 -0.2517
  407MOL0     N54861   0.162   6.337   8.098  0.1800 -0.4104 -0.6307
  407MOL0     N54862   0.250   6.306   8.015  0.9358 -0.7742  0.2247
  407MOL0     C54863   1.576   6.154   7.802 -0.0191 -0.6797  0.0551
  407MOL0     C54864   1.715   6.181   7.831 -1.7375  0.0415 -0.7013
  407MOL0     C54865   2.055   6.440   8.028  0.2255  0.5837  0.2221
  407MOL0     C54866   2.157   6.409   7.938 -0.1900 -0.5525 -0.0119
  407MOL0     C54867   2.293   6.452   7.960 -0.1429 -0.2037 -0.5044
  407MOL0     C54868   2.320   6.527   8.076 -0.3448 -0.0022 -0.1455
  407MOL0     O54869   2.447   6.569   8.113 -0.6193  0.3837 -0.5979
  407MOL0     C54870   2.560   6.535   8.030 -0.4758  0.8167  0.2324
  407MOL0     C54871   2.698   6.581   8.082 -0.0284 -0.5203  0.7750
  407MOL0     C54872   2.810   6.538   7.985  0.2237  0.5578 -0.1638
  407MOL0     C54873   2.940   6.555   8.059 -0.1213  0.1185 -0.4511
  407MOL0     C54874   3.000   6.688   8.053  0.1949  0.5902 -0.2290
  407MOL0     C54875   3.049   6.801   8.071 -0.1545  0.4818 -0.0144
  407MOL0     C54876   2.222   6.556   8.164  0.7914 -0.0577 -0.7383
  407MOL0     C54877   2.095   6.513   8.147 -0.2600 -0.3698  0.0983
  407MOL0     H54878   1.663   6.519   7.850 -1.8290  0.1665 -0.4119
  407MOL0     H54879   1.441   6.458   7.866 -0.7611 -0.1204 -0.3765
  407MOL0     H54880   1.245   6.317   7.953  0.4472 -2.1128  0.2658
  407MOL0     H54881   1.237   6.400   7.798 -0.5727  0.6751  1.4070
  407MOL0     H54882   1.104   6.194   7.719 -3.1105  2.0078  0.0400
  407MOL0     H54883   1.119   6.133   7.885  1.3289 -0.9383 -1.7247
  407MOL0     H54884   0.980   6.291   7.972  0.5791  0.4116  0.7607
  407MOL0     H54885   1.010   6.419   7.848 -0.7583 -0.8177 -1.5822
  407MOL0     H54886   0.893   6.306   7.683 -2.5730  1.7385  0.3942
  407MOL0     H54887   0.854   6.162   7.793 -3.5127  0.7337  2.6666
  407MOL0     H54888   0.741   6.439   7.835 -1.4338 -0.2887  1.7476
  407MOL0     H54889   0.670   6.286   7.757  0.8574 -0.4719 -1.3739
  407MOL0     H54890   0.759   6.179   7.986 -2.6538 -0.7760  1.5698
  407MOL0     H54891   0.747   6.351   8.030  2.8720  0.2108 -2.0133
  407MOL0     H54892   0.527   6.193   7.883 -3.9607 -0.4159  1.8349
  407MOL0     H54893   0.534   6.200   8.057  1.7729 -0.4271  1.3709
  407MOL0     H54894   0.445   6.379   7.845  0.1765  2.6874 -0.1819
  407MOL0     H54895   0.526   6.479   7.971 -0.7310 -0.5254  3.2374
  407MOL0     H54896   0.382   6.553   8.177  0.0219  0.2419 -1.7318
  407MOL0     H54897   0.131   6.408   8.368  1.5702 -1.6037 -1.3911
  407MOL0     H54898   0.187   6.575   8.340 -3.6669  1.5896  0.3735
  407MOL0     H54899   0.010   6.613   8.179  0.7827  1.3579  1.1904
  407MOL0     H54900  -0.045   6.592   8.349 -0.4100  2.6529 -1.2285
  407MOL0     H54901  -0.107   6.353   8.294  0.7400  0.7050  1.0830
  407MOL0     H54902  -0.066   6.362   8.127 -0.2969 -0.2594  0.2554
  407MOL0     H54903  -0.250   6.582   8.189 -0.0940  0.4090  1.3046
  407MOL0     H54904  -0.313   6.422   8.201  1.3588  0.2705  1.7345
  407MOL0     H54905  -0.479   6.334   7.987 -1.1082  0.2391 -1.2782
  407MOL0     H54906  -0.759   6.368   7.796 -1.4728 -2.6703  0.6196
  407MOL0     H54907  -0.722   6.327   7.967 -0.7863 -0.8666 -1.6871
  407MOL0     H54908  -0.808   6.467   7.940  0.2970  1.1270 -1.0026
  407MOL0     H54909  -0.980   6.810   7.857  3.0349  1.8009 -1.6042
  407MOL0     H54910  -1.196   6.888   7.756  0.3518  0.8377 -0.2502
  407MOL0     H54911  -1.268   6.824   7.331 -0.9964  0.0078 -0.2445
  407MOL0     H54912  -1.357   6.702   7.397 -0.5791  0.4839 -1.6712
  407MOL0     H54913  -1.468   6.990   7.373 -0.5897  0.2791 -0.5674
  407MOL0     H54914  -1.532   6.842   7.299  1.1095 -1.7704  0.5096
  407MOL0     H54915  -1.545   6.896   7.608  1.6135 -0.9336 -0.3361
  407MOL0     H54916  -1.610   6.758   7.515  3.2543 -0.8373 -1.1083
  407MOL0     H54917  -1.706   7.055   7.508  1.8228 -0.1955  0.3146
  407MOL0     H54918  -1.766   6.924   7.402  0.1914 -1.3031 -0.6060
  407MOL0     H54919  -1.762   6.949   7.708  2.4647 -2.0815 -0.0608
  407MOL0     H54920  -1.786   6.788   7.633  0.6944 -0.8233 -0.1054
  407MOL0     H54921  -1.964   7.023   7.573 -0.4960  0.9984  2.8491
  407MOL0     H54922  -2.004   6.852   7.542 -1.5775  1.3791 -0.5067
  407MOL0     H54923  -2.006   6.979   7.811 -2.2728  1.9152 -1.6474
  407MOL0     H54924  -1.988   6.800   7.782  1.0869 -0.0396 -0.0366
  407MOL0     H54925  -2.198   6.789   7.653  1.1805  0.3374 -0.0109
  407MOL0     H54926  -2.218   6.970   7.658  2.2527  3.0369  2.5602
  407MOL0     H54927  -1.156   6.633   7.420  0.8463  1.3898 -1.7213
  407MOL0     H54928  -0.958   6.533   7.520  1.2551  0.1494  0.3456
  407MOL0     H54929  -0.462   6.781   7.783 -1.2059  0.3670  1.3217
  407MOL0     H54930  -0.263   6.688   7.899  2.7609 -3.2929 -2.4012
  407MOL0     H54931   1.539   6.056   7.773 -1.1067  0.1582 -1.5998
  407MOL0     H54932   1.792   6.105   7.836 -1.0344  0.7435 -0.6295
  407MOL0     H54933   2.125   6.346   7.856 -3.4233 -1.3946  1.7286
  407MOL0     H54934   2.369   6.426   7.888 -2.0329 -2.1726 -1.9209
  407MOL0     H54935   2.557   6.426   8.020  0.6778  0.9115 -1.8177
  407MOL0     H54936   2.553   6.567   7.925  1.6178 -1.1349 -0.5980
  407MOL0     H54937   2.720   6.546   8.183  4.2369 -0.3611  0.0668
  407MOL0     H54938   2.702   6.691   8.084  0.2248 -0.4471 -1.4568
  407MOL0     H54939   2.805   6.607   7.901  0.8737  0.2328 -0.4757
  407MOL0     H54940   2.793   6.437   7.946  0.7158  0.1739  0.5990
  407MOL0     H54941   3.016   6.485   8.024 -0.7992 -0.1735 -1.3659
  407MOL0     H54942   2.914   6.538   8.164 -1.2366  1.2530 -0.5159
  407MOL0     H54943   3.071   6.902   8.100 -0.7913 -0.1187  2.8802
  407MOL0     H54944   2.254   6.614   8.250  0.0772 -1.1720  0.3314
  407MOL0     H54945   2.017   6.546   8.215  0.4883  0.4018  0.6001
  408MOL0     O54946   6.452   8.158   5.687 -0.3392 -0.5486  0.6034
  408MOL0     C54947   6.517   8.087   5.610  0.6333  0.3446  0.0261
  408MOL0     O54948   6.470   7.979   5.537  0.1003 -0.2044 -0.1357
  408MOL0     C54949   6.338   7.985   5.503 -0.6714 -0.1356 -1.4302
  408MOL0     C54950   6.267   8.108   5.467  1.0387  0.8496 -0.3517
  408MOL0     C54951   6.125   8.090   5.435  0.3015  0.7169 -0.2167
  408MOL0     C54952   6.058   7.966   5.437 -0.4803  0.2234 -0.1154
  408MOL0     O54953   5.926   7.962   5.394  0.3751 -0.3712  0.2424
  408MOL0     C54954   5.839   7.858   5.442 -0.1922 -0.1763  0.2816
  408MOL0     C54955   5.704   7.874   5.379  1.0141  0.0179  0.4406
  408MOL0     C54956   5.616   7.759   5.425  0.3068  0.2391  0.9471
  408MOL0     C54957   5.532   7.790   5.545 -0.0918  0.2949 -0.7226
  408MOL0     C54958   5.406   7.705   5.596 -0.4456 -0.9708  0.2646
  408MOL0     C54959   5.283   7.733   5.515 -0.0730 -0.0302  0.0928
  408MOL0     C54960   5.146   7.680   5.559 -0.7490 -0.0078  0.3652
  408MOL0     C54961   5.027   7.733   5.481 -0.6064 -0.4530 -0.1356
  408MOL0     N54962   4.907   7.661   5.488  0.0810  0.8407 -0.2444
  408MOL0     C54963   4.842   7.621   5.599 -0.3762  0.5066 -0.2108
  408MOL0     C54964   4.725   7.564   5.558  0.6773 -0.4172 -0.7552
  408MOL0     C54965   4.613   7.509   5.650  0.8710 -0.0102 -0.3916
  408MOL0     C54966   4.480   7.526   5.580 -0.4583  0.1728 -0.0050
  408MOL0     C54967   4.366   7.472   5.661 -0.1087  0.1639 -0.7336
  408MOL0     C54968   4.306   7.556   5.767 -0.2623  0.2939 -0.2263
  408MOL0     O54969   4.186   7.496   5.804  0.0777 -0.2360 -0.3455
  408MOL0     C54970   4.078   7.571   5.845 -0.3838  0.6331 -0.4484
  408MOL0     C54971   4.078   7.707   5.876  0.3462 -0.1905 -0.1351
  408MOL0     C54972   3.962   7.782   5.897  0.7834  0.2126  0.9593
  408MOL0     C54973   3.978   7.928   5.933 -0.3551 -0.4370  0.3643
  408MOL0     C54974   3.838   7.715   5.896  0.2077  0.0168 -0.5087
  408MOL0     C54975   3.711   7.789   5.911  0.0841 -0.5812  0.1227
  408MOL0     O54976   3.606   7.732   5.983  0.6203 -0.4305  0.3817
  408MOL0     C54977   3.480   7.780   5.942  0.0601  0.1272  0.7526
  408MOL0     C54978   3.417   7.881   6.015 -0.9213 -0.0469  0.2519
  408MOL0     C54979   3.296   7.929   5.983  0.3226  0.3575  0.3137
  408MOL0     C54980   3.216   7.863   5.886 -0.1528 -0.6922 -0.6977
  408MOL0     O54981   3.082   7.894   5.863  0.2186 -0.0410 -0.3262
  408MOL0     C54982   3.037   8.029   5.875 -0.1324 -0.0166 -0.3389
  408MOL0     C54983   2.960   8.049   6.001  0.3389 -0.5393  0.1756
  408MOL0     C54984   2.824   7.979   5.987 -0.1905  0.4026 -0.1436
  408MOL0     C54985   2.738   8.009   6.111 -0.4002 -0.5859 -0.2087
  408MOL0     C54986   2.614   7.915   6.131 -0.1965 -0.9643  0.4798
  408MOL0     C54987   2.506   7.969   6.032 -0.7104  0.2531  0.3206
  408MOL0     C54988   2.382   7.885   6.048  0.9047 -1.0200  0.1617
  408MOL0     C54989   2.270   7.944   5.968 -0.3610 -0.5189 -0.2508
  408MOL0    Cl54990   2.231   8.097   6.041  0.3382 -0.0836  0.0111
  408MOL0     C54991   3.278   7.769   5.808 -0.7096  0.3792  0.2282
  408MOL0     C54992   3.406   7.720   5.840 -0.1743  0.5002 -0.0581
  408MOL0     O54993   3.701   7.902   5.864 -0.0911  0.6703  0.2381
  408MOL0     C54994   3.836   7.574   5.879 -0.3186 -0.1273  0.0563
  408MOL0     C54995   3.956   7.506   5.841 -0.5170  0.0173  0.1417
  408MOL0     N54996   4.737   7.568   5.423 -0.6979 -0.4535  0.3791
  408MOL0     N54997   4.842   7.624   5.378  0.3877  0.0067  0.0026
  408MOL0     C54998   6.131   7.857   5.469 -1.0168 -0.3066 -0.5453
  408MOL0     C54999   6.272   7.864   5.488  0.3530  0.8610 -0.1594
  408MOL0     C55000   6.666   8.115   5.613 -0.9295  0.0668 -0.0032
  408MOL0     C55001   6.711   8.233   5.680 -0.6133  0.9370 -0.2444
  408MOL0     C55002   6.846   8.259   5.681 -0.6463 -0.0188 -0.1120
  408MOL0     C55003   6.943   8.177   5.613  0.9644  0.4192  0.2739
  408MOL0     O55004   7.077   8.202   5.610  0.8126  0.2937  0.9176
  408MOL0     C55005   7.131   8.255   5.732 -0.8552 -0.0611 -0.3581
  408MOL0     C55006   7.278   8.211   5.748  0.0072  0.5152 -0.2060
  408MOL0     C55007   7.369   8.253   5.636 -1.1321  0.1298 -0.2726
  408MOL0     C55008   7.518   8.232   5.677  0.3658 -0.4924 -0.0555
  408MOL0     C55009   7.555   8.096   5.719 -0.5577 -0.5386  0.0229
  408MOL0     C55010   7.581   7.978   5.738  0.1322 -0.1985 -0.0139
  408MOL0     C55011   6.894   8.060   5.547  0.7841  0.3363  0.1911
  408MOL0     C55012   6.756   8.033   5.544 -0.0332 -0.0727 -0.6604
  408MOL0     H55013   6.313   8.206   5.462  2.7596  0.0795 -0.1902
  408MOL0     H55014   6.069   8.181   5.417 -1.4036 -0.3730 -0.5838
  408MOL0     H55015   5.877   7.757   5.422  1.0280  0.6987 -2.2545
  408MOL0     H55016   5.825   7.866   5.550 -0.3241  1.2801  0.1820
  408MOL0     H55017   5.668   7.973   5.407  2.1430  0.4060  0.6051
  408MOL0     H55018   5.713   7.876   5.270  1.3573 -0.7652  0.4436
  408MOL0     H55019   5.544   7.744   5.344  1.3515  1.9297 -0.3617
  408MOL0     H55020   5.660   7.660   5.439  1.3765  0.8839  2.3261
  408MOL0     H55021   5.618   7.775   5.612 -0.3020  1.1194 -0.2610
  408MOL0     H55022   5.501   7.895   5.545 -2.9592 -0.4013  1.7974
  408MOL0     H55023   5.421   7.597   5.598  1.4363 -0.7709  3.6455
  408MOL0     H55024   5.386   7.729   5.701 -4.1800  1.3278 -0.7450
  408MOL0     H55025   5.273   7.842   5.512 -0.6620 -0.0329  1.3535
  408MOL0     H55026   5.310   7.690   5.418  2.1089  0.6553  0.3449
  408MOL0     H55027   5.149   7.571   5.547 -2.5863 -0.3507  2.4774
  408MOL0     H55028   5.139   7.705   5.665 -0.5385 -2.1389  0.9368
  408MOL0     H55029   5.062   7.737   5.377 -1.6115  1.0317 -0.4566
  408MOL0     H55030   5.015   7.839   5.504  0.3040 -0.1237 -1.0958
  408MOL0     H55031   4.866   7.643   5.702 -1.0445  1.4518 -0.2537
  408MOL0     H55032   4.638   7.408   5.683  2.2833  0.2507 -0.5836
  408MOL0     H55033   4.615   7.576   5.736  1.9611  2.1399 -1.9980
  408MOL0     H55034   4.477   7.475   5.483  1.0652  0.5652 -0.2763
  408MOL0     H55035   4.463   7.632   5.559  0.4322 -0.0328 -2.0604
  408MOL0     H55036   4.394   7.377   5.708  0.0194  1.0894  1.1340
  408MOL0     H55037   4.286   7.445   5.592 -0.8311  1.0507 -0.2636
  408MOL0     H55038   4.280   7.648   5.713 -0.8773 -0.6676 -1.6049
  408MOL0     H55039   4.365   7.577   5.857 -1.3599  2.2908  0.0920
  408MOL0     H55040   4.170   7.765   5.874  0.3575 -0.1912  0.3265
  408MOL0     H55041   4.032   7.977   5.851  1.5559 -0.5799  1.4732
  408MOL0     H55042   3.886   7.980   5.961 -1.2977 -1.7314 -0.2477
  408MOL0     H55043   4.049   7.931   6.016 -0.9289 -1.1051  0.8880
  408MOL0     H55044   3.481   7.922   6.092  0.8890 -2.6824  0.2906
  408MOL0     H55045   3.243   8.000   6.045 -2.2228 -0.9048 -0.3028
  408MOL0     H55046   3.125   8.094   5.884  0.2128 -0.7485  4.2055
  408MOL0     H55047   2.984   8.064   5.787 -0.8832  1.5449  0.6823
  408MOL0     H55048   3.011   7.999   6.085  0.2059  3.4685  2.9266
  408MOL0     H55049   2.952   8.153   6.034 -1.4039 -1.0182  1.4053
  408MOL0     H55050   2.844   7.873   5.968  0.6183  1.0410 -3.7613
  408MOL0     H55051   2.770   8.007   5.896  1.9064 -1.6048 -2.1610
  408MOL0     H55052   2.798   7.998   6.201 -1.1851  1.7494  0.6949
  408MOL0     H55053   2.705   8.114   6.113  2.5555  0.4654  2.7562
  408MOL0     H55054   2.575   7.930   6.232  0.1120  0.6063  0.3830
  408MOL0     H55055   2.641   7.809   6.126 -0.5841 -1.0831  0.7857
  408MOL0     H55056   2.495   8.077   6.044  0.7325  0.4140  0.4070
  408MOL0     H55057   2.543   7.949   5.931 -1.4903  2.1884 -0.3806
  408MOL0     H55058   2.354   7.901   6.153  1.4491  0.1829  0.1420
  408MOL0     H55059   2.406   7.780   6.025 -1.0413 -1.2750 -0.8146
  408MOL0     H55060   2.182   7.878   5.967  2.2385 -4.3001  0.8233
  408MOL0     H55061   2.303   7.954   5.865 -1.0077 -0.4548 -0.4553
  408MOL0     H55062   3.230   7.738   5.716 -1.1068  0.6287  0.3443
  408MOL0     H55063   3.450   7.635   5.789 -0.7959  0.2042 -0.1068
  408MOL0     H55064   3.753   7.506   5.873  1.4992 -2.3511 -1.6706
  408MOL0     H55065   3.953   7.405   5.801  1.2160 -0.7941  1.8821
  408MOL0     H55066   6.086   7.758   5.477 -0.9024 -0.3208 -0.0259
  408MOL0     H55067   6.333   7.775   5.497 -0.9798 -0.0637  0.0473
  408MOL0     H55068   6.644   8.305   5.727 -0.9591  0.2320  0.3503
  408MOL0     H55069   6.891   8.347   5.725 -3.6904  2.0376 -0.7151
  408MOL0     H55070   7.118   8.363   5.722 -0.3993 -0.2216 -4.4467
  408MOL0     H55071   7.079   8.220   5.822  0.9253 -0.3897  0.5797
  408MOL0     H55072   7.278   8.102   5.757 -0.0935  0.6140  1.2446
  408MOL0     H55073   7.320   8.247   5.842 -0.3742 -1.8038  0.9171
  408MOL0     H55074   7.350   8.359   5.617  0.6756  0.4425 -0.5397
  408MOL0     H55075   7.346   8.198   5.544 -3.6971  1.8542 -0.7893
  408MOL0     H55076   7.536   8.299   5.761  0.3950 -0.7548  0.1477
  408MOL0     H55077   7.583   8.257   5.592  0.4419 -3.2827 -0.9365
  408MOL0     H55078   7.602   7.876   5.763  1.2047  0.3855  1.5732
  408MOL0     H55079   6.966   7.994   5.499  1.5988 -0.8392  2.8556
  408MOL0     H55080   6.721   7.949   5.485 -0.7343  0.8341 -1.5710
  409MOL0     O55081   7.028   6.938   3.137 -0.6501  1.0814  0.1036
  409MOL0     C55082   7.103   6.884   3.056 -0.3230 -1.1639  0.4605
  409MOL0     O55083   7.079   6.774   2.982  1.1117  0.0828  0.6221
  409MOL0     C55084   6.955   6.720   3.014 -0.6702 -0.5630 -0.5740
  409MOL0     C55085   6.841   6.778   2.950  0.3408 -0.4545  0.1302
  409MOL0     C55086   6.716   6.719   2.978 -0.5441 -0.1748 -0.3974
  409MOL0     C55087   6.707   6.614   3.068 -0.0329  0.2910 -0.5264
  409MOL0     O55088   6.579   6.587   3.099  0.1602  0.4322  0.2332
  409MOL0     C55089   6.541   6.487   3.188  1.0105 -0.0574 -0.3524
  409MOL0     C55090   6.390   6.468   3.198  0.4343 -0.2926  0.7027
  409MOL0     C55091   6.326   6.604   3.240  0.0591  0.6687  0.8745
  409MOL0     C55092   6.186   6.574   3.263  1.0966 -0.8250  0.3748
  409MOL0     C55093   6.094   6.696   3.265  0.1875  0.6374 -0.9083
  409MOL0     C55094   5.947   6.657   3.232 -0.4313  0.9036  0.5431
  409MOL0     C55095   5.860   6.787   3.248  0.5068  0.3521  0.0870
  409MOL0     C55096   5.716   6.767   3.201 -0.8971  0.2564  0.4973
  409MOL0     N55097   5.642   6.893   3.191  0.1644  0.6914  0.2939
  409MOL0     C55098   5.676   6.996   3.111 -0.0016  0.3697 -0.3759
  409MOL0     C55099   5.585   7.096   3.136  0.2094  0.5415  0.9751
  409MOL0     C55100   5.578   7.225   3.074  0.4147  0.1389  0.1543
  409MOL0     C55101   5.467   7.311   3.124 -1.2963  0.1273  0.4088
  409MOL0     C55102   5.473   7.444   3.038  0.1745 -0.3729 -0.3207
  409MOL0     C55103   5.349   7.543   3.049 -1.3226  0.7723  0.2180
  409MOL0     O55104   5.395   7.648   2.967  0.0619 -0.2168  0.1833
  409MOL0     C55105   5.309   7.747   2.948  0.1053 -0.2519  0.8531
  409MOL0     C55106   5.175   7.747   2.995  0.6658 -0.1270  0.1834
  409MOL0     C55107   5.084   7.837   2.954 -0.2759  0.7740  0.1011
  409MOL0     C55108   4.940   7.824   3.001  0.7765 -0.0944  0.7390
  409MOL0     C55109   5.128   7.949   2.876  0.9061  0.5272 -0.0725
  409MOL0     C55110   5.044   8.048   2.814  0.0592 -0.1489  0.1674
  409MOL0     O55111   4.913   8.018   2.780  0.9864 -0.3074  0.1873
  409MOL0     C55112   4.819   8.104   2.718 -0.2345 -0.5237  0.2210
  409MOL0     C55113   4.853   8.220   2.653  0.4498 -0.1391 -0.4875
  409MOL0     C55114   4.761   8.303   2.593  0.8171 -0.5620  0.2335
  409MOL0     C55115   4.623   8.290   2.627 -0.4306  0.0548  0.4657
  409MOL0     O55116   4.517   8.364   2.583 -0.6350 -0.3661 -0.2748
  409MOL0     C55117   4.544   8.453   2.472 -0.2193  0.1199  0.0746
  409MOL0     C55118   4.410   8.525   2.447 -0.0812  0.2238 -0.2620
  409MOL0     C55119   4.407   8.611   2.326  1.2534  0.1008 -0.1491
  409MOL0     C55120   4.273   8.686   2.333 -0.6280 -0.6591  0.2594
  409MOL0     C55121   4.260   8.779   2.210 -0.8379 -0.5585 -0.3941
  409MOL0     C55122   4.130   8.863   2.213 -0.1778  0.5095  0.0060
  409MOL0     C55123   4.111   8.952   2.086 -0.9621  0.0726 -0.0878
  409MOL0     C55124   3.965   9.001   2.097 -0.0414 -0.4969 -0.2890
  409MOL0    Cl55125   3.947   9.100   2.236 -0.0217 -0.7485  0.0381
  409MOL0     C55126   4.592   8.173   2.700 -0.1297 -0.7422  0.4642
  409MOL0     C55127   4.684   8.075   2.724  0.1132  0.3344  0.0311
  409MOL0     O55128   5.096   8.160   2.787 -0.0613 -0.0471 -0.3960
  409MOL0     C55129   5.268   7.960   2.843 -0.3588 -0.1060 -0.2600
  409MOL0     C55130   5.354   7.855   2.876  0.4237 -0.0883  0.1552
  409MOL0     N55131   5.498   7.045   3.234 -0.0335 -0.7842  0.0889
  409MOL0     N55132   5.530   6.929   3.264  0.1426 -0.2906  0.1582
  409MOL0     C55133   6.816   6.570   3.134  0.2003 -0.1967 -0.4412
  409MOL0     C55134   6.941   6.617   3.101  0.6531 -0.0580 -0.0640
  409MOL0     C55135   7.232   6.957   3.034  0.0952 -0.2662  0.7070
  409MOL0     C55136   7.331   6.890   2.958  0.3250 -0.0853  0.1479
  409MOL0     C55137   7.455   6.946   2.938  0.1021  0.7759 -0.2942
  409MOL0     C55138   7.478   7.079   2.972  0.6721  0.1468  0.0647
  409MOL0     O55139   7.589   7.158   2.930  0.3858 -0.2316  0.0458
  409MOL0     C55140   7.678   7.088   2.830  0.5328  0.0876 -1.0942
  409MOL0     C55141   7.797   7.164   2.798  0.0883 -0.4022 -0.3671
  409MOL0     C55142   7.900   7.170   2.910 -0.6437 -0.0316 -0.7709
  409MOL0     C55143   8.014   7.272   2.899  0.8059  0.1531 -0.2591
  409MOL0     C55144   8.117   7.249   2.796  1.2001  0.4791  0.3039
  409MOL0     C55145   8.201   7.232   2.721 -0.4441 -0.0277  1.1297
  409MOL0     C55146   7.383   7.147   3.039  0.3453 -0.3518  0.1726
  409MOL0     C55147   7.263   7.089   3.084  0.0229  0.4597 -0.1149
  409MOL0     H55148   6.850   6.859   2.879  1.1788 -0.6116  0.0361
  409MOL0     H55149   6.631   6.769   2.932 -0.1164  0.9490  0.0148
  409MOL0     H55150   6.587   6.393   3.157  1.9281  1.0043 -2.4317
  409MOL0     H55151   6.574   6.511   3.290 -2.2272 -1.6056  1.2225
  409MOL0     H55152   6.341   6.448   3.102  0.1466 -0.2550  0.8427
  409MOL0     H55153   6.368   6.385   3.265 -4.0061  1.2760  1.5299
  409MOL0     H55154   6.371   6.647   3.331  0.5558  0.0745  0.9208
  409MOL0     H55155   6.341   6.667   3.152 -0.9618 -2.3377 -1.6459
  409MOL0     H55156   6.156   6.528   3.168  0.8020 -0.5534  0.3327
  409MOL0     H55157   6.166   6.504   3.344 -1.6105 -2.0607 -1.1988
  409MOL0     H55158   6.119   6.750   3.357  1.1404  0.1831 -0.8859
  409MOL0     H55159   6.139   6.766   3.194  1.8666  1.1970  0.6140
  409MOL0     H55160   5.952   6.623   3.128  2.0290  0.7075  0.6681
  409MOL0     H55161   5.912   6.581   3.302  0.4696  2.1003  2.3544
  409MOL0     H55162   5.865   6.812   3.354  1.2546 -2.5439  0.8037
  409MOL0     H55163   5.913   6.865   3.192  1.8520 -2.1299 -2.3340
  409MOL0     H55164   5.660   6.703   3.271 -1.3976  1.9316  1.6884
  409MOL0     H55165   5.711   6.730   3.099  1.2166  2.9377 -0.7026
  409MOL0     H55166   5.766   7.006   3.051  1.8187 -4.6596  0.9919
  409MOL0     H55167   5.666   7.290   3.071 -2.4493  4.4284 -0.9139
  409MOL0     H55168   5.559   7.200   2.969  0.1154 -1.0277  0.4693
  409MOL0     H55169   5.464   7.332   3.232 -2.4422 -3.0680  1.1107
  409MOL0     H55170   5.369   7.266   3.105 -0.5535 -3.6266  4.0100
  409MOL0     H55171   5.491   7.422   2.933 -2.4650  4.0560 -1.9946
  409MOL0     H55172   5.566   7.495   3.063 -0.8427  0.9717  0.9215
  409MOL0     H55173   5.331   7.590   3.146 -2.2475  0.4754  0.1919
  409MOL0     H55174   5.256   7.502   3.009 -1.0286  2.1111 -2.0093
  409MOL0     H55175   5.132   7.668   3.055  1.3132 -0.4262  0.2683
  409MOL0     H55176   4.916   7.926   3.031 -0.7021  0.9001 -3.1878
  409MOL0     H55177   4.876   7.804   2.914 -0.0863  3.9133  0.2541
  409MOL0     H55178   4.921   7.753   3.082 -0.2649  1.7107  2.1271
  409MOL0     H55179   4.954   8.256   2.637 -0.3270  3.3266  1.2901
  409MOL0     H55180   4.794   8.389   2.537 -1.4766 -0.1131 -0.5395
  409MOL0     H55181   4.629   8.521   2.482  0.3843 -0.6986  0.6890
  409MOL0     H55182   4.568   8.388   2.387  1.8953 -1.8728  2.0538
  409MOL0     H55183   4.324   8.459   2.436 -0.4897  0.1136  2.7694
  409MOL0     H55184   4.387   8.591   2.531 -1.7040  0.8942 -1.1912
  409MOL0     H55185   4.403   8.556   2.231 -0.7580  0.5009 -0.3271
  409MOL0     H55186   4.497   8.673   2.326  0.9760  0.5058  0.4961
  409MOL0     H55187   4.184   8.623   2.322 -2.0643  1.6234 -2.7038
  409MOL0     H55188   4.267   8.742   2.426  3.4319 -1.6876  1.3450
  409MOL0     H55189   4.261   8.717   2.119 -0.4130 -0.5243 -0.4145
  409MOL0     H55190   4.346   8.846   2.201 -0.9456 -0.4182 -0.3579
  409MOL0     H55191   4.042   8.797   2.222 -0.4909  1.0029  0.5692
  409MOL0     H55192   4.129   8.924   2.304  1.8570 -0.8301  0.9913
  409MOL0     H55193   4.122   8.909   1.986 -1.9284  4.0995 -2.1356
  409MOL0     H55194   4.186   9.032   2.089  1.9204 -2.4383  0.1894
  409MOL0     H55195   3.886   8.926   2.102 -0.3811 -0.0710  2.1844
  409MOL0     H55196   3.935   9.062   2.011 -0.3765 -0.9304 -0.4788
  409MOL0     H55197   4.486   8.152   2.710 -0.3642 -0.3180 -0.9417
  409MOL0     H55198   4.659   7.978   2.767 -0.2059  0.0850 -0.7092
  409MOL0     H55199   5.316   8.042   2.790 -0.3462  1.2173  1.7013
  409MOL0     H55200   5.458   7.870   2.847 -0.1421  0.2272 -1.8423
  409MOL0     H55201   6.800   6.499   3.215 -1.9091 -0.3794 -0.9546
  409MOL0     H55202   7.032   6.576   3.143 -0.5840 -0.1803  2.6735
  409MOL0     H55203   7.325   6.789   2.918  3.3203  0.1510 -1.1501
  409MOL0     H55204   7.525   6.885   2.881 -0.4137  1.1674 -1.3813
  409MOL0     H55205   7.718   6.994   2.868  1.4355  1.2311  0.9607
  409MOL0     H55206   7.622   7.072   2.737  1.5776 -0.2444 -1.6802
  409MOL0     H55207   7.771   7.268   2.776 -0.6642  0.8952  5.2534
  409MOL0     H55208   7.851   7.124   2.711  2.0423  0.5346  0.3450
  409MOL0     H55209   7.944   7.070   2.923 -0.7880 -0.0227 -0.1794
  409MOL0     H55210   7.835   7.190   2.996 -1.1818 -1.5782 -0.7878
  409MOL0     H55211   8.059   7.279   2.998 -1.2327 -0.5573  0.7675
  409MOL0     H55212   7.970   7.372   2.887  0.4010  0.5128  3.2410
  409MOL0     H55213   8.281   7.224   2.650 -1.6892 -0.2691 -0.2845
  409MOL0     H55214   7.400   7.253   3.057 -0.5610  0.6006 -3.6264
  409MOL0     H55215   7.196   7.145   3.148 -0.9857  0.3956 -1.0950
  410MOL0     O55216   8.275   6.942   3.607 -0.0045 -0.0602  0.1070
  410MOL0     C55217   8.323   6.849   3.672 -0.1402 -0.2122 -0.6544
  410MOL0     O55218   8.249   6.775   3.767 -0.5938  0.0953 -0.2519
  410MOL0     C55219   8.119   6.800   3.794  0.0233 -0.5172 -0.1558
  410MOL0     C55220   8.075   6.931   3.822  0.9712  0.6787  0.0720
  410MOL0     C55221   7.945   6.951   3.862  0.5832  0.1555 -0.7964
  410MOL0     C55222   7.857   6.847   3.862  0.7745 -0.2120  0.0220
  410MOL0     O55223   7.734   6.874   3.908 -0.3365  0.1241 -0.7769
  410MOL0     C55224   7.628   6.856   3.811  0.4019  1.1160 -0.3337
  410MOL0     C55225   7.519   6.807   3.897  0.0749  0.1795  0.8658
  410MOL0     C55226   7.480   6.925   3.980  0.7156 -0.3124 -0.0708
  410MOL0     C55227   7.354   6.902   4.060  0.1480 -0.2734  0.5575
  410MOL0     C55228   7.318   7.031   4.142 -0.8119  0.3190 -0.2559
  410MOL0     C55229   7.235   7.122   4.058 -0.5379  0.2052  0.4263
  410MOL0     C55230   7.243   7.268   4.096 -0.0814  0.5931  0.1152
  410MOL0     C55231   7.157   7.354   3.994  0.1921  0.1193 -0.5750
  410MOL0     N55232   7.018   7.322   4.005 -0.4681 -0.1198 -0.3691
  410MOL0     C55233   6.925   7.391   4.075  0.1740  0.5699 -0.2191
  410MOL0     C55234   6.814   7.323   4.043 -0.6294  0.6390  0.2137
  410MOL0     C55235   6.669   7.369   4.089 -0.4370 -0.1579 -0.5037
  410MOL0     C55236   6.633   7.279   4.212  0.5592  0.1023  0.3339
  410MOL0     C55237   6.493   7.304   4.251 -0.1791 -0.7209  0.5757
  410MOL0     C55238   6.469   7.264   4.391 -0.3421  0.7914  0.4538
  410MOL0     O55239   6.334   7.282   4.442 -0.0915  0.3370 -0.0751
  410MOL0     C55240   6.221   7.232   4.389 -0.4172  0.2593 -0.1040
  410MOL0     C55241   6.206   7.115   4.315 -0.1873  1.3474 -0.1727
  410MOL0     C55242   6.078   7.061   4.285  0.2173 -0.5440  0.2164
  410MOL0     C55243   6.065   6.925   4.216 -0.0326 -0.7396 -0.0721
  410MOL0     C55244   5.960   7.128   4.343 -0.7604  0.1239 -0.1355
  410MOL0     C55245   5.820   7.091   4.314 -0.0166 -0.4950 -0.1340
  410MOL0     O55246   5.723   7.134   4.399 -0.3034  0.4421 -0.2067
  410MOL0     C55247   5.586   7.130   4.371  0.7802 -0.0901 -0.7629
  410MOL0     C55248   5.523   7.045   4.281 -0.1414 -0.7606 -0.4471
  410MOL0     C55249   5.382   7.052   4.263  0.2353  0.8190  0.6045
  410MOL0     C55250   5.310   7.145   4.328  0.2098  0.2638  0.3562
  410MOL0     O55251   5.174   7.159   4.311  0.8976 -0.0275  0.0014
  410MOL0     C55252   5.097   7.036   4.283 -0.4575  0.1221 -0.0986
  410MOL0     C55253   4.946   7.069   4.285 -0.6039 -0.0773  0.0367
  410MOL0     C55254   4.900   7.178   4.190  0.1164  0.5173 -0.6142
  410MOL0     C55255   4.880   7.121   4.050 -0.1432 -0.1871 -0.1022
  410MOL0     C55256   4.850   7.234   3.945 -0.2251 -0.0501  0.7172
  410MOL0     C55257   4.970   7.317   3.904  0.1413 -0.9351  0.0495
  410MOL0     C55258   4.923   7.423   3.808  0.1405  0.3352  0.4888
  410MOL0     C55259   4.815   7.519   3.859  0.4055  0.0220 -0.2403
  410MOL0    Cl55260   4.781   7.647   3.741  0.2492  0.0080 -0.1594
  410MOL0     C55261   5.366   7.228   4.429  0.5720  0.5784 -0.4532
  410MOL0     C55262   5.509   7.220   4.448  0.0079  0.3706  0.1233
  410MOL0     O55263   5.800   7.043   4.206  0.4155 -0.2908 -0.0372
  410MOL0     C55264   5.980   7.242   4.417  0.1578  0.4985  0.4653
  410MOL0     C55265   6.106   7.289   4.445 -0.7026  0.4517  0.5412
  410MOL0     N55266   6.842   7.233   3.938  0.1809  0.5246 -0.3332
  410MOL0     N55267   6.965   7.226   3.925 -0.1185 -0.1475 -0.0353
  410MOL0     C55268   7.905   6.722   3.828  0.4070  0.8861  0.6717
  410MOL0     C55269   8.038   6.688   3.799 -0.2121  0.5634 -0.3876
  410MOL0     C55270   8.469   6.821   3.648 -0.2160  0.3363 -0.1941
  410MOL0     C55271   8.546   6.876   3.546 -0.7366  0.1254 -0.4456
  410MOL0     C55272   8.686   6.849   3.532  0.9230  0.0230 -0.0377
  410MOL0     C55273   8.747   6.771   3.619 -0.3002 -0.1698 -0.7501
  410MOL0     O55274   8.881   6.744   3.608 -0.3302  0.0224 -0.7622
  410MOL0     C55275   8.945   6.757   3.481  0.2732  0.2176 -0.7694
  410MOL0     C55276   9.085   6.713   3.516 -0.2081 -0.3995 -0.0538
  410MOL0     C55277   9.183   6.758   3.405  0.0042 -0.8933  0.1117
  410MOL0     C55278   9.320   6.712   3.449 -0.1546  0.4801 -0.6611
  410MOL0     C55279   9.375   6.608   3.357  0.2579  0.0251  0.5809
  410MOL0     C55280   9.426   6.516   3.288  0.3713 -0.0088  0.1479
  410MOL0     C55281   8.679   6.717   3.728 -0.1175 -0.3970 -0.4691
  410MOL0     C55282   8.536   6.737   3.734 -0.2917 -0.9229  1.0898
  410MOL0     H55283   8.154   7.005   3.827  0.4814  1.3487 -1.5405
  410MOL0     H55284   7.903   7.044   3.899  2.3038  0.5340  0.3548
  410MOL0     H55285   7.596   6.948   3.762  0.6401  2.5277  2.0106
  410MOL0     H55286   7.651   6.789   3.728 -0.7130  0.9663 -0.5338
  410MOL0     H55287   7.426   6.786   3.843 -0.7467 -2.3705  3.0801
  410MOL0     H55288   7.564   6.719   3.945  2.9436  0.3138 -1.3230
  410MOL0     H55289   7.559   6.958   4.047  0.3175  0.4643  0.0259
  410MOL0     H55290   7.468   7.016   3.921  3.0127  0.6579  0.8645
  410MOL0     H55291   7.268   6.872   3.999  1.2057 -0.4310 -0.9200
  410MOL0     H55292   7.380   6.822   4.130 -1.9821 -0.7049  0.9269
  410MOL0     H55293   7.256   7.013   4.231  1.1574  0.0345  1.1058
  410MOL0     H55294   7.411   7.067   4.185  0.3342 -2.4556 -0.2361
  410MOL0     H55295   7.272   7.122   3.955 -2.1680 -2.7828 -0.2653
  410MOL0     H55296   7.139   7.070   4.052  0.7690 -2.4368  0.8847
  410MOL0     H55297   7.206   7.292   4.196 -0.8750  2.2268 -0.5370
  410MOL0     H55298   7.347   7.304   4.099 -0.1812  1.1376 -1.7602
  410MOL0     H55299   7.192   7.335   3.892 -1.3910  2.5988 -1.6790
  410MOL0     H55300   7.168   7.462   4.007 -0.6246  0.3199 -1.4762
  410MOL0     H55301   6.931   7.465   4.155  2.6728 -2.5651  2.7731
  410MOL0     H55302   6.673   7.474   4.120  1.5684 -0.0840 -0.8637
  410MOL0     H55303   6.606   7.373   3.999  1.5941  1.2524 -1.9771
  410MOL0     H55304   6.703   7.312   4.289  1.4142  1.7881 -1.0962
  410MOL0     H55305   6.624   7.171   4.192  0.4487 -0.1393  1.6174
  410MOL0     H55306   6.423   7.260   4.181  0.4174 -0.5084 -0.1715
  410MOL0     H55307   6.474   7.412   4.257 -3.4882 -1.1993  0.3727
  410MOL0     H55308   6.535   7.307   4.467  0.6987  0.9564 -0.5179
  410MOL0     H55309   6.492   7.157   4.392 -1.6401  0.4405  3.3250
  410MOL0     H55310   6.292   7.052   4.296  0.2707  1.0172  2.6228
  410MOL0     H55311   5.988   6.862   4.261 -0.9429  0.1257 -0.3715
  410MOL0     H55312   6.043   6.938   4.110 -3.1897  1.5727  0.7072
  410MOL0     H55313   6.161   6.873   4.214 -0.6668 -1.9545  0.0387
  410MOL0     H55314   5.579   6.970   4.227  0.5204 -2.1166  1.9612
  410MOL0     H55315   5.333   6.991   4.187  0.6926  1.9938 -0.6698
  410MOL0     H55316   5.122   7.011   4.180  1.8711  6.0681 -1.4284
  410MOL0     H55317   5.128   6.956   4.350 -0.6336 -1.6390 -2.0239
  410MOL0     H55318   4.898   6.974   4.259 -1.0872  0.2647 -0.3323
  410MOL0     H55319   4.912   7.083   4.388 -0.8203  2.7690 -0.3346
  410MOL0     H55320   4.961   7.267   4.175 -1.2848  1.9058  1.4299
  410MOL0     H55321   4.807   7.223   4.226  1.1271  1.5151  0.8116
  410MOL0     H55322   4.968   7.066   4.015 -0.6060 -1.2503  0.3530
  410MOL0     H55323   4.802   7.044   4.046  2.1917 -2.7043 -0.4981
  410MOL0     H55324   4.766   7.289   3.988  0.6734  1.9236  0.0462
  410MOL0     H55325   4.817   7.183   3.854  0.1204 -1.8465  1.5559
  410MOL0     H55326   5.009   7.367   3.994 -1.7601  1.3390 -0.2996
  410MOL0     H55327   5.052   7.252   3.870 -0.5705 -2.5633  1.2800
  410MOL0     H55328   4.890   7.373   3.716 -0.4283 -0.6996  1.2371
  410MOL0     H55329   5.006   7.485   3.772 -1.4179  1.9430 -0.4575
  410MOL0     H55330   4.852   7.549   3.957 -0.2140 -2.3024  0.7664
  410MOL0     H55331   4.722   7.461   3.867  0.2390  0.3364  0.1142
  410MOL0     H55332   5.301   7.299   4.479  0.1965 -1.0329  1.4954
  410MOL0     H55333   5.566   7.287   4.513  2.5806 -1.0572 -0.5097
  410MOL0     H55334   5.896   7.296   4.461  0.2031  0.9064  0.0562
  410MOL0     H55335   6.123   7.367   4.518  1.8149  1.0677 -0.5851
  410MOL0     H55336   7.839   6.636   3.819  2.6579 -1.0617  1.4770
  410MOL0     H55337   8.065   6.588   3.767  1.1027  0.9231 -0.4418
  410MOL0     H55338   8.491   6.940   3.478 -1.4362  0.7102  0.6437
  410MOL0     H55339   8.746   6.888   3.451  2.0766 -2.1707 -0.3102
  410MOL0     H55340   8.916   6.697   3.395 -1.1223  2.7868 -2.2065
  410MOL0     H55341   8.949   6.861   3.447  0.9183  0.8530  1.1147
  410MOL0     H55342   9.094   6.604   3.522  1.9144 -0.2125  1.0564
  410MOL0     H55343   9.123   6.752   3.611 -0.4951 -1.4669  0.5174
  410MOL0     H55344   9.187   6.867   3.396  2.4730 -1.0241 -1.2811
  410MOL0     H55345   9.147   6.714   3.311 -0.5176 -2.8659  1.1738
  410MOL0     H55346   9.319   6.676   3.552  1.3880  2.7759  0.2387
  410MOL0     H55347   9.385   6.799   3.439 -0.7501  0.7226 -2.9942
  410MOL0     H55348   9.457   6.420   3.251 -2.7330 -1.1506  0.2741
  410MOL0     H55349   8.724   6.656   3.805 -0.8923 -1.1150 -0.5739
  410MOL0     H55350   8.478   6.698   3.818 -0.3732 -1.1149  0.9457
  411MOL0     O55351  10.576   2.339   7.867  0.1734  0.1532  0.0439
  411MOL0     C55352  10.633   2.417   7.944  0.2774 -0.4228  1.1130
  411MOL0     O55353  10.574   2.527   8.005 -0.3668  0.3223  0.1029
  411MOL0     C55354  10.447   2.567   7.966 -0.3397 -0.1054  0.6849
  411MOL0     C55355  10.420   2.601   7.834 -0.4618 -0.9114 -0.0200
  411MOL0     C55356  10.292   2.648   7.798  0.3912 -0.2574  0.5329
  411MOL0     C55357  10.195   2.664   7.899 -0.1757  0.3769 -0.1460
  411MOL0     O55358  10.068   2.691   7.854 -0.0891  0.0710  0.1796
  411MOL0     C55359   9.970   2.648   7.937  0.5305 -0.0740  0.8483
  411MOL0     C55360   9.843   2.653   7.860 -0.4757 -0.3464 -0.1170
  411MOL0     C55361   9.734   2.639   7.961 -0.3947 -0.4694 -0.9302
  411MOL0     C55362   9.600   2.609   7.894  0.2975  0.1754  0.5606
  411MOL0     C55363   9.498   2.607   8.001  0.1749 -0.3154  0.4092
  411MOL0     C55364   9.361   2.566   7.938  0.3406 -0.7493 -0.6649
  411MOL0     C55365   9.263   2.579   8.058 -0.3592  0.1084  1.4889
  411MOL0     C55366   9.112   2.569   8.024 -0.9292 -0.0228  0.0667
  411MOL0     N55367   9.084   2.426   8.028  0.5695  1.1664  0.2876
  411MOL0     C55368   8.988   2.354   8.096 -0.1514  1.2041 -0.0184
  411MOL0     C55369   9.003   2.219   8.053 -0.7598 -0.6888 -0.6069
  411MOL0     C55370   8.891   2.114   8.094  0.6672 -0.1876 -0.1174
  411MOL0     C55371   8.790   2.101   7.982 -1.3609 -0.2320 -0.1475
  411MOL0     C55372   8.686   1.986   8.013  0.1546 -0.1474 -0.0058
  411MOL0     C55373   8.639   1.945   7.880 -0.6891 -0.2138  0.0681
  411MOL0     O55374   8.524   1.862   7.885 -0.3080 -0.2517 -0.3047
  411MOL0     C55375   8.403   1.912   7.904  0.0355 -0.6917 -0.0625
  411MOL0     C55376   8.288   1.823   7.907 -0.1112  0.7592  0.1640
  411MOL0     C55377   8.159   1.864   7.928 -0.3225 -0.1472  0.4617
  411MOL0     C55378   8.055   1.761   7.961 -0.0932  0.0342  0.7476
  411MOL0     C55379   8.134   2.002   7.947  0.0481 -0.3677  0.1313
  411MOL0     C55380   8.010   2.072   7.984 -0.1527  0.6774 -0.1591
  411MOL0     O55381   7.908   2.054   7.894 -0.3309 -0.0918  0.0812
  411MOL0     C55382   7.783   2.105   7.920 -0.6895 -0.0778  0.3049
  411MOL0     C55383   7.726   2.066   8.042  0.0187  0.2819 -0.9326
  411MOL0     C55384   7.597   2.114   8.070  0.4102  0.3178  0.7253
  411MOL0     C55385   7.517   2.163   7.973  0.3738 -0.3948 -0.0254
  411MOL0     O55386   7.380   2.181   8.003 -0.6521 -0.3599  0.1906
  411MOL0     C55387   7.324   2.310   7.980 -0.2572  0.3996  0.6477
  411MOL0     C55388   7.196   2.320   8.061  0.0836 -0.3660  0.0814
  411MOL0     C55389   7.079   2.224   8.003  0.4001 -0.4289  0.1468
  411MOL0     C55390   7.021   2.280   7.880 -0.1067 -0.6588  0.5648
  411MOL0     C55391   6.869   2.247   7.867 -0.2436  0.5531 -0.0477
  411MOL0     C55392   6.824   2.286   7.725  0.4808  0.5638 -0.1050
  411MOL0     C55393   6.682   2.235   7.715  0.7844  0.4329 -0.2618
  411MOL0     C55394   6.633   2.251   7.568  0.2729  1.4410  0.0910
  411MOL0    Cl55395   6.467   2.169   7.547  0.3695 -0.0592 -0.6997
  411MOL0     C55396   7.573   2.197   7.851 -0.7299 -0.1776 -0.0178
  411MOL0     C55397   7.710   2.170   7.824  0.6000  0.2000 -0.6905
  411MOL0     O55398   8.013   2.158   8.075  0.6220 -0.8647  0.8818
  411MOL0     C55399   8.244   2.087   7.943 -0.1387 -0.3852  0.0673
  411MOL0     C55400   8.378   2.046   7.933  0.3904  0.2836  0.8774
  411MOL0     N55401   9.116   2.212   7.973 -0.2103 -0.4773 -0.3807
  411MOL0     N55402   9.154   2.329   7.953  0.1633  0.2507 -0.0583
  411MOL0     C55403  10.224   2.638   8.034  0.1271 -0.1576 -0.3781
  411MOL0     C55404  10.355   2.592   8.067  0.5922 -0.6916 -0.3278
  411MOL0     C55405  10.769   2.390   7.982  0.1194 -0.0974  0.3169
  411MOL0     C55406  10.832   2.458   8.093 -0.1503  0.5909  0.6192
  411MOL0     C55407  10.954   2.410   8.141  0.2219 -0.3167 -0.4095
  411MOL0     C55408  11.031   2.310   8.073  0.4702 -0.3201  0.2994
  411MOL0     O55409  11.157   2.255   8.115  0.3715 -0.4338 -0.0079
  411MOL0     C55410  11.189   2.260   8.258 -0.1585 -0.1079 -0.0866
  411MOL0     C55411  11.306   2.356   8.289  0.7086 -0.1958  0.8641
  411MOL0     C55412  11.421   2.320   8.202 -0.2634  0.8861  1.1135
  411MOL0     C55413  11.533   2.419   8.199  0.2171  0.1558 -0.9922
  411MOL0     C55414  11.635   2.376   8.102 -0.1276 -0.6710 -0.1835
  411MOL0     C55415  11.732   2.347   8.030  0.1465  0.9707  0.6062
  411MOL0     C55416  10.972   2.257   7.961 -0.3755  0.1490 -0.2499
  411MOL0     C55417  10.844   2.295   7.911 -0.1099  0.2321 -0.3815
  411MOL0     H55418  10.501   2.593   7.764  0.6875  0.2654  1.1244
  411MOL0     H55419  10.277   2.662   7.692 -1.3511 -1.0526  0.6379
  411MOL0     H55420   9.989   2.547   7.977  1.7575  0.7392  2.4453
  411MOL0     H55421   9.962   2.709   8.028 -0.1076 -0.2817  0.9390
  411MOL0     H55422   9.839   2.748   7.808 -0.4907 -0.6464 -0.6716
  411MOL0     H55423   9.834   2.576   7.782 -1.3199  0.5624 -0.9424
  411MOL0     H55424   9.761   2.557   8.028  1.5008  0.7850 -0.1008
  411MOL0     H55425   9.722   2.728   8.023 -0.9064 -2.0674  1.3849
  411MOL0     H55426   9.574   2.683   7.819  2.1737 -1.0669 -1.4226
  411MOL0     H55427   9.606   2.520   7.830 -0.6026  0.6054 -0.1430
  411MOL0     H55428   9.532   2.540   8.081 -0.7620 -1.9374 -0.5033
  411MOL0     H55429   9.499   2.713   8.029 -0.8128 -0.4242  0.9075
  411MOL0     H55430   9.333   2.635   7.858 -0.6263  0.0434  0.3210
  411MOL0     H55431   9.376   2.463   7.904  1.5386 -1.6806  2.3573
  411MOL0     H55432   9.278   2.492   8.122 -0.0911 -0.7810  0.2535
  411MOL0     H55433   9.278   2.673   8.113  1.2008 -0.4343  2.0451
  411MOL0     H55434   9.083   2.619   7.931 -0.6478  0.5419  0.2812
  411MOL0     H55435   9.055   2.617   8.104  2.0572  0.0059  2.3689
  411MOL0     H55436   8.915   2.389   8.169 -0.6646 -1.0158  0.6027
  411MOL0     H55437   8.936   2.019   8.126  0.9256  0.1449  0.4995
  411MOL0     H55438   8.833   2.144   8.181  2.2433 -0.9552  1.2472
  411MOL0     H55439   8.853   2.069   7.899  0.6925  1.0961  0.7843
  411MOL0     H55440   8.736   2.194   7.960 -0.6674  0.0696 -0.6108
  411MOL0     H55441   8.606   2.027   8.074  0.6000  1.6834 -0.5691
  411MOL0     H55442   8.724   1.896   8.061  0.0865  0.8115  1.9560
  411MOL0     H55443   8.719   1.893   7.828 -0.5553  1.1424 -1.1403
  411MOL0     H55444   8.618   2.028   7.812 -0.9324  1.8812  2.5129
  411MOL0     H55445   8.305   1.716   7.903 -2.2794  0.3962 -1.8257
  411MOL0     H55446   8.105   1.666   7.982 -0.2524 -0.7804 -2.1051
  411MOL0     H55447   7.991   1.782   8.047  1.6084 -0.9929  2.3550
  411MOL0     H55448   7.997   1.745   7.869 -0.4407 -0.2025  1.0071
  411MOL0     H55449   7.782   2.009   8.116 -0.3857  0.6029 -0.3675
  411MOL0     H55450   7.557   2.078   8.165 -0.4673  1.8328  0.9479
  411MOL0     H55451   7.392   2.386   8.019  2.2347 -1.2814 -0.1625
  411MOL0     H55452   7.300   2.315   7.874 -0.6811  0.0051  0.7188
  411MOL0     H55453   7.223   2.290   8.163  0.4340  0.5523  0.2697
  411MOL0     H55454   7.164   2.424   8.069 -3.7807 -1.4691  1.0029
  411MOL0     H55455   7.000   2.205   8.075  0.5475 -2.3690 -0.1476
  411MOL0     H55456   7.129   2.128   7.986  2.5331  0.4186  1.2344
  411MOL0     H55457   7.023   2.388   7.898  3.4626 -0.2111 -1.5106
  411MOL0     H55458   7.077   2.256   7.789  2.4584  0.6720  1.6872
  411MOL0     H55459   6.814   2.305   7.942 -3.3868 -2.3545  0.1636
  411MOL0     H55460   6.846   2.142   7.889 -0.8798  0.7871  0.4292
  411MOL0     H55461   6.836   2.393   7.708  1.5201  0.6041  0.8075
  411MOL0     H55462   6.890   2.228   7.660  0.2892  1.2649 -0.9388
  411MOL0     H55463   6.616   2.295   7.779 -0.5194 -2.3628  1.2416
  411MOL0     H55464   6.676   2.128   7.737 -0.2271 -0.2646 -3.3949
  411MOL0     H55465   6.702   2.197   7.502 -0.9650 -0.9401  0.6715
  411MOL0     H55466   6.634   2.359   7.549  1.3906  1.2935 -0.8257
  411MOL0     H55467   7.516   2.236   7.768 -1.3467 -2.2654 -0.6425
  411MOL0     H55468   7.762   2.192   7.731  0.7527  1.7153 -0.2640
  411MOL0     H55469   8.216   2.190   7.959 -1.7891 -0.8040  0.0056
  411MOL0     H55470   8.456   2.121   7.927 -1.0559  1.8308 -4.2362
  411MOL0     H55471  10.157   2.660   8.116  0.4794 -4.6078  1.3940
  411MOL0     H55472  10.375   2.595   8.173  0.0892  1.2322 -0.2553
  411MOL0     H55473  10.780   2.536   8.148 -0.9363 -0.6940  1.7805
  411MOL0     H55474  10.978   2.445   8.241 -1.6321 -2.0438  0.7317
  411MOL0     H55475  11.104   2.283   8.323  2.9871  1.6992  3.8092
  411MOL0     H55476  11.219   2.159   8.287 -0.4712 -0.2589 -0.2873
  411MOL0     H55477  11.324   2.350   8.397 -2.8557  0.1692  1.6096
  411MOL0     H55478  11.283   2.461   8.269  2.9016 -0.1752 -2.2811
  411MOL0     H55479  11.391   2.312   8.097  1.4708  1.5920  0.5344
  411MOL0     H55480  11.448   2.219   8.232 -1.3400 -0.1859 -1.2961
  411MOL0     H55481  11.579   2.423   8.297 -0.1130  1.4864 -0.8818
  411MOL0     H55482  11.500   2.519   8.169 -0.0577  1.6616  3.5472
  411MOL0     H55483  11.824   2.306   7.992 -0.1002  1.4361 -0.5613
  411MOL0     H55484  11.030   2.176   7.918  3.1354  2.0411  0.5489
  411MOL0     H55485  10.811   2.255   7.816  1.2174  1.2021 -1.2910
  412MOL0     O55486  10.098   0.310   7.106  0.0038  0.0450 -0.3622
  412MOL0     C55487  10.180   0.239   7.053 -0.0495 -0.7754  0.3922
  412MOL0     O55488  10.159   0.162   6.953  0.1118  0.1274  0.5646
  412MOL0     C55489  10.042   0.113   6.905 -1.0462 -1.2899  0.0838
  412MOL0     C55490   9.912   0.138   6.946  0.2534  0.0946  0.5551
  412MOL0     C55491   9.802   0.096   6.866 -0.4075 -0.0476 -0.2758
  412MOL0     C55492   9.827   0.029   6.742 -0.5026  0.1259  0.9418
  412MOL0     O55493   9.720  -0.005   6.671 -0.2823  0.5797 -0.2058
  412MOL0     C55494   9.733  -0.083   6.553  0.3513  0.0453  0.4552
  412MOL0     C55495   9.587  -0.140   6.517 -0.6931 -0.2365 -0.9845
  412MOL0     C55496   9.495  -0.017   6.491 -0.8224 -0.0321 -0.4942
  412MOL0     C55497   9.362  -0.067   6.442  0.6953 -1.1327 -0.1302
  412MOL0     C55498   9.294  -0.164   6.537 -0.4553  0.0445  0.6474
  412MOL0     C55499   9.147  -0.169   6.497  0.5477  0.6354  0.5246
  412MOL0     C55500   9.065  -0.290   6.554  0.7081  0.5475 -0.5414
  412MOL0     C55501   8.957  -0.263   6.665 -0.5112  0.3865 -0.2876
  412MOL0     N55502   8.834  -0.223   6.607 -0.3974  0.2738  0.1310
  412MOL0     C55503   8.737  -0.304   6.558  0.2866  0.6924  0.5285
  412MOL0     C55504   8.647  -0.222   6.503  0.2363  0.1530 -0.3016
  412MOL0     C55505   8.503  -0.264   6.462 -0.1484 -0.1305 -0.1841
  412MOL0     C55506   8.432  -0.154   6.385 -0.2322  0.1699  0.0442
  412MOL0     C55507   8.284  -0.182   6.389  0.3435 -0.1104 -0.6829
  412MOL0     C55508   8.194  -0.068   6.319 -0.0680 -0.3413  0.2143
  412MOL0     O55509   8.076  -0.129   6.255  0.0099  0.2105  0.3624
  412MOL0     C55510   7.960  -0.108   6.325 -0.3433  0.5171 -0.9640
  412MOL0     C55511   7.855  -0.048   6.253 -0.4731  0.9896  0.1587
  412MOL0     C55512   7.736  -0.014   6.320 -0.4652  0.2765  0.2257
  412MOL0     C55513   7.623   0.041   6.235 -0.1601 -0.1166 -0.4106
  412MOL0     C55514   7.732  -0.014   6.459 -0.5533 -0.4745  0.0624
  412MOL0     C55515   7.623   0.058   6.542 -0.1027 -0.5836  0.1264
  412MOL0     O55516   7.591   0.012   6.667  0.3763  0.3444  0.2437
  412MOL0     C55517   7.473   0.058   6.718  0.3013 -0.4253 -0.1770
  412MOL0     C55518   7.353   0.040   6.656 -0.4739  0.3733 -0.0977
  412MOL0     C55519   7.240   0.093   6.708  0.4127  0.0538 -0.0103
  412MOL0     C55520   7.234   0.166   6.825 -0.1936 -0.3047  0.4162
  412MOL0     O55521   7.113   0.201   6.877  0.4053 -0.0834  0.5980
  412MOL0     C55522   7.106   0.246   7.012  0.5713 -0.8873  0.2860
  412MOL0     C55523   6.958   0.276   7.026 -0.1966 -0.1005  0.8743
  412MOL0     C55524   6.928   0.370   7.137  0.0943  0.8686  0.5137
  412MOL0     C55525   6.777   0.390   7.129 -0.3079  0.6637  1.2575
  412MOL0     C55526   6.721   0.473   7.249  1.2145 -0.0781  0.1213
  412MOL0     C55527   6.714   0.396   7.386 -0.2477 -0.4200  0.5599
  412MOL0     C55528   6.592   0.307   7.396 -0.7485 -0.3151 -0.9005
  412MOL0     C55529   6.560   0.267   7.543  0.3580 -0.2312 -0.1560
  412MOL0    Cl55530   6.413   0.165   7.534  0.1728 -0.2668  0.0758
  412MOL0     C55531   7.356   0.196   6.888 -0.6274  0.4715 -0.3005
  412MOL0     C55532   7.476   0.140   6.833 -0.0732 -0.1317 -0.2903
  412MOL0     O55533   7.579   0.157   6.486  0.1691  0.2644  0.1928
  412MOL0     C55534   7.837  -0.068   6.532  0.1619  1.2577  0.5462
  412MOL0     C55535   7.944  -0.133   6.462 -0.6166  0.2003 -0.0460
  412MOL0     N55536   8.685  -0.093   6.509 -0.4799 -0.1248  0.1546
  412MOL0     N55537   8.805  -0.094   6.572 -0.4489  0.3776 -0.2144
  412MOL0     C55538   9.958  -0.000   6.705  0.1230  0.4487  0.5065
  412MOL0     C55539  10.063   0.042   6.786  0.2265 -0.9153 -0.0129
  412MOL0     C55540  10.324   0.241   7.098  0.1736 -0.1602  0.4908
  412MOL0     C55541  10.374   0.327   7.195 -0.0589 -0.6448  0.3174
  412MOL0     C55542  10.507   0.321   7.241  0.5793 -0.1721  0.2383
  412MOL0     C55543  10.593   0.231   7.188 -0.5259  0.6045  0.3935
  412MOL0     O55544  10.716   0.228   7.237 -0.5740 -0.0713 -0.0698
  412MOL0     C55545  10.817   0.179   7.147  0.0222 -0.8405 -0.3583
  412MOL0     C55546  10.941   0.228   7.217  0.2806  0.5656 -0.2504
  412MOL0     C55547  11.068   0.222   7.136 -0.3650 -1.1920  0.8197
  412MOL0     C55548  11.180   0.315   7.184 -0.2130  0.1711  0.0006
  412MOL0     C55549  11.304   0.303   7.102 -0.3326  0.5423 -1.1314
  412MOL0     C55550  11.408   0.285   7.048  0.0332 -0.4361  0.2606
  412MOL0     C55551  10.545   0.141   7.094 -0.0900 -0.0058  0.0972
  412MOL0     C55552  10.411   0.147   7.046 -1.3458 -0.6384 -0.1660
  412MOL0     H55553   9.900   0.199   7.035  0.9720 -0.0396  0.7515
  412MOL0     H55554   9.701   0.114   6.901 -0.0149  2.1290 -0.1266
  412MOL0     H55555   9.759  -0.016   6.470 -3.5219  0.6757 -0.4289
  412MOL0     H55556   9.807  -0.164   6.562 -2.7755 -2.7602  3.6184
  412MOL0     H55557   9.591  -0.184   6.416 -3.3103  1.6195 -2.0091
  412MOL0     H55558   9.556  -0.212   6.594  2.9171  0.2317  1.1413
  412MOL0     H55559   9.482   0.048   6.578  2.2987 -0.0922  0.1367
  412MOL0     H55560   9.536   0.049   6.413 -0.5264 -1.0869 -1.2593
  412MOL0     H55561   9.298   0.018   6.417  3.6815  1.4037  0.2853
  412MOL0     H55562   9.385  -0.110   6.344 -0.2293  1.3249 -1.5064
  412MOL0     H55563   9.346  -0.260   6.532  1.0680  0.8180  1.1265
  412MOL0     H55564   9.297  -0.122   6.638 -1.0214  1.0859  0.2415
  412MOL0     H55565   9.092  -0.081   6.532  2.3507  1.2790  1.8367
  412MOL0     H55566   9.146  -0.177   6.387  0.4670 -2.3590  0.6541
  412MOL0     H55567   9.017  -0.346   6.473 -1.8540 -0.3464  1.4883
  412MOL0     H55568   9.132  -0.362   6.600  0.6639  1.9012  1.7932
  412MOL0     H55569   9.003  -0.189   6.731 -2.4252  1.6462 -0.2749
  412MOL0     H55570   8.942  -0.356   6.720 -2.3568  0.7421 -0.1077
  412MOL0     H55571   8.735  -0.412   6.567 -0.5303  0.3187 -2.7719
  412MOL0     H55572   8.491  -0.352   6.399 -3.9031  2.7751 -4.1907
  412MOL0     H55573   8.459  -0.275   6.561 -0.2460  2.5903  0.1453
  412MOL0     H55574   8.475  -0.157   6.284  3.3332 -4.0859  1.4057
  412MOL0     H55575   8.451  -0.058   6.434 -1.6240  0.6739 -0.3425
  412MOL0     H55576   8.265  -0.179   6.497 -1.8832  3.2884 -1.0106
  412MOL0     H55577   8.268  -0.280   6.344  2.2444 -0.9725  0.4268
  412MOL0     H55578   8.252  -0.027   6.236  0.6765 -0.4419  0.6695
  412MOL0     H55579   8.166   0.013   6.386  2.0304  0.3781  0.2831
  412MOL0     H55580   7.875  -0.029   6.148  0.7398 -1.5896 -0.1526
  412MOL0     H55581   7.630   0.150   6.222  0.0135 -0.2543 -1.5321
  412MOL0     H55582   7.621  -0.004   6.135 -0.3527 -0.0473 -0.4407
  412MOL0     H55583   7.526   0.027   6.284  0.6125 -2.0261  0.6450
  412MOL0     H55584   7.351  -0.019   6.564  0.7585  0.5719 -0.2615
  412MOL0     H55585   7.148   0.071   6.655  0.6455  2.0679 -1.3526
  412MOL0     H55586   7.143   0.168   7.080 -0.1604 -0.5285  1.1092
  412MOL0     H55587   7.153   0.345   7.018 -4.0831  1.6175 -0.3330
  412MOL0     H55588   6.928   0.325   6.933 -2.3612 -0.7680  1.1677
  412MOL0     H55589   6.897   0.187   7.044 -1.4383  0.6747  0.6008
  412MOL0     H55590   6.975   0.468   7.127 -0.1202  0.7957 -1.9353
  412MOL0     H55591   6.951   0.317   7.230  5.1202 -0.3833 -1.1553
  412MOL0     H55592   6.762   0.440   7.033  3.8457  0.6794  0.4349
  412MOL0     H55593   6.724   0.296   7.116 -0.1684  0.6749  0.5987
  412MOL0     H55594   6.621   0.504   7.220  1.0280 -0.8664 -0.1038
  412MOL0     H55595   6.791   0.556   7.262  3.6959 -1.8361 -1.1707
  412MOL0     H55596   6.806   0.338   7.390  2.7446  3.8089  0.4175
  412MOL0     H55597   6.722   0.466   7.470 -0.6128  1.2336 -0.7160
  412MOL0     H55598   6.606   0.222   7.329  1.2151 -0.3699 -0.4612
  412MOL0     H55599   6.508   0.363   7.352 -1.6696 -0.5513  0.5091
  412MOL0     H55600   6.536   0.364   7.587  1.4606  0.5943 -1.2886
  412MOL0     H55601   6.636   0.210   7.597  1.0798  0.4740 -0.4044
  412MOL0     H55602   7.359   0.249   6.983 -1.6774  0.2279 -0.1209
  412MOL0     H55603   7.572   0.160   6.879 -0.1268 -0.7703  0.1153
  412MOL0     H55604   7.827  -0.073   6.640 -0.5365 -2.0741  0.4367
  412MOL0     H55605   8.021  -0.182   6.520 -1.8993 -0.6118  1.0414
  412MOL0     H55606   9.982  -0.050   6.611 -2.2211  2.3511 -1.2575
  412MOL0     H55607  10.167   0.022   6.760  0.7671 -2.1341  2.7655
  412MOL0     H55608  10.312   0.401   7.244 -0.5720 -1.0123  0.2266
  412MOL0     H55609  10.535   0.382   7.326 -0.1230 -0.0284  0.3736
  412MOL0     H55610  10.818   0.070   7.138 -0.7198 -0.8193 -0.7324
  412MOL0     H55611  10.808   0.214   7.044  3.8408 -2.4819 -1.4444
  412MOL0     H55612  10.944   0.174   7.312 -0.4201 -0.5049 -0.8095
  412MOL0     H55613  10.927   0.330   7.251 -0.3274 -0.3328  2.3993
  412MOL0     H55614  11.034   0.235   7.033 -0.5374 -1.3471  0.8567
  412MOL0     H55615  11.119   0.125   7.132  1.0798 -0.4644  0.6860
  412MOL0     H55616  11.207   0.285   7.285 -2.2592 -0.8684  0.2984
  412MOL0     H55617  11.133   0.414   7.187 -0.4879  0.0197  1.0282
  412MOL0     H55618  11.511   0.289   7.018  0.0350  1.3659  0.4147
  412MOL0     H55619  10.603   0.062   7.047 -0.6831 -0.9933  0.9650
  412MOL0     H55620  10.380   0.085   6.963 -0.6274 -1.4161  0.1385
  413MOL0     O55621  10.853  10.054   0.185 -0.0650  0.0977 -0.1761
  413MOL0     C55622  10.883  10.171   0.211  0.0476  0.6617 -0.1875
  413MOL0     O55623  10.803  10.269   0.248 -0.4983  0.2662 -0.3220
  413MOL0     C55624  10.673  10.248   0.258  0.3898 -0.2043  0.1237
  413MOL0     C55625  10.610  10.290   0.370 -0.2091  0.4425  0.2896
  413MOL0     C55626  10.467  10.278   0.377 -0.0952 -0.4203 -0.2093
  413MOL0     C55627  10.400  10.212   0.272  0.3315  0.6731  0.1245
  413MOL0     O55628  10.268  10.191   0.284 -0.3371 -0.0321 -0.8486
  413MOL0     C55629  10.178  10.241   0.175  0.5466  0.3390 -0.5296
  413MOL0     C55630  10.140  10.384   0.224 -0.5980  0.6869 -0.4041
  413MOL0     C55631  10.045  10.375   0.342 -0.1815  0.5271  0.7990
  413MOL0     C55632   9.973  10.515   0.362 -0.4422  0.5214  0.3448
  413MOL0     C55633   9.891  10.540   0.484  0.3292  0.2402 -1.2800
  413MOL0     C55634   9.741  10.525   0.476 -0.1652  0.5402 -0.4003
  413MOL0     C55635   9.696  10.382   0.506 -0.2306  0.5538 -0.2397
  413MOL0     C55636   9.616  10.370   0.638 -0.2089 -0.3833  0.7493
  413MOL0     N55637   9.611  10.228   0.672 -0.1449  0.0521 -0.0743
  413MOL0     C55638   9.502  10.152   0.673 -0.0318  0.2033 -1.2345
  413MOL0     C55639   9.539  10.022   0.703  0.7813 -0.9435 -0.0964
  413MOL0     C55640   9.444   9.905   0.726 -0.5063 -0.0178 -0.0702
  413MOL0     C55641   9.368   9.877   0.597 -0.1806 -0.2435 -0.0153
  413MOL0     C55642   9.237   9.965   0.590 -0.8796  0.1399 -0.6723
  413MOL0     C55643   9.122   9.903   0.507 -0.9139  0.4035  0.7882
  413MOL0     O55644   9.004   9.976   0.534 -0.4071 -0.8230 -0.0328
  413MOL0     C55645   8.891   9.921   0.492  0.9222  0.1537 -0.4039
  413MOL0     C55646   8.885   9.794   0.426 -0.6091  0.2135 -0.1546
  413MOL0     C55647   8.765   9.738   0.394  0.4817  0.3115  0.5185
  413MOL0     C55648   8.767   9.618   0.302 -0.3185 -0.5657  0.6675
  413MOL0     C55649   8.650   9.803   0.422  0.2306  0.7401  0.3498
  413MOL0     C55650   8.513   9.750   0.402 -0.2635 -0.1835  0.0279
  413MOL0     O55651   8.403   9.840   0.405  0.2347  0.3433 -0.0573
  413MOL0     C55652   8.279   9.793   0.381 -0.2884  0.0684 -0.5380
  413MOL0     C55653   8.248   9.711   0.269  0.0015 -0.1433 -0.4248
  413MOL0     C55654   8.116   9.662   0.248 -0.2435 -0.2393 -0.4088
  413MOL0     C55655   8.015   9.696   0.334  0.7817  0.6941  0.0268
  413MOL0     O55656   7.890   9.639   0.317  0.5562 -0.5177  0.1266
  413MOL0     C55657   7.887   9.498   0.328  0.0699  0.3999  0.6252
  413MOL0     C55658   7.755   9.456   0.392 -0.0081 -0.3444 -0.5444
  413MOL0     C55659   7.745   9.467   0.546  0.7391  0.2677 -0.6600
  413MOL0     C55660   7.615   9.402   0.598 -0.3783 -0.2601 -0.3510
  413MOL0     C55661   7.620   9.336   0.738  0.1237  0.3081  0.1250
  413MOL0     C55662   7.475   9.298   0.774 -0.3510  0.3515 -0.2941
  413MOL0     C55663   7.482   9.235   0.925  0.0066  0.2742  0.5202
  413MOL0     C55664   7.353   9.233   1.007  0.1304  0.0217  0.3286
  413MOL0    Cl55665   7.226   9.103   0.960  0.4020 -0.1159 -0.3651
  413MOL0     C55666   8.036   9.788   0.438 -1.0807 -0.3043  0.0453
  413MOL0     C55667   8.166   9.836   0.459 -0.2624  0.0387 -0.4276
  413MOL0     O55668   8.510   9.627   0.394  0.1516 -0.6576 -0.2719
  413MOL0     C55669   8.651   9.924   0.481 -0.1517  0.1973  0.8899
  413MOL0     C55670   8.769   9.991   0.516  0.3041  0.3559 -0.2416
  413MOL0     N55671   9.676  10.027   0.730  0.2235 -0.8058 -0.2815
  413MOL0     N55672   9.712  10.152   0.719  0.4620  0.4751 -0.3200
  413MOL0     C55673  10.466  10.167   0.165  0.1056  0.2008  0.8470
  413MOL0     C55674  10.601  10.176   0.156  0.0458  0.3045 -0.1438
  413MOL0     C55675  11.026  10.203   0.198  0.6678  0.8069  0.5872
  413MOL0     C55676  11.091  10.319   0.241  0.4369 -0.3315 -0.1060
  413MOL0     C55677  11.226  10.342   0.227  1.2613 -0.4990  0.9784
  413MOL0     C55678  11.309  10.238   0.179  0.0226 -0.8764 -0.5398
  413MOL0     O55679  11.442  10.272   0.180  0.0707  0.5409  0.4208
  413MOL0     C55680  11.535  10.168   0.134  0.1318 -0.4631 -0.0446
  413MOL0     C55681  11.678  10.236   0.150 -0.4532  0.3340 -0.6387
  413MOL0     C55682  11.702  10.346   0.048 -0.4538  0.2715  0.7366
  413MOL0     C55683  11.836  10.410   0.055 -0.6711  0.5758 -0.6763
  413MOL0     C55684  11.876  10.485  -0.067  0.4549 -0.1623 -0.2556
  413MOL0     C55685  11.899  10.555  -0.162  0.4234  0.2036 -0.8097
  413MOL0     C55686  11.257  10.118   0.148  0.5228  0.2452  0.4764
  413MOL0     C55687  11.119  10.103   0.162  0.3372  0.9351  0.5667
  413MOL0     H55688  10.665  10.327   0.455  2.5083  0.7068 -1.4556
  413MOL0     H55689  10.409  10.308   0.464 -1.5009  0.8702 -1.5306
  413MOL0     H55690  10.221  10.229   0.075 -1.6548 -2.4868 -1.2727
  413MOL0     H55691  10.088  10.180   0.167  0.1496  0.7946  0.3131
  413MOL0     H55692  10.229  10.447   0.234 -0.4980  1.4393 -4.4756
  413MOL0     H55693  10.090  10.439   0.144 -3.1365  0.9280  1.2247
  413MOL0     H55694   9.987  10.287   0.312  2.6931 -1.2105 -0.1017
  413MOL0     H55695  10.101  10.340   0.430  0.7492  3.4688  1.4861
  413MOL0     H55696  10.051  10.591   0.373  0.8079 -0.6112 -0.3936
  413MOL0     H55697   9.925  10.543   0.268 -0.0312 -1.2236 -0.4340
  413MOL0     H55698   9.926  10.470   0.562 -1.0458 -2.9343 -3.3050
  413MOL0     H55699   9.905  10.644   0.513  2.3569  0.1639 -1.8230
  413MOL0     H55700   9.680  10.589   0.540 -1.3981  0.8348 -1.8108
  413MOL0     H55701   9.712  10.552   0.374  3.6481  3.6774 -0.9071
  413MOL0     H55702   9.645  10.336   0.421 -2.5839 -1.7200  2.2018
  413MOL0     H55703   9.777  10.313   0.533 -0.7414 -0.5984 -1.5241
  413MOL0     H55704   9.511  10.402   0.631 -0.1407 -0.1659  0.7256
  413MOL0     H55705   9.655  10.434   0.717  0.0653  0.7549 -0.2740
  413MOL0     H55706   9.406  10.194   0.647  0.4465  0.7688 -2.1543
  413MOL0     H55707   9.516   9.827   0.752 -0.0796 -0.4867 -2.4456
  413MOL0     H55708   9.376   9.925   0.809 -2.0677 -1.4350 -0.9275
  413MOL0     H55709   9.328   9.776   0.606  0.2697 -0.5952 -1.6249
  413MOL0     H55710   9.424   9.890   0.504  0.8142  2.4157  0.8445
  413MOL0     H55711   9.273  10.064   0.559  1.9586 -0.8168 -0.6465
  413MOL0     H55712   9.210   9.976   0.695  1.7242 -1.4746  0.2569
  413MOL0     H55713   9.117   9.803   0.551 -1.6284  1.0997  2.3478
  413MOL0     H55714   9.145   9.893   0.400  1.3799  0.9119  1.1689
  413MOL0     H55715   8.979   9.742   0.411 -0.6941 -0.1511  0.5350
  413MOL0     H55716   8.703   9.635   0.215  1.3979 -3.8348 -1.4524
  413MOL0     H55717   8.867   9.595   0.265 -1.2467 -1.6869 -1.2617
  413MOL0     H55718   8.736   9.527   0.355  1.1899 -0.8972  1.0213
  413MOL0     H55719   8.329   9.679   0.205  0.4115 -1.6474  0.7850
  413MOL0     H55720   8.102   9.600   0.160 -2.4855  2.1281 -1.8671
  413MOL0     H55721   7.880   9.457   0.227 -0.4723  1.6087  0.1455
  413MOL0     H55722   7.971   9.459   0.386  0.3001 -1.9974 -1.2025
  413MOL0     H55723   7.678   9.519   0.345  0.7276 -0.0506 -1.3925
  413MOL0     H55724   7.732   9.354   0.358 -0.2205 -0.3359 -0.4280
  413MOL0     H55725   7.745   9.575   0.565 -1.5126  0.6889 -2.6001
  413MOL0     H55726   7.827   9.409   0.589  0.3434 -0.5635 -1.0008
  413MOL0     H55727   7.542   9.483   0.595  1.8164  1.8122 -0.1463
  413MOL0     H55728   7.577   9.323   0.532  0.6018 -1.0255 -0.0298
  413MOL0     H55729   7.661   9.407   0.810  0.0675 -1.1707  1.6678
  413MOL0     H55730   7.686   9.250   0.735 -0.9449 -0.5356  0.0485
  413MOL0     H55731   7.406   9.380   0.756 -1.8854 -1.0635 -1.1627
  413MOL0     H55732   7.447   9.219   0.704  0.9806 -0.2864 -0.1490
  413MOL0     H55733   7.550   9.301   0.980 -0.2086  0.5809  0.4209
  413MOL0     H55734   7.515   9.131   0.925 -3.0517 -0.8039  0.5194
  413MOL0     H55735   7.303   9.330   1.008 -0.4885 -0.2576 -0.9783
  413MOL0     H55736   7.377   9.214   1.112 -1.1986  1.9600  1.0481
  413MOL0     H55737   7.953   9.825   0.497  0.4120  1.5189  1.1180
  413MOL0     H55738   8.190   9.906   0.539  0.5076  0.2318 -0.8227
  413MOL0     H55739   8.559   9.978   0.501 -1.1660 -0.8892 -0.5785
  413MOL0     H55740   8.771  10.094   0.551  0.1293 -0.5635  2.8064
  413MOL0     H55741  10.417  10.109   0.088  1.1934 -0.6864  0.8003
  413MOL0     H55742  10.649  10.140   0.065  0.1444 -1.6733  0.6315
  413MOL0     H55743  11.032  10.401   0.281  0.0211  0.3540 -2.0194
  413MOL0     H55744  11.277  10.436   0.247  2.0895 -0.5873 -0.6016
  413MOL0     H55745  11.537  10.085   0.204  4.8559  1.0959  2.0871
  413MOL0     H55746  11.511  10.139   0.031 -0.1838  3.0655 -1.1298
  413MOL0     H55747  11.754  10.158   0.150  0.1974  0.9523 -0.1334
  413MOL0     H55748  11.678  10.273   0.253 -0.9443  0.3062 -0.6250
  413MOL0     H55749  11.636  10.433   0.051  0.3743  1.0398 -1.4468
  413MOL0     H55750  11.695  10.299  -0.050  0.2640  0.8760  0.3874
  413MOL0     H55751  11.912  10.334   0.073  1.5995  2.4444 -1.8840
  413MOL0     H55752  11.835  10.483   0.137 -1.3718  0.6035 -0.7048
  413MOL0     H55753  11.921  10.604  -0.255  0.1444 -1.6916 -1.9095
  413MOL0     H55754  11.323  10.035   0.124 -1.1378 -1.1199  0.4395
  413MOL0     H55755  11.080  10.004   0.144 -3.6425  2.1993  1.2715
  414MOL0     O55756   4.230  10.505   4.091  0.7209 -0.2656 -0.2021
  414MOL0     C55757   4.258  10.531   4.203 -0.0557 -0.2276  0.8211
  414MOL0     O55758   4.179  10.523   4.317  0.0464  0.4547 -0.2110
  414MOL0     C55759   4.048  10.478   4.312  0.5202  0.5791  0.1660
  414MOL0     C55760   3.998  10.389   4.214 -0.7538 -0.0615  0.5413
  414MOL0     C55761   3.873  10.338   4.235  0.7464  0.2569  0.1192
  414MOL0     C55762   3.794  10.375   4.346 -0.1355  0.0999 -0.5532
  414MOL0     O55763   3.670  10.311   4.367  0.1684  0.2914  0.0862
  414MOL0     C55764   3.580  10.358   4.471 -0.3042  0.3636  0.2256
  414MOL0     C55765   3.452  10.273   4.436 -0.5901  0.2645  0.1617
  414MOL0     C55766   3.360  10.245   4.558  0.0729  0.5520  0.3083
  414MOL0     C55767   3.288  10.373   4.592 -0.7201  0.6785  0.4655
  414MOL0     C55768   3.214  10.377   4.727  0.0517  0.1979 -0.8864
  414MOL0     C55769   3.065  10.360   4.705 -0.3653 -0.1138 -0.0049
  414MOL0     C55770   2.993  10.329   4.838 -0.5744 -0.2928  0.6814
  414MOL0     C55771   2.846  10.316   4.817  0.3553 -0.5610  0.1500
  414MOL0     N55772   2.771  10.277   4.935  0.7755  0.2292 -0.0385
  414MOL0     C55773   2.643  10.316   4.951  0.3186  0.3841 -0.3440
  414MOL0     C55774   2.613  10.249   5.067  0.8483  0.2791  0.3942
  414MOL0     C55775   2.466  10.272   5.115 -0.0310  0.9789 -0.9559
  414MOL0     C55776   2.459  10.274   5.267 -0.1980 -0.8026 -0.2643
  414MOL0     C55777   2.311  10.257   5.312 -0.1365  0.7021  0.0895
  414MOL0     C55778   2.305  10.285   5.461  0.3194  0.7323  0.2686
  414MOL0     O55779   2.167  10.290   5.500 -0.0044 -0.0973 -0.0982
  414MOL0     C55780   2.131  10.290   5.633  1.1167  0.9791  0.0693
  414MOL0     C55781   2.210  10.303   5.755  0.5043 -0.3031  0.3806
  414MOL0     C55782   2.134  10.309   5.882  0.8342 -0.0243  0.1999
  414MOL0     C55783   2.224  10.354   6.000 -0.1834 -0.0475  0.3106
  414MOL0     C55784   1.996  10.289   5.889  0.0479  1.1774 -0.3315
  414MOL0     C55785   1.917  10.296   6.014  0.2846 -1.2962 -0.2704
  414MOL0     O55786   1.981  10.258   6.134  0.4869  0.1048  0.0245
  414MOL0     C55787   1.931  10.299   6.256 -0.3358  0.1950 -0.6046
  414MOL0     C55788   2.013  10.256   6.360  0.7270 -0.5025  0.1472
  414MOL0     C55789   1.979  10.281   6.493 -0.3504 -0.1693 -0.3400
  414MOL0     C55790   1.853  10.350   6.524  0.0046  0.0268  0.1812
  414MOL0     O55791   1.801  10.374   6.648 -1.0347  0.3288  0.4256
  414MOL0     C55792   1.857  10.331   6.771  0.1169 -0.3307  0.3202
  414MOL0     C55793   1.815  10.185   6.806  0.6706 -0.6575  0.2472
  414MOL0     C55794   1.664  10.185   6.819 -0.1305 -0.0711  0.4309
  414MOL0     C55795   1.611  10.052   6.894 -0.3719 -0.5535  0.6227
  414MOL0     C55796   1.460  10.045   6.897  0.6609 -0.2096 -0.5772
  414MOL0     C55797   1.388  10.165   6.957  0.4430 -0.7877 -0.5334
  414MOL0     C55798   1.234  10.162   6.950 -0.4365 -0.0164  0.0380
  414MOL0     C55799   1.176  10.033   7.013  0.3723 -0.2581  0.2132
  414MOL0    Cl55800   1.154   9.908   6.889  0.0512  0.2707  0.0043
  414MOL0     C55801   1.785  10.406   6.424 -0.1854 -0.0479  0.3021
  414MOL0     C55802   1.821  10.380   6.291  0.5516  0.4147  0.2301
  414MOL0     O55803   1.803  10.342   6.003 -0.0711  0.1678  0.0538
  414MOL0     C55804   1.931  10.259   5.766 -0.5218 -0.5197 -0.0706
  414MOL0     C55805   1.994  10.268   5.642  0.1411 -0.3425  0.4517
  414MOL0     N55806   2.717  10.169   5.114  0.3598 -0.1211  0.4330
  414MOL0     N55807   2.813  10.188   5.030 -0.3457 -0.0984 -0.3734
  414MOL0     C55808   3.834  10.470   4.433  0.6454 -0.3567  0.7860
  414MOL0     C55809   3.961  10.520   4.413 -0.5279 -0.4266 -0.1737
  414MOL0     C55810   4.401  10.572   4.208  0.5075 -0.8133 -0.3031
  414MOL0     C55811   4.458  10.609   4.331  0.7426  0.1437 -0.5160
  414MOL0     C55812   4.583  10.674   4.339  0.1222 -0.2245 -0.2981
  414MOL0     C55813   4.664  10.677   4.222 -0.7301  0.2175 -0.5549
  414MOL0     O55814   4.791  10.737   4.221  0.6149 -0.9161  0.1744
  414MOL0     C55815   4.837  10.813   4.341 -0.2293  0.6159  0.6823
  414MOL0     C55816   4.952  10.913   4.313 -0.1198  0.2286 -1.0183
  414MOL0     C55817   5.077  10.824   4.293  1.2992  0.1816 -0.4035
  414MOL0     C55818   5.195  10.911   4.254  0.4300  0.0558 -0.8349
  414MOL0     C55819   5.184  10.985   4.126 -0.4466  0.3574  0.5042
  414MOL0     C55820   5.169  11.022   4.008  0.1238  0.1896 -0.5425
  414MOL0     C55821   4.616  10.630   4.106  0.1908 -0.3751  0.4540
  414MOL0     C55822   4.483  10.581   4.088  0.0546 -0.7057 -0.1400
  414MOL0     H55823   4.053  10.368   4.122 -1.3993  0.7580 -0.0479
  414MOL0     H55824   3.841  10.259   4.167 -2.1247 -0.4672  2.1243
  414MOL0     H55825   3.624  10.345   4.570  3.9137 -1.4189 -1.6287
  414MOL0     H55826   3.558  10.461   4.444  1.3179 -0.0638 -3.2801
  414MOL0     H55827   3.401  10.335   4.361  0.1224  1.9060  0.9637
  414MOL0     H55828   3.472  10.183   4.378  0.4757  0.8375 -0.3906
  414MOL0     H55829   3.287  10.164   4.548 -0.0210  0.5842  0.7377
  414MOL0     H55830   3.420  10.216   4.645 -1.5476  2.9320  2.3481
  414MOL0     H55831   3.359  10.457   4.590  0.1769  0.0579  2.7555
  414MOL0     H55832   3.217  10.394   4.512  0.2105  1.1475 -0.2541
  414MOL0     H55833   3.257  10.299   4.791  0.2254 -0.5101 -1.8571
  414MOL0     H55834   3.233  10.478   4.767  1.1315 -1.1986  2.5221
  414MOL0     H55835   3.026  10.451   4.658 -2.2428 -1.3302 -0.9495
  414MOL0     H55836   3.047  10.276   4.637 -2.1559  1.4661 -1.5959
  414MOL0     H55837   3.044  10.239   4.873 -1.0604 -0.6319  0.5245
  414MOL0     H55838   3.006  10.416   4.903  0.8403  0.5452 -0.6527
  414MOL0     H55839   2.826  10.243   4.738  1.7557  0.6520 -1.3813
  414MOL0     H55840   2.809  10.415   4.789 -0.8541 -1.4363 -1.5213
  414MOL0     H55841   2.574  10.380   4.897 -1.9303 -0.4451  1.3996
  414MOL0     H55842   2.419  10.359   5.068  0.9120  2.9120  1.4546
  414MOL0     H55843   2.419  10.176   5.091  2.5551 -0.0254 -2.4803
  414MOL0     H55844   2.493  10.373   5.298  1.4209 -1.7185  1.0655
  414MOL0     H55845   2.515  10.191   5.310 -1.8942  0.0216  4.0552
  414MOL0     H55846   2.258  10.166   5.287  2.8297 -0.5577 -2.2782
  414MOL0     H55847   2.257  10.338   5.262  1.2143  1.2988 -0.4608
  414MOL0     H55848   2.352  10.378   5.494 -1.6145  1.2408  1.8124
  414MOL0     H55849   2.348  10.198   5.511 -1.7032  0.1839  1.1846
  414MOL0     H55850   2.314  10.329   5.738 -0.4031  2.5056 -1.6556
  414MOL0     H55851   2.165  10.421   6.063 -1.9633  1.6042 -2.8239
  414MOL0     H55852   2.269  10.270   6.054  4.8452  0.6743 -2.1029
  414MOL0     H55853   2.310  10.409   5.960  1.3053 -1.4398  1.4677
  414MOL0     H55854   2.110  10.213   6.339  0.1302 -2.1727  0.6545
  414MOL0     H55855   2.050  10.256   6.571  0.9320  0.3058 -1.3223
  414MOL0     H55856   1.966  10.334   6.758 -0.0649 -1.2711 -1.9684
  414MOL0     H55857   1.824  10.396   6.852  1.1267  0.3174  0.2372
  414MOL0     H55858   1.851  10.120   6.726 -0.8520  0.5446 -1.5092
  414MOL0     H55859   1.862  10.149   6.898 -4.3688 -2.8502  2.3510
  414MOL0     H55860   1.615  10.189   6.721  0.6548  0.1274  0.0408
  414MOL0     H55861   1.634  10.268   6.884  0.2719 -1.0445  1.9014
  414MOL0     H55862   1.647   9.970   6.832 -1.0168  0.8945 -1.7757
  414MOL0     H55863   1.656  10.064   6.993  0.8719  2.6952 -0.1872
  414MOL0     H55864   1.436   9.968   6.971  3.8189  1.1331  2.1211
  414MOL0     H55865   1.419  10.032   6.797 -2.3869  3.0317  0.0755
  414MOL0     H55866   1.422  10.183   7.059  1.4274  1.8281 -1.2585
  414MOL0     H55867   1.422  10.256   6.906  0.1960  1.3285  2.7880
  414MOL0     H55868   1.200  10.163   6.846  1.8145  1.6839 -0.7662
  414MOL0     H55869   1.188  10.252   6.992 -2.4340 -1.1491  0.3963
  414MOL0     H55870   1.078  10.060   7.054 -0.0191 -2.1549  0.6083
  414MOL0     H55871   1.236   9.998   7.097  0.4043 -0.0282  0.2880
  414MOL0     H55872   1.704  10.471   6.453 -0.6492  0.4770 -1.9641
  414MOL0     H55873   1.761  10.419   6.210 -0.2449 -2.3040 -0.6129
  414MOL0     H55874   1.824  10.244   5.759 -0.1968 -3.1688 -0.4607
  414MOL0     H55875   1.926  10.258   5.559 -0.6712  1.9226  0.7905
  414MOL0     H55876   3.770  10.512   4.509  1.1018 -0.4562  1.2353
  414MOL0     H55877   3.996  10.599   4.478  0.7145 -0.2750 -0.9951
  414MOL0     H55878   4.391  10.602   4.416  0.4437  3.2777 -0.3886
  414MOL0     H55879   4.626  10.710   4.432  1.9462  0.6062 -1.3924
  414MOL0     H55880   4.763  10.876   4.392  0.8206  1.7665  0.8225
  414MOL0     H55881   4.868  10.729   4.404  0.9788  1.0082  0.6237
  414MOL0     H55882   4.958  10.972   4.405 -1.6409 -0.0128 -0.7306
  414MOL0     H55883   4.941  10.979   4.226  0.2259 -0.0872 -1.3042
  414MOL0     H55884   5.069  10.735   4.230 -2.6624 -1.7690  2.3976
  414MOL0     H55885   5.102  10.764   4.382 -2.5242 -0.7114  0.2280
  414MOL0     H55886   5.285  10.849   4.250 -0.1291 -0.7245 -1.6316
  414MOL0     H55887   5.196  10.985   4.334  2.2820  1.3147 -1.9514
  414MOL0     H55888   5.162  11.044   3.903 -0.3268 -1.7738 -0.9590
  414MOL0     H55889   4.679  10.641   4.018  0.6929 -2.3636  0.5066
  414MOL0     H55890   4.440  10.567   3.989 -3.3911 -0.6874  1.2266
  415MOL0     O55891   6.992   7.785   7.957 -0.6001 -0.1672 -0.2452
  415MOL0     C55892   6.986   7.686   7.884 -0.9843 -0.3683 -0.4940
  415MOL0     O55893   6.877   7.623   7.841 -0.1630 -0.2377 -0.1009
  415MOL0     C55894   6.758   7.695   7.855  0.9275  0.2031 -0.3915
  415MOL0     C55895   6.676   7.680   7.969 -0.0172  1.0258 -0.0155
  415MOL0     C55896   6.556   7.752   7.981 -0.3394  0.1230  0.0163
  415MOL0     C55897   6.524   7.850   7.877  0.2869  0.0920  0.2528
  415MOL0     O55898   6.401   7.916   7.905 -0.4322  0.0985 -0.2001
  415MOL0     C55899   6.364   8.019   7.812  0.0672  0.0464  0.7455
  415MOL0     C55900   6.218   8.061   7.829 -0.5852  0.2293  0.2101
  415MOL0     C55901   6.194   8.189   7.752 -0.7804 -0.1005  0.6734
  415MOL0     C55902   6.049   8.244   7.780 -0.3012 -0.0948 -0.3931
  415MOL0     C55903   6.035   8.280   7.930 -0.5025  0.3183  0.0126
  415MOL0     C55904   5.926   8.383   7.951 -0.3236 -0.6748 -0.9941
  415MOL0     C55905   5.784   8.328   7.943  0.6331 -0.2679 -0.2054
  415MOL0     C55906   5.765   8.207   8.027  0.2206  0.3664  0.1728
  415MOL0     N55907   5.622   8.200   8.052 -0.1694  0.2537  0.8094
  415MOL0     C55908   5.523   8.202   7.956  1.2497  0.0022 -1.2141
  415MOL0     C55909   5.404   8.180   8.019 -0.0209 -0.1922  0.4322
  415MOL0     C55910   5.261   8.165   7.962  0.5684 -0.3817 -0.6869
  415MOL0     C55911   5.271   8.106   7.824  1.0377 -0.2237  0.3115
  415MOL0     C55912   5.141   8.097   7.735  0.2234 -0.7987  0.0115
  415MOL0     C55913   5.040   7.976   7.762 -0.8192 -0.1818 -0.1141
  415MOL0     O55914   5.011   7.972   7.899  0.2500  0.2651 -0.0607
  415MOL0     C55915   4.875   7.970   7.931  0.8317  0.9543  0.3517
  415MOL0     C55916   4.780   7.913   7.851 -0.4196 -0.1456  0.7070
  415MOL0     C55917   4.646   7.907   7.888 -0.4062 -0.3652  0.4257
  415MOL0     C55918   4.553   7.818   7.799  0.4091 -0.0718  0.2373
  415MOL0     C55919   4.601   7.972   8.004 -0.3690  0.2584 -0.2098
  415MOL0     C55920   4.455   7.968   8.033  0.3081  0.2213 -0.2965
  415MOL0     O55921   4.375   8.064   7.984 -0.3016 -0.2751  0.1020
  415MOL0     C55922   4.242   8.051   7.999 -0.2760  0.2894 -0.6291
  415MOL0     C55923   4.162   8.018   7.893  0.2449  0.6597  0.6411
  415MOL0     C55924   4.029   7.977   7.899 -0.4286  0.7970  0.8438
  415MOL0     C55925   3.973   7.970   8.025 -0.2848 -0.0183  0.1856
  415MOL0     O55926   3.856   7.919   8.050 -0.2635 -0.1922  0.2060
  415MOL0     C55927   3.767   7.974   8.157 -0.2527  0.2061 -0.9871
  415MOL0     C55928   3.626   7.974   8.107 -0.0057 -0.1037  0.5337
  415MOL0     C55929   3.592   7.854   8.017  0.5594  0.6330  0.2377
  415MOL0     C55930   3.434   7.850   7.998  0.4651 -0.3002  0.9327
  415MOL0     C55931   3.396   7.737   7.909  1.4991 -0.4314 -0.0909
  415MOL0     C55932   3.245   7.738   7.871  1.1827 -0.8239 -0.0650
  415MOL0     C55933   3.185   7.602   7.831 -0.5909  0.3890  0.5881
  415MOL0     C55934   3.030   7.611   7.829 -0.4497  0.0251  0.7356
  415MOL0    Cl55935   2.969   7.576   7.990  0.2190 -0.2417  0.1771
  415MOL0     C55936   4.057   7.997   8.141  0.6341  0.1394 -0.0241
  415MOL0     C55937   4.183   8.045   8.133 -0.6546  0.3140  0.4129
  415MOL0     O55938   4.414   7.871   8.103  0.1437 -0.9782  0.1982
  415MOL0     C55939   4.697   8.044   8.081  0.3373  0.6825  0.1300
  415MOL0     C55940   4.835   8.034   8.047 -0.0819  0.0005  1.1440
  415MOL0     N55941   5.431   8.160   8.157  0.2778 -0.5228  0.0917
  415MOL0     N55942   5.563   8.173   8.172  0.1774 -0.7463  0.2110
  415MOL0     C55943   6.600   7.848   7.764 -0.3580  0.8266 -0.1435
  415MOL0     C55944   6.715   7.778   7.755 -0.6946  0.7281 -0.1331
  415MOL0     C55945   7.120   7.623   7.859  0.5801 -0.2258  0.4352
  415MOL0     C55946   7.121   7.489   7.825 -0.1911 -0.2197  0.2876
  415MOL0     C55947   7.246   7.422   7.800 -0.2465  0.3981 -0.3603
  415MOL0     C55948   7.361   7.497   7.793  0.0979 -0.0100 -0.0007
  415MOL0     O55949   7.468   7.418   7.765  0.1378 -0.2678 -0.1761
  415MOL0     C55950   7.602   7.471   7.757  0.3513  0.3747 -0.1671
  415MOL0     C55951   7.693   7.370   7.830  0.2276 -0.3417  0.0502
  415MOL0     C55952   7.845   7.417   7.820 -0.1675  0.0740 -0.5584
  415MOL0     C55953   7.935   7.337   7.918  0.2870  0.6825 -0.4740
  415MOL0     C55954   7.987   7.204   7.880  0.0208 -0.8218  0.0401
  415MOL0     C55955   8.033   7.096   7.864 -0.7042  0.2274 -0.1561
  415MOL0     C55956   7.360   7.636   7.821  0.5461 -0.1140  0.4491
  415MOL0     C55957   7.242   7.692   7.855 -0.4049 -0.3654  0.2486
  415MOL0     H55958   6.707   7.618   8.052  3.3345  0.1964 -1.7345
  415MOL0     H55959   6.497   7.740   8.071  1.2899 -0.0444  1.1139
  415MOL0     H55960   6.431   8.105   7.825  0.1437 -0.0129  0.7532
  415MOL0     H55961   6.381   7.998   7.705 -1.0741 -2.3519  0.9749
  415MOL0     H55962   6.155   7.982   7.787  0.5850 -0.3758 -0.4409
  415MOL0     H55963   6.205   8.079   7.936  1.3471 -0.5571  0.6085
  415MOL0     H55964   6.260   8.267   7.789 -2.7944  1.2002  1.7218
  415MOL0     H55965   6.213   8.170   7.646 -1.2098 -0.4454  0.6555
  415MOL0     H55966   6.025   8.330   7.717  0.1157  0.6786  0.4638
  415MOL0     H55967   5.985   8.158   7.759 -1.9250  1.3571 -1.6283
  415MOL0     H55968   6.013   8.190   7.988 -2.2825 -0.8929 -2.3896
  415MOL0     H55969   6.130   8.315   7.972  1.7620 -2.9146 -1.9578
  415MOL0     H55970   5.938   8.419   8.053 -0.6980 -0.0975 -1.1502
  415MOL0     H55971   5.939   8.468   7.882  0.1147  1.3003  1.3768
  415MOL0     H55972   5.722   8.403   7.992  0.6946 -1.2765  1.5180
  415MOL0     H55973   5.748   8.303   7.843 -2.0772 -0.5956  0.7541
  415MOL0     H55974   5.813   8.212   8.125  0.3249 -1.6600  0.2617
  415MOL0     H55975   5.790   8.109   7.986 -0.5409 -0.1926  1.0156
  415MOL0     H55976   5.540   8.221   7.851 -0.9520  1.2329 -1.3949
  415MOL0     H55977   5.200   8.103   8.028  1.8991 -1.6809 -0.6252
  415MOL0     H55978   5.216   8.264   7.959  1.0974 -0.1367 -0.6613
  415MOL0     H55979   5.308   8.004   7.838 -0.6612 -0.7406  1.2970
  415MOL0     H55980   5.337   8.168   7.763  0.4116 -0.5400 -0.7205
  415MOL0     H55981   5.173   8.100   7.630  2.4417 -1.1682  0.6305
  415MOL0     H55982   5.085   8.191   7.738 -0.3257 -1.0898 -0.7326
  415MOL0     H55983   5.069   7.874   7.733 -1.5025 -1.8370  4.3062
  415MOL0     H55984   4.951   7.997   7.701  0.6054  1.9540 -1.5607
  415MOL0     H55985   4.808   7.853   7.765  0.3079  0.5626  0.4383
  415MOL0     H55986   4.479   7.764   7.860 -0.5733 -2.4374 -2.8059
  415MOL0     H55987   4.494   7.875   7.727  1.9709  1.2317 -0.0797
  415MOL0     H55988   4.614   7.746   7.744  1.1421 -0.4605  1.4909
  415MOL0     H55989   4.207   8.042   7.797 -1.2562 -0.2661 -0.3155
  415MOL0     H55990   3.977   7.939   7.812 -0.6688 -1.5667  1.9600
  415MOL0     H55991   3.759   7.908   8.244 -1.6461  0.0478 -1.2044
  415MOL0     H55992   3.792   8.078   8.179 -1.4951  0.0952  1.1532
  415MOL0     H55993   3.553   7.980   8.188 -0.0344 -0.6318  0.5475
  415MOL0     H55994   3.610   8.062   8.043  0.3457 -1.7628 -1.9642
  415MOL0     H55995   3.619   7.766   8.076 -0.2939 -0.3540 -0.7882
  415MOL0     H55996   3.637   7.856   7.917 -0.5417  0.3786 -0.2831
  415MOL0     H55997   3.379   7.856   8.092  0.1143 -1.0720  0.7808
  415MOL0     H55998   3.412   7.942   7.942 -0.9427 -2.3401 -2.1776
  415MOL0     H55999   3.418   7.646   7.965  1.8376 -0.3050 -0.0207
  415MOL0     H56000   3.448   7.723   7.814  0.7707 -0.1655 -0.5375
  415MOL0     H56001   3.192   7.788   7.952 -0.0126 -2.5863  0.2952
  415MOL0     H56002   3.230   7.806   7.786 -3.3857 -0.1541  1.0216
  415MOL0     H56003   3.218   7.525   7.901 -0.3288 -1.1318 -1.1085
  415MOL0     H56004   3.222   7.572   7.732  1.2346 -0.7030  1.5396
  415MOL0     H56005   3.012   7.523   7.767  0.1516  0.3653  0.0723
  415MOL0     H56006   2.988   7.703   7.787 -0.5671 -0.7982 -1.0115
  415MOL0     H56007   4.002   8.008   8.234 -1.6528  2.6782 -1.5257
  415MOL0     H56008   4.229   8.058   8.230 -2.3622  0.9257  1.1745
  415MOL0     H56009   4.664   8.096   8.170 -2.0802  2.3217 -1.5819
  415MOL0     H56010   4.914   8.078   8.107  0.0899 -1.6915  2.2158
  415MOL0     H56011   6.582   7.911   7.678  0.5624  0.9318 -0.2688
  415MOL0     H56012   6.779   7.795   7.669 -1.9968 -0.5559 -1.4255
  415MOL0     H56013   7.039   7.417   7.830  1.2759 -2.4752 -3.4348
  415MOL0     H56014   7.244   7.314   7.787  2.5736  0.3460 -1.0311
  415MOL0     H56015   7.631   7.477   7.652  3.2874 -0.9355  0.4537
  415MOL0     H56016   7.610   7.575   7.790 -1.1013  0.7618 -0.9690
  415MOL0     H56017   7.684   7.270   7.786 -4.6157 -0.5919  1.0955
  415MOL0     H56018   7.656   7.361   7.932 -2.0378 -0.2114 -0.7108
  415MOL0     H56019   7.843   7.521   7.855 -1.3133 -0.4268  0.9865
  415MOL0     H56020   7.888   7.409   7.720  0.6400 -2.6499 -0.0904
  415MOL0     H56021   7.885   7.325   8.014  0.3675 -1.9347 -0.6847
  415MOL0     H56022   8.020   7.402   7.940  0.4658 -0.1837  1.6411
  415MOL0     H56023   8.075   7.000   7.844 -0.5429  0.5991 -1.7674
  415MOL0     H56024   7.455   7.688   7.829 -0.2498  1.2996  0.9018
  415MOL0     H56025   7.234   7.795   7.888  3.0243  0.2922 -0.5976
  416MOL0     O56026   6.534   9.589   5.169 -0.1102  0.2947  0.0454
  416MOL0     C56027   6.574   9.538   5.272  0.8553 -0.4710 -0.2127
  416MOL0     O56028   6.492   9.479   5.362 -0.1753  0.3213 -0.3448
  416MOL0     C56029   6.356   9.475   5.337 -0.1800  0.2187  0.2572
  416MOL0     C56030   6.270   9.592   5.351  0.3702  0.0604  0.7777
  416MOL0     C56031   6.133   9.588   5.328 -0.6549  0.4359  0.0387
  416MOL0     C56032   6.078   9.467   5.297  0.7947  0.3507  0.4295
  416MOL0     O56033   5.946   9.440   5.287  0.7533 -0.3286 -0.4121
  416MOL0     C56034   5.862   9.550   5.236 -1.2407  0.0248 -0.0826
  416MOL0     C56035   5.727   9.498   5.206  0.0225  0.1408 -0.2646
  416MOL0     C56036   5.651   9.437   5.323  0.1933  0.1056 -0.4435
  416MOL0     C56037   5.641   9.529   5.445  0.2160 -1.0303  0.8597
  416MOL0     C56038   5.531   9.467   5.525 -0.3012 -0.1505  0.2489
  416MOL0     C56039   5.483   9.553   5.645  0.0773  0.5422 -0.4342
  416MOL0     C56040   5.372   9.485   5.733 -0.1328  0.2551 -0.1535
  416MOL0     C56041   5.314   9.574   5.839 -0.1920 -0.1175 -0.2742
  416MOL0     N56042   5.181   9.614   5.798 -0.2165 -0.1120 -0.0501
  416MOL0     C56043   5.063   9.538   5.805 -0.0120 -0.8505  1.1281
  416MOL0     C56044   4.965   9.618   5.745 -0.3522 -0.3532 -0.3664
  416MOL0     C56045   4.818   9.575   5.733 -0.5489 -0.2038  0.1408
  416MOL0     C56046   4.754   9.627   5.856 -1.1037 -0.4122  0.4115
  416MOL0     C56047   4.604   9.582   5.872 -1.0557  0.5601 -0.1355
  416MOL0     C56048   4.517   9.564   5.742 -0.6475  0.5663  0.4967
  416MOL0     O56049   4.392   9.492   5.750  0.0210  0.0766  0.0670
  416MOL0     C56050   4.285   9.554   5.809  0.2902  1.1682 -0.3381
  416MOL0     C56051   4.259   9.693   5.833  0.5347 -0.2107  1.3072
  416MOL0     C56052   4.137   9.744   5.874 -0.5071  1.2845  0.5676
  416MOL0     C56053   4.127   9.886   5.890  0.2756 -0.3268  0.2837
  416MOL0     C56054   4.029   9.655   5.910 -0.7435 -0.0626  0.6473
  416MOL0     C56055   3.907   9.692   5.981 -0.2313  0.1383 -0.3373
  416MOL0     O56056   3.812   9.589   5.978 -0.0950 -0.4007  0.4707
  416MOL0     C56057   3.678   9.624   6.000  0.2902 -0.3415  0.2685
  416MOL0     C56058   3.630   9.688   6.114  0.0271  0.6699  0.6085
  416MOL0     C56059   3.503   9.730   6.127  0.8139  0.0004 -0.3166
  416MOL0     C56060   3.407   9.692   6.029 -0.1543 -0.1589  0.0929
  416MOL0     O56061   3.279   9.735   6.031  0.1596  0.6358  0.4675
  416MOL0     C56062   3.220   9.788   6.157  0.0780  0.4102  0.5254
  416MOL0     C56063   3.228   9.940   6.161  0.0789  1.0226 -0.0795
  416MOL0     C56064   3.126  10.014   6.069 -0.1452  0.3752 -0.3003
  416MOL0     C56065   2.981   9.997   6.120  0.2652  0.0726 -0.5531
  416MOL0     C56066   2.898  10.055   6.004  0.4699 -0.3760  0.0372
  416MOL0     C56067   2.749  10.030   6.027  0.1414  0.0241 -0.0968
  416MOL0     C56068   2.702   9.889   5.987  0.7856  0.3726 -0.0187
  416MOL0     C56069   2.552   9.900   5.952  0.3440 -0.6835  0.1930
  416MOL0    Cl56070   2.487   9.738   5.937  0.0712 -0.3537  0.0164
  416MOL0     C56071   3.453   9.618   5.920 -0.7474 -0.2113  0.7004
  416MOL0     C56072   3.582   9.581   5.905 -0.3207 -0.0424 -0.0781
  416MOL0     O56073   3.892   9.805   6.032 -0.3391  0.5608 -0.4632
  416MOL0     C56074   4.058   9.520   5.890 -0.0477  1.0466  0.1285
  416MOL0     C56075   4.177   9.470   5.853  0.0792  0.4449  1.0682
  416MOL0     N56076   5.023   9.728   5.687  0.4044  0.1944 -0.4346
  416MOL0     N56077   5.152   9.726   5.723  0.2527  0.3757  0.3134
  416MOL0     C56078   6.156   9.356   5.284  0.2596  0.7764 -0.8012
  416MOL0     C56079   6.292   9.352   5.307 -0.1344 -0.2660  0.0145
  416MOL0     C56080   6.711   9.563   5.319  0.2976  0.0105  0.0510
  416MOL0     C56081   6.751   9.509   5.441 -0.7271 -0.2289 -0.2014
  416MOL0     C56082   6.885   9.520   5.475  0.1031 -0.0648  0.2640
  416MOL0     C56083   6.981   9.589   5.402 -0.8451  0.6561  0.2259
  416MOL0     O56084   7.107   9.591   5.453 -0.2914 -1.1311  0.4355
  416MOL0     C56085   7.206   9.650   5.368 -1.1116 -0.0254  0.5724
  416MOL0     C56086   7.337   9.650   5.444 -0.0294 -1.4906  0.1280
  416MOL0     C56087   7.393   9.516   5.484  0.1305  0.2389 -0.0334
  416MOL0     C56088   7.417   9.418   5.368 -0.1783  0.3525  0.4262
  416MOL0     C56089   7.499   9.473   5.262 -0.4202 -0.1286 -0.2850
  416MOL0     C56090   7.554   9.519   5.173 -0.0346  0.2702  0.1935
  416MOL0     C56091   6.938   9.646   5.279 -0.1469 -0.2197 -0.4669
  416MOL0     C56092   6.806   9.631   5.239  0.3637 -0.7873 -0.8170
  416MOL0     H56093   6.311   9.687   5.382 -2.0325  0.4075  3.2802
  416MOL0     H56094   6.069   9.675   5.340 -2.2231 -0.3729 -1.9892
  416MOL0     H56095   5.856   9.637   5.302 -0.7965 -0.9628  1.3280
  416MOL0     H56096   5.906   9.590   5.145 -2.2569  0.9062 -0.2017
  416MOL0     H56097   5.668   9.585   5.176 -2.0869 -0.9248  0.5579
  416MOL0     H56098   5.739   9.428   5.123 -1.3427  0.1446 -0.4983
  416MOL0     H56099   5.553   9.403   5.290 -0.8196  2.3280  0.0986
  416MOL0     H56100   5.694   9.344   5.362 -0.6016  0.2550  0.8410
  416MOL0     H56101   5.735   9.534   5.500  0.6783 -1.9563  0.1802
  416MOL0     H56102   5.608   9.630   5.418 -0.6748 -0.9200  2.2420
  416MOL0     H56103   5.442   9.459   5.463  1.7290  1.2298 -3.0917
  416MOL0     H56104   5.574   9.375   5.565 -0.4858 -0.7504 -0.9216
  416MOL0     H56105   5.568   9.577   5.710 -0.5477 -0.3351  0.7460
  416MOL0     H56106   5.437   9.646   5.610 -1.4318 -0.2046 -0.4730
  416MOL0     H56107   5.289   9.453   5.669 -1.5815  0.7436  1.4017
  416MOL0     H56108   5.418   9.401   5.784 -0.5014  0.2848  0.2296
  416MOL0     H56109   5.374   9.663   5.862 -0.3901 -0.2234  0.7201
  416MOL0     H56110   5.313   9.524   5.937  0.7108  2.1665  0.9814
  416MOL0     H56111   5.058   9.451   5.869 -0.4173  0.2537  2.6355
  416MOL0     H56112   4.773   9.621   5.645 -1.8755 -2.2301 -0.3283
  416MOL0     H56113   4.806   9.466   5.734 -1.1861 -0.1469 -0.2369
  416MOL0     H56114   4.762   9.736   5.854  1.8153 -0.5256 -2.3295
  416MOL0     H56115   4.812   9.582   5.938  1.5077  1.3133 -0.3425
  416MOL0     H56116   4.549   9.645   5.942 -2.3281  0.0714 -0.6715
  416MOL0     H56117   4.614   9.481   5.913 -0.4086  0.4650 -0.5028
  416MOL0     H56118   4.580   9.523   5.662  1.6322  2.6142  1.1127
  416MOL0     H56119   4.478   9.657   5.701 -1.7219 -0.0607  0.0522
  416MOL0     H56120   4.327   9.767   5.791  1.3440 -1.3806  0.4929
  416MOL0     H56121   4.031   9.927   5.857  1.4664  0.5858 -2.4047
  416MOL0     H56122   4.135   9.910   5.996  1.5239 -2.2202  0.6611
  416MOL0     H56123   4.205   9.940   5.835 -0.9958  0.3114 -0.9593
  416MOL0     H56124   3.698   9.720   6.192  3.7893  0.8840 -2.4705
  416MOL0     H56125   3.470   9.792   6.210 -0.4228 -0.2791 -0.5727
  416MOL0     H56126   3.121   9.742   6.147  0.0928  0.5774 -0.4444
  416MOL0     H56127   3.256   9.746   6.252  0.3423 -0.8120 -0.0935
  416MOL0     H56128   3.210   9.970   6.264  1.8165 -0.5420  0.7321
  416MOL0     H56129   3.332   9.967   6.141  1.8793 -3.2559  2.1389
  416MOL0     H56130   3.141   9.972   5.969  2.0423  1.3857 -0.4629
  416MOL0     H56131   3.143  10.122   6.065 -0.0963  0.7064  4.0971
  416MOL0     H56132   2.943   9.898   6.148  1.5350 -0.2766  0.0051
  416MOL0     H56133   2.951  10.048   6.212 -1.4004  0.3376 -1.2083
  416MOL0     H56134   2.933  10.009   5.911 -0.7418 -1.7417  0.2161
  416MOL0     H56135   2.916  10.162   5.993 -0.4671 -0.4732 -3.6537
  416MOL0     H56136   2.728  10.050   6.132  1.1987  1.3804 -0.1130
  416MOL0     H56137   2.693  10.103   5.969  1.1256  0.8635 -0.0199
  416MOL0     H56138   2.714   9.816   6.068 -2.0072 -3.0442 -2.3693
  416MOL0     H56139   2.758   9.854   5.900  0.6326  2.2855 -0.9393
  416MOL0     H56140   2.533   9.947   5.855 -0.8675 -0.7524  0.3780
  416MOL0     H56141   2.491   9.945   6.031 -0.7548 -1.4570 -0.1851
  416MOL0     H56142   3.383   9.582   5.845 -1.1812  0.2745  0.8664
  416MOL0     H56143   3.605   9.528   5.813  2.1291  1.3612 -0.3797
  416MOL0     H56144   3.992   9.446   5.935  1.1197 -1.6126 -2.1839
  416MOL0     H56145   4.180   9.363   5.837 -0.1356  0.3868  1.4021
  416MOL0     H56146   6.100   9.265   5.265 -2.6853  0.9614  4.8142
  416MOL0     H56147   6.351   9.263   5.289  2.2738  1.1431  0.5100
  416MOL0     H56148   6.675   9.463   5.503 -0.8660  2.0850  1.4715
  416MOL0     H56149   6.912   9.488   5.575 -1.6721  0.0197  0.8197
  416MOL0     H56150   7.230   9.601   5.273  2.7988  1.0919  0.8268
  416MOL0     H56151   7.183   9.755   5.349  2.4291  0.3877 -2.4475
  416MOL0     H56152   7.315   9.711   5.532 -0.2991  3.2336 -2.8437
  416MOL0     H56153   7.411   9.696   5.377  0.2454 -2.1250 -0.0132
  416MOL0     H56154   7.324   9.475   5.559 -0.5338  1.4232  0.0251
  416MOL0     H56155   7.487   9.522   5.540  0.8467 -2.2408 -0.8708
  416MOL0     H56156   7.323   9.381   5.326 -0.9543  1.6766  0.9471
  416MOL0     H56157   7.475   9.338   5.415 -0.4055  0.8425  1.5680
  416MOL0     H56158   7.606   9.570   5.094 -0.7155  1.0953  0.2745
  416MOL0     H56159   7.006   9.689   5.206 -1.4697  0.0819 -1.5674
  416MOL0     H56160   6.780   9.669   5.141  2.1921 -2.6500 -2.1012
  417MOL0     O56161   1.035  10.547   3.885 -0.1997  0.3703  0.5688
  417MOL0     C56162   0.996  10.591   3.991  0.8232  0.2079 -0.5111
  417MOL0     O56163   0.878  10.653   4.020  0.2470  0.0704  0.5850
  417MOL0     C56164   0.798  10.703   3.923  0.3364 -0.4449  0.7904
  417MOL0     C56165   0.827  10.717   3.787 -1.1044 -0.3205 -0.0134
  417MOL0     C56166   0.731  10.764   3.704 -0.3633 -0.3567  1.5905
  417MOL0     C56167   0.604  10.800   3.736  0.0381 -0.7198  0.5676
  417MOL0     O56168   0.525  10.828   3.628  0.3380 -0.2799  0.0149
  417MOL0     C56169   0.399  10.893   3.656 -0.5476 -0.2098  0.5685
  417MOL0     C56170   0.341  10.929   3.520 -0.1809 -0.2650  0.1791
  417MOL0     C56171   0.206  11.011   3.532 -0.2765 -0.7241 -0.0130
  417MOL0     C56172   0.185  11.104   3.406 -0.4347  0.2531 -0.5588
  417MOL0     C56173   0.043  11.137   3.374 -0.0930  0.3947 -0.1524
  417MOL0     C56174   0.033  11.245   3.256  0.0772 -0.1862  0.3433
  417MOL0     C56175  -0.108  11.260   3.199  0.7158  0.1741 -0.9670
  417MOL0     C56176  -0.115  11.368   3.091 -0.4304 -0.0940  1.1193
  417MOL0     N56177  -0.256  11.377   3.030  0.8737 -0.0671  0.3473
  417MOL0     C56178  -0.339  11.271   2.988 -0.3775  0.8713 -0.1535
  417MOL0     C56179  -0.426  11.330   2.901 -0.3102  0.0142 -0.7310
  417MOL0     C56180  -0.526  11.263   2.810 -0.2019  0.3482 -0.0154
  417MOL0     C56181  -0.674  11.292   2.858  0.7685  0.0043  0.0438
  417MOL0     C56182  -0.773  11.249   2.754  0.0613 -0.4799 -0.0853
  417MOL0     C56183  -0.916  11.246   2.807  0.8597  0.1118  0.3247
  417MOL0     O56184  -0.945  11.378   2.843 -0.5578  0.2698  0.4412
  417MOL0     C56185  -1.067  11.408   2.896 -0.2894 -0.8775  0.6828
  417MOL0     C56186  -1.090  11.543   2.918  0.6432 -0.7706  0.1253
  417MOL0     C56187  -1.215  11.593   2.960 -0.1946 -0.3541  0.3227
  417MOL0     C56188  -1.231  11.746   2.953 -0.8467  0.0740  0.8366
  417MOL0     C56189  -1.314  11.499   2.994 -0.1135  0.1441 -0.5034
  417MOL0     C56190  -1.458  11.539   3.043  0.1873  0.2258  0.3411
  417MOL0     O56191  -1.481  11.678   3.057 -0.2370  0.3966 -0.5607
  417MOL0     C56192  -1.599  11.719   3.089  0.4936  0.7758  0.1276
  417MOL0     C56193  -1.630  11.778   3.213  0.9117 -0.2317 -0.0044
  417MOL0     C56194  -1.761  11.819   3.242  0.0292  0.1947  0.0647
  417MOL0     C56195  -1.858  11.820   3.145  0.2267 -0.2281 -0.1423
  417MOL0     O56196  -1.983  11.870   3.165  0.1648 -0.7588  0.2897
  417MOL0     C56197  -2.093  11.778   3.137  0.1376 -0.1974  0.2235
  417MOL0     C56198  -2.219  11.859   3.091 -0.5522  0.3981  0.1696
  417MOL0     C56199  -2.204  11.936   2.952 -0.8922  0.3373 -0.3384
  417MOL0     C56200  -2.313  12.047   2.941 -0.3819 -0.1505 -0.7633
  417MOL0     C56201  -2.454  11.999   2.956  0.2759 -0.4574 -0.7758
  417MOL0     C56202  -2.561  12.108   2.928 -0.1645 -0.1547 -0.7957
  417MOL0     C56203  -2.697  12.053   2.931  1.1283  0.3259 -0.1402
  417MOL0     C56204  -2.797  12.156   2.895 -1.1546  0.4698 -1.2990
  417MOL0    Cl56205  -2.785  12.204   2.729 -0.3307 -0.1753 -0.0761
  417MOL0     C56206  -1.827  11.766   3.019 -0.6919  0.8541  0.4802
  417MOL0     C56207  -1.698  11.725   2.988 -0.0253  0.2620 -0.2530
  417MOL0     O56208  -1.536  11.446   3.063 -0.5613 -0.4640  0.2847
  417MOL0     C56209  -1.287  11.363   2.991  0.6999 -0.3523 -0.0099
  417MOL0     C56210  -1.166  11.319   2.926  0.2703  0.7167 -0.0256
  417MOL0     N56211  -0.397  11.468   2.883  0.2296  0.7349 -0.2414
  417MOL0     N56212  -0.298  11.488   2.966 -0.0728 -0.7226 -0.4104
  417MOL0     C56213   0.575  10.786   3.877 -0.2688 -0.0184  0.5654
  417MOL0     C56214   0.671  10.739   3.963  0.3416 -0.4813 -0.1386
  417MOL0     C56215   1.099  10.592   4.095 -0.5561  0.0691  0.1278
  417MOL0     C56216   1.068  10.624   4.230 -0.4548 -0.7066  0.0471
  417MOL0     C56217   1.152  10.603   4.334  0.1223  0.0166  0.4968
  417MOL0     C56218   1.284  10.576   4.309  0.4629 -0.5386  0.4561
  417MOL0     O56219   1.366  10.555   4.421 -0.1006 -0.2874  0.7302
  417MOL0     C56220   1.309  10.519   4.548 -0.1004 -0.3021 -0.5389
  417MOL0     C56221   1.417  10.477   4.644 -0.0085  0.1706 -0.9262
  417MOL0     C56222   1.352  10.451   4.783 -0.3612  0.4124  0.3871
  417MOL0     C56223   1.449  10.400   4.880 -0.5112 -0.5953 -0.8543
  417MOL0     C56224   1.543  10.496   4.939  0.1060 -0.0094 -0.1243
  417MOL0     C56225   1.627  10.557   4.996  0.4799 -0.0410 -0.0210
  417MOL0     C56226   1.329  10.562   4.175  0.4590 -0.1956 -0.2843
  417MOL0     C56227   1.233  10.566   4.067  0.4721 -0.0784 -0.2313
  417MOL0     H56228   0.917  10.683   3.738 -0.6013 -1.0812  1.3749
  417MOL0     H56229   0.748  10.765   3.597 -0.1713 -1.0949  1.6102
  417MOL0     H56230   0.325  10.831   3.708 -1.1423  2.6873  3.5007
  417MOL0     H56231   0.407  10.984   3.714 -1.9734 -0.0883  0.6073
  417MOL0     H56232   0.415  10.993   3.471  1.4788 -0.2831  2.4951
  417MOL0     H56233   0.321  10.849   3.448 -2.6562 -0.0920  0.5906
  417MOL0     H56234   0.122  10.944   3.515 -0.1782 -0.2275 -3.0335
  417MOL0     H56235   0.199  11.053   3.633 -0.2731 -0.7718  0.0074
  417MOL0     H56236   0.243  11.193   3.430 -0.1129 -0.5809  2.1107
  417MOL0     H56237   0.234  11.046   3.327 -0.4984  0.3766 -0.6882
  417MOL0     H56238  -0.010  11.045   3.348  2.0018 -0.3361 -2.2847
  417MOL0     H56239  -0.002  11.164   3.470  1.3766  0.0855  0.6505
  417MOL0     H56240   0.059  11.344   3.295 -2.3802  0.3355  0.7892
  417MOL0     H56241   0.109  11.222   3.181  0.2518 -0.9185  0.7350
  417MOL0     H56242  -0.150  11.167   3.160  0.4551 -0.3884  0.5685
  417MOL0     H56243  -0.176  11.299   3.275 -0.0896  0.8425 -1.9987
  417MOL0     H56244  -0.052  11.332   3.009 -2.5473 -1.5300  0.0132
  417MOL0     H56245  -0.084  11.467   3.123  1.7994 -0.0028 -1.0308
  417MOL0     H56246  -0.328  11.165   3.009  0.2854  1.0823  0.6300
  417MOL0     H56247  -0.507  11.301   2.710  1.0325 -0.8160 -0.2523
  417MOL0     H56248  -0.499  11.156   2.812 -2.5287 -0.4130  4.3482
  417MOL0     H56249  -0.689  11.395   2.891 -2.7268 -0.7387  1.1691
  417MOL0     H56250  -0.683  11.244   2.956 -3.1448  1.8474  0.7978
  417MOL0     H56251  -0.749  11.146   2.724  0.2011 -0.7398  0.8954
  417MOL0     H56252  -0.777  11.311   2.664 -1.6973  3.0274  2.1874
  417MOL0     H56253  -0.920  11.180   2.893 -1.2555 -0.3685 -0.0879
  417MOL0     H56254  -0.990  11.217   2.732 -0.1365 -0.4540  1.5039
  417MOL0     H56255  -1.014  11.613   2.882  0.5139 -0.0202  1.2741
  417MOL0     H56256  -1.318  11.762   2.889 -1.1621 -2.1730  0.6379
  417MOL0     H56257  -1.237  11.799   3.048 -0.3577  1.9699 -0.1295
  417MOL0     H56258  -1.141  11.788   2.907  0.5702 -0.8997  2.5957
  417MOL0     H56259  -1.554  11.779   3.289  1.8671 -0.4365 -0.9305
  417MOL0     H56260  -1.779  11.845   3.346  1.8623 -1.2057  0.8033
  417MOL0     H56261  -2.060  11.723   3.049  3.3891  0.8060  0.6916
  417MOL0     H56262  -2.110  11.713   3.224 -1.3934  0.6045  0.5760
  417MOL0     H56263  -2.303  11.789   3.089  0.3391 -0.6661 -0.5786
  417MOL0     H56264  -2.242  11.928   3.173 -0.3259 -0.5123  1.0158
  417MOL0     H56265  -2.221  11.870   2.866 -0.1849  1.4703 -1.3783
  417MOL0     H56266  -2.109  11.986   2.935 -1.0175  0.9771  0.7887
  417MOL0     H56267  -2.310  12.117   3.025 -2.6042 -0.7605 -0.0996
  417MOL0     H56268  -2.301  12.109   2.852 -1.5617  1.8817  0.4248
  417MOL0     H56269  -2.475  11.957   3.055  3.1198 -1.5117 -0.5033
  417MOL0     H56270  -2.469  11.919   2.882 -0.1077 -0.5680 -0.5819
  417MOL0     H56271  -2.544  12.194   2.993 -1.4749 -0.6956  0.3247
  417MOL0     H56272  -2.541  12.146   2.827 -0.5549 -1.3068 -1.3341
  417MOL0     H56273  -2.719  12.008   3.029  1.6205 -0.3649 -0.3337
  417MOL0     H56274  -2.717  11.973   2.859 -2.2404  0.2506  0.7191
  417MOL0     H56275  -2.781  12.250   2.950  2.3860 -0.9026  0.3106
  417MOL0     H56276  -2.901  12.121   2.904 -1.5059  1.4889 -1.1901
  417MOL0     H56277  -1.896  11.759   2.935  0.5063 -1.2378 -0.3892
  417MOL0     H56278  -1.675  11.687   2.888 -1.0173 -0.8117 -0.0918
  417MOL0     H56279  -1.361  11.289   3.018 -0.9047  0.5320 -1.7759
  417MOL0     H56280  -1.149  11.212   2.917 -4.2189 -0.5281  2.7551
  417MOL0     H56281   0.482  10.808   3.928  0.7594 -2.7599  3.9939
  417MOL0     H56282   0.644  10.737   4.068 -2.3583 -0.4454 -0.7593
  417MOL0     H56283   0.968  10.657   4.258 -0.5484  0.9072 -1.9517
  417MOL0     H56284   1.116  10.635   4.431  1.0219  2.0088  0.2334
  417MOL0     H56285   1.253  10.606   4.583 -0.4336  0.2729 -2.3948
  417MOL0     H56286   1.243  10.433   4.538 -1.2727  0.2172  1.9605
  417MOL0     H56287   1.485  10.562   4.657  0.1756 -0.1585  0.3690
  417MOL0     H56288   1.463  10.386   4.607  0.9501  0.2319  0.0663
  417MOL0     H56289   1.267  10.381   4.777  0.3482 -0.3980 -0.7035
  417MOL0     H56290   1.315  10.545   4.824 -7.6458 -1.9584  0.7444
  417MOL0     H56291   1.513  10.324   4.835  3.6900  2.3870 -0.4959
  417MOL0     H56292   1.395  10.358   4.966 -0.3609  2.3263  0.8358
  417MOL0     H56293   1.718  10.610   5.016 -0.5736  1.9852 -0.3825
  417MOL0     H56294   1.435  10.539   4.165 -0.0839 -3.8628  0.9249
  417MOL0     H56295   1.261  10.532   3.968 -1.4693 -1.1406 -0.4584
  418MOL0     O56296   0.644   0.555   1.006  0.0466  0.9011 -0.1869
  418MOL0     C56297   0.592   0.665   0.989 -0.0033 -0.3399  0.4782
  418MOL0     O56298   0.653   0.769   0.924  0.2663 -0.4820 -0.1023
  418MOL0     C56299   0.764   0.737   0.853  0.0145 -0.1945  0.3461
  418MOL0     C56300   0.757   0.668   0.731  0.1703  0.0476 -0.0052
  418MOL0     C56301   0.870   0.655   0.652 -0.1146  0.0346  0.1977
  418MOL0     C56302   0.989   0.710   0.695 -1.2357  0.9720 -0.9851
  418MOL0     O56303   1.112   0.690   0.635 -0.1256  0.4922  0.1738
  418MOL0     C56304   1.122   0.560   0.567  0.3378 -0.5777 -0.5396
  418MOL0     C56305   1.260   0.494   0.595  0.2360 -0.5624  0.4725
  418MOL0     C56306   1.306   0.395   0.493  0.9080 -0.3529 -0.1535
  418MOL0     C56307   1.448   0.351   0.514  0.4533  0.6820 -0.5149
  418MOL0     C56308   1.474   0.246   0.400  1.1541 -0.8250 -0.4534
  418MOL0     C56309   1.614   0.171   0.412  0.6267  0.0789 -0.3344
  418MOL0     C56310   1.643   0.079   0.290  0.0804  0.1525  0.0524
  418MOL0     C56311   1.537  -0.026   0.267 -0.4003 -0.5742 -0.0860
  418MOL0     N56312   1.596  -0.135   0.189  0.0215 -0.0025  1.1212
  418MOL0     C56313   1.641  -0.131   0.054  0.6786  0.0594 -0.0389
  418MOL0     C56314   1.699  -0.252   0.043 -0.1939  0.0370  0.8597
  418MOL0     C56315   1.745  -0.300  -0.089  0.1076 -0.1666  0.1497
  418MOL0     C56316   1.646  -0.273  -0.208 -0.2763  0.0989 -0.5119
  418MOL0     C56317   1.562  -0.405  -0.215  0.3222 -0.6623 -0.5877
  418MOL0     C56318   1.479  -0.416  -0.348  0.9198 -0.2301 -0.2309
  418MOL0     O56319   1.392  -0.299  -0.324  0.3082 -0.9178  0.1327
  418MOL0     C56320   1.294  -0.270  -0.415  0.0840  0.3129 -0.0166
  418MOL0     C56321   1.249  -0.350  -0.520  0.0701  0.6122  0.1168
  418MOL0     C56322   1.141  -0.313  -0.602 -0.5586  0.9349  0.5966
  418MOL0     C56323   1.107  -0.418  -0.706 -0.0696  0.4540  0.5940
  418MOL0     C56324   1.077  -0.195  -0.581 -0.7730  0.0934  0.5598
  418MOL0     C56325   0.966  -0.147  -0.659  1.1500  0.7161  0.2697
  418MOL0     O56326   0.888  -0.066  -0.591  0.0915 -0.7152  0.5740
  418MOL0     C56327   0.764  -0.047  -0.636  0.5747 -1.1696  0.1684
  418MOL0     C56328   0.726   0.078  -0.692  0.5259 -0.0484  0.1576
  418MOL0     C56329   0.598   0.105  -0.746  0.4893 -0.0644 -0.5762
  418MOL0     C56330   0.491   0.013  -0.719  0.7970  0.1419 -0.6144
  418MOL0     O56331   0.356   0.034  -0.749 -0.1232 -0.3799 -0.3756
  418MOL0     C56332   0.333   0.165  -0.819  0.6914 -0.4408 -0.7246
  418MOL0     C56333   0.184   0.202  -0.838 -0.6829  0.5997 -0.9763
  418MOL0     C56334   0.103   0.230  -0.706 -0.6791 -0.0299 -0.5111
  418MOL0     C56335  -0.019   0.317  -0.732 -1.2232 -0.9579 -0.1099
  418MOL0     C56336  -0.149   0.242  -0.774 -0.3305  0.6231  0.3809
  418MOL0     C56337  -0.269   0.325  -0.774 -1.0474 -0.4774 -0.1515
  418MOL0     C56338  -0.398   0.252  -0.799  0.2501  0.1247 -0.5320
  418MOL0     C56339  -0.510   0.352  -0.788  0.2381 -0.3752  0.0935
  418MOL0    Cl56340  -0.561   0.378  -0.629 -0.2050 -0.4568 -0.3379
  418MOL0     C56341   0.526  -0.106  -0.653  0.7458 -0.0081  0.9249
  418MOL0     C56342   0.662  -0.133  -0.615  0.2006  0.7865  0.2654
  418MOL0     O56343   0.943  -0.177  -0.773  0.1418  0.0330 -0.4513
  418MOL0     C56344   1.127  -0.110  -0.478 -0.6532  0.5393 -0.0397
  418MOL0     C56345   1.233  -0.150  -0.394 -0.5622  0.5963 -0.2901
  418MOL0     N56346   1.705  -0.327   0.164  0.4680 -0.4066  0.4145
  418MOL0     N56347   1.643  -0.256   0.249  0.4623  0.1187  0.0926
  418MOL0     C56348   1.003   0.771   0.817 -0.0461  0.4948  0.3942
  418MOL0     C56349   0.886   0.781   0.893  0.2623 -0.0087  0.0796
  418MOL0     C56350   0.446   0.678   1.019  0.0373 -0.2002  0.4368
  418MOL0     C56351   0.381   0.792   0.990  0.0908 -0.1147 -0.0147
  418MOL0     C56352   0.259   0.815   1.052 -0.0534  0.4833  0.6597
  418MOL0     C56353   0.183   0.710   1.105  0.2924  0.5898  0.0380
  418MOL0     O56354   0.053   0.749   1.141  0.2219 -0.6899 -0.1122
  418MOL0     C56355  -0.024   0.657   1.220 -0.0544 -0.8254  0.5644
  418MOL0     C56356  -0.173   0.701   1.225  0.3796 -0.7862  0.5704
  418MOL0     C56357  -0.247   0.612   1.333 -0.0929 -0.0555 -0.1060
  418MOL0     C56358  -0.392   0.669   1.340  0.0466 -0.5797 -0.1347
  418MOL0     C56359  -0.455   0.577   1.437 -0.2586 -0.2481  0.2508
  418MOL0     C56360  -0.521   0.512   1.507 -0.1806 -0.5021 -1.0630
  418MOL0     C56361   0.243   0.589   1.125  0.6362  0.1721 -0.6175
  418MOL0     C56362   0.375   0.570   1.078  0.4637 -0.6246  0.1144
  418MOL0     H56363   0.662   0.622   0.703  0.9459 -1.5096 -0.1973
  418MOL0     H56364   0.878   0.596   0.561  0.4953 -0.2361  0.4176
  418MOL0     H56365   1.054   0.482   0.602  0.4192  0.8998  3.4427
  418MOL0     H56366   1.104   0.586   0.462 -1.7729  1.0802  0.1410
  418MOL0     H56367   1.326   0.581   0.606 -0.9659  0.1846  2.2580
  418MOL0     H56368   1.261   0.444   0.691  0.7224 -1.1582  0.1614
  418MOL0     H56369   1.231   0.316   0.486  1.0339 -0.3949 -1.2906
  418MOL0     H56370   1.315   0.448   0.397 -2.1510 -1.3885 -1.1220
  418MOL0     H56371   1.520   0.433   0.505  2.0913 -0.4452  1.5208
  418MOL0     H56372   1.465   0.305   0.612 -0.8210 -1.7102 -1.3293
  418MOL0     H56373   1.404   0.162   0.408  3.0668 -2.4558  0.3433
  418MOL0     H56374   1.466   0.299   0.305 -1.2996  1.1197  0.7460
  418MOL0     H56375   1.690   0.249   0.414  0.6715  0.0916 -1.7025
  418MOL0     H56376   1.613   0.121   0.510 -1.2745  2.0956  0.7647
  418MOL0     H56377   1.651   0.142   0.201  1.1941 -3.3687 -2.5804
  418MOL0     H56378   1.737   0.023   0.301 -0.6186 -1.7661 -2.6497
  418MOL0     H56379   1.442   0.009   0.225 -0.0574 -0.7280 -1.0192
  418MOL0     H56380   1.513  -0.066   0.366  0.3221  0.2828  0.4466
  418MOL0     H56381   1.623  -0.056  -0.022 -1.0256  0.1033  0.3650
  418MOL0     H56382   1.842  -0.255  -0.114  2.0957 -3.8665  0.4906
  418MOL0     H56383   1.788  -0.399  -0.071  1.9481  1.0261  3.0992
  418MOL0     H56384   1.707  -0.266  -0.298  2.5387  3.2091  1.4347
  418MOL0     H56385   1.581  -0.186  -0.203 -0.5101 -0.0738 -0.5062
  418MOL0     H56386   1.489  -0.409  -0.134  0.4719  0.7205 -0.3586
  418MOL0     H56387   1.620  -0.495  -0.192  2.3966  0.7547 -0.0254
  418MOL0     H56388   1.429  -0.513  -0.355  0.4110  0.0415 -0.4177
  418MOL0     H56389   1.543  -0.415  -0.437  1.4810 -1.5689  0.1390
  418MOL0     H56390   1.293  -0.449  -0.532 -0.6828  0.1842  0.8068
  418MOL0     H56391   1.004  -0.403  -0.740 -0.7261  0.6815  2.5763
  418MOL0     H56392   1.176  -0.401  -0.790  0.1161  0.4667  0.7488
  418MOL0     H56393   1.101  -0.519  -0.665 -2.0441 -0.6725 -2.1610
  418MOL0     H56394   0.796   0.159  -0.707  0.0678  0.0716 -1.6680
  418MOL0     H56395   0.581   0.205  -0.784  2.4407  0.6909  0.3913
  418MOL0     H56396   0.370   0.243  -0.752 -1.2443  1.3468 -1.6239
  418MOL0     H56397   0.391   0.181  -0.910  2.2691  3.0073  0.7057
  418MOL0     H56398   0.180   0.288  -0.906  0.1983 -0.1242 -1.9856
  418MOL0     H56399   0.135   0.125  -0.898 -0.3469  1.1044 -1.9156
  418MOL0     H56400   0.170   0.285  -0.639  1.0410 -1.0801 -1.3075
  418MOL0     H56401   0.072   0.138  -0.655  1.2500 -0.9894 -0.9831
  418MOL0     H56402  -0.043   0.372  -0.641 -0.9261  2.1973 -1.7887
  418MOL0     H56403   0.006   0.402  -0.797  0.0150  0.0390  1.5816
  418MOL0     H56404  -0.160   0.150  -0.715 -1.0677 -1.1977 -2.3848
  418MOL0     H56405  -0.136   0.196  -0.873  0.9893 -0.2127  0.9155
  418MOL0     H56406  -0.267   0.381  -0.681 -0.9529  2.8071 -1.9926
  418MOL0     H56407  -0.247   0.402  -0.848  0.9527  0.7651  1.6099
  418MOL0     H56408  -0.420   0.166  -0.735 -4.5422  1.1677 -0.4072
  418MOL0     H56409  -0.391   0.205  -0.897 -0.3182 -1.7070  0.2497
  418MOL0     H56410  -0.598   0.323  -0.846  0.6205  0.5035 -0.9514
  418MOL0     H56411  -0.476   0.447  -0.828 -0.1289  0.1499  0.9907
  418MOL0     H56412   0.449  -0.181  -0.637  1.0227  0.1076  3.0971
  418MOL0     H56413   0.689  -0.215  -0.550 -1.9479  0.5858  0.9838
  418MOL0     H56414   1.072  -0.018  -0.460 -1.5284 -0.3446  2.1664
  418MOL0     H56415   1.272  -0.089  -0.313  1.2357 -1.5597  0.5677
  418MOL0     H56416   1.103   0.806   0.839  0.0900  0.3072  0.0859
  418MOL0     H56417   0.880   0.840   0.984 -0.5714 -1.1029  0.7459
  418MOL0     H56418   0.434   0.873   0.942  2.2772  0.1730  2.6166
  418MOL0     H56419   0.208   0.911   1.042  0.6634  0.7886 -0.1135
  418MOL0     H56420  -0.015   0.563   1.165 -1.0178 -1.7668  1.9411
  418MOL0     H56421   0.017   0.653   1.321  0.1307  3.0659  0.7765
  418MOL0     H56422  -0.215   0.687   1.125 -0.3263 -2.4687  1.0594
  418MOL0     H56423  -0.165   0.809   1.241 -0.8364 -0.2349 -2.0012
  418MOL0     H56424  -0.204   0.642   1.429 -3.8251  1.6080  1.2566
  418MOL0     H56425  -0.237   0.506   1.311  2.2841 -0.2379  1.4452
  418MOL0     H56426  -0.433   0.684   1.240  0.3146  4.1034  0.2310
  418MOL0     H56427  -0.399   0.770   1.381 -0.5336 -0.9181  0.6402
  418MOL0     H56428  -0.577   0.451   1.576 -0.6334 -1.1216 -1.9661
  418MOL0     H56429   0.193   0.504   1.170  1.1896 -0.1776 -0.6471
  418MOL0     H56430   0.426   0.480   1.111  1.7224  0.2890  0.7611
  419MOL0     O56431  10.513   5.575   3.972 -0.5478 -0.1120  0.3468
  419MOL0     C56432  10.566   5.622   3.874 -0.3021  1.4980  0.5381
  419MOL0     O56433  10.496   5.679   3.767 -0.0348 -0.6728 -0.0357
  419MOL0     C56434  10.363   5.686   3.748 -0.2222  0.7258  0.5059
  419MOL0     C56435  10.267   5.705   3.848  0.1440  0.3748  0.4300
  419MOL0     C56436  10.133   5.720   3.814 -0.2642  0.2994 -0.8555
  419MOL0     C56437  10.096   5.711   3.683  0.0655  0.2224  0.9374
  419MOL0     O56438   9.963   5.719   3.643  0.0149  0.0975 -0.2069
  419MOL0     C56439   9.854   5.690   3.728 -0.6515 -0.9380 -1.1188
  419MOL0     C56440   9.825   5.836   3.784  0.7645 -0.7171  0.4783
  419MOL0     C56441   9.694   5.834   3.874 -0.2876 -0.6943  0.6592
  419MOL0     C56442   9.628   5.972   3.893 -0.2817  0.0671 -0.0607
  419MOL0     C56443   9.489   5.975   3.944 -0.3415  0.3893  0.2672
  419MOL0     C56444   9.396   5.903   3.853  0.1668  0.3292 -0.8057
  419MOL0     C56445   9.266   5.889   3.928 -0.0577 -0.3680  0.3985
  419MOL0     C56446   9.179   6.017   3.951  0.1730  0.2413  0.0507
  419MOL0     N56447   9.036   5.977   3.974 -0.2678 -0.2042  0.7148
  419MOL0     C56448   9.001   5.882   4.065  0.2845 -0.5158 -0.5325
  419MOL0     C56449   8.865   5.908   4.093 -0.1813  0.1805 -0.2871
  419MOL0     C56450   8.769   5.836   4.185 -0.9860  0.0740  0.0440
  419MOL0     C56451   8.688   5.734   4.092  0.1925 -0.1626 -1.0521
  419MOL0     C56452   8.596   5.809   3.986  0.5046 -0.3174 -0.5846
  419MOL0     C56453   8.500   5.916   4.037 -0.2144 -0.1502  0.1359
  419MOL0     O56454   8.402   5.877   4.137  0.8398 -0.1668 -0.2266
  419MOL0     C56455   8.277   5.830   4.109 -0.5267 -0.4716 -0.1942
  419MOL0     C56456   8.182   5.830   4.220 -0.5608  0.3082 -1.0087
  419MOL0     C56457   8.053   5.792   4.185  0.4157 -0.0972  0.6378
  419MOL0     C56458   7.965   5.780   4.312  0.6847 -0.3395  0.4466
  419MOL0     C56459   8.011   5.766   4.049 -0.3971 -0.0131 -0.4106
  419MOL0     C56460   7.868   5.733   4.008  0.9759 -0.7117 -0.9362
  419MOL0     O56461   7.855   5.650   3.899 -0.5601 -0.0128 -0.5768
  419MOL0     C56462   7.742   5.572   3.883  0.1096 -0.4111 -0.8723
  419MOL0     C56463   7.658   5.523   3.990 -0.0709  0.1277 -0.6296
  419MOL0     C56464   7.552   5.443   3.958 -0.8325 -0.7435 -0.3583
  419MOL0     C56465   7.521   5.418   3.825  0.1512  0.1911  0.0850
  419MOL0     O56466   7.403   5.357   3.784  0.6865 -0.6030  0.2046
  419MOL0     C56467   7.324   5.284   3.879 -0.0663 -0.0931 -1.1067
  419MOL0     C56468   7.191   5.262   3.802 -0.4961  0.3621 -0.4798
  419MOL0     C56469   7.203   5.185   3.672 -0.0973  1.1399 -0.1318
  419MOL0     C56470   7.078   5.203   3.585  0.0728  0.5990 -0.3056
  419MOL0     C56471   7.101   5.160   3.437  0.6818  0.4344 -0.3891
  419MOL0     C56472   7.005   5.230   3.345 -0.1432 -0.6384  0.8167
  419MOL0     C56473   6.857   5.204   3.370  0.8158 -0.4002 -0.5988
  419MOL0     C56474   6.757   5.239   3.266  0.9743 -0.7951  0.1673
  419MOL0    Cl56475   6.756   5.103   3.153 -0.0270 -0.2832 -0.0578
  419MOL0     C56476   7.598   5.472   3.726 -0.0170  0.2039  0.4029
  419MOL0     C56477   7.713   5.537   3.753  0.4520 -0.1207  0.4626
  419MOL0     O56478   7.774   5.787   4.072  0.2538  0.6960 -0.1309
  419MOL0     C56479   8.107   5.757   3.954  0.6117  0.5652 -0.3566
  419MOL0     C56480   8.235   5.787   3.984 -0.4691 -0.1303  0.6178
  419MOL0     N56481   8.832   6.021   4.020  1.0894  0.2799  0.1155
  419MOL0     N56482   8.935   6.059   3.946  0.0930  0.3150 -0.3477
  419MOL0     C56483  10.191   5.691   3.582  0.1191  0.6240  0.6383
  419MOL0     C56484  10.329   5.675   3.615  0.4350 -0.1346 -0.2763
  419MOL0     C56485  10.714   5.612   3.869 -0.1282  0.0098 -0.0294
  419MOL0     C56486  10.791   5.554   3.970 -0.7194  0.4740  0.2509
  419MOL0     C56487  10.930   5.547   3.957 -0.0541 -1.1232  1.2592
  419MOL0     C56488  11.003   5.606   3.855 -0.1451  0.0685 -0.2414
  419MOL0     O56489  11.132   5.584   3.848 -0.1366 -0.2503 -0.2977
  419MOL0     C56490  11.206   5.689   3.908  0.6045  0.2905 -0.1520
  419MOL0     C56491  11.331   5.707   3.823  0.1292 -0.3902 -0.4821
  419MOL0     C56492  11.417   5.826   3.875  0.1577 -0.5613 -0.5943
  419MOL0     C56493  11.488   5.907   3.763 -0.0203  0.4114 -0.1652
  419MOL0     C56494  11.392   5.990   3.680 -0.1411  0.0962 -0.3986
  419MOL0     C56495  11.329   6.067   3.617  0.2551 -0.1674 -0.6357
  419MOL0     C56496  10.928   5.667   3.751 -0.1544 -0.0395 -0.1926
  419MOL0     C56497  10.785   5.661   3.759  1.0290  0.7716 -0.0919
  419MOL0     H56498  10.310   5.716   3.947  2.0927  1.9994 -0.5172
  419MOL0     H56499  10.064   5.742   3.894 -0.0963  0.7792 -0.8381
  419MOL0     H56500   9.769   5.658   3.667 -1.8699  2.7037 -1.5954
  419MOL0     H56501   9.872   5.615   3.806 -1.1543 -0.0185 -0.0922
  419MOL0     H56502   9.909   5.873   3.843  0.2261  2.4669 -0.5383
  419MOL0     H56503   9.810   5.913   3.708  4.1972  0.4134  0.7717
  419MOL0     H56504   9.625   5.781   3.807 -0.1038  0.9137 -0.8760
  419MOL0     H56505   9.706   5.779   3.968  2.4301 -1.5204 -0.0622
  419MOL0     H56506   9.685   6.027   3.969 -2.5890  1.2103  0.9335
  419MOL0     H56507   9.632   6.030   3.800 -1.0576  0.6404  0.2509
  419MOL0     H56508   9.489   5.922   4.040 -0.6509  0.6723  0.4264
  419MOL0     H56509   9.451   6.077   3.955 -0.1443  0.6106 -1.0381
  419MOL0     H56510   9.388   5.936   3.749  0.8242  0.7176 -0.7395
  419MOL0     H56511   9.427   5.798   3.854  2.1299  0.8539 -2.0499
  419MOL0     H56512   9.200   5.832   3.862 -0.8427  2.1474 -1.1140
  419MOL0     H56513   9.279   5.834   4.022  0.4894 -1.1441 -0.1202
  419MOL0     H56514   9.171   6.081   3.863 -2.4145  2.4981  1.7532
  419MOL0     H56515   9.229   6.086   4.020  3.4643  2.5648 -4.2009
  419MOL0     H56516   9.067   5.809   4.111  0.4266 -1.4492 -2.1484
  419MOL0     H56517   8.817   5.786   4.270 -1.1261 -0.0242  0.0653
  419MOL0     H56518   8.699   5.911   4.223 -1.1863 -1.0030  1.9387
  419MOL0     H56519   8.630   5.675   4.163  0.7760 -0.2311 -0.6191
  419MOL0     H56520   8.759   5.665   4.045  1.9814  1.9283 -1.6244
  419MOL0     H56521   8.533   5.732   3.940 -0.2709 -0.5311  0.7746
  419MOL0     H56522   8.655   5.857   3.908  1.3227 -0.7473 -0.2374
  419MOL0     H56523   8.450   5.960   3.951  1.1214  0.2403 -0.4661
  419MOL0     H56524   8.562   6.000   4.071  0.8899 -1.0366  0.3655
  419MOL0     H56525   8.212   5.865   4.318  1.2379  1.3012 -1.8503
  419MOL0     H56526   7.914   5.876   4.324 -1.7264 -1.3817 -0.8326
  419MOL0     H56527   7.888   5.703   4.303  0.8298 -0.4345 -0.0232
  419MOL0     H56528   8.023   5.766   4.404  0.5747  0.2622  0.6113
  419MOL0     H56529   7.693   5.523   4.093 -0.7118  1.2446 -0.3920
  419MOL0     H56530   7.507   5.400   4.047 -0.3072 -1.2423 -0.3332
  419MOL0     H56531   7.368   5.190   3.912  0.1232  0.8154  1.4360
  419MOL0     H56532   7.302   5.341   3.970  0.1879 -1.3076 -0.2587
  419MOL0     H56533   7.125   5.201   3.864  1.4486 -0.1332  1.1852
  419MOL0     H56534   7.147   5.362   3.787 -1.1239  0.4680  1.7881
  419MOL0     H56535   7.222   5.079   3.690 -0.6016  0.6066 -2.4837
  419MOL0     H56536   7.284   5.229   3.612 -0.1560  1.1531 -0.2004
  419MOL0     H56537   6.991   5.147   3.621  1.7247 -2.2019 -0.3508
  419MOL0     H56538   7.054   5.309   3.597 -0.0374  0.3746  1.7398
  419MOL0     H56539   7.086   5.054   3.415  0.3026  0.4228 -0.0827
  419MOL0     H56540   7.197   5.199   3.404 -0.3531  2.0917 -1.6216
  419MOL0     H56541   7.023   5.338   3.345 -0.8807 -0.5071  0.3178
  419MOL0     H56542   7.021   5.194   3.243 -1.3479  1.2018 -0.0587
  419MOL0     H56543   6.832   5.249   3.467  1.6404  0.8264 -0.9294
  419MOL0     H56544   6.849   5.099   3.399  2.1356 -1.0483 -2.3744
  419MOL0     H56545   6.802   5.324   3.214 -0.2310  0.1182  0.5888
  419MOL0     H56546   6.660   5.256   3.312  1.2771  1.0594  0.1978
  419MOL0     H56547   7.564   5.469   3.623 -2.2309  0.7955  1.0479
  419MOL0     H56548   7.779   5.567   3.672  0.4866  0.2032  0.6089
  419MOL0     H56549   8.075   5.742   3.852  0.1023 -0.0082 -0.1159
  419MOL0     H56550   8.309   5.791   3.904 -3.0680 -0.3875 -1.9527
  419MOL0     H56551  10.155   5.701   3.481 -0.3428 -0.9125  0.6346
  419MOL0     H56552  10.409   5.669   3.542  0.2989 -3.9958 -0.3369
  419MOL0     H56553  10.744   5.504   4.054 -0.7812  0.0774 -0.0157
  419MOL0     H56554  10.986   5.500   4.038  1.3359 -3.3416 -0.8396
  419MOL0     H56555  11.148   5.781   3.918  1.4422  0.9093 -0.8287
  419MOL0     H56556  11.226   5.659   4.011 -0.1055  2.7644  0.7664
  419MOL0     H56557  11.314   5.724   3.717 -0.1630 -2.0484 -0.7168
  419MOL0     H56558  11.385   5.612   3.819 -0.8147 -0.9920  0.4731
  419MOL0     H56559  11.495   5.786   3.941  1.3495 -0.8709 -2.1418
  419MOL0     H56560  11.362   5.900   3.935 -0.2826 -1.0369 -0.4035
  419MOL0     H56561  11.544   5.839   3.698 -0.0019  0.2525  0.0204
  419MOL0     H56562  11.563   5.972   3.810 -0.8958  1.1563  0.2299
  419MOL0     H56563  11.268   6.136   3.562 -0.9851 -0.1523  0.6906
  419MOL0     H56564  10.986   5.709   3.669  0.6309  0.3615  0.5494
  419MOL0     H56565  10.740   5.699   3.668  1.8150  0.3348 -0.6886
  420MOL0     O56566   4.455   9.344   6.368  0.1150  0.5194  0.2642
  420MOL0     C56567   4.496   9.337   6.245  0.3063  0.1434 -0.2045
  420MOL0     O56568   4.416   9.322   6.137 -0.2615  0.3563  0.4467
  420MOL0     C56569   4.287   9.311   6.156 -0.0495 -0.4303 -0.7518
  420MOL0     C56570   4.214   9.391   6.237 -1.1917  0.1333  0.1780
  420MOL0     C56571   4.080   9.387   6.241  1.2215  0.7286  0.3179
  420MOL0     C56572   4.021   9.277   6.174 -0.2693 -0.8060  0.7542
  420MOL0     O56573   3.887   9.249   6.164  0.3153 -0.2593 -0.3931
  420MOL0     C56574   3.793   9.354   6.204  0.2129 -0.5996 -0.8076
  420MOL0     C56575   3.746   9.325   6.344  0.4043 -0.6663 -0.3934
  420MOL0     C56576   3.612   9.390   6.381  1.3575 -0.0974 -1.0070
  420MOL0     C56577   3.498   9.354   6.294 -0.1651  0.3319  0.4459
  420MOL0     C56578   3.358   9.341   6.362  0.1167 -0.4450  0.5331
  420MOL0     C56579   3.251   9.354   6.248  0.2787  0.5673 -0.4871
  420MOL0     C56580   3.099   9.341   6.274 -0.0565  0.0576 -0.2019
  420MOL0     C56581   3.047   9.469   6.349 -0.0926 -0.2840 -0.4123
  420MOL0     N56582   2.902   9.491   6.328 -0.2654 -0.1985 -0.6831
  420MOL0     C56583   2.798   9.430   6.393 -0.0455  0.3779 -0.2096
  420MOL0     C56584   2.690   9.470   6.321 -0.2612  0.6407 -0.0721
  420MOL0     C56585   2.540   9.436   6.341 -0.2921  0.1635  0.5956
  420MOL0     C56586   2.452   9.428   6.213  0.0575 -0.2065  0.1678
  420MOL0     C56587   2.313   9.369   6.242 -0.4084 -0.3635 -0.1967
  420MOL0     C56588   2.235   9.443   6.351 -0.9711  0.3754 -0.1036
  420MOL0     O56589   2.141   9.356   6.397 -0.1216 -0.9480 -0.7350
  420MOL0     C56590   2.017   9.382   6.348  0.8193 -0.3562  0.6542
  420MOL0     C56591   1.914   9.420   6.430  0.8282  0.3264 -0.9408
  420MOL0     C56592   1.778   9.455   6.387 -0.3086  0.8881 -0.3706
  420MOL0     C56593   1.679   9.506   6.487  0.2148 -0.0895 -0.6578
  420MOL0     C56594   1.752   9.449   6.248 -0.0337  0.1017 -0.4062
  420MOL0     C56595   1.617   9.467   6.186  0.1228  0.2054  0.0579
  420MOL0     O56596   1.513   9.490   6.275 -0.1837  0.0021 -0.0032
  420MOL0     C56597   1.386   9.492   6.232  0.5091  0.1258  0.5758
  420MOL0     C56598   1.297   9.417   6.307  0.3502 -1.2206  0.0075
  420MOL0     C56599   1.163   9.405   6.277 -0.2130  0.2888  0.6196
  420MOL0     C56600   1.112   9.476   6.169 -0.2229  0.2877 -0.4824
  420MOL0     O56601   0.985   9.470   6.124  0.4292  0.3990  0.5376
  420MOL0     C56602   0.922   9.346   6.152 -0.3308  0.1362  0.1578
  420MOL0     C56603   0.795   9.322   6.057 -0.6850 -0.1998 -1.3984
  420MOL0     C56604   0.700   9.433   6.093 -0.0658  0.0646 -0.1458
  420MOL0     C56605   0.589   9.451   5.993  0.4035  0.3626 -0.5965
  420MOL0     C56606   0.490   9.557   6.023  0.0931  0.6194 -0.3223
  420MOL0     C56607   0.411   9.583   5.890 -0.1474 -0.1710 -0.3237
  420MOL0     C56608   0.308   9.701   5.911 -0.0343 -0.4103 -0.3627
  420MOL0     C56609   0.203   9.709   5.809 -0.7096 -0.0727  0.0527
  420MOL0    Cl56610   0.114   9.860   5.853  0.0145  0.1671  0.0428
  420MOL0     C56611   1.204   9.558   6.091 -0.9158  0.2077  0.3229
  420MOL0     C56612   1.342   9.560   6.122 -0.2431 -0.0734 -0.1401
  420MOL0     O56613   1.607   9.444   6.067  0.6995 -0.4196  0.2205
  420MOL0     C56614   1.859   9.413   6.165 -1.0968 -0.1939 -0.0953
  420MOL0     C56615   1.983   9.367   6.210 -0.4087 -0.2605  0.7011
  420MOL0     N56616   2.732   9.569   6.242 -0.5596 -0.2543 -0.2275
  420MOL0     N56617   2.857   9.577   6.240 -0.5107  0.4584 -0.3111
  420MOL0     C56618   4.096   9.187   6.095 -0.2291  0.3241 -0.6227
  420MOL0     C56619   4.231   9.202   6.083 -0.4607 -1.0120  1.0606
  420MOL0     C56620   4.641   9.333   6.211  0.1045  0.5909 -0.1577
  420MOL0     C56621   4.684   9.285   6.087  0.2371 -0.5256 -0.0066
  420MOL0     C56622   4.819   9.284   6.061  0.5005  0.4175  0.3482
  420MOL0     C56623   4.917   9.330   6.154  0.5246 -1.0188 -0.6015
  420MOL0     O56624   5.046   9.351   6.112  0.5925  0.3717 -0.1796
  420MOL0     C56625   5.141   9.334   6.211 -0.7342 -0.4052 -0.0412
  420MOL0     C56626   5.282   9.307   6.140  0.7369  0.4505  0.4198
  420MOL0     C56627   5.265   9.209   6.027  1.0172 -0.0794 -0.4564
  420MOL0     C56628   5.212   9.071   6.075  0.4934 -0.5324 -0.0273
  420MOL0     C56629   5.321   8.992   6.136  0.3051  0.0467  0.1080
  420MOL0     C56630   5.392   8.904   6.189  0.1849  0.3073  0.1892
  420MOL0     C56631   4.867   9.368   6.284  0.3343  0.1972 -0.4663
  420MOL0     C56632   4.731   9.365   6.315  0.0806  0.4193 -0.4398
  420MOL0     H56633   4.259   9.476   6.287  1.0327 -1.2378  0.6510
  420MOL0     H56634   4.028   9.452   6.310 -0.2390 -1.7575  1.7200
  420MOL0     H56635   3.843   9.451   6.205 -1.6344  0.4551  1.9688
  420MOL0     H56636   3.715   9.366   6.128 -0.7238  2.9765  0.5272
  420MOL0     H56637   3.736   9.217   6.360 -1.1190 -0.1673  2.7828
  420MOL0     H56638   3.813   9.350   6.427  1.1614 -3.1832 -0.1501
  420MOL0     H56639   3.585   9.381   6.486 -0.1473  1.1872 -1.2495
  420MOL0     H56640   3.627   9.499   6.376  1.9060 -0.1793 -5.5086
  420MOL0     H56641   3.498   9.412   6.202 -0.4139 -1.7898 -0.9524
  420MOL0     H56642   3.516   9.254   6.255 -1.0185  0.2319  0.2963
  420MOL0     H56643   3.348   9.249   6.420 -1.2349 -0.3731  0.4439
  420MOL0     H56644   3.341   9.427   6.428 -0.2890 -0.6161  0.6551
  420MOL0     H56645   3.256   9.452   6.198 -0.4202  0.7221 -0.2692
  420MOL0     H56646   3.272   9.273   6.178  0.4708 -1.6924  2.0470
  420MOL0     H56647   3.038   9.342   6.184  0.9159  1.0966 -0.8774
  420MOL0     H56648   3.065   9.250   6.324 -3.2050  0.7314 -0.9123
  420MOL0     H56649   3.106   9.558   6.324  1.2827 -0.5498  1.6787
  420MOL0     H56650   3.068   9.451   6.455  1.0614  0.6495 -0.4523
  420MOL0     H56651   2.804   9.363   6.478  0.4078  1.0128  0.2749
  420MOL0     H56652   2.544   9.353   6.411  0.4716 -0.6543 -0.3874
  420MOL0     H56653   2.492   9.518   6.396 -5.2543  0.0903 -2.9544
  420MOL0     H56654   2.493   9.364   6.135 -0.5922 -0.4138 -0.0136
  420MOL0     H56655   2.439   9.528   6.171 -2.1266 -0.4900  0.0356
  420MOL0     H56656   2.315   9.260   6.258 -0.4467 -0.2284  0.7866
  420MOL0     H56657   2.249   9.382   6.154 -0.4871  1.8108  0.1278
  420MOL0     H56658   2.207   9.546   6.328 -0.8482  0.2908 -0.6485
  420MOL0     H56659   2.303   9.454   6.435  0.8900 -0.4496 -1.4214
  420MOL0     H56660   1.937   9.425   6.535  0.7935  0.0449 -0.9184
  420MOL0     H56661   1.600   9.434   6.508  1.1096 -0.9059 -0.0096
  420MOL0     H56662   1.733   9.524   6.581  1.1408  2.0704 -1.5333
  420MOL0     H56663   1.637   9.598   6.445  3.3338  1.8511  0.0611
  420MOL0     H56664   1.322   9.365   6.399 -0.3036  1.4876  1.8398
  420MOL0     H56665   1.094   9.354   6.343 -0.1357 -0.6712 -0.0306
  420MOL0     H56666   0.993   9.265   6.135 -0.7153 -0.6529  2.0692
  420MOL0     H56667   0.894   9.330   6.256 -0.8913 -1.3353 -0.1961
  420MOL0     H56668   0.815   9.318   5.950  1.4944 -2.4730 -1.0117
  420MOL0     H56669   0.755   9.229   6.097 -0.8441 -0.0430 -1.1868
  420MOL0     H56670   0.751   9.529   6.099  1.5885 -0.6535 -1.7399
  420MOL0     H56671   0.654   9.415   6.191 -1.0306 -2.7594 -1.0245
  420MOL0     H56672   0.623   9.457   5.889 -3.3047  1.8774 -1.8612
  420MOL0     H56673   0.540   9.353   5.994 -0.2214  0.6761 -0.4050
  420MOL0     H56674   0.545   9.649   6.046  0.3443  0.1063  1.2093
  420MOL0     H56675   0.420   9.526   6.101  1.2512  1.1028  0.9469
  420MOL0     H56676   0.480   9.599   5.806 -1.2126 -1.7569 -1.5666
  420MOL0     H56677   0.357   9.493   5.861  1.3661 -0.3670 -2.9028
  420MOL0     H56678   0.356   9.799   5.920 -0.0154 -0.4470 -0.0544
  420MOL0     H56679   0.256   9.687   6.006  0.2091 -0.8677 -0.2958
  420MOL0     H56680   0.151   9.615   5.828  0.3314 -0.3585  1.7951
  420MOL0     H56681   0.242   9.710   5.707  1.5431 -4.2220  0.6642
  420MOL0     H56682   1.160   9.599   6.001  0.5794 -0.7054 -0.8715
  420MOL0     H56683   1.398   9.622   6.053 -0.2345  1.8354  1.4680
  420MOL0     H56684   1.837   9.395   6.060 -0.3145  0.9857 -0.4907
  420MOL0     H56685   2.050   9.341   6.129 -1.9971  3.9693 -2.3605
  420MOL0     H56686   4.036   9.111   6.047 -4.5737  0.4551  3.7913
  420MOL0     H56687   4.299   9.141   6.025  1.6663 -0.9807  3.3772
  420MOL0     H56688   4.609   9.259   6.013  1.6503 -1.1939 -1.2603
  420MOL0     H56689   4.849   9.241   5.966 -2.3676 -1.8331  0.3339
  420MOL0     H56690   5.150   9.422   6.275 -2.3593 -0.2861  0.0687
  420MOL0     H56691   5.119   9.250   6.278  1.8032 -0.9460  0.1887
  420MOL0     H56692   5.348   9.251   6.207  1.6428 -0.0909 -0.8739
  420MOL0     H56693   5.335   9.394   6.101  2.1153  0.6354  2.5042
  420MOL0     H56694   5.365   9.189   5.987  1.0396 -1.0886  0.0898
  420MOL0     H56695   5.200   9.247   5.947 -0.0656 -1.4941 -0.2904
  420MOL0     H56696   5.162   9.010   5.999 -1.8623  1.5491 -0.2549
  420MOL0     H56697   5.131   9.084   6.146  0.3200  0.9775 -0.4799
  420MOL0     H56698   5.457   8.819   6.190  0.5630  0.5931  0.1267
  420MOL0     H56699   4.929   9.403   6.366 -0.5779  0.5406  0.0909
  420MOL0     H56700   4.699   9.385   6.416  1.0852  1.3111 -0.2756
  421MOL0     O56701   2.860   7.042   6.887 -0.0917  0.6413 -0.0671
  421MOL0     C56702   2.875   7.028   7.010  0.6022 -0.3843 -0.2588
  421MOL0     O56703   2.770   7.043   7.105  0.4621 -0.5397 -0.3430
  421MOL0     C56704   2.639   7.045   7.057  0.1414 -0.6812  0.5259
  421MOL0     C56705   2.602   6.950   6.961  0.4832  1.2781  0.1582
  421MOL0     C56706   2.464   6.953   6.918 -0.2278  0.0306  0.3304
  421MOL0     C56707   2.373   7.057   6.962 -0.6931  0.1223 -0.6721
  421MOL0     O56708   2.250   7.070   6.896 -0.0384  0.5228  0.4430
  421MOL0     C56709   2.133   7.075   6.986 -0.5850  1.0185  0.4005
  421MOL0     C56710   2.005   7.094   6.908 -0.3297 -0.3193 -0.4677
  421MOL0     C56711   1.878   7.109   6.995  0.8565 -0.1340  0.0930
  421MOL0     C56712   1.759   7.185   6.928  0.1989 -0.6456  1.0392
  421MOL0     C56713   1.646   7.224   7.030  0.5004 -0.0913  0.8276
  421MOL0     C56714   1.509   7.267   6.955  0.5477  0.3618  0.1009
  421MOL0     C56715   1.392   7.272   7.050  0.4568 -0.4396  0.0840
  421MOL0     C56716   1.255   7.308   6.986  0.7271  0.4190 -0.0819
  421MOL0     N56717   1.227   7.207   6.878  0.2911 -0.6990 -0.0304
  421MOL0     C56718   1.195   7.239   6.754  0.2478 -0.4568  0.1358
  421MOL0     C56719   1.143   7.128   6.695  0.0076  0.5600 -0.5377
  421MOL0     C56720   1.085   7.119   6.560  0.4437 -0.2879 -0.0792
  421MOL0     C56721   1.151   7.204   6.453 -0.2096  0.5160 -1.0320
  421MOL0     C56722   1.121   7.173   6.300 -0.4818 -0.8575 -0.3839
  421MOL0     C56723   0.972   7.205   6.260  0.0468  0.1614  0.5936
  421MOL0     O56724   0.891   7.243   6.374  0.5031  0.3242 -0.0611
  421MOL0     C56725   0.761   7.276   6.344 -0.4680 -0.2025  0.2200
  421MOL0     C56726   0.682   7.304   6.459  0.7339 -0.3289  0.1885
  421MOL0     C56727   0.542   7.324   6.445  0.6219  0.5987  0.2314
  421MOL0     C56728   0.459   7.330   6.573 -0.0955  0.4705  0.4794
  421MOL0     C56729   0.488   7.339   6.313  0.4487  0.2468 -0.6091
  421MOL0     C56730   0.355   7.371   6.287  0.7718 -1.3625 -0.6656
  421MOL0     O56731   0.317   7.384   6.155 -0.1673 -0.2739 -0.3029
  421MOL0     C56732   0.190   7.414   6.128 -0.7168 -0.1347 -0.6280
  421MOL0     C56733   0.159   7.541   6.072 -0.9005 -0.3273  0.2963
  421MOL0     C56734   0.025   7.564   6.038  0.4940  0.6727 -0.2039
  421MOL0     C56735  -0.079   7.466   6.056  0.9221  0.8306 -0.5796
  421MOL0     O56736  -0.209   7.489   6.017 -0.0395 -0.5711  0.4896
  421MOL0     C56737  -0.262   7.624   6.030  0.9687  0.5806  0.1085
  421MOL0     C56738  -0.410   7.616   6.002  0.8685  0.1486 -0.1998
  421MOL0     C56739  -0.465   7.746   6.051  0.5599  0.6157  0.0854
  421MOL0     C56740  -0.611   7.741   6.035  0.0540  0.3685  1.3760
  421MOL0     C56741  -0.681   7.865   6.076 -0.1324 -0.0824 -0.4245
  421MOL0     C56742  -0.831   7.873   6.054 -0.6346 -0.9000  0.5861
  421MOL0     C56743  -0.904   7.791   6.158 -0.0457  0.7778  0.2056
  421MOL0     C56744  -1.054   7.823   6.151  0.2161  0.3542 -0.8828
  421MOL0    Cl56745  -1.088   8.000   6.163  0.0256  0.0672  0.0308
  421MOL0     C56746  -0.044   7.345   6.114  0.2015 -0.4680  0.4021
  421MOL0     C56747   0.084   7.315   6.155 -0.0532  0.9025  0.0206
  421MOL0     O56748   0.286   7.421   6.380 -0.0974 -0.1581 -0.2718
  421MOL0     C56749   0.567   7.319   6.201 -0.2988  0.1420 -0.5749
  421MOL0     C56750   0.704   7.280   6.215 -0.1449  0.6082 -0.2129
  421MOL0     N56751   1.143   7.025   6.795 -0.3852  0.0337 -0.1216
  421MOL0     N56752   1.186   7.080   6.905  0.5447 -0.1924  0.5293
  421MOL0     C56753   2.409   7.126   7.080 -0.5897 -0.4735  0.7376
  421MOL0     C56754   2.537   7.111   7.122  0.9670 -1.1424 -0.7328
  421MOL0     C56755   3.008   6.995   7.059  0.7352 -0.5879 -0.3813
  421MOL0     C56756   3.034   6.953   7.191  0.0587  0.5350  0.3428
  421MOL0     C56757   3.161   6.913   7.236 -0.7812 -0.8626  0.1885
  421MOL0     C56758   3.271   6.912   7.143  0.2541  0.2363 -0.0567
  421MOL0     O56759   3.395   6.871   7.189  0.0807 -0.7478 -0.1225
  421MOL0     C56760   3.507   6.871   7.100  0.7619  0.2546 -0.3187
  421MOL0     C56761   3.628   6.822   7.181  0.2846 -0.2454 -0.2944
  421MOL0     C56762   3.677   6.914   7.301  0.1444 -0.5500 -0.6858
  421MOL0     C56763   3.808   6.855   7.366  0.6697 -0.6540 -1.0448
  421MOL0     C56764   3.770   6.750   7.462 -1.0309 -0.2173 -0.1124
  421MOL0     C56765   3.735   6.678   7.550  0.5101 -0.4953  0.2940
  421MOL0     C56766   3.244   6.953   7.018 -0.4751 -0.8347  0.2985
  421MOL0     C56767   3.122   6.994   6.975 -0.3417  0.0794  0.0378
  421MOL0     H56768   2.671   6.876   6.922 -1.5562 -0.3905 -0.4609
  421MOL0     H56769   2.406   6.879   6.864 -1.6637  1.1242  0.2852
  421MOL0     H56770   2.128   6.981   7.042 -1.0401 -1.8650 -3.9816
  421MOL0     H56771   2.136   7.160   7.055  0.6787 -0.2330  1.9835
  421MOL0     H56772   2.015   7.170   6.830 -1.1315 -1.0043 -1.2627
  421MOL0     H56773   1.983   7.003   6.852 -3.6781 -0.6243  1.0716
  421MOL0     H56774   1.848   7.013   7.038  0.9251  0.6779  2.0616
  421MOL0     H56775   1.910   7.166   7.083  1.6889 -2.8371  1.6391
  421MOL0     H56776   1.798   7.274   6.876 -1.6933 -0.3421  0.0460
  421MOL0     H56777   1.704   7.121   6.858 -1.3089  1.1610  0.4852
  421MOL0     H56778   1.634   7.141   7.100  0.8393 -0.9031 -0.0507
  421MOL0     H56779   1.679   7.307   7.092 -0.4632  0.4231  0.6661
  421MOL0     H56780   1.530   7.363   6.908  3.4155 -0.1588  0.1307
  421MOL0     H56781   1.495   7.186   6.883 -1.5851  0.0826  0.7672
  421MOL0     H56782   1.383   7.179   7.107 -1.9046  0.0326  0.6045
  421MOL0     H56783   1.418   7.348   7.124 -0.1055 -1.6756  1.6105
  421MOL0     H56784   1.251   7.415   6.964  0.5659  0.1246 -1.6234
  421MOL0     H56785   1.180   7.281   7.061  0.0994 -2.0282 -1.4699
  421MOL0     H56786   1.198   7.336   6.706 -1.7889 -0.9554 -1.1219
  421MOL0     H56787   1.099   7.017   6.524  2.6061 -0.1252  0.1533
  421MOL0     H56788   0.977   7.131   6.565  0.3538 -0.8274 -0.5923
  421MOL0     H56789   1.260   7.189   6.456  0.0295  1.4520 -3.2323
  421MOL0     H56790   1.127   7.307   6.480  0.2230  0.5840 -0.8809
  421MOL0     H56791   1.154   7.073   6.270 -0.2993 -0.6746 -0.8011
  421MOL0     H56792   1.188   7.239   6.244 -0.3179  1.4859  2.3591
  421MOL0     H56793   0.919   7.121   6.214 -1.6424  0.6518  1.5712
  421MOL0     H56794   0.972   7.276   6.177  1.8161 -1.4712 -0.9180
  421MOL0     H56795   0.736   7.303   6.554  0.8610 -0.9270  0.1140
  421MOL0     H56796   0.371   7.267   6.558  0.2838  0.4866 -2.3282
  421MOL0     H56797   0.519   7.286   6.653  0.9396 -0.3336 -0.7026
  421MOL0     H56798   0.433   7.434   6.594  1.4157  1.0802 -0.5406
  421MOL0     H56799   0.241   7.612   6.061  0.5207 -1.8700  0.6077
  421MOL0     H56800  -0.007   7.659   5.999 -1.7321 -0.3713 -1.0624
  421MOL0     H56801  -0.239   7.660   6.131 -2.3653 -0.8094  1.5136
  421MOL0     H56802  -0.232   7.693   5.951 -0.5410  0.3345 -0.7052
  421MOL0     H56803  -0.430   7.597   5.896  0.4864 -2.7307  0.3122
  421MOL0     H56804  -0.451   7.533   6.061  0.3164  0.8820  0.4750
  421MOL0     H56805  -0.428   7.826   5.987  1.6999 -0.9836 -1.3466
  421MOL0     H56806  -0.442   7.739   6.158 -0.9601 -0.2463  0.3835
  421MOL0     H56807  -0.637   7.708   5.934  3.2352 -0.2034  0.6437
  421MOL0     H56808  -0.652   7.677   6.114  0.3688  0.3831  1.5520
  421MOL0     H56809  -0.621   7.948   6.037  2.8234 -1.3884  1.0270
  421MOL0     H56810  -0.680   7.876   6.185 -3.5641 -0.2512 -0.2519
  421MOL0     H56811  -0.860   7.978   6.066  0.8778  0.0837 -3.0545
  421MOL0     H56812  -0.853   7.844   5.951  0.6792  0.5521 -0.1477
  421MOL0     H56813  -0.878   7.808   6.263 -3.4146  2.7928  0.8866
  421MOL0     H56814  -0.884   7.687   6.130 -1.7120  0.5477 -0.2522
  421MOL0     H56815  -1.107   7.766   6.228  1.5778 -2.3104 -1.7806
  421MOL0     H56816  -1.097   7.781   6.059  0.6175 -2.5698  0.1638
  421MOL0     H56817  -0.120   7.271   6.139  1.0231 -1.5199 -0.1673
  421MOL0     H56818   0.107   7.226   6.212 -1.3552  1.4581  1.4723
  421MOL0     H56819   0.525   7.319   6.101 -3.6927  1.4341  0.6926
  421MOL0     H56820   0.752   7.250   6.123 -0.8738  3.2008 -1.5420
  421MOL0     H56821   2.339   7.197   7.122 -2.3137 -1.7406  0.1393
  421MOL0     H56822   2.556   7.183   7.201 -1.1797 -0.5262 -0.7354
  421MOL0     H56823   2.945   6.955   7.255 -0.1730 -0.0439  0.0480
  421MOL0     H56824   3.171   6.867   7.334  3.7711 -3.8637 -1.3622
  421MOL0     H56825   3.483   6.803   7.018 -0.2747 -0.6534  0.7014
  421MOL0     H56826   3.524   6.973   7.065 -0.8477  1.7549  2.8402
  421MOL0     H56827   3.709   6.831   7.107  0.5460 -3.1320 -0.4648
  421MOL0     H56828   3.615   6.716   7.200  1.6102 -0.8917 -2.5266
  421MOL0     H56829   3.596   6.912   7.375 -1.4336  1.5586 -2.2222
  421MOL0     H56830   3.695   7.016   7.266  1.2685 -0.0048  1.3052
  421MOL0     H56831   3.849   6.934   7.428  0.8738 -0.8541 -0.9253
  421MOL0     H56832   3.889   6.824   7.299  1.0461  0.3406 -1.0569
  421MOL0     H56833   3.689   6.614   7.623  2.0136 -0.1309  1.6228
  421MOL0     H56834   3.320   6.965   6.942 -2.1897  0.9423 -1.2685
  421MOL0     H56835   3.108   7.033   6.875 -1.2980 -0.1054  0.0875
  422MOL0     O56836   3.914   9.432  11.263  0.5777 -0.1308  0.1688
  422MOL0     C56837   3.930   9.556  11.264  0.4435  0.6200 -0.6011
  422MOL0     O56838   3.825   9.647  11.260 -0.0520 -0.2075 -0.5129
  422MOL0     C56839   3.701   9.593  11.264 -0.1963 -0.0558 -0.3251
  422MOL0     C56840   3.620   9.577  11.148  0.1066  0.3160 -0.3912
  422MOL0     C56841   3.479   9.552  11.159 -0.1890 -0.2933 -1.2197
  422MOL0     C56842   3.421   9.532  11.287 -0.4200 -1.7767  0.3603
  422MOL0     O56843   3.283   9.522  11.303 -0.1957  0.0079  0.3845
  422MOL0     C56844   3.242   9.387  11.320 -0.2061  0.9155 -0.3980
  422MOL0     C56845   3.164   9.320  11.213  0.7553  0.6191  0.0926
  422MOL0     C56846   3.030   9.378  11.170  0.3353  0.4155 -0.3866
  422MOL0     C56847   2.977   9.302  11.048  0.5718  0.1453 -0.4374
  422MOL0     C56848   2.850   9.366  10.991 -0.7682  0.3488 -0.1931
  422MOL0     C56849   2.753   9.398  11.110  0.1150  0.0408  0.1254
  422MOL0     C56850   2.612   9.424  11.054 -0.0626 -0.5281 -0.0033
  422MOL0     C56851   2.489   9.403  11.150  0.1648  0.0306  1.2627
  422MOL0     N56852   2.358   9.439  11.081 -0.3974 -0.5474  0.5050
  422MOL0     C56853   2.258   9.347  11.049  0.3302 -0.6427 -1.2418
  422MOL0     C56854   2.175   9.429  10.976 -0.1297 -0.5699  0.0407
  422MOL0     C56855   2.066   9.369  10.888 -0.2883  0.6697  0.3886
  422MOL0     C56856   2.021   9.444  10.765  0.7392 -0.3099 -0.0276
  422MOL0     C56857   1.921   9.366  10.677  0.1159 -0.0993  0.4883
  422MOL0     C56858   1.777   9.345  10.732  0.0725 -0.0084 -0.8268
  422MOL0     O56859   1.774   9.256  10.843 -0.8170 -0.1038  0.8565
  422MOL0     C56860   1.677   9.258  10.940  0.0721  0.3005  0.1640
  422MOL0     C56861   1.576   9.355  10.945 -0.3203  0.8021 -0.4474
  422MOL0     C56862   1.467   9.346  11.034 -0.6890 -0.5011 -0.3643
  422MOL0     C56863   1.359   9.451  11.024 -0.0083 -0.0077 -0.7169
  422MOL0     C56864   1.466   9.242  11.127  0.2544 -0.1481 -0.1355
  422MOL0     C56865   1.352   9.228  11.222 -0.4338  0.0684  0.5504
  422MOL0     O56866   1.240   9.170  11.166  0.4311  0.2745  0.1064
  422MOL0     C56867   1.148   9.144  11.258 -0.0092 -0.0951  0.7918
  422MOL0     C56868   1.059   9.241  11.300  0.0655 -0.1709 -0.2930
  422MOL0     C56869   0.964   9.213  11.393 -0.4804 -0.5868  0.5062
  422MOL0     C56870   0.945   9.075  11.433 -0.2967  0.7009 -0.0866
  422MOL0     O56871   0.841   9.050  11.519 -0.2049  0.0142  0.5557
  422MOL0     C56872   0.745   8.942  11.485  0.1138 -0.8519  0.8751
  422MOL0     C56873   0.632   8.972  11.397 -0.0412  0.4150  0.3590
  422MOL0     C56874   0.532   8.848  11.370 -0.4417 -0.3135 -0.4288
  422MOL0     C56875   0.439   8.831  11.490  0.1376  0.6606 -0.6788
  422MOL0     C56876   0.358   8.700  11.460 -0.4534 -0.5340 -0.6718
  422MOL0     C56877   0.258   8.711  11.348  0.3211 -0.3811 -0.4900
  422MOL0     C56878   0.140   8.806  11.378  0.0251 -0.3267 -0.1495
  422MOL0     C56879   0.022   8.774  11.295  0.1904 -0.0236 -0.3826
  422MOL0    Cl56880  -0.127   8.865  11.327 -0.6819  0.3916 -0.4269
  422MOL0     C56881   1.029   8.969  11.388  0.1831 -0.5198 -0.3747
  422MOL0     C56882   1.133   9.012  11.300 -1.1034  0.5273 -0.7028
  422MOL0     O56883   1.362   9.267  11.341  0.0538 -0.6140 -0.2605
  422MOL0     C56884   1.562   9.138  11.118  0.6617 -0.0387  0.5532
  422MOL0     C56885   1.666   9.148  11.026 -0.2266  0.5143 -0.1637
  422MOL0     N56886   2.216   9.562  10.968 -0.7304  1.0467  0.0175
  422MOL0     N56887   2.329   9.563  11.036  0.1457 -0.4055 -0.3941
  422MOL0     C56888   3.495   9.544  11.399  0.3462 -0.4579 -0.6163
  422MOL0     C56889   3.635   9.576  11.389  0.4231 -0.4662  0.3112
  422MOL0     C56890   4.068   9.613  11.264 -0.5211  0.4948  0.1242
  422MOL0     C56891   4.181   9.534  11.272 -0.1261  0.0222  0.3796
  422MOL0     C56892   4.307   9.587  11.299 -0.4273  0.2910 -0.2808
  422MOL0     C56893   4.323   9.723  11.321  0.3399 -0.5996  0.2481
  422MOL0     O56894   4.439   9.793  11.358  0.6039  0.0413 -0.0978
  422MOL0     C56895   4.522   9.841  11.250  0.3505  0.1223  0.2380
  422MOL0     C56896   4.623   9.734  11.195  0.5326 -0.4591  0.0771
  422MOL0     C56897   4.734   9.707  11.289  0.1020  0.2517 -0.5701
  422MOL0     C56898   4.818   9.576  11.252  0.8242  0.1975  0.1937
  422MOL0     C56899   4.940   9.606  11.179  0.2420  0.8691  0.3026
  422MOL0     C56900   5.048   9.640  11.140  0.0212  0.1707  0.1774
  422MOL0     C56901   4.212   9.805  11.293  0.5629 -0.8068  0.5914
  422MOL0     C56902   4.086   9.752  11.272 -0.0452 -0.2322  0.3287
  422MOL0     H56903   3.662   9.592  11.049  1.6016 -1.0561 -0.0023
  422MOL0     H56904   3.415   9.559  11.072 -0.4704  1.8245 -0.8984
  422MOL0     H56905   3.327   9.323  11.345 -1.4721 -0.4833  0.5474
  422MOL0     H56906   3.183   9.390  11.412  2.7451  1.8144  1.6141
  422MOL0     H56907   3.223   9.308  11.121 -0.2975 -1.0242 -0.4096
  422MOL0     H56908   3.146   9.217  11.245 -1.9883  1.1936  0.6098
  422MOL0     H56909   2.962   9.355  11.253 -0.4087  1.9850 -0.5351
  422MOL0     H56910   3.035   9.486  11.154 -3.3211  0.8658  0.4365
  422MOL0     H56911   3.055   9.297  10.972  0.9618 -0.8101  0.0191
  422MOL0     H56912   2.959   9.197  11.070 -1.0185  0.1005 -1.7592
  422MOL0     H56913   2.877   9.458  10.939  0.5711 -0.4463 -0.9810
  422MOL0     H56914   2.815   9.299  10.913 -1.3681 -3.1766  2.8123
  422MOL0     H56915   2.754   9.312  11.178  1.0002 -2.6566 -3.0344
  422MOL0     H56916   2.785   9.481  11.173 -0.3076  0.8444 -0.6892
  422MOL0     H56917   2.614   9.531  11.030 -0.1705 -0.7509 -1.0187
  422MOL0     H56918   2.594   9.361  10.967  1.0174 -0.5538 -0.2128
  422MOL0     H56919   2.492   9.475  11.232 -0.7841  3.1431 -1.2496
  422MOL0     H56920   2.484   9.301  11.189  0.8153  0.2714  1.9960
  422MOL0     H56921   2.263   9.243  11.078  0.4372  0.0297  1.5081
  422MOL0     H56922   2.111   9.281  10.841 -3.7053 -0.5620 -0.8845
  422MOL0     H56923   1.983   9.330  10.948 -0.1433 -3.0266 -1.5297
  422MOL0     H56924   2.119   9.464  10.720  0.3638  0.3046 -0.5801
  422MOL0     H56925   1.977   9.540  10.791  1.0400 -0.0962 -0.2993
  422MOL0     H56926   1.959   9.266  10.653  1.0929  0.5120 -0.6763
  422MOL0     H56927   1.906   9.429  10.588 -3.2968  0.0089  1.0034
  422MOL0     H56928   1.720   9.313  10.645  0.5902 -0.2755 -1.0698
  422MOL0     H56929   1.747   9.440  10.777 -1.6006 -1.4913  1.3655
  422MOL0     H56930   1.572   9.441  10.878 -0.6620 -0.5571 -2.2476
  422MOL0     H56931   1.373   9.531  11.098  0.9259 -1.3929  0.6490
  422MOL0     H56932   1.362   9.497  10.925  0.2378 -1.9718 -1.6695
  422MOL0     H56933   1.264   9.398  11.036 -0.1775  0.2478 -0.9181
  422MOL0     H56934   1.066   9.342  11.259 -0.5662  0.0122  0.0380
  422MOL0     H56935   0.905   9.291  11.440  0.7279  1.4225 -1.1313
  422MOL0     H56936   0.797   8.864  11.428 -1.6822 -0.9791 -0.6947
  422MOL0     H56937   0.708   8.894  11.576  0.5309 -4.1309 -0.5514
  422MOL0     H56938   0.563   9.047  11.434 -0.5618 -0.6656  1.6886
  422MOL0     H56939   0.668   9.013  11.303  1.5914  0.4506  0.9552
  422MOL0     H56940   0.587   8.755  11.353 -0.0990  0.2238 -2.5971
  422MOL0     H56941   0.477   8.875  11.279 -2.2169  0.6533  0.8683
  422MOL0     H56942   0.493   8.821  11.585  1.2701 -0.5747 -1.4077
  422MOL0     H56943   0.373   8.918  11.485  1.0075  1.4003  0.1807
  422MOL0     H56944   0.305   8.684  11.554  2.0221  0.5000  0.9987
  422MOL0     H56945   0.428   8.617  11.449  0.6270  0.1996  0.4248
  422MOL0     H56946   0.310   8.761  11.266  0.9703  0.5273  0.4493
  422MOL0     H56947   0.226   8.615  11.307 -0.0081 -0.2067 -0.6410
  422MOL0     H56948   0.161   8.913  11.369 -2.2192  0.3156  1.2547
  422MOL0     H56949   0.116   8.790  11.484 -0.6292 -2.0188 -0.5140
  422MOL0     H56950   0.006   8.666  11.299  4.6106 -0.8403 -0.3462
  422MOL0     H56951   0.049   8.793  11.191 -0.3449  2.4214 -0.1357
  422MOL0     H56952   1.022   8.868  11.427 -1.3730 -0.0665  0.6309
  422MOL0     H56953   1.198   8.942  11.249  1.2550  2.7485 -0.9456
  422MOL0     H56954   1.558   9.044  11.172  2.9722 -1.7412 -1.9382
  422MOL0     H56955   1.745   9.074  11.025  0.3746  1.1189  0.6871
  422MOL0     H56956   3.444   9.542  11.494 -1.6289  3.2625 -1.4375
  422MOL0     H56957   3.691   9.601  11.479 -1.6268  1.4668  1.1469
  422MOL0     H56958   4.170   9.427  11.257  2.8152 -0.1248 -1.7050
  422MOL0     H56959   4.393   9.522  11.314  0.2423  1.3318  0.5448
  422MOL0     H56960   4.459   9.871  11.165  0.3606  1.0887  0.5549
  422MOL0     H56961   4.583   9.930  11.268 -1.8067  1.2868  2.3514
  422MOL0     H56962   4.672   9.778  11.107  0.6653 -0.5362  0.1118
  422MOL0     H56963   4.578   9.639  11.164 -1.3702  1.3831 -3.4826
  422MOL0     H56964   4.687   9.694  11.387 -1.5414  0.5190 -1.2856
  422MOL0     H56965   4.808   9.788  11.291 -0.7283  1.0261 -0.6193
  422MOL0     H56966   4.752   9.507  11.200 -1.4381  1.9075  0.6205
  422MOL0     H56967   4.849   9.529  11.346  0.4007  0.5525  0.5169
  422MOL0     H56968   5.144   9.679  11.112  0.2465  1.6844  2.7177
  422MOL0     H56969   4.214   9.914  11.293 -1.7020 -0.7273  0.1470
  422MOL0     H56970   3.993   9.807  11.259 -1.1758 -0.0781  6.3123
  423MOL0     O56971   1.045  10.308   4.611  0.6486  0.0613  0.1214
  423MOL0     C56972   1.007  10.287   4.500 -0.1212 -0.1531  0.9354
  423MOL0     O56973   1.072  10.204   4.408 -0.5369  0.1727 -0.3699
  423MOL0     C56974   1.144  10.099   4.464 -0.0866 -0.0611 -0.6410
  423MOL0     C56975   1.085   9.979   4.474  0.3639  0.0610 -0.9858
  423MOL0     C56976   1.152   9.864   4.521 -0.2638  0.4221  0.1482
  423MOL0     C56977   1.281   9.881   4.565 -0.7406 -0.3913 -0.3600
  423MOL0     O56978   1.364   9.791   4.619  0.2430 -0.7067  0.0700
  423MOL0     C56979   1.330   9.656   4.621  0.2692 -0.6546  0.6875
  423MOL0     C56980   1.466   9.593   4.651  0.2260  0.0677  0.4211
  423MOL0     C56981   1.505   9.613   4.803  0.7628  0.5481 -0.0676
  423MOL0     C56982   1.622   9.519   4.838 -0.0578 -0.4394  0.8336
  423MOL0     C56983   1.675   9.538   4.987 -0.7170 -0.7214  0.1105
  423MOL0     C56984   1.557   9.526   5.085  0.1517 -0.2924  0.1228
  423MOL0     C56985   1.605   9.531   5.232 -0.7715  0.6042  0.0995
  423MOL0     C56986   1.508   9.498   5.346  0.5836 -0.8491  0.5505
  423MOL0     N56987   1.385   9.576   5.338 -0.2109 -0.0555  0.0610
  423MOL0     C56988   1.379   9.714   5.330 -0.0372  0.1288 -0.0578
  423MOL0     C56989   1.245   9.745   5.320  0.2855  0.2861  0.2459
  423MOL0     C56990   1.193   9.881   5.287  0.4087  0.1640 -0.4253
  423MOL0     C56991   1.244   9.988   5.371  0.0779  0.1023 -0.0267
  423MOL0     C56992   1.171  10.007   5.510  0.4054 -0.2633 -0.1696
  423MOL0     C56993   1.025  10.058   5.495 -0.0761 -0.4600  0.5839
  423MOL0     O56994   1.016  10.182   5.431 -0.2447 -0.2208  1.0313
  423MOL0     C56995   0.891  10.215   5.385  0.8563  0.0212  0.0710
  423MOL0     C56996   0.822  10.123   5.307  0.0243  0.0230  0.0345
  423MOL0     C56997   0.683  10.148   5.272 -1.0833 -0.3443  0.5661
  423MOL0     C56998   0.616  10.050   5.185  0.8902 -0.0578  0.5793
  423MOL0     C56999   0.617  10.272   5.307 -0.0782 -0.7013  0.4648
  423MOL0     C57000   0.478  10.305   5.276  0.6161  0.8622  0.2337
  423MOL0     O57001   0.390  10.198   5.260  0.0697  0.1516  0.2114
  423MOL0     C57002   0.261  10.228   5.243  0.5494 -0.0822  0.1848
  423MOL0     C57003   0.205  10.200   5.120 -0.4141 -0.2584 -0.0939
  423MOL0     C57004   0.066  10.210   5.090  1.5143  0.3816 -0.0005
  423MOL0     C57005  -0.023  10.270   5.177  0.5207 -0.2394  1.0958
  423MOL0     O57006  -0.154  10.305   5.153 -0.7407  0.0323 -0.1794
  423MOL0     C57007  -0.195  10.308   5.021  0.2487 -0.9691 -0.3841
  423MOL0     C57008  -0.330  10.383   5.014 -0.3707 -1.0894 -0.3122
  423MOL0     C57009  -0.393  10.384   4.876  0.4625 -0.0534  0.6846
  423MOL0     C57010  -0.534  10.459   4.888 -0.1348  0.0162 -0.5826
  423MOL0     C57011  -0.610  10.449   4.761  1.5678 -0.1517  0.3852
  423MOL0     C57012  -0.737  10.547   4.771 -0.2207 -0.3023  0.1691
  423MOL0     C57013  -0.788  10.557   4.624 -0.1392 -0.5712  0.7052
  423MOL0     C57014  -0.892  10.673   4.626  0.8667 -0.7552 -0.7030
  423MOL0    Cl57015  -0.999  10.685   4.480  0.8143  0.2009  0.3142
  423MOL0     C57016   0.034  10.323   5.297  0.2662  0.7203 -0.2654
  423MOL0     C57017   0.170  10.293   5.331  0.8600  0.3310  0.3309
  423MOL0     O57018   0.450  10.421   5.258  0.1187 -0.7396  0.1208
  423MOL0     C57019   0.699  10.370   5.371  0.5698  0.7601 -0.5338
  423MOL0     C57020   0.833  10.339   5.410  0.3395  0.8890  0.4403
  423MOL0     N57021   1.171   9.625   5.313  0.0469 -0.1304 -0.7958
  423MOL0     N57022   1.256   9.523   5.320 -0.4616 -0.1354  0.6622
  423MOL0     C57023   1.348  10.003   4.559  0.5232 -0.5856 -0.0714
  423MOL0     C57024   1.277  10.117   4.508 -0.1894 -0.5771 -0.4854
  423MOL0     C57025   0.894  10.364   4.450  0.2891  0.0493 -0.2961
  423MOL0     C57026   0.828  10.329   4.327 -0.2941  0.3208  0.0508
  423MOL0     C57027   0.718  10.409   4.282 -0.2626  0.1084  0.4050
  423MOL0     C57028   0.663  10.511   4.354  0.2680  0.3066 -0.5514
  423MOL0     O57029   0.553  10.572   4.303  0.2273 -0.4205 -0.3171
  423MOL0     C57030   0.513  10.700   4.346  0.3022  0.6019 -0.2835
  423MOL0     C57031   0.396  10.749   4.256  0.0912  0.3194 -0.0987
  423MOL0     C57032   0.262  10.680   4.288 -0.9916 -0.5635  0.1314
  423MOL0     C57033   0.165  10.706   4.172 -0.8935 -0.2170 -1.1073
  423MOL0     C57034   0.195  10.629   4.048  0.0220  1.7083 -0.6677
  423MOL0     C57035   0.219  10.585   3.933  0.1648  0.0833  0.2528
  423MOL0     C57036   0.713  10.538   4.480  0.1846 -0.1279 -0.0340
  423MOL0     C57037   0.827  10.466   4.525  0.4694 -0.1861  0.4010
  423MOL0     H57038   0.989   9.971   4.422  2.0924 -0.2817 -4.4018
  423MOL0     H57039   1.096   9.771   4.531  2.5974 -1.3401  1.1086
  423MOL0     H57040   1.249   9.641   4.693 -1.2836 -1.8447 -1.1890
  423MOL0     H57041   1.309   9.610   4.524 -0.4727  0.5544  0.2491
  423MOL0     H57042   1.468   9.486   4.628  2.5661 -0.0158  0.7840
  423MOL0     H57043   1.541   9.642   4.589 -1.7674 -2.2584 -4.3501
  423MOL0     H57044   1.552   9.708   4.830  1.3122  0.9669 -2.3005
  423MOL0     H57045   1.418   9.594   4.867  1.0833  1.6626  0.7225
  423MOL0     H57046   1.583   9.422   4.807 -0.8443  0.8551 -2.7368
  423MOL0     H57047   1.706   9.546   4.774 -2.0818 -1.0299 -2.2770
  423MOL0     H57048   1.736   9.451   5.012 -1.2619 -0.5117  2.3829
  423MOL0     H57049   1.730   9.631   5.002 -2.4522  0.5180 -0.8212
  423MOL0     H57050   1.478   9.602   5.078  0.3730  0.1675  1.9390
  423MOL0     H57051   1.508   9.431   5.066 -0.9180  0.1968  0.3562
  423MOL0     H57052   1.698   9.474   5.241 -0.8632 -0.0983 -2.5043
  423MOL0     H57053   1.645   9.632   5.247  2.2337 -0.1725 -1.7030
  423MOL0     H57054   1.556   9.522   5.441 -0.4328  1.2816  0.6000
  423MOL0     H57055   1.489   9.392   5.328  0.2094 -0.6646 -0.1875
  423MOL0     H57056   1.454   9.792   5.334 -0.0115  0.2084 -1.4324
  423MOL0     H57057   1.219   9.906   5.184 -0.0287  1.2096 -0.2897
  423MOL0     H57058   1.084   9.874   5.299  0.3113  2.7484  0.9310
  423MOL0     H57059   1.232  10.084   5.319 -0.4065  1.2085  2.0112
  423MOL0     H57060   1.350   9.984   5.397 -0.3473 -1.1470  1.6170
  423MOL0     H57061   1.227  10.067   5.582 -0.7506  0.4946  0.1260
  423MOL0     H57062   1.157   9.908   5.553 -0.4727 -0.6877 -1.3729
  423MOL0     H57063   0.987  10.068   5.597  0.1047  0.5244  0.5674
  423MOL0     H57064   0.959   9.981   5.454 -2.3913  2.0069 -0.6641
  423MOL0     H57065   0.873  10.030   5.285  1.3630  1.0372 -1.3072
  423MOL0     H57066   0.684   9.976   5.141 -0.3992 -1.5871  1.0562
  423MOL0     H57067   0.540   9.995   5.241  0.4331  1.2740  1.3202
  423MOL0     H57068   0.572  10.106   5.103  4.2083  2.8686  0.5949
  423MOL0     H57069   0.272  10.155   5.047 -0.0553  1.4974 -0.8821
  423MOL0     H57070   0.018  10.176   4.998 -0.0752  2.7573 -0.1243
  423MOL0     H57071  -0.115  10.358   4.966  0.6074 -1.6243 -0.4724
  423MOL0     H57072  -0.212  10.208   4.980  1.1445 -1.2435 -0.1186
  423MOL0     H57073  -0.402  10.323   5.071 -1.1814 -1.3679 -1.5860
  423MOL0     H57074  -0.322  10.483   5.055 -1.8087 -0.1775 -2.1012
  423MOL0     H57075  -0.409  10.282   4.840  0.7793  1.0154 -2.8474
  423MOL0     H57076  -0.333  10.445   4.809  0.3085  0.3647  0.9205
  423MOL0     H57077  -0.600  10.438   4.972 -0.3205  0.6309 -0.5706
  423MOL0     H57078  -0.502  10.562   4.906 -2.0448  0.0530  3.6596
  423MOL0     H57079  -0.648  10.347   4.749  0.7711  0.1987 -0.2117
  423MOL0     H57080  -0.542  10.476   4.680  2.2305  3.6597  1.9649
  423MOL0     H57081  -0.818  10.518   4.839 -0.9792  3.9890  1.3656
  423MOL0     H57082  -0.700  10.644   4.804  4.8183 -1.8071 -0.1259
  423MOL0     H57083  -0.829  10.461   4.590  0.0335 -1.3881  2.6979
  423MOL0     H57084  -0.704  10.584   4.559 -0.5231 -0.7652  0.1185
  423MOL0     H57085  -0.830  10.763   4.639 -1.1419  0.6300 -0.3177
  423MOL0     H57086  -0.957  10.659   4.713 -0.2917 -1.4555 -1.6500
  423MOL0     H57087  -0.026  10.376   5.370 -1.0315 -2.5764  1.2739
  423MOL0     H57088   0.204  10.329   5.427 -0.4452 -1.2481  1.4218
  423MOL0     H57089   0.659  10.466   5.402 -3.0509 -1.0119  0.8259
  423MOL0     H57090   0.887  10.415   5.466 -2.0583  2.5476  0.6781
  423MOL0     H57091   1.450  10.009   4.596  1.0734  1.2119 -1.6989
  423MOL0     H57092   1.317  10.217   4.506  1.3154 -1.1162  0.9537
  423MOL0     H57093   0.856  10.240   4.271  0.3238  1.7108 -1.9796
  423MOL0     H57094   0.688  10.388   4.180 -0.6125 -3.3934  1.1120
  423MOL0     H57095   0.481  10.700   4.451  3.3652 -0.7440  0.7759
  423MOL0     H57096   0.597  10.769   4.335  1.0098 -0.6174 -3.3635
  423MOL0     H57097   0.421  10.733   4.151  0.0312  0.4429 -0.1320
  423MOL0     H57098   0.378  10.855   4.273  2.5964  0.3631  3.2308
  423MOL0     H57099   0.231  10.731   4.380  0.0437  0.5152 -0.0911
  423MOL0     H57100   0.270  10.576   4.320 -3.5917  0.3825  4.8017
  423MOL0     H57101   0.163  10.813   4.148 -1.0101 -0.3743 -1.8147
  423MOL0     H57102   0.067  10.677   4.210  0.8499 -3.0470  1.6819
  423MOL0     H57103   0.234  10.546   3.835  0.7403  0.2499  0.2646
  423MOL0     H57104   0.664  10.614   4.541  2.1776  0.4871  0.9147
  423MOL0     H57105   0.857  10.495   4.625  0.2047 -1.3163  0.8190
  424MOL0     O57106   9.839  10.892   7.179  0.6735  0.2604 -0.0101
  424MOL0     C57107   9.889  10.997   7.157 -0.1079 -0.6959 -0.6343
  424MOL0     O57108   9.830  11.098   7.080  0.4911  0.0443  0.0479
  424MOL0     C57109   9.695  11.090   7.067 -0.6095  0.0306  0.9286
  424MOL0     C57110   9.613  11.101   7.180 -1.2394 -0.7474 -0.4511
  424MOL0     C57111   9.475  11.114   7.172 -0.7620 -0.1167  0.7660
  424MOL0     C57112   9.415  11.090   7.051  0.1555 -0.1110 -0.0661
  424MOL0     O57113   9.275  11.095   7.062 -0.0431  0.3757  0.2557
  424MOL0     C57114   9.196  11.132   6.948  0.4747  0.2609  0.6153
  424MOL0     C57115   9.152  11.265   6.999  0.5763 -0.0376 -0.2641
  424MOL0     C57116   9.047  11.326   6.906 -0.1897  0.4233  0.1383
  424MOL0     C57117   8.904  11.306   6.958 -0.2320  0.1338 -0.0900
  424MOL0     C57118   8.806  11.378   6.870 -0.1788 -0.0135  0.5790
  424MOL0     C57119   8.668  11.328   6.895 -0.4808 -0.4524 -0.0861
  424MOL0     C57120   8.552  11.428   6.855  0.2165 -0.6917  0.0567
  424MOL0     C57121   8.561  11.464   6.703 -1.0703 -0.1191 -0.5105
  424MOL0     N57122   8.423  11.504   6.664  0.1679  0.3270 -0.0220
  424MOL0     C57123   8.372  11.632   6.670 -0.1780  0.8772 -0.1691
  424MOL0     C57124   8.253  11.630   6.599 -0.5808 -0.2556 -0.2365
  424MOL0     C57125   8.154  11.736   6.602 -1.0088  0.7156  0.0106
  424MOL0     C57126   8.031  11.698   6.529 -0.4086  0.4212  0.3630
  424MOL0     C57127   7.941  11.816   6.524 -0.1562  0.3366 -0.1220
  424MOL0     C57128   7.797  11.776   6.470  0.1173 -0.2141 -0.0737
  424MOL0     O57129   7.736  11.903   6.441  0.0244  0.4666  0.1388
  424MOL0     C57130   7.604  11.899   6.407 -1.2182 -0.7457 -0.3133
  424MOL0     C57131   7.525  11.797   6.397  0.6212  1.8163 -0.4625
  424MOL0     C57132   7.390  11.807   6.350  1.0258  0.0047 -0.0119
  424MOL0     C57133   7.317  11.670   6.350 -0.1920 -0.0816  0.7741
  424MOL0     C57134   7.331  11.932   6.315  0.6983 -0.5777  0.0254
  424MOL0     C57135   7.186  11.953   6.260 -1.2460 -0.3132 -0.3151
  424MOL0     O57136   7.169  12.076   6.201  0.6983 -0.2661 -0.3219
  424MOL0     C57137   7.047  12.105   6.140  0.4024  0.2155  0.1057
  424MOL0     C57138   7.034  12.136   6.006  0.8505  0.7644  0.0538
  424MOL0     C57139   6.915  12.191   5.952  0.4103 -0.6071 -0.4556
  424MOL0     C57140   6.802  12.220   6.040 -0.2317 -0.2193  0.6156
  424MOL0     O57141   6.697  12.294   5.983  0.8614 -0.2678 -0.7490
  424MOL0     C57142   6.566  12.276   6.038 -0.0773  0.2904  0.2989
  424MOL0     C57143   6.479  12.299   5.915 -0.5198  0.1674 -0.5221
  424MOL0     C57144   6.336  12.235   5.939 -0.2871 -0.1957  1.7647
  424MOL0     C57145   6.266  12.302   6.056  0.3021  0.2823 -0.1756
  424MOL0     C57146   6.111  12.266   6.053  0.5549  0.1145  0.6247
  424MOL0     C57147   6.078  12.115   6.084 -0.5336  0.2653  0.5008
  424MOL0     C57148   5.928  12.108   6.123 -0.9633  0.0033 -0.0327
  424MOL0     C57149   5.881  11.974   6.093 -0.2383  0.0898 -0.0688
  424MOL0    Cl57150   5.714  11.962   6.135  0.1956  0.0817 -0.2839
  424MOL0     C57151   6.825  12.186   6.177  0.1841 -1.2354  0.1765
  424MOL0     C57152   6.942  12.130   6.222  1.5920 -0.0026  0.5751
  424MOL0     O57153   7.121  11.853   6.247  0.3170 -0.6526 -0.2460
  424MOL0     C57154   7.425  12.040   6.322 -0.0004  0.1000  0.2743
  424MOL0     C57155   7.556  12.027   6.372  0.3038  0.3538  0.1000
  424MOL0     N57156   8.241  11.502   6.539 -0.1092  0.0159 -0.3708
  424MOL0     N57157   8.348  11.431   6.577  0.3356  0.0556 -0.1245
  424MOL0     C57158   9.492  11.092   6.934 -0.3560  0.1015 -0.1968
  424MOL0     C57159   9.631  11.094   6.943  0.5707  0.0173  0.9765
  424MOL0     C57160  10.026  11.021   7.207  0.9192 -0.4894 -0.3211
  424MOL0     C57161  10.109  11.111   7.142 -0.4198  0.2276  0.6442
  424MOL0     C57162  10.243  11.125   7.173 -0.1137  0.3794 -0.0628
  424MOL0     C57163  10.302  11.054   7.275 -0.0212 -0.1893  0.4455
  424MOL0     O57164  10.435  11.075   7.303 -0.2665 -0.6362  0.1614
  424MOL0     C57165  10.494  11.017   7.414  0.0556  0.1392  0.0004
  424MOL0     C57166  10.473  11.110   7.532 -0.0760  0.0013 -0.4200
  424MOL0     C57167  10.548  11.240   7.496 -0.1128  0.2597  0.7179
  424MOL0     C57168  10.698  11.226   7.458 -0.1219  0.4495  0.1456
  424MOL0     C57169  10.798  11.323   7.518  1.2395  0.6581  0.3110
  424MOL0     C57170  10.869  11.403   7.564 -0.5944  0.2719  0.2290
  424MOL0     C57171  10.212  10.974   7.357 -0.0764  0.9862 -0.5317
  424MOL0     C57172  10.080  10.952   7.312  0.6988 -1.2285  0.0539
  424MOL0     H57173   9.651  11.129   7.277  3.1381  0.9007 -2.4015
  424MOL0     H57174   9.407  11.146   7.251 -2.5845 -3.5998  0.7999
  424MOL0     H57175   9.258  11.142   6.858  0.2004 -0.4674  0.3398
  424MOL0     H57176   9.108  11.072   6.926  3.1306 -3.4165 -1.2023
  424MOL0     H57177   9.117  11.254   7.102  0.8889 -1.7810 -0.3183
  424MOL0     H57178   9.244  11.324   6.995 -0.2072  1.1571 -1.3663
  424MOL0     H57179   9.072  11.432   6.898  1.0226  0.1638  0.2772
  424MOL0     H57180   9.056  11.287   6.804 -0.1105 -2.1122  1.0570
  424MOL0     H57181   8.886  11.198   6.955 -0.6230  0.2164 -2.5828
  424MOL0     H57182   8.902  11.353   7.057  0.5692 -0.0271  0.0102
  424MOL0     H57183   8.809  11.487   6.887 -2.1426  0.0292  0.8370
  424MOL0     H57184   8.824  11.368   6.763 -3.6390 -0.9589 -0.0330
  424MOL0     H57185   8.658  11.239   6.831  3.1516  0.8241 -2.7320
  424MOL0     H57186   8.654  11.298   7.000  1.3243 -1.7442 -0.1577
  424MOL0     H57187   8.455  11.377   6.862 -3.1557  4.8780 -0.0678
  424MOL0     H57188   8.549  11.524   6.906  0.7275  0.5072 -2.0536
  424MOL0     H57189   8.593  11.379   6.642  0.2004 -0.7063  0.9026
  424MOL0     H57190   8.628  11.549   6.686 -0.3753 -0.6923 -0.7160
  424MOL0     H57191   8.418  11.716   6.722 -0.4876  2.4081 -2.2360
  424MOL0     H57192   8.130  11.753   6.707  0.4358  2.1647  0.1576
  424MOL0     H57193   8.200  11.826   6.559  4.5622 -1.9598 -0.5452
  424MOL0     H57194   7.980  11.612   6.575  0.6534 -0.5869 -0.3039
  424MOL0     H57195   8.044  11.660   6.427 -3.3585  0.0280  0.0332
  424MOL0     H57196   7.984  11.891   6.457 -0.0806  0.3809 -0.0226
  424MOL0     H57197   7.940  11.860   6.624 -1.1436 -1.2382  0.6027
  424MOL0     H57198   7.738  11.721   6.544  3.4936  0.9912  3.9131
  424MOL0     H57199   7.806  11.717   6.378  2.5956  1.7488 -1.2057
  424MOL0     H57200   7.567  11.698   6.415 -1.1137  1.0310 -0.4627
  424MOL0     H57201   7.256  11.659   6.440 -0.9999  0.3700  0.2946
  424MOL0     H57202   7.257  11.652   6.260 -2.4980  1.1068  1.9976
  424MOL0     H57203   7.392  11.590   6.347 -1.3240 -1.1335 -0.3313
  424MOL0     H57204   7.111  12.109   5.935 -0.7209  0.6527 -1.7072
  424MOL0     H57205   6.884  12.202   5.849 -2.7479 -1.1986  0.3263
  424MOL0     H57206   6.552  12.172   6.072  1.7560  0.0682  0.4289
  424MOL0     H57207   6.544  12.344   6.121 -0.9176 -2.2089  2.2865
  424MOL0     H57208   6.484  12.408   5.906 -0.0734  0.2448  0.4934
  424MOL0     H57209   6.529  12.253   5.829 -1.1123 -0.0470 -0.7515
  424MOL0     H57210   6.345  12.127   5.953  1.0383  0.0990  3.3454
  424MOL0     H57211   6.282  12.253   5.845  3.2102  0.5322 -0.2968
  424MOL0     H57212   6.311  12.266   6.149  0.8638  0.8025 -0.2373
  424MOL0     H57213   6.277  12.411   6.056  2.4271  0.0989 -0.3804
  424MOL0     H57214   6.069  12.306   5.961 -0.4380  0.4001  1.1891
  424MOL0     H57215   6.063  12.309   6.142 -3.5397 -2.9196  0.1805
  424MOL0     H57216   6.091  12.058   5.991 -0.4693 -0.0297  0.6907
  424MOL0     H57217   6.136  12.065   6.162 -0.8528 -2.4296 -0.8805
  424MOL0     H57218   5.875  12.189   6.072  2.6842  2.6008 -0.1038
  424MOL0     H57219   5.911  12.126   6.229 -2.0331 -0.4942 -0.1079
  424MOL0     H57220   5.939  11.898   6.146  0.7202  1.8288  1.5238
  424MOL0     H57221   5.891  11.956   5.986  0.6780  0.7979 -0.1091
  424MOL0     H57222   6.751  12.219   6.250 -1.7885  0.9039 -2.6057
  424MOL0     H57223   6.938  12.113   6.329 -1.8262 -0.3274  0.5188
  424MOL0     H57224   7.396  12.137   6.283  1.5227  0.1980 -0.7240
  424MOL0     H57225   7.635  12.101   6.365  0.8120 -0.1885 -0.0237
  424MOL0     H57226   9.456  11.085   6.831  0.0874  1.5019 -0.4673
  424MOL0     H57227   9.686  11.087   6.850  0.3816  2.0142  0.6747
  424MOL0     H57228  10.080  11.173   7.057  1.5683  0.3980  0.0359
  424MOL0     H57229  10.301  11.194   7.113  0.7712 -2.2495 -2.5192
  424MOL0     H57230  10.453  10.917   7.432  0.6608 -0.3526 -1.2658
  424MOL0     H57231  10.600  11.000   7.396  0.8241  1.6020  2.6299
  424MOL0     H57232  10.497  11.073   7.632 -1.2992 -0.0529 -0.1240
  424MOL0     H57233  10.367  11.137   7.531 -0.4269 -0.7695  2.9787
  424MOL0     H57234  10.548  11.305   7.585 -0.7198  0.4567  0.5760
  424MOL0     H57235  10.502  11.294   7.413  0.9868 -1.5836 -1.1887
  424MOL0     H57236  10.692  11.247   7.351 -0.9710  1.8177  0.4457
  424MOL0     H57237  10.738  11.126   7.479  2.7980  1.7465  1.4530
  424MOL0     H57238  10.940  11.460   7.621 -3.5736  2.6711  1.8247
  424MOL0     H57239  10.248  10.929   7.448  1.6017  2.1265 -0.5738
  424MOL0     H57240  10.022  10.888   7.378 -0.9356  2.5093  2.6158
  425MOL0     O57241  10.673   9.880   6.692 -1.0192  0.1792  0.1648
  425MOL0     C57242  10.679   9.997   6.708  0.6158 -0.6788 -0.1290
  425MOL0     O57243  10.575  10.086   6.694  0.1514  0.3222  0.4008
  425MOL0     C57244  10.447  10.050   6.663  0.4417 -0.3295 -0.1449
  425MOL0     C57245  10.389   9.932   6.719 -0.0554  0.6123  1.0919
  425MOL0     C57246  10.257   9.906   6.679 -0.2503  0.9031  0.2047
  425MOL0     C57247  10.174   9.993   6.607  0.2602 -0.3123  0.5550
  425MOL0     O57248  10.041   9.956   6.584  0.8889 -0.4287  0.2014
  425MOL0     C57249   9.959   9.903   6.692  0.1169  0.8425 -0.2367
  425MOL0     C57250   9.817   9.904   6.656  0.5560  0.4946  0.1467
  425MOL0     C57251   9.774   9.831   6.530 -1.0604  0.2580 -0.5132
  425MOL0     C57252   9.624   9.806   6.517 -0.7921 -0.1769  0.2221
  425MOL0     C57253   9.598   9.708   6.392 -0.2771 -0.0868  0.2148
  425MOL0     C57254   9.454   9.694   6.362  1.3823  0.0662 -0.2378
  425MOL0     C57255   9.422   9.575   6.274 -0.6194 -0.3849  0.3509
  425MOL0     C57256   9.387   9.447   6.347 -0.2710 -0.7678  0.9238
  425MOL0     N57257   9.283   9.461   6.445 -0.0764 -0.3726 -0.5586
  425MOL0     C57258   9.147   9.470   6.420  0.4150  0.0006  0.4795
  425MOL0     C57259   9.084   9.454   6.540 -0.5413 -0.0412 -0.7703
  425MOL0     C57260   8.942   9.467   6.583 -1.2870  0.6631  0.6085
  425MOL0     C57261   8.930   9.415   6.731  0.2144  0.1258 -0.2200
  425MOL0     C57262   8.786   9.456   6.787 -0.4179  0.4465 -0.4912
  425MOL0     C57263   8.789   9.436   6.943 -0.2793 -0.8381 -0.8009
  425MOL0     O57264   8.675   9.500   7.010 -0.5131  0.1359 -0.3994
  425MOL0     C57265   8.557   9.432   7.003 -0.2236  0.0794  0.1641
  425MOL0     C57266   8.456   9.494   7.072  0.5541 -0.3477 -1.1999
  425MOL0     C57267   8.321   9.446   7.076 -0.8631  0.8775  0.3775
  425MOL0     C57268   8.219   9.533   7.153 -0.3816 -0.9034  0.7545
  425MOL0     C57269   8.297   9.324   7.001 -0.4129 -0.1902 -0.2322
  425MOL0     C57270   8.164   9.259   6.998  0.2435  0.5159 -0.0351
  425MOL0     O57271   8.150   9.134   6.939 -0.0231  0.8815 -0.7071
  425MOL0     C57272   8.016   9.082   6.931  0.2777 -0.0923  0.2254
  425MOL0     C57273   7.911   9.157   6.870 -0.0708 -0.1191  0.1862
  425MOL0     C57274   7.789   9.099   6.846 -0.0043  0.2653 -0.4396
  425MOL0     C57275   7.760   8.966   6.898 -0.2587  0.3298  0.6318
  425MOL0     O57276   7.642   8.895   6.886  0.7182 -0.5728  0.2453
  425MOL0     C57277   7.539   8.962   6.818  0.7182 -0.0657  0.2108
  425MOL0     C57278   7.414   8.866   6.826  0.5170 -0.6482  0.6480
  425MOL0     C57279   7.293   8.936   6.754  0.0091 -0.2737  1.0621
  425MOL0     C57280   7.171   8.843   6.774 -0.4517 -0.6016  0.2848
  425MOL0     C57281   7.048   8.909   6.701 -0.0006 -0.0579 -0.7213
  425MOL0     C57282   6.931   8.806   6.695 -0.6767  0.3741  0.8067
  425MOL0     C57283   6.809   8.864   6.644  0.7284 -0.8046  0.4481
  425MOL0     C57284   6.721   8.750   6.602 -0.2013  0.5405  0.3336
  425MOL0    Cl57285   6.665   8.681   6.759 -0.0014  0.5459  0.1327
  425MOL0     C57286   7.869   8.900   6.956 -0.4591  0.5627  0.2574
  425MOL0     C57287   7.994   8.956   6.976  0.1509 -0.0736 -0.5607
  425MOL0     O57288   8.066   9.317   7.044  0.5303  1.2079 -0.0467
  425MOL0     C57289   8.395   9.258   6.929 -0.7443 -0.2539  0.3909
  425MOL0     C57290   8.528   9.319   6.932 -0.4262  0.0675  0.5550
  425MOL0     N57291   9.187   9.436   6.636  0.2139  0.5486  0.1760
  425MOL0     N57292   9.297   9.445   6.578 -0.2548  0.1436 -0.0369
  425MOL0     C57293  10.237  10.106   6.542  0.4388  0.4723 -0.5477
  425MOL0     C57294  10.372  10.135   6.569 -0.5314  0.0015 -0.5934
  425MOL0     C57295  10.813  10.059   6.740  1.5172 -0.2194  0.0047
  425MOL0     C57296  10.846  10.193   6.726 -1.2286 -0.6294 -1.3167
  425MOL0     C57297  10.986  10.240   6.748 -0.0252  0.8145  0.8287
  425MOL0     C57298  11.078  10.151   6.808 -0.2846 -0.4036  0.5454
  425MOL0     O57299  11.210  10.175   6.831 -0.2781 -0.0178  0.2923
  425MOL0     C57300  11.286  10.266   6.748 -0.4677  0.7920 -0.6423
  425MOL0     C57301  11.400  10.311   6.837 -0.6371 -0.7035 -0.6169
  425MOL0     C57302  11.500  10.204   6.860 -0.1697  0.7314 -0.3875
  425MOL0     C57303  11.596  10.161   6.752 -0.1744 -0.5043 -0.1409
  425MOL0     C57304  11.692  10.265   6.716  0.4196 -0.6445 -0.5463
  425MOL0     C57305  11.775  10.351   6.722 -0.1495 -0.4470  0.2323
  425MOL0     C57306  11.036  10.019   6.832  0.3439  0.3107  0.3721
  425MOL0     C57307  10.911   9.973   6.783 -0.4093 -0.5208  0.8893
  425MOL0     H57308  10.445   9.866   6.785  2.7339  1.1942 -0.5379
  425MOL0     H57309  10.210   9.823   6.731  0.6681 -0.0608 -0.4572
  425MOL0     H57310   9.987   9.798   6.703 -0.0606  0.8921  0.7575
  425MOL0     H57311   9.978   9.954   6.787  2.4440  1.2508 -0.8546
  425MOL0     H57312   9.757   9.871   6.742 -0.9581  3.5055  0.4100
  425MOL0     H57313   9.792  10.008   6.631 -0.3107  0.4890  0.9149
  425MOL0     H57314   9.811   9.877   6.438 -1.0070 -0.3454 -0.8019
  425MOL0     H57315   9.823   9.733   6.534  3.3984  2.2423 -0.5140
  425MOL0     H57316   9.573   9.771   6.607 -0.2692 -2.0602 -0.1777
  425MOL0     H57317   9.579   9.903   6.493  2.5477  1.0551 -1.7987
  425MOL0     H57318   9.649   9.747   6.304 -0.8809 -0.7471 -0.4396
  425MOL0     H57319   9.638   9.611   6.423  0.1933  0.2331  0.6312
  425MOL0     H57320   9.391   9.695   6.452  1.2019 -0.8198 -0.3495
  425MOL0     H57321   9.422   9.778   6.299 -1.6868 -0.8005  0.0168
  425MOL0     H57322   9.335   9.603   6.214 -0.1679 -0.0087 -0.1364
  425MOL0     H57323   9.507   9.554   6.208 -0.1600 -1.6271  1.2806
  425MOL0     H57324   9.479   9.412   6.394  0.6351  1.6777  1.1421
  425MOL0     H57325   9.354   9.374   6.273 -0.6839  0.7534 -0.4501
  425MOL0     H57326   9.103   9.505   6.327 -3.1759  0.0537  2.0625
  425MOL0     H57327   8.913   9.572   6.587 -0.6325  0.8036  2.5573
  425MOL0     H57328   8.875   9.414   6.515  0.5394 -1.5950  0.4142
  425MOL0     H57329   9.010   9.462   6.788  0.3120  1.1640 -1.1884
  425MOL0     H57330   8.946   9.307   6.735  1.7098  0.3725  1.8536
  425MOL0     H57331   8.717   9.384   6.743  0.6377 -0.8014 -0.1501
  425MOL0     H57332   8.746   9.557   6.769 -1.6086  0.6141  2.4297
  425MOL0     H57333   8.884   9.472   6.985 -0.4052 -2.6404  1.2527
  425MOL0     H57334   8.807   9.330   6.964  0.4929 -1.1180 -2.6465
  425MOL0     H57335   8.478   9.588   7.122 -0.4949  0.1891 -1.7101
  425MOL0     H57336   8.262   9.616   7.211 -0.2408 -0.6979  0.3560
  425MOL0     H57337   8.142   9.574   7.088  1.7271  0.7852 -0.8128
  425MOL0     H57338   8.168   9.481   7.235  1.0220 -0.1252  2.1783
  425MOL0     H57339   7.929   9.262   6.848  0.5128  0.1682  1.9163
  425MOL0     H57340   7.724   9.161   6.785  0.6261  1.8812  0.4925
  425MOL0     H57341   7.515   9.057   6.867 -3.5328 -2.0466  2.5337
  425MOL0     H57342   7.559   8.973   6.711 -3.0177 -0.3710 -0.6611
  425MOL0     H57343   7.445   8.780   6.766  2.7590  1.2438 -1.1357
  425MOL0     H57344   7.401   8.837   6.930  3.7046  2.7491  2.2402
  425MOL0     H57345   7.314   8.950   6.648 -0.4280  1.4319  1.1725
  425MOL0     H57346   7.269   9.035   6.794 -0.2710  0.7279 -1.3914
  425MOL0     H57347   7.179   8.740   6.737 -0.6873 -0.7486  0.6333
  425MOL0     H57348   7.148   8.835   6.880 -1.4577 -0.9354  0.0522
  425MOL0     H57349   7.068   8.954   6.604 -1.1017  1.4993 -0.2619
  425MOL0     H57350   7.008   8.990   6.763 -3.0473  0.8062 -3.5332
  425MOL0     H57351   6.965   8.722   6.634 -3.7759 -0.5785  0.2057
  425MOL0     H57352   6.910   8.765   6.794  0.7021  0.3075  1.0874
  425MOL0     H57353   6.825   8.924   6.555  1.5994 -3.4154 -1.2792
  425MOL0     H57354   6.758   8.923   6.721 -1.6719 -1.2228 -0.7276
  425MOL0     H57355   6.768   8.673   6.541  1.1031 -0.6184  2.6509
  425MOL0     H57356   6.638   8.792   6.544  0.4604  1.4678  0.0259
  425MOL0     H57357   7.857   8.797   6.988 -0.0527  0.9344  1.6885
  425MOL0     H57358   8.062   8.900   7.040  1.7243  0.5090 -1.6691
  425MOL0     H57359   8.373   9.162   6.884 -2.7385 -0.4772  1.7120
  425MOL0     H57360   8.604   9.259   6.883 -0.9799 -2.8683  2.9614
  425MOL0     H57361  10.168  10.156   6.474 -2.2157 -3.0150 -0.6790
  425MOL0     H57362  10.414  10.223   6.522  1.4727 -0.3370  0.4442
  425MOL0     H57363  10.772  10.262   6.689 -1.3243  0.3466  0.5773
  425MOL0     H57364  11.018  10.337   6.710  0.3343  0.4688  0.2319
  425MOL0     H57365  11.327  10.212   6.662  0.5977  3.0179 -1.6229
  425MOL0     H57366  11.226  10.350   6.711 -3.7051 -0.1158  2.0598
  425MOL0     H57367  11.339  10.333   6.926 -1.8112 -0.2322 -1.5096
  425MOL0     H57368  11.439  10.410   6.810  0.7899 -0.1126  2.9366
  425MOL0     H57369  11.439  10.118   6.887  2.3732  0.0953  4.7007
  425MOL0     H57370  11.549  10.228   6.955 -0.2019  2.4244 -0.7612
  425MOL0     H57371  11.548  10.128   6.659  1.2562  0.5329 -1.2971
  425MOL0     H57372  11.641  10.064   6.773  1.2420 -0.1825 -1.5249
  425MOL0     H57373  11.854  10.424   6.728  1.5790 -1.9339 -2.4497
  425MOL0     H57374  11.105   9.948   6.876  0.9864 -2.6110 -4.6633
  425MOL0     H57375  10.898   9.866   6.796  1.1068 -0.5719  2.2467
  426MOL0     O57376   7.178   3.683  10.785 -0.6553 -0.1932  0.1081
  426MOL0     C57377   7.198   3.793  10.753 -0.6582 -0.0269 -0.0790
  426MOL0     O57378   7.124   3.899  10.791 -0.4439 -0.7594 -0.5502
  426MOL0     C57379   7.004   3.873  10.853 -0.9410 -0.8333  0.1791
  426MOL0     C57380   6.883   3.929  10.800  0.6935  0.3104  0.2652
  426MOL0     C57381   6.759   3.926  10.870  0.3547  0.4106 -1.0077
  426MOL0     C57382   6.761   3.853  10.999  0.3450  0.0085  0.4712
  426MOL0     O57383   6.648   3.831  11.068 -0.0037  0.0523 -0.1185
  426MOL0     C57384   6.600   3.939  11.142 -0.0388  0.4306  0.2950
  426MOL0     C57385   6.703   4.047  11.185 -0.0312 -0.6247 -0.1219
  426MOL0     C57386   6.646   4.153  11.273  0.5780  0.5746 -0.5582
  426MOL0     C57387   6.752   4.252  11.315 -0.5343 -0.7755 -0.6615
  426MOL0     C57388   6.695   4.354  11.418 -0.9023 -0.5747 -0.2448
  426MOL0     C57389   6.648   4.286  11.547  0.3758  0.3668  0.0344
  426MOL0     C57390   6.757   4.186  11.607 -0.0094 -0.9756  0.4705
  426MOL0     C57391   6.874   4.268  11.659 -0.3973  0.1225 -0.4718
  426MOL0     N57392   6.848   4.327  11.786 -0.0945 -0.4838  0.2634
  426MOL0     C57393   6.881   4.282  11.914 -0.0941  0.4937  0.9196
  426MOL0     C57394   6.855   4.386  11.995 -0.0004 -1.0095  0.3125
  426MOL0     C57395   6.881   4.381  12.142  0.0338 -0.4221 -0.0027
  426MOL0     C57396   6.781   4.309  12.228  1.4942  0.4512 -0.2894
  426MOL0     C57397   6.658   4.250  12.154 -0.2235  0.0677  0.3783
  426MOL0     C57398   6.551   4.207  12.247  0.1714 -0.2300  0.5606
  426MOL0     O57399   6.466   4.311  12.306  0.4898  0.5046 -0.0843
  426MOL0     C57400   6.334   4.281  12.322 -1.3841 -0.4707 -0.7973
  426MOL0     C57401   6.269   4.161  12.347 -0.3052  0.5011 -1.2725
  426MOL0     C57402   6.132   4.145  12.366 -0.1204 -0.3280 -1.1285
  426MOL0     C57403   6.068   4.010  12.341  0.3115 -0.5344  0.8594
  426MOL0     C57404   6.054   4.273  12.377  0.0109  1.1999 -0.1852
  426MOL0     C57405   5.911   4.275  12.393 -0.0677  0.7106  0.9335
  426MOL0     O57406   5.849   4.387  12.354  0.4711  0.9944 -0.3490
  426MOL0     C57407   5.709   4.403  12.380  0.4920 -0.1676  0.2549
  426MOL0     C57408   5.658   4.525  12.408 -0.4216 -0.7098 -0.2859
  426MOL0     C57409   5.522   4.548  12.412 -0.0452 -0.3769  0.8793
  426MOL0     C57410   5.430   4.447  12.392  0.5051 -0.3684  0.2684
  426MOL0     O57411   5.296   4.457  12.406  0.7157  0.6685  0.1375
  426MOL0     C57412   5.236   4.560  12.487  0.6545  0.2512 -0.8421
  426MOL0     C57413   5.139   4.479  12.579 -0.5284  0.1203  0.9473
  426MOL0     C57414   4.997   4.483  12.518  0.0636  0.7642  0.4918
  426MOL0     C57415   4.903   4.416  12.621  0.1308 -0.6501 -0.1591
  426MOL0     C57416   4.931   4.269  12.637 -0.1754 -0.3784 -0.1844
  426MOL0     C57417   4.811   4.179  12.687  0.6154  0.6193  0.0537
  426MOL0     C57418   4.864   4.033  12.706 -0.1538  1.0219  0.5029
  426MOL0     C57419   4.743   3.949  12.762 -0.3235  0.7978 -0.1400
  426MOL0    Cl57420   4.702   3.986  12.932 -0.4395  0.0773  0.3201
  426MOL0     C57421   5.476   4.318  12.363 -0.5869  0.4714  0.0925
  426MOL0     C57422   5.610   4.301  12.351 -0.4963  0.5449  1.0215
  426MOL0     O57423   5.859   4.173  12.446 -0.0520 -0.9448  0.6035
  426MOL0     C57424   6.124   4.391  12.363 -0.1667 -0.0239  0.0360
  426MOL0     C57425   6.261   4.400  12.334  0.2230  0.2001 -1.2718
  426MOL0     N57426   6.803   4.495  11.924  0.2161  0.1196  0.1339
  426MOL0     N57427   6.803   4.454  11.796  0.2281 -0.0743 -0.5695
  426MOL0     C57428   6.881   3.803  11.049 -0.0529 -0.1313  0.1631
  426MOL0     C57429   7.000   3.812  10.979 -0.3213  0.2213 -0.0200
  426MOL0     C57430   7.320   3.821  10.674 -0.0285  0.1980  0.2495
  426MOL0     C57431   7.343   3.945  10.617 -0.2267 -0.6382  0.4991
  426MOL0     C57432   7.459   3.971  10.558 -0.2130  0.1491  0.1702
  426MOL0     C57433   7.558   3.880  10.542  0.4246  0.2396 -0.4245
  426MOL0     O57434   7.675   3.914  10.475  0.1211 -0.4190 -0.1487
  426MOL0     C57435   7.749   3.810  10.412  0.7010  0.1130 -0.4783
  426MOL0     C57436   7.861   3.862  10.313 -0.0255  0.2796 -0.1866
  426MOL0     C57437   7.926   3.738  10.247  0.7408 -0.1548 -0.5328
  426MOL0     C57438   8.055   3.701  10.317  0.0862 -0.9608 -0.3172
  426MOL0     C57439   8.162   3.791  10.295  0.4705  0.4531  0.3236
  426MOL0     C57440   8.252   3.863  10.278 -0.0995 -0.5354 -0.1814
  426MOL0     C57441   7.541   3.752  10.595 -0.8810  0.6028 -0.5074
  426MOL0     C57442   7.426   3.722  10.667  0.0711  0.4877 -0.0555
  426MOL0     H57443   6.890   3.981  10.705  0.8395 -1.4059 -0.6937
  426MOL0     H57444   6.661   3.961  10.840  0.2051  0.9879  0.0989
  426MOL0     H57445   6.524   3.992  11.083  0.3107 -0.0510 -0.6136
  426MOL0     H57446   6.545   3.887  11.221 -0.4914 -0.4925 -0.5992
  426MOL0     H57447   6.800   4.008  11.217  0.7365  0.4283 -1.0824
  426MOL0     H57448   6.730   4.104  11.095  1.2121  2.7925  2.1926
  426MOL0     H57449   6.564   4.201  11.219 -0.6609 -2.0202 -1.1452
  426MOL0     H57450   6.600   4.101  11.358 -0.6843 -2.2776 -2.7935
  426MOL0     H57451   6.842   4.200  11.348 -0.6624 -0.0893  0.8455
  426MOL0     H57452   6.779   4.316  11.231 -2.2561 -0.4119 -0.9901
  426MOL0     H57453   6.782   4.414  11.447 -1.2975 -0.6509  1.1937
  426MOL0     H57454   6.615   4.411  11.372 -1.2325 -1.9864 -1.5106
  426MOL0     H57455   6.622   4.353  11.630  0.2240 -0.5105  0.7100
  426MOL0     H57456   6.554   4.234  11.528  0.3583  1.2707 -2.7899
  426MOL0     H57457   6.724   4.141  11.701  2.0620  2.7809  3.2887
  426MOL0     H57458   6.788   4.109  11.536 -2.4020 -0.2137 -1.5325
  426MOL0     H57459   6.922   4.340  11.593  3.5484 -0.9448  0.9643
  426MOL0     H57460   6.948   4.189  11.675  0.3059  0.9798  0.6718
  426MOL0     H57461   6.929   4.187  11.938 -0.1977  0.0967 -0.3872
  426MOL0     H57462   6.974   4.325  12.155  0.1117 -0.0856  1.0353
  426MOL0     H57463   6.895   4.483  12.179 -2.3809 -0.0708  0.1429
  426MOL0     H57464   6.736   4.377  12.301  0.6729 -0.8759  0.4951
  426MOL0     H57465   6.820   4.232  12.296 -1.0478 -1.5629 -0.9249
  426MOL0     H57466   6.687   4.163  12.096 -2.0758 -0.7963  0.6843
  426MOL0     H57467   6.630   4.334  12.089  2.6759 -0.3042 -1.5271
  426MOL0     H57468   6.603   4.146  12.322  0.1768 -2.2865 -1.0037
  426MOL0     H57469   6.490   4.142  12.183  0.7331  1.3972 -1.7311
  426MOL0     H57470   6.322   4.068  12.331  1.6463  1.1930  0.6637
  426MOL0     H57471   6.152   3.941  12.327 -0.1359 -1.1711  1.2993
  426MOL0     H57472   6.014   3.973  12.428  1.6318 -1.6066  1.2504
  426MOL0     H57473   6.009   4.023  12.249  2.2102 -1.5709 -0.5848
  426MOL0     H57474   5.725   4.609  12.423  0.3314 -1.8566  3.9275
  426MOL0     H57475   5.501   4.653  12.431  2.5809  0.2942  0.4637
  426MOL0     H57476   5.309   4.616  12.546  1.2569 -0.9880 -0.3739
  426MOL0     H57477   5.184   4.638  12.430  0.0512  1.6082  1.4631
  426MOL0     H57478   5.178   4.378  12.594  1.1702  0.3789 -1.2282
  426MOL0     H57479   5.143   4.543  12.668  1.4135  0.6187  0.5477
  426MOL0     H57480   4.989   4.418  12.430 -2.0007 -0.0156  1.1702
  426MOL0     H57481   4.966   4.586  12.502  1.4508  1.0468 -0.4737
  426MOL0     H57482   4.901   4.450  12.724 -2.3200 -3.1902  0.7427
  426MOL0     H57483   4.803   4.433  12.581  1.1487  2.8352 -1.5782
  426MOL0     H57484   5.015   4.265  12.707  0.1186 -2.1924 -0.5782
  426MOL0     H57485   4.968   4.226  12.543  1.8569 -0.1811  0.4900
  426MOL0     H57486   4.773   4.222  12.780  0.6317  2.3653 -0.7059
  426MOL0     H57487   4.726   4.176  12.619  1.2797 -1.2366 -0.7636
  426MOL0     H57488   4.954   4.038  12.768  0.9475 -0.2323 -0.9354
  426MOL0     H57489   4.896   3.992  12.610 -0.5163  0.3492  0.6614
  426MOL0     H57490   4.765   3.842  12.758 -0.3818  0.7150  1.2807
  426MOL0     H57491   4.653   3.979  12.706 -1.8166  2.1441  2.7781
  426MOL0     H57492   5.415   4.230  12.341 -1.4234  1.2493 -0.8308
  426MOL0     H57493   5.652   4.207  12.315  1.6436  0.4857  3.3560
  426MOL0     H57494   6.074   4.482  12.395  0.3700  0.2483  0.1067
  426MOL0     H57495   6.302   4.498  12.312 -0.3025  0.7429  0.0705
  426MOL0     H57496   6.876   3.755  11.147 -0.5666 -0.1664  0.1189
  426MOL0     H57497   7.091   3.769  11.020 -0.6597 -1.0296 -0.5229
  426MOL0     H57498   7.265   4.019  10.632 -1.0775 -1.9406  3.1617
  426MOL0     H57499   7.495   4.067  10.523  0.7023 -1.0772 -2.4903
  426MOL0     H57500   7.801   3.756  10.492  0.2088  2.3481  1.4772
  426MOL0     H57501   7.685   3.734  10.367 -1.6757  1.7515 -0.0129
  426MOL0     H57502   7.921   3.927  10.376 -2.1911  1.2991  0.9452
  426MOL0     H57503   7.813   3.916  10.232  0.2002 -0.2502 -0.6795
  426MOL0     H57504   7.953   3.744  10.142  4.3300 -1.4558  0.1840
  426MOL0     H57505   7.858   3.652  10.248  0.0060  0.3526  2.3524
  426MOL0     H57506   8.079   3.599  10.284 -0.7810 -0.8826 -1.2336
  426MOL0     H57507   8.044   3.710  10.426  1.2269  1.2661 -0.3392
  426MOL0     H57508   8.336   3.929  10.272 -2.2322  2.5372  1.2547
  426MOL0     H57509   7.609   3.668  10.586  0.3118  1.5707 -0.7244
  426MOL0     H57510   7.409   3.623  10.709 -1.1813  1.0606  0.8852
  427MOL0     O57511   3.157  10.510   8.068 -0.2270 -0.3662  0.3629
  427MOL0     C57512   3.210  10.604   8.005 -0.9555 -0.9287  0.4910
  427MOL0     O57513   3.156  10.671   7.896  0.1645 -0.1182 -0.5534
  427MOL0     C57514   3.018  10.649   7.866 -0.1995 -0.0109  0.6329
  427MOL0     C57515   2.984  10.598   7.736  0.1973 -0.1962  0.5428
  427MOL0     C57516   2.847  10.578   7.714 -0.2312 -0.9514 -0.3177
  427MOL0     C57517   2.752  10.594   7.816 -0.1089 -0.5028 -0.1130
  427MOL0     O57518   2.619  10.575   7.772  0.4731 -0.4529 -0.7731
  427MOL0     C57519   2.510  10.595   7.864  0.3658 -0.5823 -0.4293
  427MOL0     C57520   2.379  10.557   7.804 -0.3380  0.4641  0.5838
  427MOL0     C57521   2.376  10.631   7.668  0.4590 -0.1726  0.6486
  427MOL0     C57522   2.240  10.623   7.595 -0.3812 -0.0290 -0.6475
  427MOL0     C57523   2.216  10.487   7.523  0.4583  0.4206 -0.5355
  427MOL0     C57524   2.077  10.477   7.462  0.1522 -0.2873  0.0829
  427MOL0     C57525   2.055  10.349   7.381  0.3974 -0.5656 -0.8226
  427MOL0     C57526   1.925  10.364   7.319  0.4281 -0.4433  0.1688
  427MOL0     N57527   1.892  10.227   7.267  0.4282  0.1726 -0.1611
  427MOL0     C57528   1.829  10.120   7.331 -0.2007 -0.3990 -0.3931
  427MOL0     C57529   1.867  10.003   7.272 -0.0839  0.1363  1.1032
  427MOL0     C57530   1.820   9.859   7.299  0.2426  0.4407 -0.0279
  427MOL0     C57531   1.697   9.827   7.237  0.4462  0.1141  0.0192
  427MOL0     C57532   1.667   9.680   7.268 -0.0475 -0.0222 -0.2367
  427MOL0     C57533   1.539   9.632   7.205  0.7898  0.3363  0.0194
  427MOL0     O57534   1.527   9.490   7.206 -0.3552  0.6274 -0.2919
  427MOL0     C57535   1.408   9.434   7.187  0.5953  0.4183 -0.1271
  427MOL0     C57536   1.412   9.299   7.207 -0.3168  0.0690 -0.2848
  427MOL0     C57537   1.294   9.220   7.185 -0.2804  0.2859  0.0593
  427MOL0     C57538   1.314   9.067   7.210  0.2789 -0.5112 -0.7040
  427MOL0     C57539   1.171   9.282   7.141  0.4308 -0.2604 -0.3183
  427MOL0     C57540   1.042   9.208   7.112 -0.5261  0.2395  0.6049
  427MOL0     O57541   0.939   9.280   7.059 -0.0515  0.4441  0.4251
  427MOL0     C57542   0.832   9.208   7.012 -0.0361  0.4028 -0.6014
  427MOL0     C57543   0.818   9.189   6.874  0.6217  0.6061  0.2312
  427MOL0     C57544   0.704   9.132   6.828 -0.0794  0.1521 -0.5324
  427MOL0     C57545   0.600   9.078   6.906 -0.7150  0.0693 -0.4688
  427MOL0     O57546   0.485   9.038   6.856  0.5944 -0.0673  0.6663
  427MOL0     C57547   0.380   9.128   6.873  0.9879  0.3925  0.0508
  427MOL0     C57548   0.256   9.073   6.803 -0.0286  0.6757 -0.5843
  427MOL0     C57549   0.168   9.181   6.758  0.3650 -0.1495 -0.5895
  427MOL0     C57550   0.052   9.143   6.666  0.6292  0.1747  0.7976
  427MOL0     C57551  -0.035   9.024   6.716  0.5889 -0.5427  0.5706
  427MOL0     C57552  -0.150   9.001   6.614  0.0921  0.8343  0.2973
  427MOL0     C57553  -0.270   9.094   6.627  0.0992  0.3068  0.1526
  427MOL0     C57554  -0.402   9.023   6.619  0.0487 -0.1187  0.1422
  427MOL0    Cl57555  -0.430   8.946   6.463 -0.2217 -0.2724 -0.1026
  427MOL0     C57556   0.622   9.083   7.046  1.2160 -0.6013  0.3644
  427MOL0     C57557   0.733   9.150   7.101 -0.1635 -0.5972  0.4073
  427MOL0     O57558   1.042   9.084   7.130  0.0153  0.2507 -0.1348
  427MOL0     C57559   1.178   9.427   7.115  0.2505  0.6546  0.2469
  427MOL0     C57560   1.294   9.500   7.137  0.0483  0.0110 -0.1853
  427MOL0     N57561   1.949  10.037   7.165 -0.7329 -0.3012  0.0974
  427MOL0     N57562   1.969  10.169   7.167  0.5569  0.9177 -0.1629
  427MOL0     C57563   2.789  10.644   7.945 -0.2935  0.3214 -0.6781
  427MOL0     C57564   2.919  10.680   7.961 -0.4918  0.7756  0.0098
  427MOL0     C57565   3.350  10.632   8.047  0.1380  0.6085  0.5717
  427MOL0     C57566   3.403  10.564   8.155 -0.6421  0.3149 -0.7708
  427MOL0     C57567   3.536  10.585   8.195  0.1245  0.0470  0.0678
  427MOL0     C57568   3.613  10.684   8.131 -0.1965  0.3841  0.0629
  427MOL0     O57569   3.746  10.718   8.153  1.0384  0.4283 -0.1321
  427MOL0     C57570   3.827  10.642   8.250 -0.1730  0.6359  0.1615
  427MOL0     C57571   3.968  10.717   8.233 -0.0826  0.2477 -0.4315
  427MOL0     C57572   4.051  10.679   8.114  0.1475  0.2573 -0.1661
  427MOL0     C57573   4.178  10.773   8.103 -0.1904 -0.3422 -0.1092
  427MOL0     C57574   4.256  10.775   8.225  0.3554  0.0032 -0.3027
  427MOL0     C57575   4.325  10.773   8.326  0.1055  0.4174 -0.0454
  427MOL0     C57576   3.553  10.755   8.030  0.6488 -0.3383  0.1413
  427MOL0     C57577   3.425  10.723   7.982 -0.4814 -0.2319  1.2190
  427MOL0     H57578   3.050  10.578   7.652  1.2325  0.6569  1.1212
  427MOL0     H57579   2.809  10.540   7.619 -0.8964  1.8141 -1.2634
  427MOL0     H57580   2.520  10.527   7.950  3.0204  1.5608  1.1402
  427MOL0     H57581   2.492  10.696   7.901 -1.8207 -1.7401  1.9590
  427MOL0     H57582   2.367  10.451   7.778  0.3961  1.1188 -2.8053
  427MOL0     H57583   2.293  10.582   7.867 -1.1508 -1.6064  0.4010
  427MOL0     H57584   2.383  10.740   7.676  1.2346  0.1183 -2.5216
  427MOL0     H57585   2.448  10.597   7.593 -0.8248 -2.0468  0.1824
  427MOL0     H57586   2.158  10.630   7.666 -0.5680 -1.2553 -0.7202
  427MOL0     H57587   2.243  10.700   7.518 -1.2109  0.7989  0.1172
  427MOL0     H57588   2.277  10.464   7.435 -0.7311 -1.7281 -0.8685
  427MOL0     H57589   2.230  10.401   7.589  1.1886 -0.4787 -1.8119
  427MOL0     H57590   2.004  10.475   7.544  1.2310 -0.6170  1.0614
  427MOL0     H57591   2.058  10.564   7.399 -0.5600 -0.1196  0.5143
  427MOL0     H57592   2.129  10.340   7.301  0.5129  1.9824 -1.0878
  427MOL0     H57593   2.050  10.262   7.448 -2.0452  1.4985  1.9705
  427MOL0     H57594   1.933  10.439   7.239 -0.1287 -1.7815 -1.1871
  427MOL0     H57595   1.857  10.391   7.400  0.1996  2.5134 -0.8965
  427MOL0     H57596   1.763  10.123   7.417  3.0989  2.3358  2.3355
  427MOL0     H57597   1.895   9.781   7.284  0.2239  0.4692 -0.2653
  427MOL0     H57598   1.799   9.843   7.405 -1.0147  0.9905 -0.1770
  427MOL0     H57599   1.704   9.849   7.130  0.2495 -0.7515 -0.1844
  427MOL0     H57600   1.622   9.896   7.278 -1.5549 -2.2531  0.6264
  427MOL0     H57601   1.657   9.666   7.376  3.4470  0.7535  0.3194
  427MOL0     H57602   1.751   9.622   7.229  0.3946 -0.0454  0.7308
  427MOL0     H57603   1.524   9.664   7.101 -0.3945  0.2927  0.1622
  427MOL0     H57604   1.455   9.668   7.266 -0.3428 -1.0369 -0.6663
  427MOL0     H57605   1.502   9.244   7.232 -0.5368 -1.5774 -2.8426
  427MOL0     H57606   1.419   9.044   7.232  0.5285  1.5891  0.6140
  427MOL0     H57607   1.250   9.031   7.291  1.3709 -3.1234 -0.9059
  427MOL0     H57608   1.278   9.015   7.121 -3.2904  0.2288  0.1635
  427MOL0     H57609   0.891   9.227   6.803  2.9099 -3.3545  0.1548
  427MOL0     H57610   0.696   9.126   6.719  2.3526  0.8508 -0.8137
  427MOL0     H57611   0.360   9.155   6.977  1.0891  1.1329 -0.1181
  427MOL0     H57612   0.412   9.221   6.827 -0.5074  0.1270 -1.6714
  427MOL0     H57613   0.297   9.020   6.717 -0.2808 -0.8013  0.1744
  427MOL0     H57614   0.208   8.997   6.865 -0.1811  1.3760  0.1755
  427MOL0     H57615   0.225   9.266   6.719 -0.7685  0.0870 -1.7986
  427MOL0     H57616   0.119   9.228   6.844  0.7406  0.6406 -0.7918
  427MOL0     H57617  -0.005   9.236   6.661  0.7516  0.2063 -0.3262
  427MOL0     H57618   0.082   9.115   6.565 -1.8576 -2.8480  0.7137
  427MOL0     H57619  -0.081   9.045   6.813 -0.1171 -1.3293  0.4193
  427MOL0     H57620   0.030   8.936   6.714  0.8056 -0.3774  0.3017
  427MOL0     H57621  -0.115   9.007   6.511 -1.7917  2.4069 -0.2997
  427MOL0     H57622  -0.180   8.898   6.632  2.7349 -0.3231 -1.3278
  427MOL0     H57623  -0.267   9.170   6.549  2.0016  0.0882 -0.0560
  427MOL0     H57624  -0.267   9.136   6.728  0.1801  1.1566 -0.2001
  427MOL0     H57625  -0.485   9.091   6.644 -1.0115 -1.3452  0.0422
  427MOL0     H57626  -0.412   8.948   6.697 -1.5374  0.2745  0.3547
  427MOL0     H57627   0.545   9.045   7.112  0.7379  0.8960  0.7010
  427MOL0     H57628   0.732   9.153   7.209 -0.9926  3.1382  0.4322
  427MOL0     H57629   1.086   9.479   7.087  0.6359 -0.3791 -3.5255
  427MOL0     H57630   1.298   9.608   7.127  2.1096  0.3217  2.9565
  427MOL0     H57631   2.717  10.667   8.023 -0.6963  0.1567 -0.9989
  427MOL0     H57632   2.951  10.719   8.058  0.9703  4.0454 -1.6244
  427MOL0     H57633   3.351  10.491   8.216 -0.4976  0.2665 -0.7054
  427MOL0     H57634   3.580  10.530   8.278 -1.0170  1.7440  1.8854
  427MOL0     H57635   3.788  10.646   8.352 -1.9446  2.3087 -0.5136
  427MOL0     H57636   3.839  10.537   8.221  1.1519  0.4023  1.4254
  427MOL0     H57637   4.027  10.710   8.325  0.5136 -0.9227 -0.8744
  427MOL0     H57638   3.947  10.824   8.227 -1.5180  0.2037  2.0930
  427MOL0     H57639   3.997  10.670   8.020 -1.5566  1.0492  0.6984
  427MOL0     H57640   4.079  10.575   8.135 -2.2139 -0.1554  1.3763
  427MOL0     H57641   4.154  10.876   8.076  3.5186  0.8446  0.5779
  427MOL0     H57642   4.240  10.738   8.020 -1.6176  0.5399 -1.5866
  427MOL0     H57643   4.392  10.764   8.409 -0.7692  1.1166  0.7508
  427MOL0     H57644   3.595  10.843   7.982 -0.9760  1.6969  2.1769
  427MOL0     H57645   3.388  10.765   7.889 -1.5174 -2.8915  0.3336
  428MOL0     O57646   5.994   7.994   4.719 -0.2051  0.1759 -0.0387
  428MOL0     C57647   6.037   8.090   4.657  0.1127 -0.3299 -0.6190
  428MOL0     O57648   5.961   8.178   4.590  0.7600 -0.3797  0.8025
  428MOL0     C57649   5.821   8.144   4.578  0.1340  0.1777 -0.2365
  428MOL0     C57650   5.767   8.108   4.457 -0.0978 -0.9511  0.2503
  428MOL0     C57651   5.632   8.069   4.443  0.0553 -0.0618 -0.5369
  428MOL0     C57652   5.549   8.064   4.558  0.4400  0.2231  0.2017
  428MOL0     O57653   5.413   8.024   4.548 -0.1824  0.2496 -0.1879
  428MOL0     C57654   5.360   7.933   4.454 -0.3825  0.8406  1.0961
  428MOL0     C57655   5.309   8.009   4.337  0.2178  0.1806  0.0509
  428MOL0     C57656   5.185   7.935   4.280  0.5726  0.0694 -0.2066
  428MOL0     C57657   5.159   7.982   4.129 -0.1555  0.7576  0.4085
  428MOL0     C57658   5.029   7.924   4.070  0.2821 -0.1191 -0.5712
  428MOL0     C57659   4.910   8.006   4.127 -0.5081 -0.2135  0.0155
  428MOL0     C57660   4.778   7.949   4.075  0.2998  0.0885 -0.2334
  428MOL0     C57661   4.734   7.825   4.152  0.2252 -0.0939 -0.0312
  428MOL0     N57662   4.705   7.860   4.295 -0.2247 -0.7358  0.8287
  428MOL0     C57663   4.585   7.890   4.345  1.1536  0.3284  0.4803
  428MOL0     C57664   4.613   7.928   4.474 -0.4318  0.9346 -0.7005
  428MOL0     C57665   4.512   7.987   4.567 -0.0967 -0.2199 -1.2435
  428MOL0     C57666   4.550   8.127   4.620  0.5035  0.1138 -0.1630
  428MOL0     C57667   4.438   8.167   4.718  0.3015 -0.0277  0.1088
  428MOL0     C57668   4.416   8.322   4.695  0.3507 -0.8973 -0.2065
  428MOL0     O57669   4.348   8.363   4.815  0.3587 -0.6814 -0.0090
  428MOL0     C57670   4.210   8.382   4.810  0.2588  0.3293  0.3057
  428MOL0     C57671   4.121   8.335   4.710 -0.5242  0.4657 -0.1960
  428MOL0     C57672   3.984   8.353   4.708 -0.0817 -0.7729 -0.1347
  428MOL0     C57673   3.909   8.294   4.602 -0.5807  0.1877  0.0928
  428MOL0     C57674   3.924   8.429   4.816  0.5597 -0.5508  0.6995
  428MOL0     C57675   3.780   8.460   4.806  0.4201  0.0325 -0.1672
  428MOL0     O57676   3.702   8.382   4.729 -0.4234  0.3690  0.3292
  428MOL0     C57677   3.572   8.377   4.776  0.2431  0.2100  0.3695
  428MOL0     C57678   3.526   8.371   4.913 -1.2291  0.3839 -0.0297
  428MOL0     C57679   3.395   8.371   4.944 -0.4379  0.0114  0.5480
  428MOL0     C57680   3.297   8.377   4.846  0.0869 -0.2071  0.4117
  428MOL0     O57681   3.165   8.358   4.874  0.3285  0.3958 -0.7634
  428MOL0     C57682   3.108   8.477   4.921 -0.6369  0.0832  0.2759
  428MOL0     C57683   3.007   8.529   4.818 -0.2861 -0.3328 -0.3080
  428MOL0     C57684   2.932   8.659   4.873  0.2813  1.1859 -0.2861
  428MOL0     C57685   2.832   8.631   4.984 -0.0803 -0.0153 -0.2773
  428MOL0     C57686   2.703   8.595   4.920  0.0617 -0.1688 -0.2061
  428MOL0     C57687   2.588   8.580   5.017  0.3646 -1.1870  0.3945
  428MOL0     C57688   2.469   8.530   4.939  0.4353 -0.8815  0.1458
  428MOL0     C57689   2.342   8.550   5.025 -0.5579  0.2755  0.7164
  428MOL0    Cl57690   2.280   8.722   5.026  0.0783 -0.7562 -0.4372
  428MOL0     C57691   3.340   8.392   4.713 -0.1632 -0.1230 -0.1370
  428MOL0     C57692   3.480   8.379   4.679  0.8571 -0.0295  0.5294
  428MOL0     O57693   3.746   8.560   4.874 -0.2984 -0.1697  0.6188
  428MOL0     C57694   4.009   8.470   4.917 -0.0270  0.2632 -0.4563
  428MOL0     C57695   4.151   8.452   4.909  0.0808  0.5699 -0.4484
  428MOL0     N57696   4.753   7.903   4.499 -0.2932  0.4231  0.4824
  428MOL0     N57697   4.802   7.874   4.385 -0.3579  0.6749 -0.0384
  428MOL0     C57698   5.606   8.095   4.676  0.2051 -0.3241  0.4882
  428MOL0     C57699   5.738   8.130   4.686 -0.3755 -0.7162 -0.6797
  428MOL0     C57700   6.176   8.125   4.651 -0.8440  0.7870 -0.1545
  428MOL0     C57701   6.270   8.021   4.677 -0.8389 -0.8293  0.3970
  428MOL0     C57702   6.404   8.055   4.658 -0.7519 -0.8434  0.0904
  428MOL0     C57703   6.452   8.188   4.642 -0.1017  0.4697 -0.4307
  428MOL0     O57704   6.594   8.204   4.652  0.1901 -0.4977  0.2646
  428MOL0     C57705   6.647   8.333   4.657 -0.1449  0.4152  1.0266
  428MOL0     C57706   6.797   8.322   4.677  0.0559 -0.5970  0.3097
  428MOL0     C57707   6.826   8.250   4.819  1.1136  0.3281  0.7446
  428MOL0     C57708   6.847   8.350   4.928  0.1023 -0.4051 -0.5872
  428MOL0     C57709   6.957   8.451   4.925  0.4656  0.3064  0.5345
  428MOL0     C57710   7.044   8.530   4.931 -0.6838 -0.1819  0.1996
  428MOL0     C57711   6.362   8.287   4.618  0.1380  0.9761 -0.7128
  428MOL0     C57712   6.224   8.253   4.618  0.2590  0.1663 -0.1240
  428MOL0     H57713   5.839   8.112   4.376  2.5352 -1.2984  2.4194
  428MOL0     H57714   5.585   8.062   4.345  1.1379 -3.6609 -0.9487
  428MOL0     H57715   5.426   7.850   4.426 -1.3119  0.6367 -0.6715
  428MOL0     H57716   5.265   7.902   4.499 -1.0567  0.6342 -0.3992
  428MOL0     H57717   5.278   8.111   4.363 -2.1902 -0.3924 -0.3824
  428MOL0     H57718   5.383   8.012   4.256 -0.4487 -0.8723 -0.6143
  428MOL0     H57719   5.198   7.827   4.290 -0.6188 -0.0938 -0.2957
  428MOL0     H57720   5.090   7.957   4.329 -1.7635 -1.5243 -3.5937
  428MOL0     H57721   5.164   8.090   4.115  0.9991  0.6095 -0.5110
  428MOL0     H57722   5.244   7.943   4.071 -0.5998  0.6822 -0.1990
  428MOL0     H57723   5.015   7.911   3.962 -2.4620  1.6594 -0.5394
  428MOL0     H57724   5.024   7.822   4.109  0.2469  0.4754  1.0347
  428MOL0     H57725   4.893   8.016   4.235 -0.4489  2.8751 -0.1748
  428MOL0     H57726   4.930   8.109   4.099  3.5667 -0.7152  0.4713
  428MOL0     H57727   4.700   8.024   4.086  0.0782 -0.2907  0.9026
  428MOL0     H57728   4.792   7.922   3.969  2.7008 -1.6694  0.4427
  428MOL0     H57729   4.809   7.745   4.152  0.4506  0.1125  0.9829
  428MOL0     H57730   4.648   7.784   4.097  1.1223  1.2499 -2.6296
  428MOL0     H57731   4.492   7.909   4.293  1.3458  2.5755  0.8829
  428MOL0     H57732   4.411   7.988   4.524 -2.3486  0.5611  3.4740
  428MOL0     H57733   4.508   7.915   4.649  1.3095  0.2015 -0.7922
  428MOL0     H57734   4.570   8.192   4.535  2.1533 -1.8888 -1.3808
  428MOL0     H57735   4.650   8.114   4.663  0.7541  0.8698 -0.5000
  428MOL0     H57736   4.467   8.141   4.820 -2.7224 -2.8693  0.4149
  428MOL0     H57737   4.342   8.123   4.689 -2.5992  3.7362  2.9865
  428MOL0     H57738   4.372   8.353   4.600 -0.1653 -3.3185 -0.8206
  428MOL0     H57739   4.514   8.370   4.692  0.2154 -0.5828  0.2845
  428MOL0     H57740   4.162   8.271   4.633  0.3242  1.0313 -0.2277
  428MOL0     H57741   3.871   8.382   4.550  1.1560  1.1594  0.3928
  428MOL0     H57742   3.978   8.245   4.533 -1.2662  3.2974 -3.0931
  428MOL0     H57743   3.831   8.219   4.620 -0.0227 -0.7286 -1.1480
  428MOL0     H57744   3.603   8.350   4.986 -2.9026 -0.8076  1.5023
  428MOL0     H57745   3.367   8.354   5.048 -1.2205 -0.0646  0.3295
  428MOL0     H57746   3.046   8.468   5.010 -2.6829 -0.4233 -1.1287
  428MOL0     H57747   3.181   8.559   4.917 -0.4889 -0.0888 -2.0144
  428MOL0     H57748   3.061   8.540   4.724 -0.6376  0.6702 -0.4086
  428MOL0     H57749   2.932   8.451   4.802  0.6753 -1.0849 -1.2896
  428MOL0     H57750   2.887   8.700   4.782 -2.6713  0.0962  0.5779
  428MOL0     H57751   3.004   8.729   4.917 -1.0757  1.3176  1.9340
  428MOL0     H57752   2.850   8.545   5.049 -1.7755 -1.0791 -1.1617
  428MOL0     H57753   2.811   8.720   5.044  0.5873 -0.1930  0.2283
  428MOL0     H57754   2.732   8.499   4.876 -0.6622 -0.2248 -0.5760
  428MOL0     H57755   2.681   8.674   4.848 -1.2552  0.4263  0.8027
  428MOL0     H57756   2.613   8.502   5.090 -2.3226 -1.3746  1.1970
  428MOL0     H57757   2.576   8.679   5.061 -1.7080 -0.8403 -0.8505
  428MOL0     H57758   2.486   8.422   4.933  1.8631 -0.6311 -1.2604
  428MOL0     H57759   2.454   8.572   4.839  1.9509 -1.0195 -0.1680
  428MOL0     H57760   2.366   8.513   5.125  0.5673 -0.7438  0.0985
  428MOL0     H57761   2.260   8.493   4.981 -0.5977  0.7184  0.2072
  428MOL0     H57762   3.260   8.385   4.639 -0.0501 -4.5997 -0.1217
  428MOL0     H57763   3.504   8.388   4.573 -1.1054 -1.3248 -0.0879
  428MOL0     H57764   3.963   8.528   4.996  3.8716  0.9482  1.5571
  428MOL0     H57765   4.212   8.464   4.998 -1.4373 -2.3335  1.1525
  428MOL0     H57766   5.539   8.099   4.762 -2.8427 -0.4705 -1.6974
  428MOL0     H57767   5.773   8.159   4.785  2.0462  0.4835 -1.8130
  428MOL0     H57768   6.244   7.918   4.700 -2.7843 -0.0489  2.0256
  428MOL0     H57769   6.478   7.979   4.683  0.3126  0.2407  0.3850
  428MOL0     H57770   6.625   8.392   4.567 -2.6471 -0.1818  1.1655
  428MOL0     H57771   6.610   8.391   4.742 -0.8916 -0.2859  1.1908
  428MOL0     H57772   6.848   8.418   4.687  3.2642 -2.3739  3.3205
  428MOL0     H57773   6.845   8.263   4.597  3.2621 -1.4575  2.6670
  428MOL0     H57774   6.913   8.185   4.804  0.5068 -0.6749  1.4524
  428MOL0     H57775   6.739   8.191   4.846 -0.1454  2.0371  0.5882
  428MOL0     H57776   6.873   8.281   5.010 -0.8092 -1.4384 -1.1402
  428MOL0     H57777   6.750   8.394   4.955 -1.4231 -1.3585 -3.9112
  428MOL0     H57778   7.103   8.619   4.931 -1.2078  0.2756 -2.9056
  428MOL0     H57779   6.398   8.389   4.608 -0.5779  1.4167  0.8383
  428MOL0     H57780   6.146   8.326   4.597  0.5518  0.5116 -0.0131
  429MOL0     O57781  11.028   5.478   5.591 -0.2364  0.3132  0.4667
  429MOL0     C57782  11.067   5.563   5.514 -0.8590 -0.0541 -0.1665
  429MOL0     O57783  11.007   5.617   5.406  0.2610  0.0321 -0.2588
  429MOL0     C57784  10.897   5.561   5.355  0.0265 -0.0381  0.3660
  429MOL0     C57785  10.799   5.637   5.284 -0.4509 -0.0685 -0.2196
  429MOL0     C57786  10.689   5.579   5.220 -0.0464  0.0461 -0.2587
  429MOL0     C57787  10.673   5.442   5.243  0.3872 -0.0718  0.5301
  429MOL0     O57788  10.564   5.363   5.195 -0.3271  0.7269  0.9644
  429MOL0     C57789  10.522   5.394   5.059  0.5907  0.0013 -0.5500
  429MOL0     C57790  10.389   5.322   5.024  0.0604 -0.2903  0.0851
  429MOL0     C57791  10.410   5.171   5.031  1.1360  0.2312  0.1480
  429MOL0     C57792  10.413   5.123   4.887  0.5203 -0.3906  0.3714
  429MOL0     C57793  10.456   4.967   4.872  0.2766  0.0024  0.7375
  429MOL0     C57794  10.374   4.869   4.965 -0.7757 -0.1269  0.0725
  429MOL0     C57795  10.224   4.862   4.931 -0.0062  0.6362  0.2625
  429MOL0     C57796  10.172   4.726   4.981  0.1453 -0.6865 -0.0452
  429MOL0     N57797  10.035   4.715   4.934 -0.0691  0.8071 -0.5974
  429MOL0     C57798   9.977   4.599   4.876  0.1119  0.1614  0.4437
  429MOL0     C57799   9.844   4.634   4.865 -0.3996 -0.0838 -0.0918
  429MOL0     C57800   9.747   4.542   4.826  0.5856 -0.4851  0.0341
  429MOL0     C57801   9.652   4.605   4.727  0.5620 -0.2836 -0.4112
  429MOL0     C57802   9.718   4.612   4.590  0.0877 -0.3337 -0.0194
  429MOL0     C57803   9.637   4.692   4.496 -0.2285  0.4345  0.1021
  429MOL0     O57804   9.509   4.625   4.487 -0.0317  0.0446 -0.2353
  429MOL0     C57805   9.457   4.568   4.374 -0.2509  0.0548 -0.7278
  429MOL0     C57806   9.506   4.587   4.248 -0.5425  0.4145  0.0084
  429MOL0     C57807   9.438   4.532   4.131 -0.0548  0.4418 -0.5777
  429MOL0     C57808   9.490   4.571   3.991 -0.5968 -0.9165  0.2176
  429MOL0     C57809   9.321   4.455   4.147  0.2017 -0.0542 -0.3328
  429MOL0     C57810   9.232   4.393   4.046 -0.1884  0.5097  0.5368
  429MOL0     O57811   9.096   4.406   4.056 -0.5955  0.4514 -0.5945
  429MOL0     C57812   9.017   4.357   3.951 -0.3152  0.2112  0.5779
  429MOL0     C57813   9.051   4.379   3.821 -0.0000  0.7200  0.3425
  429MOL0     C57814   8.974   4.314   3.715 -1.1858 -0.0576  0.0279
  429MOL0     C57815   8.857   4.236   3.745  0.6325  0.0749  0.3874
  429MOL0     O57816   8.780   4.198   3.636 -0.0496  0.1344  0.6850
  429MOL0     C57817   8.641   4.152   3.660 -0.3526 -0.1032  0.3020
  429MOL0     C57818   8.550   4.140   3.543  1.1626  0.4641  0.1084
  429MOL0     C57819   8.550   4.270   3.470  0.4554  0.0027 -0.3446
  429MOL0     C57820   8.459   4.259   3.352  0.4935 -0.0781  0.1403
  429MOL0     C57821   8.464   4.392   3.265 -0.0102 -0.4376 -0.4310
  429MOL0     C57822   8.582   4.392   3.164 -1.4500 -0.8137 -0.0582
  429MOL0     C57823   8.571   4.296   3.040  0.0081  0.7524 -0.0014
  429MOL0     C57824   8.673   4.331   2.930  0.8750  1.3244 -0.5188
  429MOL0    Cl57825   8.840   4.313   2.994  0.0740  0.0638  0.3156
  429MOL0     C57826   8.815   4.237   3.884  0.2051  0.6751  0.2804
  429MOL0     C57827   8.898   4.293   3.982  0.2517 -0.1235 -0.1611
  429MOL0     O57828   9.282   4.320   3.964 -0.5003  0.6836  0.6582
  429MOL0     C57829   9.259   4.451   4.277 -0.0659 -0.5758 -0.1577
  429MOL0     C57830   9.327   4.506   4.388  0.2456 -0.7963  0.8727
  429MOL0     N57831   9.833   4.781   4.884 -0.3420  0.7393 -0.0907
  429MOL0     N57832   9.944   4.816   4.926  0.4893 -0.0844  0.1779
  429MOL0     C57833  10.766   5.366   5.306 -0.6053 -0.6093  0.3499
  429MOL0     C57834  10.877   5.424   5.366  0.5417 -0.3451 -0.2925
  429MOL0     C57835  11.197   5.631   5.554  0.2269  0.0290  0.7890
  429MOL0     C57836  11.276   5.596   5.666  0.2723 -0.1325 -0.3202
  429MOL0     C57837  11.397   5.660   5.698  0.1967  0.2826  0.9860
  429MOL0     C57838  11.447   5.760   5.618 -0.2886  0.7153 -0.4085
  429MOL0     O57839  11.566   5.820   5.631  0.0892 -0.0099  0.0303
  429MOL0     C57840  11.625   5.812   5.758 -0.0790 -0.9362 -0.4308
  429MOL0     C57841  11.719   5.941   5.768 -0.3531  0.4269 -0.5962
  429MOL0     C57842  11.753   5.956   5.917 -0.0153 -0.1108 -0.9137
  429MOL0     C57843  11.875   6.049   5.945 -0.4484 -0.4209  0.0185
  429MOL0     C57844  11.854   6.194   5.912  0.8411 -0.4366 -0.8117
  429MOL0     C57845  11.799   6.305   5.899 -0.3703  0.3846 -0.8288
  429MOL0     C57846  11.376   5.808   5.511  0.2062 -0.3410  0.5271
  429MOL0     C57847  11.248   5.746   5.480  0.1539 -0.4758 -0.9966
  429MOL0     H57848  10.825   5.741   5.267  2.9449 -0.9286 -1.1403
  429MOL0     H57849  10.624   5.647   5.166 -3.1039 -1.0147  1.7963
  429MOL0     H57850  10.513   5.502   5.050 -0.8305 -0.0692 -0.2887
  429MOL0     H57851  10.602   5.364   4.991  0.4276  2.7222 -2.0905
  429MOL0     H57852  10.319   5.351   5.104  2.9491  1.1495  2.2845
  429MOL0     H57853  10.360   5.371   4.931 -1.1291 -2.9837 -1.0652
  429MOL0     H57854  10.503   5.149   5.085  0.8788  0.5812  0.7452
  429MOL0     H57855  10.333   5.112   5.080  0.0285  0.6411 -1.0528
  429MOL0     H57856  10.313   5.134   4.843  0.4126  0.1899  0.7458
  429MOL0     H57857  10.480   5.186   4.828 -0.5343  0.4967  0.0705
  429MOL0     H57858  10.445   4.936   4.768  0.6874 -2.0298  1.2736
  429MOL0     H57859  10.562   4.957   4.898  0.1534 -2.4317  0.4837
  429MOL0     H57860  10.407   4.766   4.948  2.2083  1.0937 -2.7264
  429MOL0     H57861  10.386   4.891   5.071  3.2402  0.6273 -0.3843
  429MOL0     H57862  10.162   4.941   4.974 -3.1799 -1.1419 -0.6761
  429MOL0     H57863  10.210   4.877   4.823  1.4005 -0.1406 -0.0518
  429MOL0     H57864  10.197   4.719   5.087  2.0197  0.0629 -0.3930
  429MOL0     H57865  10.221   4.640   4.936 -2.3404 -1.7083 -0.9292
  429MOL0     H57866  10.028   4.504   4.866 -0.3063 -0.2284  1.7681
  429MOL0     H57867   9.803   4.460   4.781 -0.1857 -1.4572  0.8006
  429MOL0     H57868   9.685   4.511   4.910 -0.9609  1.3565 -0.3378
  429MOL0     H57869   9.629   4.707   4.760  0.3175 -0.4212 -0.1475
  429MOL0     H57870   9.567   4.537   4.720  1.9453 -2.0500 -0.7678
  429MOL0     H57871   9.744   4.517   4.543  2.1616 -0.3914  1.1119
  429MOL0     H57872   9.812   4.668   4.598  0.1332  1.4842 -6.8522
  429MOL0     H57873   9.682   4.699   4.396 -1.5375 -0.8842 -0.6284
  429MOL0     H57874   9.623   4.790   4.541 -0.9692  0.3719  0.0206
  429MOL0     H57875   9.588   4.649   4.212 -1.1506  0.4443 -1.4015
  429MOL0     H57876   9.431   4.519   3.915  2.1072 -3.0647 -0.6087
  429MOL0     H57877   9.480   4.679   3.974  2.3907 -0.7798 -1.4788
  429MOL0     H57878   9.596   4.547   3.974  0.0118  0.0834  2.2773
  429MOL0     H57879   9.141   4.429   3.786 -0.6402  1.2362 -0.6083
  429MOL0     H57880   9.008   4.314   3.612 -2.6367 -0.2831 -0.4722
  429MOL0     H57881   8.650   4.058   3.716  2.4405 -0.1230 -0.0304
  429MOL0     H57882   8.589   4.212   3.735  0.8661 -0.5019  1.4996
  429MOL0     H57883   8.588   4.060   3.479  0.4084 -0.8804  1.3076
  429MOL0     H57884   8.447   4.114   3.570  1.2441  0.8516  0.8079
  429MOL0     H57885   8.651   4.297   3.435 -0.2550  1.1071 -1.6432
  429MOL0     H57886   8.517   4.346   3.542  1.6680  0.4406 -0.2214
  429MOL0     H57887   8.484   4.179   3.283 -0.8740 -1.1766  0.8704
  429MOL0     H57888   8.365   4.225   3.397  1.2605 -1.7016  0.5940
  429MOL0     H57889   8.468   4.479   3.332  0.6201 -0.2666 -0.6823
  429MOL0     H57890   8.370   4.409   3.213 -0.3728  2.0728  0.9156
  429MOL0     H57891   8.600   4.493   3.128  1.3026 -1.2951 -0.2394
  429MOL0     H57892   8.674   4.377   3.222 -2.3869  0.5673  1.9406
  429MOL0     H57893   8.478   4.308   2.983  0.8873 -0.2072 -1.7270
  429MOL0     H57894   8.576   4.189   3.061  0.5340  0.7596 -0.0974
  429MOL0     H57895   8.666   4.435   2.900  3.0963  2.2379  1.6930
  429MOL0     H57896   8.666   4.270   2.840  1.0519  2.7468 -1.5177
  429MOL0     H57897   8.720   4.197   3.917 -0.6974  0.8508 -1.9033
  429MOL0     H57898   8.870   4.294   4.087  3.3177 -2.2409  0.8207
  429MOL0     H57899   9.164   4.401   4.293  0.1946 -0.6883  1.1012
  429MOL0     H57900   9.277   4.516   4.483 -2.0967 -1.7086 -0.1727
  429MOL0     H57901  10.745   5.260   5.310  2.2451 -1.2628 -0.0891
  429MOL0     H57902  10.934   5.349   5.420 -0.3711  0.0372  1.2474
  429MOL0     H57903  11.244   5.508   5.720 -2.5902 -0.1067 -1.7810
  429MOL0     H57904  11.438   5.619   5.790 -2.5714 -1.0963  1.7272
  429MOL0     H57905  11.545   5.823   5.831 -0.0167 -0.4435 -0.4325
  429MOL0     H57906  11.673   5.719   5.788 -0.0777 -0.5263  0.9121
  429MOL0     H57907  11.673   6.032   5.728 -0.9894 -0.3694 -1.6997
  429MOL0     H57908  11.810   5.927   5.709  0.3407  6.4731 -1.5653
  429MOL0     H57909  11.778   5.859   5.962  0.2060  0.2775 -0.2011
  429MOL0     H57910  11.667   5.998   5.969  0.7346  2.2845 -1.4974
  429MOL0     H57911  11.967   6.010   5.901 -0.4644 -0.6589  0.1889
  429MOL0     H57912  11.882   6.041   6.054  0.0214 -2.2651 -0.1132
  429MOL0     H57913  11.750   6.398   5.881 -0.5933  0.1166 -1.6244
  429MOL0     H57914  11.415   5.895   5.460 -0.7123 -0.0655  0.2709
  429MOL0     H57915  11.193   5.784   5.395  0.9304 -2.3020 -2.3965
  430MOL0     O57916   5.893   0.188   1.501  0.4002  0.3016  0.2209
  430MOL0     C57917   5.923   0.154   1.611  0.2848 -0.5453 -0.0158
  430MOL0     O57918   5.852   0.190   1.723 -0.0937  0.5393  0.1200
  430MOL0     C57919   5.744   0.274   1.713 -0.4154 -0.5935 -0.0053
  430MOL0     C57920   5.623   0.239   1.777 -0.3681  0.4717  0.3830
  430MOL0     C57921   5.514   0.325   1.763  0.2747  0.7619 -0.2438
  430MOL0     C57922   5.511   0.435   1.682 -0.0212  0.3289 -0.0913
  430MOL0     O57923   5.405   0.516   1.662  0.0954 -0.4822  0.0910
  430MOL0     C57924   5.272   0.459   1.634 -0.7832 -0.2648  0.8219
  430MOL0     C57925   5.185   0.569   1.592  0.5615  0.7483 -0.5915
  430MOL0     C57926   5.048   0.501   1.561 -0.1426 -0.2176 -0.0314
  430MOL0     C57927   4.921   0.573   1.594  0.4429 -0.1339  0.0898
  430MOL0     C57928   4.810   0.490   1.546  0.0166 -0.2658  0.2008
  430MOL0     C57929   4.664   0.543   1.574 -0.7043  0.2313  0.7201
  430MOL0     C57930   4.644   0.679   1.508 -0.4607 -0.8476 -0.5330
  430MOL0     C57931   4.519   0.741   1.570 -0.1103 -0.8655  0.9290
  430MOL0     N57932   4.407   0.694   1.493  0.0047  0.1857 -0.0118
  430MOL0     C57933   4.313   0.774   1.430 -0.0772  0.0532  0.6315
  430MOL0     C57934   4.220   0.687   1.390 -0.1321  0.3406 -0.0077
  430MOL0     C57935   4.120   0.707   1.291  0.1950 -0.1031  1.4187
  430MOL0     C57936   3.969   0.730   1.341  0.3152 -0.1042 -0.7565
  430MOL0     C57937   3.900   0.599   1.381 -0.6316 -0.2794 -0.1684
  430MOL0     C57938   3.775   0.630   1.465 -0.2370 -0.5217  1.3270
  430MOL0     O57939   3.669   0.687   1.376 -0.1742 -0.4969 -0.2117
  430MOL0     C57940   3.535   0.707   1.419 -0.4539 -0.0225  0.2156
  430MOL0     C57941   3.513   0.707   1.553 -0.4374  0.1457 -0.0672
  430MOL0     C57942   3.385   0.725   1.601  0.4519  0.2303 -0.1553
  430MOL0     C57943   3.365   0.729   1.753 -0.3550  0.0874  0.9482
  430MOL0     C57944   3.282   0.758   1.512  0.5647 -0.2500 -0.4315
  430MOL0     C57945   3.149   0.799   1.555 -0.0570  0.1670 -1.1378
  430MOL0     O57946   3.059   0.842   1.464  0.3169  0.2259 -0.0002
  430MOL0     C57947   2.922   0.834   1.502  0.2911 -0.3262 -0.1610
  430MOL0     C57948   2.837   0.773   1.405  0.1031  0.2245  0.4342
  430MOL0     C57949   2.698   0.776   1.418 -0.5095  0.2667  0.0840
  430MOL0     C57950   2.637   0.823   1.533  0.0629 -0.1156  0.1651
  430MOL0     O57951   2.505   0.799   1.542 -0.3762  0.0305 -0.2780
  430MOL0     C57952   2.441   0.867   1.652 -0.2094  0.3857  0.5359
  430MOL0     C57953   2.289   0.846   1.626  0.5303 -0.2984 -0.2294
  430MOL0     C57954   2.190   0.938   1.704  0.9898 -0.4920  0.0166
  430MOL0     C57955   2.114   0.862   1.818 -0.2263 -0.9181 -0.3911
  430MOL0     C57956   1.998   0.948   1.870 -0.8323  0.8551  0.5073
  430MOL0     C57957   1.868   0.925   1.791  0.6186  0.1406  0.3505
  430MOL0     C57958   1.746   1.017   1.808  0.1817 -0.3639  0.1798
  430MOL0     C57959   1.708   1.053   1.947 -0.0913  0.3551 -0.0925
  430MOL0    Cl57960   1.563   1.149   1.952 -0.0643  0.3495 -0.1209
  430MOL0     C57961   2.722   0.891   1.622 -0.1363 -0.0027 -0.1371
  430MOL0     C57962   2.857   0.896   1.609  0.1259  0.1753  0.3972
  430MOL0     O57963   3.117   0.775   1.673  0.5598  0.2931  0.2924
  430MOL0     C57964   3.301   0.755   1.376 -0.1670  0.5820  0.3364
  430MOL0     C57965   3.432   0.722   1.335 -0.5200  0.0216  0.2552
  430MOL0     N57966   4.253   0.558   1.426  0.3357  0.4251 -0.5723
  430MOL0     N57967   4.360   0.568   1.494 -0.0383  0.1311  0.1302
  430MOL0     C57968   5.634   0.473   1.627  0.3443  0.9954  0.0533
  430MOL0     C57969   5.752   0.397   1.645  0.0608 -0.0893  0.8020
  430MOL0     C57970   6.052   0.077   1.622 -0.1333 -0.4201 -0.0927
  430MOL0     C57971   6.163   0.071   1.526 -0.0784 -0.3174 -0.5184
  430MOL0     C57972   6.265  -0.021   1.555 -0.2706  0.7213 -0.5100
  430MOL0     C57973   6.271  -0.090   1.676  0.2177  0.5294  1.5092
  430MOL0     O57974   6.386  -0.163   1.695  1.1216  0.0846 -0.1989
  430MOL0     C57975   6.397  -0.232   1.822  0.5697  0.2254 -0.0922
  430MOL0     C57976   6.522  -0.320   1.825 -0.1676 -0.6062 -0.5145
  430MOL0     C57977   6.653  -0.230   1.805  0.1188  0.1526  0.1566
  430MOL0     C57978   6.778  -0.301   1.782 -0.7038  0.7514 -0.7594
  430MOL0     C57979   6.800  -0.419   1.864  0.6031  0.1348  0.3339
  430MOL0     C57980   6.816  -0.533   1.910 -0.9679  1.4260  0.1043
  430MOL0     C57981   6.168  -0.091   1.763  0.7026  0.3832  0.1707
  430MOL0     C57982   6.057  -0.001   1.736  0.0886  0.4356  0.2312
  430MOL0     H57983   5.609   0.154   1.843 -2.1477  1.4977  1.3902
  430MOL0     H57984   5.427   0.302   1.824  2.3247  2.4612  3.7527
  430MOL0     H57985   5.280   0.386   1.553  0.2456  0.1318  0.5577
  430MOL0     H57986   5.228   0.417   1.725  2.9532 -0.6178  2.6252
  430MOL0     H57987   5.180   0.632   1.681  4.0528  0.9166 -0.3780
  430MOL0     H57988   5.221   0.637   1.514  0.5603  1.7699  0.2745
  430MOL0     H57989   5.042   0.471   1.455  0.5297 -1.0491  0.1535
  430MOL0     H57990   5.045   0.401   1.605 -3.1407 -0.7231 -1.0907
  430MOL0     H57991   4.913   0.604   1.699 -2.5084  2.0794 -0.6610
  430MOL0     H57992   4.924   0.665   1.535 -0.9291 -0.5912 -0.7299
  430MOL0     H57993   4.809   0.461   1.440 -2.7365  2.4445 -0.6673
  430MOL0     H57994   4.801   0.398   1.603 -2.1269 -0.2173 -0.0030
  430MOL0     H57995   4.592   0.471   1.535  0.3401 -0.0847 -0.7038
  430MOL0     H57996   4.648   0.542   1.682 -1.6371  0.8854  0.5993
  430MOL0     H57997   4.727   0.748   1.529 -0.6458 -0.4790 -1.0089
  430MOL0     H57998   4.634   0.652   1.403 -6.4797 -0.3360 -0.4006
  430MOL0     H57999   4.519   0.850   1.563  1.0686 -0.8160  1.4608
  430MOL0     H58000   4.512   0.720   1.677 -0.1872  0.8252  1.2896
  430MOL0     H58001   4.320   0.879   1.403  0.1311 -0.3375 -0.8813
  430MOL0     H58002   4.152   0.799   1.239 -1.2410  0.4868  1.5226
  430MOL0     H58003   4.121   0.632   1.211  1.8552  1.0351  0.2852
  430MOL0     H58004   3.910   0.787   1.268 -0.5711 -1.1030 -0.8368
  430MOL0     H58005   3.964   0.793   1.430 -2.3967 -0.1471 -0.7974
  430MOL0     H58006   3.973   0.538   1.436  0.0626  0.1351 -0.6130
  430MOL0     H58007   3.875   0.560   1.282  0.2221  3.4115 -1.9975
  430MOL0     H58008   3.795   0.711   1.535 -0.5532  1.0242 -0.2891
  430MOL0     H58009   3.738   0.540   1.515 -0.9533 -0.4845  0.8872
  430MOL0     H58010   3.597   0.689   1.620 -0.6268 -2.4776 -0.4343
  430MOL0     H58011   3.304   0.646   1.790  1.6973 -1.2306  1.5440
  430MOL0     H58012   3.461   0.697   1.794 -0.6676 -1.5186  0.4957
  430MOL0     H58013   3.340   0.828   1.792  0.6801  0.0509  1.7388
  430MOL0     H58014   2.887   0.727   1.320 -1.0057  1.7959 -1.1349
  430MOL0     H58015   2.637   0.729   1.342 -1.5845 -0.8337  1.5426
  430MOL0     H58016   2.463   0.824   1.750 -0.4762  0.6575  0.7146
  430MOL0     H58017   2.468   0.973   1.652  0.7601  0.1494  0.5316
  430MOL0     H58018   2.265   0.868   1.522  1.1662  0.6323 -0.1868
  430MOL0     H58019   2.253   0.748   1.659  0.2832  0.3045  1.3952
  430MOL0     H58020   2.115   0.981   1.638  3.1351 -0.0428 -2.2965
  430MOL0     H58021   2.246   1.025   1.740  0.1257  0.6545 -1.3181
  430MOL0     H58022   2.086   0.758   1.797 -0.2931 -1.0473  0.3141
  430MOL0     H58023   2.190   0.862   1.897 -1.9217 -2.5646  1.3541
  430MOL0     H58024   2.025   1.054   1.861 -0.6770  0.7914  0.2092
  430MOL0     H58025   1.987   0.929   1.977  0.6461 -1.6048  0.3054
  430MOL0     H58026   1.897   0.910   1.687  0.0655 -2.1580  0.4568
  430MOL0     H58027   1.838   0.823   1.818  0.3335 -0.0752 -0.7326
  430MOL0     H58028   1.656   0.966   1.772 -1.2486  0.5212  2.2581
  430MOL0     H58029   1.775   1.112   1.763  0.7968 -0.5338  0.2062
  430MOL0     H58030   1.792   1.105   1.995 -0.2670  0.8824 -0.3450
  430MOL0     H58031   1.696   0.962   2.005 -0.8587  1.4485  1.5340
  430MOL0     H58032   2.683   0.947   1.706  0.3093  0.2184 -0.0716
  430MOL0     H58033   2.912   0.950   1.686 -0.3046  2.4959 -0.8162
  430MOL0     H58034   3.226   0.769   1.299  0.1588  1.1811  0.1147
  430MOL0     H58035   3.449   0.703   1.229 -1.1010  1.1340 -0.0441
  430MOL0     H58036   5.641   0.566   1.571 -0.3503  1.0061 -0.0308
  430MOL0     H58037   5.846   0.421   1.597 -1.0939  2.9390 -0.2110
  430MOL0     H58038   6.164   0.134   1.437 -1.0454 -1.0722 -1.0842
  430MOL0     H58039   6.348  -0.038   1.487 -0.3113  0.5944 -0.5283
  430MOL0     H58040   6.407  -0.168   1.910  0.2238 -0.7510  0.6643
  430MOL0     H58041   6.307  -0.291   1.843  0.3051  0.9864  0.9793
  430MOL0     H58042   6.521  -0.398   1.748 -1.7783 -0.1733 -0.9615
  430MOL0     H58043   6.524  -0.369   1.923  0.4336 -0.8032 -0.6210
  430MOL0     H58044   6.662  -0.159   1.888  0.1121 -1.8322  1.9179
  430MOL0     H58045   6.631  -0.162   1.722  0.0123 -0.4082 -0.2819
  430MOL0     H58046   6.860  -0.232   1.802 -1.7965  1.3414  2.1804
  430MOL0     H58047   6.784  -0.318   1.674  1.6782  1.7976 -0.8526
  430MOL0     H58048   6.823  -0.632   1.950 -2.0213  1.4612  0.3905
  430MOL0     H58049   6.148  -0.146   1.854  1.2154 -1.4389 -0.7665
  430MOL0     H58050   5.974  -0.006   1.806 -0.7954 -3.0761 -0.8440
  431MOL0     O58051   6.337  10.691   0.025 -0.3523 -0.2584  0.1973
  431MOL0     C58052   6.395  10.582   0.041  0.0348 -0.8125 -0.3782
  431MOL0     O58053   6.344  10.461   0.008  0.2710  0.5025  0.0375
  431MOL0     C58054   6.216  10.447  -0.049 -0.0913  0.6652 -0.6873
  431MOL0     C58055   6.100  10.525  -0.022 -0.2487 -0.0915 -0.4042
  431MOL0     C58056   5.980  10.495  -0.092 -0.3063  0.2732  0.6448
  431MOL0     C58057   5.973  10.387  -0.184 -0.5452 -0.6952  0.2113
  431MOL0     O58058   5.852  10.369  -0.247 -0.2611 -0.0541  0.6649
  431MOL0     C58059   5.838  10.272  -0.354  0.0057 -0.2449 -0.4857
  431MOL0     C58060   5.692  10.284  -0.402  0.6936  0.4653 -0.0933
  431MOL0     C58061   5.683  10.221  -0.537  0.5420  0.5801 -1.0226
  431MOL0     C58062   5.534  10.239  -0.580  0.3578  0.8869  0.7998
  431MOL0     C58063   5.519  10.217  -0.731  1.0197 -0.8198 -0.3185
  431MOL0     C58064   5.431  10.096  -0.759 -0.2927  0.7015  0.0455
  431MOL0     C58065   5.288  10.094  -0.725 -0.7230  0.0916 -0.5374
  431MOL0     C58066   5.222  10.212  -0.800 -0.4283  0.1183 -0.4555
  431MOL0     N58067   5.084  10.212  -0.752 -0.5810 -0.0626 -0.5343
  431MOL0     C58068   4.998  10.314  -0.769  0.1758 -1.0693 -0.1522
  431MOL0     C58069   4.883  10.284  -0.696  0.0006 -0.8206  0.4748
  431MOL0     C58070   4.769  10.371  -0.680  0.4553  0.4750 -0.2294
  431MOL0     C58071   4.649  10.329  -0.764  0.6670 -0.1843  0.2752
  431MOL0     C58072   4.662  10.348  -0.917 -0.0000  0.6127 -0.4080
  431MOL0     C58073   4.691  10.494  -0.963 -1.0627 -0.7634  0.4952
  431MOL0     O58074   4.608  10.573  -0.884  0.1222  0.2504 -0.6405
  431MOL0     C58075   4.496  10.622  -0.953  0.1576  0.8102 -1.0280
  431MOL0     C58076   4.408  10.537  -1.028 -0.1895  0.9537  0.2224
  431MOL0     C58077   4.286  10.590  -1.078 -0.6298  1.0834  0.1242
  431MOL0     C58078   4.199  10.500  -1.161  0.4532 -0.8273  0.3074
  431MOL0     C58079   4.252  10.722  -1.045  0.5045  0.1162  0.4528
  431MOL0     C58080   4.145  10.804  -1.114  0.3981 -0.5300  0.7654
  431MOL0     O58081   4.104  10.748  -1.230  0.3192  0.5706 -0.1693
  431MOL0     C58082   3.989  10.782  -1.294 -1.0631  0.4609  0.4718
  431MOL0     C58083   3.865  10.834  -1.242 -0.3252  0.6635  0.4111
  431MOL0     C58084   3.754  10.857  -1.316  0.1980  0.4235 -0.4985
  431MOL0     C58085   3.756  10.824  -1.447 -1.4766 -0.0553 -0.2806
  431MOL0     O58086   3.646  10.854  -1.522 -0.1784  0.3817 -0.0323
  431MOL0     C58087   3.631  10.808  -1.659 -0.3412  0.3918 -0.4851
  431MOL0     C58088   3.487  10.832  -1.712  0.9592 -0.0135  0.3099
  431MOL0     C58089   3.421  10.955  -1.645  0.1939  0.1293  0.8543
  431MOL0     C58090   3.271  10.976  -1.692  0.6540  0.6033 -0.5799
  431MOL0     C58091   3.200  11.089  -1.615  0.0174 -1.1538  1.1449
  431MOL0     C58092   3.061  11.114  -1.681 -0.1510 -0.4583 -0.0381
  431MOL0     C58093   2.995  11.240  -1.626  0.3885  0.3457  0.1920
  431MOL0     C58094   2.862  11.257  -1.696  0.5000 -0.8220  0.4130
  431MOL0    Cl58095   2.827  11.444  -1.668 -0.5040  0.3217  0.2366
  431MOL0     C58096   3.868  10.760  -1.505 -0.0732 -1.0020 -0.5677
  431MOL0     C58097   3.980  10.742  -1.429  0.3197 -0.0313  0.2441
  431MOL0     O58098   4.098  10.909  -1.067 -0.4146 -0.8896  0.4148
  431MOL0     C58099   4.337  10.805  -0.962 -0.5303 -0.3862 -0.2826
  431MOL0     C58100   4.456  10.751  -0.915  0.7386 -0.4203  0.9676
  431MOL0     N58101   4.900  10.154  -0.651 -0.0454 -0.3663 -0.3696
  431MOL0     N58102   5.016  10.113  -0.691  0.4441  0.2351 -0.4416
  431MOL0     C58103   6.084  10.311  -0.201  0.8071 -0.5017  0.6013
  431MOL0     C58104   6.203  10.341  -0.146 -0.7827 -0.1992 -0.2343
  431MOL0     C58105   6.527  10.570   0.100 -1.1536 -0.7730  0.7106
  431MOL0     C58106   6.597  10.446   0.095  0.2521  0.1159 -0.6937
  431MOL0     C58107   6.721  10.433   0.146  0.4225 -0.0716 -0.1744
  431MOL0     C58108   6.794  10.546   0.179  0.3578 -1.3502  0.5916
  431MOL0     O58109   6.932  10.549   0.209  0.2239 -0.0701  0.6281
  431MOL0     C58110   6.956  10.600   0.340 -0.1001 -0.4480  0.3596
  431MOL0     C58111   7.094  10.544   0.384  0.0862  0.1774  0.6784
  431MOL0     C58112   7.083  10.397   0.427  0.9626  0.5803  0.0291
  431MOL0     C58113   7.224  10.337   0.437 -0.4789 -0.4736 -0.1809
  431MOL0     C58114   7.225  10.212   0.511  0.2007 -0.0971 -0.0229
  431MOL0     C58115   7.235  10.110   0.573  0.0840  0.2190  0.3111
  431MOL0     C58116   6.727  10.669   0.190  0.1504 -0.1451 -0.2943
  431MOL0     C58117   6.593  10.686   0.147 -0.1459 -1.0442 -0.7499
  431MOL0     H58118   6.102  10.604   0.053  2.5117  0.8849 -1.3883
  431MOL0     H58119   5.898  10.562  -0.068 -0.9545  0.2377 -1.2759
  431MOL0     H58120   5.896  10.299  -0.443 -1.1961  0.0425 -1.2140
  431MOL0     H58121   5.862  10.168  -0.329  0.2005 -0.1184 -0.1349
  431MOL0     H58122   5.620  10.238  -0.334 -0.2148  2.0263  0.0436
  431MOL0     H58123   5.671  10.391  -0.408  3.1149  1.2700  2.9545
  431MOL0     H58124   5.752  10.268  -0.608  0.7078 -1.1539 -2.0683
  431MOL0     H58125   5.704  10.113  -0.533 -1.1923  0.1634 -2.1510
  431MOL0     H58126   5.484  10.158  -0.526 -0.3214  1.8682  1.6741
  431MOL0     H58127   5.485  10.332  -0.550 -1.4198  0.5656 -0.8594
  431MOL0     H58128   5.491  10.310  -0.780 -2.6175 -1.6017 -0.0217
  431MOL0     H58129   5.614  10.185  -0.775  1.3807  2.1241 -1.9104
  431MOL0     H58130   5.432  10.086  -0.868 -0.6619  0.1976  0.0869
  431MOL0     H58131   5.475  10.010  -0.708 -1.0715  0.4721  0.3371
  431MOL0     H58132   5.239   9.998  -0.745 -0.2768 -0.4818  0.9637
  431MOL0     H58133   5.276  10.091  -0.616 -0.7716 -1.4764 -0.5602
  431MOL0     H58134   5.236  10.201  -0.908  0.9414 -0.3433 -0.2487
  431MOL0     H58135   5.271  10.304  -0.768 -0.7195 -0.5147  2.0409
  431MOL0     H58136   5.016  10.402  -0.830 -2.9108 -0.1414  0.0730
  431MOL0     H58137   4.741  10.359  -0.575 -0.0825  0.2502 -0.3952
  431MOL0     H58138   4.803  10.471  -0.709 -2.2206  1.3171 -0.7403
  431MOL0     H58139   4.562  10.386  -0.729 -0.7358  0.7036 -4.0675
  431MOL0     H58140   4.625  10.224  -0.745  3.3835 -0.9012  0.2079
  431MOL0     H58141   4.570  10.312  -0.963  0.1158  1.4151 -1.2965
  431MOL0     H58142   4.740  10.282  -0.955  2.9260  5.0904 -3.0205
  431MOL0     H58143   4.671  10.499  -1.071  3.8578  1.7988 -0.5972
  431MOL0     H58144   4.792  10.525  -0.937 -2.0011  2.2746  0.8728
  431MOL0     H58145   4.444  10.436  -1.049 -0.0558  1.2212 -0.9139
  431MOL0     H58146   4.098  10.518  -1.123  0.8211  1.2697  0.3887
  431MOL0     H58147   4.200  10.514  -1.269  0.8712  1.4273  0.5625
  431MOL0     H58148   4.236  10.398  -1.146 -0.7020 -1.2072  0.7281
  431MOL0     H58149   3.865  10.856  -1.135  2.0085  1.0374  0.3789
  431MOL0     H58150   3.673  10.910  -1.265  0.1646 -1.0235  1.0358
  431MOL0     H58151   3.691  10.868  -1.728 -0.4330  0.2181 -0.7144
  431MOL0     H58152   3.655  10.702  -1.671  4.0879  1.1858 -0.3319
  431MOL0     H58153   3.495  10.839  -1.821  2.6958 -0.3349  0.3843
  431MOL0     H58154   3.423  10.745  -1.695 -0.6858  0.9553 -0.6629
  431MOL0     H58155   3.475  11.042  -1.684  2.9776 -1.4643  0.9224
  431MOL0     H58156   3.424  10.943  -1.536 -0.0547 -0.1275  0.8325
  431MOL0     H58157   3.278  11.004  -1.797 -0.8911  0.7884 -0.6625
  431MOL0     H58158   3.208  10.890  -1.667 -0.5453  2.1148  2.0950
  431MOL0     H58159   3.255  11.182  -1.626 -0.7096 -0.6540  1.6530
  431MOL0     H58160   3.194  11.063  -1.508 -1.1078 -2.6581  0.7619
  431MOL0     H58161   3.083  11.123  -1.788 -0.9268 -3.2297 -0.5212
  431MOL0     H58162   2.995  11.026  -1.680  0.1730 -0.7223 -1.0780
  431MOL0     H58163   3.066  11.323  -1.635 -0.2615  0.9094  0.2324
  431MOL0     H58164   2.963  11.235  -1.521 -0.4521  1.6680  0.0188
  431MOL0     H58165   2.790  11.195  -1.643 -0.5640  0.0270  0.0076
  431MOL0     H58166   2.864  11.231  -1.803 -1.6265 -2.7668  0.7607
  431MOL0     H58167   3.865  10.729  -1.609 -0.9958 -0.5464 -0.6925
  431MOL0     H58168   4.070  10.695  -1.466  0.8133  1.7099 -0.9045
  431MOL0     H58169   4.302  10.901  -0.924  1.1178  0.0220  0.2580
  431MOL0     H58170   4.526  10.804  -0.851  1.0398 -0.2508  0.5019
  431MOL0     H58171   6.089  10.224  -0.266 -0.5193  0.6319 -1.0856
  431MOL0     H58172   6.290  10.279  -0.167  0.1068  0.6646  0.7467
  431MOL0     H58173   6.543  10.354   0.076 -0.7228  0.1163  1.6313
  431MOL0     H58174   6.767  10.335   0.157  0.1251 -0.0493  1.6880
  431MOL0     H58175   6.962  10.708   0.350 -3.6089 -0.2258  1.5367
  431MOL0     H58176   6.886  10.560   0.415  2.4191 -3.0313  1.5397
  431MOL0     H58177   7.128  10.604   0.469  0.8066 -1.5104  1.6334
  431MOL0     H58178   7.172  10.561   0.309  0.0039 -1.8399  0.0697
  431MOL0     H58179   7.026  10.339   0.355  1.5245 -0.5076  0.4443
  431MOL0     H58180   7.033  10.398   0.525  2.6872 -1.5450  1.0278
  431MOL0     H58181   7.296  10.407   0.480  0.1968 -0.8940 -0.6001
  431MOL0     H58182   7.266  10.316   0.338  3.2732 -0.9361  1.3487
  431MOL0     H58183   7.273  10.034   0.638  4.0541  1.6875 -0.0106
  431MOL0     H58184   6.775  10.762   0.219 -0.7936  0.3613 -0.2976
  431MOL0     H58185   6.542  10.782   0.145 -1.3489 -1.5802  1.4637
  432MOL0     O58186   3.809   9.054   1.416  0.8667 -0.3199 -0.1625
  432MOL0     C58187   3.851   9.154   1.481  1.0017  0.4455  0.1439
  432MOL0     O58188   3.784   9.272   1.483  0.5696  0.1778 -0.2704
  432MOL0     C58189   3.684   9.291   1.385 -1.5261  0.5937 -0.1766
  432MOL0     C58190   3.552   9.279   1.416 -0.2697  0.2270  0.5768
  432MOL0     C58191   3.456   9.302   1.324  0.1180  0.3315 -0.5012
  432MOL0     C58192   3.492   9.351   1.199 -0.7884 -0.2200  0.0346
  432MOL0     O58193   3.390   9.403   1.116  0.6794 -0.5847  0.2156
  432MOL0     C58194   3.427   9.410   0.979  0.2542 -0.7187 -0.6621
  432MOL0     C58195   3.297   9.434   0.909  0.5793  0.3599  0.0513
  432MOL0     C58196   3.178   9.341   0.950 -0.0427  0.9295  0.5379
  432MOL0     C58197   3.077   9.338   0.838  0.2750  0.2126 -0.2465
  432MOL0     C58198   2.950   9.264   0.876 -0.5170  0.9765  0.3539
  432MOL0     C58199   2.859   9.270   0.747 -0.1673  0.7034  0.4730
  432MOL0     C58200   2.721   9.212   0.772  0.1112 -0.5325 -0.1229
  432MOL0     C58201   2.636   9.305   0.853 -0.3319  0.8065  0.0216
  432MOL0     N58202   2.493   9.281   0.847 -0.0812  0.3818 -0.7442
  432MOL0     C58203   2.428   9.176   0.912  1.6564 -0.1498 -0.2807
  432MOL0     C58204   2.308   9.160   0.847  0.1422 -0.3665  0.1917
  432MOL0     C58205   2.199   9.058   0.865  0.6371  0.1887  0.0335
  432MOL0     C58206   2.108   9.089   0.979  0.5003 -0.1455 -0.1126
  432MOL0     C58207   2.001   8.988   1.001 -0.9601  0.1019 -0.3480
  432MOL0     C58208   1.864   9.056   0.980 -0.1024  0.3530 -0.2082
  432MOL0     O58209   1.768   8.948   1.020  0.0534  0.6159 -0.2465
  432MOL0     C58210   1.637   8.978   1.047 -0.2416  0.1063  1.0084
  432MOL0     C58211   1.562   9.082   0.990 -0.0833 -0.3761  0.4441
  432MOL0     C58212   1.429   9.096   1.016 -0.5666 -0.4168 -0.5748
  432MOL0     C58213   1.360   9.212   0.958  0.2692  0.4038  0.5343
  432MOL0     C58214   1.360   9.001   1.089  0.1505  0.0578  0.2897
  432MOL0     C58215   1.213   8.993   1.117  0.2631 -0.3975  0.6142
  432MOL0     O58216   1.159   8.863   1.132  0.4915 -1.1222 -0.1190
  432MOL0     C58217   1.026   8.835   1.173 -0.1128 -0.1684  0.7254
  432MOL0     C58218   0.916   8.927   1.177  0.6870 -0.4872  0.5267
  432MOL0     C58219   0.787   8.897   1.226  0.4434  0.4255 -0.4421
  432MOL0     C58220   0.768   8.769   1.275  0.5619 -0.0563 -0.5171
  432MOL0     O58221   0.645   8.749   1.329  0.1017  0.4680  0.8901
  432MOL0     C58222   0.572   8.630   1.279 -0.4936  0.2040  0.6857
  432MOL0     C58223   0.430   8.632   1.327  0.1296  0.3820 -0.1205
  432MOL0     C58224   0.348   8.747   1.274 -0.9698 -1.3042  0.2499
  432MOL0     C58225   0.199   8.699   1.289  0.4344  0.1294  0.0738
  432MOL0     C58226   0.102   8.811   1.236  0.2067 -0.8487  0.2331
  432MOL0     C58227  -0.042   8.777   1.238  0.2626 -0.8353 -0.2172
  432MOL0     C58228  -0.131   8.903   1.248  0.2678  0.3719  0.2393
  432MOL0     C58229  -0.271   8.855   1.300  0.4668  0.1618  0.0483
  432MOL0    Cl58230  -0.337   8.746   1.179  0.3240  0.0550  0.3028
  432MOL0     C58231   0.869   8.673   1.269  0.0579  0.6047 -0.4128
  432MOL0     C58232   1.001   8.709   1.224  0.2166 -0.5594 -0.1215
  432MOL0     O58233   1.146   9.098   1.120 -0.4123  0.8295  0.5235
  432MOL0     C58234   1.436   8.891   1.139 -0.7302  0.2808 -0.5444
  432MOL0     C58235   1.571   8.885   1.115 -0.2400 -0.4199  0.9297
  432MOL0     N58236   2.306   9.244   0.733  0.2392  0.2394 -1.1002
  432MOL0     N58237   2.418   9.318   0.739  0.2540  0.1852  0.3452
  432MOL0     C58238   3.627   9.351   1.156  0.0506  0.7938  0.0036
  432MOL0     C58239   3.725   9.323   1.251  0.1955  0.9101 -0.3738
  432MOL0     C58240   3.987   9.140   1.540 -0.3187  0.3570 -0.0673
  432MOL0     C58241   4.042   9.242   1.623  0.2414 -0.2973  0.1966
  432MOL0     C58242   4.140   9.210   1.713 -0.3165  0.3225 -0.4348
  432MOL0     C58243   4.207   9.088   1.703  0.3685  0.7000 -0.1664
  432MOL0     O58244   4.313   9.080   1.790  0.4904 -0.1820  0.0573
  432MOL0     C58245   4.385   8.957   1.789 -0.6294 -0.1390 -1.0282
  432MOL0     C58246   4.527   8.974   1.852 -0.1633  0.0962 -0.4281
  432MOL0     C58247   4.546   9.114   1.908 -0.2204 -1.0723 -0.9709
  432MOL0     C58248   4.494   9.133   2.049  0.7974 -0.4491 -0.3997
  432MOL0     C58249   4.571   9.056   2.143  0.3103 -0.8566 -0.0313
  432MOL0     C58250   4.650   8.989   2.209 -0.1692  0.5380  0.3663
  432MOL0     C58251   4.160   8.992   1.608 -0.1939  1.3668 -0.3755
  432MOL0     C58252   4.057   9.019   1.525  0.1313  1.2556 -0.0034
  432MOL0     H58253   3.510   9.247   1.511 -1.7956  3.4017  1.1198
  432MOL0     H58254   3.355   9.302   1.363  0.4513  0.5823  0.3894
  432MOL0     H58255   3.491   9.497   0.963 -0.6788  0.5339  1.8519
  432MOL0     H58256   3.462   9.316   0.935  3.6535  1.1888 -2.4494
  432MOL0     H58257   3.268   9.535   0.938  1.1682  0.1601  1.4198
  432MOL0     H58258   3.306   9.417   0.801  1.7999 -0.7026  0.2917
  432MOL0     H58259   3.208   9.241   0.985  4.4079  2.3053  1.3558
  432MOL0     H58260   3.127   9.384   1.037 -0.5491 -0.5950  1.0331
  432MOL0     H58261   3.049   9.442   0.818 -2.8236 -0.6926 -1.0908
  432MOL0     H58262   3.115   9.292   0.746  0.2224  1.9312 -1.1764
  432MOL0     H58263   2.964   9.160   0.905 -4.0360  1.2193  3.7094
  432MOL0     H58264   2.908   9.315   0.963 -0.9727  1.1313  0.0479
  432MOL0     H58265   2.841   9.375   0.722  0.2315  1.0519  1.5980
  432MOL0     H58266   2.907   9.223   0.661  0.5433  0.5976  0.9193
  432MOL0     H58267   2.668   9.199   0.678 -0.0606 -0.3760 -0.0491
  432MOL0     H58268   2.722   9.118   0.828  0.6301  1.7087  4.0847
  432MOL0     H58269   2.654   9.410   0.827  1.6723  0.9096  1.5902
  432MOL0     H58270   2.665   9.293   0.957 -1.8155  2.9067  0.7466
  432MOL0     H58271   2.468   9.127   1.000  0.4447  1.7501  1.4421
  432MOL0     H58272   2.139   9.053   0.774  0.9312  0.8819 -0.2032
  432MOL0     H58273   2.243   8.960   0.886  0.5023  0.0322 -0.4018
  432MOL0     H58274   2.067   9.187   0.953  2.7532  0.9903  0.3893
  432MOL0     H58275   2.163   9.116   1.069  0.4675  3.7970 -1.0649
  432MOL0     H58276   2.008   8.940   1.099 -0.5850  2.0233  0.6341
  432MOL0     H58277   2.017   8.918   0.919  0.6437 -0.6094  0.5267
  432MOL0     H58278   1.851   9.079   0.874 -0.0922 -4.0681 -1.3763
  432MOL0     H58279   1.874   9.145   1.043  0.8527 -1.1101  1.8195
  432MOL0     H58280   1.619   9.147   0.925 -0.6880 -0.4611 -0.1891
  432MOL0     H58281   1.313   9.278   1.032  1.5830  0.2210  1.5601
  432MOL0     H58282   1.427   9.268   0.892 -3.4118  1.6453 -2.5554
  432MOL0     H58283   1.277   9.174   0.897 -0.6055  0.1032  1.8801
  432MOL0     H58284   0.928   9.023   1.129 -0.1938  0.0167  1.2950
  432MOL0     H58285   0.700   8.962   1.237 -0.9846 -1.3111 -0.9687
  432MOL0     H58286   0.571   8.621   1.170 -0.2511 -0.7476  0.7575
  432MOL0     H58287   0.618   8.535   1.306 -0.0666  0.4530  0.8571
  432MOL0     H58288   0.392   8.534   1.297  1.8050 -0.6218  0.8988
  432MOL0     H58289   0.440   8.632   1.436 -1.3617 -0.6066  0.0469
  432MOL0     H58290   0.371   8.762   1.169  1.1006  0.2069  0.8652
  432MOL0     H58291   0.370   8.843   1.321  1.2371 -1.4749 -0.3448
  432MOL0     H58292   0.180   8.599   1.249  0.9522  0.3003 -0.6194
  432MOL0     H58293   0.168   8.691   1.393 -1.3050  0.3436 -0.3949
  432MOL0     H58294   0.129   8.835   1.133 -1.0397 -0.5694 -0.0330
  432MOL0     H58295   0.115   8.906   1.289 -3.5320  0.3147 -0.6934
  432MOL0     H58296  -0.064   8.722   1.146 -0.3564  0.6422 -0.9859
  432MOL0     H58297  -0.053   8.719   1.330 -0.5386 -1.2641 -0.5683
  432MOL0     H58298  -0.151   8.945   1.149 -1.4209 -0.8704  0.0112
  432MOL0     H58299  -0.090   8.970   1.324  0.8865  1.6617 -1.1739
  432MOL0     H58300  -0.348   8.933   1.308 -0.0733 -0.4255  0.8186
  432MOL0     H58301  -0.258   8.802   1.395  0.5509  1.0580  0.5398
  432MOL0     H58302   0.846   8.577   1.314  3.0040  0.4203  0.8744
  432MOL0     H58303   1.085   8.639   1.223 -0.6401 -1.6098 -0.5796
  432MOL0     H58304   1.387   8.810   1.192  0.3924 -2.5735 -3.5406
  432MOL0     H58305   1.640   8.807   1.146  0.7274  0.7835  1.8939
  432MOL0     H58306   3.664   9.374   1.057 -0.1584 -0.7949 -0.4708
  432MOL0     H58307   3.827   9.292   1.229 -0.8531 -3.7455  0.2551
  432MOL0     H58308   3.990   9.338   1.628 -1.4568 -1.1572 -0.0470
  432MOL0     H58309   4.157   9.286   1.788 -2.0133 -1.4635  1.8936
  432MOL0     H58310   4.334   8.876   1.842 -1.0193  0.9515  0.3512
  432MOL0     H58311   4.404   8.929   1.685 -0.7889 -2.7161 -0.4316
  432MOL0     H58312   4.604   8.966   1.774  1.4046  2.1685  0.7971
  432MOL0     H58313   4.536   8.902   1.934  0.4780  0.5985 -0.0417
  432MOL0     H58314   4.509   9.183   1.832  2.8515 -0.2272 -1.8391
  432MOL0     H58315   4.652   9.144   1.904 -0.2671 -1.0044 -3.7692
  432MOL0     H58316   4.390   9.102   2.053  0.9771 -1.2643 -1.5229
  432MOL0     H58317   4.516   9.238   2.071  0.1787 -0.0612 -1.6091
  432MOL0     H58318   4.713   8.916   2.255 -1.0148 -0.1544  0.4631
  432MOL0     H58319   4.202   8.892   1.606  1.1734  1.7365  3.0603
  432MOL0     H58320   4.033   8.939   1.456 -0.0267  0.0905  1.3428
  433MOL0     O58321  11.108   9.123  11.196 -0.3402  0.9033  0.5564
  433MOL0     C58322  11.111   9.090  11.078  0.2638  0.3085  0.5413
  433MOL0     O58323  10.999   9.077  10.995 -0.0693 -0.1385 -0.3392
  433MOL0     C58324  10.874   9.067  11.047  0.3197 -0.5280 -0.3729
  433MOL0     C58325  10.780   9.107  10.965  1.2588 -0.1223 -0.4723
  433MOL0     C58326  10.647   9.075  10.995 -0.4754 -0.2314  0.0733
  433MOL0     C58327  10.626   9.024  11.122  0.5566 -0.4499  0.1178
  433MOL0     O58328  10.503   8.997  11.177 -0.8040  0.3007  0.1923
  433MOL0     C58329  10.394   9.063  11.124  0.4479 -0.1182  0.4884
  433MOL0     C58330  10.269   9.005  11.195 -0.0208 -0.3025 -0.7116
  433MOL0     C58331  10.173   9.124  11.221 -0.2809  0.5719 -0.3746
  433MOL0     C58332  10.102   9.173  11.091  0.1486 -0.5440 -0.4630
  433MOL0     C58333   9.965   9.110  11.056 -0.4171  0.1907  1.4176
  433MOL0     C58334   9.892   9.170  10.933  0.0894  0.4808 -0.8043
  433MOL0     C58335   9.847   9.314  10.963  0.8397  0.6782  0.3429
  433MOL0     C58336   9.738   9.317  11.073  0.0746 -0.3141 -0.1722
  433MOL0     N58337   9.632   9.219  11.052  0.1459 -0.0046  0.0391
  433MOL0     C58338   9.561   9.199  10.934 -0.4766  0.6383 -0.2249
  433MOL0     C58339   9.473   9.100  10.953  0.2026 -0.6302  0.2571
  433MOL0     C58340   9.398   9.009  10.861  0.0588 -0.5330 -0.5838
  433MOL0     C58341   9.341   9.084  10.743  0.2728 -0.6834  0.0726
  433MOL0     C58342   9.247   8.994  10.668  0.7153 -0.3237  0.0281
  433MOL0     C58343   9.331   8.890  10.595 -0.0255  0.0745 -0.1254
  433MOL0     O58344   9.304   8.894  10.448 -0.5867  0.2455 -0.1401
  433MOL0     C58345   9.394   8.835  10.362 -0.2045 -0.0034 -0.4409
  433MOL0     C58346   9.493   8.755  10.403 -0.6094  0.4380  0.0518
  433MOL0     C58347   9.578   8.680  10.304 -0.6525 -0.7908 -0.8805
  433MOL0     C58348   9.686   8.590  10.349  0.0770  0.9910 -0.3165
  433MOL0     C58349   9.551   8.698  10.167  0.7197 -0.3088  0.8503
  433MOL0     C58350   9.635   8.650  10.050 -0.0952 -0.1820  0.4641
  433MOL0     O58351   9.740   8.568  10.074 -0.4624 -0.0578  0.6600
  433MOL0     C58352   9.841   8.580   9.987  0.7995 -0.3831 -0.2197
  433MOL0     C58353   9.933   8.686  10.004  0.5786 -0.6047 -0.0836
  433MOL0     C58354  10.047   8.682   9.926 -0.1214 -0.3641 -0.5557
  433MOL0     C58355  10.064   8.582   9.827  0.2372  0.2215 -0.2600
  433MOL0     O58356  10.175   8.564   9.757 -0.6635 -0.3745  0.6594
  433MOL0     C58357  10.291   8.642   9.783  0.8683  0.0331 -0.1795
  433MOL0     C58358  10.414   8.573   9.714  0.1230  0.7586 -0.5851
  433MOL0     C58359  10.539   8.651   9.758 -0.4290  0.4056 -0.2537
  433MOL0     C58360  10.666   8.600   9.693  0.0343 -0.1261  0.1646
  433MOL0     C58361  10.787   8.690   9.729 -0.5479  0.1872 -0.6193
  433MOL0     C58362  10.914   8.622   9.685  0.6925 -0.1578 -0.5635
  433MOL0     C58363  11.035   8.706   9.705  0.0386  0.4435  0.8306
  433MOL0     C58364  11.156   8.617   9.673 -0.5268 -0.5660 -1.4648
  433MOL0    Cl58365  11.181   8.473   9.793 -0.1012 -0.5715  0.0899
  433MOL0     C58366   9.967   8.484   9.805  0.6518 -0.2076 -0.0117
  433MOL0     C58367   9.855   8.484   9.883 -0.2212 -0.0165 -0.5457
  433MOL0     O58368   9.608   8.709   9.949  0.2036 -0.0092  0.3076
  433MOL0     C58369   9.440   8.775  10.125 -0.5799 -0.1567 -0.0029
  433MOL0     C58370   9.363   8.849  10.227 -0.1408  0.9234  0.5163
  433MOL0     N58371   9.494   9.072  11.086  0.2064  0.7014  0.1065
  433MOL0     N58372   9.579   9.142  11.144  0.4925  0.0378  0.1112
  433MOL0     C58373  10.724   8.987  11.205 -1.2018  0.1321  0.6185
  433MOL0     C58374  10.853   9.006  11.169 -0.1634  0.0493 -0.6597
  433MOL0     C58375  11.245   9.070  11.022  0.7918 -0.0910  0.0585
  433MOL0     C58376  11.360   9.094  11.091 -0.7186  0.3721  0.7346
  433MOL0     C58377  11.491   9.059  11.051  0.3953  0.5082  0.7963
  433MOL0     C58378  11.507   8.999  10.929 -0.5212 -0.5648  0.1026
  433MOL0     O58379  11.635   8.970  10.905 -0.1498  0.1231  0.7020
  433MOL0     C58380  11.674   8.830  10.930  0.5320  0.1049 -0.0449
  433MOL0     C58381  11.829   8.793  10.913 -0.6372 -0.3995  0.1542
  433MOL0     C58382  11.847   8.643  10.941 -0.3750 -0.0785  0.0579
  433MOL0     C58383  11.897   8.594  11.079 -0.4998 -0.3702 -0.2131
  433MOL0     C58384  12.024   8.649  11.122  0.6690  0.1272 -0.8671
  433MOL0     C58385  12.119   8.709  11.166  0.3924 -0.1440  0.0111
  433MOL0     C58386  11.402   8.981  10.841  0.0550  0.3483 -0.6320
  433MOL0     C58387  11.270   9.015  10.889 -0.1583 -0.2710  0.8097
  433MOL0     H58388  10.810   9.154  10.873  2.4905  0.4655  0.2029
  433MOL0     H58389  10.573   9.100  10.920  1.3517  0.2270 -1.6489
  433MOL0     H58390  10.413   9.166  11.153 -1.3892 -0.1233  1.9079
  433MOL0     H58391  10.383   9.062  11.015  2.0018  2.1459  0.2626
  433MOL0     H58392  10.227   8.920  11.142 -0.6071  0.6970 -1.9192
  433MOL0     H58393  10.308   8.977  11.293  0.2216  0.3371 -0.6150
  433MOL0     H58394  10.096   9.092  11.292  0.8501 -1.8126 -0.1293
  433MOL0     H58395  10.220   9.209  11.272  0.1224 -1.5283  3.0676
  433MOL0     H58396  10.074   9.278  11.103  0.3698  0.1637 -4.6638
  433MOL0     H58397  10.174   9.165  11.009  2.2035 -0.6556  1.2289
  433MOL0     H58398   9.992   9.008  11.027 -0.6419  0.1189  1.4556
  433MOL0     H58399   9.898   9.109  11.143 -2.7784  1.3412 -0.2639
  433MOL0     H58400   9.964   9.168  10.851 -0.9727 -0.1789 -1.7443
  433MOL0     H58401   9.808   9.106  10.904 -1.5263  2.2634 -0.2869
  433MOL0     H58402   9.932   9.380  10.983 -0.4384  2.4971 -0.0285
  433MOL0     H58403   9.792   9.350  10.876 -2.8989  1.2687  2.6908
  433MOL0     H58404   9.702   9.418  11.091  1.6683  0.4275 -0.9741
  433MOL0     H58405   9.790   9.289  11.165 -1.2696  0.7998  0.9635
  433MOL0     H58406   9.576   9.239  10.834 -1.7322  0.7855 -0.3742
  433MOL0     H58407   9.463   8.926  10.830 -0.4558 -0.1876 -2.7285
  433MOL0     H58408   9.320   8.966  10.925  1.5296  1.1154  2.5844
  433MOL0     H58409   9.410   9.132  10.673 -0.3021 -0.5247 -0.3997
  433MOL0     H58410   9.281   9.169  10.777 -1.4694 -1.0198 -1.9367
  433MOL0     H58411   9.177   9.050  10.605 -0.7972 -1.3903  0.6841
  433MOL0     H58412   9.177   8.940  10.732  2.4746 -0.5123  1.9041
  433MOL0     H58413   9.303   8.793  10.638  0.9471  0.2090  0.8429
  433MOL0     H58414   9.437   8.912  10.608 -0.6084  1.9266  2.3686
  433MOL0     H58415   9.504   8.731  10.508 -0.4155 -0.0601 -0.0757
  433MOL0     H58416   9.689   8.490  10.306  1.9879  0.6787  0.4562
  433MOL0     H58417   9.775   8.642  10.314  1.0238 -0.5403 -0.2719
  433MOL0     H58418   9.679   8.587  10.458 -0.6855  1.3731 -0.3453
  433MOL0     H58419   9.908   8.764  10.075  2.2097 -0.6258  0.5600
  433MOL0     H58420  10.133   8.744   9.948 -0.4264 -0.1897  0.1415
  433MOL0     H58421  10.262   8.745   9.759 -0.7851 -0.2808  0.3377
  433MOL0     H58422  10.308   8.645   9.891  1.2651  1.2166 -0.2521
  433MOL0     H58423  10.433   8.470   9.747  1.5137  0.1457 -2.9787
  433MOL0     H58424  10.397   8.580   9.606 -1.2048 -3.1316 -0.7972
  433MOL0     H58425  10.536   8.651   9.867 -2.0105  2.6193 -0.2283
  433MOL0     H58426  10.533   8.753   9.720  0.0843  1.5589  2.5193
  433MOL0     H58427  10.683   8.494   9.716  1.1955  0.3848  1.8228
  433MOL0     H58428  10.660   8.598   9.583 -0.9965 -1.2144  0.2204
  433MOL0     H58429  10.792   8.721   9.834  0.7758 -1.9463  0.0149
  433MOL0     H58430  10.770   8.780   9.669 -0.9752 -0.5792 -1.6709
  433MOL0     H58431  10.929   8.538   9.754  2.1282  1.0492  0.6774
  433MOL0     H58432  10.899   8.586   9.583 -4.6147  1.3632 -0.6487
  433MOL0     H58433  11.040   8.741   9.808 -0.0955  0.9398  0.6704
  433MOL0     H58434  11.032   8.791   9.636 -0.0695 -0.4491 -0.2878
  433MOL0     H58435  11.247   8.676   9.689 -1.3279  0.3159  0.1490
  433MOL0     H58436  11.156   8.596   9.566  0.3867  0.0440 -1.5926
  433MOL0     H58437   9.984   8.420   9.719 -0.8502  0.1609 -0.6202
  433MOL0     H58438   9.773   8.412   9.877 -1.3407  1.1744  0.0720
  433MOL0     H58439   9.395   8.787  10.027 -0.5657  2.9326  0.2711
  433MOL0     H58440   9.276   8.899  10.185 -0.5210 -1.2124 -1.4287
  433MOL0     H58441  10.695   8.944  11.300 -0.5847 -1.1237  0.2684
  433MOL0     H58442  10.926   8.969  11.240 -0.3970  1.3542  0.2910
  433MOL0     H58443  11.358   9.140  11.189  0.3080 -1.6510  1.7825
  433MOL0     H58444  11.576   9.102  11.102  1.3420  1.1042 -1.1737
  433MOL0     H58445  11.634   8.803  11.028  1.5019 -0.2257  0.2785
  433MOL0     H58446  11.627   8.758  10.862  2.3687  0.7812 -2.1496
  433MOL0     H58447  11.897   8.842  10.982  1.1582 -1.4554 -0.7957
  433MOL0     H58448  11.862   8.811  10.810  0.9607 -2.1904  0.3081
  433MOL0     H58449  11.913   8.598  10.866  0.1678  0.2831  0.3146
  433MOL0     H58450  11.751   8.592  10.923  0.5504 -1.4495 -1.1934
  433MOL0     H58451  11.919   8.488  11.063 -0.9970 -0.3439 -1.1417
  433MOL0     H58452  11.825   8.615  11.159  2.3484  1.6484  1.9997
  433MOL0     H58453  12.199   8.760  11.215 -0.1193 -0.3763  1.1442
  433MOL0     H58454  11.420   8.937  10.744 -1.7649 -0.7395 -0.5200
  433MOL0     H58455  11.194   9.006  10.813  0.5403  1.6472 -0.1916
  434MOL0     O58456   4.733   9.783   3.837  0.3842 -0.3530 -0.2391
  434MOL0     C58457   4.767   9.702   3.925 -0.1098 -0.1653 -0.1623
  434MOL0     O58458   4.691   9.615   3.993  0.3457 -0.4987 -0.0121
  434MOL0     C58459   4.561   9.598   3.950  0.0446  0.3459 -0.4442
  434MOL0     C58460   4.515   9.471   3.979  0.9804 -0.2957 -0.0724
  434MOL0     C58461   4.383   9.438   3.950 -0.2211 -0.5951 -1.2853
  434MOL0     C58462   4.290   9.536   3.904 -0.7307  0.3884  0.1171
  434MOL0     O58463   4.159   9.512   3.874  0.0208 -0.0415  0.0741
  434MOL0     C58464   4.108   9.388   3.821 -0.7136 -0.3017 -0.6928
  434MOL0     C58465   3.962   9.362   3.858  0.1169 -0.4683 -0.9245
  434MOL0     C58466   3.854   9.465   3.822 -0.5598  0.3079  0.7631
  434MOL0     C58467   3.718   9.389   3.838  0.7798 -0.7597  0.1749
  434MOL0     C58468   3.600   9.483   3.883  0.1198 -0.1777 -0.0557
  434MOL0     C58469   3.474   9.386   3.901  0.3879 -0.0881 -0.3327
  434MOL0     C58470   3.337   9.469   3.938  0.4629 -0.3029  0.2835
  434MOL0     C58471   3.231   9.359   3.968 -0.6287 -0.4630  0.6746
  434MOL0     N58472   3.178   9.311   3.845  0.3160  0.4789  0.0914
  434MOL0     C58473   3.118   9.389   3.756 -0.0407 -0.5597  0.1506
  434MOL0     C58474   3.078   9.302   3.662 -0.5163  0.4937  0.0551
  434MOL0     C58475   2.994   9.336   3.546 -0.2527 -0.2599 -0.4502
  434MOL0     C58476   2.925   9.212   3.475 -0.1336 -1.0319 -0.0789
  434MOL0     C58477   2.849   9.117   3.577 -0.0116 -0.1584 -0.0035
  434MOL0     C58478   2.795   8.987   3.508  0.6776 -0.7897  0.4136
  434MOL0     O58479   2.717   8.908   3.605  0.7252  0.1632 -0.2903
  434MOL0     C58480   2.579   8.898   3.595 -1.6986 -0.2310  0.1648
  434MOL0     C58481   2.514   8.797   3.658  0.5524  0.7842 -1.0786
  434MOL0     C58482   2.369   8.785   3.641 -0.6608  0.6773 -0.3680
  434MOL0     C58483   2.296   8.649   3.686  0.9519 -0.1512  0.2895
  434MOL0     C58484   2.300   8.891   3.592 -0.7183 -0.1554 -0.5834
  434MOL0     C58485   2.158   8.913   3.602 -0.4673  0.2396  0.7744
  434MOL0     O58486   2.106   9.021   3.538  0.2870 -0.9986 -0.1495
  434MOL0     C58487   1.980   9.057   3.566  0.1282 -0.6266  0.6978
  434MOL0     C58488   1.878   8.999   3.486 -0.6008  0.3385 -0.4982
  434MOL0     C58489   1.745   9.034   3.509  0.0151 -0.2320  0.2457
  434MOL0     C58490   1.711   9.135   3.607 -0.5307 -0.1538 -0.4096
  434MOL0     O58491   1.576   9.162   3.634 -0.7029 -0.2290  0.5135
  434MOL0     C58492   1.536   9.291   3.687 -0.4088 -0.2016 -0.4947
  434MOL0     C58493   1.381   9.314   3.685  0.2383 -0.3373 -0.2629
  434MOL0     C58494   1.328   9.352   3.543 -0.1062  0.1255 -0.2113
  434MOL0     C58495   1.175   9.366   3.552  0.5956 -0.3590 -0.3654
  434MOL0     C58496   1.118   9.336   3.417 -0.1085 -0.2872  0.1837
  434MOL0     C58497   0.972   9.305   3.434 -0.8857 -0.5259  0.8485
  434MOL0     C58498   0.907   9.291   3.297  0.1704  0.0863  0.5832
  434MOL0     C58499   0.770   9.226   3.288  0.1665  0.3738 -0.0898
  434MOL0    Cl58500   0.720   9.210   3.122 -0.0443 -0.5850  0.0466
  434MOL0     C58501   1.814   9.190   3.690  0.5301  0.7480  0.0080
  434MOL0     C58502   1.948   9.154   3.662  0.1127 -0.6481  0.1025
  434MOL0     O58503   2.092   8.837   3.671 -0.0209  0.1014  0.6134
  434MOL0     C58504   2.374   8.993   3.532  0.1005  0.1651  1.0566
  434MOL0     C58505   2.511   8.993   3.527  0.4124  0.0589  0.0301
  434MOL0     N58506   3.146   9.174   3.684  0.2498 -0.0455 -0.4711
  434MOL0     N58507   3.188   9.182   3.805 -0.1892  1.1598 -0.1807
  434MOL0     C58508   4.335   9.666   3.893  0.1012  0.5140  0.0292
  434MOL0     C58509   4.468   9.701   3.910 -0.0497  0.8867 -0.0621
  434MOL0     C58510   4.913   9.710   3.955  0.6943  0.4091 -0.2347
  434MOL0     C58511   5.010   9.760   3.869  0.2672 -0.5864  0.9627
  434MOL0     C58512   5.144   9.768   3.913 -0.5167  0.8817  0.1051
  434MOL0     C58513   5.185   9.713   4.033 -0.4287  0.1103 -1.1425
  434MOL0     O58514   5.314   9.719   4.081  0.2646  0.1184  0.1200
  434MOL0     C58515   5.414   9.678   3.986 -0.0424  0.0895  0.0047
  434MOL0     C58516   5.465   9.534   4.019  0.0996  1.1942 -0.9481
  434MOL0     C58517   5.382   9.455   4.130 -0.6485  0.4117 -0.1473
  434MOL0     C58518   5.422   9.311   4.149  0.4545  0.0295  0.2395
  434MOL0     C58519   5.410   9.237   4.016  0.8089  0.3718  0.4928
  434MOL0     C58520   5.411   9.183   3.906  0.1255  0.2998  0.9807
  434MOL0     C58521   5.096   9.655   4.114 -0.3973 -0.0634  0.1006
  434MOL0     C58522   4.960   9.651   4.079  0.5792  0.3123 -0.1753
  434MOL0     H58523   4.574   9.394   4.027 -2.9147 -2.7527  1.2369
  434MOL0     H58524   4.356   9.338   3.981 -1.4286  0.5247  1.5598
  434MOL0     H58525   4.125   9.390   3.712  2.3344 -2.0897 -0.3774
  434MOL0     H58526   4.168   9.304   3.856  0.8292  0.1568 -2.0339
  434MOL0     H58527   3.930   9.266   3.816 -1.1571 -0.4110 -0.1504
  434MOL0     H58528   3.956   9.348   3.966  0.1031  0.2048 -0.8328
  434MOL0     H58529   3.858   9.544   3.897 -2.7437  0.3877  0.8743
  434MOL0     H58530   3.874   9.509   3.723  4.6522 -0.1117  1.4011
  434MOL0     H58531   3.699   9.358   3.734  1.6741  3.6405 -1.5509
  434MOL0     H58532   3.739   9.312   3.912  1.3719 -0.7968 -0.0319
  434MOL0     H58533   3.629   9.526   3.979  3.0697  1.2017 -1.4408
  434MOL0     H58534   3.578   9.569   3.819 -2.3126 -0.1504  0.7294
  434MOL0     H58535   3.453   9.329   3.810  3.0529  3.0656 -3.2082
  434MOL0     H58536   3.498   9.322   3.986  1.5669  1.0072  0.1810
  434MOL0     H58537   3.357   9.521   4.032  0.3789  2.8732 -1.3381
  434MOL0     H58538   3.307   9.538   3.859  1.5475  1.7013  1.5304
  434MOL0     H58539   3.150   9.406   4.024 -0.5482  3.5375 -2.1726
  434MOL0     H58540   3.266   9.271   4.023 -0.4638 -1.4485 -0.9458
  434MOL0     H58541   3.101   9.496   3.753  1.6937 -0.0397  3.8186
  434MOL0     H58542   2.921   9.412   3.574  2.0773  3.0642 -2.7159
  434MOL0     H58543   3.056   9.395   3.478  0.3425  1.7502  1.7147
  434MOL0     H58544   2.995   9.145   3.423 -0.0126 -1.5143  0.6867
  434MOL0     H58545   2.858   9.255   3.400  3.3758  0.6255 -2.5319
  434MOL0     H58546   2.763   9.172   3.616 -1.1070 -0.1294 -2.2385
  434MOL0     H58547   2.913   9.090   3.661 -2.0217  0.3554  1.7713
  434MOL0     H58548   2.880   8.922   3.487  0.6525 -1.7510  2.8981
  434MOL0     H58549   2.755   9.012   3.410  0.2113  0.6501  0.9408
  434MOL0     H58550   2.567   8.714   3.703 -0.8413  0.0138 -0.7961
  434MOL0     H58551   2.375   8.578   3.710  1.2059 -0.1031 -0.3883
  434MOL0     H58552   2.230   8.666   3.772 -0.5719 -1.9240 -0.4538
  434MOL0     H58553   2.239   8.606   3.603  1.9350 -0.3623 -0.2949
  434MOL0     H58554   1.901   8.923   3.412 -4.1291 -1.0541 -0.3479
  434MOL0     H58555   1.675   8.992   3.437  2.5359 -0.9462 -1.9691
  434MOL0     H58556   1.579   9.325   3.782  1.8932  2.1896 -2.2295
  434MOL0     H58557   1.572   9.366   3.615 -1.4157 -2.0437 -3.0547
  434MOL0     H58558   1.328   9.224   3.719 -2.0506  0.8950 -0.3275
  434MOL0     H58559   1.344   9.393   3.751  1.4170  0.3169 -0.3644
  434MOL0     H58560   1.358   9.276   3.470  0.8257  0.0343  0.2527
  434MOL0     H58561   1.374   9.441   3.499  0.0106 -0.4239 -1.2546
  434MOL0     H58562   1.126   9.300   3.624 -1.4723 -1.4034 -2.6318
  434MOL0     H58563   1.139   9.461   3.594  0.7813  0.7499 -2.5854
  434MOL0     H58564   1.168   9.254   3.365  0.7997  1.5483 -2.0705
  434MOL0     H58565   1.127   9.424   3.352  2.0892 -1.0585 -0.6806
  434MOL0     H58566   0.956   9.213   3.490 -4.9865 -0.4391  0.1309
  434MOL0     H58567   0.916   9.378   3.493 -1.8752 -0.7833  0.2491
  434MOL0     H58568   0.979   9.247   3.227  1.8344 -0.3425  2.4655
  434MOL0     H58569   0.901   9.395   3.264 -0.0455  0.0829  0.6106
  434MOL0     H58570   0.699   9.287   3.345 -0.2189 -1.2843  1.2982
  434MOL0     H58571   0.763   9.122   3.323  0.5357  0.5588  0.5551
  434MOL0     H58572   1.794   9.260   3.770  1.5858 -0.3605  1.2892
  434MOL0     H58573   2.027   9.194   3.725  0.4090 -0.4096 -0.4071
  434MOL0     H58574   2.324   9.080   3.490 -0.7494 -0.0009  1.7057
  434MOL0     H58575   2.557   9.077   3.476 -0.9721  1.7197  1.4008
  434MOL0     H58576   4.267   9.745   3.861 -1.2933 -0.2104  1.0884
  434MOL0     H58577   4.502   9.804   3.905  2.2318  0.1632 -0.4712
  434MOL0     H58578   4.988   9.795   3.769  0.1189 -1.0490  0.8310
  434MOL0     H58579   5.215   9.807   3.841  1.3839  0.4239  1.6428
  434MOL0     H58580   5.372   9.660   3.887  0.8377 -1.3684 -0.1305
  434MOL0     H58581   5.492   9.755   3.975  0.0043 -0.2067 -2.2135
  434MOL0     H58582   5.569   9.552   4.049  0.3384 -1.6896  0.2607
  434MOL0     H58583   5.456   9.480   3.924  1.0129 -0.0034 -0.3699
  434MOL0     H58584   5.276   9.442   4.103 -1.2762  2.8871  0.8755
  434MOL0     H58585   5.393   9.512   4.223  1.0377  0.0515 -0.0952
  434MOL0     H58586   5.352   9.262   4.217 -1.0187  0.6608 -0.7731
  434MOL0     H58587   5.528   9.304   4.174  0.7029  0.3637 -0.6828
  434MOL0     H58588   5.415   9.135   3.811 -2.4156  0.3352  0.7687
  434MOL0     H58589   5.140   9.600   4.196 -0.5431  0.6754  0.6862
  434MOL0     H58590   4.895   9.589   4.139  0.1779 -2.0799 -2.8375
  435MOL0     O58591   2.186   6.382   3.931 -0.1657 -0.0895 -0.5312
  435MOL0     C58592   2.249   6.324   4.024  0.2005 -0.2275 -0.2769
  435MOL0     O58593   2.216   6.203   4.076 -0.0017 -0.0267 -0.2523
  435MOL0     C58594   2.094   6.151   4.056  0.4586  0.0605 -0.5525
  435MOL0     C58595   2.077   6.009   4.047  0.3036 -0.7323 -0.8848
  435MOL0     C58596   1.944   5.964   4.055  0.4411  0.4719  0.3272
  435MOL0     C58597   1.831   6.051   4.056  0.3270 -0.0954  0.3099
  435MOL0     O58598   1.704   6.011   4.036 -0.3639  0.4035  0.4199
  435MOL0     C58599   1.665   5.903   4.120  0.2956 -0.0566 -0.0938
  435MOL0     C58600   1.520   5.932   4.169  0.1108 -0.6076 -0.9726
  435MOL0     C58601   1.415   5.899   4.068 -0.2179  0.3073 -0.1211
  435MOL0     C58602   1.271   5.943   4.121 -1.2032  0.9172 -0.2337
  435MOL0     C58603   1.153   5.912   4.023 -0.0333 -0.1634 -0.5120
  435MOL0     C58604   1.155   6.007   3.906 -0.0315  0.5824 -0.3313
  435MOL0     C58605   1.021   6.010   3.832 -0.9018  0.0586 -1.0820
  435MOL0     C58606   1.029   6.096   3.699 -0.9245  0.3249 -0.5227
  435MOL0     N58607   1.020   6.238   3.728  0.7896 -0.1824  0.0931
  435MOL0     C58608   1.114   6.317   3.785 -0.2362 -0.6839  0.6057
  435MOL0     C58609   1.056   6.442   3.792  0.1553 -0.2522 -0.4331
  435MOL0     C58610   1.136   6.567   3.840 -0.3292  1.1204  0.5535
  435MOL0     C58611   1.048   6.660   3.921 -0.6161  0.0307  0.3116
  435MOL0     C58612   1.149   6.763   3.987  0.5834 -0.3169  0.1093
  435MOL0     C58613   1.056   6.863   4.069 -0.6960  0.2260 -0.3991
  435MOL0     O58614   1.131   6.973   4.143 -0.3003  0.1305  0.1958
  435MOL0     C58615   1.229   6.927   4.222 -0.8082 -0.1933 -0.3631
  435MOL0     C58616   1.201   6.837   4.330 -0.2676  0.2421  0.2252
  435MOL0     C58617   1.289   6.800   4.434 -0.1206 -0.2156  0.4521
  435MOL0     C58618   1.226   6.707   4.536  0.0945 -0.0112 -0.1039
  435MOL0     C58619   1.419   6.847   4.428 -0.0021  0.4297 -0.4073
  435MOL0     C58620   1.527   6.814   4.531 -0.6384 -0.0839 -0.2492
  435MOL0     O58621   1.649   6.865   4.511  0.7343  0.1146  0.6330
  435MOL0     C58622   1.754   6.848   4.587 -0.9316 -0.4766  0.3184
  435MOL0     C58623   1.782   6.723   4.642 -0.1381 -0.4799  0.3598
  435MOL0     C58624   1.906   6.710   4.701 -0.1459  0.8021  0.3875
  435MOL0     C58625   2.006   6.812   4.703 -0.8589 -0.2578 -0.5814
  435MOL0     O58626   2.114   6.806   4.794 -0.3707 -0.3138  0.4551
  435MOL0     C58627   2.155   6.678   4.832 -0.3915  0.1529 -0.8190
  435MOL0     C58628   2.291   6.682   4.889  0.2515 -0.4753  0.7360
  435MOL0     C58629   2.367   6.542   4.873  0.5153 -0.6988 -0.0237
  435MOL0     C58630   2.511   6.577   4.907  0.7520  0.0295  0.3092
  435MOL0     C58631   2.592   6.451   4.916 -0.2591 -0.8250 -0.5503
  435MOL0     C58632   2.745   6.478   4.924 -0.0855  0.2091  0.1138
  435MOL0     C58633   2.784   6.543   5.057 -0.2286 -0.1850 -0.6985
  435MOL0     C58634   2.934   6.575   5.056 -0.9867  0.8789  0.0046
  435MOL0    Cl58635   3.002   6.630   5.216 -0.3177 -0.4431  0.5057
  435MOL0     C58636   1.972   6.940   4.651  0.4914 -0.7080  0.4066
  435MOL0     C58637   1.848   6.953   4.590  0.8213  0.0651 -0.3687
  435MOL0     O58638   1.497   6.758   4.638  0.2580  0.7857  0.5479
  435MOL0     C58639   1.450   6.930   4.315  0.6740 -0.4403  0.1223
  435MOL0     C58640   1.363   6.972   4.219  0.5196  0.3333 -0.9159
  435MOL0     N58641   0.925   6.427   3.742 -0.0581  0.3131 -0.0475
  435MOL0     N58642   0.906   6.306   3.702  0.6616 -0.0778 -0.2107
  435MOL0     C58643   1.853   6.187   4.061 -0.4000  0.0336 -0.4807
  435MOL0     C58644   1.985   6.232   4.061 -0.5330 -0.1776 -0.3960
  435MOL0     C58645   2.379   6.385   4.061  0.7122  0.2245 -0.1447
  435MOL0     C58646   2.477   6.297   4.101 -0.1462  0.7502 -0.6698
  435MOL0     C58647   2.610   6.339   4.110 -0.0974  0.0116  0.0045
  435MOL0     C58648   2.650   6.469   4.092 -0.0835  0.1229 -0.3317
  435MOL0     O58649   2.777   6.521   4.115  0.2407 -0.1933  0.4967
  435MOL0     C58650   2.872   6.421   4.164  0.7902 -0.4019  0.1281
  435MOL0     C58651   3.022   6.484   4.168  0.3849  0.7519 -0.6116
  435MOL0     C58652   3.059   6.504   4.022 -0.8244  0.1021  0.9967
  435MOL0     C58653   3.205   6.562   4.022 -0.2105  0.2682  0.2423
  435MOL0     C58654   3.238   6.605   3.884 -0.4534  0.6512  0.7355
  435MOL0     C58655   3.269   6.619   3.769  0.9018  0.3905 -0.0103
  435MOL0     C58656   2.550   6.557   4.064 -0.2198  0.2613 -0.0629
  435MOL0     C58657   2.415   6.520   4.040 -0.1538  0.5972 -0.0617
  435MOL0     H58658   2.158   5.938   4.057 -1.3485 -2.5241  0.5553
  435MOL0     H58659   1.927   5.857   4.048  2.8518  0.1321 -1.9289
  435MOL0     H58660   1.663   5.809   4.063 -0.3247  1.1535 -2.1852
  435MOL0     H58661   1.730   5.887   4.207  1.0508  0.7635 -0.4936
  435MOL0     H58662   1.508   5.876   4.262  0.2922  1.7381  0.5460
  435MOL0     H58663   1.519   6.036   4.205 -0.5644 -1.7926  2.8283
  435MOL0     H58664   1.437   5.955   3.977  1.2511 -0.0104  0.0178
  435MOL0     H58665   1.425   5.791   4.049 -1.5962  0.5471 -2.4959
  435MOL0     H58666   1.262   5.882   4.211  1.4114 -0.4953 -0.8345
  435MOL0     H58667   1.273   6.051   4.138  0.1694  1.1313 -1.4732
  435MOL0     H58668   1.173   5.812   3.984  0.4658 -1.4989  2.8051
  435MOL0     H58669   1.057   5.915   4.075  1.5236  3.1799  2.6749
  435MOL0     H58670   1.172   6.104   3.954  0.5772 -0.9253  2.7596
  435MOL0     H58671   1.236   5.981   3.837  0.2680 -3.1889  1.1985
  435MOL0     H58672   0.999   5.906   3.806  0.6894 -0.5109 -0.3141
  435MOL0     H58673   0.943   6.043   3.902 -1.3046 -2.4972 -0.1987
  435MOL0     H58674   0.957   6.069   3.622 -0.1131 -1.1955 -0.7830
  435MOL0     H58675   1.128   6.093   3.652  0.8457 -0.6548  2.9251
  435MOL0     H58676   1.218   6.292   3.799  0.0306  0.5570  0.9753
  435MOL0     H58677   1.224   6.534   3.896 -2.3355 -1.6395  2.4057
  435MOL0     H58678   1.177   6.631   3.762  1.0013 -0.4681 -0.1064
  435MOL0     H58679   0.997   6.602   3.999 -0.7368  0.1859  0.3484
  435MOL0     H58680   0.977   6.711   3.856  0.7513  2.8547  0.8911
  435MOL0     H58681   1.207   6.816   3.912  0.7875 -0.6448  0.0369
  435MOL0     H58682   1.221   6.714   4.053  0.8294  2.9359  2.5157
  435MOL0     H58683   1.004   6.797   4.139  1.7196 -1.4897 -0.0928
  435MOL0     H58684   0.978   6.903   4.004 -0.5301 -2.6436 -2.5630
  435MOL0     H58685   1.099   6.804   4.341 -0.2327  0.5967  1.9247
  435MOL0     H58686   1.156   6.636   4.492  2.2981 -3.4351  1.4621
  435MOL0     H58687   1.308   6.640   4.562  1.2262  0.0393 -3.1751
  435MOL0     H58688   1.179   6.758   4.621  0.9789 -0.1615  0.4923
  435MOL0     H58689   1.714   6.638   4.635  0.6523 -1.0126 -1.8553
  435MOL0     H58690   1.921   6.629   4.771 -0.5690 -0.2939 -0.7590
  435MOL0     H58691   2.085   6.634   4.904  0.3531 -0.8817 -0.7024
  435MOL0     H58692   2.162   6.612   4.745 -0.2376 -3.3760  1.6371
  435MOL0     H58693   2.342   6.763   4.836  1.2423 -1.6530 -0.1696
  435MOL0     H58694   2.281   6.695   4.997  0.4971 -3.4007  1.1838
  435MOL0     H58695   2.371   6.498   4.773 -2.2172  0.4915 -0.7598
  435MOL0     H58696   2.314   6.476   4.943 -2.5018  0.2097 -1.2836
  435MOL0     H58697   2.545   6.657   4.841 -1.8526  0.9402 -0.0335
  435MOL0     H58698   2.502   6.618   5.008  0.2564  1.2286 -0.1975
  435MOL0     H58699   2.579   6.384   4.831 -2.1987 -1.6321  0.3129
  435MOL0     H58700   2.560   6.395   5.004  2.3760 -0.5749  0.6495
  435MOL0     H58701   2.796   6.381   4.918 -0.4372  0.1256 -2.3880
  435MOL0     H58702   2.776   6.538   4.839 -2.6855  0.5569 -0.6668
  435MOL0     H58703   2.770   6.479   5.144 -0.3525  0.7798  0.0108
  435MOL0     H58704   2.717   6.628   5.076 -1.2133 -1.2709  0.9285
  435MOL0     H58705   2.947   6.658   4.986 -0.4249  2.1780  1.5768
  435MOL0     H58706   2.992   6.490   5.019 -0.2886  2.4671 -2.9435
  435MOL0     H58707   2.046   7.019   4.646 -1.1982  0.8562 -1.0625
  435MOL0     H58708   1.823   7.038   4.528 -0.4152  0.1655  0.2359
  435MOL0     H58709   1.552   6.961   4.294  0.7774 -0.7481  0.1683
  435MOL0     H58710   1.387   7.042   4.140  2.9410  1.0027  0.3282
  435MOL0     H58711   1.759   6.241   4.068 -1.5712 -1.6758 -2.1174
  435MOL0     H58712   2.003   6.338   4.080  1.2060 -0.5590  0.2146
  435MOL0     H58713   2.447   6.193   4.110  0.0179  0.6999 -0.7130
  435MOL0     H58714   2.676   6.264   4.152 -0.6217 -0.6051 -0.2574
  435MOL0     H58715   2.838   6.387   4.262  0.2711  1.0718  0.4816
  435MOL0     H58716   2.875   6.335   4.097 -0.4214  0.4009 -1.0168
  435MOL0     H58717   3.097   6.415   4.208 -1.6098 -1.9985 -1.2930
  435MOL0     H58718   3.024   6.577   4.225 -0.5724  0.8215 -0.6816
  435MOL0     H58719   2.988   6.579   3.988 -1.5958  1.1374  4.5137
  435MOL0     H58720   3.063   6.407   3.971  2.1797 -0.0372  1.2794
  435MOL0     H58721   3.272   6.480   4.048  0.1117  0.2274 -0.6916
  435MOL0     H58722   3.222   6.638   4.099  0.7576 -1.9241  2.3287
  435MOL0     H58723   3.277   6.634   3.663 -0.6129 -1.6157 -0.4655
  435MOL0     H58724   2.583   6.659   4.047  0.3933  0.0498 -0.1348
  435MOL0     H58725   2.346   6.593   3.999  2.5178  1.5242 -3.3841
  436MOL0     O58726   9.959  10.657   3.476  0.0208 -0.6103  0.2841
  436MOL0     C58727  10.013  10.697   3.581  1.0863  0.6332 -0.2070
  436MOL0     O58728   9.948  10.729   3.692 -0.2058 -0.3790  0.2670
  436MOL0     C58729   9.816  10.705   3.695  0.5457 -0.8936  0.0750
  436MOL0     C58730   9.751  10.582   3.671  0.2601 -0.6521 -0.2853
  436MOL0     C58731   9.613  10.567   3.703 -0.0691 -0.0830 -0.5924
  436MOL0     C58732   9.535  10.668   3.748 -0.7756  0.1196  0.0598
  436MOL0     O58733   9.405  10.650   3.782 -0.2009  0.0240 -0.3429
  436MOL0     C58734   9.325  10.752   3.820 -0.0215  0.1662  0.3393
  436MOL0     C58735   9.187  10.692   3.849  0.9451 -0.8589 -0.2807
  436MOL0     C58736   9.192  10.558   3.921 -0.4921 -0.3111  0.6039
  436MOL0     C58737   9.073  10.541   4.017 -0.3984 -0.1978 -0.4627
  436MOL0     C58738   8.938  10.548   3.935  0.5646  0.1216  0.2944
  436MOL0     C58739   8.832  10.477   4.021 -0.6972 -0.2674 -1.1683
  436MOL0     C58740   8.695  10.478   3.967 -0.7043  1.1762  0.3884
  436MOL0     C58741   8.629  10.611   3.981 -0.5228  0.8094  0.7015
  436MOL0     N58742   8.485  10.602   3.958  0.4799 -0.1025 -0.1810
  436MOL0     C58743   8.399  10.505   3.989 -0.3683 -0.0481  0.2445
  436MOL0     C58744   8.283  10.542   3.923 -0.2230  0.4487  0.2290
  436MOL0     C58745   8.155  10.468   3.905  1.0069 -0.2354 -0.9752
  436MOL0     C58746   8.127  10.333   3.969  0.4251  0.9236 -0.0303
  436MOL0     C58747   8.007  10.265   3.909 -0.1825 -0.8692  0.1267
  436MOL0     C58748   7.977  10.134   3.969 -0.0288 -1.1839  0.0984
  436MOL0     O58749   7.911  10.147   4.091  0.1175  0.0818 -0.6705
  436MOL0     C58750   7.776  10.111   4.102  0.7789  0.5246  0.8048
  436MOL0     C58751   7.737  10.040   4.217 -0.2090 -0.1677  0.7340
  436MOL0     C58752   7.605   9.993   4.239  0.2073 -0.5483 -0.2109
  436MOL0     C58753   7.566   9.934   4.377  0.4102 -0.0111  0.3566
  436MOL0     C58754   7.514  10.001   4.132  0.3822  0.2222 -0.3408
  436MOL0     C58755   7.373   9.958   4.154  0.2145 -0.5030 -0.3892
  436MOL0     O58756   7.285  10.032   4.078  0.1660 -0.6313  0.1721
  436MOL0     C58757   7.149  10.002   4.083  0.1442 -0.1613 -0.7360
  436MOL0     C58758   7.055  10.110   4.075 -0.6846  0.0211  0.0899
  436MOL0     C58759   6.921  10.082   4.056  0.1073  0.3591 -0.2173
  436MOL0     C58760   6.880   9.950   4.030  0.1876 -0.4447  0.0785
  436MOL0     O58761   6.749   9.918   3.972  0.0337  0.0307 -0.6631
  436MOL0     C58762   6.646  10.012   3.958  0.0857 -1.2138  0.0769
  436MOL0     C58763   6.525   9.951   3.882  0.3735 -0.2903  0.5529
  436MOL0     C58764   6.580   9.895   3.754 -0.0852  0.3102 -0.4326
  436MOL0     C58765   6.474   9.875   3.640 -0.0416 -0.2452 -0.4494
  436MOL0     C58766   6.374   9.770   3.686 -0.1415  0.7122 -0.6630
  436MOL0     C58767   6.293   9.728   3.558 -0.1559 -0.4290 -0.3403
  436MOL0     C58768   6.213   9.844   3.498  0.2160 -0.6665 -0.1802
  436MOL0     C58769   6.113   9.808   3.393  0.0938 -0.3244 -0.0162
  436MOL0    Cl58770   5.961   9.752   3.468  0.0374  0.3359 -0.1215
  436MOL0     C58771   6.970   9.848   4.044 -0.3682 -0.0384 -0.5871
  436MOL0     C58772   7.100   9.868   4.072  0.2575  0.3564 -0.1638
  436MOL0     O58773   7.344   9.865   4.230 -0.4116  0.2341  0.3230
  436MOL0     C58774   7.557  10.060   4.014  0.1827  0.2704 -0.0512
  436MOL0     C58775   7.677  10.121   4.004  0.4828  0.2047  0.3171
  436MOL0     N58776   8.311  10.658   3.849  0.5778 -0.7358 -0.3796
  436MOL0     N58777   8.423  10.691   3.877 -0.2781  0.8635 -0.2649
  436MOL0     C58778   9.604  10.789   3.768  0.1199 -0.6112  0.7150
  436MOL0     C58779   9.737  10.812   3.743 -0.2549 -0.0644 -0.6137
  436MOL0     C58780  10.158  10.678   3.592  0.0158 -0.0851 -0.5915
  436MOL0     C58781  10.236  10.645   3.482 -0.6038 -0.7749 -0.5681
  436MOL0     C58782  10.385  10.644   3.495  0.1042 -0.3062 -0.2501
  436MOL0     C58783  10.450  10.653   3.617  0.6839 -0.0948 -0.7129
  436MOL0     O58784  10.581  10.647   3.625 -0.3399  0.3008  0.7994
  436MOL0     C58785  10.644  10.696   3.744  0.6636  0.1366  0.3044
  436MOL0     C58786  10.799  10.705   3.739  0.1617 -0.0915  0.2696
  436MOL0     C58787  10.863  10.583   3.670  0.0473  0.0716 -0.4517
  436MOL0     C58788  11.002  10.613   3.640 -1.1844  0.0509 -0.1918
  436MOL0     C58789  11.099  10.566   3.740  0.3744 -0.2502  0.0821
  436MOL0     C58790  11.178  10.536   3.826  0.5910 -0.6595 -0.5021
  436MOL0     C58791  10.361  10.671   3.729  0.0709  0.6620  0.4882
  436MOL0     C58792  10.222  10.694   3.716 -0.0228  0.0062  0.7547
  436MOL0     H58793   9.803  10.491   3.643  1.9568 -1.5331  4.6041
  436MOL0     H58794   9.564  10.470   3.695 -2.6175  1.0855 -0.2255
  436MOL0     H58795   9.371  10.799   3.907  1.2617 -0.0163 -0.2234
  436MOL0     H58796   9.306  10.825   3.741  0.3945 -0.8457 -0.7260
  436MOL0     H58797   9.123  10.756   3.911  1.7302 -1.6499  1.4307
  436MOL0     H58798   9.140  10.674   3.752  0.4480  2.6486 -0.8243
  436MOL0     H58799   9.203  10.477   3.848  3.2940  0.8906 -0.3740
  436MOL0     H58800   9.279  10.556   3.987 -0.6404 -0.6199  0.7905
  436MOL0     H58801   9.080  10.450   4.078 -1.0646 -0.8086 -1.2791
  436MOL0     H58802   9.074  10.610   4.102 -1.4080  1.0743 -1.4316
  436MOL0     H58803   8.912  10.653   3.920 -2.0933 -0.4381  0.4837
  436MOL0     H58804   8.949  10.496   3.839  0.6628  0.2045  0.2601
  436MOL0     H58805   8.863  10.374   4.038 -0.7754  0.1173  1.7335
  436MOL0     H58806   8.836  10.518   4.122  1.7878 -1.9297 -0.4985
  436MOL0     H58807   8.690  10.442   3.864 -0.3628  1.8799  0.1197
  436MOL0     H58808   8.640  10.398   4.018  0.2226 -0.7175 -1.4653
  436MOL0     H58809   8.674  10.674   3.904 -1.7855 -0.6515 -1.3440
  436MOL0     H58810   8.654  10.644   4.083  2.6971 -0.4240  0.4253
  436MOL0     H58811   8.412  10.413   4.047 -0.0613 -0.8417 -1.0373
  436MOL0     H58812   8.081  10.532   3.954  0.0752 -1.3015 -0.9617
  436MOL0     H58813   8.129  10.455   3.799 -2.7449  3.8402 -0.8501
  436MOL0     H58814   8.124  10.332   4.078 -2.1480  2.6969 -0.0021
  436MOL0     H58815   8.216  10.275   3.943 -0.5031  0.6880 -3.1147
  436MOL0     H58816   8.017  10.253   3.800 -0.8170  0.3917 -0.0832
  436MOL0     H58817   7.922  10.333   3.914  0.0348 -0.4647 -1.2509
  436MOL0     H58818   8.078  10.092   3.980  0.0118 -0.8294  1.2044
  436MOL0     H58819   7.925  10.071   3.896 -2.6339  2.6961 -1.7583
  436MOL0     H58820   7.816  10.027   4.290 -0.1424  1.7552  1.0754
  436MOL0     H58821   7.639   9.957   4.456  0.2389 -0.9197  0.7893
  436MOL0     H58822   7.476   9.977   4.422  1.2889  0.3238  1.8676
  436MOL0     H58823   7.550   9.827   4.363 -5.0469  0.9099 -3.6225
  436MOL0     H58824   7.090  10.213   4.069  0.6637 -0.3449  1.1288
  436MOL0     H58825   6.852  10.163   4.032  0.9632  1.5352  1.0685
  436MOL0     H58826   6.620  10.055   4.055 -1.0826 -1.7777  0.0416
  436MOL0     H58827   6.684  10.093   3.895  2.3910 -2.0974  0.2385
  436MOL0     H58828   6.492   9.868   3.944  1.6635 -2.8686 -1.9536
  436MOL0     H58829   6.443  10.023   3.872  1.3610  0.5653 -2.2309
  436MOL0     H58830   6.620   9.795   3.772  1.5183  1.2214  1.5394
  436MOL0     H58831   6.667   9.955   3.724 -0.9251  2.5745  1.3828
  436MOL0     H58832   6.425   9.969   3.613 -1.2362 -0.6518  0.2500
  436MOL0     H58833   6.536   9.845   3.555  0.1222  1.7679 -1.1030
  436MOL0     H58834   6.308   9.797   3.769 -0.6447 -0.8997 -0.4992
  436MOL0     H58835   6.429   9.679   3.711 -1.1014 -0.2676 -2.0005
  436MOL0     H58836   6.359   9.674   3.489 -1.1107  0.2185 -1.7942
  436MOL0     H58837   6.211   9.659   3.583 -2.3005  2.1838  0.2738
  436MOL0     H58838   6.280   9.916   3.450  2.0923 -1.0925  1.6939
  436MOL0     H58839   6.156   9.890   3.579 -0.0450 -1.4249  0.0725
  436MOL0     H58840   6.160   9.739   3.322  1.2952 -0.2574  0.6940
  436MOL0     H58841   6.084   9.900   3.340  2.4319  0.4378 -0.1080
  436MOL0     H58842   6.949   9.742   4.030 -1.7781  0.5627 -3.9247
  436MOL0     H58843   7.163   9.780   4.087 -0.0390  0.2513  0.4893
  436MOL0     H58844   7.491  10.064   3.928 -0.1756 -0.4032  0.1870
  436MOL0     H58845   7.706  10.168   3.910  0.0993 -0.2505 -0.0352
  436MOL0     H58846   9.548  10.880   3.786  1.3814  0.9494 -2.3588
  436MOL0     H58847   9.772  10.914   3.755  0.1279 -0.3164  0.5218
  436MOL0     H58848  10.180  10.634   3.390 -1.4420  2.9899 -0.6556
  436MOL0     H58849  10.461  10.639   3.417  0.1540  0.1775 -0.2395
  436MOL0     H58850  10.590  10.786   3.773  1.0916  0.2562  0.7550
  436MOL0     H58851  10.631  10.632   3.832  1.5365 -0.9390 -0.3102
  436MOL0     H58852  10.844  10.728   3.836 -1.1153 -0.3904  0.9564
  436MOL0     H58853  10.827  10.788   3.674 -1.5378  0.5601  0.3345
  436MOL0     H58854  10.811  10.553   3.578 -0.7426 -0.6054  0.1949
  436MOL0     H58855  10.860  10.492   3.731  1.2165  0.8758  0.8623
  436MOL0     H58856  11.019  10.718   3.613 -0.2705  0.1239  0.6157
  436MOL0     H58857  11.024  10.563   3.546 -3.6322  1.0777 -1.4227
  436MOL0     H58858  11.259  10.510   3.891  0.1585  1.8645  1.1715
  436MOL0     H58859  10.392  10.678   3.832 -2.6805  0.2270  1.4158
  436MOL0     H58860  10.167  10.735   3.800  0.7110  0.1940  1.1441
  437MOL0     O58861   1.262   3.089   9.620  0.4102 -0.1796  0.4300
  437MOL0     C58862   1.344   2.998   9.639  0.6199 -0.5210 -0.8086
  437MOL0     O58863   1.313   2.875   9.692 -0.4115  0.7078 -0.0098
  437MOL0     C58864   1.185   2.858   9.729 -1.0724 -0.2998 -0.2280
  437MOL0     C58865   1.126   2.741   9.703 -0.4490  0.3942  0.2899
  437MOL0     C58866   0.998   2.705   9.743 -0.4574 -0.3539  0.1643
  437MOL0     C58867   0.925   2.797   9.813  0.8876 -0.6877  0.7988
  437MOL0     O58868   0.784   2.786   9.828  0.0895  0.6694 -0.2876
  437MOL0     C58869   0.700   2.744   9.722  0.4913  0.5870 -0.1858
  437MOL0     C58870   0.575   2.686   9.787  0.6078 -0.1943  0.5473
  437MOL0     C58871   0.465   2.662   9.684  0.5440  0.4356  0.9034
  437MOL0     C58872   0.409   2.789   9.629 -0.9368  0.2354  0.0370
  437MOL0     C58873   0.286   2.763   9.548 -0.8243 -0.1201 -0.6726
  437MOL0     C58874   0.223   2.896   9.518  0.6797 -0.4837 -0.1441
  437MOL0     C58875   0.092   2.866   9.437 -0.6860  0.3355 -0.6604
  437MOL0     C58876   0.032   2.999   9.384  0.1446 -0.0844 -0.3141
  437MOL0     N58877  -0.112   2.984   9.353  0.4122  0.3463  0.3423
  437MOL0     C58878  -0.216   2.996   9.440  0.3208 -0.0592  0.4811
  437MOL0     C58879  -0.333   2.969   9.372 -0.0884 -0.3816  0.1120
  437MOL0     C58880  -0.468   2.970   9.434 -0.3110  0.3681  0.4518
  437MOL0     C58881  -0.585   2.969   9.328 -0.3163  0.4054  0.1272
  437MOL0     C58882  -0.628   3.103   9.261  0.4069 -0.3244 -0.0361
  437MOL0     C58883  -0.724   3.080   9.140 -0.0939 -0.5509  0.6181
  437MOL0     O58884  -0.855   3.054   9.201  0.0625 -0.0283  0.3809
  437MOL0     C58885  -0.949   2.997   9.123  0.0359 -0.8084  0.7464
  437MOL0     C58886  -1.053   2.936   9.190 -0.0115 -0.6231  1.4821
  437MOL0     C58887  -1.161   2.872   9.118 -0.1599 -0.5172  0.1747
  437MOL0     C58888  -1.270   2.794   9.195  0.2322  0.4163 -0.8116
  437MOL0     C58889  -1.154   2.879   8.972  0.1432 -0.1802 -0.2995
  437MOL0     C58890  -1.265   2.822   8.878 -0.1154 -0.1487  0.7829
  437MOL0     O58891  -1.390   2.825   8.924 -0.0636 -0.6094 -0.1004
  437MOL0     C58892  -1.494   2.779   8.848  0.5450  0.4125  0.3599
  437MOL0     C58893  -1.566   2.660   8.893 -0.3117 -0.3533  0.3951
  437MOL0     C58894  -1.687   2.617   8.827 -0.1226  0.0520  0.3617
  437MOL0     C58895  -1.728   2.693   8.712  0.3868 -0.1578 -0.4655
  437MOL0     O58896  -1.840   2.660   8.639  0.4220 -0.3931 -0.0817
  437MOL0     C58897  -1.916   2.541   8.671  0.1042 -0.2643  0.8482
  437MOL0     C58898  -2.011   2.495   8.554 -0.4533 -0.4526 -0.4383
  437MOL0     C58899  -2.145   2.563   8.518  0.1025 -0.4216  0.1040
  437MOL0     C58900  -2.124   2.716   8.498  0.1034  0.7053  0.7320
  437MOL0     C58901  -2.257   2.786   8.480  0.6800  0.1173  0.3654
  437MOL0     C58902  -2.242   2.939   8.473 -0.3652  0.4731 -0.3243
  437MOL0     C58903  -2.374   3.019   8.464  0.9725  0.5343  0.2044
  437MOL0     C58904  -2.475   2.997   8.572  1.2931 -0.1228  0.3295
  437MOL0    Cl58905  -2.416   3.041   8.741  0.0365 -0.0896  0.1202
  437MOL0     C58906  -1.647   2.800   8.665 -0.1789  0.3478  0.5939
  437MOL0     C58907  -1.534   2.839   8.732  0.1213 -0.3997  0.0166
  437MOL0     O58908  -1.234   2.809   8.757  0.5377 -0.6555 -0.0188
  437MOL0     C58909  -1.045   2.932   8.915  0.3820 -0.6406  0.2232
  437MOL0     C58910  -0.948   2.991   8.989 -0.0026 -0.4690  0.2448
  437MOL0     N58911  -0.289   2.938   9.245 -0.5227 -0.5314 -0.1219
  437MOL0     N58912  -0.160   2.947   9.228  0.2013 -0.6197  0.1179
  437MOL0     C58913   0.979   2.917   9.861  0.1502 -0.4733 -0.7920
  437MOL0     C58914   1.109   2.945   9.816  0.3141  0.1217  0.8354
  437MOL0     C58915   1.481   3.028   9.610 -0.9675 -0.2208  0.4606
  437MOL0     C58916   1.580   2.934   9.614 -0.5634  1.1180 -0.1942
  437MOL0     C58917   1.715   2.971   9.590 -0.5723 -0.8908 -0.4794
  437MOL0     C58918   1.756   3.105   9.563  0.2675 -0.7155 -0.5499
  437MOL0     O58919   1.891   3.122   9.540  0.6944  0.3226 -0.4585
  437MOL0     C58920   1.958   3.255   9.556 -0.8111 -0.0158  0.9856
  437MOL0     C58921   2.070   3.268   9.445  0.8569 -0.2436 -0.1955
  437MOL0     C58922   2.101   3.419   9.449  0.0293 -0.9506 -0.4163
  437MOL0     C58923   2.199   3.454   9.568  0.9864  0.3265  0.1927
  437MOL0     C58924   2.253   3.587   9.555 -0.5001 -0.1405 -0.4735
  437MOL0     C58925   2.293   3.700   9.524 -0.5540  0.3184  0.1416
  437MOL0     C58926   1.656   3.201   9.557 -0.0179  0.5555 -0.1881
  437MOL0     C58927   1.521   3.165   9.575 -0.3596  0.0728  0.0096
  437MOL0     H58928   1.175   2.664   9.645 -0.7463 -1.2404  2.1173
  437MOL0     H58929   0.957   2.607   9.719  1.6275 -0.6891 -2.6014
  437MOL0     H58930   0.668   2.826   9.657  0.6993 -0.3942 -1.5721
  437MOL0     H58931   0.754   2.677   9.655  0.7563 -0.5218  1.0794
  437MOL0     H58932   0.589   2.584   9.824 -1.9934 -1.6218 -2.0167
  437MOL0     H58933   0.539   2.742   9.873  1.0205  0.3562  0.3746
  437MOL0     H58934   0.499   2.601   9.600 -0.3223 -0.1799  0.9882
  437MOL0     H58935   0.380   2.606   9.723 -0.8023  2.3238  0.8309
  437MOL0     H58936   0.385   2.848   9.718 -2.5390  1.3924 -1.1000
  437MOL0     H58937   0.489   2.839   9.574  0.9083 -4.0650 -1.6394
  437MOL0     H58938   0.298   2.700   9.460 -0.4151  2.3079 -2.4471
  437MOL0     H58939   0.218   2.704   9.610  0.8675 -1.2668  0.1569
  437MOL0     H58940   0.202   2.955   9.608 -0.1867 -3.6086  1.8776
  437MOL0     H58941   0.291   2.953   9.455  0.2541  0.3268  0.1061
  437MOL0     H58942   0.122   2.809   9.349 -0.2799  0.1318 -0.3964
  437MOL0     H58943   0.016   2.815   9.497 -0.5130 -2.9257 -2.9433
  437MOL0     H58944   0.092   3.041   9.304 -0.4297  0.0949 -0.6563
  437MOL0     H58945   0.041   3.071   9.466  0.4831  0.7536 -1.0795
  437MOL0     H58946  -0.210   3.028   9.544 -0.0293 -1.2417  0.8784
  437MOL0     H58947  -0.470   2.874   9.485  0.0661 -0.8217 -1.6764
  437MOL0     H58948  -0.481   3.050   9.508 -1.5355  0.2569  0.3837
  437MOL0     H58949  -0.675   2.923   9.369  0.3047 -0.2348  0.7794
  437MOL0     H58950  -0.559   2.894   9.252  0.1912 -1.5047  2.0939
  437MOL0     H58951  -0.542   3.146   9.208 -0.5131  1.3059 -0.2642
  437MOL0     H58952  -0.659   3.184   9.326  1.2921  0.7139 -0.8637
  437MOL0     H58953  -0.685   2.989   9.093  2.0447 -0.8704  2.8181
  437MOL0     H58954  -0.742   3.166   9.074  1.0908  0.6565  1.8286
  437MOL0     H58955  -1.039   2.913   9.296  0.9960  0.5029  1.6238
  437MOL0     H58956  -1.326   2.718   9.141 -0.5039  1.2146 -1.2041
  437MOL0     H58957  -1.245   2.746   9.290 -2.0792 -0.6716 -0.6780
  437MOL0     H58958  -1.338   2.874   9.228 -2.7091 -0.8313 -3.4153
  437MOL0     H58959  -1.539   2.624   8.992 -1.2614  0.4449  0.9626
  437MOL0     H58960  -1.751   2.541   8.871  1.0664 -0.4550  1.2643
  437MOL0     H58961  -1.850   2.456   8.693  0.8470 -0.2149 -1.0074
  437MOL0     H58962  -1.984   2.558   8.755 -3.2457  2.0957 -2.0281
  437MOL0     H58963  -1.954   2.474   8.463 -1.7187 -0.1921 -1.3103
  437MOL0     H58964  -2.038   2.392   8.580 -0.3699 -1.7512 -4.7856
  437MOL0     H58965  -2.224   2.548   8.593 -0.2856  1.0143  0.0089
  437MOL0     H58966  -2.189   2.513   8.431 -1.2409  1.3769 -0.2960
  437MOL0     H58967  -2.078   2.752   8.590 -0.0988 -2.4125  2.1928
  437MOL0     H58968  -2.056   2.733   8.414 -1.1919 -2.3445 -1.1028
  437MOL0     H58969  -2.309   2.773   8.576  0.6622 -0.9318  0.2254
  437MOL0     H58970  -2.314   2.746   8.396  3.0582 -1.6830 -0.4850
  437MOL0     H58971  -2.183   2.986   8.552 -1.1961  1.0098 -0.0068
  437MOL0     H58972  -2.198   2.968   8.377 -0.9044 -0.5943 -0.9125
  437MOL0     H58973  -2.417   2.988   8.368  1.9487 -3.6978  0.9112
  437MOL0     H58974  -2.342   3.123   8.466  1.0807  0.5082  2.0811
  437MOL0     H58975  -2.502   2.892   8.558  2.9138 -0.2586 -2.7200
  437MOL0     H58976  -2.569   3.052   8.571  1.0397 -0.5242  1.2529
  437MOL0     H58977  -1.678   2.842   8.570 -1.5679 -2.2249 -0.1829
  437MOL0     H58978  -1.486   2.932   8.704  1.6662 -1.2226 -0.2085
  437MOL0     H58979  -1.031   2.917   8.808  0.6128 -1.0672  0.3089
  437MOL0     H58980  -0.868   3.047   8.941 -1.2145  0.7404 -0.4494
  437MOL0     H58981   0.913   2.983   9.917  0.9207 -0.1555 -0.2464
  437MOL0     H58982   1.158   3.038   9.845  0.4166 -0.1977  1.6929
  437MOL0     H58983   1.561   2.831   9.642 -0.7699  1.2342  0.0894
  437MOL0     H58984   1.793   2.897   9.608 -0.3364  0.0689  3.4142
  437MOL0     H58985   1.890   3.340   9.549 -2.0923 -1.1270 -1.3210
  437MOL0     H58986   2.016   3.261   9.649  2.5945  0.3578 -0.9925
  437MOL0     H58987   2.023   3.238   9.350 -0.6390  0.3076  0.3486
  437MOL0     H58988   2.156   3.201   9.455 -0.1442 -1.3842  1.3385
  437MOL0     H58989   2.009   3.477   9.455 -0.0026 -1.0924  0.7556
  437MOL0     H58990   2.141   3.452   9.353 -0.0268  1.5600  0.3615
  437MOL0     H58991   2.272   3.376   9.586  1.9286  0.5696 -2.2981
  437MOL0     H58992   2.128   3.456   9.652 -2.7359  1.9706 -2.6831
  437MOL0     H58993   2.319   3.798   9.489 -1.4080  0.2833 -0.6259
  437MOL0     H58994   1.672   3.307   9.540 -0.9529  0.6268 -0.6984
  437MOL0     H58995   1.436   3.231   9.565 -1.1163 -0.7802  0.6179
  438MOL0     O58996   1.440  10.964   7.071  0.1449 -0.9829  0.0483
  438MOL0     C58997   1.356  10.882   7.110 -0.9182 -0.1782 -0.5073
  438MOL0     O58998   1.357  10.819   7.236  0.0044 -0.7680 -0.1835
  438MOL0     C58999   1.470  10.810   7.317  0.8853 -0.6165  0.6484
  438MOL0     C59000   1.603  10.837   7.290 -0.8911  0.1487  0.0571
  438MOL0     C59001   1.708  10.806   7.375 -0.5353  0.7035  0.0375
  438MOL0     C59002   1.683  10.783   7.510  0.2407  0.0663 -0.1685
  438MOL0     O59003   1.770  10.761   7.609  0.2722 -0.2216 -0.0082
  438MOL0     C59004   1.894  10.835   7.606 -0.1951  0.0223  0.3520
  438MOL0     C59005   1.949  10.851   7.749  0.5255  0.6724 -0.6315
  438MOL0     C59006   2.088  10.920   7.764  0.5537  1.0068  0.3487
  438MOL0     C59007   2.074  11.075   7.734 -0.3178  0.3176  0.2229
  438MOL0     C59008   2.219  11.144   7.754  0.4458  1.0744 -0.4350
  438MOL0     C59009   2.227  11.294   7.782  0.8987  0.1856 -0.0879
  438MOL0     C59010   2.180  11.381   7.668  0.3417  0.6039 -0.7479
  438MOL0     C59011   2.170  11.525   7.703 -0.1554 -0.1862 -0.1431
  438MOL0     N59012   2.090  11.559   7.822 -0.1538  0.1426  0.2324
  438MOL0     C59013   1.949  11.569   7.840 -0.2425 -0.1815 -0.0599
  438MOL0     C59014   1.927  11.602   7.965 -0.5559  0.7603  0.1070
  438MOL0     C59015   1.799  11.640   8.029  0.3131  0.0198 -0.1573
  438MOL0     C59016   1.678  11.561   7.976  0.3247  0.0836  0.7898
  438MOL0     C59017   1.688  11.411   8.020 -0.5259 -0.4012 -0.3100
  438MOL0     C59018   1.555  11.345   7.992  0.7691  0.5652 -0.0608
  438MOL0     O59019   1.499  11.376   7.861 -0.2090  0.3278  0.3820
  438MOL0     C59020   1.362  11.360   7.834 -0.1979 -0.1524  0.7180
  438MOL0     C59021   1.323  11.431   7.723  0.3549 -0.1978 -0.2439
  438MOL0     C59022   1.192  11.439   7.681 -1.2438  0.3974  1.9832
  438MOL0     C59023   1.158  11.519   7.556  0.4275  0.4221 -0.4193
  438MOL0     C59024   1.094  11.360   7.747 -0.1915  0.3012 -0.5091
  438MOL0     C59025   0.954  11.359   7.698  0.9870 -0.0404 -0.1586
  438MOL0     O59026   0.865  11.384   7.802  0.1945  0.7864 -0.0780
  438MOL0     C59027   0.731  11.397   7.769 -0.6943 -0.2503 -0.3648
  438MOL0     C59028   0.637  11.329   7.852 -0.3567 -0.5951 -0.7834
  438MOL0     C59029   0.500  11.353   7.819 -0.1416  0.4945 -0.4738
  438MOL0     C59030   0.459  11.447   7.724 -0.1879  0.3734  0.5515
  438MOL0     O59031   0.328  11.483   7.690  0.0953  0.1150 -0.1319
  438MOL0     C59032   0.222  11.409   7.758 -0.5943  0.1033 -0.8882
  438MOL0     C59033   0.096  11.431   7.680  0.1733  0.2828 -0.8691
  438MOL0     C59034   0.121  11.381   7.533  0.3790 -0.6017  0.0732
  438MOL0     C59035  -0.005  11.304   7.477  0.4488  0.5905 -0.2057
  438MOL0     C59036   0.038  11.196   7.372  0.0520 -0.1558  0.0984
  438MOL0     C59037  -0.076  11.130   7.293 -0.4518  0.4268 -0.4683
  438MOL0     C59038  -0.184  11.080   7.392  0.2573  0.0337  0.7823
  438MOL0     C59039  -0.278  10.991   7.316 -0.5437 -0.0074 -0.0547
  438MOL0    Cl59040  -0.353  11.096   7.182  0.0743 -0.0871  0.5268
  438MOL0     C59041   0.550  11.501   7.639 -0.3086  0.3948  0.8817
  438MOL0     C59042   0.688  11.480   7.659  0.0258  0.9960  1.0355
  438MOL0     O59043   0.931  11.347   7.581  0.3802  0.3910 -0.5862
  438MOL0     C59044   1.133  11.281   7.858  0.0500  0.1649  0.6088
  438MOL0     C59045   1.273  11.276   7.897  0.4949  0.2508 -0.0908
  438MOL0     N59046   2.056  11.606   8.025 -0.6871  0.2798 -0.2499
  438MOL0     N59047   2.160  11.587   7.938  1.1871  0.2676 -0.3037
  438MOL0     C59048   1.550  10.759   7.546  0.6426 -0.6912 -0.1742
  438MOL0     C59049   1.447  10.768   7.447  0.0889  0.7638 -0.0946
  438MOL0     C59050   1.251  10.846   7.011  0.0837  0.1768 -0.4463
  438MOL0     C59051   1.151  10.758   7.037 -0.3292 -0.4842 -0.2507
  438MOL0     C59052   1.046  10.735   6.944 -0.1299  0.4253  0.2398
  438MOL0     C59053   1.045  10.799   6.819 -0.2034  0.3024  0.0116
  438MOL0     O59054   0.953  10.771   6.718  0.7033  0.0462  0.2911
  438MOL0     C59055   0.982  10.781   6.576  0.1934  0.4562 -0.6573
  438MOL0     C59056   0.887  10.701   6.489  0.2619  0.0746  0.0857
  438MOL0     C59057   0.748  10.752   6.496  0.2365  0.0808 -1.5159
  438MOL0     C59058   0.681  10.711   6.366  0.4953  0.9470  0.2551
  438MOL0     C59059   0.655  10.562   6.363 -0.3938  0.0683 -0.9587
  438MOL0     C59060   0.622  10.445   6.366 -0.0784  0.1657  0.0776
  438MOL0     C59061   1.146  10.891   6.798 -0.6495 -0.6083  0.0387
  438MOL0     C59062   1.251  10.911   6.889 -0.7539  0.4304  0.3320
  438MOL0     H59063   1.628  10.878   7.193  0.8151  0.6645  0.6718
  438MOL0     H59064   1.813  10.812   7.350 -0.4743  1.0955  0.3663
  438MOL0     H59065   1.961  10.786   7.535  1.7909  1.8241  0.8641
  438MOL0     H59066   1.874  10.934   7.562  1.4538  1.2290  2.1496
  438MOL0     H59067   1.867  10.887   7.812  0.0443  0.3043 -1.0324
  438MOL0     H59068   1.969  10.748   7.779 -0.2352  0.6914 -0.0284
  438MOL0     H59069   2.116  10.890   7.865 -0.4032  0.0202  0.3501
  438MOL0     H59070   2.159  10.871   7.697  1.2765 -1.0568  2.4741
  438MOL0     H59071   2.027  11.096   7.638  1.5982  2.2486 -0.3632
  438MOL0     H59072   2.010  11.102   7.819 -2.1689  0.1896 -1.0666
  438MOL0     H59073   2.250  11.099   7.849  0.1509 -2.2424 -1.7725
  438MOL0     H59074   2.282  11.115   7.670  0.1483 -0.3245 -0.1912
  438MOL0     H59075   2.157  11.312   7.864 -0.4313  0.3827 -1.2271
  438MOL0     H59076   2.323  11.332   7.818  0.4601  0.0050  1.3027
  438MOL0     H59077   2.244  11.373   7.580 -0.0241  1.0576 -1.0580
  438MOL0     H59078   2.080  11.346   7.640 -0.2286 -0.5995  2.3591
  438MOL0     H59079   2.137  11.577   7.612 -1.1468  0.8021  0.7448
  438MOL0     H59080   2.274  11.560   7.714  0.5982 -1.5192 -2.3838
  438MOL0     H59081   1.879  11.556   7.758  1.0662  2.5992 -1.7522
  438MOL0     H59082   1.813  11.632   8.137  2.7853 -1.0072 -0.4826
  438MOL0     H59083   1.786  11.748   8.016 -3.3060 -0.2341  0.4934
  438MOL0     H59084   1.671  11.568   7.867 -3.3499 -1.0316  0.8078
  438MOL0     H59085   1.592  11.610   8.022 -0.4376 -1.2469  0.8387
  438MOL0     H59086   1.714  11.410   8.127 -1.2449  2.1273 -0.0379
  438MOL0     H59087   1.767  11.360   7.964  2.0003  2.3297  0.4798
  438MOL0     H59088   1.483  11.360   8.074  0.7195  1.0025 -0.1818
  438MOL0     H59089   1.561  11.236   7.992 -1.5291  0.3790 -0.0749
  438MOL0     H59090   1.404  11.463   7.660  2.3920  0.2152  2.4039
  438MOL0     H59091   1.144  11.454   7.469  4.0456 -0.3471 -0.6104
  438MOL0     H59092   1.067  11.571   7.587  0.2461  0.4069 -0.9122
  438MOL0     H59093   1.238  11.592   7.538  2.6358 -1.3860  1.3782
  438MOL0     H59094   0.673  11.273   7.938  2.8945  0.3648 -1.3705
  438MOL0     H59095   0.425  11.307   7.884 -2.3053  4.3108 -0.0114
  438MOL0     H59096   0.231  11.301   7.739 -1.0525  0.4700 -3.6360
  438MOL0     H59097   0.213  11.437   7.863  1.6254  1.1448 -0.9263
  438MOL0     H59098   0.012  11.373   7.720 -0.0505 -1.4043 -3.5432
  438MOL0     H59099   0.070  11.538   7.678  3.1385  1.1631  1.4485
  438MOL0     H59100   0.216  11.327   7.534  2.0044  2.0540  0.1307
  438MOL0     H59101   0.132  11.468   7.467 -0.8466 -1.6932 -1.6747
  438MOL0     H59102  -0.060  11.260   7.559  0.4081  1.4287  0.2317
  438MOL0     H59103  -0.077  11.378   7.440 -0.8552 -0.7765 -0.4883
  438MOL0     H59104   0.100  11.124   7.426 -1.3133 -0.4429  1.3464
  438MOL0     H59105   0.108  11.245   7.304 -2.8709 -0.0834 -3.1611
  438MOL0     H59106  -0.105  11.194   7.209 -0.8119 -2.2482 -2.5372
  438MOL0     H59107  -0.051  11.042   7.233 -2.4858 -0.7037  0.2420
  438MOL0     H59108  -0.240  11.166   7.432  0.1387  0.1166  0.4385
  438MOL0     H59109  -0.147  11.023   7.477 -0.9452 -0.2971  1.1035
  438MOL0     H59110  -0.366  10.971   7.379 -1.0022  1.5871 -0.1565
  438MOL0     H59111  -0.225  10.902   7.282  0.5620 -0.3403  2.3396
  438MOL0     H59112   0.527  11.564   7.554 -1.1612 -0.9460  0.0729
  438MOL0     H59113   0.759  11.537   7.599 -3.2325  1.2915 -2.9946
  438MOL0     H59114   1.061  11.209   7.896  0.4659 -0.1535  0.7992
  438MOL0     H59115   1.311  11.213   7.977  1.1499  0.4919 -0.2044
  438MOL0     H59116   1.507  10.738   7.643  0.1267 -1.7616 -0.6180
  438MOL0     H59117   1.346  10.748   7.482  0.6223 -0.5030  0.8257
  438MOL0     H59118   1.143  10.723   7.140  1.5666 -1.4785 -0.3812
  438MOL0     H59119   0.969  10.662   6.964 -0.0686  0.2658 -0.0985
  438MOL0     H59120   0.978  10.888   6.551 -3.0241  0.0032 -2.7144
  438MOL0     H59121   1.087  10.760   6.555  0.6021  2.6639 -1.0772
  438MOL0     H59122   0.886  10.600   6.530 -3.5682 -0.1587 -0.1860
  438MOL0     H59123   0.928  10.703   6.387 -0.8310 -1.4040 -0.4229
  438MOL0     H59124   0.735  10.861   6.497 -1.0529 -0.0573 -1.7803
  438MOL0     H59125   0.702  10.707   6.585  2.4930 -0.3609 -0.5059
  438MOL0     H59126   0.734  10.741   6.275 -1.2451 -1.5168 -1.7015
  438MOL0     H59127   0.583  10.761   6.368 -1.4354 -2.5351  2.2412
  438MOL0     H59128   0.582  10.347   6.349  0.8870 -0.1762 -0.2745
  438MOL0     H59129   1.147  10.944   6.703 -1.0056  1.1703  0.9747
  438MOL0     H59130   1.327  10.983   6.861 -2.0886  1.7423 -0.0511
  439MOL0     O59131   4.319   4.674   5.314  1.1185  0.4345 -0.0735
  439MOL0     C59132   4.409   4.611   5.264  0.6899  0.5750 -0.0601
  439MOL0     O59133   4.392   4.502   5.177 -0.2241  0.2299 -0.2052
  439MOL0     C59134   4.264   4.463   5.133  0.6993  0.3873  0.3836
  439MOL0     C59135   4.147   4.539   5.114  0.3842 -0.4378  0.2187
  439MOL0     C59136   4.035   4.492   5.058 -0.4126  0.2409  0.2870
  439MOL0     C59137   4.022   4.366   5.005 -0.3191  0.3377 -0.0970
  439MOL0     O59138   3.907   4.311   4.948 -0.6520 -0.0085 -0.3366
  439MOL0     C59139   3.785   4.392   4.971 -0.3435 -0.1257 -0.4303
  439MOL0     C59140   3.668   4.342   4.892  0.3135 -0.2437 -0.7981
  439MOL0     C59141   3.698   4.321   4.747  0.3595 -0.0797 -0.8594
  439MOL0     C59142   3.638   4.430   4.652 -0.6690  0.0285  0.3102
  439MOL0     C59143   3.658   4.395   4.512 -0.3065 -0.1506 -0.0203
  439MOL0     C59144   3.631   4.517   4.414 -0.0665 -1.2785 -0.4762
  439MOL0     C59145   3.484   4.570   4.427  0.1093 -0.9304 -0.2522
  439MOL0     C59146   3.460   4.663   4.311  0.5200 -1.0890 -0.2610
  439MOL0     N59147   3.324   4.730   4.300 -0.1410 -0.5399 -0.6670
  439MOL0     C59148   3.212   4.652   4.276 -1.2224  0.1750  0.3731
  439MOL0     C59149   3.107   4.717   4.327 -0.2825 -0.4171  0.5242
  439MOL0     C59150   2.973   4.670   4.300 -0.7113  0.0838  0.9506
  439MOL0     C59151   2.909   4.746   4.178 -0.2980 -0.8719 -0.4633
  439MOL0     C59152   2.867   4.887   4.216  0.8294 -0.2077 -0.2917
  439MOL0     C59153   2.827   4.972   4.094 -0.4573  0.6180  0.2324
  439MOL0     O59154   2.734   4.908   4.004  0.6807  0.6988 -0.6453
  439MOL0     C59155   2.605   4.905   4.049  0.1909  0.6876 -0.1139
  439MOL0     C59156   2.531   4.997   4.120  0.1034 -0.3978  0.9521
  439MOL0     C59157   2.401   4.975   4.178  0.3272  0.4499  0.5280
  439MOL0     C59158   2.344   5.084   4.270  0.3938 -0.1682  0.5785
  439MOL0     C59159   2.324   4.865   4.120 -0.7661 -0.6552  0.4243
  439MOL0     C59160   2.182   4.825   4.140  0.2760 -0.6410  0.4629
  439MOL0     O59161   2.125   4.778   4.025 -1.1472  0.2861 -0.4145
  439MOL0     C59162   1.990   4.770   4.009  0.1225  0.2578  0.2645
  439MOL0     C59163   1.905   4.862   4.069  0.0321 -0.2258  0.4822
  439MOL0     C59164   1.768   4.847   4.046  0.1095 -0.8218 -0.7297
  439MOL0     C59165   1.719   4.734   3.983 -0.1415 -0.1930  0.0717
  439MOL0     O59166   1.579   4.726   3.976 -0.0480 -0.3027  0.5012
  439MOL0     C59167   1.509   4.603   3.984 -0.7362  0.3266  0.5236
  439MOL0     C59168   1.409   4.588   4.103 -0.9812  0.2204  0.0372
  439MOL0     C59169   1.285   4.680   4.078  0.3681 -0.1637  0.3713
  439MOL0     C59170   1.194   4.701   4.202 -0.1298 -0.3328 -0.0007
  439MOL0     C59171   1.054   4.743   4.157 -0.4333  0.1221 -0.3141
  439MOL0     C59172   0.975   4.637   4.090  0.0779  0.3762 -0.2684
  439MOL0     C59173   0.831   4.677   4.109  0.6556  0.1468 -0.0185
  439MOL0     C59174   0.739   4.594   4.000  0.0716 -0.7405  0.7035
  439MOL0    Cl59175   0.719   4.421   4.033  0.3520  0.1466 -0.3208
  439MOL0     C59176   1.804   4.651   3.917  0.0415 -0.3071  0.3505
  439MOL0     C59177   1.941   4.674   3.922 -0.0864  0.2797 -0.9363
  439MOL0     O59178   2.125   4.839   4.248  0.1561 -0.2460 -0.5201
  439MOL0     C59179   2.403   4.780   4.036  0.6794  0.2089  0.1933
  439MOL0     C59180   2.540   4.794   4.014 -0.2156  0.3563  0.2264
  439MOL0     N59181   3.150   4.832   4.385  0.0977 -0.0738 -0.3938
  439MOL0     N59182   3.281   4.840   4.367  0.1977 -0.0349  0.8520
  439MOL0     C59183   4.146   4.292   5.008 -0.3076  0.3306 -0.2677
  439MOL0     C59184   4.266   4.340   5.066  0.2960 -0.2344 -0.0822
  439MOL0     C59185   4.546   4.652   5.295  0.8738  0.6726 -0.6108
  439MOL0     C59186   4.574   4.762   5.376  0.1399  0.4897 -0.6727
  439MOL0     C59187   4.704   4.806   5.401 -0.6371  0.6435  0.8277
  439MOL0     C59188   4.816   4.730   5.352  0.0334 -1.0236  0.7636
  439MOL0     O59189   4.937   4.776   5.383 -0.2071  0.5805 -0.4209
  439MOL0     C59190   5.050   4.694   5.357  0.2362 -0.1688  0.0395
  439MOL0     C59191   5.158   4.775   5.410 -0.5125 -1.0728  0.6973
  439MOL0     C59192   5.279   4.778   5.319 -0.1446  0.5367  0.4081
  439MOL0     C59193   5.397   4.862   5.387  0.0808 -0.0200 -1.0410
  439MOL0     C59194   5.363   5.015   5.382 -0.3636  1.1639 -0.0341
  439MOL0     C59195   5.308   5.124   5.383  0.2678 -0.6331 -0.2946
  439MOL0     C59196   4.791   4.613   5.270 -0.5741 -0.4387 -0.1068
  439MOL0     C59197   4.654   4.574   5.248  0.2459 -0.0880  0.8310
  439MOL0     H59198   4.132   4.640   5.150  2.1890  0.5974 -1.7210
  439MOL0     H59199   3.950   4.559   5.057 -2.1233 -1.7809 -2.1661
  439MOL0     H59200   3.761   4.394   5.078  0.1899 -0.5230 -0.3030
  439MOL0     H59201   3.806   4.488   4.923 -0.6892  0.3228  0.3011
  439MOL0     H59202   3.638   4.246   4.934  2.5406 -1.3065 -1.4973
  439MOL0     H59203   3.587   4.416   4.899 -0.4850 -1.1451 -0.1664
  439MOL0     H59204   3.806   4.317   4.732  0.0546 -0.2320 -3.4010
  439MOL0     H59205   3.652   4.228   4.714 -1.1690 -0.0086  0.9318
  439MOL0     H59206   3.531   4.421   4.674 -0.4342  0.4932  1.7162
  439MOL0     H59207   3.670   4.534   4.663  1.3198 -0.3466 -1.2941
  439MOL0     H59208   3.762   4.370   4.488 -0.3859  0.1029 -0.6489
  439MOL0     H59209   3.604   4.303   4.489  0.9803 -1.6537  2.4660
  439MOL0     H59210   3.710   4.591   4.427  0.2151 -1.5111 -0.8303
  439MOL0     H59211   3.646   4.490   4.309 -1.9500 -0.2163 -1.0646
  439MOL0     H59212   3.417   4.484   4.426  1.4582 -2.1428 -4.0598
  439MOL0     H59213   3.476   4.624   4.522  3.6601  0.5782 -0.6417
  439MOL0     H59214   3.466   4.602   4.220 -0.0159 -1.5094 -0.0220
  439MOL0     H59215   3.530   4.746   4.323  0.7565 -1.2776 -0.3410
  439MOL0     H59216   3.210   4.569   4.206 -2.0238  0.8982 -0.4937
  439MOL0     H59217   2.978   4.564   4.277  0.6611 -0.5346  3.6704
  439MOL0     H59218   2.914   4.681   4.392 -0.3165 -1.1407  1.3560
  439MOL0     H59219   2.818   4.694   4.145  0.2255 -1.9970 -0.1832
  439MOL0     H59220   2.983   4.754   4.098  0.8510  1.2537  0.7290
  439MOL0     H59221   2.949   4.936   4.270  2.3003 -0.0318 -2.5575
  439MOL0     H59222   2.785   4.878   4.288  1.3825  0.5883  0.4648
  439MOL0     H59223   2.923   4.979   4.041  0.0139  0.8990  1.1129
  439MOL0     H59224   2.799   5.074   4.121  2.6955  1.3304  1.2647
  439MOL0     H59225   2.586   5.085   4.152 -1.7110  0.8449  0.7801
  439MOL0     H59226   2.336   5.042   4.370 -0.4497  0.9673  1.0033
  439MOL0     H59227   2.410   5.172   4.265 -0.0699  0.1619  0.2185
  439MOL0     H59228   2.246   5.115   4.233  0.5979 -0.3910 -0.1644
  439MOL0     H59229   1.925   4.962   4.106 -0.3133  0.8197 -1.9252
  439MOL0     H59230   1.691   4.917   4.079  0.9440  0.6646 -1.7796
  439MOL0     H59231   1.457   4.586   3.889 -1.0610  1.5756  0.4528
  439MOL0     H59232   1.582   4.522   3.993 -1.3236 -0.1419  1.2174
  439MOL0     H59233   1.378   4.485   4.120  1.4681 -0.8579 -1.6056
  439MOL0     H59234   1.462   4.619   4.194  0.9627  0.5398 -1.1529
  439MOL0     H59235   1.238   4.636   3.990 -0.4216 -1.3296  1.3363
  439MOL0     H59236   1.313   4.783   4.052 -0.0821  0.4457  2.1935
  439MOL0     H59237   1.191   4.609   4.261  2.1808  0.6135  1.7651
  439MOL0     H59238   1.231   4.783   4.264 -0.8002 -0.3683  0.4632
  439MOL0     H59239   1.073   4.831   4.094  1.2795  0.6223  0.8487
  439MOL0     H59240   1.001   4.765   4.250 -1.6772 -2.5347 -0.3168
  439MOL0     H59241   0.999   4.643   3.984  2.3214 -1.0281  0.0792
  439MOL0     H59242   1.004   4.539   4.129  1.1133  0.1955 -1.4336
  439MOL0     H59243   0.816   4.784   4.092 -1.0233 -0.2050 -1.0265
  439MOL0     H59244   0.801   4.655   4.212  0.9370 -1.1987 -0.2083
  439MOL0     H59245   0.776   4.624   3.902  2.9446  2.5705  2.5829
  439MOL0     H59246   0.638   4.637   4.001  0.3708 -0.0291  0.6099
  439MOL0     H59247   1.759   4.594   3.837  1.7313  0.1120 -0.9445
  439MOL0     H59248   2.011   4.610   3.871  1.2855  0.7433  0.3085
  439MOL0     H59249   2.355   4.693   3.994 -1.4410  0.2184  2.3715
  439MOL0     H59250   2.589   4.714   3.958  0.7740 -1.6056  3.6125
  439MOL0     H59251   4.140   4.191   4.969  0.3070  0.3011 -0.2990
  439MOL0     H59252   4.356   4.279   5.061 -1.2437 -2.6220 -4.2243
  439MOL0     H59253   4.501   4.833   5.413  2.1224  1.3576  1.8906
  439MOL0     H59254   4.713   4.893   5.465  1.0207  0.0994  1.3793
  439MOL0     H59255   5.048   4.605   5.421  0.8938  1.5767  2.5948
  439MOL0     H59256   5.059   4.669   5.250 -0.5836 -0.5127  0.0432
  439MOL0     H59257   5.192   4.735   5.506  1.8041  1.0883  0.8589
  439MOL0     H59258   5.124   4.878   5.423 -1.9513 -0.4377 -5.0748
  439MOL0     H59259   5.259   4.813   5.217 -2.2736  1.3543  1.0604
  439MOL0     H59260   5.313   4.675   5.304 -0.8685  0.5422 -1.6046
  439MOL0     H59261   5.492   4.851   5.334  0.8942 -3.5172  0.8750
  439MOL0     H59262   5.407   4.824   5.489 -2.0480  2.1417  0.0851
  439MOL0     H59263   5.252   5.215   5.375 -0.7287 -1.3937 -5.5877
  439MOL0     H59264   4.879   4.552   5.254  0.2070  0.7626 -0.5296
  439MOL0     H59265   4.635   4.481   5.196 -0.0381 -0.4173  1.5124
  440MOL0     O59266  10.318   8.591   6.290  0.0945  0.4505 -0.1266
  440MOL0     C59267  10.349   8.598   6.405  0.0453 -1.0134 -0.1883
  440MOL0     O59268  10.264   8.570   6.511  0.6691  0.4711  0.8489
  440MOL0     C59269  10.139   8.538   6.500  0.3850  0.2246  0.1696
  440MOL0     C59270  10.106   8.418   6.449 -0.0311  0.5280  0.4205
  440MOL0     C59271   9.974   8.369   6.435  0.4338 -0.2297 -0.8850
  440MOL0     C59272   9.867   8.451   6.472 -0.6158 -0.9119  0.0517
  440MOL0     O59273   9.733   8.417   6.443 -0.2671 -0.0742  0.1992
  440MOL0     C59274   9.712   8.337   6.326  0.7877 -0.6906 -0.1717
  440MOL0     C59275   9.570   8.374   6.279  0.5897 -0.0143  0.0805
  440MOL0     C59276   9.461   8.332   6.382  0.1669  0.2833  0.4967
  440MOL0     C59277   9.316   8.352   6.328  0.1090  0.4039 -0.1313
  440MOL0     C59278   9.204   8.294   6.423 -0.1671 -0.1482 -1.1249
  440MOL0     C59279   9.071   8.288   6.349  0.8392 -0.8576  0.7658
  440MOL0     C59280   9.022   8.441   6.329  0.4120  0.7796 -0.6520
  440MOL0     C59281   8.877   8.443   6.286 -0.2896  0.2087  0.0217
  440MOL0     N59282   8.762   8.428   6.382  0.2476 -0.8357  0.0827
  440MOL0     C59283   8.695   8.315   6.416  0.9747  0.4955 -0.2758
  440MOL0     C59284   8.584   8.360   6.491 -0.4506 -0.0603 -0.3745
  440MOL0     C59285   8.478   8.281   6.570 -0.8241  0.1601  0.0265
  440MOL0     C59286   8.341   8.304   6.514  0.7410 -0.5546 -0.5777
  440MOL0     C59287   8.235   8.203   6.569 -0.9283 -0.3080 -0.2666
  440MOL0     C59288   8.096   8.216   6.512 -0.1690 -0.5596  0.0149
  440MOL0     O59289   7.995   8.160   6.604  0.3091 -0.0822  0.5769
  440MOL0     C59290   7.866   8.140   6.557  0.0866  0.7206  0.0045
  440MOL0     C59291   7.778   8.087   6.649 -0.1923  0.8650  0.4928
  440MOL0     C59292   7.646   8.053   6.609  0.1492 -0.3113 -0.5121
  440MOL0     C59293   7.563   7.973   6.705 -0.0429 -0.0025 -0.9088
  440MOL0     C59294   7.591   8.100   6.487  0.3689 -1.0516 -0.2148
  440MOL0     C59295   7.446   8.087   6.447 -0.4257 -0.2321 -0.1581
  440MOL0     O59296   7.355   8.047   6.537  1.0245 -0.6886  0.5027
  440MOL0     C59297   7.224   8.023   6.505  0.0335  0.3014  0.6227
  440MOL0     C59298   7.187   7.890   6.478 -0.5040 -1.3503 -0.0830
  440MOL0     C59299   7.065   7.854   6.426 -0.9466  0.1980  0.7631
  440MOL0     C59300   6.965   7.956   6.410  1.0882 -0.0715  0.2586
  440MOL0     O59301   6.836   7.931   6.370  0.9484 -0.7942  0.3570
  440MOL0     C59302   6.783   7.805   6.405  0.6322  0.3640 -0.0560
  440MOL0     C59303   6.650   7.807   6.336 -0.3003 -0.3132  0.5762
  440MOL0     C59304   6.540   7.887   6.416  0.3793  0.7573  0.3470
  440MOL0     C59305   6.410   7.897   6.337  0.5914 -0.0146 -0.3648
  440MOL0     C59306   6.285   7.887   6.431  0.3147  0.2238 -0.3159
  440MOL0     C59307   6.146   7.913   6.365 -0.8007 -0.3670  0.8678
  440MOL0     C59308   6.034   7.882   6.469 -0.3370  0.2696 -0.2608
  440MOL0     C59309   5.900   7.851   6.404  0.4696 -0.2775 -0.0035
  440MOL0    Cl59310   5.808   8.004   6.361 -0.3973  0.4073  0.4579
  440MOL0     C59311   6.995   8.084   6.439 -0.4467  0.3113  0.2221
  440MOL0     C59312   7.124   8.118   6.485 -0.7175  0.1097 -1.0691
  440MOL0     O59313   7.424   8.126   6.335 -0.8692 -0.6384  0.7705
  440MOL0     C59314   7.678   8.164   6.402 -0.4393 -0.0960  0.8036
  440MOL0     C59315   7.815   8.178   6.435 -0.5853  1.0004 -0.3233
  440MOL0     N59316   8.593   8.499   6.506  0.6295  0.0705  0.0027
  440MOL0     N59317   8.698   8.538   6.439 -0.1393 -0.3945  0.3394
  440MOL0     C59318   9.900   8.573   6.532  0.1002 -0.1999 -0.5974
  440MOL0     C59319  10.032   8.609   6.550 -1.2116 -0.2194 -0.8149
  440MOL0     C59320  10.488   8.610   6.439  0.0031  0.2135  0.5836
  440MOL0     C59321  10.585   8.637   6.334  0.3720 -0.7266  0.9080
  440MOL0     C59322  10.718   8.629   6.371  0.6395 -0.2591 -0.2326
  440MOL0     C59323  10.768   8.587   6.497  0.1593  0.4015  0.5258
  440MOL0     O59324  10.902   8.571   6.522 -0.1877  0.0734  0.1408
  440MOL0     C59325  10.983   8.594   6.411 -0.3949  0.3023 -0.5611
  440MOL0     C59326  11.124   8.552   6.442 -0.9738 -0.6734 -0.2466
  440MOL0     C59327  11.194   8.615   6.571  0.0680  0.2065  1.1560
  440MOL0     C59328  11.330   8.558   6.606  0.1821  0.3080  0.4918
  440MOL0     C59329  11.401   8.626   6.716  0.0825  1.4685 -0.1652
  440MOL0     C59330  11.470   8.673   6.799  0.1337 -0.1259  0.2638
  440MOL0     C59331  10.666   8.554   6.589 -0.3921 -1.1011 -0.2101
  440MOL0     C59332  10.530   8.558   6.566 -0.0756  0.3947  0.7146
  440MOL0     H59333  10.191   8.359   6.420 -1.0987 -1.7303  1.6241
  440MOL0     H59334   9.955   8.267   6.404 -0.5291 -0.2506 -0.2701
  440MOL0     H59335   9.781   8.374   6.249  0.8739  1.6284  0.9293
  440MOL0     H59336   9.724   8.231   6.349  1.3576 -0.5842  0.0439
  440MOL0     H59337   9.563   8.481   6.258  0.5737  0.1151  0.7180
  440MOL0     H59338   9.555   8.319   6.185  0.0539  0.7914 -0.3113
  440MOL0     H59339   9.477   8.225   6.391  0.4017  0.1984 -0.6901
  440MOL0     H59340   9.479   8.382   6.477 -1.7277  0.9420  0.5590
  440MOL0     H59341   9.304   8.459   6.312 -0.2897  0.4275  0.2887
  440MOL0     H59342   9.318   8.305   6.229 -3.1305 -1.5681  0.6013
  440MOL0     H59343   9.234   8.194   6.455  1.3316  1.1509  2.0486
  440MOL0     H59344   9.206   8.357   6.513 -0.4931  0.1832 -1.3482
  440MOL0     H59345   9.070   8.238   6.251 -1.6587  0.8841 -0.2036
  440MOL0     H59346   8.994   8.230   6.402  0.0808 -0.8039 -0.2490
  440MOL0     H59347   9.037   8.488   6.426  2.8638  0.8375 -1.0074
  440MOL0     H59348   9.072   8.501   6.253 -0.8781  0.4175 -1.8279
  440MOL0     H59349   8.858   8.363   6.214 -1.5551 -0.3009  0.8964
  440MOL0     H59350   8.878   8.539   6.233  1.7115  0.6813  0.8340
  440MOL0     H59351   8.708   8.212   6.384 -2.0749 -0.1983  0.3799
  440MOL0     H59352   8.507   8.176   6.558 -2.9118 -0.4487 -0.0604
  440MOL0     H59353   8.471   8.298   6.677  2.2261  0.0702  0.3427
  440MOL0     H59354   8.347   8.291   6.405  3.3401 -3.6723 -0.1904
  440MOL0     H59355   8.299   8.403   6.538  5.0115  0.9788  1.4523
  440MOL0     H59356   8.231   8.229   6.675  3.5710 -1.6123  0.4676
  440MOL0     H59357   8.277   8.102   6.573  0.9246  0.4370  2.6280
  440MOL0     H59358   8.090   8.179   6.409  5.2238  1.7812 -1.4858
  440MOL0     H59359   8.066   8.321   6.505 -2.1011 -1.1682 -2.6792
  440MOL0     H59360   7.813   8.066   6.749 -0.4043 -1.4544  0.1405
  440MOL0     H59361   7.505   8.049   6.758  0.2656  1.2252 -2.2595
  440MOL0     H59362   7.495   7.899   6.662 -0.8864 -0.0022  0.3569
  440MOL0     H59363   7.625   7.915   6.774 -0.9463  0.7830  0.6264
  440MOL0     H59364   7.272   7.828   6.503  1.4000  2.3157  3.7719
  440MOL0     H59365   7.043   7.749   6.415 -1.6268  0.4634 -0.5772
  440MOL0     H59366   6.837   7.720   6.363  0.2568 -1.8550  3.5843
  440MOL0     H59367   6.776   7.795   6.513 -2.2565 -0.2735 -0.2311
  440MOL0     H59368   6.668   7.848   6.236  0.4104 -2.7085 -0.3552
  440MOL0     H59369   6.624   7.702   6.315 -2.2791  0.5024 -1.3740
  440MOL0     H59370   6.583   7.981   6.451 -1.5789  1.3302  1.3623
  440MOL0     H59371   6.515   7.829   6.505 -1.1044  0.0251 -0.5180
  440MOL0     H59372   6.416   7.990   6.280  0.6050  0.0424 -0.2719
  440MOL0     H59373   6.404   7.821   6.259  3.4652 -0.4459 -0.2744
  440MOL0     H59374   6.300   7.951   6.518  1.3018  1.7388 -1.5391
  440MOL0     H59375   6.287   7.783   6.466  1.9444  0.0937 -0.6937
  440MOL0     H59376   6.150   8.020   6.343  1.5764 -0.4956  0.4578
  440MOL0     H59377   6.138   7.853   6.274  0.7920  2.0134 -0.9622
  440MOL0     H59378   6.022   7.960   6.546  1.5815 -0.4322  0.8232
  440MOL0     H59379   6.063   7.794   6.527  0.0172  2.3198  2.9355
  440MOL0     H59380   5.834   7.793   6.469 -1.3491  0.7973 -0.8227
  440MOL0     H59381   5.918   7.795   6.312 -1.5853  2.0059 -1.9423
  440MOL0     H59382   6.930   8.166   6.409 -1.7166 -0.5554  0.5007
  440MOL0     H59383   7.136   8.221   6.515 -2.2116 -0.5809  2.4260
  440MOL0     H59384   7.640   8.209   6.311 -0.2511 -0.0062  0.7679
  440MOL0     H59385   7.882   8.228   6.366 -0.3491  1.9722  0.5786
  440MOL0     H59386   9.823   8.641   6.565  0.2413  0.7203 -2.0835
  440MOL0     H59387  10.056   8.708   6.588 -0.6441 -0.0387 -1.6056
  440MOL0     H59388  10.549   8.656   6.233 -0.1092 -2.6413  0.6916
  440MOL0     H59389  10.785   8.647   6.288 -0.7937 -1.4111 -1.7001
  440MOL0     H59390  10.950   8.533   6.326 -1.6741 -0.2329  0.2943
  440MOL0     H59391  10.989   8.702   6.392  1.3937  0.4884  0.8015
  440MOL0     H59392  11.187   8.592   6.362 -1.2457 -1.7180 -0.9915
  440MOL0     H59393  11.149   8.446   6.442  1.4271 -0.2586  2.7211
  440MOL0     H59394  11.120   8.589   6.648 -1.5449 -0.0414 -0.4142
  440MOL0     H59395  11.202   8.725   6.574 -2.0683  0.4190  0.5827
  440MOL0     H59396  11.396   8.569   6.519  1.1853 -2.0612  0.8730
  440MOL0     H59397  11.312   8.452   6.629  2.3236 -0.1004  0.5015
  440MOL0     H59398  11.535   8.687   6.882  1.4682 -3.9865  0.0745
  440MOL0     H59399  10.701   8.534   6.690  3.4734  2.3177 -0.6191
  440MOL0     H59400  10.471   8.532   6.653 -0.2085 -1.8034  0.0080
  441MOL0     O59401   6.940   6.608   8.435  0.0702 -0.0363 -0.5137
  441MOL0     C59402   6.995   6.650   8.539 -0.1800  0.0649  0.5274
  441MOL0     O59403   6.940   6.647   8.661 -0.2412 -0.2639 -0.5541
  441MOL0     C59404   6.825   6.578   8.667  0.6094 -0.3173 -0.1324
  441MOL0     C59405   6.697   6.640   8.645 -1.1732  0.3365 -0.1905
  441MOL0     C59406   6.584   6.573   8.654  0.3513  0.1740  0.0670
  441MOL0     C59407   6.582   6.446   8.717  0.6483  0.4575  0.0648
  441MOL0     O59408   6.473   6.376   8.764  0.4162  0.0653  0.1786
  441MOL0     C59409   6.347   6.425   8.717  0.5492  0.2792 -0.6960
  441MOL0     C59410   6.251   6.316   8.759  0.5628 -0.1844 -0.4827
  441MOL0     C59411   6.113   6.325   8.710  0.8566  0.0259  0.0005
  441MOL0     C59412   6.038   6.467   8.733 -0.3882 -0.2324  0.4524
  441MOL0     C59413   5.883   6.446   8.737  0.1847  0.2462 -1.1568
  441MOL0     C59414   5.793   6.560   8.796  0.1833 -0.1916  0.9496
  441MOL0     C59415   5.642   6.524   8.785  0.2618 -0.1082 -0.6316
  441MOL0     C59416   5.562   6.617   8.881 -0.4470 -0.1776 -0.4712
  441MOL0     N59417   5.424   6.581   8.891  0.3436  0.5448 -0.3048
  441MOL0     C59418   5.333   6.586   8.790  0.6432  0.8149  0.4454
  441MOL0     C59419   5.214   6.621   8.845  0.9909  0.1862 -1.0898
  441MOL0     C59420   5.084   6.647   8.777 -0.6116  0.4762  0.7673
  441MOL0     C59421   5.034   6.511   8.719 -0.5557  0.1396  0.3995
  441MOL0     C59422   4.896   6.518   8.652  0.3491 -0.1509 -0.3390
  441MOL0     C59423   4.771   6.526   8.751 -0.4929  0.9233  0.1867
  441MOL0     O59424   4.732   6.647   8.820  0.1665 -0.3239  0.2924
  441MOL0     C59425   4.597   6.683   8.804 -0.0980  0.3105  0.3747
  441MOL0     C59426   4.560   6.786   8.712 -0.3546 -0.3358  0.1057
  441MOL0     C59427   4.423   6.827   8.683  0.4646 -0.0751 -0.3203
  441MOL0     C59428   4.402   6.938   8.587  0.2501 -0.0347  0.0250
  441MOL0     C59429   4.318   6.755   8.748  0.1814 -0.1957 -0.6562
  441MOL0     C59430   4.168   6.786   8.717  0.1054 -0.0964  0.0194
  441MOL0     O59431   4.093   6.675   8.726  0.1226  0.4440  0.3992
  441MOL0     C59432   3.956   6.666   8.702 -0.5311 -1.0191  0.0119
  441MOL0     C59433   3.871   6.760   8.770  0.5615 -0.1793  0.1093
  441MOL0     C59434   3.735   6.753   8.757  0.1320 -0.4401 -0.6513
  441MOL0     C59435   3.677   6.651   8.672 -0.2764 -0.5026 -1.1800
  441MOL0     O59436   3.545   6.644   8.644  0.5119 -0.0523  0.5007
  441MOL0     C59437   3.455   6.723   8.721 -0.0055  0.0862  0.3975
  441MOL0     C59438   3.315   6.700   8.673  0.1599  0.4529  0.7150
  441MOL0     C59439   3.297   6.714   8.516 -0.0490  0.6900 -0.0951
  441MOL0     C59440   3.161   6.655   8.468  0.3951 -0.7834 -0.8306
  441MOL0     C59441   3.054   6.711   8.556  0.2938 -0.6157 -0.0388
  441MOL0     C59442   2.914   6.669   8.490 -0.3244  0.1385  0.6172
  441MOL0     C59443   2.803   6.761   8.542 -0.2285 -0.0609 -0.1282
  441MOL0     C59444   2.668   6.695   8.505  0.2196 -0.5312  0.0738
  441MOL0    Cl59445   2.630   6.584   8.630  0.1705  0.0085  0.1964
  441MOL0     C59446   3.755   6.551   8.621  0.1133 -0.1873  0.2600
  441MOL0     C59447   3.888   6.559   8.638 -0.1886 -0.0003 -0.5683
  441MOL0     O59448   4.133   6.897   8.687 -0.2416  0.0230  0.1740
  441MOL0     C59449   4.349   6.650   8.830 -0.6846 -0.1718  0.2211
  441MOL0     C59450   4.485   6.614   8.852  0.2446 -0.4971  0.0292
  441MOL0     N59451   5.228   6.591   8.982 -0.1757 -0.6085 -0.6316
  441MOL0     N59452   5.356   6.560   9.005  1.2573 -0.6015 -0.4440
  441MOL0     C59453   6.703   6.396   8.768 -0.0431 -0.0777  1.2057
  441MOL0     C59454   6.820   6.461   8.739  0.3187  0.3648  0.0286
  441MOL0     C59455   7.117   6.723   8.521 -1.0411 -0.8161 -0.0757
  441MOL0     C59456   7.175   6.801   8.627  0.5953 -0.7464 -0.1755
  441MOL0     C59457   7.275   6.899   8.595 -0.2212  0.6809  0.2446
  441MOL0     C59458   7.318   6.921   8.464 -0.4961 -0.2550  0.1307
  441MOL0     O59459   7.421   7.015   8.442  0.7309  0.0099 -0.6419
  441MOL0     C59460   7.491   7.006   8.314 -0.4503 -0.1899 -0.5754
  441MOL0     C59461   7.628   7.073   8.334 -0.5552 -0.3227 -0.1710
  441MOL0     C59462   7.672   7.130   8.197  0.9313 -0.0087  0.8548
  441MOL0     C59463   7.738   7.024   8.106 -1.0635  0.4261  0.8027
  441MOL0     C59464   7.858   6.962   8.161  0.0573  0.0697  0.9072
  441MOL0     C59465   7.954   6.902   8.211  1.3445 -0.4677 -0.3366
  441MOL0     C59466   7.260   6.851   8.362 -0.4580 -0.1269  0.1905
  441MOL0     C59467   7.164   6.749   8.391  0.4501 -0.2049  0.0964
  441MOL0     H59468   6.701   6.741   8.605  1.1607 -0.3518 -1.9450
  441MOL0     H59469   6.493   6.628   8.633 -0.3653 -0.7786  0.6222
  441MOL0     H59470   6.319   6.522   8.760  1.0387  1.0810 -2.1185
  441MOL0     H59471   6.344   6.425   8.607 -2.4265 -0.9204 -0.7004
  441MOL0     H59472   6.289   6.218   8.728 -2.4171 -2.1533  1.5590
  441MOL0     H59473   6.255   6.316   8.868 -1.7546 -0.3988 -0.3537
  441MOL0     H59474   6.108   6.298   8.604  1.1813 -0.1411  0.0261
  441MOL0     H59475   6.060   6.249   8.767  0.3078 -0.4010 -1.0629
  441MOL0     H59476   6.069   6.499   8.833 -0.3459 -1.5623  0.8860
  441MOL0     H59477   6.074   6.548   8.670 -0.6917 -0.4632 -0.0261
  441MOL0     H59478   5.845   6.402   8.645 -1.1947 -0.6331 -0.2128
  441MOL0     H59479   5.885   6.358   8.802  1.9459  0.5463 -0.7437
  441MOL0     H59480   5.820   6.565   8.901 -2.1586 -1.0249  1.6651
  441MOL0     H59481   5.822   6.651   8.742  1.7020 -0.6262  0.9914
  441MOL0     H59482   5.618   6.531   8.679 -0.6015  0.0092 -0.4329
  441MOL0     H59483   5.632   6.425   8.830  0.6495  2.1060  5.2023
  441MOL0     H59484   5.561   6.723   8.856 -3.5619 -0.2074 -0.7635
  441MOL0     H59485   5.609   6.612   8.980 -0.4675  2.1586 -0.2784
  441MOL0     H59486   5.360   6.583   8.685  1.2849  0.0099  0.6310
  441MOL0     H59487   5.013   6.696   8.844  0.1457  2.0960  0.4367
  441MOL0     H59488   5.102   6.719   8.697 -1.5642  0.9650  0.9714
  441MOL0     H59489   5.031   6.431   8.794 -1.1416 -0.6425 -0.4464
  441MOL0     H59490   5.103   6.462   8.650  0.4020 -1.8837  2.6414
  441MOL0     H59491   4.886   6.430   8.588  0.3882 -0.8609  0.6002
  441MOL0     H59492   4.887   6.613   8.598 -2.8036  0.6867  1.3918
  441MOL0     H59493   4.784   6.446   8.824 -1.6242 -0.0656 -0.6473
  441MOL0     H59494   4.687   6.488   8.692  0.6553 -0.7621 -0.4369
  441MOL0     H59495   4.643   6.841   8.667 -0.3548 -0.0873  0.4075
  441MOL0     H59496   4.312   6.926   8.526  0.1884 -3.5345  0.5936
  441MOL0     H59497   4.394   7.024   8.655 -0.1398 -0.3297  0.3607
  441MOL0     H59498   4.496   6.947   8.531 -0.6641 -0.0628 -1.5481
  441MOL0     H59499   3.907   6.853   8.813 -2.2852  2.6772 -3.1524
  441MOL0     H59500   3.684   6.832   8.811 -0.8860 -2.4953  1.5500
  441MOL0     H59501   3.460   6.682   8.822  1.9692 -1.9801 -0.4287
  441MOL0     H59502   3.480   6.829   8.708 -0.8561  0.1905 -0.5288
  441MOL0     H59503   3.292   6.598   8.707 -0.1992  0.4290  0.4043
  441MOL0     H59504   3.253   6.773   8.725 -0.9224 -0.2905  0.5042
  441MOL0     H59505   3.368   6.661   8.452 -2.3014  0.0738 -2.2292
  441MOL0     H59506   3.298   6.818   8.482 -2.4123  0.7966 -0.0374
  441MOL0     H59507   3.152   6.700   8.369 -0.9481  1.6516  0.3172
  441MOL0     H59508   3.171   6.547   8.457 -1.0725 -1.2654  1.6493
  441MOL0     H59509   3.050   6.820   8.565 -0.1549 -0.7518  1.7968
  441MOL0     H59510   3.037   6.667   8.655 -0.4663  1.7119  0.9100
  441MOL0     H59511   2.922   6.695   8.383 -0.1549  1.0323  0.8357
  441MOL0     H59512   2.889   6.563   8.500  2.6082 -1.1130 -2.9012
  441MOL0     H59513   2.814   6.866   8.515  1.3022  0.4040  2.0302
  441MOL0     H59514   2.811   6.772   8.651  0.8610 -1.3039 -0.0454
  441MOL0     H59515   2.674   6.635   8.414  1.2761 -2.2253  1.2113
  441MOL0     H59516   2.578   6.757   8.494 -1.0917 -2.7511 -3.7106
  441MOL0     H59517   3.712   6.473   8.559  0.2673  1.1481 -1.6192
  441MOL0     H59518   3.944   6.485   8.583  4.2365  1.6712  1.2290
  441MOL0     H59519   4.271   6.586   8.870  0.4947 -1.1555  1.0004
  441MOL0     H59520   4.500   6.524   8.910 -0.4390  0.1015  1.1523
  441MOL0     H59521   6.710   6.312   8.836  0.7935 -0.1366  1.0487
  441MOL0     H59522   6.914   6.414   8.769  1.3054  2.0758 -0.2459
  441MOL0     H59523   7.135   6.771   8.723 -1.9564  0.8395 -0.6419
  441MOL0     H59524   7.311   6.956   8.680  2.4899  1.9719 -1.6252
  441MOL0     H59525   7.502   6.901   8.286  0.2254 -0.0021 -1.0255
  441MOL0     H59526   7.447   7.060   8.230  2.6893  0.4018 -1.9885
  441MOL0     H59527   7.705   7.004   8.370 -1.5083 -0.9953  0.6398
  441MOL0     H59528   7.607   7.152   8.407 -0.0167  0.1388 -0.5080
  441MOL0     H59529   7.745   7.208   8.221 -0.1166  0.8203  1.4264
  441MOL0     H59530   7.596   7.185   8.140  1.0550  0.5219  1.2013
  441MOL0     H59531   7.764   7.066   8.008  2.1992  1.7401  2.0998
  441MOL0     H59532   7.673   6.938   8.086  0.7667 -0.8879  0.2112
  441MOL0     H59533   8.045   6.856   8.243  0.6497 -1.7272 -0.1377
  441MOL0     H59534   7.275   6.876   8.258  0.0536 -0.7862  0.1037
  441MOL0     H59535   7.119   6.714   8.299  3.3081  3.5607 -3.1113
  442MOL0     O59536   0.671   6.312   7.220 -0.0317  0.5358 -0.1744
  442MOL0     C59537   0.709   6.236   7.305  0.0001  0.4083  0.0325
  442MOL0     O59538   0.628   6.175   7.392  0.0703 -0.6146  0.4098
  442MOL0     C59539   0.488   6.195   7.372 -0.5917  0.7529  0.7010
  442MOL0     C59540   0.413   6.297   7.431 -0.0142 -0.5222 -0.1215
  442MOL0     C59541   0.279   6.307   7.399  0.0350  0.2138  0.0604
  442MOL0     C59542   0.219   6.225   7.304  0.0947  0.3861  0.4758
  442MOL0     O59543   0.083   6.256   7.275 -0.4261 -0.5592  0.4658
  442MOL0     C59544   0.052   6.237   7.142 -0.2959 -0.1665 -0.8111
  442MOL0     C59545  -0.100   6.258   7.148  0.0728 -0.2729  0.1049
  442MOL0     C59546  -0.150   6.264   7.006 -0.2642  0.4568 -0.0195
  442MOL0     C59547  -0.300   6.274   6.995  0.0929 -0.4582  0.3074
  442MOL0     C59548  -0.317   6.314   6.849 -0.6911  0.3279  0.3543
  442MOL0     C59549  -0.462   6.295   6.799  0.1854 -0.0095  0.2164
  442MOL0     C59550  -0.562   6.381   6.877 -0.1476 -0.5080 -0.6727
  442MOL0     C59551  -0.705   6.344   6.856  0.1426  0.1677  0.3746
  442MOL0     N59552  -0.754   6.360   6.717 -0.5476 -0.5725  0.6166
  442MOL0     C59553  -0.757   6.259   6.623 -0.5279 -0.6507  0.5921
  442MOL0     C59554  -0.786   6.328   6.511  0.6348  0.5631 -0.3881
  442MOL0     C59555  -0.784   6.259   6.376  0.8327  0.1504 -0.9052
  442MOL0     C59556  -0.905   6.173   6.358  0.6240  0.0556  0.7082
  442MOL0     C59557  -1.032   6.253   6.341 -0.0220  0.8999 -0.4624
  442MOL0     C59558  -1.145   6.160   6.363  1.6420  0.0960  0.8349
  442MOL0     O59559  -1.269   6.230   6.328  0.4744 -0.1587  0.6330
  442MOL0     C59560  -1.384   6.164   6.359  0.0433  0.4906  0.2439
  442MOL0     C59561  -1.394   6.030   6.400 -0.0459  0.8724  0.6257
  442MOL0     C59562  -1.511   5.956   6.436 -0.4007  1.0221 -0.1089
  442MOL0     C59563  -1.498   5.804   6.485 -0.0815  0.4230  0.1160
  442MOL0     C59564  -1.629   6.031   6.428  0.5206 -0.4333  0.3091
  442MOL0     C59565  -1.762   5.981   6.459 -0.2047 -0.0827  0.8886
  442MOL0     O59566  -1.861   6.069   6.438  0.3215  0.5271  0.0059
  442MOL0     C59567  -1.992   6.032   6.471 -0.1754  0.7277 -0.8353
  442MOL0     C59568  -2.063   5.924   6.413 -0.2341  1.1499  0.5862
  442MOL0     C59569  -2.197   5.881   6.448 -0.3775 -0.0539  0.5613
  442MOL0     C59570  -2.265   5.949   6.545 -0.1624 -0.1942  1.0861
  442MOL0     O59571  -2.380   5.910   6.612  0.0967  0.2433 -0.2631
  442MOL0     C59572  -2.425   5.778   6.598 -0.3895  0.3727  0.6383
  442MOL0     C59573  -2.546   5.760   6.686  0.5969 -0.6069 -0.4788
  442MOL0     C59574  -2.675   5.832   6.639 -0.1973  0.0068 -0.2346
  442MOL0     C59575  -2.790   5.805   6.747  0.0538 -0.6441  0.0832
  442MOL0     C59576  -2.926   5.855   6.692  0.6459 -0.2013  0.0904
  442MOL0     C59577  -3.042   5.819   6.772  0.7822 -0.0735 -0.2120
  442MOL0     C59578  -3.165   5.833   6.692  0.6402  0.7486 -0.3408
  442MOL0     C59579  -3.286   5.812   6.787  0.1018 -0.2194 -0.3060
  442MOL0    Cl59580  -3.332   5.636   6.818 -0.1598  0.2139  0.3301
  442MOL0     C59581  -2.189   6.059   6.602  0.4792  0.3365  0.3708
  442MOL0     C59582  -2.056   6.093   6.575  0.8825  0.1343  0.8098
  442MOL0     O59583  -1.781   5.869   6.513 -0.6192 -0.3836  0.0992
  442MOL0     C59584  -1.625   6.167   6.380  0.2113  0.3874 -0.0703
  442MOL0     C59585  -1.505   6.228   6.347  0.1825 -1.2625 -0.0415
  442MOL0     N59586  -0.807   6.466   6.548  0.0644  0.1109 -0.4143
  442MOL0     N59587  -0.793   6.480   6.669  0.4409  0.2575 -0.2503
  442MOL0     C59588   0.285   6.112   7.266  0.4071 -0.1351  0.1077
  442MOL0     C59589   0.417   6.093   7.295  0.1449 -0.0644 -0.6214
  442MOL0     C59590   0.852   6.208   7.304  0.2710 -0.6564 -0.1304
  442MOL0     C59591   0.904   6.147   7.420  0.1646  0.2355  0.0698
  442MOL0     C59592   1.043   6.141   7.438 -0.0540 -0.2854 -0.7114
  442MOL0     C59593   1.128   6.176   7.335 -0.0146 -0.6519  1.0481
  442MOL0     O59594   1.270   6.181   7.349 -0.1545  0.7669  0.3434
  442MOL0     C59595   1.327   6.086   7.436 -0.6876  0.0306 -0.6130
  442MOL0     C59596   1.455   6.020   7.383 -0.4583  1.7067 -0.1587
  442MOL0     C59597   1.578   6.108   7.413  0.2015 -0.4143 -0.3967
  442MOL0     C59598   1.710   6.035   7.397  0.0026  0.0783 -0.8096
  442MOL0     C59599   1.747   5.950   7.517 -0.3798 -0.8595  0.6344
  442MOL0     C59600   1.767   5.878   7.613  0.3778  0.2092 -0.0916
  442MOL0     C59601   1.075   6.236   7.217  0.3534 -0.8955  0.6731
  442MOL0     C59602   0.940   6.258   7.205 -0.2933 -0.5278 -0.2998
  442MOL0     H59603   0.458   6.364   7.503 -3.2934 -0.5702  2.1472
  442MOL0     H59604   0.211   6.377   7.446 -1.3088 -0.3923 -0.9076
  442MOL0     H59605   0.096   6.309   7.071 -1.0744 -1.3807 -2.6047
  442MOL0     H59606   0.066   6.133   7.111  1.2552 -0.9881  2.3158
  442MOL0     H59607  -0.157   6.183   7.204 -0.8093  0.9046  0.8367
  442MOL0     H59608  -0.120   6.355   7.194 -1.0278 -0.6652  0.4857
  442MOL0     H59609  -0.096   6.341   6.949  1.2097  0.1178  0.8662
  442MOL0     H59610  -0.120   6.167   6.966  0.0115 -0.6167  2.5835
  442MOL0     H59611  -0.347   6.177   7.018 -1.4684  0.3288  0.5904
  442MOL0     H59612  -0.338   6.355   7.058  1.0859  1.5170 -1.4914
  442MOL0     H59613  -0.289   6.419   6.845 -1.8819  0.6166 -1.9558
  442MOL0     H59614  -0.250   6.267   6.776 -1.8561  0.5351 -0.8901
  442MOL0     H59615  -0.468   6.333   6.697  1.2959  3.4645  1.3338
  442MOL0     H59616  -0.494   6.190   6.796  2.5099 -0.7991  1.1330
  442MOL0     H59617  -0.545   6.388   6.985 -2.9946  1.2590 -0.2149
  442MOL0     H59618  -0.545   6.481   6.836  0.7587 -1.1186 -1.8571
  442MOL0     H59619  -0.771   6.406   6.918  0.0603  1.4845 -0.9860
  442MOL0     H59620  -0.717   6.238   6.881  0.5359 -0.7478 -2.9017
  442MOL0     H59621  -0.744   6.152   6.634 -2.1013 -0.7478  1.9121
  442MOL0     H59622  -0.798   6.340   6.305 -0.2872  2.0181  1.3021
  442MOL0     H59623  -0.694   6.203   6.347  0.2048 -2.0199  1.0576
  442MOL0     H59624  -0.917   6.102   6.441 -0.7484  0.2970  0.7404
  442MOL0     H59625  -0.897   6.106   6.272  1.3968  1.6134 -0.4917
  442MOL0     H59626  -1.035   6.293   6.239  1.1990 -1.9362 -1.7032
  442MOL0     H59627  -1.040   6.332   6.416  2.5964  0.2155  0.6666
  442MOL0     H59628  -1.157   6.126   6.467  0.7120  0.1192  0.7425
  442MOL0     H59629  -1.138   6.068   6.305  0.7768  1.5934 -1.8317
  442MOL0     H59630  -1.301   5.975   6.401 -0.4445  0.1769  0.6873
  442MOL0     H59631  -1.399   5.764   6.461 -0.4012  0.0216 -0.5659
  442MOL0     H59632  -1.502   5.795   6.594 -0.0918 -0.1390  0.0740
  442MOL0     H59633  -1.579   5.740   6.449  0.1203 -0.7102  1.5651
  442MOL0     H59634  -2.030   5.864   6.329 -1.1171  1.1686  0.2126
  442MOL0     H59635  -2.229   5.792   6.395  2.4892 -1.3801  0.8637
  442MOL0     H59636  -2.449   5.773   6.492  2.7935  2.6243 -0.3249
  442MOL0     H59637  -2.349   5.703   6.619 -0.4672  0.0147 -0.3279
  442MOL0     H59638  -2.573   5.654   6.688 -1.0236 -0.2279 -0.1439
  442MOL0     H59639  -2.531   5.793   6.790 -5.0915 -0.1185  0.5394
  442MOL0     H59640  -2.701   5.779   6.547  2.2898 -2.5759  0.4036
  442MOL0     H59641  -2.660   5.939   6.622 -1.9462  0.0153 -1.9596
  442MOL0     H59642  -2.802   5.700   6.775 -0.6022 -1.0046 -1.4737
  442MOL0     H59643  -2.761   5.860   6.838  0.0275 -0.1624 -0.1959
  442MOL0     H59644  -2.940   5.812   6.592 -1.7706 -1.2119  0.7929
  442MOL0     H59645  -2.919   5.964   6.698  0.1094 -0.1026 -0.8006
  442MOL0     H59646  -3.040   5.716   6.807 -1.5624  0.4905  1.7842
  442MOL0     H59647  -3.035   5.878   6.863 -0.0126 -1.2920  0.6664
  442MOL0     H59648  -3.179   5.763   6.609  1.9779 -1.3184  1.0754
  442MOL0     H59649  -3.171   5.934   6.649 -1.8467  0.7955 -0.0226
  442MOL0     H59650  -3.369   5.872   6.749  1.0658 -0.7984 -3.7311
  442MOL0     H59651  -3.254   5.849   6.884  2.3506  0.1106 -1.1239
  442MOL0     H59652  -2.245   6.117   6.674  0.4862 -1.1315  1.6060
  442MOL0     H59653  -2.006   6.173   6.628  1.9660 -1.0785  1.6612
  442MOL0     H59654  -1.703   6.238   6.354 -0.2281 -0.1348 -0.1844
  442MOL0     H59655  -1.513   6.331   6.314  0.6876 -1.5323 -1.0782
  442MOL0     H59656   0.233   6.045   7.198 -2.8910  1.3506  0.9536
  442MOL0     H59657   0.468   6.009   7.249  0.1817 -2.3909  3.2127
  442MOL0     H59658   0.835   6.111   7.496 -1.3049 -2.0945 -2.1868
  442MOL0     H59659   1.075   6.107   7.536  0.7662  1.9768 -0.1195
  442MOL0     H59660   1.349   6.131   7.533  1.8729 -2.0747 -0.0806
  442MOL0     H59661   1.265   5.997   7.450 -0.3821 -0.7550 -3.5504
  442MOL0     H59662   1.440   6.006   7.276  0.2550  0.6476 -0.1349
  442MOL0     H59663   1.480   5.926   7.433  2.1916  0.2023 -3.8314
  442MOL0     H59664   1.574   6.151   7.513 -2.8348  0.7533 -0.9082
  442MOL0     H59665   1.570   6.189   7.340  0.4818  1.4678  1.5648
  442MOL0     H59666   1.785   6.113   7.381 -0.4224  1.0872  1.5796
  442MOL0     H59667   1.691   5.972   7.310  0.4015  3.7264 -3.8111
  442MOL0     H59668   1.794   5.838   7.708  0.5697 -0.6911 -0.5124
  442MOL0     H59669   1.146   6.280   7.147  1.8316  0.3964  2.8343
  442MOL0     H59670   0.892   6.312   7.125  0.5576 -0.5594 -0.8499
  443MOL0     O59671   3.746   0.381   0.812  0.7250 -0.5128  0.1017
  443MOL0     C59672   3.824   0.374   0.720 -0.1674  0.4842  0.4365
  443MOL0     O59673   3.800   0.403   0.587 -0.9955 -0.0091  0.2390
  443MOL0     C59674   3.688   0.474   0.564 -0.4069  0.1523  0.5584
  443MOL0     C59675   3.689   0.608   0.598  0.8685 -0.3125  0.1337
  443MOL0     C59676   3.565   0.674   0.572 -0.1912 -0.4761  0.1819
  443MOL0     C59677   3.450   0.608   0.520  0.3310 -0.6307  0.7578
  443MOL0     O59678   3.335   0.679   0.530 -0.1774  0.3175  0.4870
  443MOL0     C59679   3.284   0.716   0.400  0.3171  0.1291 -0.8181
  443MOL0     C59680   3.165   0.802   0.418  0.1363 -0.6042  0.3955
  443MOL0     C59681   3.040   0.738   0.484 -0.1495  0.2237 -0.0478
  443MOL0     C59682   2.934   0.690   0.375  0.4022 -0.1676  0.3606
  443MOL0     C59683   2.817   0.609   0.438  0.5345 -0.2185  0.1490
  443MOL0     C59684   2.728   0.709   0.523 -0.1704  0.3886  1.1829
  443MOL0     C59685   2.609   0.629   0.590  0.6883 -0.1199  0.7434
  443MOL0     C59686   2.506   0.723   0.651 -0.4299  0.0981  1.1613
  443MOL0     N59687   2.436   0.802   0.550 -0.0641 -1.0199  0.2270
  443MOL0     C59688   2.349   0.757   0.455 -0.1217 -1.2581 -0.1425
  443MOL0     C59689   2.309   0.868   0.379 -0.4944  1.2067 -0.0639
  443MOL0     C59690   2.189   0.888   0.284 -0.1075 -1.4822 -0.0652
  443MOL0     C59691   2.062   0.935   0.355 -0.4117  0.0112 -0.2554
  443MOL0     C59692   2.016   0.827   0.460  0.7664 -0.1610 -0.5357
  443MOL0     C59693   1.915   0.906   0.538  0.5233  0.6594 -0.5709
  443MOL0     O59694   1.821   0.811   0.601  0.1040 -0.3379  0.6905
  443MOL0     C59695   1.703   0.858   0.663 -0.6405 -0.6097  0.5465
  443MOL0     C59696   1.702   0.992   0.709 -1.1245  0.0677 -0.0403
  443MOL0     C59697   1.603   1.047   0.788  0.0367 -0.5467 -0.2041
  443MOL0     C59698   1.623   1.198   0.827  0.2492 -0.1377 -0.6223
  443MOL0     C59699   1.485   0.969   0.825 -0.5402  1.0223 -0.3990
  443MOL0     C59700   1.374   1.019   0.908  0.3560 -0.5011 -0.3780
  443MOL0     O59701   1.359   1.153   0.923 -0.5774 -0.0150  0.0416
  443MOL0     C59702   1.268   1.212   1.006 -0.0328  0.6235 -0.6848
  443MOL0     C59703   1.157   1.273   0.949  0.4689 -0.1056 -0.2896
  443MOL0     C59704   1.056   1.342   1.027 -0.2728  0.3238  0.6928
  443MOL0     C59705   1.077   1.359   1.164  0.3803  0.6132 -0.5478
  443MOL0     O59706   0.990   1.426   1.252  0.0077 -0.2087 -0.0234
  443MOL0     C59707   0.920   1.535   1.188 -0.0094  0.1866  0.4068
  443MOL0     C59708   1.015   1.644   1.143  0.5155 -0.5169 -0.1252
  443MOL0     C59709   0.933   1.777   1.134  0.2592  1.3355 -0.7716
  443MOL0     C59710   1.037   1.889   1.109 -0.1047  0.1986  0.2038
  443MOL0     C59711   0.984   2.033   1.137  0.7499 -0.3195 -0.0601
  443MOL0     C59712   0.853   2.073   1.068 -0.6050 -0.2030  0.2235
  443MOL0     C59713   0.813   2.222   1.079 -0.1479  0.6465  0.0440
  443MOL0     C59714   0.711   2.272   0.971 -0.0866 -0.0328 -0.4149
  443MOL0    Cl59715   0.559   2.186   0.958 -0.0480  0.1517  0.6706
  443MOL0     C59716   1.190   1.300   1.220 -0.8315 -0.1528 -0.3214
  443MOL0     C59717   1.281   1.226   1.143  0.3705 -0.0906  0.1369
  443MOL0     O59718   1.295   0.936   0.949  0.7346  0.2397  0.1581
  443MOL0     C59719   1.485   0.835   0.776 -1.5307  0.2977 -0.3583
  443MOL0     C59720   1.590   0.779   0.690  0.2913 -0.5724  0.2179
  443MOL0     N59721   2.377   0.973   0.433  0.8102  0.6260  0.5191
  443MOL0     N59722   2.456   0.932   0.523  0.8708  0.2828 -0.3357
  443MOL0     C59723   3.468   0.482   0.470 -0.8385 -0.4688  0.0411
  443MOL0     C59724   3.583   0.415   0.498 -0.0274  1.0444 -0.6415
  443MOL0     C59725   3.954   0.325   0.759 -0.0318  0.5359  0.3691
  443MOL0     C59726   4.059   0.302   0.664  0.2550 -0.4476  0.4138
  443MOL0     C59727   4.177   0.232   0.695  0.4944  0.0488  0.2076
  443MOL0     C59728   4.203   0.194   0.826  0.6985 -0.3698  0.1231
  443MOL0     O59729   4.312   0.119   0.849 -0.5677  0.5389 -0.1411
  443MOL0     C59730   4.396   0.168   0.952 -0.6242 -0.5387  0.7853
  443MOL0     C59731   4.500   0.262   0.897 -0.1998  0.2199 -0.0040
  443MOL0     C59732   4.605   0.194   0.799 -0.3592  0.1345 -0.8616
  443MOL0     C59733   4.716   0.290   0.745 -0.0606 -0.3020 -0.4684
  443MOL0     C59734   4.829   0.208   0.693  0.7184  0.3163 -0.2201
  443MOL0     C59735   4.933   0.160   0.649 -0.5877  0.1321  0.1095
  443MOL0     C59736   4.109   0.213   0.927 -0.7364 -0.5164 -0.6642
  443MOL0     C59737   3.984   0.278   0.896  0.1938  0.8018  0.5949
  443MOL0     H59738   3.775   0.657   0.642  1.7142 -2.4573  1.0281
  443MOL0     H59739   3.559   0.781   0.593 -2.4561 -0.4999 -0.0467
  443MOL0     H59740   3.362   0.760   0.337  1.3574 -2.3056 -1.3778
  443MOL0     H59741   3.252   0.626   0.347  2.0709 -0.0197 -1.7179
  443MOL0     H59742   3.207   0.881   0.480  2.2399 -1.2715 -0.1107
  443MOL0     H59743   3.132   0.838   0.320 -0.9786  0.3025  1.0785
  443MOL0     H59744   3.074   0.648   0.536  0.3774  0.0676 -0.6452
  443MOL0     H59745   2.994   0.801   0.560 -1.2307  0.2217 -0.6696
  443MOL0     H59746   2.887   0.772   0.320 -1.5149 -0.2526  1.7495
  443MOL0     H59747   2.983   0.634   0.295 -0.7624  0.6837 -0.9959
  443MOL0     H59748   2.755   0.575   0.355  1.5512  0.4537 -0.9152
  443MOL0     H59749   2.852   0.530   0.505  0.1707 -0.1620  0.4096
  443MOL0     H59750   2.796   0.750   0.598 -1.7006  0.4692  2.5701
  443MOL0     H59751   2.697   0.797   0.466  2.0590 -0.6770 -1.9542
  443MOL0     H59752   2.558   0.572   0.511 -0.4273  3.9273 -1.7824
  443MOL0     H59753   2.661   0.581   0.673  3.7114 -0.3211 -1.1431
  443MOL0     H59754   2.549   0.792   0.724 -0.8481  0.1176  1.3917
  443MOL0     H59755   2.429   0.667   0.705 -1.2050  0.1261  0.1043
  443MOL0     H59756   2.320   0.653   0.440  1.0133 -1.6473  0.2593
  443MOL0     H59757   2.217   0.971   0.219 -1.9796 -0.6525  0.1323
  443MOL0     H59758   2.177   0.803   0.216  0.2553 -1.2971 -0.3663
  443MOL0     H59759   1.986   0.954   0.279  1.3883  0.8081 -1.9271
  443MOL0     H59760   2.086   1.035   0.392  1.1135 -0.5920  0.4631
  443MOL0     H59761   2.092   0.781   0.524  0.1306 -0.2696  0.1461
  443MOL0     H59762   1.969   0.741   0.412 -0.4670 -1.2402  2.3688
  443MOL0     H59763   1.861   0.975   0.473 -3.4739 -1.7524 -0.1568
  443MOL0     H59764   1.973   0.965   0.610  0.0835 -1.0190  1.2427
  443MOL0     H59765   1.787   1.057   0.693 -0.9547 -0.2916 -0.6127
  443MOL0     H59766   1.600   1.205   0.934  1.7317 -3.6493  0.0538
  443MOL0     H59767   1.722   1.235   0.800 -0.5890  1.2349 -1.9517
  443MOL0     H59768   1.544   1.259   0.782  0.8156  0.8725 -0.2678
  443MOL0     H59769   1.147   1.281   0.842 -1.3078  2.0532 -0.0289
  443MOL0     H59770   0.974   1.379   0.968 -1.2713 -1.8445  0.6209
  443MOL0     H59771   0.868   1.491   1.103  0.7015 -2.0351  1.0348
  443MOL0     H59772   0.851   1.590   1.252 -0.4254 -1.7632  1.7326
  443MOL0     H59773   1.096   1.652   1.216 -1.7149 -0.0623  2.4796
  443MOL0     H59774   1.057   1.605   1.050 -1.6763  0.4269 -1.5899
  443MOL0     H59775   0.884   1.796   1.230 -0.3099 -2.7361 -0.0973
  443MOL0     H59776   0.858   1.774   1.055 -1.6411 -2.3719  0.9379
  443MOL0     H59777   1.122   1.879   1.178 -1.4589 -0.8151  1.7838
  443MOL0     H59778   1.082   1.879   1.009 -1.1510 -1.8965 -0.1146
  443MOL0     H59779   1.064   2.102   1.106  0.4933  1.0095  2.0096
  443MOL0     H59780   0.969   2.057   1.242  0.3728  0.7165 -0.3414
  443MOL0     H59781   0.861   2.054   0.960  0.5349  3.1878 -0.4129
  443MOL0     H59782   0.768   2.010   1.097 -1.2086  0.6404  0.3406
  443MOL0     H59783   0.900   2.289   1.071 -0.1104  0.6128  0.1632
  443MOL0     H59784   0.761   2.233   1.175 -1.0033 -0.0052 -0.3319
  443MOL0     H59785   0.759   2.266   0.872  2.2119  0.4882  0.5958
  443MOL0     H59786   0.683   2.375   0.993 -1.6992 -0.7195  0.9751
  443MOL0     H59787   1.199   1.312   1.328 -2.4893  0.6226 -0.2290
  443MOL0     H59788   1.367   1.174   1.185  0.9350  1.0461  0.4273
  443MOL0     H59789   1.413   0.758   0.800  2.1308 -2.6446  2.2779
  443MOL0     H59790   1.582   0.676   0.658  0.1422 -0.2964 -0.6533
  443MOL0     H59791   3.386   0.449   0.408  0.0035 -1.5818 -0.5160
  443MOL0     H59792   3.596   0.315   0.458  1.8478  0.9533  0.1089
  443MOL0     H59793   4.031   0.340   0.566 -3.7306  0.7579  1.8361
  443MOL0     H59794   4.250   0.217   0.615 -1.1233  2.1238 -1.7918
  443MOL0     H59795   4.332   0.231   1.015  0.6572  0.3230  1.2678
  443MOL0     H59796   4.454   0.092   1.005  0.6133 -1.2027 -1.4210
  443MOL0     H59797   4.557   0.293   0.984  3.7540 -0.5797 -2.0821
  443MOL0     H59798   4.449   0.337   0.835 -1.0633 -1.3989 -1.3268
  443MOL0     H59799   4.547   0.150   0.718 -1.0482 -0.3223 -0.1270
  443MOL0     H59800   4.644   0.104   0.847 -0.9668  0.7672  0.8855
  443MOL0     H59801   4.760   0.345   0.828  1.0540  2.6533 -2.8635
  443MOL0     H59802   4.685   0.369   0.677  0.4431 -1.3290 -1.9488
  443MOL0     H59803   5.023   0.107   0.627 -0.6273  0.5669 -1.1625
  443MOL0     H59804   4.137   0.184   1.027  0.5228 -1.0911 -1.1532
  443MOL0     H59805   3.920   0.286   0.984  1.0128 -3.4660  1.8303
  444MOL0     O59806   9.839   4.511   1.281 -0.8811  0.1985 -0.1104
  444MOL0     C59807   9.855   4.561   1.173 -0.9097  0.3798 -0.2736
  444MOL0     O59808   9.972   4.554   1.103 -0.1719 -0.3350 -0.8571
  444MOL0     C59809  10.082   4.499   1.156 -0.0445 -0.5330  0.0330
  444MOL0     C59810  10.195   4.547   1.094 -0.3988 -0.1289  0.7061
  444MOL0     C59811  10.322   4.490   1.130 -0.6326 -0.1103  0.0122
  444MOL0     C59812  10.346   4.385   1.219  0.5166 -0.1816  0.2162
  444MOL0     O59813  10.478   4.351   1.243  0.6767  0.2658 -0.0440
  444MOL0     C59814  10.516   4.213   1.270  0.5972  0.6167  1.1331
  444MOL0     C59815  10.659   4.184   1.316 -0.3104 -0.4008 -0.0328
  444MOL0     C59816  10.724   4.307   1.388 -0.5366 -0.3749  0.2060
  444MOL0     C59817  10.872   4.296   1.388 -0.9125  0.0826  0.0342
  444MOL0     C59818  10.935   4.398   1.481 -0.4439  0.6880 -0.5091
  444MOL0     C59819  11.082   4.433   1.453 -0.3007 -0.0147  0.5442
  444MOL0     C59820  11.126   4.555   1.509 -0.3071 -0.2467 -0.2839
  444MOL0     C59821  11.277   4.587   1.482 -0.0333 -0.6342 -0.2997
  444MOL0     N59822  11.308   4.626   1.340  0.3550 -0.0687  0.1624
  444MOL0     C59823  11.396   4.561   1.261 -0.3958 -0.0321  0.1435
  444MOL0     C59824  11.397   4.632   1.145  0.0123 -0.3419  0.5031
  444MOL0     C59825  11.492   4.604   1.029 -0.2212 -0.4686  0.6602
  444MOL0     C59826  11.424   4.504   0.932 -0.2676 -1.0206 -0.5804
  444MOL0     C59827  11.301   4.422   0.971 -0.4232 -0.4771  0.4149
  444MOL0     C59828  11.274   4.310   0.865 -0.2254 -0.2578 -0.4966
  444MOL0     O59829  11.151   4.250   0.893  0.0064  0.0817 -0.2831
  444MOL0     C59830  11.036   4.312   0.861 -0.2100 -1.0396  0.6548
  444MOL0     C59831  10.921   4.261   0.917  0.0685  0.4440  0.3418
  444MOL0     C59832  10.792   4.310   0.887  0.0364 -0.0525  0.1851
  444MOL0     C59833  10.676   4.229   0.939  0.2879 -0.2466  0.8678
  444MOL0     C59834  10.781   4.416   0.796 -0.4193  0.1921  0.5812
  444MOL0     C59835  10.648   4.479   0.769  0.2629 -0.0981 -0.5671
  444MOL0     O59836  10.532   4.415   0.806  0.2825 -0.4868  0.3716
  444MOL0     C59837  10.414   4.477   0.759  0.9068 -0.0240  0.4408
  444MOL0     C59838  10.378   4.607   0.790  0.5023 -0.3602 -0.4424
  444MOL0     C59839  10.267   4.659   0.740  0.5896 -0.3297 -0.5394
  444MOL0     C59840  10.169   4.592   0.671  0.0056 -0.8528 -0.2205
  444MOL0     O59841  10.048   4.657   0.651 -0.0381  0.0461 -0.6777
  444MOL0     C59842   9.927   4.588   0.633 -0.1272 -0.2151 -0.9416
  444MOL0     C59843   9.893   4.570   0.481  0.1699  0.2243  0.4563
  444MOL0     C59844   9.841   4.696   0.408 -0.3539  0.1170  0.2734
  444MOL0     C59845   9.691   4.727   0.452  0.0246  0.4368  0.7163
  444MOL0     C59846   9.591   4.619   0.468 -0.5043  0.5711 -0.7940
  444MOL0     C59847   9.569   4.534   0.340 -0.9310 -0.0458 -0.0124
  444MOL0     C59848   9.468   4.423   0.337 -0.2908  0.0539 -0.6180
  444MOL0     C59849   9.498   4.302   0.425 -0.6766 -0.1729  0.4066
  444MOL0    Cl59850   9.644   4.217   0.378 -0.5127  0.3251 -0.1419
  444MOL0     C59851  10.197   4.456   0.630  0.7195 -0.5263 -0.7732
  444MOL0     C59852  10.322   4.402   0.674  0.0800 -1.0564  0.8125
  444MOL0     O59853  10.657   4.561   0.675  0.0354  0.0059 -0.3370
  444MOL0     C59854  10.901   4.468   0.745  0.2440 -0.2075  0.3490
  444MOL0     C59855  11.025   4.423   0.778  0.4481 -1.1707 -0.7900
  444MOL0     N59856  11.310   4.738   1.165  0.2470 -1.5155  0.6973
  444MOL0     N59857  11.253   4.729   1.275  0.2426 -0.4735 -0.8470
  444MOL0     C59858  10.232   4.338   1.279  0.6395  0.0917  0.5451
  444MOL0     C59859  10.100   4.394   1.252 -0.2565  0.0166 -0.6426
  444MOL0     C59860   9.747   4.641   1.104 -0.2617  1.3633  0.3960
  444MOL0     C59861   9.624   4.659   1.170 -0.0199  0.2198  0.3772
  444MOL0     C59862   9.525   4.737   1.107 -0.1629  0.3058 -0.4060
  444MOL0     C59863   9.547   4.784   0.978  0.7362  0.1762 -0.7628
  444MOL0     O59864   9.441   4.855   0.923 -0.0896  0.8905 -0.0794
  444MOL0     C59865   9.432   4.904   0.789 -0.0723  0.8300 -0.2068
  444MOL0     C59866   9.292   4.955   0.788 -0.3928  0.1643 -0.3187
  444MOL0     C59867   9.192   4.839   0.791  0.8432 -0.0980 -0.7036
  444MOL0     C59868   9.064   4.887   0.866  0.1023  0.8351 -0.4108
  444MOL0     C59869   8.954   4.799   0.842 -0.0093  0.4379  0.2412
  444MOL0     C59870   8.871   4.716   0.800  0.2734 -0.2350  0.0715
  444MOL0     C59871   9.668   4.758   0.916  0.3301  0.1967 -0.1115
  444MOL0     C59872   9.770   4.685   0.971  0.6352 -0.3293  0.2548
  444MOL0     H59873  10.193   4.627   1.021  2.9766  0.0264  0.6366
  444MOL0     H59874  10.411   4.524   1.078  0.7000 -2.9378  0.2329
  444MOL0     H59875  10.445   4.175   1.344 -0.9065 -1.6578 -1.2675
  444MOL0     H59876  10.501   4.152   1.180  0.9097 -2.6932  3.1499
  444MOL0     H59877  10.653   4.096   1.380 -0.8517 -1.2064 -1.1691
  444MOL0     H59878  10.723   4.161   1.231  0.6341 -3.6693  1.4017
  444MOL0     H59879  10.695   4.397   1.334  1.7272 -0.7626 -1.7888
  444MOL0     H59880  10.678   4.309   1.488 -1.6037  0.1086 -0.2754
  444MOL0     H59881  10.901   4.193   1.412  0.5223  0.3543 -0.4050
  444MOL0     H59882  10.910   4.323   1.289  0.8758  0.3812  0.7569
  444MOL0     H59883  10.877   4.490   1.501 -2.7332 -1.2482  2.9434
  444MOL0     H59884  10.936   4.354   1.581 -3.6734  2.2300  0.3626
  444MOL0     H59885  11.149   4.350   1.476  0.1201  0.2144  0.1453
  444MOL0     H59886  11.088   4.451   1.345 -2.0747 -1.7264  0.0886
  444MOL0     H59887  11.074   4.641   1.467 -0.4498  0.7793  1.8657
  444MOL0     H59888  11.114   4.552   1.618  0.1108 -0.6686 -0.2437
  444MOL0     H59889  11.340   4.498   1.493  0.3995 -0.3587 -0.5209
  444MOL0     H59890  11.311   4.664   1.551  4.3288 -0.0992 -2.6769
  444MOL0     H59891  11.454   4.480   1.304 -1.0420  0.5291  2.1554
  444MOL0     H59892  11.522   4.699   0.983 -3.1223  0.0286 -0.4404
  444MOL0     H59893  11.583   4.560   1.070  0.9254  1.4338  0.3118
  444MOL0     H59894  11.507   4.438   0.905  1.9271  1.1101  0.4967
  444MOL0     H59895  11.400   4.574   0.851  0.0983 -2.8685 -2.3574
  444MOL0     H59896  11.212   4.484   0.982  1.2184  2.1303 -0.1732
  444MOL0     H59897  11.318   4.365   1.063  1.2653 -1.7454 -0.6212
  444MOL0     H59898  11.345   4.227   0.872  1.3793  1.1570  0.9075
  444MOL0     H59899  11.277   4.348   0.763 -1.4171 -0.4005 -0.5978
  444MOL0     H59900  10.918   4.180   0.989 -1.8518 -0.3812 -0.5869
  444MOL0     H59901  10.631   4.182   0.851 -1.1578  2.6354 -0.0556
  444MOL0     H59902  10.712   4.151   1.008 -2.2415 -2.8039 -0.4801
  444MOL0     H59903  10.606   4.291   0.994 -2.1076  0.1192 -2.3047
  444MOL0     H59904  10.451   4.666   0.843 -0.5579  0.4169  0.1864
  444MOL0     H59905  10.236   4.760   0.767 -2.0890 -1.4369  1.0354
  444MOL0     H59906   9.940   4.488   0.675  2.1079  0.1913 -0.5521
  444MOL0     H59907   9.851   4.639   0.693 -0.8521 -1.4533 -0.7719
  444MOL0     H59908   9.981   4.529   0.432  1.0278  0.6257  1.6317
  444MOL0     H59909   9.813   4.495   0.476 -2.7954  2.9062  3.1148
  444MOL0     H59910   9.858   4.683   0.301  0.1388  1.9643  0.0818
  444MOL0     H59911   9.905   4.782   0.432 -0.5031  0.5328 -0.7877
  444MOL0     H59912   9.694   4.792   0.540  2.0060  0.5334  0.6309
  444MOL0     H59913   9.647   4.786   0.371 -1.9511  0.4193  1.7046
  444MOL0     H59914   9.495   4.661   0.500  0.6147  1.3915  1.7491
  444MOL0     H59915   9.617   4.554   0.553 -0.9934  2.5228  0.9295
  444MOL0     H59916   9.542   4.612   0.269 -0.1074 -0.0758 -0.3604
  444MOL0     H59917   9.665   4.494   0.307  0.3437 -1.5550  4.6829
  444MOL0     H59918   9.460   4.383   0.236 -2.5461  3.5948 -2.0477
  444MOL0     H59919   9.370   4.466   0.362  0.7872  2.2632  0.1250
  444MOL0     H59920   9.420   4.226   0.423  1.1603 -2.1925  0.9516
  444MOL0     H59921   9.512   4.337   0.528 -0.6649  0.5697  0.1616
  444MOL0     H59922  10.123   4.403   0.571 -0.8103  1.3033 -0.6046
  444MOL0     H59923  10.351   4.306   0.633 -0.4296 -0.6415 -0.6065
  444MOL0     H59924  10.896   4.556   0.682  2.0358 -1.8940 -2.3958
  444MOL0     H59925  11.118   4.465   0.741 -1.1291 -0.8447 -4.9920
  444MOL0     H59926  10.244   4.255   1.348  0.5278  1.2013  1.9503
  444MOL0     H59927  10.016   4.341   1.295 -0.5813  0.9949 -0.0295
  444MOL0     H59928   9.601   4.614   1.266 -0.9169 -0.4373 -0.1423
  444MOL0     H59929   9.436   4.750   1.168 -0.7464  2.7180 -1.6711
  444MOL0     H59930   9.489   4.994   0.764 -1.4016  1.7387 -0.0774
  444MOL0     H59931   9.457   4.837   0.707  0.9075  1.1924 -0.2158
  444MOL0     H59932   9.269   5.025   0.708  3.2803  2.4925  0.3990
  444MOL0     H59933   9.275   5.014   0.878 -0.5700 -0.5235  0.1089
  444MOL0     H59934   9.229   4.754   0.849 -1.0617 -0.4135  0.1142
  444MOL0     H59935   9.152   4.808   0.694 -4.0214  0.0291  1.0118
  444MOL0     H59936   9.044   4.983   0.817 -1.4060 -0.1106 -1.7439
  444MOL0     H59937   9.087   4.895   0.972  2.7311  1.0407 -0.9199
  444MOL0     H59938   8.802   4.645   0.758  1.3435  0.3197 -2.8782
  444MOL0     H59939   9.697   4.787   0.816  0.4122  0.6958  0.0537
  444MOL0     H59940   9.863   4.658   0.922  0.8423  2.9310 -1.5134
  445MOL0     O59941   7.111   2.664   8.220 -0.0898  0.8738 -0.5862
  445MOL0     C59942   7.126   2.743   8.312  0.7136  0.6037  0.2595
  445MOL0     O59943   7.024   2.776   8.400  0.0366  0.0714 -0.2643
  445MOL0     C59944   6.907   2.700   8.405  0.0403  0.0969 -1.0117
  445MOL0     C59945   6.908   2.562   8.397  0.2337  0.1545  0.0080
  445MOL0     C59946   6.791   2.488   8.399 -0.5410 -0.5755  0.6744
  445MOL0     C59947   6.678   2.547   8.439  0.4165 -0.3498 -0.4766
  445MOL0     O59948   6.569   2.464   8.453  0.2307 -0.5061  0.1532
  445MOL0     C59949   6.447   2.515   8.515  0.3524  0.1825 -0.0258
  445MOL0     C59950   6.338   2.435   8.435  0.4515  0.4175 -1.0414
  445MOL0     C59951   6.204   2.453   8.494  0.6931 -0.0647  0.3662
  445MOL0     C59952   6.087   2.471   8.397 -0.1334 -0.3952 -0.8037
  445MOL0     C59953   5.954   2.446   8.464 -0.1989 -0.5215  0.1879
  445MOL0     C59954   5.855   2.473   8.354  0.7446 -0.4074 -0.6193
  445MOL0     C59955   5.721   2.414   8.389 -0.2151 -0.5650  0.2861
  445MOL0     C59956   5.705   2.271   8.367 -0.9370 -0.1230 -0.6324
  445MOL0     N59957   5.585   2.215   8.427 -0.2806  0.0006  0.4314
  445MOL0     C59958   5.465   2.267   8.427  0.3110 -0.6044  0.1551
  445MOL0     C59959   5.396   2.174   8.500 -0.5179 -0.5757 -0.2633
  445MOL0     C59960   5.253   2.174   8.531 -1.0668  0.2492  0.4652
  445MOL0     C59961   5.180   2.038   8.517 -0.4178 -0.5033  0.3772
  445MOL0     C59962   5.178   1.953   8.647 -0.1174 -0.3401 -0.3585
  445MOL0     C59963   5.084   1.995   8.762  0.0602 -0.1624 -0.0797
  445MOL0     O59964   4.954   2.039   8.717  0.7780  0.6861 -0.4408
  445MOL0     C59965   4.850   2.036   8.810 -0.3507 -0.5622  0.5851
  445MOL0     C59966   4.879   2.036   8.946  0.4982  0.4545 -0.8254
  445MOL0     C59967   4.777   2.054   9.040 -0.4685  0.5424  0.8157
  445MOL0     C59968   4.826   2.069   9.185  0.6118  0.0165 -0.4672
  445MOL0     C59969   4.640   2.051   9.001  0.7352  0.6139 -0.0172
  445MOL0     C59970   4.522   2.050   9.097  0.8660 -0.1110  0.3169
  445MOL0     O59971   4.393   2.044   9.041 -0.0091  0.2274 -0.3438
  445MOL0     C59972   4.290   2.072   9.135 -0.1783  0.0735 -0.0662
  445MOL0     C59973   4.266   2.000   9.252  0.1946  0.5836 -0.4020
  445MOL0     C59974   4.157   2.020   9.331  0.2150 -0.3137  0.4645
  445MOL0     C59975   4.063   2.113   9.293  0.7623 -0.9543  0.5529
  445MOL0     O59976   3.949   2.134   9.370  1.1015  0.8555  0.5810
  445MOL0     C59977   3.975   2.179   9.505  0.0347  0.8868 -0.2459
  445MOL0     C59978   3.851   2.258   9.551  0.1078 -0.4488  0.4511
  445MOL0     C59979   3.893   2.335   9.680 -0.1198 -0.0114 -0.8590
  445MOL0     C59980   3.769   2.412   9.738  0.0033  0.2009 -0.2119
  445MOL0     C59981   3.783   2.483   9.867  0.4668 -0.2552 -1.1976
  445MOL0     C59982   3.656   2.552   9.910 -1.0421  0.4445 -0.0211
  445MOL0     C59983   3.678   2.646  10.025 -0.1230 -0.3217 -0.7314
  445MOL0     C59984   3.543   2.692  10.091 -0.7454 -0.6746  0.4839
  445MOL0    Cl59985   3.448   2.788   9.958 -0.1444 -0.1222 -0.4176
  445MOL0     C59986   4.081   2.196   9.184 -0.2363  0.0275  0.2243
  445MOL0     C59987   4.193   2.168   9.099 -0.0224 -0.0345 -0.8348
  445MOL0     O59988   4.543   2.056   9.212  0.3409  0.4741 -0.2694
  445MOL0     C59989   4.611   2.055   8.863  0.0775 -1.2918 -0.0676
  445MOL0     C59990   4.715   2.046   8.766  0.6117 -0.7550 -0.1536
  445MOL0     N59991   5.482   2.070   8.547  0.0123 -0.1098  0.6935
  445MOL0     N59992   5.597   2.103   8.505  0.4458  0.2438 -0.3462
  445MOL0     C59993   6.671   2.689   8.462 -0.6622 -0.4438 -0.5699
  445MOL0     C59994   6.791   2.764   8.439  0.2604  0.8182 -0.8254
  445MOL0     C59995   7.260   2.806   8.337  0.3241  0.5762 -0.5417
  445MOL0     C59996   7.283   2.896   8.440  0.2526 -0.5612 -0.4425
  445MOL0     C59997   7.413   2.959   8.444 -0.3847  0.0352  0.4393
  445MOL0     C59998   7.521   2.911   8.364 -1.0370  0.0319  0.6646
  445MOL0     O59999   7.648   2.967   8.376  0.2346  0.4855  0.5389
  445MOL0     C60000   7.764   2.912   8.313 -0.1758 -0.7086  0.1798
  445MOL0     C60001   7.881   2.997   8.355  1.5049 -0.3718  0.1158
  445MOL0     C60002   7.871   3.078   8.486 -0.4037  0.6528  0.0675
  445MOL0     C60003   8.009   3.122   8.533 -0.4307 -0.0762  0.0383
  445MOL0     C60004   8.075   3.230   8.454  0.3783 -0.6947  0.0598
  445MOL0     C60005   8.128   3.329   8.409  0.0675  0.1047 -0.1407
  445MOL0     C60006   7.498   2.805   8.276 -0.1905 -0.5051 -0.3166
  445MOL0     C60007   7.370   2.759   8.256  0.3224 -0.1938  0.5218
  445MOL0     H60008   7.002   2.510   8.384  0.2341 -0.7197  2.8190
  445MOL0     H60009   6.792   2.380   8.385  1.3855 -0.9448  2.9578
  445MOL0     H60010   6.433   2.483   8.619  4.6308  0.4413  0.8104
  445MOL0     H60011   6.432   2.622   8.497  2.5948  0.0719 -3.4226
  445MOL0     H60012   6.345   2.455   8.328  2.4521  0.1767 -0.9912
  445MOL0     H60013   6.359   2.329   8.450 -0.2555  0.4258  0.1712
  445MOL0     H60014   6.179   2.363   8.551 -2.9204 -0.2850 -1.3251
  445MOL0     H60015   6.205   2.534   8.567  0.7140  2.0747 -1.8906
  445MOL0     H60016   6.094   2.573   8.358  0.7671 -0.2507 -0.2925
  445MOL0     H60017   6.088   2.398   8.315 -2.2547 -0.9743 -0.3747
  445MOL0     H60018   5.944   2.346   8.506 -2.3649 -1.3933 -2.1876
  445MOL0     H60019   5.939   2.523   8.541 -1.9405  1.5324 -2.0438
  445MOL0     H60020   5.844   2.581   8.341  1.4440 -0.3048 -0.4439
  445MOL0     H60021   5.887   2.424   8.261  0.7520 -0.6616 -0.4833
  445MOL0     H60022   5.694   2.439   8.492  1.5869  2.5387  0.1252
  445MOL0     H60023   5.652   2.468   8.323 -0.8722 -0.0981  1.3253
  445MOL0     H60024   5.787   2.221   8.419 -0.1499  1.5664 -0.1550
  445MOL0     H60025   5.704   2.253   8.259  1.1373  1.8771 -1.0722
  445MOL0     H60026   5.423   2.355   8.379  1.9193  0.2295  0.2184
  445MOL0     H60027   5.250   2.200   8.637 -1.2087  0.3137  0.4438
  445MOL0     H60028   5.197   2.246   8.471 -0.3337  0.3720 -0.1005
  445MOL0     H60029   5.244   1.984   8.446 -0.7996 -1.0715  0.4679
  445MOL0     H60030   5.078   2.046   8.479 -0.6229  1.5199  1.2439
  445MOL0     H60031   5.277   1.938   8.693 -0.0586  1.1774  0.0692
  445MOL0     H60032   5.150   1.851   8.618 -2.1533  0.0345  0.1863
  445MOL0     H60033   5.131   2.073   8.823 -3.8422  0.7847  2.0530
  445MOL0     H60034   5.073   1.905   8.824 -1.2922 -1.9955 -2.8127
  445MOL0     H60035   4.978   2.027   8.991  1.7768  4.7206 -2.3512
  445MOL0     H60036   4.935   2.068   9.195  0.7743  0.4859 -1.9865
  445MOL0     H60037   4.783   2.160   9.227 -0.4665  0.0310 -1.5669
  445MOL0     H60038   4.790   1.988   9.249 -0.9697 -0.4095 -1.8480
  445MOL0     H60039   4.334   1.923   9.289 -3.2384 -1.5193  2.0561
  445MOL0     H60040   4.137   1.950   9.412  1.0920 -0.9950  0.1131
  445MOL0     H60041   4.001   2.093   9.567  2.0739  0.4519 -1.6349
  445MOL0     H60042   4.064   2.243   9.503  1.1507 -0.6481 -1.5891
  445MOL0     H60043   3.825   2.331   9.473 -2.9979 -1.8048  0.0793
  445MOL0     H60044   3.772   2.184   9.565  2.6263 -3.4692 -0.4270
  445MOL0     H60045   3.974   2.401   9.647 -0.1221 -0.5778 -2.0549
  445MOL0     H60046   3.918   2.262   9.757  2.9982 -0.1018 -1.8175
  445MOL0     H60047   3.740   2.490   9.668  1.4737  1.8848  0.9613
  445MOL0     H60048   3.681   2.350   9.758 -0.2307  0.8158  0.7741
  445MOL0     H60049   3.852   2.565   9.850 -1.2787  1.8844  1.1838
  445MOL0     H60050   3.821   2.423   9.951  1.5657  1.5883 -0.3212
  445MOL0     H60051   3.608   2.601   9.825  0.9920 -0.3551 -1.7168
  445MOL0     H60052   3.584   2.474   9.935 -0.2328  0.1279  1.4279
  445MOL0     H60053   3.729   2.735   9.987  0.5506 -0.5693 -0.4170
  445MOL0     H60054   3.731   2.606  10.112  1.1114  0.6141 -1.0301
  445MOL0     H60055   3.563   2.762  10.173  1.1974  0.8721 -1.1869
  445MOL0     H60056   3.486   2.603  10.120 -2.3211  0.7717  2.0163
  445MOL0     H60057   4.008   2.271   9.155 -0.5800 -0.9795 -1.7168
  445MOL0     H60058   4.203   2.229   9.010  0.4293 -0.6283 -1.1976
  445MOL0     H60059   4.506   2.064   8.839 -0.5278  0.5774  2.8794
  445MOL0     H60060   4.683   2.034   8.663 -0.5362  1.2253 -0.0832
  445MOL0     H60061   6.592   2.751   8.503 -1.0016 -1.7401  0.8515
  445MOL0     H60062   6.790   2.872   8.453  2.4080  0.7630  0.1606
  445MOL0     H60063   7.206   2.924   8.512  0.5279 -3.9594  1.3925
  445MOL0     H60064   7.432   3.040   8.514 -1.3502  1.2901 -0.7115
  445MOL0     H60065   7.778   2.813   8.358  0.6915 -0.2291  0.9951
  445MOL0     H60066   7.771   2.897   8.205  0.4545 -0.0720  0.1322
  445MOL0     H60067   7.903   3.071   8.278  0.3606 -0.9850 -0.8147
  445MOL0     H60068   7.971   2.934   8.358  1.5809 -0.2883 -0.4408
  445MOL0     H60069   7.826   3.028   8.573  1.3713 -1.4609 -0.1461
  445MOL0     H60070   7.804   3.162   8.465  0.3641  0.7596 -2.2299
  445MOL0     H60071   8.077   3.037   8.535 -1.7119 -1.1501 -0.5851
  445MOL0     H60072   7.995   3.153   8.636 -1.9549 -1.4605  0.2810
  445MOL0     H60073   8.181   3.418   8.384 -0.1870  0.7310  1.4335
  445MOL0     H60074   7.573   2.782   8.202  1.9630  0.1394  1.5676
  445MOL0     H60075   7.356   2.683   8.179  0.1909 -0.3851  0.7323
  446MOL0     O60076   8.958   1.114   0.139 -0.1525  0.1889 -0.1486
  446MOL0     C60077   9.064   1.094   0.077 -0.0685 -0.6530 -0.4263
  446MOL0     O60078   9.099   0.990  -0.001 -0.4886 -0.1087 -0.2725
  446MOL0     C60079   9.016   0.879  -0.008  0.0797  0.8091 -0.2368
  446MOL0     C60080   8.991   0.795   0.102  0.8024 -0.3383  0.4176
  446MOL0     C60081   8.905   0.683   0.078 -0.8484 -0.4606  1.0201
  446MOL0     C60082   8.852   0.651  -0.045 -0.4317 -0.7920  0.7390
  446MOL0     O60083   8.776   0.541  -0.069  0.3415 -0.0565  0.2770
  446MOL0     C60084   8.695   0.486   0.042 -0.0960 -0.1675 -0.4014
  446MOL0     C60085   8.557   0.446  -0.016 -0.3294 -0.7150  0.0469
  446MOL0     C60086   8.448   0.482   0.083  0.2995  0.2921 -0.2416
  446MOL0     C60087   8.311   0.461   0.025 -0.2392  0.0295  0.0543
  446MOL0     C60088   8.293   0.314  -0.022  0.3009  0.6379  0.9628
  446MOL0     C60089   8.144   0.281  -0.047 -0.0902  0.1873  0.1020
  446MOL0     C60090   8.119   0.133  -0.100  0.6240 -0.1197 -0.1993
  446MOL0     C60091   7.979   0.100  -0.157  0.6792 -0.0757  0.0652
  446MOL0     N60092   7.872   0.111  -0.054 -0.3868 -0.8556 -0.0565
  446MOL0     C60093   7.799   0.221  -0.016 -0.2278 -0.0286  0.6956
  446MOL0     C60094   7.707   0.175   0.069  0.3287 -0.0764  0.3102
  446MOL0     C60095   7.595   0.252   0.139  0.0246 -0.2234  0.3716
  446MOL0     C60096   7.498   0.303   0.033  0.0627  0.5792 -0.5456
  446MOL0     C60097   7.377   0.355   0.108  0.8577 -0.3023  0.5304
  446MOL0     C60098   7.266   0.394   0.007 -0.1582 -1.0140 -0.6944
  446MOL0     O60099   7.223   0.278  -0.071  0.3611 -0.1480 -0.3003
  446MOL0     C60100   7.091   0.291  -0.111  0.1114  0.0489  0.5421
  446MOL0     C60101   7.015   0.408  -0.117  0.7564 -0.6887 -0.2850
  446MOL0     C60102   6.886   0.406  -0.165 -0.1690 -0.7229 -0.9736
  446MOL0     C60103   6.811   0.530  -0.161  0.2014 -0.0382 -0.2933
  446MOL0     C60104   6.824   0.287  -0.210  0.1398 -0.2589  0.0003
  446MOL0     C60105   6.687   0.283  -0.270  0.3665 -0.8415 -0.3654
  446MOL0     O60106   6.593   0.364  -0.223  1.0111  0.4500  0.0048
  446MOL0     C60107   6.462   0.340  -0.257  0.0519 -0.8141  0.6391
  446MOL0     C60108   6.367   0.383  -0.161 -0.2524 -0.4361 -0.0855
  446MOL0     C60109   6.231   0.384  -0.182 -0.1180  0.7101  0.5105
  446MOL0     C60110   6.181   0.341  -0.310 -0.0696  0.9659  0.5866
  446MOL0     O60111   6.046   0.326  -0.339  0.6069 -0.5706  0.2843
  446MOL0     C60112   5.961   0.430  -0.292 -0.2978 -0.0114 -0.4244
  446MOL0     C60113   5.902   0.403  -0.150 -0.5918 -0.5267 -0.1832
  446MOL0     C60114   5.748   0.370  -0.153 -0.0914  0.3064  0.8277
  446MOL0     C60115   5.688   0.443  -0.028  0.2469 -0.9785  0.4371
  446MOL0     C60116   5.533   0.432  -0.016 -0.3726 -0.1107  0.2112
  446MOL0     C60117   5.453   0.494  -0.141  0.1034  0.7348 -0.5805
  446MOL0     C60118   5.312   0.549  -0.101 -0.7323 -0.8235  0.7704
  446MOL0     C60119   5.221   0.428  -0.073  0.4765  0.1183  0.8029
  446MOL0    Cl60120   5.062   0.497  -0.051  0.0078  0.0114 -0.2949
  446MOL0     C60121   6.273   0.303  -0.412 -0.0574 -0.3377 -0.4319
  446MOL0     C60122   6.415   0.312  -0.382  0.0782 -0.3823 -0.3402
  446MOL0     O60123   6.678   0.204  -0.360  0.6007  0.4899  0.7929
  446MOL0     C60124   6.895   0.169  -0.213 -0.0235 -0.3674  0.4330
  446MOL0     C60125   7.030   0.172  -0.167 -0.0053 -0.6761  0.2982
  446MOL0     N60126   7.731   0.038   0.082 -0.3011  0.1916 -0.0627
  446MOL0     N60127   7.817   0.002  -0.004  0.0605  0.3259 -0.2454
  446MOL0     C60128   8.891   0.731  -0.154  0.3730 -0.2003 -0.1535
  446MOL0     C60129   8.959   0.855  -0.131  0.0045  1.0993  0.2452
  446MOL0     C60130   9.159   1.210   0.089 -0.5071  0.6223  0.0396
  446MOL0     C60131   9.126   1.341   0.130  0.2427  0.5708  0.2871
  446MOL0     C60132   9.212   1.444   0.136 -0.3830 -0.2488 -0.9441
  446MOL0     C60133   9.344   1.414   0.104  0.2116 -0.9512 -0.2543
  446MOL0     O60134   9.420   1.525   0.080  0.5586  0.4777 -0.6460
  446MOL0     C60135   9.550   1.505   0.023 -0.6280  0.7074  0.0392
  446MOL0     C60136   9.617   1.645  -0.005  0.6156  1.1347 -0.0270
  446MOL0     C60137   9.549   1.715  -0.122 -0.3021 -0.0350  0.9824
  446MOL0     C60138   9.572   1.870  -0.123  0.7679 -0.0646 -0.4191
  446MOL0     C60139   9.710   1.905  -0.139 -0.0193  0.3279  0.5631
  446MOL0     C60140   9.827   1.924  -0.132  0.8837 -0.6508 -0.3205
  446MOL0     C60141   9.387   1.284   0.075 -0.0605 -0.4853  0.7455
  446MOL0     C60142   9.298   1.184   0.068  1.2338 -0.6394  0.0017
  446MOL0     H60143   9.019   0.814   0.205 -1.3687  1.4048  0.7731
  446MOL0     H60144   8.894   0.594   0.140 -0.7471 -2.3119 -1.4535
  446MOL0     H60145   8.746   0.398   0.083 -2.9279 -0.2435  3.6468
  446MOL0     H60146   8.673   0.559   0.121 -0.2773 -1.0345  0.3678
  446MOL0     H60147   8.542   0.508  -0.105  0.2667 -1.8282 -0.8616
  446MOL0     H60148   8.559   0.342  -0.050 -0.5697 -0.8527  0.4505
  446MOL0     H60149   8.461   0.424   0.175 -0.8602 -2.1036 -1.5033
  446MOL0     H60150   8.452   0.589   0.106 -1.8973  0.4560 -0.4279
  446MOL0     H60151   8.239   0.475   0.106  1.7130  2.2513  1.5448
  446MOL0     H60152   8.285   0.524  -0.060 -0.6189 -2.6628 -1.9343
  446MOL0     H60153   8.349   0.313  -0.116  0.1024 -1.3071  0.8102
  446MOL0     H60154   8.342   0.247   0.050  0.2665  0.3637  0.7341
  446MOL0     H60155   8.093   0.293   0.049 -0.8900 -1.3925 -0.0904
  446MOL0     H60156   8.108   0.354  -0.121 -0.2247 -1.3150 -1.3633
  446MOL0     H60157   8.190   0.126  -0.182  0.3878 -2.8229 -0.2606
  446MOL0     H60158   8.142   0.066  -0.017 -1.5155 -0.5608  0.1134
  446MOL0     H60159   7.983   0.003  -0.208  0.7431 -0.0117 -0.0523
  446MOL0     H60160   7.961   0.166  -0.242  1.0517  0.6776  0.5602
  446MOL0     H60161   7.820   0.322  -0.052  3.3301 -0.0099  2.4339
  446MOL0     H60162   7.550   0.178   0.206 -0.2473 -1.0623 -0.7109
  446MOL0     H60163   7.631   0.340   0.194 -0.7735 -0.0195  0.5852
  446MOL0     H60164   7.482   0.225  -0.043 -1.1598  1.1775 -0.9279
  446MOL0     H60165   7.546   0.380  -0.028 -1.5866  1.5533 -0.6662
  446MOL0     H60166   7.408   0.445   0.160  3.1008 -0.8640  0.2440
  446MOL0     H60167   7.343   0.276   0.176 -1.3031 -0.1581 -0.2721
  446MOL0     H60168   7.311   0.473  -0.054  1.8865 -0.2323  1.6643
  446MOL0     H60169   7.184   0.435   0.066 -0.2429 -1.5118 -0.4625
  446MOL0     H60170   7.057   0.504  -0.092  0.4925  0.0842 -2.5249
  446MOL0     H60171   6.754   0.552  -0.252  0.5936  1.8003 -0.1325
  446MOL0     H60172   6.737   0.516  -0.082 -1.2496  0.5338 -1.4809
  446MOL0     H60173   6.868   0.619  -0.133 -0.1436  0.1826 -0.2948
  446MOL0     H60174   6.416   0.428  -0.075 -0.5907 -1.1033  0.4613
  446MOL0     H60175   6.160   0.413  -0.105 -2.2006 -1.7734 -0.3325
  446MOL0     H60176   6.009   0.528  -0.291  0.0297 -0.0320  3.6611
  446MOL0     H60177   5.879   0.449  -0.362  1.2786  1.1361 -2.0496
  446MOL0     H60178   5.952   0.320  -0.099  1.7035  1.0741  0.3447
  446MOL0     H60179   5.919   0.494  -0.092  0.1721 -0.3045 -0.7341
  446MOL0     H60180   5.732   0.263  -0.144 -1.9542  0.2357 -1.9709
  446MOL0     H60181   5.695   0.387  -0.248  2.6652 -0.5723 -0.9812
  446MOL0     H60182   5.727   0.407   0.067  0.5196  0.1330  0.7623
  446MOL0     H60183   5.714   0.549  -0.031 -2.4718 -0.2205  0.4184
  446MOL0     H60184   5.517   0.495   0.072  0.4802  1.7180 -0.8820
  446MOL0     H60185   5.501   0.330   0.008 -1.2626  0.5865  2.1455
  446MOL0     H60186   5.512   0.569  -0.195 -1.1514  1.4557 -1.0065
  446MOL0     H60187   5.423   0.423  -0.218 -1.1188 -0.3359  0.8105
  446MOL0     H60188   5.282   0.613  -0.185 -0.2681 -0.8907  0.5541
  446MOL0     H60189   5.311   0.613  -0.012  0.8643 -2.5891  2.1328
  446MOL0     H60190   5.249   0.383   0.022  1.6951 -0.5103  0.1685
  446MOL0     H60191   5.225   0.342  -0.141  3.5967 -1.6570  2.9938
  446MOL0     H60192   6.237   0.280  -0.512  0.7495  1.8702 -1.2989
  446MOL0     H60193   6.488   0.302  -0.461  0.5498  1.3959 -0.1565
  446MOL0     H60194   6.856   0.075  -0.251 -4.2820  1.7257 -1.0189
  446MOL0     H60195   7.090   0.081  -0.174  2.7601  1.1384 -1.9421
  446MOL0     H60196   8.856   0.708  -0.254 -1.7581 -0.1367  0.5302
  446MOL0     H60197   8.961   0.917  -0.221 -1.6605 -0.2771 -0.8210
  446MOL0     H60198   9.023   1.364   0.155 -0.3008 -1.5481  0.1858
  446MOL0     H60199   9.186   1.542   0.173 -0.5722 -1.5745  2.7844
  446MOL0     H60200   9.615   1.452   0.094 -1.8439  0.7259  1.1904
  446MOL0     H60201   9.556   1.444  -0.068  0.9885 -1.3625  1.4267
  446MOL0     H60202   9.726   1.643  -0.019  0.8997  0.0294  2.0690
  446MOL0     H60203   9.590   1.699   0.086  1.7981 -1.3356  1.8827
  446MOL0     H60204   9.442   1.717  -0.102 -0.3659  2.8163  0.7474
  446MOL0     H60205   9.576   1.668  -0.217 -0.1002 -1.4886  1.7274
  446MOL0     H60206   9.520   1.930  -0.048  0.1269  3.5040 -3.4026
  446MOL0     H60207   9.510   1.903  -0.207  1.3250 -1.9005 -1.6079
  446MOL0     H60208   9.933   1.923  -0.120  1.2056 -0.4441 -2.6409
  446MOL0     H60209   9.492   1.257   0.063  0.7078  2.0806  1.1176
  446MOL0     H60210   9.324   1.080   0.058 -5.1202 -2.7577  0.8742
  447MOL0     O60211   4.213   8.573   7.499 -0.1865  0.3626  0.5514
  447MOL0     C60212   4.235   8.665   7.575 -0.6055  0.4336 -0.8422
  447MOL0     O60213   4.136   8.732   7.643 -0.3699 -0.4261  0.2648
  447MOL0     C60214   4.003   8.685   7.618 -0.5581 -0.6643 -1.1557
  447MOL0     C60215   3.919   8.731   7.517 -0.2035 -0.3974 -0.5592
  447MOL0     C60216   3.776   8.689   7.514  0.4489 -0.3825  0.1778
  447MOL0     C60217   3.726   8.611   7.623  0.4065 -0.4840  0.6897
  447MOL0     O60218   3.593   8.575   7.618  0.7816 -0.0216 -0.3613
  447MOL0     C60219   3.555   8.461   7.699  0.1602  0.5561  0.6129
  447MOL0     C60220   3.415   8.425   7.647  0.6269 -0.7257 -0.3663
  447MOL0     C60221   3.378   8.304   7.726  0.0644  0.3131  0.4221
  447MOL0     C60222   3.229   8.257   7.707 -0.2983  0.6659 -0.2632
  447MOL0     C60223   3.199   8.138   7.796 -0.4880  0.2989 -0.7380
  447MOL0     C60224   3.053   8.090   7.807  0.1064 -0.0223  0.1586
  447MOL0     C60225   3.008   8.048   7.668 -0.2898  0.1411  0.0688
  447MOL0     C60226   2.866   8.002   7.667 -0.4032  0.1454  0.2035
  447MOL0     N60227   2.821   7.951   7.538 -0.0741 -0.3002 -0.1716
  447MOL0     C60228   2.824   8.033   7.427 -0.7912  0.0238 -0.0797
  447MOL0     C60229   2.766   7.956   7.327 -0.5321 -0.3382 -0.0396
  447MOL0     C60230   2.755   7.983   7.175 -0.6497 -0.4070  0.4270
  447MOL0     C60231   2.629   8.067   7.151  0.3269  0.6912 -0.1019
  447MOL0     C60232   2.597   8.085   7.005  0.6039 -1.0382 -0.6634
  447MOL0     C60233   2.500   8.197   6.982 -0.1907 -0.2659  0.4493
  447MOL0     O60234   2.386   8.183   7.068  0.1404 -0.3068 -0.2942
  447MOL0     C60235   2.272   8.155   6.999  0.2282 -0.2773  0.8613
  447MOL0     C60236   2.193   8.265   6.975 -0.1000 -0.0887 -0.0693
  447MOL0     C60237   2.079   8.252   6.899  0.6036 -0.4553  0.6519
  447MOL0     C60238   1.986   8.370   6.881 -0.3305 -0.3506 -0.8359
  447MOL0     C60239   2.043   8.130   6.833 -0.3051 -0.1300 -0.7677
  447MOL0     C60240   1.923   8.107   6.735  1.0015  0.0361 -0.9998
  447MOL0     O60241   1.872   7.982   6.721  0.7664 -0.5399  0.7670
  447MOL0     C60242   1.756   7.976   6.651  0.3163  0.0324  0.7639
  447MOL0     C60243   1.646   7.915   6.710 -0.5671 -0.1920 -0.0670
  447MOL0     C60244   1.530   7.899   6.635  0.4605 -0.0876 -0.2790
  447MOL0     C60245   1.523   7.946   6.503  0.3955 -0.8516 -0.7305
  447MOL0     O60246   1.403   7.940   6.440 -0.3165  0.4225 -0.1742
  447MOL0     C60247   1.290   8.011   6.499  0.2171  0.1708  0.0004
  447MOL0     C60248   1.212   8.103   6.399 -0.2345 -0.0820  0.7524
  447MOL0     C60249   1.284   8.220   6.328 -0.2420  0.1935 -0.3271
  447MOL0     C60250   1.413   8.182   6.252 -0.1438  0.9794 -1.1392
  447MOL0     C60251   1.420   8.273   6.135  0.0197 -0.4292 -0.2980
  447MOL0     C60252   1.434   8.423   6.168 -0.2410  0.4577  0.2493
  447MOL0     C60253   1.408   8.506   6.048 -0.5810 -0.5015 -0.3328
  447MOL0     C60254   1.523   8.516   5.943 -0.6161 -0.0614  0.1176
  447MOL0    Cl60255   1.683   8.557   6.014  0.1732 -0.1398  0.2168
  447MOL0     C60256   1.637   7.995   6.440  0.3250 -0.4065 -0.2278
  447MOL0     C60257   1.751   8.007   6.516 -0.4102  0.5073 -0.2191
  447MOL0     O60258   1.888   8.204   6.671  0.5050  0.4587 -0.1841
  447MOL0     C60259   2.114   8.016   6.880  0.4887 -0.5085 -0.5812
  447MOL0     C60260   2.225   8.032   6.964 -0.5046  0.4973 -0.0636
  447MOL0     N60261   2.731   7.838   7.385  0.4483  0.4163 -0.5424
  447MOL0     N60262   2.768   7.830   7.515 -0.2264  0.3711 -0.4624
  447MOL0     C60263   3.816   8.569   7.718 -0.3716  0.6445  0.0745
  447MOL0     C60264   3.948   8.611   7.719 -0.5225 -0.8216 -0.0259
  447MOL0     C60265   4.375   8.706   7.597 -0.5712  0.1257 -0.2304
  447MOL0     C60266   4.417   8.772   7.715 -0.2359 -0.1497  1.0362
  447MOL0     C60267   4.552   8.791   7.749  0.6740  0.1627  0.2717
  447MOL0     C60268   4.646   8.756   7.648 -0.0051  0.2417 -0.8127
  447MOL0     O60269   4.782   8.759   7.662  0.3647 -0.4648 -0.4788
  447MOL0     C60270   4.847   8.791   7.788  0.2293 -0.9938 -0.7545
  447MOL0     C60271   4.997   8.820   7.769 -0.7220 -0.3586  0.6107
  447MOL0     C60272   5.018   8.946   7.691 -0.2160  0.7936 -0.5145
  447MOL0     C60273   5.173   8.969   7.660  0.2758 -0.0111 -0.0937
  447MOL0     C60274   5.248   8.950   7.779 -0.1192  0.1312 -1.0632
  447MOL0     C60275   5.326   8.940   7.877  1.3777 -0.7483 -0.4801
  447MOL0     C60276   4.608   8.699   7.532  0.5057 -0.2514  0.0782
  447MOL0     C60277   4.470   8.678   7.505 -0.3837  0.4097 -0.5528
  447MOL0     H60278   3.948   8.788   7.429  2.7165  0.1192  0.6128
  447MOL0     H60279   3.720   8.723   7.427  0.0151 -1.7959 -0.1305
  447MOL0     H60280   3.624   8.377   7.683  0.1136  0.8183 -1.1858
  447MOL0     H60281   3.548   8.495   7.803  0.2521  2.7437 -0.0405
  447MOL0     H60282   3.343   8.503   7.676 -0.2417 -2.2715  1.8978
  447MOL0     H60283   3.427   8.409   7.539  1.4634  1.4257 -0.6598
  447MOL0     H60284   3.436   8.219   7.688 -0.0822  0.5757 -0.4005
  447MOL0     H60285   3.382   8.327   7.833 -0.0361 -1.1002  0.7449
  447MOL0     H60286   3.167   8.343   7.737 -0.5812 -0.3177  2.2019
  447MOL0     H60287   3.209   8.243   7.601 -0.1017  0.3427 -0.2591
  447MOL0     H60288   3.263   8.061   7.753 -0.5509  1.2942 -2.7266
  447MOL0     H60289   3.238   8.156   7.896  0.2812 -3.4535 -0.2445
  447MOL0     H60290   3.054   8.007   7.878  2.9558 -0.0145  0.2079
  447MOL0     H60291   2.983   8.162   7.851  1.2137  0.5375  1.0286
  447MOL0     H60292   3.025   8.132   7.600  2.3443  1.5826  2.2905
  447MOL0     H60293   3.062   7.960   7.632 -1.0374 -0.6494  0.8350
  447MOL0     H60294   2.799   8.086   7.689 -3.1165 -0.7263 -3.6291
  447MOL0     H60295   2.871   7.919   7.738  2.6553 -1.4398 -1.6520
  447MOL0     H60296   2.873   8.129   7.419 -1.3102  0.2627 -0.4312
  447MOL0     H60297   2.840   8.044   7.142 -1.2258  0.4912  0.5851
  447MOL0     H60298   2.748   7.893   7.112 -0.8347 -0.8468  1.0617
  447MOL0     H60299   2.639   8.161   7.206  2.1447  0.2585  0.3962
  447MOL0     H60300   2.545   8.014   7.196 -0.3412  1.4878 -0.3884
  447MOL0     H60301   2.559   7.985   6.981 -0.2665 -0.8470 -0.1200
  447MOL0     H60302   2.685   8.107   6.945 -0.0533  2.0876 -0.6450
  447MOL0     H60303   2.480   8.201   6.874  0.8758 -1.8124  0.1619
  447MOL0     H60304   2.549   8.289   7.015  0.5721 -0.0132 -1.2302
  447MOL0     H60305   2.215   8.356   7.030  2.7211 -0.4969 -0.3604
  447MOL0     H60306   1.999   8.417   6.783  1.4843 -1.1390 -1.0085
  447MOL0     H60307   1.880   8.344   6.895 -0.6418  1.7454  1.2573
  447MOL0     H60308   2.006   8.439   6.963  1.2687  1.1561 -2.4036
  447MOL0     H60309   1.654   7.890   6.815 -0.2220 -0.0010 -0.0452
  447MOL0     H60310   1.438   7.865   6.682 -0.4080 -0.0935 -1.8925
  447MOL0     H60311   1.215   7.940   6.534 -0.0465 -0.0123 -0.9216
  447MOL0     H60312   1.316   8.074   6.584  0.7898  0.3642 -0.3104
  447MOL0     H60313   1.169   8.040   6.321  0.6392  1.2422 -0.8741
  447MOL0     H60314   1.127   8.141   6.455 -0.0448  1.0559  0.3017
  447MOL0     H60315   1.309   8.296   6.402  1.5404  3.1778 -3.7277
  447MOL0     H60316   1.212   8.266   6.260  0.1688  0.2538 -0.7200
  447MOL0     H60317   1.496   8.187   6.323 -0.9607  2.6833 -0.2488
  447MOL0     H60318   1.409   8.077   6.219 -2.4116  1.2466 -1.8545
  447MOL0     H60319   1.334   8.257   6.069 -0.6394  0.3763  0.3311
  447MOL0     H60320   1.508   8.243   6.078 -0.5503 -0.2710 -1.2871
  447MOL0     H60321   1.358   8.450   6.242 -0.2927  0.1336  0.3161
  447MOL0     H60322   1.531   8.455   6.207  0.0203  1.4375 -1.1579
  447MOL0     H60323   1.373   8.604   6.084 -0.0543 -0.3148 -0.3215
  447MOL0     H60324   1.318   8.473   5.995 -0.5964  0.7306 -1.1321
  447MOL0     H60325   1.499   8.578   5.856  2.5491 -0.4016 -1.1334
  447MOL0     H60326   1.534   8.413   5.909 -1.5775 -1.1515  2.8833
  447MOL0     H60327   1.640   8.024   6.336 -0.9028  1.4126  0.1985
  447MOL0     H60328   1.841   8.046   6.470  1.0211  0.0030  1.9915
  447MOL0     H60329   2.080   7.918   6.847 -2.2394 -0.4690  1.7448
  447MOL0     H60330   2.282   7.947   6.999 -0.3419  0.4672 -0.3952
  447MOL0     H60331   3.791   8.511   7.806 -1.7184 -2.6969 -2.3010
  447MOL0     H60332   4.009   8.594   7.807  1.5735  0.9602 -1.0594
  447MOL0     H60333   4.348   8.793   7.796 -1.4117 -4.6741  1.4862
  447MOL0     H60334   4.581   8.845   7.838 -2.3406  1.8025  0.4039
  447MOL0     H60335   4.800   8.876   7.838 -1.5371 -2.8850  1.0027
  447MOL0     H60336   4.831   8.706   7.855  1.8838 -0.6221  0.1599
  447MOL0     H60337   5.050   8.734   7.727 -0.4844 -0.6665  1.5193
  447MOL0     H60338   5.037   8.832   7.869 -0.0249  1.0894  0.1801
  447MOL0     H60339   4.983   9.032   7.749 -3.5766 -1.3534  0.9757
  447MOL0     H60340   4.969   8.945   7.593 -2.3121  1.4208  0.4769
  447MOL0     H60341   5.186   9.074   7.633  0.1490  0.0855  0.2147
  447MOL0     H60342   5.216   8.903   7.583  3.4268  3.6144 -1.7558
  447MOL0     H60343   5.386   8.931   7.965 -1.8831  1.9000  2.3075
  447MOL0     H60344   4.672   8.660   7.454 -1.3452 -2.0318 -0.6475
  447MOL0     H60345   4.430   8.639   7.412 -1.8541  2.9006 -1.0648
  448MOL0     O60346   9.542   3.680   1.275 -0.0525 -0.2254 -0.1940
  448MOL0     C60347   9.539   3.595   1.361 -0.3456 -0.7097  0.3121
  448MOL0     O60348   9.429   3.532   1.407  0.3482 -0.2990 -0.4684
  448MOL0     C60349   9.315   3.519   1.325 -0.5975  0.4804  0.0409
  448MOL0     C60350   9.193   3.494   1.387  0.2500  1.0499  0.6310
  448MOL0     C60351   9.077   3.472   1.315  0.1467 -0.1275 -0.5202
  448MOL0     C60352   9.072   3.472   1.171  0.4249  0.2198  0.1122
  448MOL0     O60353   8.959   3.421   1.114 -0.2319  0.4126 -0.0133
  448MOL0     C60354   8.947   3.415   0.970 -0.4123 -0.8122  0.6214
  448MOL0     C60355   8.837   3.332   0.923  0.2249  0.1379 -0.0115
  448MOL0     C60356   8.713   3.356   1.002  0.3294  0.1439 -0.2234
  448MOL0     C60357   8.602   3.270   0.938  0.8802  0.1299  0.2973
  448MOL0     C60358   8.468   3.317   0.984  0.5138  0.7823 -0.2121
  448MOL0     C60359   8.358   3.248   0.890 -0.3026 -0.2973 -0.6529
  448MOL0     C60360   8.217   3.263   0.948  0.2977 -0.8412 -0.0902
  448MOL0     C60361   8.113   3.201   0.849 -0.9560 -0.4088  0.4170
  448MOL0     N60362   7.976   3.211   0.872  0.4867 -0.4061 -0.7334
  448MOL0     C60363   7.906   3.164   0.979 -0.4567 -0.2809 -0.4919
  448MOL0     C60364   7.778   3.197   0.954  0.1171 -0.0167 -0.5114
  448MOL0     C60365   7.683   3.182   1.067  0.8771  0.6445  0.8335
  448MOL0     C60366   7.532   3.203   1.028 -0.3583  0.6442 -0.1641
  448MOL0     C60367   7.445   3.178   1.153 -0.1739  0.0734 -0.4453
  448MOL0     C60368   7.297   3.179   1.114 -0.0667  0.1760 -0.0930
  448MOL0     O60369   7.268   3.060   1.034 -0.2572  0.0777 -0.0897
  448MOL0     C60370   7.134   3.046   0.998  0.2957  0.0282 -0.5160
  448MOL0     C60371   7.110   2.936   0.912  0.7931 -0.1833 -0.6617
  448MOL0     C60372   6.978   2.906   0.869 -0.5406 -0.3679 -1.3325
  448MOL0     C60373   6.951   2.781   0.786  0.3271  0.8967 -0.7658
  448MOL0     C60374   6.872   2.995   0.907  0.2318  0.8930 -0.3586
  448MOL0     C60375   6.727   2.972   0.872 -0.2994 -0.2071  0.0282
  448MOL0     O60376   6.651   3.078   0.863  0.2843  0.4929  0.5332
  448MOL0     C60377   6.518   3.063   0.884 -0.3088  0.2934 -0.8980
  448MOL0     C60378   6.467   3.078   1.008  0.9076  0.2053 -0.5879
  448MOL0     C60379   6.331   3.042   1.034  0.0377 -0.2598 -0.1142
  448MOL0     C60380   6.243   3.010   0.930  0.3814  1.0142 -0.4091
  448MOL0     O60381   6.108   2.985   0.946  0.5308 -0.1874  0.2586
  448MOL0     C60382   6.041   3.039   1.061 -0.6399  0.0495  0.3106
  448MOL0     C60383   5.892   3.069   1.037  0.4448  0.1442  0.3399
  448MOL0     C60384   5.822   2.939   0.995  0.8167 -0.0475  0.5122
  448MOL0     C60385   5.799   2.853   1.121 -0.4999  0.1352 -0.6626
  448MOL0     C60386   5.723   2.726   1.105 -0.2578  0.9362  0.3975
  448MOL0     C60387   5.767   2.624   0.987 -0.1233  0.7164 -0.0019
  448MOL0     C60388   5.899   2.547   1.010  0.4171 -0.5733  0.3557
  448MOL0     C60389   5.930   2.474   0.878  0.3705 -0.3295  0.2417
  448MOL0    Cl60390   6.097   2.485   0.836  0.2517 -0.3514 -0.0051
  448MOL0     C60391   6.304   2.999   0.800 -0.2596  0.3558  0.3596
  448MOL0     C60392   6.435   3.024   0.777 -0.5555 -0.1261 -0.8043
  448MOL0     O60393   6.689   2.855   0.868  0.1663  0.7547  0.8099
  448MOL0     C60394   6.899   3.106   0.984 -1.1096  0.0307 -0.3912
  448MOL0     C60395   7.032   3.124   1.037  0.2970 -0.3581 -0.4654
  448MOL0     N60396   7.766   3.263   0.835 -0.3306  0.4094 -0.2050
  448MOL0     N60397   7.884   3.278   0.789 -0.2792 -0.1066  0.3792
  448MOL0     C60398   9.194   3.490   1.103  0.6177 -0.1033  0.1523
  448MOL0     C60399   9.313   3.507   1.181 -0.0142  0.6388 -0.2471
  448MOL0     C60400   9.661   3.581   1.437  0.2354  0.2903 -0.5825
  448MOL0     C60401   9.664   3.515   1.564 -0.7832 -0.0961 -0.0798
  448MOL0     C60402   9.774   3.483   1.641  0.2894 -0.1690  0.6698
  448MOL0     C60403   9.903   3.523   1.593  0.7605 -0.8295 -1.9191
  448MOL0     O60404  10.013   3.509   1.682  0.1274  0.3579  0.0778
  448MOL0     C60405  10.126   3.593   1.649  0.3839 -0.1668 -0.2850
  448MOL0     C60406  10.239   3.559   1.743 -0.7673 -0.5756  0.2737
  448MOL0     C60407  10.290   3.420   1.719  0.3616 -0.3286 -0.7205
  448MOL0     C60408  10.425   3.385   1.778 -0.3252  0.3469 -0.2940
  448MOL0     C60409  10.435   3.376   1.924  1.0970 -0.5323 -0.3823
  448MOL0     C60410  10.451   3.373   2.050  0.1788 -0.0808  0.2349
  448MOL0     C60411   9.906   3.577   1.462  0.3610  0.4877  0.1371
  448MOL0     C60412   9.789   3.619   1.390 -0.4122  0.3854 -0.4207
  448MOL0     H60413   9.186   3.473   1.494 -0.7287 -3.0193 -0.0383
  448MOL0     H60414   8.978   3.458   1.359  0.3752 -2.0750 -0.5060
  448MOL0     H60415   8.952   3.515   0.926 -1.4617 -0.7709  0.5787
  448MOL0     H60416   9.032   3.364   0.924  1.3490  1.9961  0.5265
  448MOL0     H60417   8.822   3.356   0.818  1.3991 -0.0253 -0.2246
  448MOL0     H60418   8.867   3.227   0.914 -2.1927 -0.7267  1.0547
  448MOL0     H60419   8.731   3.343   1.110  0.5574  4.2120  0.4094
  448MOL0     H60420   8.684   3.462   1.001  0.2419  0.1203 -1.9621
  448MOL0     H60421   8.595   3.283   0.830 -3.7470 -1.3545  0.1686
  448MOL0     H60422   8.610   3.163   0.960  0.2731  0.3086  1.5101
  448MOL0     H60423   8.449   3.300   1.090  0.1754  2.0538 -0.0461
  448MOL0     H60424   8.461   3.426   0.977  1.9403  0.7956 -3.5885
  448MOL0     H60425   8.360   3.299   0.793  1.2679 -2.9635 -2.1642
  448MOL0     H60426   8.390   3.143   0.882 -0.4376 -0.5651  1.8148
  448MOL0     H60427   8.203   3.206   1.040  0.0116 -0.2577  0.2287
  448MOL0     H60428   8.195   3.368   0.966  0.1554 -0.3311 -2.8457
  448MOL0     H60429   8.143   3.098   0.829  2.8966  0.8914 -1.5957
  448MOL0     H60430   8.131   3.261   0.759  2.9469  0.4803  1.5673
  448MOL0     H60431   7.927   3.110   1.071  1.5234 -1.0133 -1.3029
  448MOL0     H60432   7.673   3.083   1.112 -3.3223  1.2164  1.5807
  448MOL0     H60433   7.722   3.251   1.142  1.8904  0.3338  0.6091
  448MOL0     H60434   7.498   3.132   0.953 -2.0167 -0.0369  1.1606
  448MOL0     H60435   7.519   3.305   0.990 -2.2139 -0.0930 -1.6571
  448MOL0     H60436   7.463   3.244   1.238  2.3007 -1.7535  0.5631
  448MOL0     H60437   7.476   3.081   1.192  1.2540  1.0100  0.8548
  448MOL0     H60438   7.271   3.267   1.053 -0.9639 -0.3422 -0.4879
  448MOL0     H60439   7.229   3.186   1.199 -2.5374  0.6794 -1.9984
  448MOL0     H60440   7.200   2.887   0.876  1.4027 -0.5370  1.2608
  448MOL0     H60441   7.040   2.733   0.746 -0.8060 -2.4906  0.4275
  448MOL0     H60442   6.916   2.717   0.868 -1.1428  1.2034 -1.1284
  448MOL0     H60443   6.875   2.804   0.711 -0.3820 -0.8315 -0.6308
  448MOL0     H60444   6.520   3.119   1.094 -0.1220  1.8693 -0.6924
  448MOL0     H60445   6.284   3.051   1.131 -3.3110  0.1142 -1.6271
  448MOL0     H60446   6.063   2.976   1.148  1.9126  0.9938  0.4403
  448MOL0     H60447   6.081   3.139   1.079 -0.1325 -0.0549 -0.1744
  448MOL0     H60448   5.854   3.114   1.129  0.5909  1.1247 -0.0728
  448MOL0     H60449   5.887   3.141   0.955  1.2393  0.9147  0.9569
  448MOL0     H60450   5.889   2.887   0.926  0.5372  2.6865 -2.0481
  448MOL0     H60451   5.725   2.951   0.946  0.3797 -0.8925  1.1557
  448MOL0     H60452   5.896   2.832   1.168 -0.6114  0.8782 -0.0754
  448MOL0     H60453   5.727   2.893   1.193 -2.1381 -1.1175 -1.5390
  448MOL0     H60454   5.619   2.754   1.088 -0.4534  0.3410  0.6019
  448MOL0     H60455   5.738   2.682   1.204  4.1133  1.2940  0.1259
  448MOL0     H60456   5.697   2.541   0.979  0.8128 -0.3419  1.9039
  448MOL0     H60457   5.779   2.690   0.901  0.8401  0.4810 -0.0564
  448MOL0     H60458   5.895   2.486   1.101 -1.7397 -0.3190  0.4755
  448MOL0     H60459   5.976   2.622   1.032 -0.1693 -0.2608  1.4487
  448MOL0     H60460   5.876   2.524   0.797 -0.2482 -0.9213  0.2790
  448MOL0     H60461   5.888   2.373   0.878  0.5680 -0.4251  1.4019
  448MOL0     H60462   6.246   2.969   0.713  1.5173  1.3553 -1.2377
  448MOL0     H60463   6.467   3.026   0.673 -2.6058  1.6962 -1.4690
  448MOL0     H60464   6.826   3.184   1.003 -0.8168  0.2944 -0.3368
  448MOL0     H60465   7.044   3.212   1.100 -0.1397 -1.3927  1.1089
  448MOL0     H60466   9.195   3.486   0.994  0.1332  4.5284 -0.2438
  448MOL0     H60467   9.405   3.519   1.124 -0.1517 -0.4523 -0.7242
  448MOL0     H60468   9.572   3.479   1.609 -0.6109 -1.4835 -0.7770
  448MOL0     H60469   9.761   3.419   1.728 -1.1975 -1.2399 -0.2737
  448MOL0     H60470  10.161   3.577   1.547  0.7495 -1.2837 -0.0073
  448MOL0     H60471  10.098   3.698   1.663 -2.4679 -1.1906  3.0880
  448MOL0     H60472  10.213   3.559   1.849  0.8594 -2.7642  0.7434
  448MOL0     H60473  10.318   3.634   1.728  0.0513 -1.1220  1.6213
  448MOL0     H60474  10.305   3.407   1.611  0.3757 -1.7428 -0.5564
  448MOL0     H60475  10.213   3.353   1.756  1.6865 -1.5695 -0.1025
  448MOL0     H60476  10.501   3.457   1.744 -0.5775  0.0701 -1.4639
  448MOL0     H60477  10.452   3.286   1.741 -1.3528 -1.2874  2.9066
  448MOL0     H60478  10.481   3.373   2.153 -1.5534 -2.7756  0.8372
  448MOL0     H60479  10.001   3.597   1.413  1.4266  2.3055  2.7772
  448MOL0     H60480   9.787   3.675   1.297  0.3826  1.1764  0.0237
  449MOL0     O60481   3.954   0.395   2.007 -0.2971  0.2175  0.4131
  449MOL0     C60482   4.028   0.450   1.926 -0.7375 -0.5369 -0.7932
  449MOL0     O60483   3.990   0.463   1.795  0.2227  0.1959 -0.4655
  449MOL0     C60484   3.861   0.425   1.757  0.1197 -0.2243 -1.0558
  449MOL0     C60485   3.745   0.479   1.809  0.1231 -0.2595 -0.5069
  449MOL0     C60486   3.623   0.428   1.767  0.5357 -0.1509 -0.8785
  449MOL0     C60487   3.611   0.324   1.671  0.1037 -0.8368 -0.5491
  449MOL0     O60488   3.499   0.265   1.616 -0.7689  0.1443  0.0672
  449MOL0     C60489   3.385   0.336   1.645  0.2596  0.4460 -0.6594
  449MOL0     C60490   3.258   0.278   1.582 -0.1297  0.5641 -0.6529
  449MOL0     C60491   3.132   0.356   1.608  0.1825 -0.5197  0.1840
  449MOL0     C60492   3.004   0.296   1.558  0.5880  0.8326 -0.1351
  449MOL0     C60493   2.887   0.381   1.600 -0.3440 -0.2856 -0.4365
  449MOL0     C60494   2.742   0.325   1.554 -0.1380 -0.7852  0.1397
  449MOL0     C60495   2.640   0.443   1.557  0.5045 -0.5318  0.2534
  449MOL0     C60496   2.519   0.404   1.462 -0.0784  0.1246  0.1019
  449MOL0     N60497   2.431   0.302   1.528  0.1522  0.2113 -0.3299
  449MOL0     C60498   2.353   0.327   1.645 -0.2903 -0.4052 -0.3574
  449MOL0     C60499   2.299   0.211   1.679  0.0739 -0.5605  0.3136
  449MOL0     C60500   2.204   0.181   1.789  0.0247  0.5082 -0.4750
  449MOL0     C60501   2.062   0.198   1.732 -0.0089 -0.0492 -0.7631
  449MOL0     C60502   1.953   0.180   1.831 -0.0210  0.0544 -0.4087
  449MOL0     C60503   1.808   0.224   1.786 -0.0180 -0.6447 -0.9823
  449MOL0     O60504   1.715   0.182   1.883  0.1822 -0.5674 -0.4540
  449MOL0     C60505   1.590   0.230   1.860  1.0363  0.4883 -0.3764
  449MOL0     C60506   1.530   0.229   1.731  0.2285 -0.8787 -0.2021
  449MOL0     C60507   1.417   0.297   1.696  1.0279  0.4644  0.2609
  449MOL0     C60508   1.396   0.306   1.549  0.0047 -0.0420  0.1641
  449MOL0     C60509   1.341   0.353   1.800 -0.4302  0.0182 -0.1575
  449MOL0     C60510   1.206   0.415   1.770  0.5537  0.2490  0.3421
  449MOL0     O60511   1.129   0.448   1.871 -0.3882 -0.2653  0.0077
  449MOL0     C60512   1.017   0.535   1.858 -0.7267  0.4848  0.6646
  449MOL0     C60513   0.959   0.566   1.988  0.0912  0.3426  0.3298
  449MOL0     C60514   0.851   0.660   1.986  0.2139  0.2408 -0.2268
  449MOL0     C60515   0.800   0.724   1.869 -0.0004  0.2915  0.2536
  449MOL0     O60516   0.700   0.816   1.870 -0.2040 -0.4527 -0.2044
  449MOL0     C60517   0.654   0.869   1.744 -0.7806  0.6986 -0.1165
  449MOL0     C60518   0.519   0.941   1.768 -0.1563  0.0658  0.5818
  449MOL0     C60519   0.417   0.856   1.842  0.7640 -0.2008 -0.3032
  449MOL0     C60520   0.286   0.935   1.851 -0.8957  0.5020  0.3887
  449MOL0     C60521   0.194   0.879   1.971  0.6530 -0.1800 -0.1108
  449MOL0     C60522   0.059   0.939   1.968  0.7237  0.2047 -0.2956
  449MOL0     C60523  -0.016   0.893   2.093 -0.3519  0.4205  0.3213
  449MOL0     C60524  -0.154   0.951   2.117 -0.7256 -0.7850 -0.5181
  449MOL0    Cl60525  -0.270   0.892   1.997  0.1669 -0.1348  0.1877
  449MOL0     C60526   0.857   0.686   1.739 -0.1345 -0.1142  1.0421
  449MOL0     C60527   0.971   0.596   1.738  0.2375  0.0802 -0.5995
  449MOL0     O60528   1.168   0.420   1.655  0.7131  0.2371  0.4348
  449MOL0     C60529   1.384   0.332   1.933  0.3004 -0.0282  0.0112
  449MOL0     C60530   1.513   0.277   1.964 -0.0973 -0.2499  0.3735
  449MOL0     N60531   2.333   0.116   1.578 -0.3435 -0.1502 -0.4880
  449MOL0     N60532   2.407   0.179   1.489  0.4885 -0.2116  0.0320
  449MOL0     C60533   3.735   0.271   1.622 -0.6885  0.2399 -0.4820
  449MOL0     C60534   3.858   0.313   1.671  0.4266 -0.1898  0.1985
  449MOL0     C60535   4.148   0.516   1.975 -0.1867 -0.0506 -1.0266
  449MOL0     C60536   4.235   0.587   1.890 -0.6281 -1.1131  0.7354
  449MOL0     C60537   4.348   0.645   1.958 -0.4695  0.6697  0.3807
  449MOL0     C60538   4.358   0.650   2.093 -1.1330 -0.8711  0.4552
  449MOL0     O60539   4.466   0.702   2.163 -0.7940  0.5136  0.0960
  449MOL0     C60540   4.597   0.667   2.110 -0.9053  0.7685 -0.2882
  449MOL0     C60541   4.667   0.553   2.189 -0.2706 -0.7129  0.0574
  449MOL0     C60542   4.604   0.417   2.153  0.4088 -0.2290 -0.0223
  449MOL0     C60543   4.672   0.317   2.251 -0.3324 -0.2537  0.6081
  449MOL0     C60544   4.617   0.190   2.194  0.6217 -0.0908 -0.1505
  449MOL0     C60545   4.559   0.096   2.143  0.0697 -0.7377 -0.2433
  449MOL0     C60546   4.270   0.579   2.168 -0.4141 -1.1150  0.1022
  449MOL0     C60547   4.170   0.512   2.108  0.5729  1.0419  0.1765
  449MOL0     H60548   3.746   0.558   1.884  1.2878 -0.7387  0.0123
  449MOL0     H60549   3.531   0.467   1.809  0.8352  1.2010 -1.4124
  449MOL0     H60550   3.366   0.324   1.752  2.8399  2.5207  0.1411
  449MOL0     H60551   3.384   0.444   1.628  0.2991  0.6372  0.4570
  449MOL0     H60552   3.281   0.278   1.475 -0.1429  0.2379 -0.6556
  449MOL0     H60553   3.253   0.176   1.621  4.1088 -0.4809 -2.2908
  449MOL0     H60554   3.119   0.374   1.715 -4.0615 -3.1414  0.3212
  449MOL0     H60555   3.138   0.454   1.559 -0.2691 -0.6553 -0.1496
  449MOL0     H60556   3.007   0.292   1.448 -0.1765 -3.4570 -0.2054
  449MOL0     H60557   2.987   0.194   1.593 -0.2864  0.7134 -0.8593
  449MOL0     H60558   2.887   0.381   1.710 -0.3713  0.3439 -0.4362
  449MOL0     H60559   2.905   0.481   1.561  0.3889 -0.3035 -0.1609
  449MOL0     H60560   2.748   0.275   1.457 -3.3020 -0.0333 -0.5885
  449MOL0     H60561   2.695   0.247   1.615 -0.2972  0.5866  1.8503
  449MOL0     H60562   2.603   0.464   1.657 -2.5548 -1.5381 -0.5605
  449MOL0     H60563   2.692   0.523   1.503 -1.4129 -0.5728 -1.7800
  449MOL0     H60564   2.558   0.373   1.364 -1.0714  0.2503 -0.3514
  449MOL0     H60565   2.448   0.487   1.450 -1.0809 -0.5727  1.0611
  449MOL0     H60566   2.355   0.421   1.700  2.1009  0.1741 -1.3405
  449MOL0     H60567   2.222   0.077   1.816  0.7216  0.2732 -1.7429
  449MOL0     H60568   2.207   0.261   1.863 -0.4838  1.5541 -1.5416
  449MOL0     H60569   2.040   0.138   1.643  0.7195  1.3230 -1.9138
  449MOL0     H60570   2.054   0.303   1.703  0.8591  1.8215  4.7515
  449MOL0     H60571   1.976   0.248   1.914  0.3244  1.9553 -2.0038
  449MOL0     H60572   1.955   0.074   1.859  0.1439 -0.2042 -1.3863
  449MOL0     H60573   1.787   0.174   1.691  0.3510  3.1660 -3.2943
  449MOL0     H60574   1.799   0.331   1.766  0.2928 -0.1511  1.2037
  449MOL0     H60575   1.581   0.174   1.652 -2.2635 -1.9033 -1.2063
  449MOL0     H60576   1.403   0.411   1.518 -0.0355  0.4305  1.6749
  449MOL0     H60577   1.476   0.254   1.496  0.0735 -2.6255  2.6011
  449MOL0     H60578   1.302   0.267   1.508  0.2529 -0.9977  0.4839
  449MOL0     H60579   1.005   0.521   2.075 -0.7558  0.1742  0.6932
  449MOL0     H60580   0.824   0.690   2.087 -0.4191 -0.9312 -0.0321
  449MOL0     H60581   0.724   0.936   1.694  1.8625 -1.2836  0.6861
  449MOL0     H60582   0.628   0.786   1.678 -2.2583 -0.7891  2.1895
  449MOL0     H60583   0.534   1.033   1.825 -1.1865  0.4858  0.1948
  449MOL0     H60584   0.473   0.974   1.674 -2.6241 -2.8473  0.5884
  449MOL0     H60585   0.455   0.852   1.945 -1.0606  0.2519  0.4271
  449MOL0     H60586   0.406   0.753   1.809  0.5620 -0.8627  1.6865
  449MOL0     H60587   0.315   1.036   1.879  0.4802  0.0506  0.6629
  449MOL0     H60588   0.232   0.935   1.755 -1.5044  1.1577  0.7244
  449MOL0     H60589   0.239   0.896   2.070 -0.3355  1.5106  0.0938
  449MOL0     H60590   0.176   0.772   1.965 -0.7221  0.0947 -1.3236
  449MOL0     H60591   0.074   1.047   1.975  1.0308  0.1055  0.7215
  449MOL0     H60592   0.001   0.914   1.879  0.4277  3.3167 -1.0897
  449MOL0     H60593   0.049   0.919   2.177  1.1768 -0.3610 -0.5740
  449MOL0     H60594  -0.021   0.784   2.090  3.0030  0.1961 -1.1805
  449MOL0     H60595  -0.132   1.059   2.116  0.7286 -0.9494  2.2686
  449MOL0     H60596  -0.183   0.934   2.222 -1.3206  0.1251 -0.5193
  449MOL0     H60597   0.836   0.729   1.641  0.3418  0.8136  1.3425
  449MOL0     H60598   1.006   0.568   1.639 -1.6022  3.1495 -2.2664
  449MOL0     H60599   1.332   0.382   2.015  0.8522  2.5040 -1.0934
  449MOL0     H60600   1.559   0.263   2.061 -1.8332 -5.2366  0.7502
  449MOL0     H60601   3.734   0.194   1.545 -3.3948 -0.2097 -0.0760
  449MOL0     H60602   3.953   0.276   1.633 -0.4094 -1.4948 -0.7013
  449MOL0     H60603   4.214   0.583   1.784 -0.0524 -0.7129  0.5997
  449MOL0     H60604   4.424   0.683   1.891  0.4625 -0.4559  0.7477
  449MOL0     H60605   4.590   0.636   2.005  0.4352 -0.6562  0.0037
  449MOL0     H60606   4.644   0.766   2.107 -1.0936  0.8483 -0.7628
  449MOL0     H60607   4.671   0.575   2.296  0.0028  1.7059 -0.4062
  449MOL0     H60608   4.769   0.538   2.155  0.1333 -2.6320  1.8835
  449MOL0     H60609   4.628   0.392   2.049  0.9709 -2.5652  0.6035
  449MOL0     H60610   4.495   0.420   2.165  0.5885 -0.3312  1.9450
  449MOL0     H60611   4.649   0.330   2.357 -1.9163  0.3970  0.2173
  449MOL0     H60612   4.779   0.322   2.229 -0.9066  0.7667 -2.4284
  449MOL0     H60613   4.511   0.017   2.090 -0.1061  0.6019 -2.1784
  449MOL0     H60614   4.274   0.590   2.276  0.4214 -0.5613  0.0234
  449MOL0     H60615   4.098   0.469   2.176  2.0086 -4.2132 -1.1329
  450MOL0     O60616   5.273   6.683   4.213 -0.2430 -0.2168 -0.6416
  450MOL0     C60617   5.326   6.671   4.103  0.2557  0.0605  0.7099
  450MOL0     O60618   5.260   6.650   3.987 -0.6873 -0.0818  0.0027
  450MOL0     C60619   5.120   6.663   3.990 -0.7894  0.9230 -0.3061
  450MOL0     C60620   5.030   6.591   4.067 -0.4391 -0.1675  0.0037
  450MOL0     C60621   4.889   6.609   4.074  0.2522  0.0478 -0.2540
  450MOL0     C60622   4.832   6.704   3.988 -0.1285 -0.1849 -0.4206
  450MOL0     O60623   4.700   6.722   3.971  0.5109 -0.7112  0.2651
  450MOL0     C60624   4.601   6.693   4.069  0.2056 -0.1857 -0.0784
  450MOL0     C60625   4.596   6.804   4.164  0.1555 -0.1681  0.5000
  450MOL0     C60626   4.538   6.933   4.106 -0.2216 -0.1575  0.4672
  450MOL0     C60627   4.529   7.050   4.216 -0.8600  0.4820  0.1078
  450MOL0     C60628   4.448   7.172   4.163 -0.2262  0.2036  0.3287
  450MOL0     C60629   4.439   7.282   4.267  0.9989  0.2330  0.5961
  450MOL0     C60630   4.399   7.409   4.207 -0.9021 -0.8373 -0.0102
  450MOL0     C60631   4.510   7.477   4.119  0.0127  1.1263  0.0877
  450MOL0     N60632   4.458   7.594   4.062  0.2569 -0.2128 -0.0308
  450MOL0     C60633   4.455   7.636   3.929 -0.2820  0.5125 -0.6126
  450MOL0     C60634   4.407   7.761   3.929 -0.0396  0.4620 -0.1776
  450MOL0     C60635   4.379   7.850   3.823  0.0482  0.3932  0.4774
  450MOL0     C60636   4.274   7.797   3.719  0.0593 -0.1052 -0.1972
  450MOL0     C60637   4.242   7.901   3.618  0.1062 -0.0036 -0.5657
  450MOL0     C60638   4.167   7.845   3.504  0.4333 -0.0822  0.3669
  450MOL0     O60639   4.055   7.770   3.562 -0.0214 -0.3369  0.3632
  450MOL0     C60640   3.970   7.713   3.483  0.4771  0.4843 -0.1035
  450MOL0     C60641   3.976   7.696   3.349  0.1709  1.3190 -0.8549
  450MOL0     C60642   3.897   7.599   3.289  0.1647  0.1195  0.2756
  450MOL0     C60643   3.906   7.586   3.145  0.5730  0.5476  0.2418
  450MOL0     C60644   3.807   7.520   3.363 -0.6181 -0.3804 -0.4278
  450MOL0     C60645   3.719   7.405   3.322 -0.6550  0.6856 -0.1819
  450MOL0     O60646   3.624   7.373   3.414 -0.1295  0.2549 -0.7508
  450MOL0     C60647   3.546   7.262   3.398  0.8569 -1.6719  0.8366
  450MOL0     C60648   3.419   7.285   3.348  0.1180 -0.5019 -0.4440
  450MOL0     C60649   3.331   7.180   3.315 -0.0162 -1.2807 -0.7073
  450MOL0     C60650   3.376   7.049   3.333  0.6309  0.1963  0.3740
  450MOL0     O60651   3.278   6.950   3.300 -0.0550 -0.3782  0.3802
  450MOL0     C60652   3.323   6.818   3.298 -0.6245 -0.3375 -1.2005
  450MOL0     C60653   3.233   6.737   3.201  0.8371  0.0500 -0.4188
  450MOL0     C60654   3.088   6.716   3.237 -0.4823  0.3438 -0.1074
  450MOL0     C60655   3.080   6.631   3.362  0.1227  0.1956 -0.7703
  450MOL0     C60656   2.943   6.568   3.393  0.1787 -0.5129 -0.2816
  450MOL0     C60657   2.945   6.504   3.531  0.0485  0.1714 -0.6760
  450MOL0     C60658   2.818   6.429   3.551  0.1044 -0.5066  0.3023
  450MOL0     C60659   2.815   6.363   3.683 -0.7609  0.3337  0.1374
  450MOL0    Cl60660   2.657   6.280   3.702 -0.0391  0.1923 -0.2173
  450MOL0     C60661   3.509   7.024   3.382  0.0569 -0.4056  0.4317
  450MOL0     C60662   3.594   7.133   3.409  0.3945  0.0110 -0.1436
  450MOL0     O60663   3.714   7.371   3.209 -0.6526 -1.0582  0.8064
  450MOL0     C60664   3.788   7.559   3.497 -0.0327 -0.2883 -0.8837
  450MOL0     C60665   3.872   7.655   3.559  0.1703  0.2900  1.1124
  450MOL0     N60666   4.378   7.794   4.058  0.0282  0.0105  0.3895
  450MOL0     N60667   4.408   7.693   4.135  0.0364  0.8900 -0.5789
  450MOL0     C60668   4.917   6.776   3.905  0.7878  0.6253  0.3609
  450MOL0     C60669   5.056   6.768   3.915  0.3453  0.1932  0.1452
  450MOL0     C60670   5.478   6.674   4.089  0.4220  0.0707 -0.6191
  450MOL0     C60671   5.542   6.634   3.969  0.7147  0.4678 -0.7015
  450MOL0     C60672   5.680   6.622   3.962 -0.7038 -1.4764 -0.6175
  450MOL0     C60673   5.756   6.660   4.074 -0.1952 -0.6955 -0.0818
  450MOL0     O60674   5.897   6.654   4.071  0.3128 -0.2596 -0.4608
  450MOL0     C60675   5.966   6.563   3.981  0.2490 -0.2258 -0.0585
  450MOL0     C60676   6.085   6.529   4.077 -0.2691  0.1874  0.2294
  450MOL0     C60677   6.213   6.513   4.008  0.2541 -0.0041  0.0523
  450MOL0     C60678   6.316   6.440   4.098 -0.5982  0.6135 -0.5543
  450MOL0     C60679   6.444   6.414   4.038 -0.1320  0.4787  0.3046
  450MOL0     C60680   6.558   6.396   3.998 -0.2177 -0.2340 -0.5612
  450MOL0     C60681   5.693   6.694   4.194 -0.5207 -0.2705  0.1412
  450MOL0     C60682   5.553   6.705   4.197 -0.8015 -0.0351 -0.1797
  450MOL0     H60683   5.075   6.531   4.145 -0.1233  0.3103  0.1927
  450MOL0     H60684   4.825   6.550   4.138 -0.0235 -2.7604 -2.8757
  450MOL0     H60685   4.504   6.670   4.025  2.2539 -5.3440 -2.8536
  450MOL0     H60686   4.632   6.599   4.116 -0.2103 -1.1142 -1.5737
  450MOL0     H60687   4.529   6.778   4.247  0.1011 -1.2162  0.1335
  450MOL0     H60688   4.700   6.807   4.198  0.2529 -1.2857  0.3305
  450MOL0     H60689   4.604   6.963   4.025  0.0110 -0.1961  0.6412
  450MOL0     H60690   4.439   6.911   4.065 -0.4515 -1.0067  1.4221
  450MOL0     H60691   4.473   7.013   4.303 -2.3640  2.2615 -0.0325
  450MOL0     H60692   4.625   7.088   4.251 -1.5894  0.8106  1.9177
  450MOL0     H60693   4.500   7.213   4.075 -1.4892 -0.1230 -0.5853
  450MOL0     H60694   4.346   7.143   4.139  0.2041 -0.7384 -0.4162
  450MOL0     H60695   4.371   7.239   4.341  1.3131 -2.1505 -0.4152
  450MOL0     H60696   4.533   7.297   4.321  0.4113  0.1865  1.6583
  450MOL0     H60697   4.302   7.399   4.157 -0.5212  0.4704 -1.0556
  450MOL0     H60698   4.383   7.476   4.292 -1.8952  1.5667 -1.9750
  450MOL0     H60699   4.541   7.410   4.038 -0.0630 -0.3035  1.1907
  450MOL0     H60700   4.596   7.493   4.184 -1.4903  0.5815  2.3101
  450MOL0     H60701   4.491   7.577   3.846  0.4398  0.0444  0.0170
  450MOL0     H60702   4.354   7.952   3.854 -3.5899  0.2384 -1.4193
  450MOL0     H60703   4.470   7.844   3.761 -1.5418 -2.5525 -1.8358
  450MOL0     H60704   4.186   7.760   3.774  1.3407 -1.7311  0.8497
  450MOL0     H60705   4.323   7.714   3.667  1.6122  0.6555  0.0241
  450MOL0     H60706   4.329   7.960   3.589  1.2922 -2.3876 -2.1890
  450MOL0     H60707   4.177   7.971   3.672  1.5488 -1.7581  3.8225
  450MOL0     H60708   4.227   7.777   3.442 -0.3706  0.5032 -1.1052
  450MOL0     H60709   4.130   7.925   3.439 -1.3005 -2.2284 -1.4749
  450MOL0     H60710   4.052   7.754   3.299  2.6698 -1.5270 -0.5859
  450MOL0     H60711   3.989   7.645   3.103  0.9597  1.0359  1.6172
  450MOL0     H60712   3.937   7.487   3.110  1.3894  1.4839 -1.8554
  450MOL0     H60713   3.813   7.610   3.093  0.1574 -1.4268 -0.0002
  450MOL0     H60714   3.391   7.387   3.323 -0.4615 -0.2658  1.0567
  450MOL0     H60715   3.230   7.199   3.280 -0.4431  0.5353  1.2284
  450MOL0     H60716   3.425   6.815   3.258  1.1678 -3.1819  2.8690
  450MOL0     H60717   3.335   6.762   3.391 -0.0665  1.2188 -0.3075
  450MOL0     H60718   3.236   6.785   3.103  0.3798  0.2465 -0.3366
  450MOL0     H60719   3.289   6.647   3.172  2.7160  1.5276 -1.6274
  450MOL0     H60720   3.029   6.667   3.159 -1.3066 -1.2742  1.4678
  450MOL0     H60721   3.038   6.811   3.260  0.0840  0.0278  2.7383
  450MOL0     H60722   3.152   6.549   3.358  1.4977  1.4289 -2.3496
  450MOL0     H60723   3.109   6.698   3.443  2.4162 -0.5198 -0.9272
  450MOL0     H60724   2.915   6.494   3.318  0.2805  0.0131 -0.8495
  450MOL0     H60725   2.863   6.643   3.401 -0.2325 -1.1365  2.6563
  450MOL0     H60726   3.032   6.437   3.526 -0.0179  0.1515 -1.8118
  450MOL0     H60727   2.969   6.578   3.608  1.3380  1.1477 -1.9417
  450MOL0     H60728   2.799   6.360   3.468 -0.4009  1.1979 -1.0437
  450MOL0     H60729   2.740   6.505   3.546  0.8247  0.1835 -0.5357
  450MOL0     H60730   2.828   6.434   3.765  0.6908 -0.7363  0.8720
  450MOL0     H60731   2.901   6.296   3.685  0.3220  1.6932  1.1150
  450MOL0     H60732   3.547   6.923   3.396  0.7503 -0.2076  0.0335
  450MOL0     H60733   3.688   7.114   3.461  0.1655 -3.9216 -0.8701
  450MOL0     H60734   3.700   7.532   3.556  0.8060 -1.3942 -0.1048
  450MOL0     H60735   3.864   7.691   3.662 -2.5511  1.6544  0.5257
  450MOL0     H60736   4.871   6.852   3.843 -1.3384 -0.4511  0.5225
  450MOL0     H60737   5.116   6.829   3.849  2.1927  2.0487  3.2523
  450MOL0     H60738   5.488   6.602   3.881 -0.0871 -1.4413  0.4186
  450MOL0     H60739   5.722   6.601   3.865  1.8099 -1.0943  0.3179
  450MOL0     H60740   5.903   6.480   3.947 -0.7701  0.5741 -0.1856
  450MOL0     H60741   5.993   6.617   3.889 -2.0616  0.8655 -0.1687
  450MOL0     H60742   6.062   6.436   4.131 -1.7087  1.1463  1.3358
  450MOL0     H60743   6.104   6.611   4.146  0.6972  2.3545 -2.4199
  450MOL0     H60744   6.256   6.610   3.979  0.5512  0.1050  0.8298
  450MOL0     H60745   6.203   6.451   3.918 -0.4205 -0.5723  0.5151
  450MOL0     H60746   6.282   6.355   4.158  2.3974  0.6361  1.3967
  450MOL0     H60747   6.342   6.508   4.180  2.7457 -2.1933  0.9577
  450MOL0     H60748   6.658   6.377   3.965  1.0179  0.3235  2.5304
  450MOL0     H60749   5.748   6.725   4.282 -1.4690 -1.2681  1.1099
  450MOL0     H60750   5.502   6.742   4.286  1.1141  2.5146 -0.0025
  451MOL0     O60751   6.578   0.792   6.383  0.4304  0.1987 -0.6330
  451MOL0     C60752   6.578   0.786   6.506 -0.0072  0.4568  0.4541
  451MOL0     O60753   6.500   0.852   6.587  0.4330  0.2695  0.2788
  451MOL0     C60754   6.403   0.931   6.529  0.4893  0.4953  0.1426
  451MOL0     C60755   6.412   1.065   6.547 -0.0259 -0.1194 -0.3068
  451MOL0     C60756   6.317   1.151   6.490 -0.1288 -0.0329 -0.2402
  451MOL0     C60757   6.207   1.106   6.412  0.0799  0.4002 -0.2658
  451MOL0     O60758   6.094   1.174   6.381  0.1289 -0.0618 -0.8036
  451MOL0     C60759   6.097   1.314   6.328  0.6699 -0.9951 -0.2828
  451MOL0     C60760   5.948   1.353   6.304  0.9920  0.5496 -0.5146
  451MOL0     C60761   5.888   1.282   6.192 -0.9710  0.5009 -0.3124
  451MOL0     C60762   5.759   1.338   6.144 -0.5005 -0.0832  0.8615
  451MOL0     C60763   5.728   1.265   6.008  0.9253 -0.3164 -0.2135
  451MOL0     C60764   5.589   1.311   5.964  0.1364 -0.5705 -0.2069
  451MOL0     C60765   5.477   1.215   6.017 -0.2451 -0.7122 -0.6574
  451MOL0     C60766   5.354   1.231   5.936  0.6579  0.0240 -0.7937
  451MOL0     N60767   5.250   1.125   5.962  0.6799 -0.1904  0.2038
  451MOL0     C60768   5.168   1.131   6.067 -0.8113  0.9690 -0.3396
  451MOL0     C60769   5.068   1.046   6.041  0.4769 -0.5405  0.6241
  451MOL0     C60770   4.967   1.010   6.138 -0.0715 -0.8956 -0.0353
  451MOL0     C60771   4.874   0.899   6.081 -0.0762 -0.7881 -0.5723
  451MOL0     C60772   4.757   0.878   6.177 -0.5205 -0.3084 -0.0115
  451MOL0     C60773   4.662   0.768   6.127 -0.4311  0.2202  0.1488
  451MOL0     O60774   4.565   0.744   6.228 -0.3310 -0.3642 -0.3185
  451MOL0     C60775   4.433   0.751   6.193 -0.0782  0.2762 -0.0020
  451MOL0     C60776   4.347   0.844   6.252  0.7389 -0.0530 -1.1005
  451MOL0     C60777   4.210   0.850   6.214  0.5516  0.1189 -0.5961
  451MOL0     C60778   4.138   0.955   6.290  0.2428  0.1663  0.0911
  451MOL0     C60779   4.150   0.752   6.129 -0.3189  0.0315 -0.7166
  451MOL0     C60780   4.009   0.734   6.103 -0.2201  0.4903  0.1881
  451MOL0     O60781   3.965   0.644   6.006  0.0359 -0.5510  0.0123
  451MOL0     C60782   3.831   0.619   5.994  0.1421  0.1957 -0.1834
  451MOL0     C60783   3.749   0.692   5.911  0.7822 -0.2342 -0.3573
  451MOL0     C60784   3.613   0.664   5.891 -0.2208 -0.7217  0.0358
  451MOL0     C60785   3.549   0.551   5.948  0.8909  0.1888  0.2257
  451MOL0     O60786   3.406   0.549   5.921 -0.2846 -0.2453 -0.6477
  451MOL0     C60787   3.350   0.421   5.916 -1.2154 -0.7278  0.5101
  451MOL0     C60788   3.410   0.339   5.798  0.7341  0.3455 -0.2339
  451MOL0     C60789   3.310   0.239   5.742  0.5055 -0.3357  0.6881
  451MOL0     C60790   3.349   0.191   5.610  0.3690  0.1929 -0.4980
  451MOL0     C60791   3.231   0.135   5.525  0.2778 -0.4842 -0.5658
  451MOL0     C60792   3.298   0.074   5.399  0.3334 -0.6799  0.3239
  451MOL0     C60793   3.195  -0.009   5.323 -0.2759 -0.9058 -0.8303
  451MOL0     C60794   3.111  -0.117   5.389  0.1524  0.5381 -0.6744
  451MOL0    Cl60795   2.990  -0.181   5.275  0.2994  0.1037  0.0804
  451MOL0     C60796   3.625   0.468   6.031  0.3889  0.5823  0.2752
  451MOL0     C60797   3.768   0.507   6.056 -0.2484 -0.6700 -0.0082
  451MOL0     O60798   3.934   0.785   6.184 -0.2058  0.5983  0.3083
  451MOL0     C60799   4.240   0.655   6.077 -0.2231 -0.7520  0.2654
  451MOL0     C60800   4.376   0.658   6.104  0.0480 -0.2628  0.6180
  451MOL0     N60801   5.080   1.013   5.905 -0.0584  0.1331 -0.1302
  451MOL0     N60802   5.200   1.043   5.864  0.2954 -1.0134 -0.3743
  451MOL0     C60803   6.198   0.963   6.403 -0.0345  0.1910 -0.4195
  451MOL0     C60804   6.296   0.879   6.462  0.6536 -0.9687 -0.4804
  451MOL0     C60805   6.701   0.718   6.569  0.2938  0.3130 -0.3633
  451MOL0     C60806   6.719   0.735   6.709 -0.1087  0.2622  0.0761
  451MOL0     C60807   6.829   0.685   6.783 -0.0215 -0.6568 -0.9841
  451MOL0     C60808   6.939   0.623   6.713 -0.0710 -0.5433 -0.7263
  451MOL0     O60809   7.054   0.601   6.780  0.4000  0.0708 -0.1486
  451MOL0     C60810   7.169   0.558   6.713 -0.6659  0.3465 -0.6025
  451MOL0     C60811   7.286   0.568   6.805 -0.1354 -0.0822  0.1639
  451MOL0     C60812   7.420   0.529   6.730 -0.6122 -0.3223  0.4853
  451MOL0     C60813   7.542   0.592   6.796 -0.4386 -0.4401  0.0482
  451MOL0     C60814   7.669   0.512   6.808  0.2620  0.4884 -0.3986
  451MOL0     C60815   7.766   0.441   6.796  0.7180  0.2555  0.0773
  451MOL0     C60816   6.916   0.593   6.575 -0.1726 -0.3632 -0.3827
  451MOL0     C60817   6.796   0.639   6.506 -1.1098 -0.3164  0.5458
  451MOL0     H60818   6.490   1.111   6.607  0.0530 -0.3042 -0.2668
  451MOL0     H60819   6.310   1.257   6.513 -3.1687 -0.5502  1.8379
  451MOL0     H60820   6.144   1.377   6.404  1.4461 -1.3067 -0.4917
  451MOL0     H60821   6.151   1.330   6.234 -1.5242 -0.2566 -1.4740
  451MOL0     H60822   5.898   1.332   6.399  1.5279  1.8676  0.0911
  451MOL0     H60823   5.946   1.461   6.283  0.1601  0.0826 -3.2437
  451MOL0     H60824   5.962   1.273   6.112 -0.5318  1.5081 -0.0355
  451MOL0     H60825   5.855   1.183   6.226 -2.4189  1.3695  0.9144
  451MOL0     H60826   5.682   1.327   6.222  0.1676 -0.2824  1.5105
  451MOL0     H60827   5.767   1.446   6.124 -1.3678 -0.5229 -2.3660
  451MOL0     H60828   5.789   1.303   5.926 -2.3692  1.3034 -2.1002
  451MOL0     H60829   5.736   1.156   6.017 -1.0437 -0.3736  1.5360
  451MOL0     H60830   5.570   1.415   5.992  1.5356 -0.0775 -0.9968
  451MOL0     H60831   5.589   1.313   5.854 -1.2200  4.4132 -0.3686
  451MOL0     H60832   5.512   1.114   5.990 -0.9332 -1.4622  1.1208
  451MOL0     H60833   5.455   1.223   6.124 -0.3788 -2.0553 -0.5624
  451MOL0     H60834   5.382   1.230   5.830  2.1808 -1.8094 -0.4397
  451MOL0     H60835   5.308   1.326   5.962 -0.3959 -0.4674 -0.8431
  451MOL0     H60836   5.176   1.189   6.159 -1.9852  0.7028 -0.0505
  451MOL0     H60837   5.027   0.974   6.222  1.2052 -2.3211 -1.4766
  451MOL0     H60838   4.901   1.093   6.164  3.2944  2.4820 -1.2335
  451MOL0     H60839   4.921   0.803   6.060 -5.4970 -4.8803  2.9892
  451MOL0     H60840   4.843   0.939   5.984  1.1488 -0.5628 -0.8910
  451MOL0     H60841   4.691   0.963   6.198 -0.4173 -0.7603  2.4751
  451MOL0     H60842   4.797   0.826   6.265 -2.5310  1.1479  1.8562
  451MOL0     H60843   4.725   0.681   6.109 -0.6518  0.0874  0.0062
  451MOL0     H60844   4.624   0.791   6.027  1.6527 -1.8501 -1.2223
  451MOL0     H60845   4.382   0.921   6.320 -1.7642 -0.6771  1.0505
  451MOL0     H60846   4.064   1.006   6.227 -1.0096 -0.8229  0.7177
  451MOL0     H60847   4.084   0.909   6.373 -0.0548 -1.6448 -1.0434
  451MOL0     H60848   4.206   1.031   6.328  0.6130  0.1805 -0.5910
  451MOL0     H60849   3.797   0.780   5.868 -1.8927  1.8480  0.5941
  451MOL0     H60850   3.546   0.731   5.836 -0.5181  1.9149  3.2989
  451MOL0     H60851   3.360   0.360   6.007  1.0584 -0.1322  0.7238
  451MOL0     H60852   3.241   0.429   5.911 -1.1815  0.2850  0.9481
  451MOL0     H60853   3.427   0.413   5.719 -1.3310  1.8647  0.6500
  451MOL0     H60854   3.503   0.291   5.830  0.3818  0.9429  1.8008
  451MOL0     H60855   3.207   0.277   5.737  0.3297 -0.8927 -0.2937
  451MOL0     H60856   3.318   0.146   5.800  1.3061 -0.2406  0.7411
  451MOL0     H60857   3.401   0.269   5.553  1.0437 -0.4500 -0.7863
  451MOL0     H60858   3.420   0.110   5.627  1.0943  0.4893 -1.9553
  451MOL0     H60859   3.162   0.215   5.498  1.8340  2.7654  3.8937
  451MOL0     H60860   3.180   0.053   5.578 -1.1317  0.3182 -0.6293
  451MOL0     H60861   3.323   0.158   5.333 -3.3723  0.3641 -0.0161
  451MOL0     H60862   3.387   0.015   5.420  0.3803 -0.8818 -0.4172
  451MOL0     H60863   3.255  -0.068   5.253 -0.6142 -0.5437 -1.4386
  451MOL0     H60864   3.138   0.069   5.271  2.6919  3.5556  1.8773
  451MOL0     H60865   3.064  -0.078   5.480  0.3263 -0.4170 -0.1552
  451MOL0     H60866   3.188  -0.186   5.428 -0.0568  0.5051 -0.3143
  451MOL0     H60867   3.576   0.380   6.073 -1.8041  0.9831 -1.2562
  451MOL0     H60868   3.836   0.457   6.124  2.1637  2.0729 -0.2140
  451MOL0     H60869   4.200   0.580   6.010 -2.8478  0.7977 -0.0286
  451MOL0     H60870   4.442   0.589   6.053  0.6583  1.8942 -1.7876
  451MOL0     H60871   6.122   0.918   6.340 -0.3764  1.0848 -0.6692
  451MOL0     H60872   6.268   0.774   6.459  0.9833 -1.1321  1.2771
  451MOL0     H60873   6.639   0.790   6.758 -2.6015 -0.4171 -2.9212
  451MOL0     H60874   6.839   0.696   6.890  1.4439 -0.4475 -1.1345
  451MOL0     H60875   7.176   0.460   6.665  1.9561 -0.0726  0.4801
  451MOL0     H60876   7.184   0.631   6.633 -2.2095 -0.8227 -2.0548
  451MOL0     H60877   7.269   0.514   6.899 -0.5602 -3.4059 -1.6759
  451MOL0     H60878   7.288   0.671   6.842 -0.9789 -0.4648  1.3429
  451MOL0     H60879   7.414   0.583   6.635 -0.9497  0.5263  0.9740
  451MOL0     H60880   7.430   0.422   6.709 -1.2059  0.0173 -1.8335
  451MOL0     H60881   7.520   0.612   6.901  1.0334 -1.5745  0.6019
  451MOL0     H60882   7.566   0.689   6.751  0.3628  0.5060  2.3288
  451MOL0     H60883   7.855   0.387   6.771  0.3442  0.8814 -2.9490
  451MOL0     H60884   6.988   0.542   6.511 -0.1349  2.0873 -2.4580
  451MOL0     H60885   6.782   0.622   6.400 -0.8850 -0.1520  0.4893
  452MOL0     O60886   8.883   5.780   4.584  0.3801 -0.5463  0.1697
  452MOL0     C60887   8.998   5.768   4.632  0.0330 -0.6251  0.3621
  452MOL0     O60888   9.025   5.693   4.739 -0.3705 -0.8324 -0.2605
  452MOL0     C60889   8.953   5.580   4.767  0.3608 -0.0439 -0.5824
  452MOL0     C60890   8.971   5.529   4.895  1.0206  0.2494 -0.0709
  452MOL0     C60891   8.890   5.427   4.952  0.3777 -0.0794  0.2544
  452MOL0     C60892   8.791   5.367   4.866  0.5175  0.3437 -0.6834
  452MOL0     O60893   8.715   5.261   4.905  0.1916 -0.1198  0.7238
  452MOL0     C60894   8.666   5.260   5.035  0.7173 -0.1760  0.4849
  452MOL0     C60895   8.741   5.151   5.115  0.6405 -0.1751 -0.2423
  452MOL0     C60896   8.784   5.025   5.038 -0.5691 -0.3042 -0.4727
  452MOL0     C60897   8.764   4.900   5.125  0.3864  0.0821 -0.3249
  452MOL0     C60898   8.835   4.772   5.079 -0.8296 -0.7869  0.1152
  452MOL0     C60899   8.829   4.737   4.930  0.2305  0.1657  0.7661
  452MOL0     C60900   8.692   4.714   4.866 -0.8920  0.1994 -0.1034
  452MOL0     C60901   8.710   4.733   4.716  0.3590  0.6531 -0.4334
  452MOL0     N60902   8.581   4.764   4.659  0.0250  0.4264  0.4419
  452MOL0     C60903   8.513   4.881   4.670 -0.3434 -0.1394 -0.2774
  452MOL0     C60904   8.391   4.864   4.615  0.4485  0.9554  0.0027
  452MOL0     C60905   8.281   4.963   4.593 -0.3945  0.1465 -0.2538
  452MOL0     C60906   8.226   5.020   4.719  0.4745 -0.7113 -0.7003
  452MOL0     C60907   8.317   5.094   4.806 -0.3915 -0.8554 -0.7881
  452MOL0     C60908   8.242   5.176   4.909  0.0738  0.4621 -0.0255
  452MOL0     O60909   8.168   5.100   5.007 -0.1087  0.9429  0.2911
  452MOL0     C60910   8.073   5.165   5.081 -0.2638  0.7457 -1.2292
  452MOL0     C60911   8.065   5.306   5.102 -0.3779 -0.4829  0.4260
  452MOL0     C60912   7.973   5.369   5.182  0.1057 -0.2197  0.5129
  452MOL0     C60913   7.966   5.523   5.176 -0.0981 -0.3932 -0.4403
  452MOL0     C60914   7.893   5.295   5.268 -0.2621 -0.4943  0.7324
  452MOL0     C60915   7.784   5.347   5.351 -0.0017  0.0868 -1.0771
  452MOL0     O60916   7.673   5.281   5.357 -0.3717 -0.5343  0.8240
  452MOL0     C60917   7.563   5.298   5.437 -1.1236 -0.3071  0.6540
  452MOL0     C60918   7.572   5.340   5.579 -0.4174  0.0216 -0.0861
  452MOL0     C60919   7.452   5.359   5.661 -0.7601  0.1012  0.1437
  452MOL0     C60920   7.328   5.332   5.598  0.3146 -0.0353  0.2539
  452MOL0     O60921   7.224   5.349   5.686 -0.3376 -0.0699 -0.2244
  452MOL0     C60922   7.093   5.392   5.649 -0.2804  0.3574  0.3644
  452MOL0     C60923   7.023   5.453   5.771 -0.9145 -0.1517  0.6238
  452MOL0     C60924   6.903   5.521   5.718 -0.4059 -0.1438 -0.1966
  452MOL0     C60925   6.820   5.594   5.829 -0.2097 -0.1828 -0.0678
  452MOL0     C60926   6.906   5.680   5.916  0.8193 -0.6579  0.9637
  452MOL0     C60927   6.827   5.789   5.991 -0.2987  0.3651 -0.0608
  452MOL0     C60928   6.918   5.888   6.065 -0.2329  0.1203 -0.3114
  452MOL0     C60929   6.856   5.984   6.171 -0.9259  0.5827 -0.9905
  452MOL0    Cl60930   6.754   5.892   6.294 -0.1341  0.4735 -0.3622
  452MOL0     C60931   7.318   5.287   5.468  0.5184 -0.2317 -0.3269
  452MOL0     C60932   7.435   5.267   5.391 -0.2773 -0.4408 -0.5223
  452MOL0     O60933   7.810   5.454   5.414  0.2373  0.9477 -0.5287
  452MOL0     C60934   7.908   5.158   5.259  0.5467  0.4232 -0.3525
  452MOL0     C60935   7.990   5.091   5.165  0.5093  0.8098  0.5558
  452MOL0     N60936   8.397   4.731   4.552  0.5698 -0.5017  0.1261
  452MOL0     N60937   8.504   4.671   4.587 -0.4343 -0.6763  0.1582
  452MOL0     C60938   8.777   5.410   4.733  0.3824 -0.1928 -0.5501
  452MOL0     C60939   8.859   5.512   4.693 -0.3916 -0.1198  0.4419
  452MOL0     C60940   9.098   5.856   4.576 -0.9273  0.2907  0.8150
  452MOL0     C60941   9.229   5.846   4.621  0.3716  0.2211 -0.0468
  452MOL0     C60942   9.335   5.921   4.565  0.4661  0.0482 -0.4313
  452MOL0     C60943   9.305   6.001   4.459  0.3222  0.4554  0.3070
  452MOL0     O60944   9.415   6.081   4.416 -0.1643  0.2945 -0.2827
  452MOL0     C60945   9.392   6.158   4.295  0.6376  0.3656 -0.1570
  452MOL0     C60946   9.452   6.293   4.323  0.1728  0.0077  0.7163
  452MOL0     C60947   9.599   6.294   4.337  0.1578  0.9259 -0.0869
  452MOL0     C60948   9.655   6.434   4.332 -0.7493 -0.3034  0.7560
  452MOL0     C60949   9.800   6.417   4.352  0.3278  0.1613  0.6513
  452MOL0     C60950   9.919   6.401   4.377 -0.5919 -0.7298 -0.5979
  452MOL0     C60951   9.174   6.002   4.402 -0.9691  0.1490  0.0656
  452MOL0     C60952   9.070   5.936   4.467 -0.8120  0.1353  0.0357
  452MOL0     H60953   9.056   5.569   4.950  1.4195  0.4081 -0.7921
  452MOL0     H60954   8.895   5.409   5.058  0.4301  2.9746  0.8580
  452MOL0     H60955   8.666   5.357   5.087 -1.0328  1.7230 -2.7415
  452MOL0     H60956   8.560   5.237   5.023  1.6764 -6.4003  0.9218
  452MOL0     H60957   8.833   5.199   5.151  1.3754  0.0564 -2.2714
  452MOL0     H60958   8.673   5.119   5.194 -3.6210 -0.5579 -3.7271
  452MOL0     H60959   8.723   5.012   4.948  1.4027 -2.6879 -1.5866
  452MOL0     H60960   8.891   5.032   5.019 -0.6034 -0.1494 -0.6092
  452MOL0     H60961   8.803   4.921   5.225 -0.6422 -1.0933  0.3542
  452MOL0     H60962   8.656   4.880   5.135  0.5596 -0.8322 -0.1896
  452MOL0     H60963   8.941   4.781   5.106 -0.4498  0.6813 -1.6674
  452MOL0     H60964   8.785   4.688   5.128  1.3443 -2.7668 -0.8662
  452MOL0     H60965   8.887   4.814   4.879  0.7366 -0.6485  0.0834
  452MOL0     H60966   8.884   4.644   4.917  0.0629  0.4026 -2.5994
  452MOL0     H60967   8.671   4.607   4.879  0.9833 -0.5370 -2.2934
  452MOL0     H60968   8.613   4.767   4.920  1.1154  2.5464  0.7097
  452MOL0     H60969   8.745   4.636   4.679  1.5674  1.1850 -0.7288
  452MOL0     H60970   8.780   4.809   4.682 -0.2770  0.7238 -1.6303
  452MOL0     H60971   8.559   4.969   4.713 -0.8062 -0.3258  0.6118
  452MOL0     H60972   8.324   5.049   4.541  1.7513  0.9934  2.5979
  452MOL0     H60973   8.201   4.922   4.532  1.2466  0.6638 -2.8918
  452MOL0     H60974   8.191   4.935   4.777 -1.1047 -1.9153 -3.2544
  452MOL0     H60975   8.146   5.087   4.687  0.8892 -0.8593 -2.1092
  452MOL0     H60976   8.388   5.163   4.761 -0.6125  1.8257  2.5740
  452MOL0     H60977   8.375   5.023   4.865  1.6621  1.6548  0.3741
  452MOL0     H60978   8.177   5.254   4.869 -0.1921  1.6355  2.4952
  452MOL0     H60979   8.320   5.224   4.969  1.4526 -1.8558  0.1601
  452MOL0     H60980   8.142   5.370   5.061 -1.2546  1.7350  2.0000
  452MOL0     H60981   8.031   5.562   5.097  1.4346  0.2416  1.0609
  452MOL0     H60982   7.864   5.559   5.161  0.1368  0.6519  0.3426
  452MOL0     H60983   8.003   5.566   5.270  0.9936 -0.4658 -0.8224
  452MOL0     H60984   7.672   5.365   5.613 -0.3158 -0.3216 -0.1219
  452MOL0     H60985   7.460   5.386   5.766  2.0606  2.4097 -0.5285
  452MOL0     H60986   7.110   5.475   5.580 -0.6295  0.9560  0.9843
  452MOL0     H60987   7.037   5.306   5.611  0.0888 -0.2567  1.2073
  452MOL0     H60988   6.990   5.379   5.845 -0.4153  0.2040  1.2122
  452MOL0     H60989   7.093   5.517   5.826  1.9750 -1.2881 -1.4895
  452MOL0     H60990   6.841   5.444   5.672  0.9770  0.3356 -3.0647
  452MOL0     H60991   6.941   5.584   5.637  4.3579 -0.5483  1.4238
  452MOL0     H60992   6.744   5.647   5.770 -1.7855 -1.6286  0.5670
  452MOL0     H60993   6.772   5.517   5.889  0.4473  0.4352  1.3032
  452MOL0     H60994   6.978   5.732   5.852  1.0101 -3.8902 -1.6996
  452MOL0     H60995   6.973   5.617   5.975 -0.0085 -0.6553  1.9341
  452MOL0     H60996   6.766   5.851   5.926  0.1681  0.5541 -0.3182
  452MOL0     H60997   6.765   5.746   6.071  1.9556 -0.4967  1.3310
  452MOL0     H60998   6.972   5.943   5.988  1.0414  0.2506  0.6598
  452MOL0     H60999   6.989   5.824   6.118 -0.6258 -1.0778 -1.1715
  452MOL0     H61000   6.799   6.056   6.112 -3.0919  0.3104  0.6594
  452MOL0     H61001   6.941   6.025   6.226  0.7896 -0.7594 -2.5111
  452MOL0     H61002   7.217   5.277   5.429 -0.7030  1.4661  2.2082
  452MOL0     H61003   7.427   5.236   5.287 -2.1208 -0.2900 -0.4486
  452MOL0     H61004   7.850   5.091   5.322  0.6003 -0.4949 -1.2699
  452MOL0     H61005   7.984   4.983   5.159 -3.0564  0.9356 -0.7196
  452MOL0     H61006   8.703   5.357   4.675  0.3167  0.4936 -1.1161
  452MOL0     H61007   8.869   5.539   4.589 -0.0919 -2.8883 -0.3348
  452MOL0     H61008   9.252   5.783   4.707 -0.3467 -1.2254 -0.8884
  452MOL0     H61009   9.432   5.903   4.609 -0.3006 -3.7775  0.0295
  452MOL0     H61010   9.426   6.100   4.208 -0.9134 -1.9205  0.6559
  452MOL0     H61011   9.285   6.174   4.280  0.7928  0.6522 -1.0794
  452MOL0     H61012   9.403   6.328   4.414 -2.9116 -0.3432 -0.7064
  452MOL0     H61013   9.421   6.359   4.241  0.8293 -0.0483  0.4153
  452MOL0     H61014   9.652   6.239   4.258 -1.3222  0.9787 -1.1616
  452MOL0     H61015   9.625   6.240   4.429  0.0803  1.3425  0.1779
  452MOL0     H61016   9.609   6.489   4.415 -3.4902  0.3401 -1.0693
  452MOL0     H61017   9.640   6.493   4.241  0.3496 -1.0317  0.0819
  452MOL0     H61018  10.025   6.397   4.391 -0.3074 -0.4787 -2.3349
  452MOL0     H61019   9.139   6.054   4.314 -0.6080 -2.1401 -1.5250
  452MOL0     H61020   8.975   5.937   4.414 -1.2528 -1.4609  0.7304
  453MOL0     O61021   2.651   5.995   2.331  0.0399 -0.8752  0.1536
  453MOL0     C61022   2.731   6.042   2.250 -0.3003 -0.0708  0.6049
  453MOL0     O61023   2.716   6.034   2.116  0.0279 -0.1355 -0.0894
  453MOL0     C61024   2.590   6.015   2.062 -0.5790 -0.5168 -0.1374
  453MOL0     C61025   2.512   5.898   2.080 -0.3748 -0.0100  0.1139
  453MOL0     C61026   2.382   5.889   2.017  0.2561  0.5504 -0.1398
  453MOL0     C61027   2.325   5.998   1.966 -0.0953 -0.1681  0.5877
  453MOL0     O61028   2.204   5.970   1.907  0.6598 -0.3289 -0.0286
  453MOL0     C61029   2.126   6.070   1.845 -0.4238  0.1060  0.6283
  453MOL0     C61030   2.024   6.001   1.764  0.8298 -0.3999  0.3980
  453MOL0     C61031   1.897   5.971   1.848  0.8307  0.9639  0.2551
  453MOL0     C61032   1.802   5.877   1.779 -0.1445 -0.0065  0.3214
  453MOL0     C61033   1.663   5.870   1.821 -0.1204 -0.2548 -0.4145
  453MOL0     C61034   1.585   5.774   1.730 -0.3719  0.7358 -0.2519
  453MOL0     C61035   1.435   5.789   1.726  0.3048  0.5455  0.0673
  453MOL0     C61036   1.382   5.925   1.686 -0.6696  0.0359  0.0916
  453MOL0     N61037   1.236   5.923   1.700  0.7176  0.0760 -0.1613
  453MOL0     C61038   1.159   5.922   1.816 -0.0011  0.5711  0.3623
  453MOL0     C61039   1.029   5.887   1.778 -0.1687 -0.1024  0.9042
  453MOL0     C61040   0.910   5.879   1.870  0.1557  0.3724  0.0801
  453MOL0     C61041   0.850   5.742   1.899  0.3129  0.6509  0.8413
  453MOL0     C61042   0.952   5.662   1.973  0.4076 -0.2275 -0.0029
  453MOL0     C61043   0.963   5.707   2.117  0.7770 -0.1412 -0.4914
  453MOL0     O61044   1.080   5.802   2.122 -0.1063 -0.6300  0.2055
  453MOL0     C61045   1.161   5.802   2.232 -0.5750 -0.1664  0.1263
  453MOL0     C61046   1.139   5.754   2.363 -0.1572  0.4074  0.1160
  453MOL0     C61047   1.241   5.748   2.459 -0.6476 -0.2800  0.7346
  453MOL0     C61048   1.204   5.664   2.574  0.8038  0.1674 -0.0036
  453MOL0     C61049   1.367   5.795   2.423  1.3585 -0.5175  1.5155
  453MOL0     C61050   1.478   5.787   2.513  0.3629 -0.1096  1.6057
  453MOL0     O61051   1.553   5.894   2.536  0.1479  0.1546 -0.1044
  453MOL0     C61052   1.676   5.880   2.587 -0.0674 -0.4141 -0.6696
  453MOL0     C61053   1.731   5.978   2.671 -0.9813 -0.1889  0.0158
  453MOL0     C61054   1.871   5.970   2.702  0.8121 -0.2859 -0.0987
  453MOL0     C61055   1.945   5.853   2.688  0.5940  1.0637  0.2774
  453MOL0     O61056   2.069   5.843   2.748 -0.1780 -0.2171 -0.0736
  453MOL0     C61057   2.153   5.726   2.723  0.1583 -0.2709 -0.7431
  453MOL0     C61058   2.295   5.724   2.792 -0.0904  0.4952  0.6126
  453MOL0     C61059   2.368   5.849   2.749  0.2149 -0.3309  0.1912
  453MOL0     C61060   2.509   5.847   2.806  0.1272 -0.6785 -0.2361
  453MOL0     C61061   2.601   5.947   2.729  0.2996 -0.6299 -0.8902
  453MOL0     C61062   2.749   5.950   2.789  0.0642 -0.1783 -0.0282
  453MOL0     C61063   2.837   6.056   2.721  0.7181  0.5435  0.2868
  453MOL0     C61064   2.980   6.049   2.772  0.7052  0.0685  0.1567
  453MOL0    Cl61065   3.062   5.892   2.724  0.1001 -0.2596 -0.0951
  453MOL0     C61066   1.894   5.755   2.605 -0.4426  1.1288  0.1748
  453MOL0     C61067   1.764   5.769   2.549  0.4702  1.1434 -0.2891
  453MOL0     O61068   1.494   5.681   2.566 -0.0762 -0.4128 -0.0175
  453MOL0     C61069   1.390   5.864   2.300  1.1218 -0.8727  0.5824
  453MOL0     C61070   1.288   5.870   2.210  0.4270 -0.9694 -0.1021
  453MOL0     N61071   1.027   5.885   1.637 -0.4920  0.8877 -0.7274
  453MOL0     N61072   1.152   5.907   1.592  0.1399  0.4756 -0.2994
  453MOL0     C61073   2.397   6.115   1.949 -0.3445 -0.0067 -0.2876
  453MOL0     C61074   2.530   6.125   1.993  0.4930 -0.2660 -0.3332
  453MOL0     C61075   2.868   6.087   2.286 -1.1706  0.1043 -0.3016
  453MOL0     C61076   2.936   6.190   2.216  0.1346 -0.6451  0.5177
  453MOL0     C61077   3.074   6.213   2.245 -0.1871 -0.8621 -0.2304
  453MOL0     C61078   3.137   6.149   2.347 -0.0050 -0.3364 -0.1590
  453MOL0     O61079   3.277   6.149   2.345  0.3000 -0.1968  0.0430
  453MOL0     C61080   3.341   6.229   2.439  0.1202 -0.0044 -0.5724
  453MOL0     C61081   3.353   6.183   2.584 -0.0469 -0.2612  0.3662
  453MOL0     C61082   3.426   6.055   2.604  0.4088 -0.3343  0.6501
  453MOL0     C61083   3.576   6.082   2.611  0.5190 -0.0387 -0.2426
  453MOL0     C61084   3.644   5.954   2.637 -0.4538 -0.2344  0.0992
  453MOL0     C61085   3.699   5.850   2.667 -0.1277  0.2058  0.7923
  453MOL0     C61086   3.065   6.055   2.416  0.6014  0.1543 -0.0834
  453MOL0     C61087   2.933   6.022   2.393  0.5745 -0.0158  0.2792
  453MOL0     H61088   2.563   5.817   2.131 -1.3274 -1.4249 -1.0684
  453MOL0     H61089   2.325   5.796   2.021 -1.2825  1.4725  0.7889
  453MOL0     H61090   2.080   6.126   1.927  0.2390  0.9927  0.4118
  453MOL0     H61091   2.185   6.140   1.785 -0.2032 -0.2011  0.4823
  453MOL0     H61092   1.994   6.073   1.687 -3.1775  0.8015  2.7492
  453MOL0     H61093   2.069   5.906   1.734 -0.9376 -1.0254 -0.4105
  453MOL0     H61094   1.928   5.904   1.929 -0.3078 -1.6780 -1.3770
  453MOL0     H61095   1.847   6.060   1.888 -0.8773  1.0413 -1.8472
  453MOL0     H61096   1.798   5.904   1.673 -2.6120  1.6365  0.7595
  453MOL0     H61097   1.836   5.774   1.788 -1.7129 -0.6013 -0.2013
  453MOL0     H61098   1.651   5.842   1.927  0.7584  1.8706  0.2999
  453MOL0     H61099   1.617   5.968   1.812 -0.3092 -0.4107 -1.1955
  453MOL0     H61100   1.619   5.770   1.626 -2.6921  0.8681 -1.0534
  453MOL0     H61101   1.607   5.674   1.769  0.5665  0.9561 -0.1708
  453MOL0     H61102   1.391   5.714   1.660  0.8949 -0.6378  0.9639
  453MOL0     H61103   1.398   5.766   1.827 -2.6917 -1.6471 -1.3760
  453MOL0     H61104   1.411   5.936   1.581 -0.0676  1.4250  0.3837
  453MOL0     H61105   1.426   6.012   1.735  0.0260 -0.0602 -0.3541
  453MOL0     H61106   1.191   5.943   1.917  0.6436  3.0265 -0.2768
  453MOL0     H61107   0.930   5.925   1.968 -1.6096 -0.8705  1.0838
  453MOL0     H61108   0.828   5.940   1.830  0.4196  1.2598  0.8426
  453MOL0     H61109   0.824   5.687   1.808 -0.4933  0.5156  1.1492
  453MOL0     H61110   0.762   5.764   1.960  0.5115 -1.6524  2.0523
  453MOL0     H61111   1.041   5.650   1.911  0.4012 -1.1074  0.1435
  453MOL0     H61112   0.916   5.559   1.974  2.7881 -1.1184  1.5207
  453MOL0     H61113   0.979   5.629   2.192  2.4478  1.1094  0.5011
  453MOL0     H61114   0.873   5.757   2.152  0.8502 -0.3702  0.0319
  453MOL0     H61115   1.039   5.723   2.393 -1.0225  1.8545 -1.1008
  453MOL0     H61116   1.099   5.675   2.604  0.9755 -1.8960  1.5889
  453MOL0     H61117   1.212   5.558   2.550 -2.4706 -0.7259  2.1477
  453MOL0     H61118   1.261   5.680   2.666  0.5333 -1.6498  0.5157
  453MOL0     H61119   1.684   6.065   2.714  1.6846  2.1802 -1.5152
  453MOL0     H61120   1.924   6.035   2.770  1.3141  0.4185 -1.1383
  453MOL0     H61121   2.096   5.636   2.748 -2.3911  0.9852 -1.6613
  453MOL0     H61122   2.165   5.716   2.614 -0.2009 -0.5926 -0.7540
  453MOL0     H61123   2.274   5.719   2.899 -1.1470  1.5601  0.4794
  453MOL0     H61124   2.329   5.624   2.764 -5.5884 -2.4467  2.8441
  453MOL0     H61125   2.309   5.931   2.793 -0.0602  1.0110 -2.5072
  453MOL0     H61126   2.377   5.855   2.641 -0.7614 -0.9852  0.0532
  453MOL0     H61127   2.504   5.873   2.913 -0.9119  0.0836 -0.4560
  453MOL0     H61128   2.557   5.749   2.798 -1.7554 -1.4917 -2.7322
  453MOL0     H61129   2.558   6.046   2.743  2.6629  0.4451 -0.6080
  453MOL0     H61130   2.615   5.933   2.621 -1.6930  4.1512 -2.0291
  453MOL0     H61131   2.743   5.986   2.892 -0.7931 -1.6694  0.4682
  453MOL0     H61132   2.801   5.854   2.787  3.4197  1.4836  0.5775
  453MOL0     H61133   2.807   6.157   2.751 -0.8624 -0.1271  1.0806
  453MOL0     H61134   2.833   6.043   2.612  1.4068 -0.7253  0.4011
  453MOL0     H61135   2.970   6.044   2.881  0.4666 -0.5394  0.1076
  453MOL0     H61136   3.033   6.136   2.731  2.3658 -0.4148  1.2006
  453MOL0     H61137   1.945   5.663   2.577 -2.6233 -0.4263  0.9914
  453MOL0     H61138   1.728   5.700   2.473  0.8369  1.9577 -1.2365
  453MOL0     H61139   1.479   5.913   2.263  0.2572 -0.1562 -0.6228
  453MOL0     H61140   1.311   5.917   2.116  0.8868 -0.4547  0.2636
  453MOL0     H61141   2.361   6.204   1.898 -0.5727 -0.7740 -1.4818
  453MOL0     H61142   2.579   6.221   1.980 -0.0061 -0.1599 -1.5451
  453MOL0     H61143   2.899   6.246   2.131 -2.2183 -0.2289  1.7226
  453MOL0     H61144   3.137   6.273   2.180  0.9784  1.8293  3.0306
  453MOL0     H61145   3.444   6.234   2.403  0.6460  1.1754  1.0034
  453MOL0     H61146   3.298   6.329   2.432 -0.2282 -0.1249 -0.1682
  453MOL0     H61147   3.252   6.173   2.625  0.3644 -0.4605  1.3778
  453MOL0     H61148   3.403   6.262   2.641 -0.2241  0.4009 -0.3962
  453MOL0     H61149   3.402   5.985   2.524  2.1997 -1.3621  0.9457
  453MOL0     H61150   3.391   6.012   2.698  0.4409 -2.2514 -0.1752
  453MOL0     H61151   3.605   6.150   2.692  1.3661  0.6633 -1.1071
  453MOL0     H61152   3.624   6.125   2.522 -0.4541  2.3528  0.2858
  453MOL0     H61153   3.764   5.766   2.682 -0.4147 -0.2623 -0.4266
  453MOL0     H61154   3.113   6.002   2.497  2.1501  0.2659 -0.8968
  453MOL0     H61155   2.883   5.940   2.444 -0.0817  1.0143  1.3353
  454MOL0     O61156   0.891   8.724   4.148  0.3444  0.0765  0.4552
  454MOL0     C61157   0.931   8.611   4.109  0.1597  0.4494 -1.0882
  454MOL0     O61158   0.846   8.507   4.069  0.0380  0.5163  0.1700
  454MOL0     C61159   0.717   8.530   4.051  0.2395  0.1299 -0.0203
  454MOL0     C61160   0.671   8.547   3.927  0.3354  0.3150  0.3342
  454MOL0     C61161   0.534   8.573   3.900  0.0579 -0.1433  0.6697
  454MOL0     C61162   0.442   8.567   4.006  0.1870 -0.2140 -0.4020
  454MOL0     O61163   0.305   8.592   4.001 -0.6848  0.4822  0.3443
  454MOL0     C61164   0.254   8.645   3.877  0.3461 -0.4566  0.1027
  454MOL0     C61165   0.105   8.622   3.886  0.4639 -0.7946  0.3329
  454MOL0     C61166   0.053   8.476   3.890  0.0463  0.2268  0.1761
  454MOL0     C61167  -0.100   8.473   3.890 -0.0867 -0.1922  0.0819
  454MOL0     C61168  -0.154   8.335   3.904 -0.7975 -0.0506  0.2366
  454MOL0     C61169  -0.128   8.246   3.778 -0.7575  0.0975  0.0916
  454MOL0     C61170  -0.222   8.118   3.780 -0.5771 -0.6151  0.4923
  454MOL0     C61171  -0.217   8.039   3.910  0.1701  0.1154 -0.0461
  454MOL0     N61172  -0.306   7.929   3.894  0.0389 -0.5509 -0.6122
  454MOL0     C61173  -0.270   7.802   3.863 -0.3606  0.3648 -0.0648
  454MOL0     C61174  -0.383   7.728   3.882 -0.0607 -0.5540 -0.6005
  454MOL0     C61175  -0.417   7.588   3.844  0.2407  0.2284 -0.7559
  454MOL0     C61176  -0.570   7.553   3.831  0.5002 -0.4872 -0.1290
  454MOL0     C61177  -0.589   7.410   3.765 -0.0932  0.1555 -0.7548
  454MOL0     C61178  -0.726   7.358   3.764 -0.6676  0.3849 -0.4527
  454MOL0     O61179  -0.755   7.309   3.899  0.4784 -0.1004  0.5019
  454MOL0     C61180  -0.887   7.276   3.927  0.2815 -0.0250  0.6030
  454MOL0     C61181  -0.928   7.247   4.057  0.7954 -0.4856 -0.0273
  454MOL0     C61182  -1.063   7.232   4.101 -0.5952  0.0767 -0.4127
  454MOL0     C61183  -1.091   7.231   4.252  0.5921  0.6931  0.8845
  454MOL0     C61184  -1.158   7.216   3.997  0.5348  0.2962 -0.3690
  454MOL0     C61185  -1.307   7.205   4.022  1.0281 -0.2306  0.6063
  454MOL0     O61186  -1.396   7.221   3.922 -0.3493  0.2679  0.0807
  454MOL0     C61187  -1.528   7.181   3.938  1.0047 -0.3408 -0.3880
  454MOL0     C61188  -1.575   7.060   3.891 -0.7051 -0.0524 -0.1209
  454MOL0     C61189  -1.708   7.025   3.885 -0.6448 -0.8790  0.1414
  454MOL0     C61190  -1.806   7.114   3.930 -0.1393 -0.6398  0.4841
  454MOL0     O61191  -1.937   7.076   3.907 -0.2861  0.2626 -0.7634
  454MOL0     C61192  -2.026   7.122   4.005  0.0528  0.1006 -0.3222
  454MOL0     C61193  -2.154   7.034   3.997  0.1031 -0.1900  0.9582
  454MOL0     C61194  -2.122   6.880   4.020  0.0678  0.3150  0.1025
  454MOL0     C61195  -2.079   6.840   4.158  0.2197  0.1887 -0.1916
  454MOL0     C61196  -2.018   6.705   4.165  0.1977  0.8771  0.5663
  454MOL0     C61197  -1.935   6.695   4.293 -0.3595  0.2837 -1.0850
  454MOL0     C61198  -2.021   6.693   4.424  0.4687  0.5540 -0.0094
  454MOL0     C61199  -1.977   6.804   4.525 -0.4188  0.7169  0.0646
  454MOL0    Cl61200  -1.802   6.808   4.532 -0.2116  0.1556  0.0884
  454MOL0     C61201  -1.760   7.247   3.971  0.3140  0.4971  0.4207
  454MOL0     C61202  -1.619   7.277   3.970  1.0081 -0.0908 -0.3131
  454MOL0     O61203  -1.341   7.164   4.132  0.6111 -0.0055  0.7665
  454MOL0     C61204  -1.118   7.219   3.863 -1.1875 -0.7010  0.1005
  454MOL0     C61205  -0.985   7.251   3.825  0.7181  0.2073 -0.3147
  454MOL0     N61206  -0.483   7.819   3.917  0.5058  0.3464 -0.7091
  454MOL0     N61207  -0.436   7.933   3.932  0.1975  0.1832 -0.2335
  454MOL0     C61208   0.497   8.539   4.128  0.0261 -0.0250  0.6378
  454MOL0     C61209   0.633   8.517   4.152 -0.8236 -0.3654 -0.4664
  454MOL0     C61210   1.076   8.586   4.113 -0.4573  0.4385 -0.0495
  454MOL0     C61211   1.133   8.461   4.067  0.5290 -0.1305 -0.8861
  454MOL0     C61212   1.266   8.438   4.076  0.2760 -0.4250  0.2578
  454MOL0     C61213   1.355   8.531   4.126  0.4777 -0.1292  0.5792
  454MOL0     O61214   1.481   8.493   4.143  0.2600  0.9441 -0.1534
  454MOL0     C61215   1.572   8.587   4.207 -0.2306 -0.0984 -0.3820
  454MOL0     C61216   1.704   8.493   4.237  0.2592 -0.0216 -0.2090
  454MOL0     C61217   1.793   8.572   4.334 -0.2042  0.2184  0.4808
  454MOL0     C61218   1.934   8.539   4.320  0.0028  0.3337  0.8417
  454MOL0     C61219   2.010   8.641   4.387 -0.5611 -0.1676 -0.0738
  454MOL0     C61220   2.082   8.723   4.442  0.6069  0.6476  0.2575
  454MOL0     C61221   1.300   8.650   4.178 -0.2590 -0.2420  0.0723
  454MOL0     C61222   1.165   8.679   4.170  0.1180 -0.4567  1.1047
  454MOL0     H61223   0.728   8.551   3.835 -2.0334  0.8141 -1.2122
  454MOL0     H61224   0.502   8.596   3.799  1.2555 -0.1009  0.2866
  454MOL0     H61225   0.290   8.748   3.865  0.1479 -0.3056  0.7794
  454MOL0     H61226   0.296   8.589   3.793  4.1519 -0.4369  1.7679
  454MOL0     H61227   0.060   8.677   3.969 -1.0947 -0.5876 -0.6098
  454MOL0     H61228   0.060   8.669   3.798 -2.4293 -3.7280  0.0709
  454MOL0     H61229   0.101   8.419   3.809  1.1118 -0.2145  1.0899
  454MOL0     H61230   0.078   8.427   3.985 -0.0956 -1.9216 -0.8279
  454MOL0     H61231  -0.149   8.530   3.969 -1.0286 -1.8013  0.7139
  454MOL0     H61232  -0.130   8.510   3.791 -0.1738 -1.9980 -0.6133
  454MOL0     H61233  -0.110   8.303   3.999 -1.4221  2.0591  1.2961
  454MOL0     H61234  -0.263   8.336   3.913 -1.0808 -1.4015 -2.2098
  454MOL0     H61235  -0.155   8.300   3.687  0.7669  2.2796  0.8469
  454MOL0     H61236  -0.024   8.213   3.780 -0.6659  0.4168  1.3947
  454MOL0     H61237  -0.325   8.150   3.759 -0.3303 -0.5792 -0.6958
  454MOL0     H61238  -0.188   8.061   3.693 -0.6223  1.0623 -0.6598
  454MOL0     H61239  -0.240   8.095   4.001  0.8310  1.7910 -0.8623
  454MOL0     H61240  -0.111   8.013   3.919 -0.1563 -0.4389  3.6886
  454MOL0     H61241  -0.180   7.759   3.820 -0.3616 -1.6259  1.7559
  454MOL0     H61242  -0.364   7.573   3.749 -2.6271 -1.7572 -2.2142
  454MOL0     H61243  -0.369   7.524   3.918 -1.2604 -0.8695 -0.6768
  454MOL0     H61244  -0.624   7.624   3.769 -2.2410 -0.0051  2.5989
  454MOL0     H61245  -0.611   7.535   3.930  3.2405 -0.7423  1.0441
  454MOL0     H61246  -0.532   7.333   3.818 -0.7074  1.9930  2.8654
  454MOL0     H61247  -0.556   7.418   3.661 -2.5407 -0.4982 -1.6544
  454MOL0     H61248  -0.719   7.276   3.693 -0.7642 -0.7002  0.7632
  454MOL0     H61249  -0.800   7.437   3.745 -0.7138  0.5142  0.2315
  454MOL0     H61250  -0.848   7.247   4.130  0.5864 -2.8255  0.2776
  454MOL0     H61251  -1.136   7.133   4.271  1.1159  0.0102 -1.1852
  454MOL0     H61252  -1.005   7.240   4.319  1.1601  0.9581  0.1357
  454MOL0     H61253  -1.164   7.312   4.265  0.3041  1.2520 -3.0774
  454MOL0     H61254  -1.493   6.990   3.874 -1.2728 -0.7620  0.0582
  454MOL0     H61255  -1.743   6.931   3.846 -1.2265 -0.5090 -0.2490
  454MOL0     H61256  -1.982   7.107   4.104  2.9569 -0.3538 -1.5713
  454MOL0     H61257  -2.050   7.228   3.994 -2.3656 -0.0679  2.2220
  454MOL0     H61258  -2.230   7.067   4.068  1.0482 -0.8601  2.3120
  454MOL0     H61259  -2.201   7.053   3.900 -1.3894 -3.1066  0.9956
  454MOL0     H61260  -2.043   6.858   3.947 -0.0503 -0.8287  0.3089
  454MOL0     H61261  -2.209   6.825   3.984 -0.0205 -0.3842  1.3284
  454MOL0     H61262  -2.014   6.914   4.206 -2.1264  4.6035 -3.1790
  454MOL0     H61263  -2.170   6.832   4.219 -1.7207  0.1676 -2.9177
  454MOL0     H61264  -1.950   6.687   4.080  2.1434 -1.0308  2.3981
  454MOL0     H61265  -2.100   6.636   4.145  0.0573  1.8190 -2.7292
  454MOL0     H61266  -1.883   6.598   4.293  0.4656  0.6128  2.3910
  454MOL0     H61267  -1.861   6.776   4.284 -0.3083  0.0796 -3.0837
  454MOL0     H61268  -1.996   6.603   4.481  1.9331  1.9093  1.6079
  454MOL0     H61269  -2.128   6.693   4.402  0.2479  0.1695  1.0124
  454MOL0     H61270  -2.021   6.783   4.623  0.9630  0.7378  0.7179
  454MOL0     H61271  -2.012   6.902   4.494  0.8810  2.2106  2.9323
  454MOL0     H61272  -1.819   7.330   4.009  0.2399  0.2126  0.9392
  454MOL0     H61273  -1.581   7.370   4.012 -0.8775  0.0119  1.3017
  454MOL0     H61274  -1.184   7.233   3.777  1.2262 -1.5545 -2.0118
  454MOL0     H61275  -0.958   7.270   3.722 -0.2868  1.0102 -0.4419
  454MOL0     H61276   0.433   8.544   4.216 -0.1090  2.6244  0.4770
  454MOL0     H61277   0.679   8.488   4.246  2.0659  0.5961 -1.4727
  454MOL0     H61278   1.070   8.385   4.021  3.0364 -0.6182 -3.8688
  454MOL0     H61279   1.300   8.340   4.044  1.0722 -0.5142  1.3293
  454MOL0     H61280   1.600   8.674   4.148 -0.6327  1.5740  1.7833
  454MOL0     H61281   1.532   8.617   4.304  0.8744  0.1487  0.0082
  454MOL0     H61282   1.749   8.479   4.138  0.4711 -1.5783  0.0911
  454MOL0     H61283   1.670   8.397   4.276  0.4187  0.2872  0.7103
  454MOL0     H61284   1.764   8.542   4.435  1.0230  1.6260  1.3003
  454MOL0     H61285   1.776   8.680   4.326 -3.1660 -0.2629 -1.1184
  454MOL0     H61286   1.967   8.537   4.216 -0.1823 -0.2931  0.7903
  454MOL0     H61287   1.956   8.438   4.356  1.3348 -1.0036 -3.2373
  454MOL0     H61288   2.144   8.809   4.456 -1.8192  2.0700  3.4084
  454MOL0     H61289   1.370   8.723   4.217 -0.6688  0.8795 -1.2238
  454MOL0     H61290   1.138   8.780   4.197 -0.9349 -0.1991 -0.7011
  455MOL0     O61291   5.757   4.187   2.462 -0.3655 -0.1890  0.4015
  455MOL0     C61292   5.831   4.279   2.426 -0.2488  0.9562 -0.2536
  455MOL0     O61293   5.791   4.397   2.392 -0.4810 -0.3803  0.8531
  455MOL0     C61294   5.675   4.442   2.450  1.4719 -1.3181 -0.0591
  455MOL0     C61295   5.549   4.452   2.382 -0.2721 -0.0869  0.2763
  455MOL0     C61296   5.437   4.500   2.448 -0.0034  0.4885 -1.0690
  455MOL0     C61297   5.432   4.527   2.582 -0.0795 -0.2450 -0.4626
  455MOL0     O61298   5.316   4.546   2.649 -0.2293  0.0861 -0.1326
  455MOL0     C61299   5.204   4.602   2.584 -0.6023 -0.2594 -0.5843
  455MOL0     C61300   5.105   4.654   2.688 -0.1459 -0.0537 -0.5153
  455MOL0     C61301   4.991   4.742   2.625 -0.3092 -0.1258 -0.6546
  455MOL0     C61302   4.871   4.752   2.721 -0.4270  0.2334 -0.3326
  455MOL0     C61303   4.735   4.768   2.652  0.1769 -0.9693 -0.6465
  455MOL0     C61304   4.619   4.803   2.745 -0.5341  0.1321  1.6832
  455MOL0     C61305   4.619   4.949   2.785  0.0565 -0.9256 -1.0389
  455MOL0     C61306   4.486   4.984   2.851 -0.7568 -0.1011  0.1249
  455MOL0     N61307   4.478   4.974   2.991  0.2751 -0.0159 -0.4795
  455MOL0     C61308   4.372   4.919   3.059  0.6277  0.3653  0.1604
  455MOL0     C61309   4.399   4.926   3.190  0.3523 -0.4318 -0.8268
  455MOL0     C61310   4.309   4.884   3.301  0.7904  0.8325  0.3407
  455MOL0     C61311   4.357   4.773   3.391  0.4853  0.6205 -0.0584
  455MOL0     C61312   4.490   4.800   3.460  0.2043  0.1347 -0.0089
  455MOL0     C61313   4.486   4.926   3.543 -0.6691  0.2428  0.2558
  455MOL0     O61314   4.364   4.935   3.627 -0.1911 -0.2974  0.1909
  455MOL0     C61315   4.354   4.844   3.731  0.0538 -0.0032 -0.1979
  455MOL0     C61316   4.464   4.782   3.801  0.3716 -0.1300  0.2240
  455MOL0     C61317   4.454   4.710   3.922 -0.3107  1.0342  0.4382
  455MOL0     C61318   4.575   4.636   3.967 -0.2527  0.2490  0.7615
  455MOL0     C61319   4.327   4.683   3.972  0.4470 -0.1066 -0.2575
  455MOL0     C61320   4.290   4.579   4.067 -0.3284 -0.2808 -0.0517
  455MOL0     O61321   4.159   4.563   4.103 -0.7719 -0.0485  0.6515
  455MOL0     C61322   4.134   4.463   4.195 -0.2723  0.1421 -1.1480
  455MOL0     C61323   4.189   4.455   4.328 -0.1197 -0.5875 -0.5466
  455MOL0     C61324   4.147   4.362   4.430  0.2325 -0.2780 -0.3552
  455MOL0     C61325   4.042   4.270   4.397 -0.5838  0.0269 -0.2677
  455MOL0     O61326   3.987   4.172   4.475  0.7602  0.1136 -0.5478
  455MOL0     C61327   4.049   4.143   4.600 -0.1189  0.1998 -0.8315
  455MOL0     C61328   4.002   3.996   4.655 -0.2781  0.3620  0.0379
  455MOL0     C61329   3.852   3.996   4.697  0.1392 -0.4947  0.4477
  455MOL0     C61330   3.828   3.859   4.754  0.8839 -0.5075 -0.8391
  455MOL0     C61331   3.690   3.863   4.838 -0.6112 -0.9561 -0.7479
  455MOL0     C61332   3.560   3.894   4.759 -0.1459 -0.3877  0.3281
  455MOL0     C61333   3.525   3.783   4.664 -1.3477  0.0180 -0.2302
  455MOL0     C61334   3.392   3.815   4.579 -0.3411 -0.8961  0.1545
  455MOL0    Cl61335   3.267   3.884   4.679 -0.3199  0.2547  0.0593
  455MOL0     C61336   3.993   4.276   4.266  0.5275  0.0292  0.3130
  455MOL0     C61337   4.036   4.367   4.174  0.2044 -0.1988  0.6743
  455MOL0     O61338   4.378   4.509   4.121  0.2414  0.0701 -0.3327
  455MOL0     C61339   4.215   4.758   3.920  0.3733 -0.2917 -0.2714
  455MOL0     C61340   4.233   4.840   3.807  0.3869  0.0270 -0.3640
  455MOL0     N61341   4.523   4.989   3.198 -0.4411  0.7178 -0.4659
  455MOL0     N61342   4.571   5.005   3.080  0.1030  0.1200 -0.2129
  455MOL0     C61343   5.558   4.513   2.650 -0.4920  0.0938  0.7578
  455MOL0     C61344   5.676   4.471   2.584  0.0990 -0.7335  0.3244
  455MOL0     C61345   5.975   4.250   2.411 -0.1097  0.0075 -0.3161
  455MOL0     C61346   6.029   4.117   2.407 -0.2607 -0.6807 -0.4300
  455MOL0     C61347   6.166   4.100   2.380  0.1514  0.0698 -0.0552
  455MOL0     C61348   6.250   4.210   2.384 -0.5794 -0.0225  0.1440
  455MOL0     O61349   6.391   4.195   2.377 -0.6592  0.5859  0.3540
  455MOL0     C61350   6.455   4.075   2.425 -0.3944  1.2288 -0.1109
  455MOL0     C61351   6.597   4.126   2.470  0.4743 -0.2170  0.0722
  455MOL0     C61352   6.690   4.013   2.526 -0.2461  0.2009  0.1489
  455MOL0     C61353   6.834   4.061   2.562  0.0568 -0.1277  0.2143
  455MOL0     C61354   6.915   4.028   2.444 -0.7173  0.2705 -0.5874
  455MOL0     C61355   6.985   3.997   2.347 -0.2714 -0.3911 -0.4142
  455MOL0     C61356   6.198   4.329   2.408 -0.6768 -0.6176 -0.2974
  455MOL0     C61357   6.065   4.359   2.421  0.8189  0.7245  0.0815
  455MOL0     H61358   5.541   4.423   2.277 -0.4722  0.4189  0.1471
  455MOL0     H61359   5.349   4.503   2.385 -0.3048  2.0738 -0.6296
  455MOL0     H61360   5.249   4.687   2.532  1.1272  0.9280  2.5761
  455MOL0     H61361   5.153   4.537   2.512  0.3674 -0.5776 -0.9939
  455MOL0     H61362   5.068   4.575   2.754  1.3894  1.4787  2.3497
  455MOL0     H61363   5.161   4.731   2.741 -0.7296 -1.2576  2.0345
  455MOL0     H61364   5.018   4.844   2.596 -2.6454  0.0603 -2.4567
  455MOL0     H61365   4.969   4.699   2.526 -0.7434  2.2557 -1.6696
  455MOL0     H61366   4.884   4.661   2.781  1.1493  0.1096 -0.8080
  455MOL0     H61367   4.884   4.838   2.788  1.0785 -0.7289  0.6812
  455MOL0     H61368   4.740   4.861   2.595 -2.5599  1.7657  3.0310
  455MOL0     H61369   4.712   4.684   2.585 -1.1587  0.0706 -1.5292
  455MOL0     H61370   4.526   4.781   2.691  0.2965  0.8876 -0.1174
  455MOL0     H61371   4.629   4.736   2.831 -0.0708 -2.2774 -0.1564
  455MOL0     H61372   4.704   4.974   2.849  0.3216  0.8590 -2.0217
  455MOL0     H61373   4.630   5.002   2.690  1.9483  1.8810  0.5983
  455MOL0     H61374   4.409   4.924   2.801  0.6588 -1.8667 -0.0573
  455MOL0     H61375   4.477   5.092   2.836  0.1123 -0.1210 -0.6437
  455MOL0     H61376   4.273   4.896   3.022  0.2301  0.5117  1.1052
  455MOL0     H61377   4.278   4.977   3.348 -2.2055  0.2763 -0.3095
  455MOL0     H61378   4.212   4.845   3.267 -0.2998  0.6065  3.3644
  455MOL0     H61379   4.375   4.683   3.331  1.3718 -1.3518  2.8674
  455MOL0     H61380   4.286   4.739   3.468  1.2365 -2.7502 -0.7016
  455MOL0     H61381   4.564   4.817   3.381  0.2728 -2.0244 -0.4755
  455MOL0     H61382   4.537   4.713   3.507  2.6311  1.6813  0.6201
  455MOL0     H61383   4.505   5.013   3.480  1.6546 -0.9432 -0.7733
  455MOL0     H61384   4.574   4.931   3.608  0.4500 -1.5641 -1.0447
  455MOL0     H61385   4.561   4.800   3.755 -0.0636  0.1890 -0.5854
  455MOL0     H61386   4.599   4.666   4.069  1.2838 -2.4163  1.2769
  455MOL0     H61387   4.556   4.528   3.970 -0.1268  0.2360  1.0910
  455MOL0     H61388   4.653   4.659   3.894 -0.7266 -0.2400  0.0866
  455MOL0     H61389   4.269   4.526   4.350  0.5482 -1.4831 -0.0108
  455MOL0     H61390   4.194   4.373   4.527  0.2813 -0.9147 -0.2961
  455MOL0     H61391   4.153   4.132   4.570 -0.0241 -1.3710 -0.0756
  455MOL0     H61392   4.036   4.226   4.670  0.7576 -1.7896  1.8818
  455MOL0     H61393   4.018   3.924   4.574  3.2461  1.8455 -0.7909
  455MOL0     H61394   4.060   3.965   4.742 -0.1363 -0.8931 -0.4778
  455MOL0     H61395   3.791   4.010   4.607 -0.6928 -1.2557  0.8776
  455MOL0     H61396   3.828   4.071   4.773 -0.6879 -0.9454  0.6358
  455MOL0     H61397   3.824   3.783   4.675  0.2072 -1.6684  0.2745
  455MOL0     H61398   3.903   3.825   4.826  1.0698 -0.3883 -0.9764
  455MOL0     H61399   3.702   3.937   4.918 -0.4936 -1.5174 -0.2374
  455MOL0     H61400   3.680   3.766   4.886 -1.8476 -0.1252  0.7722
  455MOL0     H61401   3.486   3.886   4.839  0.6412 -3.0323  0.8676
  455MOL0     H61402   3.562   3.987   4.701  1.2785 -0.7024 -0.1486
  455MOL0     H61403   3.496   3.698   4.726 -0.4384 -0.0794  0.0788
  455MOL0     H61404   3.603   3.748   4.595 -1.6609 -1.4051  0.1021
  455MOL0     H61405   3.374   3.714   4.541 -0.5588 -1.3957  1.5120
  455MOL0     H61406   3.424   3.878   4.496 -0.5771  1.4368  1.7468
  455MOL0     H61407   3.924   4.198   4.235  2.6496 -1.7832 -0.1230
  455MOL0     H61408   3.986   4.378   4.078 -0.5769  0.8394  1.1716
  455MOL0     H61409   4.119   4.757   3.971  0.8087 -0.8299  0.5479
  455MOL0     H61410   4.149   4.901   3.774  0.9999  1.5100  0.7108
  455MOL0     H61411   5.564   4.536   2.756 -2.9860  2.8292  0.4351
  455MOL0     H61412   5.771   4.443   2.627  0.8747 -1.5636 -1.7750
  455MOL0     H61413   5.976   4.025   2.433  1.5721 -1.4468  0.7550
  455MOL0     H61414   6.215   4.004   2.372  0.9703  0.3033  1.7165
  455MOL0     H61415   6.403   4.028   2.509  0.0722 -0.9110 -0.9574
  455MOL0     H61416   6.454   3.999   2.347  2.5086 -0.3133  1.2052
  455MOL0     H61417   6.588   4.214   2.534 -1.1500  0.3463 -0.8799
  455MOL0     H61418   6.645   4.156   2.377  0.7244 -0.6124  0.0702
  455MOL0     H61419   6.679   3.919   2.471 -0.5934 -1.0405  2.2135
  455MOL0     H61420   6.644   3.989   2.622 -2.9155  2.3432 -0.4945
  455MOL0     H61421   6.881   4.006   2.644  3.7524  0.4981 -1.3113
  455MOL0     H61422   6.826   4.166   2.589  0.4131 -0.6948  2.7776
  455MOL0     H61423   7.041   3.981   2.258  1.4862 -0.9744  0.7399
  455MOL0     H61424   6.275   4.404   2.422  0.3974 -1.4911 -1.3934
  455MOL0     H61425   6.037   4.455   2.462  0.0839  0.9123 -0.8088
  456MOL0     O61426  10.058   3.351   4.832 -0.9605  0.2728 -0.3748
  456MOL0     C61427  10.134   3.424   4.898  0.8892  0.6852  0.3366
  456MOL0     O61428  10.099   3.475   5.016 -0.5006  0.1279  0.1860
  456MOL0     C61429  10.003   3.413   5.087 -0.4787  0.4070 -0.3511
  456MOL0     C61430  10.026   3.284   5.135  0.3781  0.0822  0.5168
  456MOL0     C61431   9.926   3.218   5.186  0.2717 -0.5703  0.1986
  456MOL0     C61432   9.796   3.279   5.200 -0.2010  0.6219  0.2521
  456MOL0     O61433   9.700   3.204   5.262 -0.3587 -0.2363 -0.4850
  456MOL0     C61434   9.589   3.267   5.319  0.6887 -0.2061 -0.7513
  456MOL0     C61435   9.524   3.185   5.434 -0.4286 -0.1361 -0.7915
  456MOL0     C61436   9.386   3.247   5.465 -0.1206 -0.1082 -0.0033
  456MOL0     C61437   9.323   3.161   5.571  0.8974  0.0235  0.3628
  456MOL0     C61438   9.199   3.219   5.624 -0.2079 -0.1302  0.0507
  456MOL0     C61439   9.153   3.130   5.735  0.6199  0.0119 -0.2094
  456MOL0     C61440   9.006   3.160   5.786  0.1231 -0.7730  1.0570
  456MOL0     C61441   8.996   3.302   5.842  0.1388  0.5188 -0.0393
  456MOL0     N61442   8.888   3.307   5.938  0.6502  0.1411  1.1343
  456MOL0     C61443   8.756   3.300   5.909  0.4050 -0.0426  0.3171
  456MOL0     C61444   8.695   3.293   6.033 -0.4711  0.0570  0.4722
  456MOL0     C61445   8.555   3.258   6.041  1.3115 -0.4691 -0.1737
  456MOL0     C61446   8.470   3.364   5.984  0.7747  0.1635  0.3182
  456MOL0     C61447   8.324   3.324   6.014 -0.2331  0.4021 -0.3873
  456MOL0     C61448   8.212   3.369   5.913 -0.1319 -0.6219  0.2858
  456MOL0     O61449   8.190   3.505   5.946 -0.1206  0.0190 -0.0479
  456MOL0     C61450   8.107   3.579   5.864 -0.6927 -0.2263 -0.4349
  456MOL0     C61451   8.035   3.529   5.745 -0.0265 -0.3176 -0.4286
  456MOL0     C61452   7.962   3.610   5.664 -1.0948 -0.3402  0.4492
  456MOL0     C61453   7.888   3.559   5.542 -0.8021 -0.0141  0.3842
  456MOL0     C61454   7.962   3.750   5.696  0.7250 -0.7812  1.0464
  456MOL0     C61455   7.869   3.835   5.617  0.1179  0.8326 -0.4561
  456MOL0     O61456   7.740   3.809   5.623 -0.6991 -0.2410 -0.6252
  456MOL0     C61457   7.653   3.902   5.575 -1.1751  0.5093 -0.4569
  456MOL0     C61458   7.556   3.847   5.495  0.5262  0.3714 -0.6941
  456MOL0     C61459   7.461   3.931   5.433 -0.0457  0.0554  0.7810
  456MOL0     C61460   7.476   4.066   5.438 -0.2418 -0.0054 -0.9243
  456MOL0     O61461   7.391   4.157   5.380  0.2716  0.2681 -0.2501
  456MOL0     C61462   7.315   4.135   5.255 -0.0529 -0.2156 -0.4881
  456MOL0     C61463   7.166   4.170   5.269 -0.5967 -0.8260  0.1620
  456MOL0     C61464   7.110   4.081   5.377  0.2158 -0.0392  0.0784
  456MOL0     C61465   6.957   4.092   5.398 -0.2024 -0.1098  0.3472
  456MOL0     C61466   6.868   4.092   5.273 -0.5438  0.3253 -0.0494
  456MOL0     C61467   6.731   4.128   5.301 -0.0277  0.0353 -0.2146
  456MOL0     C61468   6.657   4.041   5.410  1.5084  0.5329  0.0275
  456MOL0     C61469   6.501   4.053   5.396  0.0320 -0.7860  0.4615
  456MOL0    Cl61470   6.449   4.219   5.458 -0.2766  0.0743  0.4842
  456MOL0     C61471   7.577   4.119   5.509 -0.2850  0.7563 -0.1629
  456MOL0     C61472   7.659   4.040   5.586 -0.3141  0.4620 -0.3726
  456MOL0     O61473   7.920   3.915   5.541  0.3113  0.2222 -0.1387
  456MOL0     C61474   8.037   3.805   5.800 -0.6852  0.1097 -0.4583
  456MOL0     C61475   8.103   3.715   5.886  0.6187 -0.1718 -0.3451
  456MOL0     N61476   8.787   3.301   6.133 -0.2994  0.1690 -0.3970
  456MOL0     N61477   8.902   3.296   6.070  0.0952 -0.3392 -0.9569
  456MOL0     C61478   9.770   3.413   5.151 -0.1530  0.6696  0.2240
  456MOL0     C61479   9.882   3.475   5.100  0.4721  1.1255  0.6514
  456MOL0     C61480  10.270   3.454   4.845 -0.5365  0.0913  0.1072
  456MOL0     C61481  10.359   3.532   4.916 -0.6689 -0.5128  0.4371
  456MOL0     C61482  10.493   3.536   4.875 -0.6877 -0.4268 -0.3645
  456MOL0     C61483  10.532   3.486   4.752 -0.2107 -0.7870  0.5186
  456MOL0     O61484  10.657   3.499   4.682  0.9248  0.4716 -0.4952
  456MOL0     C61485  10.765   3.511   4.771 -0.5196 -1.0096 -0.7624
  456MOL0     C61486  10.813   3.655   4.786  0.4394 -0.0995 -0.1808
  456MOL0     C61487  10.908   3.688   4.669  0.1654 -0.2507  0.0885
  456MOL0     C61488  10.922   3.839   4.642  0.7895  0.1032 -0.8168
  456MOL0     C61489  10.823   3.887   4.549  0.9680 -0.0022 -0.5980
  456MOL0     C61490  10.733   3.947   4.492 -0.0335  0.1626 -0.0254
  456MOL0     C61491  10.447   3.411   4.671  0.1080  0.1102 -0.7612
  456MOL0     C61492  10.323   3.393   4.719 -0.0036  0.1957 -0.0750
  456MOL0     H61493  10.128   3.246   5.133  0.7833  1.0775  1.1841
  456MOL0     H61494   9.945   3.122   5.233  1.6211  0.6744  2.3883
  456MOL0     H61495   9.631   3.357   5.365  2.4925 -2.5412  2.6306
  456MOL0     H61496   9.513   3.293   5.244 -1.0925 -1.2688  0.5845
  456MOL0     H61497   9.500   3.082   5.407 -0.5021  0.4767 -3.3355
  456MOL0     H61498   9.583   3.193   5.526 -1.5962  0.7317 -0.0690
  456MOL0     H61499   9.403   3.350   5.497  2.0610 -0.8002  1.2105
  456MOL0     H61500   9.326   3.241   5.373 -0.2015 -2.9252  0.1280
  456MOL0     H61501   9.303   3.061   5.532 -1.1270 -0.2095  1.8582
  456MOL0     H61502   9.389   3.159   5.659  1.7352  1.8625 -0.1595
  456MOL0     H61503   9.223   3.320   5.659  0.1852  0.0039 -0.5825
  456MOL0     H61504   9.125   3.216   5.544 -0.0694  1.1656 -0.1473
  456MOL0     H61505   9.146   3.025   5.705  0.4919 -0.1626  0.4081
  456MOL0     H61506   9.209   3.133   5.829 -0.1258 -1.7965  0.3242
  456MOL0     H61507   8.939   3.149   5.700  1.5095  1.8897 -0.4799
  456MOL0     H61508   8.978   3.085   5.861 -1.7471 -2.0983 -0.8237
  456MOL0     H61509   8.972   3.366   5.757  0.3031  2.3470  1.2446
  456MOL0     H61510   9.092   3.333   5.884 -0.2132  0.8459  0.5238
  456MOL0     H61511   8.715   3.282   5.810  0.8373 -1.1187  0.3259
  456MOL0     H61512   8.533   3.164   5.988 -0.8666 -1.5823  2.4882
  456MOL0     H61513   8.541   3.232   6.146  0.7797  0.5486  0.0166
  456MOL0     H61514   8.488   3.360   5.877  0.0157 -1.2560  0.2178
  456MOL0     H61515   8.488   3.464   6.025 -1.2980  0.9282 -0.5444
  456MOL0     H61516   8.309   3.344   6.120  1.6571  3.2243 -0.5384
  456MOL0     H61517   8.321   3.216   5.997  2.4034  0.5603 -2.6330
  456MOL0     H61518   8.123   3.306   5.924 -0.2793 -0.6733 -1.0590
  456MOL0     H61519   8.241   3.362   5.808 -0.6748  0.2276  0.0755
  456MOL0     H61520   8.043   3.427   5.710  0.2829 -0.2821 -0.4664
  456MOL0     H61521   7.915   3.457   5.517 -0.5154  0.3356 -0.7948
  456MOL0     H61522   7.782   3.566   5.570 -1.2925  2.3501 -1.6457
  456MOL0     H61523   7.895   3.631   5.459  0.3660 -1.1490 -0.5369
  456MOL0     H61524   7.558   3.739   5.480  0.7462  0.2218  0.3569
  456MOL0     H61525   7.388   3.881   5.370 -0.4808  0.9607  0.5604
  456MOL0     H61526   7.356   4.189   5.169  0.0357  0.9878  0.2851
  456MOL0     H61527   7.309   4.028   5.233 -0.8735 -0.0645 -1.0310
  456MOL0     H61528   7.158   4.271   5.311  0.3713 -1.0052  0.8052
  456MOL0     H61529   7.120   4.153   5.171 -1.9370  0.7356  0.4865
  456MOL0     H61530   7.152   4.114   5.472  1.7524 -0.2364 -0.5020
  456MOL0     H61531   7.123   3.973   5.369  2.0362  0.1747 -0.3486
  456MOL0     H61532   6.918   4.020   5.472  1.1966  0.7088  1.9599
  456MOL0     H61533   6.951   4.187   5.452  1.9021 -0.1795  0.7830
  456MOL0     H61534   6.867   3.993   5.224 -2.0456 -0.8982  2.3018
  456MOL0     H61535   6.901   4.167   5.201  0.3538 -0.4323 -0.4592
  456MOL0     H61536   6.728   4.234   5.328  2.1516  0.0841  0.0654
  456MOL0     H61537   6.682   4.113   5.204  0.1600 -1.0684 -0.1460
  456MOL0     H61538   6.674   4.079   5.511  0.5164 -0.1769  0.4698
  456MOL0     H61539   6.677   3.933   5.411 -2.4837 -0.3652  0.2248
  456MOL0     H61540   6.453   3.966   5.442  0.5211 -1.8337 -0.9522
  456MOL0     H61541   6.474   4.050   5.290 -1.1204 -1.3248  0.7566
  456MOL0     H61542   7.591   4.226   5.519  1.2852  0.4331  1.8538
  456MOL0     H61543   7.728   4.083   5.657 -0.3148  2.0264 -1.2742
  456MOL0     H61544   8.037   3.912   5.819 -1.0543 -0.2816  2.1207
  456MOL0     H61545   8.150   3.761   5.973 -1.7202  0.8437  0.4710
  456MOL0     H61546   9.672   3.461   5.146 -0.6459 -0.2863  0.3497
  456MOL0     H61547   9.864   3.578   5.071  0.0960  1.0210  0.5148
  456MOL0     H61548  10.327   3.574   5.011 -1.0015 -2.5639  1.2955
  456MOL0     H61549  10.564   3.594   4.934  2.1236 -2.4070 -1.5369
  456MOL0     H61550  10.740   3.470   4.869 -0.1239  1.3378  0.3931
  456MOL0     H61551  10.853   3.451   4.747  0.7848 -0.2507  1.7101
  456MOL0     H61552  10.846   3.684   4.886 -0.2581  1.1338 -0.2905
  456MOL0     H61553  10.730   3.725   4.775  0.1869 -0.4623 -0.6701
  456MOL0     H61554  10.879   3.648   4.571 -3.6068 -0.8584  1.2507
  456MOL0     H61555  11.008   3.655   4.697  0.0848  1.0613  2.1618
  456MOL0     H61556  11.020   3.870   4.604 -0.1066  0.0073 -3.4118
  456MOL0     H61557  10.907   3.886   4.740  1.0308  0.6095 -1.0198
  456MOL0     H61558  10.669   4.009   4.433  1.6359  2.9756  0.8937
  456MOL0     H61559  10.480   3.369   4.576  2.7855  0.3341 -0.0276
  456MOL0     H61560  10.265   3.334   4.649  1.9285 -1.8838 -0.0806
  457MOL0     O61561   8.523   1.411   1.881 -0.0545  0.3538 -0.7634
  457MOL0     C61562   8.574   1.294   1.870 -0.3734 -0.3795  0.2327
  457MOL0     O61563   8.506   1.183   1.822  0.2531 -0.4940  0.0347
  457MOL0     C61564   8.404   1.212   1.739 -0.3417  0.7017  0.2937
  457MOL0     C61565   8.282   1.150   1.761 -0.0222  0.1819 -0.4933
  457MOL0     C61566   8.168   1.169   1.682  0.2265  0.7171 -0.3389
  457MOL0     C61567   8.179   1.258   1.570 -0.3996 -0.3564  0.1299
  457MOL0     O61568   8.066   1.297   1.501  0.2335 -0.0394 -0.5137
  457MOL0     C61569   7.951   1.213   1.503  0.2059  0.0543  0.3823
  457MOL0     C61570   7.845   1.265   1.412  0.9323 -0.3868 -0.5353
  457MOL0     C61571   7.704   1.193   1.424 -0.3843 -0.2449  0.5677
  457MOL0     C61572   7.606   1.242   1.313  0.5742 -0.0365 -0.5472
  457MOL0     C61573   7.483   1.154   1.298  0.1684 -0.0572 -0.6802
  457MOL0     C61574   7.417   1.178   1.170  0.8936 -0.1799  0.1412
  457MOL0     C61575   7.319   1.063   1.153  0.1796 -0.2414 -0.6683
  457MOL0     C61576   7.220   1.077   1.032 -0.6710 -0.2805  0.4823
  457MOL0     N61577   7.116   0.977   1.024  0.0362  0.4545  0.2821
  457MOL0     C61578   7.022   0.959   1.118 -0.2411 -0.5456 -0.4506
  457MOL0     C61579   6.947   0.857   1.067 -0.2628 -0.2616  0.3680
  457MOL0     C61580   6.827   0.802   1.121  0.2088  0.3141 -0.0054
  457MOL0     C61581   6.736   0.914   1.190 -0.5171 -0.0964 -0.9335
  457MOL0     C61582   6.686   1.016   1.087  0.4009 -0.5835 -0.5387
  457MOL0     C61583   6.642   0.962   0.950 -0.7388  0.4803 -0.3957
  457MOL0     O61584   6.558   1.056   0.870  0.0587 -0.3553  0.0378
  457MOL0     C61585   6.429   1.062   0.905  0.0816 -0.2000 -0.8978
  457MOL0     C61586   6.341   1.144   0.827 -0.4578  0.1261  0.1106
  457MOL0     C61587   6.201   1.145   0.853 -0.4861  0.4240 -0.3008
  457MOL0     C61588   6.130   1.223   0.744  0.4714  0.0569  0.1940
  457MOL0     C61589   6.146   1.074   0.959 -0.0098  0.1777  0.0885
  457MOL0     C61590   6.001   1.077   0.983 -0.2758 -0.4388 -0.5754
  457MOL0     O61591   5.940   1.195   0.949  0.1533 -0.0596 -0.0547
  457MOL0     C61592   5.807   1.208   0.980 -0.5060  0.8553  0.0095
  457MOL0     C61593   5.766   1.262   1.106 -0.1607 -0.4187 -0.0061
  457MOL0     C61594   5.635   1.270   1.142  0.6343  0.3142 -0.3784
  457MOL0     C61595   5.538   1.241   1.055 -1.0784  0.0712  0.2464
  457MOL0     O61596   5.407   1.254   1.077 -0.0170 -0.2755  0.8626
  457MOL0     C61597   5.370   1.321   1.202  0.7253 -0.2199  0.3919
  457MOL0     C61598   5.218   1.350   1.208  0.0207  0.3210 -0.1333
  457MOL0     C61599   5.163   1.379   1.073  0.6095 -0.4373 -0.0775
  457MOL0     C61600   5.014   1.420   1.083  0.5161  0.4978 -0.6392
  457MOL0     C61601   4.931   1.302   1.016 -0.4940  0.2824  0.6043
  457MOL0     C61602   4.788   1.329   1.049  0.3507  0.1875  0.3338
  457MOL0     C61603   4.730   1.426   0.952  0.7212 -0.7108  0.2338
  457MOL0     C61604   4.574   1.442   0.979 -0.0169  0.1432  0.0545
  457MOL0    Cl61605   4.508   1.578   0.894 -0.2051  0.4284 -0.3455
  457MOL0     C61606   5.567   1.181   0.938 -0.8711 -0.4265 -0.4724
  457MOL0     C61607   5.703   1.169   0.892  0.3454  0.9848 -0.0064
  457MOL0     O61608   5.946   0.982   1.037 -0.3371 -0.2705  0.3995
  457MOL0     C61609   6.225   1.000   1.046  0.1001 -0.4282 -0.4418
  457MOL0     C61610   6.367   0.988   1.016 -0.4176  0.0993 -0.2021
  457MOL0     N61611   7.009   0.806   0.951 -0.2196 -0.0041 -0.3392
  457MOL0     N61612   7.102   0.892   0.926  0.2647 -0.3495  0.7737
  457MOL0     C61613   8.307   1.311   1.541 -0.1746 -0.8266 -0.4473
  457MOL0     C61614   8.418   1.287   1.625 -0.0448  0.6273  0.3958
  457MOL0     C61615   8.722   1.286   1.890 -0.1389 -0.4493  0.3623
  457MOL0     C61616   8.783   1.158   1.889 -0.6374 -0.1855 -0.0018
  457MOL0     C61617   8.916   1.136   1.928 -0.0831 -0.1955 -0.1018
  457MOL0     C61618   8.992   1.247   1.955  1.0785 -0.2622  0.3997
  457MOL0     O61619   9.121   1.222   1.988 -0.5635  0.2020  0.4241
  457MOL0     C61620   9.216   1.325   2.019 -0.1441  0.1975  0.3918
  457MOL0     C61621   9.366   1.276   1.997  0.1716  0.1899 -0.0714
  457MOL0     C61622   9.460   1.336   2.096 -0.4727 -0.2647 -0.0189
  457MOL0     C61623   9.607   1.320   2.062  0.0254  0.5243 -0.1094
  457MOL0     C61624   9.678   1.357   2.189  0.1897 -0.2896  0.2851
  457MOL0     C61625   9.741   1.412   2.275  0.1032 -0.0900 -0.4401
  457MOL0     C61626   8.938   1.375   1.949 -0.4191 -0.0753 -0.3565
  457MOL0     C61627   8.802   1.393   1.923 -0.2373 -0.0229  0.0117
  457MOL0     H61628   8.262   1.072   1.834  1.0568 -0.1935 -0.5791
  457MOL0     H61629   8.082   1.107   1.702 -0.3193  1.1288 -1.3637
  457MOL0     H61630   7.981   1.114   1.466  1.7520  0.7541 -0.3173
  457MOL0     H61631   7.924   1.195   1.607  1.1112 -0.5932  0.5195
  457MOL0     H61632   7.822   1.368   1.441  2.8404 -0.4665  1.4728
  457MOL0     H61633   7.881   1.266   1.308  2.1413  0.7194 -0.1258
  457MOL0     H61634   7.720   1.086   1.411  2.6597 -0.2581  3.2736
  457MOL0     H61635   7.654   1.207   1.520 -2.7362 -1.8118 -0.3384
  457MOL0     H61636   7.578   1.346   1.332 -1.1726 -0.4433 -0.7193
  457MOL0     H61637   7.650   1.243   1.213  4.9676  0.8920  1.1876
  457MOL0     H61638   7.514   1.049   1.296 -2.2796 -0.8456  0.0498
  457MOL0     H61639   7.420   1.165   1.387  4.6215 -1.5939  3.1398
  457MOL0     H61640   7.352   1.264   1.182 -0.3055 -0.5588 -2.8731
  457MOL0     H61641   7.485   1.189   1.085  1.8020 -2.4590  0.4962
  457MOL0     H61642   7.378   0.973   1.133  2.4061  0.7169  1.1338
  457MOL0     H61643   7.267   1.046   1.248  2.5793  1.6506  1.1000
  457MOL0     H61644   7.290   1.078   0.949  1.6923  1.1095  2.3703
  457MOL0     H61645   7.172   1.175   1.029 -2.3923 -1.0203  1.7037
  457MOL0     H61646   6.995   1.011   1.210  0.4231  0.0201 -0.5662
  457MOL0     H61647   6.777   0.748   1.040  0.6239 -2.2061  1.3312
  457MOL0     H61648   6.848   0.722   1.193 -0.4065  1.9991  2.1605
  457MOL0     H61649   6.791   0.966   1.270 -2.8530 -1.1996  1.5183
  457MOL0     H61650   6.651   0.871   1.243  0.0191 -2.0924 -1.6234
  457MOL0     H61651   6.770   1.082   1.063 -0.8908  0.7378 -1.6496
  457MOL0     H61652   6.606   1.074   1.134 -2.1587 -3.3159 -1.2614
  457MOL0     H61653   6.587   0.869   0.963 -3.2433  2.0449  1.1244
  457MOL0     H61654   6.733   0.942   0.893 -1.5210  1.1010 -1.9438
  457MOL0     H61655   6.390   1.184   0.739  0.7642 -3.1405 -0.8432
  457MOL0     H61656   6.041   1.165   0.719  0.5856 -0.5026  1.0213
  457MOL0     H61657   6.091   1.320   0.776 -1.5634 -0.3628 -0.8567
  457MOL0     H61658   6.182   1.233   0.649 -1.9152 -0.3427 -1.2256
  457MOL0     H61659   5.854   1.265   1.169 -0.1740  1.2832 -0.0192
  457MOL0     H61660   5.628   1.311   1.242 -2.1634 -1.1443  0.1112
  457MOL0     H61661   5.396   1.261   1.290  2.3065  0.7517  0.6180
  457MOL0     H61662   5.422   1.416   1.206  1.0153 -0.3663  0.1607
  457MOL0     H61663   5.166   1.262   1.247 -0.0202 -0.1035 -1.1161
  457MOL0     H61664   5.197   1.437   1.272 -3.4985  0.6642 -1.5249
  457MOL0     H61665   5.186   1.293   1.009  1.4946 -0.8150  0.7339
  457MOL0     H61666   5.214   1.467   1.032 -1.3851 -0.5374 -3.1393
  457MOL0     H61667   4.982   1.432   1.187  1.3509  0.3538 -0.3623
  457MOL0     H61668   4.992   1.515   1.032 -2.1513  1.2681  1.6617
  457MOL0     H61669   4.970   1.210   1.062 -0.5287 -0.0773 -0.0727
  457MOL0     H61670   4.956   1.292   0.910 -4.3050 -1.4391 -0.2898
  457MOL0     H61671   4.725   1.243   1.072  0.2605  0.0475 -0.3958
  457MOL0     H61672   4.787   1.379   1.146  1.7386  0.8261  0.0504
  457MOL0     H61673   4.736   1.390   0.849 -0.9534  0.4504 -0.3279
  457MOL0     H61674   4.772   1.527   0.953  0.6904 -0.7000  1.1799
  457MOL0     H61675   4.552   1.454   1.085  0.6914  1.6359  0.0614
  457MOL0     H61676   4.529   1.348   0.944 -0.3236  0.7239 -1.1515
  457MOL0     H61677   5.490   1.160   0.863 -0.4372  1.7153 -1.5844
  457MOL0     H61678   5.722   1.128   0.794 -2.6999  0.0265 -0.3162
  457MOL0     H61679   6.189   0.952   1.137 -0.7836  0.7241 -0.1574
  457MOL0     H61680   6.425   0.914   1.071 -1.3569  1.4372  2.8174
  457MOL0     H61681   8.317   1.380   1.457 -0.8901 -0.4019 -0.1935
  457MOL0     H61682   8.513   1.330   1.595  0.4982 -0.2530  0.7997
  457MOL0     H61683   8.711   1.078   1.872 -0.1031 -1.2227  2.1947
  457MOL0     H61684   8.971   1.043   1.922  0.8124  0.3895 -1.3883
  457MOL0     H61685   9.199   1.410   1.952 -1.7438 -1.0249 -0.8615
  457MOL0     H61686   9.195   1.353   2.123  0.2612 -0.5830  0.6937
  457MOL0     H61687   9.397   1.295   1.894 -1.8202 -2.3075 -1.2432
  457MOL0     H61688   9.369   1.167   2.008 -0.2673  0.3563  2.3923
  457MOL0     H61689   9.431   1.285   2.188  2.5735 -0.9627  0.6596
  457MOL0     H61690   9.447   1.444   2.104 -0.0962 -0.1856 -0.4105
  457MOL0     H61691   9.631   1.384   1.977 -2.2825 -0.4576 -1.5859
  457MOL0     H61692   9.639   1.218   2.039  1.0453  0.5923  0.9021
  457MOL0     H61693   9.788   1.469   2.354  0.2213 -2.7228  1.5433
  457MOL0     H61694   9.000   1.463   1.956  0.2820 -0.4887 -1.1665
  457MOL0     H61695   8.760   1.492   1.933  0.3775  0.1344  1.1710
  458MOL0     O61696   6.735   2.980   8.661 -0.4307  0.0076 -0.4521
  458MOL0     C61697   6.820   3.018   8.742  0.3704 -0.6382  1.1102
  458MOL0     O61698   6.830   2.987   8.872  0.5439  0.5911 -0.4728
  458MOL0     C61699   6.763   2.873   8.925  0.6253  0.4038 -0.1178
  458MOL0     C61700   6.819   2.746   8.958  0.2032  0.2532 -0.0524
  458MOL0     C61701   6.738   2.629   8.988 -0.0067 -0.7901  0.1966
  458MOL0     C61702   6.597   2.650   9.004  0.4194  0.4885 -0.0104
  458MOL0     O61703   6.518   2.532   9.026  0.1679  0.2844 -0.6327
  458MOL0     C61704   6.380   2.535   9.056 -0.7242 -0.6627 -0.0868
  458MOL0     C61705   6.293   2.533   8.937 -0.0241 -0.4860  0.0972
  458MOL0     C61706   6.148   2.540   8.968 -0.4274 -0.2843 -0.1690
  458MOL0     C61707   6.051   2.500   8.849  0.3303  1.3965 -0.0352
  458MOL0     C61708   5.909   2.496   8.909  0.2099  0.7184  0.6334
  458MOL0     C61709   5.798   2.514   8.798  0.2670  0.1391 -0.4486
  458MOL0     C61710   5.655   2.537   8.866 -0.1385  0.7577 -0.1117
  458MOL0     C61711   5.547   2.559   8.763 -0.0357  0.0551  0.4675
  458MOL0     N61712   5.419   2.593   8.821  0.1682 -0.0839 -0.6168
  458MOL0     C61713   5.315   2.506   8.860 -0.1281 -0.1301  0.1259
  458MOL0     C61714   5.225   2.585   8.928  0.3466  0.3832 -0.3165
  458MOL0     C61715   5.096   2.544   8.996  0.6306  0.2489 -0.4054
  458MOL0     C61716   5.048   2.396   8.980  0.2021 -0.7832 -0.2287
  458MOL0     C61717   5.106   2.304   9.094  0.2806  0.9298  0.5155
  458MOL0     C61718   5.254   2.292   9.114 -0.3215  0.2701 -0.6146
  458MOL0     O61719   5.320   2.210   9.014  0.2097  0.7924 -0.2581
  458MOL0     C61720   5.457   2.186   9.009 -1.0267  1.0823  0.3287
  458MOL0     C61721   5.543   2.199   9.116 -0.6152  0.3363 -1.1431
  458MOL0     C61722   5.681   2.166   9.110 -0.2505  0.2243 -0.0170
  458MOL0     C61723   5.773   2.215   9.224 -0.9211 -0.2989 -0.0720
  458MOL0     C61724   5.720   2.103   8.985 -1.0570  1.0878 -0.8209
  458MOL0     C61725   5.868   2.062   8.962  0.6313 -0.1804  0.2398
  458MOL0     O61726   5.916   2.088   8.836 -0.2934  0.1084 -0.2908
  458MOL0     C61727   6.051   2.079   8.810 -1.2787  1.0678 -0.0716
  458MOL0     C61728   6.148   2.135   8.903  0.2468 -0.0177 -0.2091
  458MOL0     C61729   6.289   2.113   8.890  0.3318 -0.1851  0.3543
  458MOL0     C61730   6.333   2.053   8.777  0.7232  1.2805  0.4532
  458MOL0     O61731   6.464   2.022   8.751  0.4281 -0.3987 -0.4412
  458MOL0     C61732   6.576   2.099   8.801  0.4402  0.9414  0.1368
  458MOL0     C61733   6.575   2.246   8.768  0.0262 -0.4936 -0.7669
  458MOL0     C61734   6.697   2.317   8.824 -0.3018  0.0692  0.2236
  458MOL0     C61735   6.816   2.298   8.727  0.1347 -0.7313  0.7138
  458MOL0     C61736   6.912   2.420   8.753 -0.8080 -0.1894 -0.7099
  458MOL0     C61737   7.044   2.404   8.684 -1.0528  0.3569 -0.4291
  458MOL0     C61738   7.144   2.305   8.759  0.4137  1.0819 -0.3858
  458MOL0     C61739   7.221   2.374   8.870  0.1677 -0.5456 -0.7774
  458MOL0    Cl61740   7.381   2.318   8.927 -0.4215 -0.1183 -0.4811
  458MOL0     C61741   6.241   1.997   8.684  0.8463 -0.1532  0.0234
  458MOL0     C61742   6.100   2.016   8.696 -0.0523 -0.4768 -0.4257
  458MOL0     O61743   5.927   2.013   9.059 -0.1961 -0.5524 -0.0692
  458MOL0     C61744   5.636   2.098   8.876 -0.1371 -0.6018  0.1414
  458MOL0     C61745   5.506   2.140   8.891  0.7774  0.4389 -0.0368
  458MOL0     N61746   5.282   2.710   8.923  0.5782  0.4424 -0.0516
  458MOL0     N61747   5.391   2.719   8.864 -0.7378 -0.5095  0.0937
  458MOL0     C61748   6.542   2.776   8.977 -0.6386  0.6821  0.1606
  458MOL0     C61749   6.623   2.878   8.942  0.5767 -0.7945 -0.2539
  458MOL0     C61750   6.932   3.107   8.691 -0.7814 -0.2927 -0.5171
  458MOL0     C61751   6.970   3.097   8.557 -0.8502 -0.3877 -0.2662
  458MOL0     C61752   7.089   3.166   8.518 -0.5610  0.1489  0.4838
  458MOL0     C61753   7.160   3.245   8.599 -0.2497 -0.6067 -0.1924
  458MOL0     O61754   7.254   3.322   8.534  0.5476  0.6855 -0.2795
  458MOL0     C61755   7.355   3.385   8.612  0.5917 -0.4541  0.4573
  458MOL0     C61756   7.453   3.297   8.698 -0.0127 -0.1747  0.0944
  458MOL0     C61757   7.560   3.368   8.784 -0.4431 -0.2789  0.4862
  458MOL0     C61758   7.694   3.288   8.772 -0.3663  0.5633  0.2080
  458MOL0     C61759   7.794   3.379   8.844 -1.0485  0.0444  0.6582
  458MOL0     C61760   7.885   3.438   8.901  0.5379 -0.9014 -0.3186
  458MOL0     C61761   7.117   3.255   8.735 -0.8732 -0.4883 -0.3856
  458MOL0     C61762   7.000   3.185   8.783  0.0730  0.3621 -0.0900
  458MOL0     H61763   6.921   2.733   8.925  0.7654  0.6553  1.4460
  458MOL0     H61764   6.780   2.528   8.991  0.2807 -0.6843 -0.1997
  458MOL0     H61765   6.361   2.446   9.115 -0.5706 -2.8575 -3.1260
  458MOL0     H61766   6.349   2.624   9.111  0.0100  0.5277 -1.5104
  458MOL0     H61767   6.314   2.620   8.873  0.9445 -0.8642 -0.1213
  458MOL0     H61768   6.316   2.439   8.886  1.7699 -0.0672  0.0530
  458MOL0     H61769   6.124   2.463   9.042 -1.4690 -1.3845 -1.6092
  458MOL0     H61770   6.125   2.641   9.004 -0.8628  0.2527 -1.8856
  458MOL0     H61771   6.061   2.567   8.763  2.2314  0.4382 -0.6082
  458MOL0     H61772   6.075   2.399   8.815 -1.3754  0.9436  0.0337
  458MOL0     H61773   5.899   2.403   8.964 -1.5152  1.1548  1.0912
  458MOL0     H61774   5.901   2.582   8.975  1.9858  2.1542 -0.8967
  458MOL0     H61775   5.833   2.599   8.739  1.2643 -0.4620 -0.7487
  458MOL0     H61776   5.794   2.429   8.730  0.6386 -0.4421  0.2428
  458MOL0     H61777   5.620   2.460   8.936 -2.2436  2.0736  0.3597
  458MOL0     H61778   5.668   2.628   8.926  0.8584  1.9787 -2.1071
  458MOL0     H61779   5.542   2.465   8.708 -0.6461  0.1936  0.2845
  458MOL0     H61780   5.579   2.637   8.692  1.3730  0.5176  1.5688
  458MOL0     H61781   5.293   2.403   8.835 -0.3528  0.4584 -2.3424
  458MOL0     H61782   5.102   2.563   9.103 -2.3680  1.4246 -0.3249
  458MOL0     H61783   5.023   2.619   8.962  2.6261  2.3843 -0.1895
  458MOL0     H61784   5.081   2.354   8.885 -0.2524 -0.5545 -0.4863
  458MOL0     H61785   4.939   2.393   8.982  0.2150 -1.4212 -0.2136
  458MOL0     H61786   5.063   2.206   9.071  0.5413  0.8978  0.1607
  458MOL0     H61787   5.062   2.343   9.186 -0.1393  0.2761  0.6012
  458MOL0     H61788   5.272   2.246   9.212 -1.1978  0.5988 -0.2914
  458MOL0     H61789   5.307   2.387   9.109  1.3917 -0.6774 -1.9183
  458MOL0     H61790   5.510   2.239   9.211  1.4798  0.1597 -0.2822
  458MOL0     H61791   5.879   2.206   9.199 -0.7692  0.2377  0.3736
  458MOL0     H61792   5.761   2.323   9.240  1.8283  0.2449 -1.1017
  458MOL0     H61793   5.758   2.160   9.317  0.9066  2.3592  1.9626
  458MOL0     H61794   6.104   2.192   8.984 -2.3507  1.5184 -2.5324
  458MOL0     H61795   6.356   2.145   8.969  1.1617 -2.6981  0.7603
  458MOL0     H61796   6.580   2.093   8.910 -3.2337  2.0852  0.4881
  458MOL0     H61797   6.665   2.049   8.761 -0.3529 -0.1929 -0.2641
  458MOL0     H61798   6.557   2.247   8.661 -2.8002 -2.5556 -0.4193
  458MOL0     H61799   6.486   2.279   8.823  0.6320 -2.9095  1.9225
  458MOL0     H61800   6.715   2.281   8.926 -0.1318 -1.9510 -0.4613
  458MOL0     H61801   6.667   2.422   8.825 -3.8732 -0.8142  0.6093
  458MOL0     H61802   6.861   2.200   8.744 -1.3701 -1.7109 -0.6311
  458MOL0     H61803   6.779   2.312   8.625 -0.4102 -1.9390  0.7232
  458MOL0     H61804   6.917   2.446   8.859 -1.4674 -2.0006 -0.1824
  458MOL0     H61805   6.865   2.507   8.707 -0.3032 -0.0865 -1.0420
  458MOL0     H61806   7.028   2.372   8.581  1.2585 -1.5431 -0.2789
  458MOL0     H61807   7.086   2.504   8.672 -0.5751  0.5723  2.2553
  458MOL0     H61808   7.215   2.275   8.681  1.3358  0.1135  0.7819
  458MOL0     H61809   7.093   2.219   8.803  1.1838  1.3392  1.0739
  458MOL0     H61810   7.153   2.391   8.954 -0.0220  0.3501 -1.0990
  458MOL0     H61811   7.239   2.473   8.826 -0.9808 -0.2749 -0.6713
  458MOL0     H61812   6.281   1.938   8.603  0.6533 -2.1599  1.3073
  458MOL0     H61813   6.027   1.987   8.621 -0.7623  2.4584 -1.0097
  458MOL0     H61814   5.655   2.051   8.780 -2.4531 -0.5392 -0.4195
  458MOL0     H61815   5.442   2.126   8.805 -1.0859  1.3506  1.1399
  458MOL0     H61816   6.434   2.783   8.981 -0.6903 -0.2681  0.6264
  458MOL0     H61817   6.579   2.975   8.921 -1.4166 -1.4737  0.5276
  458MOL0     H61818   6.927   3.018   8.496  1.0705 -1.5499 -0.1917
  458MOL0     H61819   7.123   3.157   8.415 -2.4244 -0.2345 -0.1407
  458MOL0     H61820   7.411   3.434   8.531 -1.2624  0.4627 -0.3428
  458MOL0     H61821   7.312   3.470   8.667 -2.9521 -0.9214 -1.2867
  458MOL0     H61822   7.500   3.222   8.633  3.1510  1.4250  0.3709
  458MOL0     H61823   7.390   3.242   8.770 -4.0088  0.2359 -2.7612
  458MOL0     H61824   7.522   3.363   8.887 -0.2770  0.6788  0.6070
  458MOL0     H61825   7.573   3.472   8.752 -1.6902 -0.2623 -0.0170
  458MOL0     H61826   7.722   3.285   8.666  0.0771  0.0019  0.3329
  458MOL0     H61827   7.701   3.184   8.808  1.4143  1.1984  1.9152
  458MOL0     H61828   7.967   3.482   8.956  0.9170 -1.2234 -0.6217
  458MOL0     H61829   7.187   3.310   8.797 -2.0409  2.9327 -1.8491
  458MOL0     H61830   6.974   3.178   8.888  0.5896 -2.4756 -0.0676
  459MOL0     O61831   2.031   7.651   3.203 -0.1869  0.6134  0.5444
  459MOL0     C61832   2.118   7.555   3.201  0.2563  0.0127 -0.1477
  459MOL0     O61833   2.087   7.421   3.201 -0.0183  0.4938  0.3783
  459MOL0     C61834   1.955   7.384   3.218 -0.6428 -0.8179 -0.3921
  459MOL0     C61835   1.876   7.381   3.104  0.2682  0.4557  0.4077
  459MOL0     C61836   1.744   7.336   3.112 -0.1710 -0.4033  0.2069
  459MOL0     C61837   1.696   7.276   3.237  0.6379 -0.8195 -0.5461
  459MOL0     O61838   1.560   7.234   3.261 -0.5535 -0.2103  0.0245
  459MOL0     C61839   1.478   7.343   3.307  0.7091 -0.0443  0.5498
  459MOL0     C61840   1.330   7.287   3.311  0.8748 -0.3556  0.5301
  459MOL0     C61841   1.271   7.238   3.180  0.1250  0.2342  0.1388
  459MOL0     C61842   1.115   7.225   3.181  0.3133  0.0712 -0.6928
  459MOL0     C61843   1.054   7.161   3.048 -0.9203 -0.4798 -0.3897
  459MOL0     C61844   1.067   7.013   3.046  0.0655  0.4205 -0.5900
  459MOL0     C61845   0.965   6.937   3.139 -0.2120  0.1334  0.2311
  459MOL0     C61846   1.010   6.793   3.170  0.7767  0.2668 -0.2090
  459MOL0     N61847   0.901   6.715   3.224 -0.1886 -0.1239  0.7781
  459MOL0     C61848   0.901   6.678   3.357  0.1854  0.1271  0.2283
  459MOL0     C61849   0.786   6.604   3.363 -0.2119 -0.3163 -0.1059
  459MOL0     C61850   0.744   6.535   3.487  0.2795 -0.7852 -0.8266
  459MOL0     C61851   0.588   6.526   3.505 -0.5569 -0.9136 -0.0873
  459MOL0     C61852   0.555   6.443   3.624 -0.4304  0.9910  0.2902
  459MOL0     C61853   0.411   6.429   3.649 -0.1673  0.0211  0.2447
  459MOL0     O61854   0.396   6.370   3.784  0.9442 -0.4833  0.3935
  459MOL0     C61855   0.282   6.337   3.837  0.1292 -0.8103  0.1618
  459MOL0     C61856   0.157   6.374   3.782  0.3723  0.6118 -0.9794
  459MOL0     C61857   0.031   6.313   3.832  0.3061  0.1077  0.4643
  459MOL0     C61858  -0.101   6.349   3.759  0.0838  0.5337 -0.3118
  459MOL0     C61859   0.039   6.237   3.953 -1.1219 -0.9409  0.0953
  459MOL0     C61860  -0.081   6.158   4.016 -0.2054  0.0253  0.2787
  459MOL0     O61861  -0.210   6.195   3.982  0.4564 -1.0595  0.2127
  459MOL0     C61862  -0.306   6.125   4.045 -0.5588  0.0462 -0.3130
  459MOL0     C61863  -0.346   6.000   3.997 -0.4304 -0.1567 -0.0249
  459MOL0     C61864  -0.455   5.931   4.050 -0.5881 -0.4098 -0.7678
  459MOL0     C61865  -0.520   5.982   4.163  0.2899 -0.4271 -0.1923
  459MOL0     O61866  -0.613   5.909   4.232  0.4136  0.1478 -0.1904
  459MOL0     C61867  -0.691   5.806   4.175  0.6233  1.0408  1.0971
  459MOL0     C61868  -0.825   5.788   4.252  0.6450  0.6330  0.8847
  459MOL0     C61869  -0.941   5.887   4.199  0.4339  0.3781 -0.2438
  459MOL0     C61870  -1.075   5.854   4.273  0.5698  0.1715 -0.1619
  459MOL0     C61871  -1.196   5.922   4.209  0.7992  0.2168  0.0271
  459MOL0     C61872  -1.340   5.863   4.239 -0.6907 -0.0848 -0.3675
  459MOL0     C61873  -1.399   5.940   4.362 -0.2181 -0.1284  0.7442
  459MOL0     C61874  -1.544   5.915   4.399 -0.2483 -0.1147 -1.1527
  459MOL0    Cl61875  -1.595   5.744   4.376 -0.3414 -0.2251 -0.6758
  459MOL0     C61876  -0.476   6.110   4.214  0.9523 -0.1333  0.6849
  459MOL0     C61877  -0.373   6.183   4.154  0.2159  0.1131  0.4664
  459MOL0     O61878  -0.054   6.061   4.090  0.2056 -0.3311 -0.2689
  459MOL0     C61879   0.164   6.219   4.006  0.1269 -0.6660 -1.0458
  459MOL0     C61880   0.277   6.261   3.954  0.2775  0.2273  0.0065
  459MOL0     N61881   0.719   6.606   3.238 -0.4284  0.4099 -0.4347
  459MOL0     N61882   0.794   6.666   3.152 -0.5970 -0.1293  0.0809
  459MOL0     C61883   1.780   7.291   3.339 -0.9288  0.6040 -0.6155
  459MOL0     C61884   1.911   7.343   3.337  0.6492 -0.4864 -0.2935
  459MOL0     C61885   2.260   7.589   3.197  0.1893 -0.7450  0.0248
  459MOL0     C61886   2.297   7.702   3.265  0.2503  0.4459 -0.0854
  459MOL0     C61887   2.430   7.745   3.257  0.3066 -0.3380  0.0685
  459MOL0     C61888   2.527   7.673   3.190  0.3021  1.0606 -0.4611
  459MOL0     O61889   2.650   7.723   3.193 -0.0263 -0.5038  0.1218
  459MOL0     C61890   2.746   7.639   3.127 -0.1636 -0.5906  0.1081
  459MOL0     C61891   2.884   7.700   3.157  0.2149 -0.0278 -0.6819
  459MOL0     C61892   2.991   7.626   3.085  0.8966 -0.1007  0.0062
  459MOL0     C61893   3.123   7.610   3.164 -0.0502  0.3282 -0.7041
  459MOL0     C61894   3.113   7.518   3.275  0.8333  0.8781 -0.4348
  459MOL0     C61895   3.106   7.433   3.361  0.4491 -0.2865 -0.0523
  459MOL0     C61896   2.489   7.553   3.128  0.4197  0.5773 -1.2142
  459MOL0     C61897   2.357   7.514   3.129 -0.1513 -0.1413 -0.2805
  459MOL0     H61898   1.915   7.403   3.006 -0.6170 -0.0350 -0.0643
  459MOL0     H61899   1.682   7.334   3.023 -0.3144 -1.7245  0.3129
  459MOL0     H61900   1.509   7.364   3.410  0.2225 -0.0307  0.6919
  459MOL0     H61901   1.487   7.437   3.252  0.0541  0.1216  0.7222
  459MOL0     H61902   1.330   7.214   3.392 -0.2585  1.5611  2.3454
  459MOL0     H61903   1.261   7.366   3.341 -1.1608 -1.6727 -0.4445
  459MOL0     H61904   1.292   7.309   3.100 -0.4560  0.0993 -0.1427
  459MOL0     H61905   1.324   7.144   3.162  0.7533  0.6600 -0.2959
  459MOL0     H61906   1.077   7.166   3.265  0.1273 -0.1391 -0.9237
  459MOL0     H61907   1.071   7.322   3.206  2.8905  0.9537  0.9176
  459MOL0     H61908   0.952   7.200   3.035 -0.4140  2.1776  2.4560
  459MOL0     H61909   1.113   7.194   2.962 -2.3840  0.8294 -0.9489
  459MOL0     H61910   1.055   6.978   2.943 -1.4701 -2.5501  0.4578
  459MOL0     H61911   1.170   6.987   3.072 -0.1533 -0.2498 -0.3618
  459MOL0     H61912   0.946   6.988   3.234 -3.2942 -0.4921  0.0818
  459MOL0     H61913   0.864   6.938   3.095 -0.7041  0.7968  1.3473
  459MOL0     H61914   1.094   6.794   3.241  0.2128  1.4817  0.4681
  459MOL0     H61915   1.045   6.744   3.079  0.3885 -1.6554  0.6110
  459MOL0     H61916   0.976   6.675   3.436 -1.8324 -1.2513  2.2393
  459MOL0     H61917   0.791   6.436   3.494  1.6751 -0.1222 -0.5199
  459MOL0     H61918   0.787   6.589   3.572  3.0627 -2.1764 -1.2198
  459MOL0     H61919   0.544   6.482   3.415 -1.5402  2.4636 -1.4175
  459MOL0     H61920   0.546   6.624   3.530 -0.5546 -0.8988 -0.1424
  459MOL0     H61921   0.598   6.486   3.715  1.0453 -3.1782  1.7767
  459MOL0     H61922   0.589   6.340   3.622  0.1595  1.1978 -0.8859
  459MOL0     H61923   0.362   6.367   3.574 -2.4119  3.2080 -1.1680
  459MOL0     H61924   0.370   6.530   3.640 -0.0695 -0.0863 -1.6759
  459MOL0     H61925   0.155   6.416   3.682  2.7818 -1.4681 -2.0184
  459MOL0     H61926  -0.170   6.264   3.754  2.3336 -1.3527 -0.7737
  459MOL0     H61927  -0.155   6.423   3.819 -1.8818 -0.6099 -0.5841
  459MOL0     H61928  -0.081   6.392   3.660 -0.3614  3.6881  0.8399
  459MOL0     H61929  -0.294   5.969   3.907  0.1617  0.7622 -0.0127
  459MOL0     H61930  -0.467   5.830   4.014  0.2880 -0.9253  0.3046
  459MOL0     H61931  -0.710   5.823   4.069 -0.4391 -0.0007  1.0939
  459MOL0     H61932  -0.641   5.709   4.184 -1.3252 -0.0109  1.2934
  459MOL0     H61933  -0.856   5.686   4.226  0.3794  0.2618  2.5210
  459MOL0     H61934  -0.806   5.807   4.358  2.8847  4.7059 -0.0670
  459MOL0     H61935  -0.962   5.880   4.091 -1.9340  1.5074  0.0740
  459MOL0     H61936  -0.909   5.990   4.217  2.1040  0.2251 -1.9812
  459MOL0     H61937  -1.089   5.746   4.268 -1.0142  0.2614  1.3114
  459MOL0     H61938  -1.076   5.874   4.381  0.0561 -2.5568  0.4182
  459MOL0     H61939  -1.181   5.905   4.102  1.4777  1.1837 -0.0366
  459MOL0     H61940  -1.195   6.027   4.238 -2.7611  0.2105  0.6378
  459MOL0     H61941  -1.404   5.880   4.151  0.7104 -1.7099 -1.7691
  459MOL0     H61942  -1.343   5.755   4.255  2.4678 -0.1041  0.6981
  459MOL0     H61943  -1.386   6.044   4.330 -2.3731 -1.0431 -4.1281
  459MOL0     H61944  -1.328   5.907   4.439 -0.9401 -3.1421  0.2477
  459MOL0     H61945  -1.604   5.990   4.346  0.4992  2.2130  1.0878
  459MOL0     H61946  -1.552   5.940   4.506  3.0704  0.7809 -1.0019
  459MOL0     H61947  -0.518   6.150   4.305  1.3421  1.4348  0.1998
  459MOL0     H61948  -0.330   6.269   4.204 -2.2464 -0.2303  3.4213
  459MOL0     H61949   0.176   6.177   4.105  1.8898  3.1387  0.5278
  459MOL0     H61950   0.359   6.244   4.024  0.5508 -2.3794 -0.8243
  459MOL0     H61951   1.740   7.260   3.435  1.6275 -0.2778  0.2235
  459MOL0     H61952   1.970   7.362   3.426  1.5277  1.9395 -1.3045
  459MOL0     H61953   2.216   7.760   3.309 -0.6179  0.1169 -1.2055
  459MOL0     H61954   2.460   7.841   3.297  1.9733 -0.5106 -0.6757
  459MOL0     H61955   2.745   7.539   3.171  1.1194 -0.5999  0.1438
  459MOL0     H61956   2.728   7.639   3.019  1.5453 -0.7079 -0.2034
  459MOL0     H61957   2.915   7.707   3.262 -0.6854  0.7965 -0.4486
  459MOL0     H61958   2.884   7.804   3.123 -1.4839  0.3161  0.2781
  459MOL0     H61959   3.011   7.674   2.988  1.1708  1.2001  0.6926
  459MOL0     H61960   2.952   7.527   3.059  1.8865 -1.3631  2.9070
  459MOL0     H61961   3.155   7.704   3.210  0.8644  0.1271 -0.9076
  459MOL0     H61962   3.205   7.575   3.099  0.0227 -0.6226 -0.1111
  459MOL0     H61963   3.100   7.355   3.434 -1.7612 -0.5850 -0.4886
  459MOL0     H61964   2.556   7.486   3.076 -1.1761  0.0445 -2.7218
  459MOL0     H61965   2.331   7.421   3.080  1.3409 -0.5635 -0.3221
  460MOL0     O61966   9.597   7.654  10.535  0.1227  0.3156 -0.0419
  460MOL0     C61967   9.661   7.624  10.434 -0.0295  1.2851  0.4549
  460MOL0     O61968   9.618   7.639  10.304 -0.1556  0.4082  0.0158
  460MOL0     C61969   9.501   7.699  10.270  0.2218 -0.0737  0.1355
  460MOL0     C61970   9.412   7.629  10.193 -0.1240  0.6120  0.7531
  460MOL0     C61971   9.296   7.683  10.146 -0.6584  0.6165 -0.1872
  460MOL0     C61972   9.259   7.816  10.179  1.1148 -0.1155  0.0637
  460MOL0     O61973   9.148   7.870  10.106 -0.3583  0.0600 -0.1406
  460MOL0     C61974   9.065   7.968  10.168 -0.1827  0.3468  0.6835
  460MOL0     C61975   8.946   8.013  10.075 -0.3479 -0.4914 -0.6421
  460MOL0     C61976   8.851   8.092  10.161 -0.1439 -0.2246 -0.1763
  460MOL0     C61977   8.737   8.167  10.100  0.2402 -0.1373  0.8483
  460MOL0     C61978   8.649   8.242  10.203  0.1706 -0.6437 -0.0684
  460MOL0     C61979   8.520   8.307  10.150  0.0343  0.4252  0.4006
  460MOL0     C61980   8.447   8.389  10.264  0.4086 -0.3935 -0.1947
  460MOL0     C61981   8.361   8.302  10.353 -0.5236  0.2379 -0.3073
  460MOL0     N61982   8.293   8.386  10.449  0.2764  1.2510  0.6568
  460MOL0     C61983   8.180   8.462  10.422  0.1491  0.5178 -0.1260
  460MOL0     C61984   8.136   8.509  10.544  0.3412 -0.2064  0.1425
  460MOL0     C61985   8.008   8.600  10.581 -0.1580 -0.6081  0.0334
  460MOL0     C61986   7.875   8.554  10.524 -0.5280 -0.2539  0.9532
  460MOL0     C61987   7.791   8.469  10.615  0.5762 -0.3548 -0.0327
  460MOL0     C61988   7.637   8.473  10.585  0.0551 -0.3196  0.6541
  460MOL0     O61989   7.621   8.438  10.447  0.6110  0.0965  0.6636
  460MOL0     C61990   7.501   8.377  10.418 -0.2437 -1.2087 -0.5598
  460MOL0     C61991   7.490   8.304  10.299  0.5118 -0.8267 -0.2202
  460MOL0     C61992   7.368   8.240  10.257 -0.6634  0.0462 -0.2357
  460MOL0     C61993   7.361   8.178  10.118  0.7224  0.0551 -0.3934
  460MOL0     C61994   7.251   8.238  10.344  0.1338  0.0731  0.2611
  460MOL0     C61995   7.122   8.163  10.332 -0.1362 -0.0688  0.0327
  460MOL0     O61996   7.023   8.193  10.429  0.0869  0.3851 -0.3066
  460MOL0     C61997   6.891   8.147  10.421 -0.6805 -0.3322 -0.4095
  460MOL0     C61998   6.828   8.124  10.300  0.3131 -0.6237 -0.5064
  460MOL0     C61999   6.698   8.071  10.294 -0.1091 -0.4256  0.3810
  460MOL0     C62000   6.631   8.045  10.410  0.6444 -0.1190  0.4768
  460MOL0     O62001   6.520   7.970  10.403  0.2023  1.1226 -0.4393
  460MOL0     C62002   6.519   7.865  10.301  0.0089  1.0272 -0.1800
  460MOL0     C62003   6.425   7.749  10.350 -0.9147 -0.1410  0.2332
  460MOL0     C62004   6.281   7.790  10.354  0.4354  0.2915  0.9621
  460MOL0     C62005   6.193   7.683  10.424 -0.4527  0.3502  0.9599
  460MOL0     C62006   6.177   7.563  10.327 -0.4956 -0.7547 -1.0669
  460MOL0     C62007   6.054   7.476  10.363 -0.9689 -1.7783 -0.1981
  460MOL0     C62008   5.940   7.538  10.292  0.8873 -0.2908  0.3269
  460MOL0     C62009   5.806   7.456  10.301 -0.7181  0.7266  0.1953
  460MOL0    Cl62010   5.740   7.448  10.471  0.4570 -0.2492  0.0929
  460MOL0     C62011   6.680   8.092  10.531 -0.0404  0.3948 -0.0795
  460MOL0     C62012   6.817   8.135  10.540  0.4891 -0.5613  0.3348
  460MOL0     O62013   7.110   8.074  10.247  0.3504 -0.4784  0.2814
  460MOL0     C62014   7.257   8.323  10.461  0.5589  0.0600  0.1394
  460MOL0     C62015   7.377   8.380  10.496 -1.0835 -0.0757  0.6547
  460MOL0     N62016   8.231   8.466  10.637  0.6361 -0.6648 -0.6471
  460MOL0     N62017   8.323   8.391  10.580 -0.8017  0.1851 -0.3148
  460MOL0     C62018   9.340   7.888  10.267  0.0184  0.2892  0.4210
  460MOL0     C62019   9.466   7.832  10.307 -0.2262  0.0189  0.3986
  460MOL0     C62020   9.797   7.565  10.458 -0.5492  0.2728 -0.1933
  460MOL0     C62021   9.830   7.499  10.581 -0.5803  0.1591  0.0717
  460MOL0     C62022   9.956   7.464  10.613  0.2394  0.3333  0.3048
  460MOL0     C62023  10.064   7.475  10.521  0.3122  0.0587  0.4583
  460MOL0     O62024  10.195   7.430  10.546  0.0689  0.3437  0.4587
  460MOL0     C62025  10.216   7.355  10.660  0.5511  1.1183 -0.5938
  460MOL0     C62026  10.345   7.275  10.668 -0.2779  0.0358  0.0806
  460MOL0     C62027  10.324   7.165  10.777  0.0765  0.6530 -0.1191
  460MOL0     C62028  10.452   7.082  10.787  0.4659  0.0752  0.1563
  460MOL0     C62029  10.487   7.010  10.665  0.3821 -0.0104 -0.2185
  460MOL0     C62030  10.494   6.938  10.570 -0.5991 -0.4121 -0.4227
  460MOL0     C62031  10.032   7.525  10.396 -0.0234 -0.1251 -0.0485
  460MOL0     C62032   9.901   7.558  10.362  0.1254  0.0738 -0.1448
  460MOL0     H62033   9.436   7.526  10.167 -0.1792  1.2395 -2.1629
  460MOL0     H62034   9.228   7.637  10.075  2.5378 -1.9064 -1.9032
  460MOL0     H62035   9.020   7.910  10.250  1.5180 -1.1936  0.5978
  460MOL0     H62036   9.124   8.048  10.214  1.4489 -0.1762 -0.4140
  460MOL0     H62037   8.981   8.083  10.000  1.5770  0.5735  1.1497
  460MOL0     H62038   8.894   7.934  10.021 -1.6092  0.8927 -1.5173
  460MOL0     H62039   8.797   8.029  10.233  1.1486 -0.1520  0.8851
  460MOL0     H62040   8.916   8.162  10.214 -0.6322 -1.1296  1.7362
  460MOL0     H62041   8.788   8.229  10.026 -0.1003 -0.5930  0.2151
  460MOL0     H62042   8.670   8.093  10.055 -1.0318  1.4788 -0.0194
  460MOL0     H62043   8.626   8.173  10.285 -0.5599  0.7371  0.9306
  460MOL0     H62044   8.713   8.319  10.247  1.8459 -1.3447 -1.1843
  460MOL0     H62045   8.551   8.372  10.068  0.3202 -1.5861 -1.1473
  460MOL0     H62046   8.450   8.243  10.095  0.4275 -1.0967  1.6109
  460MOL0     H62047   8.530   8.433  10.320  0.0020  0.0588  0.0556
  460MOL0     H62048   8.389   8.471  10.221 -0.9782  0.0956  2.3873
  460MOL0     H62049   8.428   8.228  10.399 -1.4586 -0.1420  0.4732
  460MOL0     H62050   8.286   8.239  10.306  0.3948 -1.5457  0.5152
  460MOL0     H62051   8.137   8.481  10.324  1.7299 -0.6172 -1.0856
  460MOL0     H62052   8.003   8.601  10.690  2.3591  0.1605  0.1898
  460MOL0     H62053   8.035   8.704  10.563  0.5710 -0.8538 -0.3285
  460MOL0     H62054   7.895   8.502  10.430  1.1673  1.4675  0.2828
  460MOL0     H62055   7.817   8.641  10.492 -0.5048  0.1075  1.8711
  460MOL0     H62056   7.794   8.490  10.722 -1.5537 -0.6148  0.1331
  460MOL0     H62057   7.833   8.372  10.590  0.9428 -0.0102 -0.7879
  460MOL0     H62058   7.594   8.570  10.609  0.9730 -0.1333  1.6582
  460MOL0     H62059   7.591   8.398  10.651 -1.6138  0.9469  0.9739
  460MOL0     H62060   7.579   8.293  10.238  0.9599 -0.9933  0.4554
  460MOL0     H62061   7.455   8.180  10.063  0.4716 -2.2295 -1.0121
  460MOL0     H62062   7.342   8.071  10.130  1.8328 -0.1664 -0.5368
  460MOL0     H62063   7.277   8.224  10.064  0.9226 -1.1402 -1.7671
  460MOL0     H62064   6.868   8.152  10.203 -3.3970 -2.3153 -2.7441
  460MOL0     H62065   6.656   8.062  10.194  0.6263  0.8731 -0.0809
  460MOL0     H62066   6.478   7.914  10.212  0.2073  3.1735  0.8474
  460MOL0     H62067   6.616   7.820  10.278 -0.3747  0.4245 -0.6449
  460MOL0     H62068   6.441   7.659  10.291  0.8938 -0.8920  1.7791
  460MOL0     H62069   6.458   7.712  10.447  1.0437  0.9487  0.0188
  460MOL0     H62070   6.240   7.804  10.254 -2.7431  2.2706  2.3883
  460MOL0     H62071   6.263   7.891  10.392  0.3945  0.3867  0.6863
  460MOL0     H62072   6.250   7.659  10.515  0.8184 -0.9839 -0.1481
  460MOL0     H62073   6.093   7.724  10.439 -0.0513  1.5278  0.5674
  460MOL0     H62074   6.266   7.501  10.337 -0.5324 -0.4700  1.7750
  460MOL0     H62075   6.177   7.580  10.219 -0.1203 -1.2548 -1.1504
  460MOL0     H62076   6.068   7.375  10.323 -0.5550 -1.1200 -1.8367
  460MOL0     H62077   6.047   7.474  10.472  0.7111  2.5344  0.2195
  460MOL0     H62078   5.969   7.546  10.187 -2.0741 -0.2512 -0.5923
  460MOL0     H62079   5.919   7.641  10.322 -1.6430 -0.5922 -0.1611
  460MOL0     H62080   5.839   7.357  10.267  1.5482  1.7198 -0.7698
  460MOL0     H62081   5.725   7.487  10.235 -1.0353 -0.8614 -0.2154
  460MOL0     H62082   6.616   8.064  10.615  1.9252 -2.7693  0.5485
  460MOL0     H62083   6.857   8.145  10.641 -1.7702 -1.7014  1.4150
  460MOL0     H62084   7.171   8.334  10.527  0.5806  0.9155  0.0429
  460MOL0     H62085   7.384   8.457  10.573 -0.4454  2.3961 -1.7003
  460MOL0     H62086   9.334   7.991  10.302  0.4751  0.4462  0.0466
  460MOL0     H62087   9.527   7.890  10.376 -3.1864  0.7555  2.5559
  460MOL0     H62088   9.763   7.484  10.665 -0.7673  1.0540  0.0918
  460MOL0     H62089   9.983   7.431  10.713  3.4930 -2.3429 -1.2997
  460MOL0     H62090  10.211   7.409  10.755 -0.5100  0.8391 -0.4687
  460MOL0     H62091  10.135   7.281  10.662  0.5413  1.1230  1.9305
  460MOL0     H62092  10.436   7.335  10.678 -0.0211 -0.3678  0.2039
  460MOL0     H62093  10.342   7.226  10.570 -1.0043  3.9688 -2.0490
  460MOL0     H62094  10.241   7.101  10.746 -1.4967  2.3034  0.4881
  460MOL0     H62095  10.294   7.225  10.864 -1.8129  2.9371 -2.2107
  460MOL0     H62096  10.455   7.012  10.871  0.9939  1.6376  1.4844
  460MOL0     H62097  10.535   7.152  10.802  0.6301  0.1135 -0.8516
  460MOL0     H62098  10.491   6.864  10.492 -1.3486 -0.7514 -0.0769
  460MOL0     H62099  10.115   7.545  10.329  0.4780  0.7092  0.8007
  460MOL0     H62100   9.886   7.598  10.262 -4.5163 -1.7987 -0.4521
  461MOL0     O62101   5.388   7.452   1.888  0.2089  0.3259  0.4925
  461MOL0     C62102   5.382   7.467   2.009  0.3331  0.0988  0.6894
  461MOL0     O62103   5.279   7.518   2.078  0.6868  1.0899 -0.2839
  461MOL0     C62104   5.175   7.596   2.013 -0.4325  0.3507 -0.9979
  461MOL0     C62105   5.202   7.680   1.909 -0.3587 -0.2832  0.3530
  461MOL0     C62106   5.100   7.769   1.866 -0.1728 -0.2760  0.8700
  461MOL0     C62107   4.973   7.777   1.924  0.4859 -0.4287 -0.3738
  461MOL0     O62108   4.875   7.858   1.875  0.1224 -0.0135 -0.1131
  461MOL0     C62109   4.849   7.848   1.735 -0.2399  0.3006 -1.3883
  461MOL0     C62110   4.695   7.853   1.699 -0.3984 -0.1674  0.3306
  461MOL0     C62111   4.644   7.996   1.713 -0.1749 -0.5343  0.8175
  461MOL0     C62112   4.495   7.990   1.700  0.5894 -0.7426  0.7724
  461MOL0     C62113   4.423   8.130   1.707  0.0610 -0.0539 -0.4020
  461MOL0     C62114   4.264   8.118   1.699  0.5118  0.3241  0.1479
  461MOL0     C62115   4.209   8.107   1.557  0.9209  0.4691  0.1885
  461MOL0     C62116   4.057   8.120   1.566  0.3264  0.4343 -0.0234
  461MOL0     N62117   3.961   8.068   1.459  0.3330 -0.1413 -1.0023
  461MOL0     C62118   3.911   8.151   1.365 -0.1222  0.1359 -0.7781
  461MOL0     C62119   3.847   8.071   1.276 -1.0513 -0.8787  0.2609
  461MOL0     C62120   3.776   8.113   1.156 -0.0360 -0.0272  0.4920
  461MOL0     C62121   3.723   8.256   1.157 -0.0497 -0.0743 -0.0822
  461MOL0     C62122   3.595   8.290   1.233 -0.2104  0.3320 -0.1428
  461MOL0     C62123   3.538   8.427   1.202  0.5103 -0.4312  0.1299
  461MOL0     O62124   3.427   8.456   1.291 -0.1714 -0.3795  0.6297
  461MOL0     C62125   3.305   8.491   1.236  0.4173  0.4255  0.0096
  461MOL0     C62126   3.187   8.457   1.313  0.4543  0.0085  0.1344
  461MOL0     C62127   3.058   8.486   1.265  0.1819  0.9705  0.0142
  461MOL0     C62128   2.945   8.458   1.362 -0.5743  0.3096 -0.6000
  461MOL0     C62129   3.042   8.558   1.141  0.7415 -0.1162  0.1957
  461MOL0     C62130   2.910   8.604   1.080  0.5018  0.6659  0.0014
  461MOL0     O62131   2.807   8.626   1.164  0.0776  0.0800 -0.7190
  461MOL0     C62132   2.679   8.622   1.118 -0.1573 -0.1008  0.5538
  461MOL0     C62133   2.597   8.520   1.155 -0.5313 -0.6506 -0.4674
  461MOL0     C62134   2.461   8.529   1.123  0.0963 -0.3079 -0.2390
  461MOL0     C62135   2.403   8.633   1.052 -0.2516  0.4512 -0.7608
  461MOL0     O62136   2.270   8.651   1.009 -0.6014  0.3615 -0.7896
  461MOL0     C62137   2.176   8.542   1.025 -0.1397 -0.4370 -0.1715
  461MOL0     C62138   2.042   8.608   0.977  0.0827 -0.8308  0.6434
  461MOL0     C62139   1.935   8.498   0.955 -0.4228  0.6045  0.2677
  461MOL0     C62140   1.796   8.544   0.991 -0.0364  0.0136  0.9440
  461MOL0     C62141   1.697   8.437   0.968 -0.2997 -0.1530 -0.0313
  461MOL0     C62142   1.568   8.466   1.046 -0.1564  0.6322 -0.3420
  461MOL0     C62143   1.452   8.374   1.010  0.0039 -0.8802 -0.6576
  461MOL0     C62144   1.320   8.419   1.078  0.3175 -0.7359 -0.3708
  461MOL0    Cl62145   1.293   8.588   1.032  0.3021 -0.0057 -0.0275
  461MOL0     C62146   2.489   8.722   1.002  0.3755 -0.0183 -0.8447
  461MOL0     C62147   2.626   8.729   1.037 -0.1185 -0.0963 -0.3006
  461MOL0     O62148   2.904   8.624   0.959 -0.0743  0.0532  0.1071
  461MOL0     C62149   3.157   8.603   1.071  0.3720  0.5370  0.1460
  461MOL0     C62150   3.282   8.568   1.119 -0.4302 -0.0463  0.3930
  461MOL0     N62151   3.863   7.939   1.320 -0.2893  0.1914  0.4187
  461MOL0     N62152   3.941   7.936   1.426 -0.3353  0.3036 -0.4214
  461MOL0     C62153   4.942   7.692   2.033 -0.9497  0.8500  0.5936
  461MOL0     C62154   5.044   7.600   2.076  0.4984  0.0330 -0.1575
  461MOL0     C62155   5.504   7.448   2.085  0.0423 -0.2795 -0.5555
  461MOL0     C62156   5.511   7.484   2.224  0.5696  0.0614 -0.6549
  461MOL0     C62157   5.631   7.465   2.292 -0.4570 -0.2456 -0.7619
  461MOL0     C62158   5.755   7.434   2.229  0.3927  0.3710 -0.2727
  461MOL0     O62159   5.877   7.428   2.288 -0.2884  0.1435 -0.0943
  461MOL0     C62160   5.917   7.554   2.347  0.4478  0.3754  0.7967
  461MOL0     C62161   6.064   7.552   2.371 -0.1242  0.8266  0.4208
  461MOL0     C62162   6.099   7.474   2.503 -0.0726  0.0905 -0.8263
  461MOL0     C62163   6.250   7.453   2.527 -0.6834 -0.0704 -0.4034
  461MOL0     C62164   6.317   7.357   2.437 -0.6073 -0.4286 -0.1034
  461MOL0     C62165   6.389   7.288   2.368 -0.1743  0.6049  0.1621
  461MOL0     C62166   5.747   7.390   2.101  0.0179  0.3793  0.2120
  461MOL0     C62167   5.619   7.395   2.023 -0.6051 -0.2968 -0.4346
  461MOL0     H62168   5.299   7.698   1.864 -1.0931  0.8996 -0.7963
  461MOL0     H62169   5.126   7.840   1.788 -1.1789 -0.3472  0.4551
  461MOL0     H62170   4.902   7.928   1.682  1.5066  0.2528  0.1726
  461MOL0     H62171   4.887   7.753   1.696 -0.9300 -0.7049  0.2860
  461MOL0     H62172   4.680   7.823   1.595 -1.0288  3.1686 -0.6606
  461MOL0     H62173   4.636   7.788   1.765 -0.6723 -0.7241 -0.4524
  461MOL0     H62174   4.669   8.056   1.802 -0.4209  0.5973  0.1455
  461MOL0     H62175   4.694   8.063   1.643 -0.0988  0.6526  1.9621
  461MOL0     H62176   4.458   7.950   1.606 -1.2831  1.0710  0.6740
  461MOL0     H62177   4.462   7.930   1.786 -1.9224 -2.3111 -1.1315
  461MOL0     H62178   4.451   8.174   1.803 -3.1232  0.2351  0.5371
  461MOL0     H62179   4.449   8.205   1.632 -1.8282  1.1229  0.0432
  461MOL0     H62180   4.227   8.041   1.768 -1.2235  1.1385  0.1886
  461MOL0     H62181   4.228   8.217   1.729  2.3426  0.8915  0.5554
  461MOL0     H62182   4.246   8.187   1.492 -1.2495  1.8314  0.5509
  461MOL0     H62183   4.222   8.011   1.506  0.9776  0.6397 -0.1233
  461MOL0     H62184   4.041   8.228   1.581  1.1542  0.3846  1.4404
  461MOL0     H62185   4.035   8.068   1.660  0.2716  0.6172  0.0659
  461MOL0     H62186   3.928   8.258   1.371  0.7913 -0.0530  0.5065
  461MOL0     H62187   3.842   8.100   1.070  2.5749  0.4341  2.3145
  461MOL0     H62188   3.698   8.036   1.149 -1.3524  1.3800 -1.0494
  461MOL0     H62189   3.717   8.285   1.051  2.4435 -0.8727 -0.5064
  461MOL0     H62190   3.792   8.328   1.203 -1.7728  3.9406 -3.0807
  461MOL0     H62191   3.618   8.278   1.339 -1.6054 -1.4406  0.0161
  461MOL0     H62192   3.518   8.215   1.213  1.0896 -0.8258 -0.9526
  461MOL0     H62193   3.505   8.427   1.097  2.1306 -1.3310 -0.4202
  461MOL0     H62194   3.609   8.509   1.217 -0.7689  0.8884 -0.7450
  461MOL0     H62195   3.203   8.404   1.407 -0.2657 -1.6481 -0.6413
  461MOL0     H62196   2.893   8.551   1.383  1.0302  1.8159 -2.7199
  461MOL0     H62197   2.885   8.382   1.310 -1.1686 -0.9890  1.8440
  461MOL0     H62198   2.996   8.416   1.449  1.9324  0.7928 -1.7306
  461MOL0     H62199   2.641   8.434   1.205 -0.7174 -0.4095  0.1181
  461MOL0     H62200   2.392   8.451   1.154 -1.1653  1.1202  0.6704
  461MOL0     H62201   2.214   8.464   0.958  0.5126  2.2670 -3.1828
  461MOL0     H62202   2.165   8.516   1.130 -4.7908  1.2529  0.0088
  461MOL0     H62203   2.020   8.684   1.053  0.3173 -0.1908  0.0798
  461MOL0     H62204   2.064   8.662   0.885  2.0207  0.9579  2.0582
  461MOL0     H62205   1.959   8.424   1.031 -2.2179 -0.2846  0.0075
  461MOL0     H62206   1.940   8.448   0.858 -4.5256 -1.1216  0.7624
  461MOL0     H62207   1.787   8.583   1.093 -0.3644  0.4713  0.7448
  461MOL0     H62208   1.775   8.631   0.928 -0.1438  0.1442  1.1582
  461MOL0     H62209   1.744   8.341   0.991  2.1935  1.1400  0.6513
  461MOL0     H62210   1.670   8.428   0.863  2.4286  1.7096 -1.0164
  461MOL0     H62211   1.588   8.475   1.153 -3.2458  0.3899  0.3679
  461MOL0     H62212   1.539   8.567   1.016 -2.9172  0.3425  0.9841
  461MOL0     H62213   1.478   8.274   1.044  1.1123 -0.5949 -0.6489
  461MOL0     H62214   1.446   8.377   0.901 -1.8247 -0.7728 -0.5961
  461MOL0     H62215   1.329   8.412   1.187  0.9550  1.6071 -0.2197
  461MOL0     H62216   1.234   8.371   1.032 -3.4859  3.5785  1.4376
  461MOL0     H62217   2.447   8.806   0.947 -0.5282 -0.7430 -1.2776
  461MOL0     H62218   2.684   8.819   1.018 -0.2543 -0.2633 -1.5830
  461MOL0     H62219   3.158   8.660   0.979  0.2135 -0.5230 -0.5372
  461MOL0     H62220   3.364   8.598   1.054 -1.7926  1.7959 -0.5764
  461MOL0     H62221   4.860   7.703   2.103 -0.4270 -0.0931  1.3823
  461MOL0     H62222   5.032   7.540   2.166  1.4883  2.3401  1.6285
  461MOL0     H62223   5.419   7.514   2.273 -0.9397 -2.5344 -1.7251
  461MOL0     H62224   5.623   7.490   2.398  1.0579  2.0581 -1.1165
  461MOL0     H62225   5.891   7.633   2.276 -1.4911 -2.3718 -1.7958
  461MOL0     H62226   5.873   7.564   2.447 -0.7561  1.9775  0.1568
  461MOL0     H62227   6.106   7.653   2.361 -0.6779  0.8922 -1.7022
  461MOL0     H62228   6.112   7.496   2.291  3.3188  0.9916  2.1807
  461MOL0     H62229   6.050   7.376   2.496 -1.3873  0.8240 -2.7360
  461MOL0     H62230   6.059   7.528   2.589  4.9661  2.2454  0.5196
  461MOL0     H62231   6.250   7.419   2.631 -1.5003 -0.3217 -0.4735
  461MOL0     H62232   6.311   7.543   2.527 -0.1173 -0.4494  0.0802
  461MOL0     H62233   6.459   7.221   2.322  1.4625  1.3127  1.4924
  461MOL0     H62234   5.830   7.357   2.039  1.9041  0.3974  2.6073
  461MOL0     H62235   5.609   7.359   1.922 -0.2229  0.4525 -0.7436
  462MOL0     O62236   8.639  10.008   7.469  0.4444 -0.3052 -0.3777
  462MOL0     C62237   8.653   9.997   7.589  0.1535  1.1016 -0.1749
  462MOL0     O62238   8.553   9.965   7.677  0.0994 -0.0237  0.0985
  462MOL0     C62239   8.427  10.019   7.684 -0.6942 -0.0431 -0.4795
  462MOL0     C62240   8.377  10.117   7.594  0.7202  0.1306  0.0915
  462MOL0     C62241   8.242  10.134   7.593  0.0505 -0.4604  0.0762
  462MOL0     C62242   8.159  10.078   7.689  0.7558 -0.0459  0.2914
  462MOL0     O62243   8.020  10.077   7.689  0.4817 -0.2453  0.1100
  462MOL0     C62244   7.947  10.139   7.585  0.0699 -0.1442  0.2947
  462MOL0     C62245   7.805  10.119   7.630 -0.1200  0.0135 -0.4226
  462MOL0     C62246   7.761   9.972   7.665  0.6789  0.6998  0.1469
  462MOL0     C62247   7.608   9.965   7.709 -1.1508 -0.2865 -0.0553
  462MOL0     C62248   7.517   9.948   7.589  1.0139 -0.1642  0.5224
  462MOL0     C62249   7.423   9.834   7.629  0.8139 -0.0418  0.8848
  462MOL0     C62250   7.321   9.808   7.517  0.4083  0.5238  0.4245
  462MOL0     C62251   7.193   9.730   7.558  1.0221  0.9510  0.5125
  462MOL0     N62252   7.103   9.704   7.436 -0.8807 -0.1617  0.4451
  462MOL0     C62253   7.087   9.583   7.369 -0.5054 -0.1837  1.0851
  462MOL0     C62254   6.994   9.611   7.282  1.2365 -0.4518  0.4009
  462MOL0     C62255   6.934   9.507   7.190  0.8927  0.6981  1.0834
  462MOL0     C62256   6.779   9.503   7.216  0.6975  0.9382 -0.2671
  462MOL0     C62257   6.744   9.434   7.348  0.1677  0.5829  0.7508
  462MOL0     C62258   6.592   9.431   7.366 -0.6799 -0.1996  0.6923
  462MOL0     O62259   6.533   9.368   7.258 -0.3300  0.1912 -0.0953
  462MOL0     C62260   6.395   9.378   7.232 -1.1599  0.4483 -0.9519
  462MOL0     C62261   6.346   9.326   7.119 -0.7159 -0.1170 -0.1179
  462MOL0     C62262   6.205   9.318   7.094  0.3529  0.4051 -0.9003
  462MOL0     C62263   6.158   9.266   6.963  0.0808 -0.8585 -0.0678
  462MOL0     C62264   6.111   9.369   7.196  0.3085  0.2931  0.0722
  462MOL0     C62265   5.959   9.354   7.180 -0.0738 -0.3982  0.0875
  462MOL0     O62266   5.908   9.254   7.108  0.5657 -0.0976 -0.1467
  462MOL0     C62267   5.768   9.255   7.092 -0.1558 -0.5052 -0.3335
  462MOL0     C62268   5.678   9.223   7.199 -0.3232 -0.3787  0.3928
  462MOL0     C62269   5.544   9.221   7.185 -1.2475  0.2060  0.0645
  462MOL0     C62270   5.494   9.239   7.063  0.7741 -0.4212  0.2488
  462MOL0     O62271   5.357   9.240   7.029 -0.2652  0.0713  0.0394
  462MOL0     C62272   5.270   9.196   7.133 -0.0222  0.1300  0.1711
  462MOL0     C62273   5.121   9.216   7.086  0.0465 -0.6053 -1.1566
  462MOL0     C62274   5.024   9.235   7.198 -0.0980 -0.7786 -0.4587
  462MOL0     C62275   4.887   9.293   7.155 -0.1021 -0.5946  0.3690
  462MOL0     C62276   4.812   9.344   7.272 -0.1338 -0.3272  0.5775
  462MOL0     C62277   4.672   9.381   7.252 -0.1915 -0.4828 -0.1831
  462MOL0     C62278   4.616   9.433   7.385 -0.2862  0.2284 -0.0536
  462MOL0     C62279   4.464   9.470   7.374  0.2271 -0.0656 -0.3203
  462MOL0    Cl62280   4.417   9.544   7.527  0.3404 -0.0434 -0.2925
  462MOL0     C62281   5.572   9.262   6.953 -1.0181  0.6757  0.2499
  462MOL0     C62282   5.718   9.270   6.962  0.7602 -0.6707  0.7067
  462MOL0     O62283   5.895   9.452   7.230 -0.2683 -0.0909 -0.3414
  462MOL0     C62284   6.170   9.420   7.312  0.6549  0.0703  0.8951
  462MOL0     C62285   6.310   9.422   7.326  0.1519  0.2823 -0.3289
  462MOL0     N62286   6.967   9.743   7.284  0.4844 -0.2881 -0.7965
  462MOL0     N62287   7.043   9.802   7.374  1.0170  0.3726  1.1377
  462MOL0     C62288   8.222   9.993   7.783 -0.4062 -0.2654  0.6286
  462MOL0     C62289   8.357   9.970   7.787 -0.9881 -0.7070  0.5195
  462MOL0     C62290   8.797   9.998   7.631  0.4204  0.0566  0.6049
  462MOL0     C62291   8.908  10.030   7.547  0.5419 -0.4228  0.1028
  462MOL0     C62292   9.041  10.007   7.592 -0.1453 -0.3008  0.9397
  462MOL0     C62293   9.070   9.973   7.721 -0.2559  0.7050  0.4550
  462MOL0     O62294   9.194   9.945   7.749 -0.4009 -0.4159 -0.3470
  462MOL0     C62295   9.264  10.059   7.799 -1.3174 -0.4842 -0.2274
  462MOL0     C62296   9.409  10.005   7.823 -1.1314 -0.1797 -0.0751
  462MOL0     C62297   9.507  10.120   7.842  0.3436  0.4073 -0.5658
  462MOL0     C62298   9.652  10.081   7.855 -0.0250 -0.2274 -0.5732
  462MOL0     C62299   9.677  10.009   7.976  0.6365  0.1464  0.3274
  462MOL0     C62300   9.694   9.947   8.077  0.1924 -0.3986  0.3310
  462MOL0     C62301   8.955   9.946   7.806  0.1629 -0.0281 -0.4325
  462MOL0     C62302   8.821   9.968   7.763 -1.0131 -0.2287 -0.4964
  462MOL0     H62303   8.451  10.153   7.524  1.3887 -1.0288  0.1825
  462MOL0     H62304   8.205  10.205   7.520 -3.0088 -0.7095  1.2293
  462MOL0     H62305   7.978  10.244   7.580  1.1724 -0.4868 -0.8432
  462MOL0     H62306   7.954  10.091   7.487 -1.4493  1.8522 -0.8596
  462MOL0     H62307   7.793  10.177   7.722  0.7461 -1.5874  0.7256
  462MOL0     H62308   7.727  10.159   7.564 -0.3123 -0.8069 -0.7038
  462MOL0     H62309   7.774   9.906   7.579  0.4992  0.1084  0.5623
  462MOL0     H62310   7.819   9.931   7.749 -0.0921 -4.1310 -1.3594
  462MOL0     H62311   7.611   9.881   7.780  4.4014 -2.9418 -2.7429
  462MOL0     H62312   7.574  10.053   7.764 -2.2961 -0.0462 -1.1082
  462MOL0     H62313   7.462  10.038   7.563 -1.5552 -1.7480  0.1149
  462MOL0     H62314   7.570   9.923   7.496 -2.6298  0.6991 -2.0010
  462MOL0     H62315   7.477   9.748   7.670  2.3652  1.0972  1.3130
  462MOL0     H62316   7.365   9.870   7.715 -0.8775  0.3906 -0.3972
  462MOL0     H62317   7.280   9.905   7.486  0.0122  0.4092  0.5854
  462MOL0     H62318   7.371   9.765   7.430 -1.2109  0.1876 -0.3675
  462MOL0     H62319   7.141   9.761   7.649  0.1937 -1.6986  1.0283
  462MOL0     H62320   7.234   9.636   7.595  0.4319  0.6001  0.3003
  462MOL0     H62321   7.125   9.483   7.387  4.1244  1.1122  0.0007
  462MOL0     H62322   6.940   9.547   7.088 -1.9806  2.0745  1.3410
  462MOL0     H62323   6.984   9.410   7.199  0.2000  0.5248  4.1401
  462MOL0     H62324   6.731   9.447   7.135 -0.5803  1.3408  0.1864
  462MOL0     H62325   6.742   9.605   7.208  0.3838  0.7013 -4.1468
  462MOL0     H62326   6.787   9.493   7.428  0.0482 -0.2777  1.4665
  462MOL0     H62327   6.779   9.330   7.345 -2.9533 -0.5823 -2.3373
  462MOL0     H62328   6.555   9.533   7.381  0.4620  0.7841 -2.4052
  462MOL0     H62329   6.572   9.380   7.461 -1.9529  0.1753  0.6292
  462MOL0     H62330   6.417   9.296   7.042  0.4632  0.0742  0.8735
  462MOL0     H62331   6.239   9.222   6.904 -0.2981 -2.1490  0.3475
  462MOL0     H62332   6.083   9.188   6.978  1.7749 -2.2427  1.6465
  462MOL0     H62333   6.104   9.347   6.913 -2.2716 -1.9812  0.5317
  462MOL0     H62334   5.714   9.181   7.292  0.4867  1.0982  0.7868
  462MOL0     H62335   5.480   9.194   7.269 -0.9552 -1.4629 -0.2102
  462MOL0     H62336   5.275   9.090   7.161 -3.0610  0.4671  2.6455
  462MOL0     H62337   5.274   9.258   7.223 -0.8321  1.5180 -0.7163
  462MOL0     H62338   5.127   9.308   7.027  1.8298 -0.5765 -0.9865
  462MOL0     H62339   5.082   9.133   7.027  0.6909 -1.8432  0.1085
  462MOL0     H62340   5.068   9.305   7.269  0.3273 -0.8683 -0.6294
  462MOL0     H62341   5.016   9.139   7.251 -1.3856  1.4184  3.8290
  462MOL0     H62342   4.894   9.384   7.094 -0.1406 -1.6352 -1.2498
  462MOL0     H62343   4.827   9.231   7.088 -1.7841  2.7527 -1.4822
  462MOL0     H62344   4.861   9.430   7.320  3.1234 -1.2415 -0.7971
  462MOL0     H62345   4.808   9.262   7.345 -0.0993  0.7730  1.8731
  462MOL0     H62346   4.665   9.465   7.182 -0.3090 -0.1244  0.2524
  462MOL0     H62347   4.606   9.305   7.210  0.0381 -0.8101  0.0464
  462MOL0     H62348   4.668   9.521   7.424  0.1967 -0.3432  0.6239
  462MOL0     H62349   4.623   9.358   7.464 -2.9675 -0.9720 -0.8435
  462MOL0     H62350   4.397   9.385   7.360  1.0243 -1.5127  3.4787
  462MOL0     H62351   4.444   9.533   7.287 -2.0207  1.8072  1.4235
  462MOL0     H62352   5.530   9.291   6.858  0.3702 -0.5006 -0.7598
  462MOL0     H62353   5.786   9.302   6.883 -0.7698  1.6231  0.1976
  462MOL0     H62354   6.113   9.461   7.395  0.4825 -0.7152  1.1689
  462MOL0     H62355   6.351   9.458   7.420  1.0787  1.8587 -1.2887
  462MOL0     H62356   8.148   9.944   7.846 -0.8400 -0.1601  0.2049
  462MOL0     H62357   8.399   9.898   7.856  1.5248  2.1219  2.1874
  462MOL0     H62358   8.890  10.062   7.445 -0.4890 -2.7941 -0.5362
  462MOL0     H62359   9.123  10.022   7.522 -1.9878  2.5143 -0.8219
  462MOL0     H62360   9.282  10.138   7.725  4.5333  0.0742  1.2687
  462MOL0     H62361   9.209  10.109   7.879 -0.6283  2.3718 -1.3963
  462MOL0     H62362   9.433   9.958   7.727  0.2921  1.5974 -0.6392
  462MOL0     H62363   9.417   9.936   7.908 -1.0557 -0.0906 -0.0102
  462MOL0     H62364   9.475  10.169   7.935  0.1263 -1.4419  0.3929
  462MOL0     H62365   9.494  10.176   7.749 -0.8223 -0.3331 -0.8772
  462MOL0     H62366   9.709  10.173   7.841 -1.8199  1.0774  0.4349
  462MOL0     H62367   9.687  10.010   7.780  1.1768  0.7889 -1.0081
  462MOL0     H62368   9.709   9.881   8.160 -1.0743  0.7414  1.5249
  462MOL0     H62369   8.974   9.925   7.911  2.7648  1.4902 -0.5030
  462MOL0     H62370   8.745   9.937   7.834  0.6958 -0.3058  1.3731
  463MOL0     O62371   8.072   5.448  10.988 -0.4459 -0.4559  0.5969
  463MOL0     C62372   8.076   5.512  10.880 -1.2362  0.8908  0.0819
  463MOL0     O62373   7.971   5.556  10.814  0.1499  1.1127 -0.8298
  463MOL0     C62374   7.839   5.527  10.846 -0.4186  0.4836  0.4850
  463MOL0     C62375   7.739   5.625  10.828 -0.4191  0.4945 -0.2706
  463MOL0     C62376   7.611   5.602  10.866 -0.3119  0.3517  0.4584
  463MOL0     C62377   7.568   5.479  10.903 -0.4798 -0.5513 -0.3585
  463MOL0     O62378   7.436   5.464  10.931  0.4302 -0.3659  0.2841
  463MOL0     C62379   7.370   5.366  10.856  0.0128 -0.4350  1.0373
  463MOL0     C62380   7.217   5.372  10.863 -0.3609 -0.3747 -0.1296
  463MOL0     C62381   7.165   5.352  11.004  0.8046 -0.4167  0.3692
  463MOL0     C62382   7.013   5.372  10.993 -0.0384 -0.4809 -0.2989
  463MOL0     C62383   6.943   5.385  11.133 -0.0390 -0.2528 -0.2973
  463MOL0     C62384   6.797   5.424  11.125  0.0643 -0.2868  0.3121
  463MOL0     C62385   6.710   5.313  11.088  1.6363  0.3626 -0.2830
  463MOL0     C62386   6.570   5.371  11.045 -0.3641  0.3427 -0.2054
  463MOL0     N62387   6.486   5.274  10.990 -0.1827  0.2676 -0.2896
  463MOL0     C62388   6.391   5.209  11.071 -0.0509  0.3159 -0.2644
  463MOL0     C62389   6.332   5.126  10.978 -0.7774  0.1217 -0.4501
  463MOL0     C62390   6.231   5.020  11.006  0.4428 -0.9151  0.6438
  463MOL0     C62391   6.095   5.077  10.978 -0.2334  0.0030  0.6649
  463MOL0     C62392   6.002   4.958  10.940 -0.0211 -0.1757 -0.5823
  463MOL0     C62393   5.863   5.009  10.891  0.0423 -0.3421 -0.5632
  463MOL0     O62394   5.793   5.083  10.987  0.1928 -0.2709  0.2937
  463MOL0     C62395   5.667   5.119  10.962 -0.5403 -0.9194  0.4139
  463MOL0     C62396   5.617   5.218  11.047  0.0812  1.7676  0.2218
  463MOL0     C62397   5.487   5.253  11.052  0.0595  0.8952 -0.6508
  463MOL0     C62398   5.452   5.342  11.170 -0.0148 -0.5484  0.8994
  463MOL0     C62399   5.408   5.209  10.943  0.3369 -0.0586  0.0037
  463MOL0     C62400   5.264   5.239  10.934 -0.2713  0.2127  0.2216
  463MOL0     O62401   5.183   5.141  10.879 -0.4434 -0.3409 -0.4387
  463MOL0     C62402   5.054   5.142  10.917  0.6024 -0.4340  0.1577
  463MOL0     C62403   5.010   5.212  11.035  0.3150 -0.5393  0.1555
  463MOL0     C62404   4.874   5.224  11.061  0.1070 -0.7927  0.8943
  463MOL0     C62405   4.780   5.163  10.980 -0.1133 -0.8116  0.1500
  463MOL0     O62406   4.645   5.171  11.020 -0.3156 -0.2261 -0.0464
  463MOL0     C62407   4.571   5.049  11.015  0.2592  0.9234 -0.0267
  463MOL0     C62408   4.565   5.006  11.155  0.4612  1.0295 -0.1434
  463MOL0     C62409   4.504   4.860  11.171 -0.0967  0.0337  0.5470
  463MOL0     C62410   4.354   4.840  11.120 -0.0937 -0.9589  1.0365
  463MOL0     C62411   4.327   4.689  11.146 -0.3504  0.6085 -0.1517
  463MOL0     C62412   4.181   4.652  11.115 -0.9037 -0.3372 -0.2004
  463MOL0     C62413   4.155   4.506  11.139  0.2453 -0.0395  0.2842
  463MOL0     C62414   4.246   4.405  11.079  0.1540 -0.0912  0.2141
  463MOL0    Cl62415   4.260   4.419  10.902 -0.4955 -0.7813  0.0868
  463MOL0     C62416   4.819   5.098  10.856  0.3273  0.1756  0.1154
  463MOL0     C62417   4.959   5.094  10.824 -0.0724  0.5821  0.6310
  463MOL0     O62418   5.232   5.351  10.970 -0.0118 -0.5811 -0.0627
  463MOL0     C62419   5.450   5.119  10.847  0.8718 -0.0654  0.5114
  463MOL0     C62420   5.580   5.072  10.859 -0.0024 -0.8239  0.9710
  463MOL0     N62421   6.388   5.151  10.852  0.0065  0.3156 -0.1865
  463MOL0     N62422   6.483   5.239  10.862 -0.2969 -0.1142  0.8709
  463MOL0     C62423   7.669   5.379  10.921  0.2408  0.8012  0.3338
  463MOL0     C62424   7.803   5.400  10.887 -0.2392 -0.1119  0.8373
  463MOL0     C62425   8.208   5.569  10.836 -0.6458  0.6485 -0.0448
  463MOL0     C62426   8.331   5.523  10.883  0.0004 -0.6989 -0.6584
  463MOL0     C62427   8.445   5.598  10.849 -0.3904  0.1967 -0.0532
  463MOL0     C62428   8.445   5.717  10.775 -0.2126  0.3758  0.5102
  463MOL0     O62429   8.553   5.803  10.764 -0.0172  0.0291  0.2764
  463MOL0     C62430   8.676   5.776  10.837  0.6949 -0.8118 -0.3581
  463MOL0     C62431   8.735   5.914  10.856  0.1626 -0.0936 -0.1325
  463MOL0     C62432   8.836   5.920  10.973 -0.2298  0.7734 -0.2913
  463MOL0     C62433   8.971   5.842  10.945  0.7746 -0.1612  0.3125
  463MOL0     C62434   8.954   5.692  10.947  0.6233 -0.4132  0.7033
  463MOL0     C62435   8.935   5.571  10.937 -0.3034  0.2084 -0.3239
  463MOL0     C62436   8.317   5.762  10.731  0.3293  0.3794  0.3481
  463MOL0     C62437   8.207   5.684  10.754  0.1661  0.3117 -0.5052
  463MOL0     H62438   7.772   5.720  10.786 -0.9535  0.1705 -1.4579
  463MOL0     H62439   7.533   5.677  10.858 -0.5614  0.0294 -0.1461
  463MOL0     H62440   7.387   5.385  10.750 -2.9264 -2.5071  0.0813
  463MOL0     H62441   7.403   5.266  10.885  3.8469  0.0456 -0.9993
  463MOL0     H62442   7.189   5.469  10.822  0.1412 -0.3855 -0.5032
  463MOL0     H62443   7.169   5.302  10.794 -2.0474  1.6117 -1.0537
  463MOL0     H62444   7.193   5.258  11.052 -2.3171 -0.2235  2.8451
  463MOL0     H62445   7.217   5.424  11.068 -0.1031 -1.1911  2.0446
  463MOL0     H62446   6.991   5.463  10.936  0.6859  0.3931  0.7497
  463MOL0     H62447   6.972   5.290  10.934 -0.2770 -2.9988  3.0159
  463MOL0     H62448   6.961   5.298  11.197  1.6422  0.3780  0.1443
  463MOL0     H62449   6.973   5.473  11.190 -2.1298  0.7282 -0.5961
  463MOL0     H62450   6.757   5.467  11.217 -0.0618 -1.1397  0.6694
  463MOL0     H62451   6.782   5.503  11.050 -0.4235  0.8576  1.5736
  463MOL0     H62452   6.759   5.266  11.001 -0.1076 -0.8533 -0.6626
  463MOL0     H62453   6.698   5.242  11.170 -2.3435 -0.0154 -1.0083
  463MOL0     H62454   6.586   5.453  10.974 -1.9415  0.4885 -0.4389
  463MOL0     H62455   6.525   5.420  11.132 -2.1102 -1.0552 -0.2614
  463MOL0     H62456   6.373   5.187  11.176 -1.3848  0.0335 -0.5410
  463MOL0     H62457   6.252   4.942  10.932 -5.4364 -0.8468 -1.6890
  463MOL0     H62458   6.233   4.965  11.100  0.9979 -0.0863  1.1317
  463MOL0     H62459   6.109   5.141  10.890  0.6700 -1.6591 -0.4656
  463MOL0     H62460   6.067   5.137  11.065  0.9782  0.0844  1.0159
  463MOL0     H62461   5.981   4.897  11.029  1.1918 -0.8632 -0.7382
  463MOL0     H62462   6.046   4.883  10.874  0.6393 -0.0496 -0.2963
  463MOL0     H62463   5.803   4.922  10.861  0.0063 -0.0676 -1.3026
  463MOL0     H62464   5.884   5.070  10.802 -2.0975  1.1012 -0.1448
  463MOL0     H62465   5.680   5.266  11.121  0.4427  0.9005  0.4907
  463MOL0     H62466   5.516   5.430  11.173  1.4761 -1.5097 -0.7726
  463MOL0     H62467   5.346   5.369  11.171  0.2247  0.4451  0.3679
  463MOL0     H62468   5.468   5.297  11.268  0.4665 -0.3861  0.8942
  463MOL0     H62469   5.083   5.233  11.112  1.2155 -0.9821 -0.5532
  463MOL0     H62470   4.834   5.279  11.145  1.0947  0.2535  0.7064
  463MOL0     H62471   4.467   5.064  10.986 -0.6891 -3.1310  0.7575
  463MOL0     H62472   4.615   4.970  10.954  0.3014 -0.3462  1.5969
  463MOL0     H62473   4.666   4.997  11.198 -0.0419 -1.7280  0.6720
  463MOL0     H62474   4.519   5.093  11.204 -1.1114  1.5476 -2.4065
  463MOL0     H62475   4.504   4.838  11.278 -0.7022 -0.8292  0.3822
  463MOL0     H62476   4.571   4.792  11.117  1.8140  3.2202 -1.4658
  463MOL0     H62477   4.279   4.903  11.169 -2.7200 -2.6213 -0.6036
  463MOL0     H62478   4.342   4.849  11.012  0.3722 -0.5315  1.0195
  463MOL0     H62479   4.348   4.650  11.245  0.4588  0.6061 -0.3131
  463MOL0     H62480   4.389   4.633  11.075 -1.4094 -1.1457  0.2569
  463MOL0     H62481   4.117   4.707  11.186  0.4501 -1.6048  2.1198
  463MOL0     H62482   4.137   4.679  11.019 -1.8386 -0.0486  0.2879
  463MOL0     H62483   4.055   4.482  11.102  0.1118 -0.8096  1.1204
  463MOL0     H62484   4.166   4.483  11.245 -1.6809 -1.2307  0.2693
  463MOL0     H62485   4.219   4.303  11.108  0.5406  0.1800  1.5943
  463MOL0     H62486   4.346   4.418  11.120  0.2352  5.3759 -0.9442
  463MOL0     H62487   4.737   5.044  10.810  0.9277 -1.3612  0.7692
  463MOL0     H62488   4.981   5.063  10.723 -0.9503  5.1030 -1.1474
  463MOL0     H62489   5.386   5.088  10.765  0.5426  0.3621  0.6024
  463MOL0     H62490   5.609   5.002  10.781 -0.8311 -1.5678  1.3091
  463MOL0     H62491   7.632   5.284  10.960  0.9114  0.6357  0.5850
  463MOL0     H62492   7.885   5.329  10.882  0.8557  1.0846  1.0166
  463MOL0     H62493   8.352   5.446  10.956  0.4900  1.1694  1.2604
  463MOL0     H62494   8.535   5.546  10.882  0.5582  0.2569 -2.3645
  463MOL0     H62495   8.660   5.720  10.930 -2.2934 -0.8101 -0.7658
  463MOL0     H62496   8.732   5.715  10.765  2.3097  1.4190 -1.1048
  463MOL0     H62497   8.650   5.982  10.872  0.6361  0.3370  0.6605
  463MOL0     H62498   8.774   5.958  10.763 -2.1788  3.5873  0.3987
  463MOL0     H62499   8.786   5.884  11.064  0.3687 -1.6261 -0.8346
  463MOL0     H62500   8.867   6.022  10.995  1.1142  0.7438 -1.8816
  463MOL0     H62501   9.050   5.864  11.018 -0.6653  3.6770  0.9921
  463MOL0     H62502   9.009   5.872  10.847  0.3460 -0.3109  0.0989
  463MOL0     H62503   8.917   5.471  10.903  0.1536  0.0124  0.0086
  463MOL0     H62504   8.304   5.851  10.670 -1.8090  0.3250  0.6349
  463MOL0     H62505   8.113   5.716  10.711 -0.9990 -3.2693 -0.9114
  464MOL0     O62506   7.723   5.155   1.682  0.3240  0.1308  0.0629
  464MOL0     C62507   7.834   5.104   1.702  0.7042  0.1322  0.9041
  464MOL0     O62508   7.873   4.972   1.665 -0.1553 -0.0617 -0.1143
  464MOL0     C62509   7.776   4.899   1.595  0.4513 -0.1009  0.2961
  464MOL0     C62510   7.755   4.919   1.455 -0.2060 -0.2591  0.1100
  464MOL0     C62511   7.657   4.848   1.380 -0.4949  0.9855  0.0091
  464MOL0     C62512   7.572   4.758   1.450 -0.8325 -0.5703 -0.4494
  464MOL0     O62513   7.465   4.687   1.401 -0.9811 -0.0290 -0.0450
  464MOL0     C62514   7.459   4.673   1.257  0.1761 -0.4134  0.4378
  464MOL0     C62515   7.377   4.544   1.229  0.2550 -0.2993  0.1189
  464MOL0     C62516   7.227   4.566   1.252 -0.3840 -0.1738  0.2966
  464MOL0     C62517   7.140   4.448   1.255 -0.3249 -0.2132  0.2669
  464MOL0     C62518   6.998   4.483   1.309 -0.0733  0.2604 -0.2769
  464MOL0     C62519   6.914   4.357   1.325  0.0250  0.2263  0.0094
  464MOL0     C62520   6.775   4.404   1.356 -0.0973 -0.5434 -0.4518
  464MOL0     C62521   6.668   4.296   1.345  0.0208 -0.2663  0.3951
  464MOL0     N62522   6.546   4.353   1.395 -0.0112  0.7038  0.0308
  464MOL0     C62523   6.470   4.442   1.326 -0.4716  0.9734 -0.0423
  464MOL0     C62524   6.364   4.463   1.412  0.1872 -0.2913  0.3695
  464MOL0     C62525   6.259   4.576   1.405 -0.2652  1.3846  0.9533
  464MOL0     C62526   6.132   4.548   1.479  0.8747 -0.4025  0.7334
  464MOL0     C62527   6.073   4.409   1.456 -0.5574  0.0699 -0.3893
  464MOL0     C62528   5.928   4.402   1.467  0.7413 -0.2850  0.0418
  464MOL0     O62529   5.885   4.448   1.594  0.2085 -0.5969  0.1097
  464MOL0     C62530   5.773   4.516   1.587  0.7393 -0.4736 -0.5345
  464MOL0     C62531   5.646   4.455   1.546  0.4884  0.8205 -0.0735
  464MOL0     C62532   5.524   4.531   1.548  0.6873  0.1692 -0.0152
  464MOL0     C62533   5.397   4.456   1.512  0.0467  0.0433 -0.8502
  464MOL0     C62534   5.530   4.665   1.602  0.1629 -0.0538 -0.0705
  464MOL0     C62535   5.412   4.761   1.610  0.1218 -0.3328  0.3943
  464MOL0     O62536   5.426   4.862   1.695 -0.2911 -0.7375 -0.7239
  464MOL0     C62537   5.324   4.915   1.775  0.1472  0.5388 -0.6775
  464MOL0     C62538   5.195   4.862   1.795  0.1859  0.7476 -0.4663
  464MOL0     C62539   5.105   4.914   1.886  0.1714 -1.0560  0.0706
  464MOL0     C62540   5.142   5.019   1.970  0.0936 -0.1779  0.0813
  464MOL0     O62541   5.065   5.079   2.074 -0.0151 -0.2742  0.2327
  464MOL0     C62542   4.950   5.000   2.102 -0.5225  1.3063  0.0088
  464MOL0     C62543   4.887   5.079   2.212  0.4593  0.1486  0.5041
  464MOL0     C62544   4.786   5.005   2.300 -0.9645  0.2425  0.1034
  464MOL0     C62545   4.654   4.997   2.222  0.9919  0.3670 -0.4921
  464MOL0     C62546   4.546   4.950   2.324 -0.6116 -1.3542 -0.6276
  464MOL0     C62547   4.412   4.953   2.254 -1.2093  0.2823 -0.2879
  464MOL0     C62548   4.304   4.920   2.358  0.3669 -0.0686 -0.0322
  464MOL0     C62549   4.168   4.891   2.292  0.1028  0.1242  0.1151
  464MOL0    Cl62550   4.180   4.718   2.241  0.4164 -0.4435  0.0261
  464MOL0     C62551   5.272   5.068   1.953  0.0801 -0.1478 -0.0778
  464MOL0     C62552   5.363   5.015   1.854  0.4376 -0.0508 -0.3069
  464MOL0     O62553   5.312   4.739   1.543  0.0664  0.3090  0.2583
  464MOL0     C62554   5.654   4.716   1.645  0.2773 -0.4400  0.0974
  464MOL0     C62555   5.773   4.643   1.643 -0.6342 -0.2244 -0.3484
  464MOL0     N62556   6.382   4.391   1.533  0.1958 -0.2261  0.9814
  464MOL0     N62557   6.490   4.323   1.514 -0.1533 -0.3506 -0.6090
  464MOL0     C62558   7.582   4.762   1.586 -0.5637 -0.9468 -0.1545
  464MOL0     C62559   7.687   4.818   1.664 -0.0566  0.7698 -0.0469
  464MOL0     C62560   7.924   5.182   1.791 -0.0425  0.2884  0.6617
  464MOL0     C62561   7.903   5.310   1.844  1.1177 -0.1888 -0.2685
  464MOL0     C62562   8.011   5.383   1.887  0.3621 -0.2531  0.2528
  464MOL0     C62563   8.151   5.338   1.880  0.4489 -0.1744 -0.1127
  464MOL0     O62564   8.256   5.409   1.912 -0.4091  0.2252 -0.2616
  464MOL0     C62565   8.243   5.546   1.934  0.2489 -0.0192 -0.0161
  464MOL0     C62566   8.361   5.630   1.964  0.4081 -0.0648 -0.3250
  464MOL0     C62567   8.466   5.594   1.858  1.1079  0.0487  0.3016
  464MOL0     C62568   8.594   5.677   1.888 -0.0812  0.8543  0.1042
  464MOL0     C62569   8.709   5.627   1.809  0.4787  0.1202  0.2319
  464MOL0     C62570   8.808   5.581   1.754 -0.1229  1.3680 -1.0990
  464MOL0     C62571   8.172   5.211   1.832 -0.5690  0.1433  0.9977
  464MOL0     C62572   8.061   5.133   1.788 -0.0387  0.2994 -0.5543
  464MOL0     H62573   7.817   4.996   1.411 -1.4277  1.3240  1.0866
  464MOL0     H62574   7.651   4.861   1.273  0.7293  1.2121 -0.0446
  464MOL0     H62575   7.412   4.752   1.199 -0.9384 -1.2815  0.1230
  464MOL0     H62576   7.562   4.649   1.229  0.7790 -0.2664  2.4053
  464MOL0     H62577   7.386   4.517   1.123 -2.7809 -2.1242  0.2149
  464MOL0     H62578   7.420   4.461   1.285  1.8165  1.1393  1.1543
  464MOL0     H62579   7.227   4.612   1.351  3.2509 -3.1760  1.9298
  464MOL0     H62580   7.188   4.642   1.184  0.3857 -0.8802 -0.9918
  464MOL0     H62581   7.141   4.392   1.161 -0.3311 -1.6256  1.0691
  464MOL0     H62582   7.192   4.380   1.324 -0.8392 -1.7970 -0.8415
  464MOL0     H62583   7.005   4.531   1.407 -1.3625 -3.3056  1.7181
  464MOL0     H62584   6.964   4.554   1.232 -2.0677 -0.8067 -0.4454
  464MOL0     H62585   6.933   4.295   1.237  0.8620  0.8540 -0.2740
  464MOL0     H62586   6.947   4.298   1.411 -0.7241 -3.6697 -2.1407
  464MOL0     H62587   6.771   4.455   1.453  0.0937  2.3062 -1.8408
  464MOL0     H62588   6.750   4.493   1.298 -0.7269 -0.4013  0.0274
  464MOL0     H62589   6.691   4.209   1.407  0.4019  0.4170  1.2286
  464MOL0     H62590   6.657   4.262   1.241  0.2710  0.2026  0.2130
  464MOL0     H62591   6.479   4.482   1.225  0.0356  0.4095 -0.2278
  464MOL0     H62592   6.301   4.667   1.448 -0.9439  2.5099 -0.6585
  464MOL0     H62593   6.245   4.591   1.298  3.1534 -1.6771 -0.1380
  464MOL0     H62594   6.052   4.618   1.452  0.7344 -0.9489 -0.3074
  464MOL0     H62595   6.152   4.569   1.584 -0.0156  0.5636  0.7285
  464MOL0     H62596   6.112   4.334   1.524  1.2301  0.6312 -0.7320
  464MOL0     H62597   6.092   4.371   1.355 -0.8827  3.0826 -1.6987
  464MOL0     H62598   5.906   4.296   1.453  0.1879  0.3141 -6.8153
  464MOL0     H62599   5.897   4.465   1.383 -0.5890  1.2421  1.6075
  464MOL0     H62600   5.635   4.349   1.524  0.2802  0.5487  1.2402
  464MOL0     H62601   5.381   4.468   1.404 -1.4353  4.8826 -0.3192
  464MOL0     H62602   5.406   4.359   1.563  2.0696  1.2936  1.3534
  464MOL0     H62603   5.306   4.497   1.556  1.1825  0.0205  1.6567
  464MOL0     H62604   5.152   4.777   1.742 -2.0139 -0.6207  3.1227
  464MOL0     H62605   5.001   4.883   1.892 -0.0842 -0.0484  1.2718
  464MOL0     H62606   4.874   4.990   2.024 -2.1491  1.9625  1.4298
  464MOL0     H62607   4.973   4.899   2.137 -1.6447  0.1771 -2.2955
  464MOL0     H62608   4.971   5.112   2.274  3.1608 -4.0647 -0.4690
  464MOL0     H62609   4.843   5.170   2.170 -1.7677 -0.3447  1.5912
  464MOL0     H62610   4.773   5.058   2.395  3.6664 -1.3012  1.8474
  464MOL0     H62611   4.836   4.912   2.330 -1.1831 -0.3652 -1.3657
  464MOL0     H62612   4.637   5.098   2.183 -0.7547  0.0958 -0.5276
  464MOL0     H62613   4.658   4.932   2.134 -1.5744 -0.3249 -0.1813
  464MOL0     H62614   4.537   5.025   2.404 -1.5902 -0.8555 -1.1797
  464MOL0     H62615   4.567   4.855   2.374  0.6314 -0.7594  0.0328
  464MOL0     H62616   4.392   5.050   2.207  1.2620  1.1052  0.2092
  464MOL0     H62617   4.408   4.880   2.172 -0.1724  1.0400 -1.0372
  464MOL0     H62618   4.294   5.002   2.430  0.1401 -0.2756  0.1736
  464MOL0     H62619   4.335   4.830   2.412 -0.4504  1.0105  2.3616
  464MOL0     H62620   4.148   4.947   2.200 -1.0366 -0.0910  0.2182
  464MOL0     H62621   4.080   4.899   2.356 -0.7586 -1.0022 -0.8693
  464MOL0     H62622   5.309   5.148   2.017 -0.4175 -2.2080  3.0061
  464MOL0     H62623   5.461   5.061   1.848 -0.1229  2.1940  3.8627
  464MOL0     H62624   5.664   4.820   1.674 -2.1530  0.9532 -3.3740
  464MOL0     H62625   5.854   4.699   1.687 -2.2851  2.6749 -0.7406
  464MOL0     H62626   7.497   4.718   1.636  0.4077 -1.2374  1.3129
  464MOL0     H62627   7.680   4.805   1.771  0.2791 -0.4458 -0.1625
  464MOL0     H62628   7.804   5.352   1.848  1.2338  0.0100  1.3501
  464MOL0     H62629   7.985   5.485   1.916  1.8746  1.0263 -2.4483
  464MOL0     H62630   8.199   5.592   1.844  0.2212 -1.3943 -0.7210
  464MOL0     H62631   8.180   5.560   2.022  0.7065  0.5557  0.2255
  464MOL0     H62632   8.392   5.607   2.066 -0.9259  0.1651  0.1512
  464MOL0     H62633   8.326   5.733   1.953  1.9511  0.4775 -0.3149
  464MOL0     H62634   8.431   5.611   1.756  0.5173 -3.0907 -0.1240
  464MOL0     H62635   8.486   5.487   1.858  2.6036  0.2803 -1.6352
  464MOL0     H62636   8.620   5.669   1.994 -0.7445 -2.0712  0.1406
  464MOL0     H62637   8.582   5.782   1.862 -0.3954  1.5744  2.9264
  464MOL0     H62638   8.900   5.546   1.713 -0.1137  1.5574 -1.2433
  464MOL0     H62639   8.275   5.176   1.831 -0.5003  0.3375  1.1863
  464MOL0     H62640   8.089   5.045   1.731  1.7901  0.5294 -0.1020
  465MOL0     O62641   3.398   0.847   8.403  0.0178 -0.6247  0.7076
  465MOL0     C62642   3.470   0.744   8.384  0.0689 -0.7587 -0.6086
  465MOL0     O62643   3.424   0.617   8.413  0.3786 -0.3704  0.0404
  465MOL0     C62644   3.292   0.585   8.403 -0.1413 -0.1195 -0.5941
  465MOL0     C62645   3.251   0.459   8.444 -0.6502 -0.3506  0.3640
  465MOL0     C62646   3.124   0.411   8.435 -0.4425 -0.7121 -0.5282
  465MOL0     C62647   3.018   0.491   8.374 -0.2305  0.4771  0.4350
  465MOL0     O62648   2.897   0.433   8.361  0.4658 -0.8335 -0.3950
  465MOL0     C62649   2.780   0.521   8.330  0.4871  0.0353  0.0986
  465MOL0     C62650   2.645   0.448   8.375  0.0882  0.2260  0.3886
  465MOL0     C62651   2.524   0.485   8.299  0.0912 -0.1524 -0.2553
  465MOL0     C62652   2.533   0.474   8.142 -1.0411  0.3723 -0.3176
  465MOL0     C62653   2.394   0.497   8.076  0.2064  0.0826  0.4086
  465MOL0     C62654   2.354   0.646   8.067  0.4641  0.1983  0.5449
  465MOL0     C62655   2.233   0.680   7.980 -0.0895 -0.2339 -0.5201
  465MOL0     C62656   2.189   0.830   7.994  0.4583 -0.0430  0.2360
  465MOL0     N62657   2.295   0.928   7.972  0.0424  0.0733 -0.3243
  465MOL0     C62658   2.353   1.001   8.076  0.2492 -0.2129 -0.1328
  465MOL0     C62659   2.448   1.074   8.016 -0.7537 -0.1505 -0.6454
  465MOL0     C62660   2.548   1.152   8.092  0.3567  0.1953  0.2057
  465MOL0     C62661   2.481   1.267   8.166  0.0395 -0.1567 -0.0554
  465MOL0     C62662   2.402   1.373   8.079 -0.0161 -1.0753 -0.0582
  465MOL0     C62663   2.483   1.428   7.957  0.4858 -0.0584 -0.0781
  465MOL0     O62664   2.423   1.545   7.896 -0.0803 -0.2060  0.2943
  465MOL0     C62665   2.294   1.537   7.853 -1.3729 -0.4577  0.4267
  465MOL0     C62666   2.241   1.424   7.786  0.1289  0.7482 -0.0660
  465MOL0     C62667   2.109   1.417   7.752 -0.1770 -0.3011  1.3422
  465MOL0     C62668   2.081   1.303   7.658 -0.8215  0.2447 -0.0883
  465MOL0     C62669   2.022   1.505   7.798  0.1093  0.0789 -0.3505
  465MOL0     C62670   1.876   1.509   7.762  0.0871  0.0414 -1.3840
  465MOL0     O62671   1.849   1.508   7.634  0.2533  0.4057 -0.1878
  465MOL0     C62672   1.718   1.494   7.596  0.0786 -0.3383 -0.2596
  465MOL0     C62673   1.642   1.609   7.561 -0.0599 -0.2285 -0.0594
  465MOL0     C62674   1.504   1.602   7.514  0.4890 -0.5422 -0.7286
  465MOL0     C62675   1.444   1.476   7.510 -0.8895 -0.0558  0.1196
  465MOL0     O62676   1.317   1.471   7.454 -0.3729  0.5500 -0.4742
  465MOL0     C62677   1.236   1.368   7.495  1.1084 -0.5404  0.1437
  465MOL0     C62678   1.079   1.397   7.469 -0.5206 -0.3782 -0.2077
  465MOL0     C62679   1.027   1.515   7.535 -0.3953  0.3120 -0.7385
  465MOL0     C62680   0.888   1.562   7.480  0.3715  0.3833 -0.1026
  465MOL0     C62681   0.817   1.659   7.570 -0.0591 -0.1365  0.5641
  465MOL0     C62682   0.681   1.700   7.506 -0.6289 -0.0081  0.5802
  465MOL0     C62683   0.588   1.578   7.509 -0.1089 -0.8329  0.1868
  465MOL0     C62684   0.442   1.622   7.502 -0.1884 -0.0187  1.0686
  465MOL0    Cl62685   0.329   1.488   7.458 -0.0362 -0.1939 -0.3764
  465MOL0     C62686   1.518   1.367   7.550  0.3376 -0.0014 -0.5053
  465MOL0     C62687   1.654   1.368   7.596  0.6765  0.3418  0.7217
  465MOL0     O62688   1.793   1.518   7.854  0.3937 -0.3204  0.1181
  465MOL0     C62689   2.069   1.618   7.877  0.4368 -0.0676  0.5867
  465MOL0     C62690   2.205   1.631   7.899  0.1001 -0.2855  0.2579
  465MOL0     N62691   2.449   1.048   7.880 -0.1657  0.0744 -0.4549
  465MOL0     N62692   2.353   0.967   7.854 -0.7979 -0.1949  0.5584
  465MOL0     C62693   3.054   0.624   8.344 -0.1842  0.6580  0.1407
  465MOL0     C62694   3.188   0.662   8.354  0.3069 -0.1144 -0.0387
  465MOL0     C62695   3.607   0.771   8.349 -0.4391 -0.0478 -1.4333
  465MOL0     C62696   3.708   0.677   8.364 -0.0193 -0.1237 -0.3895
  465MOL0     C62697   3.840   0.715   8.357 -0.3038 -0.1265  0.4217
  465MOL0     C62698   3.879   0.852   8.351 -0.5138  0.2162  0.0554
  465MOL0     O62699   4.007   0.888   8.379  0.1427 -1.0784  0.5472
  465MOL0     C62700   4.100   0.797   8.435 -0.1733 -1.0292 -0.6149
  465MOL0     C62701   4.228   0.871   8.483  0.0077 -0.2202 -0.0537
  465MOL0     C62702   4.198   1.010   8.553  0.6994  0.1266  0.4735
  465MOL0     C62703   4.337   1.072   8.597  0.3312 -0.5779 -0.2647
  465MOL0     C62704   4.314   1.221   8.586  0.2682  0.7778 -0.8377
  465MOL0     C62705   4.305   1.337   8.593  0.2655 -0.4187 -0.1376
  465MOL0     C62706   3.783   0.942   8.325 -0.4365  0.0383  0.4542
  465MOL0     C62707   3.651   0.907   8.331  0.5729  0.3242 -0.0564
  465MOL0     H62708   3.325   0.389   8.482  3.6409  3.0825 -0.8119
  465MOL0     H62709   3.104   0.307   8.459  2.7023 -1.3440 -0.2941
  465MOL0     H62710   2.790   0.614   8.387 -0.0283 -0.0214  0.2872
  465MOL0     H62711   2.784   0.543   8.223  0.6589 -2.1093 -0.3691
  465MOL0     H62712   2.663   0.341   8.362 -2.8588 -0.3864  0.7423
  465MOL0     H62713   2.622   0.466   8.481 -0.8914 -0.1740  0.2519
  465MOL0     H62714   2.434   0.427   8.322 -0.2159  0.3086 -0.2841
  465MOL0     H62715   2.507   0.589   8.328 -1.8931 -0.5191  0.0315
  465MOL0     H62716   2.608   0.543   8.103  0.7427 -0.6854  1.0629
  465MOL0     H62717   2.567   0.376   8.107  0.4822  1.4220 -1.9746
  465MOL0     H62718   2.413   0.457   7.976 -0.0688 -2.3558  1.2848
  465MOL0     H62719   2.326   0.441   8.140 -2.1229  4.8028  2.6332
  465MOL0     H62720   2.338   0.679   8.170  1.1218  0.2913  0.6216
  465MOL0     H62721   2.435   0.710   8.032 -1.2984  2.2830  0.0901
  465MOL0     H62722   2.271   0.668   7.879 -0.3640 -2.3150 -0.4078
  465MOL0     H62723   2.147   0.613   7.989 -1.4454  1.6567  2.9344
  465MOL0     H62724   2.148   0.841   8.095 -2.4845  1.9376 -1.0403
  465MOL0     H62725   2.106   0.861   7.930  0.8822 -0.0803 -0.3452
  465MOL0     H62726   2.327   0.999   8.182 -0.0853  4.0105  0.0652
  465MOL0     H62727   2.600   1.094   8.169 -2.5981 -0.1463  2.1075
  465MOL0     H62728   2.623   1.194   8.025  0.4482 -2.1108 -1.2530
  465MOL0     H62729   2.560   1.321   8.220  1.2917 -0.1527 -1.8191
  465MOL0     H62730   2.418   1.220   8.243  2.7830  0.6926  2.9625
  465MOL0     H62731   2.374   1.462   8.137  0.4174 -0.8235 -0.2290
  465MOL0     H62732   2.309   1.328   8.042  0.5023 -0.3042 -2.5048
  465MOL0     H62733   2.493   1.340   7.893 -1.9701 -0.8027  0.4707
  465MOL0     H62734   2.580   1.462   7.994  0.6244  1.9365 -2.0604
  465MOL0     H62735   2.313   1.352   7.750  0.6949  2.2325 -2.1313
  465MOL0     H62736   2.144   1.221   7.693 -0.9718  1.3665  3.1750
  465MOL0     H62737   1.976   1.275   7.662 -0.2857 -1.7774  0.7754
  465MOL0     H62738   2.113   1.333   7.557  1.4302 -1.4937  0.0413
  465MOL0     H62739   1.687   1.705   7.586  2.4464 -0.8051 -2.0306
  465MOL0     H62740   1.441   1.678   7.468 -0.4612 -1.7858 -1.5151
  465MOL0     H62741   1.264   1.274   7.447  0.9988 -1.4323  1.7207
  465MOL0     H62742   1.242   1.365   7.605  1.6511  0.3150  0.1452
  465MOL0     H62743   1.057   1.400   7.362 -0.8015 -3.3494 -0.3030
  465MOL0     H62744   1.030   1.306   7.504 -1.6598  0.4677  0.4709
  465MOL0     H62745   1.100   1.597   7.534  1.2409 -1.0248  1.1973
  465MOL0     H62746   1.021   1.488   7.641  1.0278  0.2414 -0.6533
  465MOL0     H62747   0.900   1.610   7.382 -0.0537  2.3120  0.7442
  465MOL0     H62748   0.827   1.472   7.464 -0.3043  0.5467  1.4585
  465MOL0     H62749   0.888   1.739   7.593 -1.3546  0.4617  2.7381
  465MOL0     H62750   0.802   1.613   7.668 -0.9436 -0.5743  0.2393
  465MOL0     H62751   0.647   1.787   7.562 -0.9383  0.4199 -0.2460
  465MOL0     H62752   0.704   1.734   7.404 -2.3294 -0.7517 -0.0870
  465MOL0     H62753   0.606   1.522   7.601 -1.6665 -2.1322 -0.2471
  465MOL0     H62754   0.601   1.509   7.425 -0.3561  1.3366 -1.7391
  465MOL0     H62755   0.428   1.706   7.433 -0.9127 -1.1933 -0.2574
  465MOL0     H62756   0.413   1.652   7.603 -0.5285  1.3484  0.5868
  465MOL0     H62757   1.470   1.270   7.539  0.0832  0.2263 -1.5809
  465MOL0     H62758   1.704   1.280   7.635 -0.4427 -1.3197 -1.3926
  465MOL0     H62759   2.005   1.692   7.924  1.1758  1.9103 -1.3315
  465MOL0     H62760   2.234   1.713   7.964 -2.2118 -0.2189  1.3303
  465MOL0     H62761   2.988   0.701   8.304 -1.0172  0.6333  1.4146
  465MOL0     H62762   3.196   0.768   8.328 -0.3119 -0.2583 -0.8438
  465MOL0     H62763   3.685   0.574   8.390  1.1873 -0.7213 -1.5292
  465MOL0     H62764   3.911   0.634   8.369 -0.6958 -0.4501  0.5596
  465MOL0     H62765   4.053   0.755   8.524 -0.0501  0.9629  0.4570
  465MOL0     H62766   4.124   0.709   8.375 -0.5246 -1.3263 -0.3235
  465MOL0     H62767   4.302   0.874   8.403 -0.6776 -1.4995 -0.7840
  465MOL0     H62768   4.271   0.805   8.558 -0.2205 -0.1396  0.1494
  465MOL0     H62769   4.139   0.978   8.640 -0.4320 -0.8737 -0.6311
  465MOL0     H62770   4.146   1.071   8.480 -0.3905  1.3581  2.1976
  465MOL0     H62771   4.421   1.046   8.532  0.3728 -1.1861  0.0190
  465MOL0     H62772   4.373   1.049   8.698  2.2421  2.6755 -0.0690
  465MOL0     H62773   4.291   1.442   8.611 -1.7084 -0.4812 -1.0790
  465MOL0     H62774   3.815   1.045   8.315 -0.6458 -0.0408 -1.3984
  465MOL0     H62775   3.570   0.979   8.336 -0.2424 -0.6103  0.9125
  466MOL0     O62776   5.987   1.847   7.216  0.2038 -0.0896 -0.0758
  466MOL0     C62777   6.054   1.746   7.191  0.4883  0.3914  0.2711
  466MOL0     O62778   6.010   1.631   7.137 -0.3776  0.0710 -0.4332
  466MOL0     C62779   5.891   1.625   7.068  0.3141 -0.6662 -0.1874
  466MOL0     C62780   5.875   1.623   6.927  0.4719 -0.7016  0.1819
  466MOL0     C62781   5.749   1.630   6.865  0.2108 -0.3210  0.3208
  466MOL0     C62782   5.634   1.623   6.940  0.1662  0.1621  0.2202
  466MOL0     O62783   5.514   1.622   6.870  0.8329 -0.1386  0.2026
  466MOL0     C62784   5.406   1.692   6.931  0.6426  0.7247  0.4246
  466MOL0     C62785   5.321   1.718   6.808  0.4149 -0.4052  1.0012
  466MOL0     C62786   5.240   1.595   6.753 -0.2697  0.4292  0.3979
  466MOL0     C62787   5.137   1.627   6.646 -0.3356  0.0037  0.5169
  466MOL0     C62788   5.015   1.705   6.689  0.5921 -0.5047  0.0962
  466MOL0     C62789   4.941   1.643   6.813  0.6611  0.6921 -0.2473
  466MOL0     C62790   4.805   1.711   6.831  0.3923 -0.1759 -0.8027
  466MOL0     C62791   4.766   1.739   6.985 -0.1552 -0.2614  0.3607
  466MOL0     N62792   4.625   1.754   7.020 -0.6416 -0.4545 -0.0695
  466MOL0     C62793   4.555   1.645   7.052 -0.2429 -0.6198  0.0998
  466MOL0     C62794   4.448   1.687   7.119  0.4907 -0.3022  0.7599
  466MOL0     C62795   4.349   1.592   7.187 -0.0897  0.6309 -0.0339
  466MOL0     C62796   4.224   1.657   7.244  0.3874 -0.8456  0.0911
  466MOL0     C62797   4.111   1.578   7.294 -0.0974 -0.9753 -0.3808
  466MOL0     C62798   4.147   1.509   7.425 -0.2507  0.6938  0.1485
  466MOL0     O62799   4.030   1.438   7.483  0.6703 -0.0037 -0.2246
  466MOL0     C62800   3.954   1.494   7.583 -0.2212  0.1329  0.1375
  466MOL0     C62801   4.004   1.534   7.707 -0.2566 -0.5223  0.4598
  466MOL0     C62802   3.924   1.584   7.816  0.9809  0.1337  0.2305
  466MOL0     C62803   3.986   1.654   7.932 -1.1977 -0.2486  0.3818
  466MOL0     C62804   3.777   1.585   7.801  0.2713 -0.4929 -0.1986
  466MOL0     C62805   3.680   1.623   7.904 -0.6306  0.3528  0.2701
  466MOL0     O62806   3.559   1.681   7.860 -0.3117 -0.1989 -0.0518
  466MOL0     C62807   3.478   1.723   7.959 -0.0159  0.4736 -0.1552
  466MOL0     C62808   3.357   1.651   7.978  0.3972 -0.0032 -0.3164
  466MOL0     C62809   3.260   1.701   8.064  0.5903  0.7212  0.1650
  466MOL0     C62810   3.283   1.812   8.146 -0.4029 -0.4962 -0.2752
  466MOL0     O62811   3.193   1.870   8.235 -0.3823  0.0971  0.0572
  466MOL0     C62812   3.056   1.826   8.231 -0.4921  0.0224  0.3614
  466MOL0     C62813   2.966   1.919   8.313 -0.5341 -0.1862  0.3099
  466MOL0     C62814   2.945   2.053   8.247  0.3055 -0.2028 -0.6585
  466MOL0     C62815   2.823   2.133   8.309 -0.6696  0.2612  0.0649
  466MOL0     C62816   2.806   2.260   8.222  0.3750  0.1817 -0.3196
  466MOL0     C62817   2.704   2.368   8.272 -0.1000 -0.4083 -0.7925
  466MOL0     C62818   2.725   2.423   8.413 -0.5291  0.5578 -0.0255
  466MOL0     C62819   2.662   2.551   8.430 -0.4214 -1.1231 -0.1962
  466MOL0    Cl62820   2.713   2.621   8.589  0.1828  0.6708  0.3549
  466MOL0     C62821   3.411   1.866   8.147  0.0096 -0.4434  0.8670
  466MOL0     C62822   3.503   1.825   8.045 -0.5582  0.4286 -1.5446
  466MOL0     O62823   3.703   1.584   8.018  0.7397 -0.5193  0.5327
  466MOL0     C62824   3.729   1.542   7.669  0.4038  0.2438 -0.6829
  466MOL0     C62825   3.813   1.505   7.566 -0.0112 -0.7340 -0.0720
  466MOL0     N62826   4.451   1.826   7.123  0.2977 -0.2353 -0.2044
  466MOL0     N62827   4.567   1.871   7.071  0.4318 -0.1356  0.2048
  466MOL0     C62828   5.642   1.622   7.082 -0.0535 -0.3054  0.2616
  466MOL0     C62829   5.768   1.635   7.138  0.3184 -0.1514 -0.4354
  466MOL0     C62830   6.196   1.751   7.231  0.4292 -0.9904 -0.5729
  466MOL0     C62831   6.267   1.635   7.218 -0.3290  0.4820 -0.6242
  466MOL0     C62832   6.399   1.641   7.271  0.0723  0.4402 -1.2078
  466MOL0     C62833   6.460   1.752   7.336  0.9788  0.7822 -0.7831
  466MOL0     O62834   6.588   1.750   7.394  0.0336 -0.0552  0.0232
  466MOL0     C62835   6.627   1.848   7.482 -0.2857  0.0250  0.1925
  466MOL0     C62836   6.761   1.821   7.543 -0.4467  0.0585  0.0943
  466MOL0     C62837   6.856   1.823   7.428 -0.2369 -0.3861  0.5944
  466MOL0     C62838   6.999   1.794   7.471  1.6563  0.3711  0.8136
  466MOL0     C62839   7.038   1.903   7.553 -0.6585  0.0607 -0.4045
  466MOL0     C62840   7.092   1.978   7.631 -0.2073  0.5728  0.3838
  466MOL0     C62841   6.373   1.858   7.347  0.2231 -0.3730  0.7623
  466MOL0     C62842   6.247   1.871   7.294  0.2140  0.3148 -0.1103
  466MOL0     H62843   5.967   1.624   6.870  0.0285  1.7759 -0.6061
  466MOL0     H62844   5.759   1.610   6.759  1.1463 -0.7166  0.4755
  466MOL0     H62845   5.344   1.642   7.006 -1.0166  0.8041 -0.8345
  466MOL0     H62846   5.446   1.782   6.979  1.0749  0.2633  0.9350
  466MOL0     H62847   5.252   1.801   6.828 -1.6789 -1.1207 -2.5050
  466MOL0     H62848   5.386   1.741   6.723  0.6986  0.3882  1.4218
  466MOL0     H62849   5.308   1.518   6.715 -0.6979 -1.5769  3.3864
  466MOL0     H62850   5.184   1.553   6.836 -1.6593  1.2985 -0.0676
  466MOL0     H62851   5.185   1.682   6.565  0.1939 -0.4481  0.5192
  466MOL0     H62852   5.104   1.530   6.606 -0.7395  0.4907 -0.3599
  466MOL0     H62853   5.043   1.809   6.710 -1.6489 -0.0818  1.3139
  466MOL0     H62854   4.943   1.722   6.609  1.0893  0.7817 -0.1091
  466MOL0     H62855   4.926   1.538   6.786 -0.3743  0.4458  1.1886
  466MOL0     H62856   5.002   1.649   6.903  0.2843  2.2434 -0.0728
  466MOL0     H62857   4.801   1.803   6.772  3.4497 -1.0350 -2.5719
  466MOL0     H62858   4.728   1.650   6.782  0.6054  1.3722 -3.2553
  466MOL0     H62859   4.824   1.826   7.017  0.6554 -1.0033  0.9640
  466MOL0     H62860   4.790   1.649   7.042  0.5839 -1.3229 -1.5071
  466MOL0     H62861   4.572   1.538   7.050  1.4622 -0.4096  1.3169
  466MOL0     H62862   4.326   1.514   7.115  1.2033 -0.5344  0.7702
  466MOL0     H62863   4.404   1.540   7.266 -1.1257 -0.6576 -0.1266
  466MOL0     H62864   4.170   1.706   7.162 -2.3164 -0.4948  1.9402
  466MOL0     H62865   4.260   1.735   7.312  0.4852 -0.3942 -0.4625
  466MOL0     H62866   4.079   1.503   7.221 -0.3137 -0.3551 -0.9305
  466MOL0     H62867   4.029   1.647   7.318  0.0783 -0.5081 -1.0980
  466MOL0     H62868   4.192   1.575   7.499  0.1528  1.4597 -0.7504
  466MOL0     H62869   4.223   1.432   7.406 -0.9573  0.2044 -0.7945
  466MOL0     H62870   4.112   1.537   7.719 -0.1374  0.5808 -0.7119
  466MOL0     H62871   3.972   1.595   8.023 -0.3021 -0.9120  0.0983
  466MOL0     H62872   4.094   1.671   7.926 -1.0183 -1.7687 -1.6707
  466MOL0     H62873   3.937   1.750   7.955 -1.2630 -0.0666 -0.4986
  466MOL0     H62874   3.342   1.570   7.907  0.4302  1.2662 -1.8425
  466MOL0     H62875   3.174   1.636   8.071  2.1453 -1.4111  0.4886
  466MOL0     H62876   3.020   1.840   8.128 -0.8091  4.0780  0.8790
  466MOL0     H62877   3.046   1.727   8.276 -0.0017  0.1381  0.7266
  466MOL0     H62878   2.867   1.873   8.319 -0.3678 -0.4490  1.1561
  466MOL0     H62879   3.003   1.928   8.416  0.4054 -1.5309  0.1209
  466MOL0     H62880   2.932   2.059   8.138  1.2822  3.6965 -0.6861
  466MOL0     H62881   3.042   2.102   8.252  1.1031 -1.8272  0.8497
  466MOL0     H62882   2.735   2.071   8.326 -0.2152 -0.6027 -0.6500
  466MOL0     H62883   2.853   2.169   8.408 -1.2948  2.2468 -0.4260
  466MOL0     H62884   2.762   2.220   8.130  0.4951 -3.1863  0.9526
  466MOL0     H62885   2.899   2.314   8.206 -0.1961  0.8408 -1.5537
  466MOL0     H62886   2.712   2.460   8.212 -1.0092 -0.5964 -1.2115
  466MOL0     H62887   2.605   2.322   8.278  0.4261 -1.3687  2.6654
  466MOL0     H62888   2.831   2.416   8.442 -0.1897 -0.8861 -1.4935
  466MOL0     H62889   2.668   2.363   8.485  0.0415 -1.3545 -1.1016
  466MOL0     H62890   2.553   2.558   8.437 -0.2737  3.9197  0.8429
  466MOL0     H62891   2.694   2.620   8.351  0.1672 -0.1961  0.8071
  466MOL0     H62892   3.416   1.954   8.210 -1.3976 -0.1476  0.5912
  466MOL0     H62893   3.593   1.885   8.035  0.0292 -0.2887 -0.7077
  466MOL0     H62894   3.623   1.530   7.650 -0.2416  1.2874  1.8214
  466MOL0     H62895   3.784   1.463   7.471 -1.2965 -1.9195  0.8107
  466MOL0     H62896   5.562   1.636   7.154  1.9135  3.9461  2.0034
  466MOL0     H62897   5.764   1.654   7.245  1.4198 -1.4568 -0.1399
  466MOL0     H62898   6.235   1.546   7.165  1.1929 -0.6094  0.2281
  466MOL0     H62899   6.457   1.550   7.256 -0.9472 -0.3670 -0.4383
  466MOL0     H62900   6.627   1.949   7.439  3.8701 -0.0130 -0.2777
  466MOL0     H62901   6.550   1.849   7.560 -0.9212  0.7226 -0.4273
  466MOL0     H62902   6.765   1.729   7.603  4.8776 -0.0703  0.0262
  466MOL0     H62903   6.781   1.902   7.613 -2.4233 -0.9815  1.9758
  466MOL0     H62904   6.853   1.914   7.368 -1.4423  0.1302  1.3914
  466MOL0     H62905   6.834   1.743   7.356 -0.4933 -0.4040  0.6905
  466MOL0     H62906   7.069   1.788   7.387  0.7515 -0.2796  0.0888
  466MOL0     H62907   7.003   1.702   7.530  0.1375 -0.8394 -0.8576
  466MOL0     H62908   7.142   2.021   7.715  1.9056 -0.7475 -0.1406
  466MOL0     H62909   6.412   1.945   7.398  0.8858  0.8990 -1.7597
  466MOL0     H62910   6.195   1.966   7.304 -0.0383  0.1816 -0.1402
  467MOL0     O62911   4.441   7.798   5.180 -0.2998 -0.6332  0.2425
  467MOL0     C62912   4.470   7.822   5.058  0.5466  0.2457  0.8446
  467MOL0     O62913   4.380   7.851   4.958 -0.1935 -0.9270 -0.4255
  467MOL0     C62914   4.240   7.872   4.988 -0.9472 -0.8260 -0.7049
  467MOL0     C62915   4.192   7.985   4.927  0.4342 -0.7402 -0.0068
  467MOL0     C62916   4.063   8.031   4.959  1.2322  0.0522 -0.2845
  467MOL0     C62917   3.978   7.953   5.038 -0.1706  0.1339 -0.0383
  467MOL0     O62918   3.850   7.984   5.070 -0.4507 -0.4897 -0.0570
  467MOL0     C62919   3.759   7.990   4.958  0.9786  0.3281  0.1990
  467MOL0     C62920   3.632   8.063   5.007 -0.3843 -0.3225 -0.7626
  467MOL0     C62921   3.535   7.980   5.098 -0.5228 -0.8016 -0.0013
  467MOL0     C62922   3.416   8.063   5.131  0.4017  1.0137 -0.9165
  467MOL0     C62923   3.328   7.970   5.217  0.8000 -0.4993 -0.6693
  467MOL0     C62924   3.215   8.039   5.298 -0.3944  0.4857  0.2182
  467MOL0     C62925   3.121   7.942   5.366  0.1016  0.9086 -0.2262
  467MOL0     C62926   2.998   8.017   5.439 -0.2508  0.0327 -0.4974
  467MOL0     N62927   2.885   7.930   5.464 -0.7646 -0.3105  0.6579
  467MOL0     C62928   2.842   7.902   5.590  0.0410  0.4125  0.0858
  467MOL0     C62929   2.737   7.823   5.576  0.2395  0.3400 -0.5114
  467MOL0     C62930   2.643   7.771   5.692 -0.4894 -0.7486  0.0795
  467MOL0     C62931   2.641   7.619   5.693 -0.3288  0.3006  0.5070
  467MOL0     C62932   2.549   7.554   5.795  0.6724 -0.0474  0.0049
  467MOL0     C62933   2.403   7.576   5.772  0.5941 -1.1478  0.2666
  467MOL0     O62934   2.354   7.516   5.654 -0.3018  0.0761 -0.3411
  467MOL0     C62935   2.218   7.511   5.629 -0.7137  0.6505 -0.7603
  467MOL0     C62936   2.184   7.426   5.525 -0.0706 -1.0362  0.4661
  467MOL0     C62937   2.052   7.414   5.488  0.7523 -0.0344 -0.5891
  467MOL0     C62938   2.033   7.322   5.365 -0.2802 -0.2747  0.0769
  467MOL0     C62939   1.950   7.455   5.581 -1.0330  0.3456 -0.1793
  467MOL0     C62940   1.808   7.428   5.562  0.6690  0.2199  0.3835
  467MOL0     O62941   1.772   7.349   5.452  0.1893 -0.6347 -0.0680
  467MOL0     C62942   1.642   7.347   5.411 -0.4199  0.0275  0.1042
  467MOL0     C62943   1.641   7.328   5.272  0.4749  0.2963  0.1353
  467MOL0     C62944   1.520   7.319   5.201  0.1500 -0.2310 -0.6467
  467MOL0     C62945   1.395   7.344   5.273  0.4924  0.2782  0.6098
  467MOL0     O62946   1.269   7.339   5.215 -0.1669 -0.0339  0.0520
  467MOL0     C62947   1.252   7.353   5.074  0.1076 -0.4707  0.9648
  467MOL0     C62948   1.110   7.387   5.042  1.0463  0.0698 -0.1711
  467MOL0     C62949   1.038   7.310   4.931 -0.2757 -0.2695 -0.6067
  467MOL0     C62950   0.970   7.185   4.975 -0.9660 -0.2947 -0.7962
  467MOL0     C62951   0.876   7.140   4.861 -0.3339 -0.6742 -0.5907
  467MOL0     C62952   0.751   7.072   4.922  0.4308 -0.1437  0.1225
  467MOL0     C62953   0.631   7.070   4.828 -0.8263  0.1134  0.4744
  467MOL0     C62954   0.522   6.990   4.873 -0.3130 -0.6381  0.2558
  467MOL0    Cl62955   0.378   7.000   4.770 -0.4859 -0.2990 -0.5935
  467MOL0     C62956   1.399   7.368   5.410  0.4404 -0.1941 -0.4853
  467MOL0     C62957   1.519   7.373   5.483  0.4351  1.4134  0.7639
  467MOL0     O62958   1.730   7.488   5.635  0.4032 -0.6291 -0.0080
  467MOL0     C62959   1.985   7.536   5.690 -0.1901 -0.4139 -0.3310
  467MOL0     C62960   2.121   7.568   5.714  0.3379  0.2967  0.2691
  467MOL0     N62961   2.709   7.800   5.444 -0.2784  0.2863 -0.2645
  467MOL0     N62962   2.799   7.864   5.370  0.9380 -0.1084 -0.4077
  467MOL0     C62963   4.029   7.835   5.096 -0.4470  0.0998 -0.2522
  467MOL0     C62964   4.156   7.793   5.064 -0.5691 -0.0486  0.0741
  467MOL0     C62965   4.614   7.811   5.013 -0.0368 -0.1879 -0.0870
  467MOL0     C62966   4.646   7.803   4.880 -0.2908 -0.5377  1.2525
  467MOL0     C62967   4.772   7.801   4.833 -0.3690 -0.1099  0.3058
  467MOL0     C62968   4.873   7.802   4.927  0.7964 -0.2200 -0.5024
  467MOL0     O62969   5.005   7.809   4.905 -0.6459 -0.2211  0.3136
  467MOL0     C62970   5.048   7.838   4.764 -0.4162 -0.0511 -0.6934
  467MOL0     C62971   5.024   7.985   4.734  0.3643 -0.4257  0.1075
  467MOL0     C62972   5.127   8.061   4.831 -0.1758  0.0025 -0.6478
  467MOL0     C62973   5.103   8.211   4.835  0.0755  0.3436  0.2057
  467MOL0     C62974   4.986   8.251   4.912 -0.2889 -0.2328 -0.1596
  467MOL0     C62975   4.893   8.288   4.982  0.3145  0.6681  0.0329
  467MOL0     C62976   4.848   7.805   5.066  0.5074 -0.3270  0.1942
  467MOL0     C62977   4.715   7.820   5.112 -0.7345 -0.9347  0.4410
  467MOL0     H62978   4.250   8.058   4.872  1.9307  0.2166  2.6710
  467MOL0     H62979   4.009   8.115   4.916 -0.7683 -1.8813 -1.7796
  467MOL0     H62980   3.805   8.050   4.879  1.9342  0.5716  0.9262
  467MOL0     H62981   3.735   7.893   4.913 -0.2381  0.9220 -0.4988
  467MOL0     H62982   3.658   8.156   5.058 -3.3427  0.0861  0.2311
  467MOL0     H62983   3.562   8.099   4.931 -0.0769  1.4507 -0.2497
  467MOL0     H62984   3.509   7.887   5.046 -2.7878 -0.4843  0.4723
  467MOL0     H62985   3.583   7.960   5.194  0.2064  1.0093  0.0426
  467MOL0     H62986   3.442   8.149   5.194 -2.0806 -0.9244  3.1610
  467MOL0     H62987   3.364   8.090   5.039 -0.3644  2.1485 -0.1763
  467MOL0     H62988   3.276   7.896   5.156  0.2215 -2.4080  1.9526
  467MOL0     H62989   3.383   7.902   5.282 -0.9497  0.1237  1.5980
  467MOL0     H62990   3.260   8.103   5.375  1.4667  1.3145 -1.4642
  467MOL0     H62991   3.157   8.095   5.224 -1.4124 -0.5889  0.1850
  467MOL0     H62992   3.077   7.872   5.294  1.3193 -2.8373  2.3615
  467MOL0     H62993   3.167   7.874   5.438  0.0344  1.2200  0.1112
  467MOL0     H62994   2.957   8.097   5.378 -0.3359  0.2120 -0.2058
  467MOL0     H62995   3.032   8.070   5.529 -1.4909  1.1211 -0.6408
  467MOL0     H62996   2.887   7.928   5.685 -0.4051 -2.0977  1.0605
  467MOL0     H62997   2.658   7.816   5.790 -0.3364  2.7121 -1.3739
  467MOL0     H62998   2.547   7.810   5.656  0.1112  0.1095 -0.6299
  467MOL0     H62999   2.744   7.597   5.721  0.0167 -0.1475 -1.0202
  467MOL0     H63000   2.622   7.590   5.589 -0.4671  1.5371  0.1703
  467MOL0     H63001   2.579   7.603   5.888  0.2999 -1.3689  0.8459
  467MOL0     H63002   2.564   7.447   5.809 -0.8280 -0.0271  2.3466
  467MOL0     H63003   2.389   7.680   5.739  0.1759 -1.3886 -0.3319
  467MOL0     H63004   2.337   7.560   5.857 -1.4865 -2.0106 -1.4051
  467MOL0     H63005   2.258   7.382   5.459 -0.1147 -0.0446 -0.2582
  467MOL0     H63006   1.988   7.230   5.403  0.1923 -1.1242 -1.3402
  467MOL0     H63007   1.968   7.376   5.295 -1.7293  1.7226  2.7549
  467MOL0     H63008   2.127   7.306   5.311  0.1969  2.3803 -0.0407
  467MOL0     H63009   1.740   7.320   5.231 -0.2132  0.1608 -1.5565
  467MOL0     H63010   1.512   7.288   5.097  0.7182 -2.7034 -0.0146
  467MOL0     H63011   1.319   7.430   5.035 -0.6805 -0.6856 -0.9122
  467MOL0     H63012   1.272   7.256   5.027 -0.6099 -0.2919  0.2632
  467MOL0     H63013   1.043   7.381   5.129  0.2249 -2.3192 -0.8854
  467MOL0     H63014   1.115   7.493   5.017  0.1703  0.1921  0.1168
  467MOL0     H63015   1.111   7.287   4.853 -0.2659 -2.2998 -0.0329
  467MOL0     H63016   0.954   7.372   4.897 -0.3676  0.1327  0.3112
  467MOL0     H63017   1.038   7.106   5.008  0.7473  0.6683 -1.9065
  467MOL0     H63018   0.903   7.217   5.056 -2.6885  1.3788 -2.7387
  467MOL0     H63019   0.927   7.072   4.792 -0.4698 -1.0039 -0.3670
  467MOL0     H63020   0.846   7.226   4.800  0.9524  0.5191  0.4007
  467MOL0     H63021   0.780   6.972   4.955  1.0626  0.4871  1.5856
  467MOL0     H63022   0.726   7.113   5.021  0.8387 -1.1171  0.6387
  467MOL0     H63023   0.671   7.027   4.736  0.2094  0.0138  0.9635
  467MOL0     H63024   0.590   7.172   4.827  0.7917  0.9366  3.8174
  467MOL0     H63025   0.501   7.008   4.979 -0.4895  1.0976 -0.0514
  467MOL0     H63026   0.546   6.884   4.859  0.0291 -0.2714 -2.5442
  467MOL0     H63027   1.307   7.395   5.463  0.1614  1.4074 -1.7008
  467MOL0     H63028   1.526   7.393   5.589  0.7542 -1.7766  1.4626
  467MOL0     H63029   1.912   7.579   5.758 -1.5645 -1.6526 -0.9535
  467MOL0     H63030   2.140   7.634   5.798  0.8262 -1.2235  1.3978
  467MOL0     H63031   3.977   7.775   5.170  0.2895  0.2686  0.4191
  467MOL0     H63032   4.201   7.706   5.113  2.0374  0.1309 -1.7915
  467MOL0     H63033   4.567   7.809   4.806  0.9122  3.1576  0.0502
  467MOL0     H63034   4.795   7.800   4.726 -4.3235 -0.0090 -0.7098
  467MOL0     H63035   5.155   7.820   4.747 -0.3519  1.0547 -1.5868
  467MOL0     H63036   4.989   7.778   4.693 -3.0087 -1.4386  2.3755
  467MOL0     H63037   4.922   8.018   4.757 -0.2388  0.4877 -3.2684
  467MOL0     H63038   5.058   8.002   4.632  0.2801 -1.0843 -0.0332
  467MOL0     H63039   5.231   8.037   4.806 -0.6547 -2.7717 -0.2391
  467MOL0     H63040   5.116   8.021   4.932 -1.2944 -1.1707 -1.2148
  467MOL0     H63041   5.086   8.247   4.733  0.0784  1.3123  0.5384
  467MOL0     H63042   5.194   8.267   4.859  0.0705  0.7100 -0.5959
  467MOL0     H63043   4.808   8.311   5.043 -0.1004  0.8351 -0.5903
  467MOL0     H63044   4.938   7.809   5.125 -0.5516 -3.2048  2.2474
  467MOL0     H63045   4.700   7.837   5.218  2.6484  3.4473  0.5049
  468MOL0     O63046   8.244   2.512  10.682  0.3076 -0.0207 -0.2530
  468MOL0     C63047   8.329   2.464  10.615 -0.0417 -0.4917 -0.4414
  468MOL0     O63048   8.337   2.333  10.565 -0.2463  0.0793 -0.3888
  468MOL0     C63049   8.220   2.263  10.574 -0.3706 -0.7146  0.1287
  468MOL0     C63050   8.221   2.154  10.656  0.3947  0.2449 -0.5062
  468MOL0     C63051   8.100   2.084  10.691  0.0181  0.0374  0.3489
  468MOL0     C63052   7.977   2.129  10.632 -0.1774 -1.0626  0.8040
  468MOL0     O63053   7.851   2.076  10.635 -0.1831  0.0163 -0.6864
  468MOL0     C63054   7.816   1.991  10.744 -0.3689 -0.7675  0.0638
  468MOL0     C63055   7.668   2.006  10.791 -0.0937  0.3666  0.7130
  468MOL0     C63056   7.571   1.926  10.690  1.1909  0.9930  0.6372
  468MOL0     C63057   7.518   2.013  10.584 -0.2681 -0.0232 -0.2072
  468MOL0     C63058   7.419   1.945  10.492  1.2646 -0.2424  0.4704
  468MOL0     C63059   7.288   1.905  10.561 -0.2375 -0.9831  0.2250
  468MOL0     C63060   7.184   1.845  10.463  0.3732 -0.8004  1.1143
  468MOL0     C63061   7.065   1.805  10.550 -0.3011  0.2061  0.0203
  468MOL0     N63062   6.979   1.713  10.478  0.0076 -0.5895  0.1425
  468MOL0     C63063   7.014   1.598  10.415  0.3355 -0.2548  0.0362
  468MOL0     C63064   6.898   1.539  10.387 -0.3815 -0.3301 -0.4643
  468MOL0     C63065   6.887   1.399  10.338 -0.4179 -0.1192  0.6029
  468MOL0     C63066   6.900   1.394  10.180  0.1008  0.1237 -0.3066
  468MOL0     C63067   6.801   1.483  10.099  0.0508 -0.5938  0.2166
  468MOL0     C63068   6.819   1.474   9.951  0.0990  0.0048  0.3031
  468MOL0     O63069   6.748   1.358   9.890 -0.3311 -0.4357 -0.4429
  468MOL0     C63070   6.614   1.358   9.866 -0.3515 -0.2010  0.0362
  468MOL0     C63071   6.557   1.260   9.789 -0.5360  0.2747  0.9516
  468MOL0     C63072   6.424   1.255   9.741 -0.2983  0.1881 -0.7449
  468MOL0     C63073   6.376   1.135   9.660  0.4428  0.0702  1.3144
  468MOL0     C63074   6.335   1.362   9.786 -0.7905 -1.3192 -0.0053
  468MOL0     C63075   6.190   1.385   9.747 -0.4987  0.5169  0.9658
  468MOL0     O63076   6.125   1.476   9.820  0.1525  0.0718  1.0279
  468MOL0     C63077   5.990   1.497   9.798  0.4631  0.9007  0.8025
  468MOL0     C63078   5.947   1.613   9.725  0.8355  0.2587  0.1537
  468MOL0     C63079   5.811   1.619   9.689 -0.4191 -0.5325  0.3816
  468MOL0     C63080   5.718   1.540   9.747 -0.7751  0.6125  0.0479
  468MOL0     O63081   5.586   1.529   9.717 -0.2660 -0.2794 -0.0055
  468MOL0     C63082   5.512   1.638   9.663  0.2520 -0.1086 -0.0526
  468MOL0     C63083   5.367   1.592   9.628  0.0259  0.6382 -0.4202
  468MOL0     C63084   5.325   1.572   9.477 -0.5934 -0.3049  0.5655
  468MOL0     C63085   5.193   1.503   9.457  0.4460 -0.7311  0.0066
  468MOL0     C63086   5.126   1.541   9.326 -0.4933  0.1819  0.5235
  468MOL0     C63087   5.014   1.440   9.288  0.0479 -0.6032 -0.1285
  468MOL0     C63088   4.932   1.471   9.159  0.3863 -0.2971  0.5638
  468MOL0     C63089   4.825   1.363   9.128 -0.2195  0.5585  0.4155
  468MOL0    Cl63090   4.702   1.354   9.259 -0.1783  0.3316  0.3868
  468MOL0     C63091   5.766   1.438   9.835 -0.2965 -0.1568  0.1108
  468MOL0     C63092   5.902   1.401   9.849 -0.1780 -0.2403  0.0357
  468MOL0     O63093   6.135   1.306   9.668 -0.7760 -0.3392  0.1169
  468MOL0     C63094   6.393   1.467   9.868  0.7077  0.0357 -0.1023
  468MOL0     C63095   6.527   1.461   9.901 -0.1565 -0.6145 -0.6304
  468MOL0     N63096   6.792   1.620  10.430  0.4604 -0.3561 -0.3975
  468MOL0     N63097   6.844   1.726  10.488 -0.2979 -0.2090 -0.9446
  468MOL0     C63098   7.989   2.245  10.552 -0.4469  0.2753 -0.0779
  468MOL0     C63099   8.108   2.304  10.514 -0.3912 -0.2965  0.3476
  468MOL0     C63100   8.436   2.551  10.580 -0.3869  0.1445 -0.4690
  468MOL0     C63101   8.554   2.492  10.531 -0.6885 -0.5043  0.1098
  468MOL0     C63102   8.669   2.574  10.523 -0.2598 -0.4740  0.1754
  468MOL0     C63103   8.674   2.712  10.532  0.4942  0.1616  0.2335
  468MOL0     O63104   8.786   2.790  10.510 -0.2543  0.3342 -0.3743
  468MOL0     C63105   8.895   2.731  10.443 -0.4881  0.0423 -1.0565
  468MOL0     C63106   8.850   2.717  10.296  0.2766  0.3493 -0.6103
  468MOL0     C63107   8.955   2.644  10.221  0.0978 -0.1867  0.1595
  468MOL0     C63108   8.939   2.638  10.071  0.4117 -0.2981  0.4522
  468MOL0     C63109   8.811   2.571  10.031  0.1749  0.0366 -0.6146
  468MOL0     C63110   8.702   2.532   9.993 -0.3093  0.0941 -0.2558
  468MOL0     C63111   8.551   2.766  10.567 -0.6535  0.1541 -0.1982
  468MOL0     C63112   8.439   2.688  10.583  0.7181 -0.5565 -0.6525
  468MOL0     H63113   8.310   2.120  10.709 -0.3010 -1.8857 -0.6014
  468MOL0     H63114   8.100   2.001  10.761  2.0963 -2.3444 -2.2270
  468MOL0     H63115   7.839   1.887  10.719  0.8046 -0.8332  1.2798
  468MOL0     H63116   7.878   2.028  10.827  1.3741 -0.3429 -1.3687
  468MOL0     H63117   7.654   1.952  10.885  2.6027 -4.3005 -1.1696
  468MOL0     H63118   7.643   2.112  10.796  0.4420  0.7319 -2.1441
  468MOL0     H63119   7.618   1.842  10.639 -3.2926 -1.0086 -0.7183
  468MOL0     H63120   7.486   1.879  10.741  1.0186  0.5154 -0.0780
  468MOL0     H63121   7.471   2.095  10.639 -1.3824 -0.7645 -0.0039
  468MOL0     H63122   7.605   2.050  10.530  0.0825 -0.8198 -0.1988
  468MOL0     H63123   7.401   2.025  10.419  2.3210 -0.8907 -0.5274
  468MOL0     H63124   7.453   1.867  10.423 -0.2552  0.1053 -0.7279
  468MOL0     H63125   7.321   1.832  10.635  3.6607 -0.9030 -1.2092
  468MOL0     H63126   7.253   1.992  10.617  1.1884 -0.7096  0.7457
  468MOL0     H63127   7.150   1.915  10.386 -2.6457 -1.3324  1.7994
  468MOL0     H63128   7.233   1.767  10.404  2.1603  1.0541  0.0332
  468MOL0     H63129   7.007   1.891  10.583 -0.3137 -0.2132  1.1346
  468MOL0     H63130   7.089   1.760  10.646  0.6631  2.2278  0.7753
  468MOL0     H63131   7.116   1.561  10.407  0.5333  0.6113 -4.3540
  468MOL0     H63132   6.965   1.340  10.388 -1.0550 -2.8893 -1.3968
  468MOL0     H63133   6.789   1.359  10.365 -1.7564  0.3271 -2.9832
  468MOL0     H63134   6.891   1.292  10.141 -0.9887 -0.5516  1.5478
  468MOL0     H63135   7.002   1.429  10.165  0.3359  0.9518  2.5847
  468MOL0     H63136   6.809   1.587  10.133  1.0426  0.0228 -1.7324
  468MOL0     H63137   6.701   1.463  10.137 -0.2896 -2.1293 -1.3805
  468MOL0     H63138   6.927   1.469   9.935  0.7788  0.8794  3.8220
  468MOL0     H63139   6.776   1.569   9.919  3.0651  0.3488 -3.3988
  468MOL0     H63140   6.630   1.183   9.767 -1.1043 -0.6263  2.1439
  468MOL0     H63141   6.449   1.054   9.676 -0.7602 -1.0106  1.5237
  468MOL0     H63142   6.279   1.100   9.696  0.7324 -2.3447  0.0004
  468MOL0     H63143   6.366   1.161   9.554  2.0982  0.4794  1.2285
  468MOL0     H63144   6.020   1.688   9.697 -2.0867  3.1563 -0.2712
  468MOL0     H63145   5.790   1.696   9.615  1.4401 -0.6686 -0.3448
  468MOL0     H63146   5.514   1.718   9.737 -0.9298  0.3919 -0.5280
  468MOL0     H63147   5.564   1.681   9.577 -0.9981  2.5875  0.4278
  468MOL0     H63148   5.346   1.507   9.693  4.5912  1.4958  2.7052
  468MOL0     H63149   5.308   1.682   9.651 -0.6865 -0.4298  2.2319
  468MOL0     H63150   5.405   1.519   9.425 -1.2982  0.9482 -1.9525
  468MOL0     H63151   5.320   1.666   9.421  0.0538  0.5200  1.8258
  468MOL0     H63152   5.221   1.397   9.464  3.5243  0.1067  1.5744
  468MOL0     H63153   5.130   1.520   9.545  0.6978 -1.3639  0.3141
  468MOL0     H63154   5.201   1.539   9.246 -0.2188  1.5886  0.7187
  468MOL0     H63155   5.085   1.642   9.337  0.3372  0.5444  0.3863
  468MOL0     H63156   5.060   1.341   9.283  2.4689  0.3126  2.1180
  468MOL0     H63157   4.947   1.440   9.374  2.8742  0.7869  2.2564
  468MOL0     H63158   5.001   1.477   9.075 -0.1930  1.6219  0.1651
  468MOL0     H63159   4.870   1.561   9.169 -0.7506 -1.2202  2.6370
  468MOL0     H63160   4.875   1.265   9.126 -3.4933 -1.2635 -0.8485
  468MOL0     H63161   4.762   1.375   9.039  0.0490  0.5469  0.2229
  468MOL0     H63162   5.688   1.382   9.887  0.4437 -1.7757 -0.4623
  468MOL0     H63163   5.945   1.315   9.897 -0.7925 -0.1476  0.7784
  468MOL0     H63164   6.343   1.558   9.898 -1.7825 -1.3156  0.1327
  468MOL0     H63165   6.564   1.539   9.967  0.5147 -1.6060  0.2095
  468MOL0     H63166   7.908   2.290  10.497 -0.2275 -1.4124 -1.8817
  468MOL0     H63167   8.100   2.393  10.452 -2.6462 -0.9397 -0.4062
  468MOL0     H63168   8.574   2.386  10.518  1.1941 -0.1584 -0.0766
  468MOL0     H63169   8.758   2.518  10.495 -0.9863 -1.1591 -0.8840
  468MOL0     H63170   8.986   2.789  10.463  0.3024 -1.5313  0.1578
  468MOL0     H63171   8.915   2.630  10.480 -0.4663  0.5114  0.2569
  468MOL0     H63172   8.835   2.813  10.245  0.8520  0.8927  0.2007
  468MOL0     H63173   8.759   2.657  10.290  0.3433 -0.0952  1.8868
  468MOL0     H63174   8.977   2.546  10.265  3.3939 -0.6771 -2.1712
  468MOL0     H63175   9.042   2.709  10.232  1.3388 -1.1095 -2.9550
  468MOL0     H63176   9.025   2.581  10.035 -0.5756 -1.9643  0.6106
  468MOL0     H63177   8.934   2.733  10.017  0.0150 -0.1023  0.8262
  468MOL0     H63178   8.609   2.491   9.960 -0.7579  0.6478  0.2741
  468MOL0     H63179   8.547   2.873  10.582 -2.4387 -0.0923  1.4039
  468MOL0     H63180   8.351   2.744  10.613  0.4629 -1.5040  0.4368
  469MOL0     O63181   8.735   2.213   7.660 -0.6645  0.1414  0.0681
  469MOL0     C63182   8.786   2.212   7.547  0.9817 -0.0640  0.5217
  469MOL0     O63183   8.713   2.184   7.436 -0.0419 -0.6093  0.7137
  469MOL0     C63184   8.589   2.122   7.443 -0.6580  0.6473  0.6390
  469MOL0     C63185   8.498   2.152   7.342 -0.3675 -0.1981 -0.0038
  469MOL0     C63186   8.361   2.114   7.346 -0.4480 -0.3582  0.1473
  469MOL0     C63187   8.316   2.022   7.438 -0.3620  0.4576  0.0505
  469MOL0     O63188   8.186   1.986   7.435  0.7843  0.3043 -0.2712
  469MOL0     C63189   8.133   1.955   7.565 -0.2679  0.1212 -0.4457
  469MOL0     C63190   7.986   1.913   7.553  0.6523  0.0191 -0.1007
  469MOL0     C63191   7.901   2.026   7.493  0.3823  0.1439  0.6327
  469MOL0     C63192   7.750   2.000   7.524 -0.1568  0.1177  0.3591
  469MOL0     C63193   7.696   1.872   7.447  0.0517  0.2332  0.5856
  469MOL0     C63194   7.557   1.829   7.465  0.7473 -0.0942  0.3924
  469MOL0     C63195   7.495   1.732   7.359  0.2254  0.7668 -0.9041
  469MOL0     C63196   7.347   1.752   7.337  0.0664 -0.7301  0.3605
  469MOL0     N63197   7.288   1.686   7.216 -0.1485 -0.3879 -0.7703
  469MOL0     C63198   7.223   1.564   7.210  0.1656  0.4066  0.8773
  469MOL0     C63199   7.171   1.556   7.086  0.2549  0.1176 -0.4869
  469MOL0     C63200   7.096   1.443   7.017 -0.8051 -0.1501  0.4208
  469MOL0     C63201   6.963   1.481   6.946 -0.4882  0.0748 -0.6070
  469MOL0     C63202   6.988   1.586   6.833  0.5992 -0.0373 -0.4094
  469MOL0     C63203   6.864   1.588   6.741 -0.8837  0.1288 -0.2322
  469MOL0     O63204   6.752   1.624   6.815  0.5269  0.5523  0.1826
  469MOL0     C63205   6.635   1.625   6.751 -0.0106 -0.1633 -0.1824
  469MOL0     C63206   6.517   1.649   6.835  0.3123 -0.3481 -0.0549
  469MOL0     C63207   6.388   1.667   6.778  0.1416  0.0976 -0.1082
  469MOL0     C63208   6.285   1.708   6.872 -0.0387 -0.0908  0.0345
  469MOL0     C63209   6.373   1.645   6.630 -0.3176  0.5816 -0.4878
  469MOL0     C63210   6.237   1.661   6.561  0.2646  0.1035  0.4007
  469MOL0     O63211   6.135   1.703   6.638 -0.0711 -0.5746 -0.6496
  469MOL0     C63212   6.016   1.707   6.575 -0.5083  0.1538 -0.5580
  469MOL0     C63213   5.985   1.832   6.516  0.3551 -0.8361 -0.5055
  469MOL0     C63214   5.879   1.850   6.427 -0.0268 -1.1600 -0.7083
  469MOL0     C63215   5.782   1.759   6.417 -0.4413  0.6817  0.3224
  469MOL0     O63216   5.680   1.781   6.326 -0.1445 -0.3870 -0.2022
  469MOL0     C63217   5.600   1.664   6.295  0.7666  0.2062  0.0250
  469MOL0     C63218   5.485   1.707   6.205  0.8492  0.2846 -0.3173
  469MOL0     C63219   5.369   1.755   6.294  0.3777  0.1969 -0.3826
  469MOL0     C63220   5.257   1.842   6.229  0.4459 -0.7275 -0.3057
  469MOL0     C63221   5.170   1.766   6.118  0.9543  0.1213 -0.6637
  469MOL0     C63222   5.082   1.874   6.058  1.0117  0.2637 -0.0303
  469MOL0     C63223   4.975   1.815   5.966 -0.7753  0.6265 -0.5077
  469MOL0     C63224   4.902   1.931   5.892 -0.1059  0.6010  0.3154
  469MOL0    Cl63225   5.014   2.025   5.789 -0.1471  0.0922 -0.6801
  469MOL0     C63226   5.807   1.641   6.486  0.3781  0.4024  0.0648
  469MOL0     C63227   5.916   1.608   6.562  0.1567 -0.6434 -0.1987
  469MOL0     O63228   6.235   1.635   6.441 -0.2103  0.4632  0.2374
  469MOL0     C63229   6.491   1.612   6.555  0.0480  0.8297 -0.0721
  469MOL0     C63230   6.620   1.595   6.613 -0.2591 -0.2892 -0.1734
  469MOL0     N63231   7.209   1.668   7.022  0.1212 -0.0354 -0.0688
  469MOL0     N63232   7.284   1.736   7.093  0.0776  0.1851  0.5701
  469MOL0     C63233   8.411   1.981   7.529 -0.0163  1.1123 -0.7605
  469MOL0     C63234   8.535   2.034   7.544 -0.3497  0.0948  0.5228
  469MOL0     C63235   8.918   2.271   7.532  0.3621  0.0423  0.0416
  469MOL0     C63236   8.955   2.308   7.397 -0.3017 -0.2621 -0.4247
  469MOL0     C63237   9.084   2.345   7.386 -0.2847 -0.1469  0.0137
  469MOL0     C63238   9.177   2.350   7.489 -0.0762  0.7900  0.0885
  469MOL0     O63239   9.303   2.393   7.449  0.0295 -0.0410  0.0883
  469MOL0     C63240   9.412   2.362   7.536 -0.2339  0.0671  0.1993
  469MOL0     C63241   9.545   2.392   7.476 -0.5095  0.8045 -0.6202
  469MOL0     C63242   9.658   2.346   7.565  0.3791 -0.2702  0.0368
  469MOL0     C63243   9.789   2.399   7.513 -0.4541 -0.8437 -0.3967
  469MOL0     C63244   9.814   2.336   7.374 -0.0750 -0.6954 -0.7537
  469MOL0     C63245   9.838   2.285   7.264  0.3363  0.1290  0.5426
  469MOL0     C63246   9.137   2.332   7.620 -0.1472 -0.3197 -0.2340
  469MOL0     C63247   9.006   2.292   7.637  0.6473  0.5838  0.1802
  469MOL0     H63248   8.535   2.225   7.270 -1.8471  1.8648  1.2190
  469MOL0     H63249   8.299   2.162   7.270  3.2691  1.2677 -2.1143
  469MOL0     H63250   8.182   1.868   7.610 -2.4327 -1.6017 -1.1997
  469MOL0     H63251   8.146   2.033   7.640  2.4539  0.3254 -1.0354
  469MOL0     H63252   7.965   1.831   7.483 -3.3690  2.5933 -2.2250
  469MOL0     H63253   7.956   1.892   7.656 -0.5801  0.7405 -0.3006
  469MOL0     H63254   7.931   2.119   7.541 -1.2659  1.6383 -1.0766
  469MOL0     H63255   7.923   2.031   7.386 -0.3333 -0.5531  0.4438
  469MOL0     H63256   7.737   1.985   7.632  0.6396  2.1758  0.7920
  469MOL0     H63257   7.685   2.084   7.501  1.1758  1.6436  1.8830
  469MOL0     H63258   7.721   1.896   7.343 -1.1906 -3.2116 -0.6396
  469MOL0     H63259   7.755   1.788   7.483  1.9331  0.4053 -1.8160
  469MOL0     H63260   7.546   1.779   7.562 -0.3264 -0.3666  0.1514
  469MOL0     H63261   7.492   1.917   7.457  0.5375 -0.2012  0.8762
  469MOL0     H63262   7.539   1.754   7.261 -1.2864  0.4918 -1.6815
  469MOL0     H63263   7.516   1.628   7.386  0.1909  0.8597 -0.5193
  469MOL0     H63264   7.327   1.860   7.332  0.0689 -0.6410  1.7177
  469MOL0     H63265   7.309   1.707   7.429  0.3085  0.6437  1.1761
  469MOL0     H63266   7.215   1.484   7.284 -1.0402  0.2852  0.6303
  469MOL0     H63267   7.158   1.392   6.942 -2.3778  1.4438 -2.1020
  469MOL0     H63268   7.075   1.381   7.105  5.9286 -2.2006  1.1519
  469MOL0     H63269   6.897   1.515   7.026  1.1953  1.1549  0.3908
  469MOL0     H63270   6.925   1.389   6.900  3.0066 -1.1793 -1.2943
  469MOL0     H63271   7.071   1.550   6.771 -2.4525 -2.5593 -3.3874
  469MOL0     H63272   7.008   1.685   6.876  0.9927  0.2749 -1.2659
  469MOL0     H63273   6.853   1.486   6.703 -0.7997 -0.7452  1.9013
  469MOL0     H63274   6.879   1.659   6.659  0.2843  0.5112  0.2794
  469MOL0     H63275   6.519   1.676   6.940 -0.4374  1.6434 -0.5040
  469MOL0     H63276   6.199   1.640   6.881  0.6227 -0.7552  1.6167
  469MOL0     H63277   6.324   1.712   6.974 -0.1527  0.7745  0.0552
  469MOL0     H63278   6.261   1.810   6.840  2.7186  1.2549  1.8527
  469MOL0     H63279   6.055   1.915   6.520  0.8083 -1.2440  0.2252
  469MOL0     H63280   5.853   1.946   6.382 -2.3686 -0.2554  2.2834
  469MOL0     H63281   5.661   1.599   6.232 -0.0605 -0.4009 -0.1567
  469MOL0     H63282   5.563   1.620   6.388  1.6707 -2.9360 -0.9924
  469MOL0     H63283   5.511   1.791   6.140  2.7530  1.0366  1.3014
  469MOL0     H63284   5.453   1.615   6.157 -1.3713 -0.2189  1.9093
  469MOL0     H63285   5.416   1.821   6.367 -0.8273  0.1040  0.4913
  469MOL0     H63286   5.335   1.659   6.333  1.0645  0.5615  1.1974
  469MOL0     H63287   5.187   1.880   6.304  0.9099  1.7062 -1.0257
  469MOL0     H63288   5.292   1.933   6.179 -1.0298  0.5514  0.8802
  469MOL0     H63289   5.106   1.687   6.160 -0.6461  1.0695 -1.2264
  469MOL0     H63290   5.239   1.730   6.041 -0.6437 -0.2258 -2.0019
  469MOL0     H63291   5.032   1.929   6.138 -0.6971 -1.7514  0.3640
  469MOL0     H63292   5.153   1.940   6.007 -0.1769 -0.1432 -2.3903
  469MOL0     H63293   4.908   1.747   6.019  1.8394 -1.4354  0.3494
  469MOL0     H63294   5.013   1.754   5.883  0.3804 -0.6665  0.9128
  469MOL0     H63295   4.870   2.001   5.970  2.7893  2.0805  0.2935
  469MOL0     H63296   4.813   1.894   5.840  0.5499 -2.6221  1.2794
  469MOL0     H63297   5.728   1.566   6.492 -0.0731  0.9518  3.9847
  469MOL0     H63298   5.907   1.517   6.620  0.5227 -0.7105 -0.2430
  469MOL0     H63299   6.494   1.601   6.448 -2.1941 -0.8233 -0.0286
  469MOL0     H63300   6.710   1.576   6.556 -0.7178 -2.0117 -0.3721
  469MOL0     H63301   8.394   1.915   7.614 -1.2866  1.0293 -1.0640
  469MOL0     H63302   8.592   1.986   7.623  1.8535  0.0981 -0.9953
  469MOL0     H63303   8.891   2.300   7.309  0.2620  0.6334 -0.9300
  469MOL0     H63304   9.117   2.362   7.284 -1.9784 -0.3996 -0.6057
  469MOL0     H63305   9.401   2.418   7.629 -0.5687 -0.3548  0.4182
  469MOL0     H63306   9.412   2.255   7.558  0.1106 -0.4388 -2.0577
  469MOL0     H63307   9.565   2.497   7.452  1.9326  0.7764  0.9702
  469MOL0     H63308   9.552   2.344   7.378 -0.8716  4.5093 -2.6146
  469MOL0     H63309   9.656   2.237   7.573 -0.8558 -0.2193  0.7844
  469MOL0     H63310   9.642   2.373   7.670  0.0612  1.5059 -0.4253
  469MOL0     H63311   9.866   2.383   7.590 -0.7758  0.1712  0.1520
  469MOL0     H63312   9.784   2.507   7.498 -1.8602 -0.6904  0.9440
  469MOL0     H63313   9.855   2.260   7.162  0.4926  0.4384  0.4903
  469MOL0     H63314   9.194   2.358   7.708 -0.1710  0.1380 -0.3511
  469MOL0     H63315   8.964   2.288   7.737 -0.4656  0.4775 -0.2760
  470MOL0     O63316   4.986   4.420   3.684  0.3719 -0.0052 -0.0177
  470MOL0     C63317   5.031   4.357   3.582  0.9715 -1.1572 -1.4770
  470MOL0     O63318   4.987   4.236   3.539  0.0744  0.2381  0.0555
  470MOL0     C63319   4.881   4.165   3.590  1.1443  0.5354  0.6599
  470MOL0     C63320   4.877   4.028   3.573 -0.3914  0.3439 -0.0963
  470MOL0     C63321   4.768   3.951   3.602 -0.2072 -0.5317  0.1553
  470MOL0     C63322   4.647   4.009   3.650 -0.0423  1.0634 -1.1543
  470MOL0     O63323   4.533   3.948   3.687  0.1635 -0.9756 -0.3403
  470MOL0     C63324   4.482   3.985   3.812  0.8935  0.1746  0.0273
  470MOL0     C63325   4.383   3.877   3.866 -0.3977  0.0517  0.0508
  470MOL0     C63326   4.254   3.860   3.769  0.3923 -0.1689 -0.4695
  470MOL0     C63327   4.193   3.986   3.723 -0.5313  0.8826 -0.4138
  470MOL0     C63328   4.082   3.953   3.623 -0.0749 -0.4048  0.7304
  470MOL0     C63329   3.966   3.859   3.662  0.1247  0.1233 -0.4427
  470MOL0     C63330   3.893   3.911   3.784 -0.2168  0.3232  0.5650
  470MOL0     C63331   3.761   3.845   3.818 -0.4849 -0.1599  0.6570
  470MOL0     N63332   3.656   3.893   3.728 -0.1369 -0.1514 -0.3576
  470MOL0     C63333   3.627   4.022   3.694 -0.3421  0.6667 -0.0787
  470MOL0     C63334   3.521   4.012   3.615  0.3618 -0.0721 -0.6468
  470MOL0     C63335   3.464   4.131   3.551  0.1347  0.1256  0.0834
  470MOL0     C63336   3.399   4.231   3.641 -0.4030  0.0664  0.3593
  470MOL0     C63337   3.381   4.358   3.560  0.2365  0.1038 -0.5795
  470MOL0     C63338   3.502   4.438   3.522  0.7055 -0.1089  0.3306
  470MOL0     O63339   3.463   4.558   3.454 -0.2258  0.0212  0.0868
  470MOL0     C63340   3.574   4.630   3.413 -0.0247  0.1714  0.0532
  470MOL0     C63341   3.709   4.618   3.448  0.7277 -0.0420  0.7115
  470MOL0     C63342   3.797   4.696   3.372  0.2611 -0.4269 -0.0058
  470MOL0     C63343   3.942   4.688   3.430  0.4653 -0.8680 -0.0392
  470MOL0     C63344   3.764   4.783   3.270 -0.8021  0.3950  0.1021
  470MOL0     C63345   3.868   4.855   3.185  0.2148  0.1138  0.2396
  470MOL0     O63346   3.826   4.977   3.130  0.0731  0.2046 -0.7204
  470MOL0     C63347   3.911   5.056   3.064 -0.0086 -0.4104  0.3723
  470MOL0     C63348   4.046   5.068   3.095  0.0569  0.4953  1.0035
  470MOL0     C63349   4.119   5.175   3.045  1.1978  0.1024  0.1873
  470MOL0     C63350   4.069   5.260   2.948  0.3789 -0.0837 -0.3202
  470MOL0     O63351   4.137   5.361   2.891  0.0006  0.1011  0.1952
  470MOL0     C63352   4.283   5.364   2.895 -0.0458  0.7439  0.0605
  470MOL0     C63353   4.339   5.493   2.824 -0.4625  0.1683 -0.1115
  470MOL0     C63354   4.489   5.507   2.848 -0.7591  0.4297 -0.4530
  470MOL0     C63355   4.541   5.613   2.757 -1.2161 -0.5186 -0.8890
  470MOL0     C63356   4.696   5.621   2.759 -0.5766 -0.6501  0.6820
  470MOL0     C63357   4.748   5.738   2.672 -0.6322 -0.0762  0.7651
  470MOL0     C63358   4.904   5.746   2.690  0.7159 -0.4883 -0.0417
  470MOL0     C63359   4.962   5.858   2.608 -0.6314 -0.0045  0.5048
  470MOL0    Cl63360   4.922   5.837   2.432 -0.1321 -0.1683  0.1153
  470MOL0     C63361   3.938   5.240   2.909 -0.1387  0.0624  0.2283
  470MOL0     C63362   3.858   5.140   2.963  0.5044  0.4560 -0.8913
  470MOL0     O63363   3.964   4.789   3.145  0.2798 -0.5812  0.1259
  470MOL0     C63364   3.634   4.813   3.251  0.3525 -0.4015  0.5500
  470MOL0     C63365   3.544   4.732   3.326 -0.7471 -0.1824  0.7134
  470MOL0     N63366   3.490   3.880   3.594 -0.3430 -0.8174 -0.2037
  470MOL0     N63367   3.574   3.804   3.665  0.3789 -0.2893  0.7908
  470MOL0     C63368   4.654   4.147   3.664 -0.4676 -0.0610  1.1811
  470MOL0     C63369   4.764   4.227   3.640  0.0873 -0.0552  0.6541
  470MOL0     C63370   5.136   4.415   3.510  0.2458  0.0919 -0.4462
  470MOL0     C63371   5.214   4.510   3.575 -1.0812 -0.3690  0.0514
  470MOL0     C63372   5.331   4.555   3.516 -0.6775 -0.5188 -0.0118
  470MOL0     C63373   5.379   4.515   3.392  0.9409  0.8989 -0.2062
  470MOL0     O63374   5.498   4.567   3.341  0.1493  0.8965  0.5009
  470MOL0     C63375   5.567   4.498   3.235  0.5897 -0.2205  0.3201
  470MOL0     C63376   5.702   4.468   3.284 -0.1853  0.0714  0.8855
  470MOL0     C63377   5.794   4.427   3.172 -0.5878  0.2962  1.2100
  470MOL0     C63378   5.920   4.509   3.164  0.0171 -0.0011 -0.4199
  470MOL0     C63379   6.003   4.510   3.288 -0.0213  0.9989 -0.2130
  470MOL0     C63380   6.082   4.495   3.383  0.5991  0.0118  0.9659
  470MOL0     C63381   5.290   4.422   3.325 -1.0842 -0.1390 -0.1502
  470MOL0     C63382   5.176   4.367   3.386 -0.2138  0.5032 -0.2548
  470MOL0     H63383   4.966   3.983   3.530 -3.2590 -4.2632 -2.0721
  470MOL0     H63384   4.771   3.843   3.593 -2.0750 -0.4721 -1.6639
  470MOL0     H63385   4.561   3.983   3.887 -0.2591  0.8326  1.2888
  470MOL0     H63386   4.435   4.083   3.819  1.2266  0.4803 -1.6696
  470MOL0     H63387   4.422   3.775   3.871  0.6583  0.4682  0.5814
  470MOL0     H63388   4.356   3.917   3.965 -1.0044 -2.8566  1.1707
  470MOL0     H63389   4.278   3.798   3.683  1.4234 -1.0699  0.4467
  470MOL0     H63390   4.186   3.806   3.835  0.7661 -0.2055 -0.1077
  470MOL0     H63391   4.167   4.050   3.807 -1.5356 -0.6481  0.4791
  470MOL0     H63392   4.271   4.036   3.664  0.0188  0.7008  0.1397
  470MOL0     H63393   4.026   4.045   3.604  0.0315 -1.0755 -4.0310
  470MOL0     H63394   4.126   3.919   3.529  2.0842  0.6464  1.2832
  470MOL0     H63395   3.893   3.874   3.582 -1.7306  2.2844  1.5143
  470MOL0     H63396   4.001   3.756   3.674 -1.6256 -0.3575  1.0854
  470MOL0     H63397   3.955   3.891   3.872 -0.4122 -3.8993 -0.0210
  470MOL0     H63398   3.886   4.020   3.776 -1.3224  0.2981  1.0249
  470MOL0     H63399   3.740   3.867   3.923  2.5660 -1.0093  1.5342
  470MOL0     H63400   3.772   3.738   3.804 -0.8962  0.0846 -2.0972
  470MOL0     H63401   3.686   4.110   3.720  1.5150 -0.2645 -0.9340
  470MOL0     H63402   3.541   4.183   3.493 -1.3654  2.7624  0.3020
  470MOL0     H63403   3.379   4.097   3.492  2.0009 -1.2322 -2.0132
  470MOL0     H63404   3.457   4.254   3.731  2.0333  0.1937 -1.1585
  470MOL0     H63405   3.302   4.189   3.668 -0.8413  0.1924 -0.9808
  470MOL0     H63406   3.297   4.404   3.611 -0.9081 -1.3086 -1.1246
  470MOL0     H63407   3.329   4.330   3.468  0.9616 -3.1621 -0.1521
  470MOL0     H63408   3.570   4.376   3.464  0.0562  0.2790 -0.8864
  470MOL0     H63409   3.558   4.471   3.610 -0.2411 -0.0920  0.9381
  470MOL0     H63410   3.742   4.544   3.520 -0.4944 -1.7401 -0.3946
  470MOL0     H63411   3.970   4.787   3.469 -0.6658  0.2756 -1.9307
  470MOL0     H63412   3.954   4.624   3.517  1.1530  2.0501  2.1664
  470MOL0     H63413   4.017   4.663   3.354  1.4373 -0.3872  0.7354
  470MOL0     H63414   4.087   4.999   3.168  0.2696  1.1561  1.5180
  470MOL0     H63415   4.218   5.170   3.089 -0.4824  0.9719  4.5725
  470MOL0     H63416   4.325   5.370   2.996  0.8430  2.7925 -0.3762
  470MOL0     H63417   4.317   5.276   2.840  0.6125  0.2915  1.1509
  470MOL0     H63418   4.311   5.485   2.718 -1.7248  0.9194  0.1472
  470MOL0     H63419   4.274   5.571   2.866 -3.5616 -2.2874 -0.0498
  470MOL0     H63420   4.539   5.411   2.831 -0.9198  0.0336  1.1258
  470MOL0     H63421   4.509   5.546   2.949 -1.8843  2.2800 -0.8989
  470MOL0     H63422   4.504   5.598   2.655  0.7081  2.0195 -2.0813
  470MOL0     H63423   4.502   5.707   2.797 -0.2539 -1.4656  2.6503
  470MOL0     H63424   4.734   5.521   2.738  1.7666  0.4947 -0.9949
  470MOL0     H63425   4.732   5.635   2.861  0.3962  0.2433  0.2329
  470MOL0     H63426   4.721   5.712   2.569 -1.9531  1.5294  0.6714
  470MOL0     H63427   4.702   5.834   2.699  0.2340  0.3859  0.6203
  470MOL0     H63428   4.956   5.656   2.657  1.3761  0.7472 -2.5606
  470MOL0     H63429   4.924   5.772   2.795  0.9901 -0.9294  0.0155
  470MOL0     H63430   5.070   5.858   2.624 -0.6927  1.2391  1.0260
  470MOL0     H63431   4.934   5.956   2.648  0.7389  0.3414  0.6409
  470MOL0     H63432   3.894   5.297   2.828 -0.3111 -0.8224 -0.3177
  470MOL0     H63433   3.756   5.124   2.930  0.9812 -0.4386 -2.0111
  470MOL0     H63434   3.590   4.879   3.177  1.1264  0.7832  1.1100
  470MOL0     H63435   3.443   4.750   3.291 -1.4320  0.3611  2.8242
  470MOL0     H63436   4.562   4.202   3.683 -0.4591 -0.4985  2.6483
  470MOL0     H63437   4.751   4.334   3.649  1.2726  0.0206  1.8350
  470MOL0     H63438   5.184   4.549   3.672  0.1121 -2.6039  1.4087
  470MOL0     H63439   5.403   4.617   3.570 -2.1810  0.1790  1.2760
  470MOL0     H63440   5.510   4.408   3.213  0.2538 -0.2595  1.3127
  470MOL0     H63441   5.572   4.561   3.145  0.3915 -1.0395 -0.2737
  470MOL0     H63442   5.707   4.391   3.362 -0.0246  2.5075  3.4619
  470MOL0     H63443   5.738   4.558   3.335 -0.0778 -0.4207  1.7073
  470MOL0     H63444   5.745   4.418   3.074  1.9110  2.4406 -0.3648
  470MOL0     H63445   5.818   4.322   3.189 -1.2160 -0.5699 -2.4263
  470MOL0     H63446   5.878   4.606   3.134 -0.4047 -1.0379 -3.6282
  470MOL0     H63447   5.989   4.474   3.087 -0.1850 -0.7965 -0.2456
  470MOL0     H63448   6.158   4.477   3.457  0.9809 -1.7422  0.1929
  470MOL0     H63449   5.308   4.383   3.226 -0.6345  1.7282 -0.8523
  470MOL0     H63450   5.115   4.301   3.326  0.7689  1.7508 -2.7754
  471MOL0     O63451   5.011   5.850  10.178 -0.7030  1.1193 -0.4944
  471MOL0     C63452   5.042   5.761  10.254  0.2548 -0.5122 -0.5978
  471MOL0     O63453   4.955   5.677  10.316  0.1415 -0.0411 -0.8475
  471MOL0     C63454   4.825   5.711  10.340  0.1714 -0.5932  0.0974
  471MOL0     C63455   4.747   5.616  10.416 -0.9224 -0.2323 -0.3944
  471MOL0     C63456   4.616   5.634  10.462 -1.0195  0.0231 -0.0315
  471MOL0     C63457   4.548   5.744  10.410  1.1088 -0.1424 -0.5772
  471MOL0     O63458   4.409   5.770  10.425  0.0376 -0.6857 -0.9556
  471MOL0     C63459   4.331   5.650  10.426 -1.0707 -0.6248 -0.0352
  471MOL0     C63460   4.193   5.685  10.366  0.0122  0.1190  0.0884
  471MOL0     C63461   4.111   5.559  10.351  0.6915  0.9290 -0.3014
  471MOL0     C63462   4.072   5.487  10.477  0.4418 -0.7961 -0.0133
  471MOL0     C63463   3.954   5.389  10.460 -0.2573  1.0356  0.4800
  471MOL0     C63464   4.002   5.267  10.376  0.0332  0.4148 -0.2096
  471MOL0     C63465   3.892   5.156  10.368  0.2556 -0.5135  0.5477
  471MOL0     C63466   3.891   5.038  10.472  0.6632  1.2802  0.0574
  471MOL0     N63467   3.767   4.955  10.459  0.7427  0.2790 -0.7932
  471MOL0     C63468   3.773   4.832  10.408 -0.2675 -0.7350  0.2352
  471MOL0     C63469   3.649   4.784  10.415  0.1137 -0.6588 -0.3461
  471MOL0     C63470   3.607   4.651  10.368  0.5486  0.3604 -0.4015
  471MOL0     C63471   3.641   4.647  10.216  0.5122 -0.1305 -0.6722
  471MOL0     C63472   3.579   4.766  10.129 -0.0891  0.4301 -0.6490
  471MOL0     C63473   3.425   4.773  10.138  0.0572 -0.7423  0.6041
  471MOL0     O63474   3.375   4.862  10.035 -0.2491 -0.0028 -0.3593
  471MOL0     C63475   3.257   4.924  10.046 -0.1180  1.0018  0.4727
  471MOL0     C63476   3.237   5.032   9.964  1.0398  0.0351 -0.8408
  471MOL0     C63477   3.116   5.103   9.960 -0.1074  0.0246  0.0312
  471MOL0     C63478   3.102   5.227   9.872  0.1252  0.1147  0.1515
  471MOL0     C63479   3.003   5.057  10.033 -0.1519 -0.1907 -0.6046
  471MOL0     C63480   2.860   5.114  10.034 -0.5239  0.1943  0.8037
  471MOL0     O63481   2.762   5.051  10.113 -0.2192 -0.2364 -0.1598
  471MOL0     C63482   2.635   5.101  10.130  0.5006  0.1654 -0.3853
  471MOL0     C63483   2.554   5.023  10.212  0.0521  0.1798  0.2762
  471MOL0     C63484   2.433   5.077  10.249  0.1065 -0.1370  0.4857
  471MOL0     C63485   2.394   5.203  10.227  1.1486  0.0660  0.7635
  471MOL0     O63486   2.296   5.258  10.312  0.1095  0.2763  0.2728
  471MOL0     C63487   2.282   5.398  10.316 -0.0448 -0.2340 -0.6827
  471MOL0     C63488   2.184   5.426  10.429 -0.0947 -0.0553  0.1909
  471MOL0     C63489   2.253   5.417  10.560  0.6486 -0.5264 -0.0013
  471MOL0     C63490   2.163   5.424  10.686  1.3561  0.0204 -0.7968
  471MOL0     C63491   2.232   5.419  10.815 -0.1287 -0.5381 -0.6242
  471MOL0     C63492   2.288   5.561  10.852 -0.3651  0.4981  0.4314
  471MOL0     C63493   2.365   5.557  10.984  0.4742 -0.0995 -0.2462
  471MOL0     C63494   2.422   5.697  11.008  0.3428 -0.2339  0.4261
  471MOL0    Cl63495   2.294   5.802  11.071 -0.2822 -0.0740  0.3150
  471MOL0     C63496   2.461   5.280  10.128 -0.2300  0.2919  0.3476
  471MOL0     C63497   2.581   5.224  10.079  0.2174  1.1947 -0.4198
  471MOL0     O63498   2.843   5.209   9.957 -0.1719 -0.6917 -0.7296
  471MOL0     C63499   3.029   4.943  10.116 -0.5377  0.0590 -0.0143
  471MOL0     C63500   3.157   4.886  10.129  0.2946 -0.3566 -0.1659
  471MOL0     N63501   3.565   4.883  10.473 -0.4380  0.2293  0.6190
  471MOL0     N63502   3.639   4.983  10.501 -0.1203  0.0317  0.4337
  471MOL0     C63503   4.621   5.835  10.333  0.1474  0.4715  0.0730
  471MOL0     C63504   4.750   5.823  10.290 -0.6466 -0.4982  0.8656
  471MOL0     C63505   5.184   5.756  10.268  0.3120  0.7440 -1.1547
  471MOL0     C63506   5.266   5.857  10.212 -0.0509 -1.0915  0.5445
  471MOL0     C63507   5.397   5.845  10.211 -0.2698 -0.4269  0.0895
  471MOL0     C63508   5.463   5.727  10.264  0.1378 -0.5200 -0.0985
  471MOL0     O63509   5.599   5.704  10.260 -0.8067  0.5498  0.3335
  471MOL0     C63510   5.690   5.795  10.192  0.0854 -0.2982 -0.2467
  471MOL0     C63511   5.830   5.758  10.182  0.6114  0.6612 -0.7726
  471MOL0     C63512   5.844   5.610  10.145  0.0355 -0.5786  0.1571
  471MOL0     C63513   5.981   5.577  10.091  0.2686  0.5038 -0.2047
  471MOL0     C63514   6.003   5.627   9.954  0.3534  0.2292  0.2308
  471MOL0     C63515   6.034   5.701   9.863  0.2388 -0.3922 -0.0868
  471MOL0     C63516   5.384   5.636  10.334 -0.2167  0.5748  0.6758
  471MOL0     C63517   5.237   5.647  10.336 -1.0114  0.1090  0.0858
  471MOL0     H63518   4.797   5.525  10.448 -1.1864  0.4203  2.0423
  471MOL0     H63519   4.566   5.562  10.526  2.4179 -1.1989  1.5865
  471MOL0     H63520   4.377   5.566  10.373  0.2239 -1.1071  1.7488
  471MOL0     H63521   4.320   5.623  10.532  0.1816  0.0688  0.2940
  471MOL0     H63522   4.139   5.760  10.424 -0.6453  0.1201 -0.5027
  471MOL0     H63523   4.191   5.719  10.262 -1.0331 -2.3549 -0.7851
  471MOL0     H63524   4.013   5.576  10.307  1.1297  1.8101 -0.9714
  471MOL0     H63525   4.167   5.491  10.286 -0.9779  0.5833 -1.4306
  471MOL0     H63526   4.150   5.423  10.520 -2.0138 -4.2606 -0.3347
  471MOL0     H63527   4.036   5.554  10.556 -1.1605 -1.6080 -0.0268
  471MOL0     H63528   3.922   5.342  10.553 -1.2987  1.1143  0.1765
  471MOL0     H63529   3.867   5.444  10.424 -1.9566 -1.0588  1.2343
  471MOL0     H63530   4.018   5.303  10.274  0.6774 -0.9949 -0.6392
  471MOL0     H63531   4.093   5.225  10.420 -0.7391  1.9572  3.1958
  471MOL0     H63532   3.793   5.202  10.378  0.1382 -0.7335  0.4176
  471MOL0     H63533   3.911   5.117  10.267  0.3993  2.0472 -0.4882
  471MOL0     H63534   3.895   5.082  10.572  1.3381  1.6018 -0.1085
  471MOL0     H63535   3.980   4.978  10.451  0.4003  1.0196 -0.3172
  471MOL0     H63536   3.862   4.779  10.376  0.0390  0.4323 -0.9210
  471MOL0     H63537   3.662   4.573  10.420  1.3056  1.8486  1.1312
  471MOL0     H63538   3.498   4.654  10.376  0.5561  0.4974 -0.3417
  471MOL0     H63539   3.612   4.549  10.177  2.7999 -0.5783 -1.3915
  471MOL0     H63540   3.750   4.651  10.210  1.0701  2.8382  4.8198
  471MOL0     H63541   3.597   4.747  10.023 -1.5638  1.2813 -1.0806
  471MOL0     H63542   3.621   4.865  10.149 -2.6378  1.5377 -0.3670
  471MOL0     H63543   3.405   4.809  10.240  3.0505 -0.9771  1.3791
  471MOL0     H63544   3.378   4.675  10.128  0.3709 -1.0574  1.9995
  471MOL0     H63545   3.325   5.060   9.906 -0.2194  0.8685 -2.4135
  471MOL0     H63546   3.205   5.241   9.838  0.7195  0.5541  1.9958
  471MOL0     H63547   3.033   5.216   9.788 -0.1087  1.6512  0.1141
  471MOL0     H63548   3.085   5.319   9.927 -1.6675  1.1246 -1.9447
  471MOL0     H63549   2.575   4.919  10.233  0.5456  0.0803 -0.6397
  471MOL0     H63550   2.365   5.010  10.301 -3.8932  0.6048 -3.2195
  471MOL0     H63551   2.373   5.454  10.340 -1.0829  0.7333  1.2694
  471MOL0     H63552   2.237   5.436  10.224  0.0871  0.2856 -0.5390
  471MOL0     H63553   2.153   5.530  10.415  2.0938  0.5995 -0.1454
  471MOL0     H63554   2.101   5.355  10.431  0.2598 -1.2948 -6.2768
  471MOL0     H63555   2.321   5.502  10.572 -0.0313 -0.1926  1.7343
  471MOL0     H63556   2.310   5.323  10.567  1.6674 -0.1754 -2.3317
  471MOL0     H63557   2.096   5.511  10.679 -0.0499 -0.9432  0.1819
  471MOL0     H63558   2.092   5.341  10.687 -0.2575  1.3396  0.5258
  471MOL0     H63559   2.304   5.337  10.811 -1.1476 -1.4088 -2.9564
  471MOL0     H63560   2.150   5.407  10.886 -0.5204 -1.0545 -1.1647
  471MOL0     H63561   2.347   5.596  10.766 -2.8540  4.7844  0.1668
  471MOL0     H63562   2.198   5.623  10.855 -1.2026 -0.5957 -0.6594
  471MOL0     H63563   2.445   5.483  10.974 -0.2508 -1.0326  0.6127
  471MOL0     H63564   2.299   5.534  11.068  0.3644  0.0238 -0.2984
  471MOL0     H63565   2.455   5.737  10.912  0.3789  0.1394  0.5886
  471MOL0     H63566   2.503   5.696  11.082  0.3235 -0.5188  0.4443
  471MOL0     H63567   2.434   5.382  10.102 -1.5605 -0.2513 -0.5553
  471MOL0     H63568   2.633   5.286  10.006  0.3018  3.2818  1.3017
  471MOL0     H63569   2.948   4.898  10.172 -0.2658  0.4413  0.6943
  471MOL0     H63570   3.169   4.797  10.191 -0.5358 -2.6310 -3.0184
  471MOL0     H63571   4.566   5.924  10.302 -2.5601 -0.6683  1.2238
  471MOL0     H63572   4.789   5.888  10.213 -0.4082 -0.4893  0.9933
  471MOL0     H63573   5.227   5.949  10.169  1.5091 -0.2856  0.7743
  471MOL0     H63574   5.451   5.929  10.169 -1.5959  0.9428  1.0063
  471MOL0     H63575   5.673   5.802  10.084  1.2291  1.0029 -0.3876
  471MOL0     H63576   5.683   5.892  10.244  1.3012 -1.5314  2.4236
  471MOL0     H63577   5.880   5.776  10.277  1.9970 -1.7541 -0.9567
  471MOL0     H63578   5.876   5.819  10.103  0.5353 -2.3999 -3.3909
  471MOL0     H63579   5.765   5.590  10.073 -0.1079 -0.0145  0.1560
  471MOL0     H63580   5.832   5.540  10.229 -0.6342 -0.2363  0.3512
  471MOL0     H63581   5.994   5.468  10.100 -0.9110  0.4537  1.2259
  471MOL0     H63582   6.065   5.610  10.153  0.1552  2.7207 -1.1359
  471MOL0     H63583   6.061   5.755   9.774  0.9274  0.1115  0.4224
  471MOL0     H63584   5.432   5.557  10.392 -0.6657  1.0263  1.6842
  471MOL0     H63585   5.170   5.582  10.390 -1.7665  1.1836  0.4744
  472MOL0     O63586   2.271   2.390   3.912  0.8343 -0.3480  0.2033
  472MOL0     C63587   2.337   2.496   3.920  0.2318 -0.1442  0.5136
  472MOL0     O63588   2.290   2.617   3.963  0.1083 -0.0964  0.1436
  472MOL0     C63589   2.157   2.635   3.986 -0.6205  0.3149 -0.9031
  472MOL0     C63590   2.128   2.675   4.114  0.2827  0.2881 -0.1020
  472MOL0     C63591   1.991   2.688   4.149 -0.1674  0.1928  0.0441
  472MOL0     C63592   1.887   2.668   4.052  0.3699 -0.1243 -0.1196
  472MOL0     O63593   1.752   2.673   4.080 -0.6387 -1.0446 -0.3343
  472MOL0     C63594   1.719   2.636   4.220 -0.3473  0.2534  0.0301
  472MOL0     C63595   1.561   2.641   4.226  0.2921 -0.4545 -0.0919
  472MOL0     C63596   1.498   2.506   4.194 -0.2031  0.1365 -0.2228
  472MOL0     C63597   1.355   2.514   4.238 -0.6638 -0.2940 -0.2894
  472MOL0     C63598   1.277   2.390   4.190  0.2284 -0.2429  0.0822
  472MOL0     C63599   1.309   2.260   4.266 -0.3396  0.4369  0.7423
  472MOL0     C63600   1.199   2.157   4.221  0.6194  0.3625 -0.2559
  472MOL0     C63601   1.174   2.029   4.310  0.1232 -0.4443 -0.3938
  472MOL0     N63602   1.106   2.065   4.434 -0.3319  0.2667  0.2183
  472MOL0     C63603   0.967   2.067   4.448 -0.4069  0.9947  0.0560
  472MOL0     C63604   0.945   2.065   4.582  0.9083 -0.4450 -0.2416
  472MOL0     C63605   0.805   2.060   4.646  0.0416 -0.1049  0.1572
  472MOL0     C63606   0.742   1.923   4.639 -0.9611 -0.2432  0.0317
  472MOL0     C63607   0.591   1.950   4.674 -0.8798 -0.4927 -0.0910
  472MOL0     C63608   0.508   1.816   4.675 -0.4011  0.3020 -0.7928
  472MOL0     O63609   0.373   1.831   4.723  0.1837  0.2404 -0.0429
  472MOL0     C63610   0.277   1.870   4.627  0.7020 -0.5449 -0.5377
  472MOL0     C63611   0.142   1.881   4.670 -0.1434  0.0926 -0.0467
  472MOL0     C63612   0.037   1.907   4.584 -0.2525 -0.6144 -0.5537
  472MOL0     C63613  -0.098   1.909   4.651  0.4748 -0.2159 -0.2926
  472MOL0     C63614   0.060   1.930   4.445  0.4109 -0.8591 -0.0804
  472MOL0     C63615  -0.050   1.966   4.346  0.2155 -0.4879  0.0514
  472MOL0     O63616  -0.001   2.017   4.222  0.3853 -0.0869 -0.3030
  472MOL0     C63617  -0.091   2.059   4.127  0.0684 -0.3067 -0.1345
  472MOL0     C63618  -0.121   2.198   4.108 -0.0888  0.8438  0.6306
  472MOL0     C63619  -0.213   2.238   4.018  0.0252 -0.0094  0.5421
  472MOL0     C63620  -0.283   2.144   3.947 -0.7970 -0.2514  0.5773
  472MOL0     O63621  -0.387   2.174   3.869  0.7765  0.1490 -0.2699
  472MOL0     C63622  -0.508   2.113   3.914  0.2395 -0.2545 -0.2313
  472MOL0     C63623  -0.615   2.218   3.950 -0.8733  0.3795  0.3683
  472MOL0     C63624  -0.738   2.157   4.004  0.1039 -0.1334 -1.2915
  472MOL0     C63625  -0.836   2.261   4.030 -0.1592  0.7070  0.3324
  472MOL0     C63626  -0.968   2.187   4.055 -0.7076  0.2905 -0.1568
  472MOL0     C63627  -1.083   2.285   4.062 -0.3997 -0.8096  0.4544
  472MOL0     C63628  -1.209   2.226   4.123  0.3818 -1.0510  0.1126
  472MOL0     C63629  -1.314   2.320   4.176  0.7247 -0.0116  0.0998
  472MOL0    Cl63630  -1.466   2.221   4.215  0.4557 -0.2189 -0.3248
  472MOL0     C63631  -0.250   2.011   3.955  0.0210  0.5911 -0.0486
  472MOL0     C63632  -0.154   1.967   4.048  0.3561 -0.8024 -0.3763
  472MOL0     O63633  -0.173   1.953   4.369  0.8642  0.1915 -0.1733
  472MOL0     C63634   0.195   1.912   4.401  0.0003  0.3892 -0.1228
  472MOL0     C63635   0.297   1.873   4.490  0.1429 -1.3055 -0.0284
  472MOL0     N63636   1.068   2.081   4.643 -0.4600 -0.3585  0.5148
  472MOL0     N63637   1.159   2.080   4.552  0.2849  0.6066 -0.3768
  472MOL0     C63638   1.923   2.630   3.923  0.0844 -0.2360  0.2289
  472MOL0     C63639   2.054   2.619   3.894 -0.0274  1.0822  0.0752
  472MOL0     C63640   2.486   2.487   3.900 -0.6494 -0.1500  0.1930
  472MOL0     C63641   2.540   2.367   3.844  0.0870  0.0786  0.1136
  472MOL0     C63642   2.672   2.361   3.802 -0.4169 -0.8173  0.5971
  472MOL0     C63643   2.765   2.465   3.837  0.5342  0.3227  0.7225
  472MOL0     O63644   2.900   2.471   3.790  0.2410 -1.0239  0.0497
  472MOL0     C63645   2.943   2.367   3.699 -0.3220 -0.4766 -0.0602
  472MOL0     C63646   2.901   2.390   3.553 -0.2809 -0.9240 -0.0295
  472MOL0     C63647   2.984   2.317   3.449 -0.7787  0.4766 -0.2429
  472MOL0     C63648   3.100   2.407   3.396 -0.7883 -0.2676 -0.3156
  472MOL0     C63649   3.181   2.357   3.285 -0.1600  1.2449  0.7063
  472MOL0     C63650   3.259   2.317   3.197  0.1081 -0.5624 -0.1049
  472MOL0     C63651   2.717   2.578   3.893  0.2879 -0.3053  0.2587
  472MOL0     C63652   2.585   2.589   3.929  0.1825 -0.1759 -0.2566
  472MOL0     H63653   2.211   2.697   4.181  2.1591 -1.1425 -1.8303
  472MOL0     H63654   1.963   2.721   4.248 -1.2391  1.6656 -0.7196
  472MOL0     H63655   1.748   2.538   4.259 -4.8350 -0.9374  0.9863
  472MOL0     H63656   1.750   2.714   4.290 -1.4662 -0.9204  1.9096
  472MOL0     H63657   1.539   2.670   4.330 -1.2449  1.6782 -0.9346
  472MOL0     H63658   1.526   2.717   4.156 -0.2788 -1.3393 -0.7771
  472MOL0     H63659   1.504   2.478   4.089 -1.3433 -1.2506  0.0484
  472MOL0     H63660   1.549   2.423   4.243  1.3410  0.5969 -0.9927
  472MOL0     H63661   1.353   2.512   4.348  2.0018 -2.3156 -0.1482
  472MOL0     H63662   1.298   2.602   4.207  2.0946  1.7301  0.0408
  472MOL0     H63663   1.173   2.409   4.220  0.1179 -0.0434 -0.4158
  472MOL0     H63664   1.256   2.378   4.083 -3.3963 -0.4781  0.6697
  472MOL0     H63665   1.414   2.237   4.243 -1.1312 -0.9345 -1.9167
  472MOL0     H63666   1.302   2.271   4.374  0.7732 -0.3729  0.9077
  472MOL0     H63667   1.101   2.203   4.205 -0.0118 -0.9336 -0.3140
  472MOL0     H63668   1.215   2.108   4.125 -2.3922  0.5626 -0.9687
  472MOL0     H63669   1.270   1.979   4.326 -0.2664 -0.4148  2.4680
  472MOL0     H63670   1.104   1.961   4.260  0.6053 -0.6733 -0.7726
  472MOL0     H63671   0.904   2.072   4.359  1.5123 -0.1134 -1.4391
  472MOL0     H63672   0.818   2.089   4.750 -2.4946  0.4247  0.3794
  472MOL0     H63673   0.749   2.133   4.587  1.5704  0.8523 -0.1645
  472MOL0     H63674   0.787   1.857   4.714  0.0139  0.4840  0.1082
  472MOL0     H63675   0.751   1.883   4.537 -0.1266 -0.7728  0.3088
  472MOL0     H63676   0.565   2.023   4.598  3.3542  2.3717  0.8993
  472MOL0     H63677   0.588   1.995   4.774 -1.0766 -1.8083  0.5314
  472MOL0     H63678   0.560   1.747   4.741  0.4851  0.8713 -0.8799
  472MOL0     H63679   0.519   1.771   4.576 -0.4057  2.6727 -1.9438
  472MOL0     H63680   0.126   1.849   4.772 -1.8926 -0.0441 -0.3251
  472MOL0     H63681  -0.102   1.884   4.757  0.8128 -1.3137 -0.5315
  472MOL0     H63682  -0.145   2.008   4.646 -0.9575 -0.9268 -2.3506
  472MOL0     H63683  -0.168   1.848   4.594 -0.4965  0.5425  0.0565
  472MOL0     H63684  -0.071   2.264   4.179  0.7050  1.0428 -0.0929
  472MOL0     H63685  -0.233   2.344   4.006 -0.4712  0.0648  1.8320
  472MOL0     H63686  -0.551   2.045   3.841 -1.1323  0.4286 -0.0912
  472MOL0     H63687  -0.503   2.063   4.012 -1.9572  0.8082  0.4940
  472MOL0     H63688  -0.570   2.270   4.035  0.2074 -1.1066  0.7477
  472MOL0     H63689  -0.637   2.277   3.860 -0.0152  1.0358  0.5792
  472MOL0     H63690  -0.738   2.110   4.103  0.4880  3.7938  0.7542
  472MOL0     H63691  -0.776   2.084   3.932 -0.6700  0.1762 -1.2107
  472MOL0     H63692  -0.799   2.325   4.111 -2.6223  0.7433  1.5123
  472MOL0     H63693  -0.852   2.318   3.938 -1.7073  0.3505  0.3608
  472MOL0     H63694  -0.956   2.125   4.145  0.3243 -2.4911 -2.0773
  472MOL0     H63695  -0.986   2.113   3.977  2.0020 -0.6542  0.0085
  472MOL0     H63696  -1.056   2.371   4.124  0.3653 -1.9425  1.7540
  472MOL0     H63697  -1.110   2.325   3.964  1.2635 -2.5058 -0.7589
  472MOL0     H63698  -1.186   2.160   4.208 -3.8150 -1.8695  0.8244
  472MOL0     H63699  -1.261   2.163   4.051 -1.0004  1.8071 -1.5408
  472MOL0     H63700  -1.337   2.398   4.103 -1.6670  1.7825  2.6008
  472MOL0     H63701  -1.278   2.373   4.265  3.4885 -1.0581 -0.2868
  472MOL0     H63702  -0.285   1.951   3.872  2.1633  1.5245 -1.7168
  472MOL0     H63703  -0.128   1.863   4.063  2.4364 -0.2339  0.2601
  472MOL0     H63704   0.219   1.920   4.296  1.0899 -0.8515 -0.0016
  472MOL0     H63705   0.394   1.852   4.446 -0.0391  0.3213 -1.3165
  472MOL0     H63706   1.849   2.613   3.845  1.7234 -0.9834 -1.2464
  472MOL0     H63707   2.085   2.592   3.793 -0.0196  1.9746 -0.1767
  472MOL0     H63708   2.474   2.287   3.813  0.8001  0.1251 -1.6449
  472MOL0     H63709   2.703   2.266   3.759  0.8024  0.2639 -0.9834
  472MOL0     H63710   3.052   2.367   3.713 -0.4339  3.3274  2.0186
  472MOL0     H63711   2.906   2.270   3.735 -1.3246  0.4883  1.5988
  472MOL0     H63712   2.907   2.496   3.527 -3.5385 -0.7101 -0.3021
  472MOL0     H63713   2.798   2.354   3.546  0.1760 -2.1751 -0.6065
  472MOL0     H63714   2.922   2.287   3.363 -1.7515  1.5945  0.0489
  472MOL0     H63715   3.021   2.220   3.484 -2.5999 -0.3033 -0.3749
  472MOL0     H63716   3.170   2.429   3.477  1.4042  1.8275 -2.6040
  472MOL0     H63717   3.057   2.501   3.359  3.8445  2.0647 -0.4203
  472MOL0     H63718   3.326   2.276   3.125 -1.2496 -2.3898 -0.3969
  472MOL0     H63719   2.784   2.663   3.907 -0.5330  0.9799 -2.8792
  472MOL0     H63720   2.554   2.687   3.964 -2.0546  0.0338 -2.5343
  473MOL0     O63721   9.500   6.040   5.748  0.1252 -0.8998 -0.2322
  473MOL0     C63722   9.549   6.103   5.842 -0.6980  0.4649  0.5758
  473MOL0     O63723   9.479   6.155   5.946 -0.8330  0.3704 -0.0889
  473MOL0     C63724   9.341   6.140   5.965 -0.1892 -0.0834 -0.1711
  473MOL0     C63725   9.240   6.106   5.872 -0.5225 -0.1246  0.2444
  473MOL0     C63726   9.111   6.088   5.913  0.6934  0.0565 -0.2971
  473MOL0     C63727   9.073   6.082   6.044 -0.9361 -0.2494 -0.1389
  473MOL0     O63728   8.940   6.062   6.073 -0.5426  0.9514  0.1478
  473MOL0     C63729   8.919   5.966   6.182  0.1674 -0.2175 -0.4791
  473MOL0     C63730   8.803   5.878   6.150  0.3629 -0.0968 -0.1176
  473MOL0     C63731   8.671   5.931   6.210  0.5103 -0.1610 -0.6273
  473MOL0     C63732   8.558   5.827   6.216  0.0570 -0.0896  0.4958
  473MOL0     C63733   8.425   5.882   6.282 -0.8380  0.3412  0.0125
  473MOL0     C63734   8.304   5.783   6.270 -0.2581  0.0329 -0.6531
  473MOL0     C63735   8.241   5.796   6.135  0.0494 -0.1255  0.0310
  473MOL0     C63736   8.165   5.668   6.098 -0.2044 -0.1971 -0.7682
  473MOL0     N63737   8.071   5.616   6.196  0.9905 -0.2818  0.0236
  473MOL0     C63738   7.944   5.675   6.229 -0.8879  1.0489  0.4858
  473MOL0     C63739   7.908   5.612   6.346 -0.8020 -0.4043 -0.3525
  473MOL0     C63740   7.784   5.661   6.415 -0.8003  0.1998  0.0834
  473MOL0     C63741   7.658   5.596   6.359 -0.4063 -0.7397  0.1187
  473MOL0     C63742   7.651   5.446   6.390 -0.1621 -0.0585  0.1941
  473MOL0     C63743   7.509   5.392   6.354 -0.4408  0.1446  0.1848
  473MOL0     O63744   7.513   5.247   6.384 -0.5270 -0.0873  0.3628
  473MOL0     C63745   7.405   5.179   6.428 -0.5510 -0.2429  0.3056
  473MOL0     C63746   7.428   5.047   6.448 -0.2502  0.0066 -0.7354
  473MOL0     C63747   7.338   4.962   6.519 -0.0150  0.2587  0.2299
  473MOL0     C63748   7.369   4.811   6.543  0.6441 -0.0867  0.2382
  473MOL0     C63749   7.208   5.019   6.542 -0.1950 -0.8205 -0.4377
  473MOL0     C63750   7.087   4.941   6.586 -0.0412  0.1169  0.2745
  473MOL0     O63751   6.964   5.009   6.584 -0.6803  0.3991  0.1225
  473MOL0     C63752   6.847   4.933   6.611 -0.3421 -0.2799  0.7763
  473MOL0     C63753   6.737   5.009   6.653 -0.0018 -0.7359  0.2873
  473MOL0     C63754   6.617   4.948   6.692  0.3777 -0.1508 -0.3173
  473MOL0     C63755   6.606   4.810   6.688 -0.6768  0.9538  0.0625
  473MOL0     O63756   6.485   4.759   6.721  0.7076  0.0758  0.2415
  473MOL0     C63757   6.452   4.625   6.677  0.5173  0.3911  1.0031
  473MOL0     C63758   6.302   4.618   6.661  0.1243 -0.4787 -0.1729
  473MOL0     C63759   6.247   4.477   6.645  0.1377 -0.1264  0.4668
  473MOL0     C63760   6.094   4.469   6.643 -0.2677  0.2166  0.0224
  473MOL0     C63761   6.040   4.337   6.594 -1.4075  0.0033  0.0132
  473MOL0     C63762   5.890   4.335   6.586 -0.6359  0.1112  0.6310
  473MOL0     C63763   5.845   4.201   6.526  0.6093 -0.4878 -0.1186
  473MOL0     C63764   5.686   4.205   6.534 -0.0902  0.2962  0.1727
  473MOL0    Cl63765   5.623   4.163   6.694 -0.3783  0.3695  0.1899
  473MOL0     C63766   6.718   4.733   6.643  0.6804 -0.1714 -0.6092
  473MOL0     C63767   6.834   4.789   6.593 -0.0500  0.2356  0.3910
  473MOL0     O63768   7.105   4.835   6.635 -1.1416  0.4398  0.1145
  473MOL0     C63769   7.186   5.153   6.509 -0.4162  0.0677  0.3416
  473MOL0     C63770   7.279   5.234   6.451 -1.8134  0.1879 -0.1672
  473MOL0     N63771   7.994   5.510   6.366 -0.1302  0.3324  0.0584
  473MOL0     N63772   8.084   5.508   6.272  0.2245 -0.1341  0.8351
  473MOL0     C63773   9.165   6.120   6.143  0.5908 -0.4962 -0.0010
  473MOL0     C63774   9.300   6.152   6.103 -0.9521  0.8484 -0.5917
  473MOL0     C63775   9.699   6.116   5.845  0.2836  0.0506 -0.4875
  473MOL0     C63776   9.779   6.046   5.758 -0.2794  0.5913 -0.0665
  473MOL0     C63777   9.922   6.051   5.763  0.7651  0.3256 -0.2880
  473MOL0     C63778   9.977   6.136   5.867  0.6034 -0.8283 -0.1979
  473MOL0     O63779  10.110   6.157   5.893  0.8520  0.4010 -0.1933
  473MOL0     C63780  10.206   6.084   5.821 -0.1917  1.4304 -0.3505
  473MOL0     C63781  10.332   6.096   5.897 -0.2772 -0.6666 -0.1995
  473MOL0     C63782  10.388   6.238   5.908  0.0148 -0.8063 -0.1022
  473MOL0     C63783  10.403   6.315   5.775  0.1363 -0.2344 -1.0976
  473MOL0     C63784  10.477   6.436   5.809  0.6299  0.4246  0.1579
  473MOL0     C63785  10.540   6.534   5.838 -0.3630 -0.4049 -0.7872
  473MOL0     C63786   9.896   6.213   5.951  0.2266 -0.7069  0.0357
  473MOL0     C63787   9.761   6.205   5.940  0.1520 -0.4976  0.3504
  473MOL0     H63788   9.274   6.092   5.769 -0.8329  0.4930  0.0542
  473MOL0     H63789   9.040   6.060   5.836  0.7143 -0.7922 -0.0173
  473MOL0     H63790   9.006   5.901   6.171  0.5732  0.5985 -2.5462
  473MOL0     H63791   8.907   6.006   6.283 -4.1307 -1.8813 -0.1555
  473MOL0     H63792   8.792   5.852   6.044 -2.0104 -2.3251  0.5495
  473MOL0     H63793   8.826   5.782   6.198  0.0351 -0.3587 -0.4747
  473MOL0     H63794   8.692   5.978   6.306 -1.1787 -1.5243  0.4815
  473MOL0     H63795   8.638   6.014   6.147 -0.1231  0.5221  0.5666
  473MOL0     H63796   8.532   5.793   6.115  2.5603  2.8586 -1.2869
  473MOL0     H63797   8.592   5.742   6.276  1.5702  1.5722  2.1113
  473MOL0     H63798   8.451   5.894   6.387 -0.4600 -0.3045 -0.0013
  473MOL0     H63799   8.402   5.980   6.238  1.1875  0.1816 -1.6043
  473MOL0     H63800   8.345   5.683   6.280 -1.1555 -0.1572  2.0664
  473MOL0     H63801   8.236   5.795   6.355  1.2879  1.3465  0.4382
  473MOL0     H63802   8.167   5.876   6.133 -1.7512 -1.6542  1.5783
  473MOL0     H63803   8.320   5.811   6.061  0.9484 -1.0027  0.7718
  473MOL0     H63804   8.242   5.592   6.081  0.7508 -0.0555  2.3252
  473MOL0     H63805   8.123   5.675   5.997  0.0825 -3.3525 -1.2026
  473MOL0     H63806   7.906   5.757   6.169 -0.1979 -0.0614 -1.5715
  473MOL0     H63807   7.794   5.642   6.522 -0.3797  2.1413  0.4288
  473MOL0     H63808   7.778   5.769   6.395 -0.3393 -0.0296 -1.4011
  473MOL0     H63809   7.661   5.612   6.251 -3.6036  1.4326  0.2089
  473MOL0     H63810   7.565   5.641   6.398 -2.3694 -4.2702 -0.0692
  473MOL0     H63811   7.674   5.421   6.494  2.6270  0.2366 -0.2720
  473MOL0     H63812   7.713   5.388   6.322 -2.4531 -0.0983 -2.0053
  473MOL0     H63813   7.490   5.403   6.247  2.6878  2.3482 -0.2876
  473MOL0     H63814   7.434   5.444   6.415 -3.6185 -0.2202 -3.1191
  473MOL0     H63815   7.525   4.997   6.449  0.4652  1.3441 -1.1746
  473MOL0     H63816   7.337   4.784   6.644  1.7124  4.5428  2.0724
  473MOL0     H63817   7.318   4.742   6.475  3.2197 -1.7442 -0.1441
  473MOL0     H63818   7.472   4.782   6.523  1.6967  1.7334  2.5766
  473MOL0     H63819   6.754   5.116   6.659 -1.0419 -0.5428  0.0506
  473MOL0     H63820   6.530   5.006   6.722 -0.4056 -2.2773  1.8413
  473MOL0     H63821   6.497   4.601   6.580  2.0604 -0.6960  1.9516
  473MOL0     H63822   6.480   4.550   6.751 -1.6268 -1.4655  0.0442
  473MOL0     H63823   6.259   4.653   6.755 -0.9809  1.7258 -1.4125
  473MOL0     H63824   6.277   4.687   6.580  4.2085  2.0547  0.4399
  473MOL0     H63825   6.280   4.412   6.727 -0.8562 -2.3058 -0.7810
  473MOL0     H63826   6.286   4.433   6.553 -0.2505 -0.2512  0.3601
  473MOL0     H63827   6.052   4.488   6.742 -1.3387  1.8245 -0.6875
  473MOL0     H63828   6.058   4.556   6.586 -0.1547 -0.6751 -1.4512
  473MOL0     H63829   6.063   4.258   6.666  2.2182 -0.1962 -1.1599
  473MOL0     H63830   6.093   4.317   6.500  1.8862  1.5963  1.3798
  473MOL0     H63831   5.847   4.356   6.685  1.0253  0.3061  1.3446
  473MOL0     H63832   5.859   4.418   6.522 -2.9096  0.6807  2.3378
  473MOL0     H63833   5.881   4.126   6.597 -1.4386 -2.4099 -0.9788
  473MOL0     H63834   5.876   4.187   6.421  1.0858 -0.5622  0.0278
  473MOL0     H63835   5.651   4.136   6.457  0.8049  3.1400 -3.0290
  473MOL0     H63836   5.651   4.303   6.501 -1.0794 -0.0604  0.1344
  473MOL0     H63837   6.704   4.626   6.634  1.2989 -0.2464 -0.6654
  473MOL0     H63838   6.910   4.714   6.573 -0.5406  0.3233 -2.0346
  473MOL0     H63839   7.086   5.195   6.522 -0.4957 -0.1148  0.3329
  473MOL0     H63840   7.254   5.338   6.431  0.0898  1.7135  4.0838
  473MOL0     H63841   9.125   6.117   6.244 -0.5546 -1.1767 -0.4582
  473MOL0     H63842   9.366   6.170   6.188  0.2713 -0.5289 -1.2000
  473MOL0     H63843   9.731   5.983   5.684  0.9956 -0.2168 -0.2352
  473MOL0     H63844   9.990   5.997   5.698  1.5592 -0.5279  1.1999
  473MOL0     H63845  10.179   5.978   5.814 -0.8486  1.6076 -0.5746
  473MOL0     H63846  10.208   6.130   5.722 -1.1730  1.8557 -0.1870
  473MOL0     H63847  10.411   6.036   5.851 -0.5919 -1.5688  0.3895
  473MOL0     H63848  10.313   6.062   5.999  0.7228  0.7804  0.4862
  473MOL0     H63849  10.486   6.227   5.956  0.8080  0.5402 -1.3615
  473MOL0     H63850  10.333   6.295   5.983  2.1889 -0.0453  1.0036
  473MOL0     H63851  10.305   6.332   5.730 -0.5533 -2.0681 -0.3466
  473MOL0     H63852  10.459   6.252   5.706  1.8396 -0.7670  0.6650
  473MOL0     H63853  10.600   6.617   5.869  0.2346 -0.0359 -2.8257
  473MOL0     H63854   9.936   6.281   6.026  2.6921 -2.1896  0.1664
  473MOL0     H63855   9.711   6.252   6.023  1.0440 -0.5158  0.9152
  474MOL0     O63856   9.380   8.476   7.936 -0.3810  0.1064 -0.1692
  474MOL0     C63857   9.460   8.568   7.937  0.6054 -0.3089  0.4968
  474MOL0     O63858   9.431   8.697   7.935 -0.0881  0.4186  0.2907
  474MOL0     C63859   9.307   8.728   7.889 -0.3824 -0.0365 -0.0142
  474MOL0     C63860   9.251   8.692   7.767 -0.1076  0.1360  0.7131
  474MOL0     C63861   9.118   8.731   7.733 -0.3856 -0.7473 -0.1423
  474MOL0     C63862   9.049   8.815   7.826 -0.8943  0.1383  1.1183
  474MOL0     O63863   8.933   8.876   7.796  0.3125 -0.0964  0.0511
  474MOL0     C63864   8.846   8.819   7.692  0.1609 -0.0529 -0.3292
  474MOL0     C63865   8.701   8.879   7.716 -0.4218  0.1183  0.0124
  474MOL0     C63866   8.599   8.807   7.619 -0.4831  0.0189 -0.0167
  474MOL0     C63867   8.459   8.859   7.639 -0.4309  0.4049  0.8548
  474MOL0     C63868   8.403   8.856   7.783  0.3085  0.6672 -0.5012
  474MOL0     C63869   8.250   8.890   7.774  0.2286 -0.6006 -0.2249
  474MOL0     C63870   8.152   8.786   7.715 -0.1906  0.3611 -0.7700
  474MOL0     C63871   8.014   8.782   7.795  0.0640  0.6279 -0.1503
  474MOL0     N63872   7.919   8.678   7.767 -0.0119  0.1774 -0.9102
  474MOL0     C63873   7.786   8.691   7.757  0.3309  0.4783  0.9488
  474MOL0     C63874   7.736   8.567   7.737 -0.1154  0.0935  0.4794
  474MOL0     C63875   7.592   8.517   7.729  1.0341 -0.7238  0.2788
  474MOL0     C63876   7.526   8.555   7.861  0.3907 -1.3431  0.2609
  474MOL0     C63877   7.405   8.469   7.890  0.2590 -0.4637  1.0251
  474MOL0     C63878   7.282   8.508   7.800  0.9855 -0.3018 -0.0924
  474MOL0     O63879   7.202   8.389   7.784 -0.3403  0.5683  0.3428
  474MOL0     C63880   7.068   8.384   7.755 -0.0496 -0.3582  0.3158
  474MOL0     C63881   7.017   8.252   7.758  0.6065 -1.3450  0.1206
  474MOL0     C63882   6.887   8.228   7.714  0.6873 -0.2041  0.2397
  474MOL0     C63883   6.842   8.080   7.700 -0.2683  0.4325 -0.2675
  474MOL0     C63884   6.799   8.339   7.689  0.9707 -0.2509 -0.5950
  474MOL0     C63885   6.649   8.332   7.656 -0.0316  0.1007  0.0678
  474MOL0     O63886   6.581   8.454   7.650 -0.3912  0.0426  0.0835
  474MOL0     C63887   6.455   8.459   7.605  0.4841  0.8855 -0.3281
  474MOL0     C63888   6.386   8.574   7.656  0.7741  0.3509  0.1490
  474MOL0     C63889   6.256   8.590   7.618 -1.1185 -0.0187  0.0961
  474MOL0     C63890   6.193   8.500   7.533 -0.0735  0.0808  0.0699
  474MOL0     O63891   6.065   8.534   7.501  0.3728  0.2361 -0.4196
  474MOL0     C63892   5.985   8.588   7.612 -0.5210  0.3598  0.0266
  474MOL0     C63893   5.844   8.533   7.613  0.0795 -0.0301 -0.6692
  474MOL0     C63894   5.757   8.612   7.707  0.4920 -0.4235  0.0654
  474MOL0     C63895   5.617   8.546   7.739  1.2409  0.0039 -0.2946
  474MOL0     C63896   5.514   8.584   7.630 -0.0747 -0.3597  0.0439
  474MOL0     C63897   5.392   8.497   7.637 -0.2747 -0.2259 -0.4213
  474MOL0     C63898   5.275   8.544   7.548  0.1427  0.4586  0.3378
  474MOL0     C63899   5.159   8.444   7.553 -0.7946  0.0303  0.2768
  474MOL0    Cl63900   5.022   8.518   7.466 -0.1774  0.2655 -0.3295
  474MOL0     C63901   6.257   8.391   7.480  0.7802 -0.1755  0.0589
  474MOL0     C63902   6.388   8.379   7.509 -0.5666 -0.1217 -0.8232
  474MOL0     O63903   6.595   8.224   7.652 -0.9787  0.4146 -0.5350
  474MOL0     C63904   6.851   8.465   7.696  0.1995  0.1559  0.3432
  474MOL0     C63905   6.978   8.489   7.727 -0.0761  0.2410  0.4695
  474MOL0     N63906   7.847   8.481   7.725  0.4988 -0.1464 -0.5874
  474MOL0     N63907   7.955   8.547   7.745  0.3458  0.1182  1.2081
  474MOL0     C63908   9.109   8.844   7.949 -0.1468 -0.0303  0.4043
  474MOL0     C63909   9.234   8.800   7.992 -0.2914 -0.2302  0.9071
  474MOL0     C63910   9.600   8.523   7.943 -0.5313 -0.1856  0.4425
  474MOL0     C63911   9.704   8.619   7.928 -0.0122 -0.0460  0.3083
  474MOL0     C63912   9.837   8.577   7.928 -0.2596  0.7252  0.6836
  474MOL0     C63913   9.873   8.445   7.940 -0.2493  0.3031  0.2258
  474MOL0     O63914  10.004   8.419   7.936 -0.4735 -0.8154  0.0098
  474MOL0     C63915  10.074   8.408   8.058  0.4029  0.5010 -0.2331
  474MOL0     C63916  10.173   8.301   8.044  0.2541 -0.2352 -0.3831
  474MOL0     C63917  10.279   8.342   7.948  0.2400  1.0094  0.1947
  474MOL0     C63918  10.376   8.220   7.946 -0.1081 -0.4527 -0.6984
  474MOL0     C63919  10.472   8.212   7.835  0.3445 -0.3935 -0.1486
  474MOL0     C63920  10.562   8.194   7.757  0.2938 -0.6004 -0.3953
  474MOL0     C63921   9.772   8.349   7.955  1.2226  0.6618  0.2343
  474MOL0     C63922   9.636   8.387   7.939 -0.1475  0.6221  0.1192
  474MOL0     H63923   9.303   8.634   7.692  1.1929 -0.7584  2.2620
  474MOL0     H63924   9.068   8.708   7.639 -1.0820  1.2712 -0.3136
  474MOL0     H63925   8.880   8.853   7.594 -1.1528 -2.3911 -1.6810
  474MOL0     H63926   8.848   8.711   7.706  0.0111  0.0464  0.4734
  474MOL0     H63927   8.682   8.851   7.821  1.5898 -0.5580  0.2399
  474MOL0     H63928   8.700   8.988   7.711  0.8856  0.0782 -1.9732
  474MOL0     H63929   8.643   8.835   7.523  0.8513 -3.7832 -0.6722
  474MOL0     H63930   8.603   8.700   7.639 -1.1285  0.2298  1.3576
  474MOL0     H63931   8.454   8.962   7.602 -2.5184  0.6901  1.7765
  474MOL0     H63932   8.392   8.806   7.571  0.6977 -1.3690  1.0589
  474MOL0     H63933   8.424   8.755   7.821 -1.6409  0.8282  1.1682
  474MOL0     H63934   8.448   8.933   7.846 -0.9465  1.2157 -0.2495
  474MOL0     H63935   8.210   8.910   7.873 -2.6035 -2.7957 -0.8044
  474MOL0     H63936   8.256   8.975   7.705 -1.6087 -0.0648  0.2169
  474MOL0     H63937   8.132   8.796   7.608 -2.9977  0.6382 -0.3068
  474MOL0     H63938   8.209   8.694   7.729  2.4694  1.9706 -0.3758
  474MOL0     H63939   7.958   8.874   7.776  0.6372  1.2804  1.2383
  474MOL0     H63940   8.038   8.768   7.900  2.8964 -1.2760 -0.9274
  474MOL0     H63941   7.728   8.783   7.758 -2.3681 -1.0645 -0.2858
  474MOL0     H63942   7.528   8.565   7.655 -0.1227  2.1411  2.9222
  474MOL0     H63943   7.589   8.407   7.735 -0.0994 -0.6257  3.2090
  474MOL0     H63944   7.501   8.661   7.866  2.7503 -0.7991  2.3529
  474MOL0     H63945   7.592   8.552   7.947  0.8933  3.1258  0.2329
  474MOL0     H63946   7.371   8.493   7.991 -2.6183 -0.6269  0.1875
  474MOL0     H63947   7.438   8.366   7.872  1.3013  0.3125 -1.9902
  474MOL0     H63948   7.305   8.538   7.698 -1.5009 -0.7049 -0.8569
  474MOL0     H63949   7.228   8.594   7.839 -0.1456 -0.3899 -1.3657
  474MOL0     H63950   7.095   8.182   7.786  2.4793  0.0970 -1.1838
  474MOL0     H63951   6.913   8.007   7.738  0.1781 -0.0801 -1.9952
  474MOL0     H63952   6.756   8.071   7.767  0.0383 -1.7703 -0.1035
  474MOL0     H63953   6.800   8.076   7.599  2.0908  2.7040 -1.4690
  474MOL0     H63954   6.421   8.646   7.730  0.9238 -0.4781  0.9033
  474MOL0     H63955   6.202   8.679   7.648 -0.4256  0.5025 -0.1937
  474MOL0     H63956   6.035   8.549   7.701 -1.8834  0.1999  0.7468
  474MOL0     H63957   5.993   8.696   7.620  1.4388  0.1098  2.5514
  474MOL0     H63958   5.798   8.525   7.514 -3.3143 -4.8084  0.8886
  474MOL0     H63959   5.854   8.431   7.651  2.9692  0.9942  1.6836
  474MOL0     H63960   5.741   8.714   7.671 -2.8895 -0.8749 -0.0207
  474MOL0     H63961   5.809   8.619   7.803  0.4538 -0.7675  0.1127
  474MOL0     H63962   5.620   8.437   7.744  0.4750  0.0123  0.6553
  474MOL0     H63963   5.569   8.575   7.833  2.2671  1.6209 -0.2180
  474MOL0     H63964   5.555   8.583   7.529 -1.4396 -0.0472 -0.5386
  474MOL0     H63965   5.475   8.685   7.645  1.0262  0.3051 -1.3632
  474MOL0     H63966   5.432   8.400   7.608  1.7524  0.3244  0.3838
  474MOL0     H63967   5.369   8.476   7.742  1.9314  2.9951  0.8476
  474MOL0     H63968   5.316   8.542   7.447 -1.2568  1.3591 -0.2713
  474MOL0     H63969   5.244   8.644   7.579  2.1583  1.0215  0.6863
  474MOL0     H63970   5.126   8.423   7.655 -1.1776 -1.6329 -0.1503
  474MOL0     H63971   5.185   8.349   7.504  3.1170  0.7813  0.5595
  474MOL0     H63972   6.209   8.322   7.411 -2.0788 -0.0577  1.7379
  474MOL0     H63973   6.446   8.303   7.457  0.4731 -2.5268  3.3470
  474MOL0     H63974   6.786   8.547   7.665 -1.9352 -1.3580  0.5446
  474MOL0     H63975   7.011   8.592   7.735  0.2906  0.1558  0.1205
  474MOL0     H63976   9.053   8.916   8.007 -0.3866 -0.2560  0.4564
  474MOL0     H63977   9.287   8.811   8.086  0.3003  0.2551  0.5237
  474MOL0     H63978   9.678   8.723   7.919  1.0028  0.1756 -0.2765
  474MOL0     H63979   9.915   8.652   7.922  0.5651 -0.1866 -0.7317
  474MOL0     H63980  10.130   8.497   8.086  1.5160  1.0472 -3.6883
  474MOL0     H63981  10.007   8.387   8.142  1.5026  0.3639  0.6321
  474MOL0     H63982  10.117   8.214   8.008  0.1745 -0.8176  1.0713
  474MOL0     H63983  10.229   8.275   8.135  0.5323 -1.7114 -0.9330
  474MOL0     H63984  10.309   8.440   7.986 -0.0707  0.4584  1.9670
  474MOL0     H63985  10.255   8.363   7.843  0.3183  2.1576  0.4023
  474MOL0     H63986  10.314   8.130   7.941  0.4451 -0.8745 -0.1446
  474MOL0     H63987  10.417   8.218   8.047  1.0444 -1.9607 -1.1674
  474MOL0     H63988  10.640   8.171   7.687  1.2002 -0.4068  0.5365
  474MOL0     H63989   9.799   8.243   7.954  1.2601  0.6189 -3.1390
  474MOL0     H63990   9.560   8.310   7.935 -1.3137  1.7888 -0.8420
  475MOL0     O63991   0.691   4.371   3.303  0.1744  0.3226  0.2574
  475MOL0     C63992   0.706   4.289   3.217  0.4074  1.1070  0.0059
  475MOL0     O63993   0.607   4.257   3.125 -0.0035  0.2687  0.0012
  475MOL0     C63994   0.484   4.306   3.138  0.9040 -0.0415 -0.8314
  475MOL0     C63995   0.467   4.440   3.119 -0.2213 -0.6737  0.7151
  475MOL0     C63996   0.339   4.495   3.140 -0.7999 -0.2801 -0.3302
  475MOL0     C63997   0.230   4.414   3.173  0.0941  0.8288  0.8246
  475MOL0     O63998   0.097   4.455   3.173 -0.5292 -0.4614 -0.8214
  475MOL0     C63999   0.073   4.591   3.142  0.1140 -0.2765  0.2802
  475MOL0     C64000   0.089   4.624   2.993  0.6426  0.2995 -0.7210
  475MOL0     C64001  -0.012   4.544   2.913  0.0177 -0.3639  0.1907
  475MOL0     C64002  -0.031   4.593   2.768  0.0018  0.2328 -0.7405
  475MOL0     C64003  -0.117   4.489   2.686 -0.5450 -0.5905  0.3693
  475MOL0     C64004  -0.264   4.479   2.736 -0.7078  0.3006  0.1082
  475MOL0     C64005  -0.356   4.396   2.636  0.0645 -0.4114 -0.2685
  475MOL0     C64006  -0.509   4.410   2.656  0.4395  0.0000  0.5249
  475MOL0     N64007  -0.594   4.312   2.588  0.0141 -0.1446  0.0070
  475MOL0     C64008  -0.620   4.316   2.452 -0.1368  0.4985 -0.0814
  475MOL0     C64009  -0.709   4.223   2.438  0.0427 -0.3771  0.5312
  475MOL0     C64010  -0.811   4.191   2.327 -0.6490  0.5469  0.3350
  475MOL0     C64011  -0.937   4.275   2.347  0.2889 -0.2321  0.3473
  475MOL0     C64012  -1.036   4.251   2.237  0.6719  0.4431 -0.0557
  475MOL0     C64013  -1.165   4.338   2.260  1.0685 -0.7194 -0.6444
  475MOL0     O64014  -1.247   4.331   2.143 -0.1696  0.5871  0.4388
  475MOL0     C64015  -1.377   4.378   2.143  0.8118 -0.1831 -0.1746
  475MOL0     C64016  -1.441   4.382   2.025  0.0565 -0.0050 -0.0411
  475MOL0     C64017  -1.571   4.435   2.011  0.4182 -0.6675 -0.1982
  475MOL0     C64018  -1.629   4.437   1.870  0.5300 -0.0842  0.4482
  475MOL0     C64019  -1.642   4.492   2.125 -0.2853  0.9003  0.2649
  475MOL0     C64020  -1.779   4.547   2.134 -0.4068  1.1465  1.0589
  475MOL0     O64021  -1.830   4.560   2.257 -0.2249  0.5613  0.1967
  475MOL0     C64022  -1.946   4.623   2.296 -0.4440 -0.2217  0.2780
  475MOL0     C64023  -2.066   4.599   2.226 -0.2799 -0.0665 -0.7021
  475MOL0     C64024  -2.173   4.680   2.268  0.1215 -0.3782  0.2846
  475MOL0     C64025  -2.173   4.772   2.369  0.0045  0.4567 -1.2005
  475MOL0     O64026  -2.287   4.849   2.392 -0.1293  0.3247  0.3425
  475MOL0     C64027  -2.305   4.902   2.525  0.1753  0.3535  0.1780
  475MOL0     C64028  -2.457   4.905   2.536  0.5033  0.0530 -0.7771
  475MOL0     C64029  -2.501   4.784   2.610  0.1612  0.0993 -0.2124
  475MOL0     C64030  -2.648   4.772   2.622 -0.1240  0.1007  0.3699
  475MOL0     C64031  -2.679   4.639   2.700  0.7113 -0.4757 -0.2241
  475MOL0     C64032  -2.836   4.636   2.713 -0.2310 -0.3437 -0.4940
  475MOL0     C64033  -2.876   4.489   2.750  0.6786  0.0945  0.0054
  475MOL0     C64034  -3.028   4.477   2.759  0.0274  0.1640 -0.1168
  475MOL0    Cl64035  -3.097   4.548   2.909 -0.3568  0.2785  0.0808
  475MOL0     C64036  -2.046   4.802   2.434  0.6873  0.2653 -0.2016
  475MOL0     C64037  -1.937   4.722   2.403 -0.4982 -0.7812 -0.3814
  475MOL0     O64038  -1.837   4.576   2.023 -1.0766 -0.0297 -0.5853
  475MOL0     C64039  -1.576   4.477   2.251 -0.6972 -0.0571 -0.4042
  475MOL0     C64040  -1.443   4.426   2.257 -0.0453  0.3978  0.0586
  475MOL0     N64041  -0.724   4.145   2.555  0.2434 -0.7194  0.5208
  475MOL0     N64042  -0.655   4.208   2.645  0.1090 -0.3995 -0.0991
  475MOL0     C64043   0.251   4.281   3.179 -0.0357  0.2074 -0.1962
  475MOL0     C64044   0.381   4.226   3.164  0.8341  0.1014  0.9091
  475MOL0     C64045   0.838   4.219   3.211 -0.3834  0.4369 -0.6511
  475MOL0     C64046   0.851   4.122   3.113 -0.1453  0.4367  1.1388
  475MOL0     C64047   0.971   4.042   3.099 -0.2748 -0.2461  0.0159
  475MOL0     C64048   1.068   4.050   3.198  0.1855  0.8415 -0.1196
  475MOL0     O64049   1.183   3.973   3.184  0.6963  0.1523  0.0355
  475MOL0     C64050   1.289   3.973   3.283  0.2715  0.6574  0.1226
  475MOL0     C64051   1.305   3.841   3.354 -0.0505  0.2406 -0.3725
  475MOL0     C64052   1.188   3.783   3.449  0.3934 -0.1098  0.2168
  475MOL0     C64053   1.153   3.882   3.565  0.0839 -0.6691 -0.4450
  475MOL0     C64054   1.271   3.917   3.637 -0.7481  0.4649 -0.2087
  475MOL0     C64055   1.370   3.954   3.705  0.2624  0.1523  0.0875
  475MOL0     C64056   1.043   4.140   3.307  0.2931 -0.5648  0.5789
  475MOL0     C64057   0.925   4.221   3.312 -0.5510 -1.1401 -0.3801
  475MOL0     H64058   0.545   4.514   3.104 -0.0646 -0.2776  3.0711
  475MOL0     H64059   0.329   4.602   3.120 -2.1121  0.0627  1.8165
  475MOL0     H64060  -0.027   4.626   3.170  0.0897  0.4578 -0.6644
  475MOL0     H64061   0.150   4.643   3.200  1.5380  1.6181 -3.0142
  475MOL0     H64062   0.071   4.731   2.979  2.3357  0.4403 -2.1754
  475MOL0     H64063   0.186   4.594   2.951  0.1001  0.1084 -1.8802
  475MOL0     H64064   0.025   4.441   2.915  0.5010 -0.1983  0.0772
  475MOL0     H64065  -0.106   4.555   2.967 -0.4064  0.4669 -0.7024
  475MOL0     H64066  -0.093   4.683   2.773 -2.1729 -1.2343  0.3509
  475MOL0     H64067   0.069   4.608   2.726  0.4982 -0.9763 -0.0338
  475MOL0     H64068  -0.114   4.509   2.579 -0.7251 -0.5347  0.3742
  475MOL0     H64069  -0.066   4.393   2.698  1.5493  0.6902  2.9390
  475MOL0     H64070  -0.269   4.430   2.833 -4.0285 -0.3773 -0.3003
  475MOL0     H64071  -0.291   4.585   2.744  1.2143  0.6844  4.8306
  475MOL0     H64072  -0.352   4.436   2.534 -1.1470  1.4718  0.3674
  475MOL0     H64073  -0.316   4.294   2.631  0.1503 -0.3461 -1.0705
  475MOL0     H64074  -0.555   4.506   2.631 -2.0894 -1.4850 -0.9943
  475MOL0     H64075  -0.515   4.397   2.765 -0.8049 -1.5915  0.3036
  475MOL0     H64076  -0.596   4.390   2.376  1.0246  0.5247  0.2926
  475MOL0     H64077  -0.760   4.219   2.234  0.1655 -1.0072  0.2924
  475MOL0     H64078  -0.833   4.084   2.330  1.3356  0.1136  0.6610
  475MOL0     H64079  -0.905   4.380   2.347 -2.4650  0.7260  2.6093
  475MOL0     H64080  -0.982   4.258   2.445  1.2313  0.4874  0.9343
  475MOL0     H64081  -1.054   4.143   2.237 -4.2398  1.0137  1.0346
  475MOL0     H64082  -0.981   4.272   2.145 -0.3256  0.0175 -0.7708
  475MOL0     H64083  -1.155   4.445   2.281 -0.3722 -0.6751 -0.0190
  475MOL0     H64084  -1.228   4.306   2.344  0.0572  1.5320 -0.4710
  475MOL0     H64085  -1.398   4.333   1.938 -0.9026 -0.5167 -0.2492
  475MOL0     H64086  -1.663   4.534   1.833 -1.0417 -1.8178 -3.2237
  475MOL0     H64087  -1.557   4.395   1.799  1.8909  1.7405  0.6945
  475MOL0     H64088  -1.716   4.370   1.869 -0.4345  1.1250 -0.4593
  475MOL0     H64089  -2.057   4.529   2.144 -0.1654 -0.7531 -0.1175
  475MOL0     H64090  -2.264   4.656   2.214  0.5351  1.9993 -1.6541
  475MOL0     H64091  -2.269   4.834   2.602  0.5268  0.0532 -0.2486
  475MOL0     H64092  -2.268   5.004   2.542  0.4962  0.2858 -0.1120
  475MOL0     H64093  -2.483   5.001   2.580  0.1562 -0.0829 -0.6840
  475MOL0     H64094  -2.503   4.917   2.437 -0.8722 -0.2612 -0.1941
  475MOL0     H64095  -2.457   4.774   2.709  0.2922  1.6194 -0.0984
  475MOL0     H64096  -2.469   4.699   2.549  0.0551  0.6055 -0.9930
  475MOL0     H64097  -2.691   4.853   2.682 -0.0683  0.2031  0.2727
  475MOL0     H64098  -2.681   4.770   2.518 -1.9725  1.0921  0.8949
  475MOL0     H64099  -2.631   4.632   2.798  0.6869  1.8749  0.0264
  475MOL0     H64100  -2.642   4.560   2.634 -1.2054  0.7145 -2.9442
  475MOL0     H64101  -2.874   4.699   2.794 -0.8330 -1.9467  0.5007
  475MOL0     H64102  -2.891   4.661   2.622 -1.5139  0.7408  0.5274
  475MOL0     H64103  -2.837   4.463   2.849 -1.2341  0.4068  0.8892
  475MOL0     H64104  -2.852   4.416   2.671 -1.6323  0.7121 -1.3705
  475MOL0     H64105  -3.049   4.373   2.736  0.0708  0.3214 -0.8891
  475MOL0     H64106  -3.081   4.536   2.684  0.2046  0.3742 -0.0787
  475MOL0     H64107  -2.030   4.876   2.511  0.4420  0.0698  0.0416
  475MOL0     H64108  -1.841   4.736   2.451 -0.7435 -0.6289  0.0701
  475MOL0     H64109  -1.624   4.487   2.347 -0.5738 -1.8168 -0.1230
  475MOL0     H64110  -1.399   4.411   2.355  0.1411 -0.2592 -0.1216
  475MOL0     H64111   0.170   4.216   3.210 -1.1800  2.1612  1.1223
  475MOL0     H64112   0.399   4.123   3.192  0.9115 -0.7620 -2.0463
  475MOL0     H64113   0.785   4.097   3.032 -0.1663 -0.6648  1.4860
  475MOL0     H64114   0.985   3.971   3.017  2.4206 -0.3021  0.4288
  475MOL0     H64115   1.384   3.994   3.233 -0.3126  2.4708 -0.2968
  475MOL0     H64116   1.276   4.048   3.361 -0.2693  0.3856  0.2923
  475MOL0     H64117   1.402   3.830   3.405  0.1887  0.3026 -0.8155
  475MOL0     H64118   1.316   3.763   3.278  1.6695  1.0801 -1.0231
  475MOL0     H64119   1.206   3.683   3.490 -3.2189  0.4313  3.7776
  475MOL0     H64120   1.100   3.782   3.384  0.3225  1.3577  0.2522
  475MOL0     H64121   1.088   3.839   3.643  0.5734  1.8368  1.4635
  475MOL0     H64122   1.104   3.963   3.511 -1.5555 -2.5957 -1.9929
  475MOL0     H64123   1.448   3.989   3.769 -0.6522 -0.1632  1.4306
  475MOL0     H64124   1.111   4.159   3.390  2.4630 -1.2693 -0.9333
  475MOL0     H64125   0.896   4.285   3.395 -0.0312 -0.6808 -0.5418
  476MOL0     O64126   0.162   3.364   8.475 -0.3690  0.3825  0.2769
  476MOL0     C64127   0.121   3.305   8.578  0.4265  0.6278  0.2399
  476MOL0     O64128  -0.002   3.315   8.638 -0.2939 -0.0453 -0.0782
  476MOL0     C64129  -0.089   3.385   8.572 -0.2064  0.3991  0.2820
  476MOL0     C64130  -0.185   3.326   8.486 -0.0131 -0.1649 -0.1515
  476MOL0     C64131  -0.284   3.402   8.427  0.4676 -0.1204 -0.3247
  476MOL0     C64132  -0.285   3.538   8.425 -0.2604  0.4090 -0.4385
  476MOL0     O64133  -0.361   3.620   8.344  0.9189 -0.8703  0.4604
  476MOL0     C64134  -0.403   3.565   8.217 -0.5179 -0.6014 -0.5447
  476MOL0     C64135  -0.454   3.663   8.110 -0.3401 -0.0260  0.3816
  476MOL0     C64136  -0.564   3.756   8.153  1.1155 -0.1700  0.0246
  476MOL0     C64137  -0.632   3.829   8.036  0.0694  0.1786  0.8464
  476MOL0     C64138  -0.746   3.922   8.091 -0.4337 -0.3254  0.5365
  476MOL0     C64139  -0.884   3.856   8.129  0.1396 -0.5666 -0.0398
  476MOL0     C64140  -0.990   3.968   8.168 -0.3639  0.5163 -0.1013
  476MOL0     C64141  -0.943   4.068   8.270 -0.3002  0.1309  0.0337
  476MOL0     N64142  -1.067   4.149   8.295  0.1216 -0.1070 -0.0780
  476MOL0     C64143  -1.114   4.253   8.211  0.3506  0.6215  1.0575
  476MOL0     C64144  -1.201   4.321   8.294 -0.0002 -1.1342 -0.1502
  476MOL0     C64145  -1.260   4.450   8.244  0.4171  0.4357 -0.1695
  476MOL0     C64146  -1.368   4.412   8.147  0.4680 -0.5533  0.5513
  476MOL0     C64147  -1.491   4.372   8.221  0.5554  0.9884 -0.3683
  476MOL0     C64148  -1.612   4.346   8.129 -0.1045  0.3687 -0.0605
  476MOL0     O64149  -1.737   4.363   8.200 -0.9257 -0.0861  0.1085
  476MOL0     C64150  -1.850   4.312   8.145 -0.4182  0.1087  0.0284
  476MOL0     C64151  -1.854   4.266   8.010 -0.3894  0.0418 -0.3857
  476MOL0     C64152  -1.982   4.252   7.949 -0.3018  0.4836 -0.4646
  476MOL0     C64153  -1.985   4.197   7.816  0.0830  0.3327  0.6044
  476MOL0     C64154  -2.098   4.292   8.027  0.0391 -0.0660  0.3072
  476MOL0     C64155  -2.234   4.293   7.970  0.7969 -0.0979 -1.1135
  476MOL0     O64156  -2.318   4.393   8.034 -0.1064 -0.3819  0.1030
  476MOL0     C64157  -2.444   4.390   7.990 -1.1383  0.9692  0.6023
  476MOL0     C64158  -2.531   4.291   8.020  0.1285 -0.2304 -0.6241
  476MOL0     C64159  -2.652   4.282   7.948 -0.2239 -0.0238 -1.1579
  476MOL0     C64160  -2.696   4.375   7.854 -0.6805  0.0234 -0.6741
  476MOL0     O64161  -2.812   4.373   7.782  0.3401 -0.5192 -0.1216
  476MOL0     C64162  -2.895   4.263   7.803  0.6021  0.3921  0.6616
  476MOL0     C64163  -3.015   4.290   7.721 -0.7110 -0.1352 -0.2248
  476MOL0     C64164  -3.086   4.419   7.759  0.2613 -0.1148 -0.1039
  476MOL0     C64165  -3.238   4.401   7.753 -0.2988  0.6549  0.6489
  476MOL0     C64166  -3.297   4.531   7.813 -0.1111 -0.3382  0.3334
  476MOL0     C64167  -3.446   4.518   7.864 -1.2644  0.5748  0.5023
  476MOL0     C64168  -3.485   4.642   7.939 -0.0090 -0.5586  0.1332
  476MOL0     C64169  -3.643   4.627   7.956 -0.3434 -0.3449  0.2714
  476MOL0    Cl64170  -3.704   4.794   8.007 -0.4061  0.5158 -0.0558
  476MOL0     C64171  -2.612   4.480   7.823 -0.5053  0.2561 -0.5374
  476MOL0     C64172  -2.484   4.478   7.885 -0.5649  0.5389 -0.2242
  476MOL0     O64173  -2.268   4.197   7.896  0.4215 -0.3097 -0.3395
  476MOL0     C64174  -2.080   4.320   8.165  0.2530 -0.0283 -0.4977
  476MOL0     C64175  -1.956   4.318   8.227 -0.2923 -0.3946  0.1251
  476MOL0     N64176  -1.205   4.264   8.416 -0.4476  0.2059  0.0989
  476MOL0     N64177  -1.120   4.166   8.424 -0.5175  0.5809 -0.6308
  476MOL0     C64178  -0.178   3.599   8.500 -0.3690  0.9506  0.6940
  476MOL0     C64179  -0.077   3.526   8.569 -0.0062  0.5529  0.0722
  476MOL0     C64180   0.220   3.238   8.652  0.5900  0.0729  1.2315
  476MOL0     C64181   0.202   3.205   8.788 -0.1520  0.8740  0.2063
  476MOL0     C64182   0.299   3.140   8.866 -0.2536 -0.3191  0.3864
  476MOL0     C64183   0.422   3.111   8.804  0.3682  0.2494 -0.3294
  476MOL0     O64184   0.514   3.059   8.900  0.5671 -0.5527  0.7125
  476MOL0     C64185   0.653   3.066   8.856  0.4301 -0.1660 -0.2213
  476MOL0     C64186   0.707   3.211   8.869 -0.6714  0.7638 -0.7212
  476MOL0     C64187   0.677   3.263   9.008  0.3829 -0.5858 -0.6040
  476MOL0     C64188   0.787   3.231   9.111  0.0868  0.1152  0.0437
  476MOL0     C64189   0.749   3.305   9.230 -0.5307  0.3967 -0.3395
  476MOL0     C64190   0.722   3.374   9.328 -0.3469 -0.2719  0.3145
  476MOL0     C64191   0.444   3.146   8.666  0.1071 -0.2392  0.0389
  476MOL0     C64192   0.342   3.211   8.593  0.0788  0.2849 -0.6374
  476MOL0     H64193  -0.181   3.219   8.501  0.2549 -0.2401 -0.7328
  476MOL0     H64194  -0.359   3.341   8.378 -0.3166 -0.1448  0.8760
  476MOL0     H64195  -0.315   3.517   8.172 -0.8270 -0.7681 -0.9778
  476MOL0     H64196  -0.485   3.496   8.236 -0.0325 -0.6253  1.6696
  476MOL0     H64197  -0.382   3.738   8.076 -1.8217  0.4284 -2.1174
  476MOL0     H64198  -0.480   3.612   8.017  1.3548 -1.0645  0.4443
  476MOL0     H64199  -0.639   3.701   8.210  2.8366  0.7374  3.3935
  476MOL0     H64200  -0.517   3.828   8.220 -0.7442  1.9036 -0.7675
  476MOL0     H64201  -0.558   3.897   7.993 -1.1196  1.3613  0.5857
  476MOL0     H64202  -0.679   3.762   7.963 -3.0044  0.4746  2.3638
  476MOL0     H64203  -0.702   3.974   8.176  0.4884 -1.1626  0.5847
  476MOL0     H64204  -0.769   3.998   8.016 -2.2902  0.3321  1.7037
  476MOL0     H64205  -0.930   3.801   8.046 -0.5447 -0.0791  0.0097
  476MOL0     H64206  -0.867   3.786   8.212  4.0020  0.2267  0.0405
  476MOL0     H64207  -1.004   4.017   8.071  0.8566 -0.1246 -0.6275
  476MOL0     H64208  -1.087   3.924   8.193 -0.6054 -1.7869 -4.1459
  476MOL0     H64209  -0.859   4.128   8.235 -1.3969  1.7432  0.0919
  476MOL0     H64210  -0.925   4.019   8.366 -0.0666  1.5413  0.7342
  476MOL0     H64211  -1.079   4.284   8.113 -0.0493  1.0550  1.0459
  476MOL0     H64212  -1.305   4.515   8.320 -1.3118 -1.9642  0.9951
  476MOL0     H64213  -1.185   4.500   8.183 -0.4622 -0.5360 -2.1333
  476MOL0     H64214  -1.328   4.341   8.074  1.0928 -0.5579  0.8927
  476MOL0     H64215  -1.394   4.502   8.090 -2.4801 -1.2306  0.6693
  476MOL0     H64216  -1.526   4.450   8.290  0.1329 -0.0375  0.5981
  476MOL0     H64217  -1.474   4.282   8.280  0.3232  0.1917 -1.4841
  476MOL0     H64218  -1.600   4.241   8.099 -1.2383  0.2502 -0.1404
  476MOL0     H64219  -1.603   4.415   8.044  2.4137  1.2788  0.8529
  476MOL0     H64220  -1.761   4.233   7.964 -0.4850 -0.5455 -0.1759
  476MOL0     H64221  -1.890   4.211   7.763 -0.5069 -3.2490 -1.7780
  476MOL0     H64222  -1.991   4.088   7.828  2.9965 -0.0733 -0.5748
  476MOL0     H64223  -2.061   4.230   7.744  1.0459 -1.1566 -1.2081
  476MOL0     H64224  -2.509   4.218   8.097 -0.0804  0.6687  0.3140
  476MOL0     H64225  -2.721   4.200   7.966 -1.7575  1.5209  0.3525
  476MOL0     H64226  -2.847   4.175   7.760  0.2105  0.7516 -0.5388
  476MOL0     H64227  -2.923   4.256   7.909 -0.2771 -3.4091  0.3020
  476MOL0     H64228  -2.977   4.287   7.619  1.7911  1.6759  0.5564
  476MOL0     H64229  -3.083   4.205   7.736  0.2409 -0.9575 -0.4254
  476MOL0     H64230  -3.073   4.498   7.684  0.0159 -0.5001 -0.5634
  476MOL0     H64231  -3.051   4.453   7.856  2.1112 -0.8106 -0.4727
  476MOL0     H64232  -3.275   4.382   7.651  0.8764  2.3331 -0.1435
  476MOL0     H64233  -3.269   4.322   7.821  0.2216  0.1985  0.3688
  476MOL0     H64234  -3.288   4.618   7.747 -1.7300 -0.1547  0.3101
  476MOL0     H64235  -3.237   4.561   7.900 -0.8792  0.7762  0.4983
  476MOL0     H64236  -3.513   4.493   7.782  0.9197  0.2509 -1.2831
  476MOL0     H64237  -3.432   4.441   7.940 -0.3509  1.0741  0.8561
  476MOL0     H64238  -3.454   4.738   7.896  0.5652  0.2859  2.2840
  476MOL0     H64239  -3.424   4.624   8.028  0.3856 -2.2708 -0.4579
  476MOL0     H64240  -3.661   4.553   8.034  0.8106  1.0055  1.9090
  476MOL0     H64241  -3.690   4.587   7.866 -1.7321  0.0916  0.7853
  476MOL0     H64242  -2.648   4.562   7.761 -1.9944 -1.2705 -1.8096
  476MOL0     H64243  -2.412   4.557   7.868  0.5758 -0.6645 -1.1345
  476MOL0     H64244  -2.160   4.339   8.236 -0.2957  1.5465 -1.4847
  476MOL0     H64245  -1.945   4.350   8.330 -0.4889  2.2566 -0.6150
  476MOL0     H64246  -0.168   3.707   8.493 -2.3495  1.0619 -1.3294
  476MOL0     H64247   0.006   3.579   8.615  0.3040  0.9405 -0.8845
  476MOL0     H64248   0.116   3.247   8.840  0.0233  0.5774  0.7420
  476MOL0     H64249   0.289   3.127   8.974  2.3924 -1.5881  0.5694
  476MOL0     H64250   0.712   3.000   8.919 -1.2163 -1.5024 -0.0064
  476MOL0     H64251   0.658   3.018   8.758 -0.3480  1.3804 -1.0590
  476MOL0     H64252   0.663   3.275   8.792 -1.5362 -0.9718 -1.7374
  476MOL0     H64253   0.817   3.213   8.863 -0.6933  1.2188 -0.9607
  476MOL0     H64254   0.586   3.224   9.053  0.6049 -0.1719  0.2319
  476MOL0     H64255   0.662   3.371   9.001 -0.6308 -0.6252  0.6717
  476MOL0     H64256   0.882   3.262   9.067  0.3073 -1.4420 -0.6363
  476MOL0     H64257   0.798   3.122   9.120  3.3601  0.2986 -0.6074
  476MOL0     H64258   0.719   3.433   9.418  4.2950 -0.5332  0.8522
  476MOL0     H64259   0.541   3.137   8.619  0.3289  2.1253 -0.0890
  476MOL0     H64260   0.379   3.230   8.493  2.0062 -1.7213 -0.3969
  477MOL0     O64261   9.061   8.351   4.790 -0.0926 -0.1617 -0.0471
  477MOL0     C64262   9.167   8.300   4.824  0.1812 -0.8204  0.0813
  477MOL0     O64263   9.182   8.247   4.940 -0.5563  0.4455  0.5937
  477MOL0     C64264   9.083   8.228   5.031 -0.1431  0.2043 -0.0061
  477MOL0     C64265   8.948   8.200   4.998 -0.4557 -1.0236 -0.6525
  477MOL0     C64266   8.849   8.203   5.099 -0.6850  0.1346  0.3397
  477MOL0     C64267   8.885   8.237   5.230 -0.3569  0.5572 -0.3319
  477MOL0     O64268   8.798   8.255   5.345  0.5177 -0.1487  0.1647
  477MOL0     C64269   8.666   8.204   5.332 -0.2903 -0.0168  0.8876
  477MOL0     C64270   8.572   8.206   5.456  0.1247  0.3935 -0.1904
  477MOL0     C64271   8.443   8.124   5.423  0.0183 -0.8610  0.6067
  477MOL0     C64272   8.362   8.099   5.548  0.2459 -0.0127  0.8083
  477MOL0     C64273   8.222   8.048   5.504 -0.0355  0.8099 -0.4895
  477MOL0     C64274   8.153   7.989   5.633  0.0906 -0.8766 -0.9335
  477MOL0     C64275   7.999   7.969   5.618 -0.3555  1.0735  0.1973
  477MOL0     C64276   7.911   8.088   5.590  0.4285 -0.1728  0.2131
  477MOL0     N64277   7.924   8.191   5.690 -0.2215 -0.7937 -0.2133
  477MOL0     C64278   7.858   8.196   5.808 -0.4203  0.8186  0.5045
  477MOL0     C64279   7.907   8.304   5.871  0.4407 -0.0715 -0.0548
  477MOL0     C64280   7.881   8.349   6.014  0.0471 -0.5247 -0.0863
  477MOL0     C64281   7.760   8.434   6.028 -0.3928 -0.0656  0.5980
  477MOL0     C64282   7.768   8.573   5.954  0.0545  0.0891 -0.1568
  477MOL0     C64283   7.655   8.673   5.997 -0.0080  0.6246  0.7634
  477MOL0     O64284   7.524   8.609   6.002  0.3713  0.3396  0.1077
  477MOL0     C64285   7.413   8.692   6.031  0.5062  0.3588 -0.5024
  477MOL0     C64286   7.413   8.817   6.091  0.1995  0.4894  0.5809
  477MOL0     C64287   7.300   8.890   6.125  0.2342 -0.3885 -0.3788
  477MOL0     C64288   7.311   9.019   6.200 -0.4158  0.3680 -0.3959
  477MOL0     C64289   7.173   8.840   6.093  0.0236  0.0797  0.0983
  477MOL0     C64290   7.043   8.896   6.140  0.1100  0.5041  0.2830
  477MOL0     O64291   6.947   8.800   6.148  0.1244  0.0322  0.9958
  477MOL0     C64292   6.818   8.834   6.180 -0.4282 -0.4958  0.3854
  477MOL0     C64293   6.786   8.943   6.260 -0.7833  0.8160  0.2200
  477MOL0     C64294   6.648   8.973   6.294 -0.1369 -0.5089 -0.3707
  477MOL0     C64295   6.542   8.897   6.235  0.4075 -0.0980  0.1900
  477MOL0     O64296   6.407   8.932   6.259  0.0389  0.2422 -0.2606
  477MOL0     C64297   6.297   8.899   6.170  0.0002  0.5534 -0.2956
  477MOL0     C64298   6.217   8.777   6.224  0.0681 -0.0847  0.0408
  477MOL0     C64299   6.105   8.747   6.128 -0.1678  0.4566 -0.2007
  477MOL0     C64300   5.989   8.844   6.138 -0.1828 -2.0231  0.1515
  477MOL0     C64301   5.867   8.804   6.064  0.2209  0.7193 -0.8936
  477MOL0     C64302   5.746   8.897   6.064  0.3241 -0.2573  0.3957
  477MOL0     C64303   5.772   9.024   5.980  0.1264  0.0868  0.1274
  477MOL0     C64304   5.658   9.123   5.998  0.0825 -0.7597 -0.1178
  477MOL0    Cl64305   5.631   9.170   6.167 -0.2865  0.4768 -0.0265
  477MOL0     C64306   6.584   8.792   6.146 -0.6239  0.0380  0.6372
  477MOL0     C64307   6.719   8.759   6.131  1.1807 -0.7259  0.0020
  477MOL0     O64308   7.027   9.017   6.138  0.0102  0.2552  0.8093
  477MOL0     C64309   7.174   8.711   6.031 -0.1182  0.2901 -0.1889
  477MOL0     C64310   7.291   8.640   6.004 -0.1987  0.6215  0.1081
  477MOL0     N64311   7.991   8.373   5.789 -0.1246 -0.1812 -0.4280
  477MOL0     N64312   8.011   8.298   5.683 -0.0647 -0.0822 -0.2635
  477MOL0     C64313   9.023   8.257   5.263  0.4341 -0.0389  0.5940
  477MOL0     C64314   9.112   8.258   5.160 -0.3013 -1.0009 -0.2087
  477MOL0     C64315   9.286   8.304   4.736  0.2770 -0.9210  0.2404
  477MOL0     C64316   9.398   8.225   4.759 -0.7376  0.5795  0.0065
  477MOL0     C64317   9.509   8.230   4.674 -0.7051 -0.2765  0.7292
  477MOL0     C64318   9.513   8.322   4.570 -0.0306  0.2514  0.1635
  477MOL0     O64319   9.627   8.341   4.499  0.3205  0.0916  0.1889
  477MOL0     C64320   9.745   8.253   4.518  0.3379  0.1466  0.5372
  477MOL0     C64321   9.856   8.305   4.426 -0.0330  0.3632 -0.0531
  477MOL0     C64322   9.991   8.226   4.419 -0.5032 -0.1040  0.4130
  477MOL0     C64323  10.090   8.330   4.372  0.5668 -0.2443 -0.2563
  477MOL0     C64324  10.232   8.290   4.354  1.4033  0.0287 -0.7822
  477MOL0     C64325  10.344   8.246   4.360  0.5760  0.2575 -0.1629
  477MOL0     C64326   9.414   8.414   4.558 -0.2664  0.5167 -0.2750
  477MOL0     C64327   9.297   8.397   4.633 -0.4471 -0.3091  0.5467
  477MOL0     H64328   8.912   8.183   4.897  0.3224 -0.1301 -1.0974
  477MOL0     H64329   8.747   8.182   5.068 -2.3165  2.5534  3.4409
  477MOL0     H64330   8.608   8.246   5.249 -3.8270 -0.2907  3.0068
  477MOL0     H64331   8.685   8.098   5.312 -3.9540 -0.2740 -2.3525
  477MOL0     H64332   8.625   8.148   5.532 -0.6210 -1.6268 -1.1247
  477MOL0     H64333   8.543   8.305   5.493 -0.3998 -0.3743  1.5354
  477MOL0     H64334   8.385   8.179   5.348  0.1837  2.1138  2.5232
  477MOL0     H64335   8.459   8.031   5.366 -2.5792  0.4528 -2.6072
  477MOL0     H64336   8.406   8.029   5.620 -1.0221 -1.6389  0.0632
  477MOL0     H64337   8.346   8.195   5.599  1.8934  1.5640 -1.4535
  477MOL0     H64338   8.161   8.135   5.477 -1.8274  0.7915  2.9090
  477MOL0     H64339   8.220   7.972   5.425 -2.8327 -0.1968  0.4143
  477MOL0     H64340   8.187   7.887   5.654 -0.8933 -0.8806  0.7935
  477MOL0     H64341   8.165   8.057   5.718 -0.1662 -1.7394 -0.1837
  477MOL0     H64342   7.983   7.896   5.539  0.9522  0.3728  0.5432
  477MOL0     H64343   7.964   7.917   5.708 -1.8290 -0.7799 -1.3733
  477MOL0     H64344   7.806   8.056   5.589 -0.5512  2.6416  2.3580
  477MOL0     H64345   7.929   8.127   5.489 -0.8017  1.0172  0.4195
  477MOL0     H64346   7.800   8.118   5.856  2.0292 -1.8060 -0.5080
  477MOL0     H64347   7.870   8.259   6.075 -1.8957  1.8411  3.3951
  477MOL0     H64348   7.966   8.404   6.056 -0.8510  0.2630  0.7144
  477MOL0     H64349   7.744   8.435   6.136  2.2937 -2.8359  1.1641
  477MOL0     H64350   7.679   8.380   5.978  0.2544 -1.5405  1.1055
  477MOL0     H64351   7.766   8.556   5.846  1.4181 -1.4486  0.0288
  477MOL0     H64352   7.873   8.603   5.962  0.2296 -0.5470 -0.0327
  477MOL0     H64353   7.656   8.758   5.929  0.4676  0.1084  0.1167
  477MOL0     H64354   7.687   8.709   6.096 -0.2690 -0.6223  1.3317
  477MOL0     H64355   7.511   8.859   6.113 -0.3772  1.6330  1.0836
  477MOL0     H64356   7.252   9.088   6.138 -1.5392 -0.6227 -0.4523
  477MOL0     H64357   7.274   9.023   6.303 -0.1405  2.0030 -0.3230
  477MOL0     H64358   7.410   9.065   6.194 -0.4867  0.9566  1.8161
  477MOL0     H64359   6.858   9.010   6.303 -0.5444  0.8974 -0.2951
  477MOL0     H64360   6.627   9.054   6.363 -0.1285 -1.5546  0.8879
  477MOL0     H64361   6.239   8.991   6.167 -0.0443  0.5654  0.6635
  477MOL0     H64362   6.342   8.872   6.073 -1.4650 -1.4274 -0.4841
  477MOL0     H64363   6.287   8.697   6.252 -0.4029 -0.5460 -0.0974
  477MOL0     H64364   6.181   8.811   6.322 -0.4553 -0.8959  0.1317
  477MOL0     H64365   6.064   8.646   6.136 -2.6491  1.4190  0.3821
  477MOL0     H64366   6.138   8.748   6.024 -2.3861 -1.4453 -1.0102
  477MOL0     H64367   5.953   8.854   6.241 -1.2702  4.1172 -0.4432
  477MOL0     H64368   6.029   8.943   6.115  0.8654 -2.0465  1.7342
  477MOL0     H64369   5.828   8.719   6.120  0.0197  2.5530  1.9354
  477MOL0     H64370   5.897   8.774   5.963  1.7725 -3.3266  0.5338
  477MOL0     H64371   5.662   8.835   6.032 -0.4006  1.0863 -0.3949
  477MOL0     H64372   5.721   8.937   6.163  2.6762  0.7044  0.6834
  477MOL0     H64373   5.783   8.998   5.875  1.5841  3.4499 -0.6887
  477MOL0     H64374   5.861   9.080   6.011 -0.8719  1.1021  1.2833
  477MOL0     H64375   5.564   9.076   5.968 -2.1031  1.6167  2.4213
  477MOL0     H64376   5.682   9.213   5.940 -3.9049  0.6116  0.0837
  477MOL0     H64377   6.511   8.737   6.088 -0.2521  0.7257 -0.5042
  477MOL0     H64378   6.738   8.671   6.069  0.0905 -1.3854  0.5785
  477MOL0     H64379   7.079   8.660   6.018 -1.3321  2.8426 -2.1372
  477MOL0     H64380   7.297   8.543   5.958 -0.0012  1.8315 -2.5870
  477MOL0     H64381   9.047   8.277   5.367 -3.9925 -0.0205  1.8158
  477MOL0     H64382   9.216   8.282   5.180 -0.7717 -0.2342  1.5072
  477MOL0     H64383   9.419   8.162   4.845  0.0247  0.1182 -0.5014
  477MOL0     H64384   9.593   8.163   4.690 -0.2831  0.1705  0.4161
  477MOL0     H64385   9.784   8.261   4.620 -0.5368  1.4435  0.7865
  477MOL0     H64386   9.727   8.149   4.488  4.0679 -0.3186 -0.6126
  477MOL0     H64387   9.868   8.401   4.477 -1.0459 -0.2254  1.3589
  477MOL0     H64388   9.820   8.313   4.323 -2.2172 -3.9818  0.1476
  477MOL0     H64389   9.983   8.146   4.346 -2.5533 -1.2804  1.7926
  477MOL0     H64390  10.025   8.184   4.514  2.0126  1.9415  0.5222
  477MOL0     H64391  10.099   8.405   4.451  1.7925  0.5944 -1.1425
  477MOL0     H64392  10.057   8.361   4.272 -1.1200 -0.4240  0.2294
  477MOL0     H64393  10.443   8.208   4.344 -0.7211 -3.4033 -0.6403
  477MOL0     H64394   9.418   8.487   4.478 -0.2055 -1.2438 -1.9581
  477MOL0     H64395   9.215   8.466   4.617 -0.8534 -0.7978  0.5040
  478MOL0     O64396   3.328   6.904   5.606 -0.5223 -0.1333  0.0190
  478MOL0     C64397   3.356   6.799   5.660  0.2888 -0.1427 -0.8482
  478MOL0     O64398   3.264   6.705   5.703 -1.4001  0.2517 -0.6932
  478MOL0     C64399   3.129   6.721   5.690  0.4870  1.5082 -0.3571
  478MOL0     C64400   3.064   6.726   5.566  0.3593 -0.7567  0.3576
  478MOL0     C64401   2.923   6.729   5.564 -0.1626  0.4348  0.2950
  478MOL0     C64402   2.851   6.733   5.680 -0.6114 -0.6934 -1.4134
  478MOL0     O64403   2.718   6.704   5.674  0.2186 -0.8184  0.3520
  478MOL0     C64404   2.645   6.705   5.796  0.0477  0.5500  0.8108
  478MOL0     C64405   2.495   6.685   5.760  0.2343 -0.1801  0.2656
  478MOL0     C64406   2.469   6.560   5.666 -0.5963 -0.3609  0.0959
  478MOL0     C64407   2.326   6.523   5.675 -0.4621 -0.0361  0.1800
  478MOL0     C64408   2.301   6.382   5.736 -0.3626  0.7343  0.6106
  478MOL0     C64409   2.293   6.384   5.892  0.8520 -0.4495 -0.0531
  478MOL0     C64410   2.251   6.246   5.935  0.2801  0.0856 -0.3541
  478MOL0     C64411   2.110   6.254   6.002 -0.7105 -0.0755  0.1823
  478MOL0     N64412   2.002   6.295   5.913 -0.5861  0.6973  0.0090
  478MOL0     C64413   1.954   6.208   5.819 -0.1902 -0.0431 -0.1126
  478MOL0     C64414   1.850   6.278   5.756  0.2705  0.2314 -0.6578
  478MOL0     C64415   1.770   6.211   5.647 -0.0186  0.0507  0.7822
  478MOL0     C64416   1.639   6.162   5.711 -0.1948 -0.1145  0.2743
  478MOL0     C64417   1.559   6.106   5.590 -0.1178  0.0752  0.3126
  478MOL0     C64418   1.418   6.077   5.626  0.3413 -0.3342 -0.2206
  478MOL0     O64419   1.344   6.039   5.515  0.0702  0.8117 -0.2472
  478MOL0     C64420   1.217   5.987   5.532 -0.9068 -0.1177 -0.8341
  478MOL0     C64421   1.122   6.015   5.630 -0.4894 -0.0961  0.0521
  478MOL0     C64422   1.004   5.941   5.637  0.6842  0.4378  0.3963
  478MOL0     C64423   0.911   5.968   5.744  0.2101 -0.6069  0.0616
  478MOL0     C64424   0.970   5.846   5.534  0.6673 -0.1308  0.0760
  478MOL0     C64425   0.854   5.752   5.529 -0.2846 -0.2091  0.2824
  478MOL0     O64426   0.801   5.749   5.402  0.5122 -0.5882  0.1484
  478MOL0     C64427   0.693   5.678   5.370 -0.7598 -0.3239  0.4857
  478MOL0     C64428   0.577   5.699   5.447  0.1693  0.7694 -0.3801
  478MOL0     C64429   0.472   5.606   5.432  0.3734 -0.0732  0.4083
  478MOL0     C64430   0.481   5.507   5.331  0.2313  0.1119  0.1721
  478MOL0     O64431   0.384   5.413   5.301  0.2382  0.3214  0.5811
  478MOL0     C64432   0.251   5.421   5.349  0.6048  0.6585  0.0685
  478MOL0     C64433   0.183   5.298   5.289 -0.0095  0.1922  0.6078
  478MOL0     C64434   0.045   5.264   5.359  0.5185 -0.0053  0.0813
  478MOL0     C64435   0.010   5.112   5.360 -0.0011  0.6159  0.1962
  478MOL0     C64436  -0.136   5.096   5.411  0.2417 -0.0036  0.3353
  478MOL0     C64437  -0.178   4.948   5.415 -0.1527 -0.4058 -0.7815
  478MOL0     C64438  -0.326   4.915   5.432  0.2330 -0.3945 -0.0896
  478MOL0     C64439  -0.398   4.950   5.301 -1.7295 -0.1459  0.2754
  478MOL0    Cl64440  -0.537   4.842   5.282  0.6073 -0.2556 -0.1778
  478MOL0     C64441   0.593   5.503   5.250 -0.4078 -0.0211  0.0852
  478MOL0     C64442   0.702   5.581   5.269  0.5545 -0.7468  0.6667
  478MOL0     O64443   0.813   5.695   5.630 -0.8157  0.2355 -0.1679
  478MOL0     C64444   1.062   5.832   5.429  0.1514 -0.2417  1.0420
  478MOL0     C64445   1.181   5.899   5.429  0.6129 -1.3320  0.1129
  478MOL0     N64446   1.850   6.398   5.821  0.1653  0.3512  0.3289
  478MOL0     N64447   1.949   6.416   5.902  0.6875  0.2812  0.3234
  478MOL0     C64448   2.920   6.749   5.802  0.8694  0.7829  0.5453
  478MOL0     C64449   3.057   6.746   5.803 -0.1410  0.4222 -0.6818
  478MOL0     C64450   3.497   6.766   5.674 -0.2160 -0.5654 -0.0324
  478MOL0     C64451   3.594   6.862   5.640  0.2389  0.2024 -0.2235
  478MOL0     C64452   3.725   6.837   5.673 -0.2923 -1.3051 -0.5976
  478MOL0     C64453   3.765   6.736   5.752 -0.2888  1.0537 -0.1489
  478MOL0     O64454   3.901   6.723   5.783  0.7642  0.1833 -0.2089
  478MOL0     C64455   3.946   6.614   5.873  0.5747 -0.3945 -0.4755
  478MOL0     C64456   4.096   6.616   5.887  0.1609  0.7457 -0.6773
  478MOL0     C64457   4.159   6.742   5.949 -0.0379 -0.4462  1.5044
  478MOL0     C64458   4.313   6.748   5.940 -0.7362  0.6165 -0.9195
  478MOL0     C64459   4.386   6.745   5.820 -0.3520  0.4921  0.1161
  478MOL0     C64460   4.456   6.741   5.723  0.3273  0.0653  0.1969
  478MOL0     C64461   3.666   6.635   5.779  0.3174  0.9460  0.2366
  478MOL0     C64462   3.535   6.651   5.754  0.8028  0.4291  0.4349
  478MOL0     H64463   3.113   6.707   5.472 -3.5468 -1.7313 -1.7148
  478MOL0     H64464   2.869   6.722   5.470 -0.6577 -3.3541  0.6961
  478MOL0     H64465   2.669   6.625   5.867  2.0843  1.3151  1.0558
  478MOL0     H64466   2.665   6.800   5.845  1.6196  0.5576  0.2093
  478MOL0     H64467   2.450   6.668   5.858  0.5470 -0.8881  0.2894
  478MOL0     H64468   2.461   6.779   5.715 -0.2592  0.0045  1.0048
  478MOL0     H64469   2.485   6.592   5.563  0.7362  1.2414  0.7485
  478MOL0     H64470   2.539   6.480   5.689 -1.6944 -0.8538  2.0160
  478MOL0     H64471   2.265   6.597   5.729 -0.8272 -0.4810  0.3891
  478MOL0     H64472   2.288   6.499   5.576  1.3773 -3.0157  0.0595
  478MOL0     H64473   2.207   6.344   5.695  0.2793 -0.6118  0.3212
  478MOL0     H64474   2.380   6.313   5.703 -1.1516  0.8743 -1.7240
  478MOL0     H64475   2.392   6.406   5.933  0.4540 -1.5817  1.6051
  478MOL0     H64476   2.225   6.464   5.922  2.1125  0.6899 -0.1137
  478MOL0     H64477   2.247   6.183   5.846  3.0611  1.0627 -1.2507
  478MOL0     H64478   2.330   6.205   5.999 -0.3751 -0.7337 -0.0475
  478MOL0     H64479   2.122   6.325   6.084  0.3035  0.6869 -0.6053
  478MOL0     H64480   2.078   6.154   6.032  0.9455 -0.8571 -0.5177
  478MOL0     H64481   1.972   6.101   5.810  1.0421  0.1219  0.2627
  478MOL0     H64482   1.752   6.283   5.566 -0.3601 -0.4599  0.3953
  478MOL0     H64483   1.834   6.131   5.608 -2.6749 -2.2160  0.7129
  478MOL0     H64484   1.574   6.242   5.748  0.3959  0.6212 -0.2435
  478MOL0     H64485   1.645   6.082   5.785  0.6249  0.2813  0.6484
  478MOL0     H64486   1.615   6.029   5.536  0.8352 -0.2135  1.6853
  478MOL0     H64487   1.561   6.193   5.524  2.0421 -0.0278  0.1901
  478MOL0     H64488   1.377   6.168   5.670 -1.2390 -1.0354 -0.1800
  478MOL0     H64489   1.416   6.001   5.705  1.9848  1.0681  1.2379
  478MOL0     H64490   1.144   6.081   5.714  2.8712  0.1405 -0.8868
  478MOL0     H64491   0.916   5.891   5.821  1.2389 -1.0522 -0.4412
  478MOL0     H64492   0.932   6.061   5.797  1.5354 -1.7565  1.6438
  478MOL0     H64493   0.811   5.975   5.699  0.8533 -1.0242 -1.4727
  478MOL0     H64494   0.583   5.771   5.527 -0.0709  1.2054 -0.7454
  478MOL0     H64495   0.395   5.620   5.507  2.1345 -1.8309  2.6974
  478MOL0     H64496   0.252   5.421   5.458  1.7624 -1.0047  0.1071
  478MOL0     H64497   0.204   5.510   5.307  2.7309  1.6552 -0.3009
  478MOL0     H64498   0.169   5.315   5.182  2.7145  1.9560  0.4294
  478MOL0     H64499   0.254   5.216   5.299 -2.0652 -2.0758 -2.0537
  478MOL0     H64500  -0.023   5.326   5.299  1.2052 -1.6128 -2.5462
  478MOL0     H64501   0.044   5.303   5.461  1.3749 -1.0607  0.5071
  478MOL0     H64502   0.004   5.069   5.259 -0.7511 -0.7769  0.8087
  478MOL0     H64503   0.085   5.051   5.411 -0.4579 -0.6279 -0.5448
  478MOL0     H64504  -0.194   5.149   5.336  2.8956  3.2236  0.3245
  478MOL0     H64505  -0.147   5.150   5.506  1.1173  1.5858 -0.4293
  478MOL0     H64506  -0.129   4.908   5.325  3.7650 -3.2627  2.2801
  478MOL0     H64507  -0.113   4.913   5.495  0.9080 -0.2583 -1.5410
  478MOL0     H64508  -0.368   4.971   5.517  1.3026 -0.6921  0.6635
  478MOL0     H64509  -0.351   4.810   5.449 -2.1359  0.1039 -0.1479
  478MOL0     H64510  -0.328   4.938   5.219 -0.6557  1.8774  0.8270
  478MOL0     H64511  -0.426   5.055   5.292  2.1587  0.9049 -1.9849
  478MOL0     H64512   0.592   5.433   5.167 -1.1224  2.6476 -2.3564
  478MOL0     H64513   0.801   5.559   5.230  0.4070  0.7693 -0.6207
  478MOL0     H64514   1.039   5.771   5.342 -0.3035 -0.3954  1.2646
  478MOL0     H64515   1.251   5.877   5.349  0.2147 -3.8658  0.4100
  478MOL0     H64516   2.872   6.754   5.899  0.7084 -1.6129  0.6528
  478MOL0     H64517   3.118   6.747   5.893  0.4734 -0.4644 -1.0661
  478MOL0     H64518   3.563   6.955   5.594 -2.0085  0.7811  2.1999
  478MOL0     H64519   3.799   6.913   5.648  0.3036 -1.6091  0.2299
  478MOL0     H64520   3.897   6.633   5.969 -0.2516  0.4344 -1.0534
  478MOL0     H64521   3.906   6.522   5.829 -0.5824 -0.7053  1.1450
  478MOL0     H64522   4.144   6.597   5.791  0.2891 -1.9088 -0.1653
  478MOL0     H64523   4.115   6.527   5.949  0.3920  1.0828 -0.2575
  478MOL0     H64524   4.137   6.758   6.055 -0.5692 -0.6996  1.4348
  478MOL0     H64525   4.113   6.829   5.900 -0.0227 -0.3735  1.6178
  478MOL0     H64526   4.352   6.667   6.002  0.0980  1.4468 -0.3491
  478MOL0     H64527   4.341   6.839   5.993  0.2208 -1.2761  2.0651
  478MOL0     H64528   4.522   6.751   5.639  1.3630 -2.6416  0.5655
  478MOL0     H64529   3.691   6.547   5.837 -1.8852  0.3218  0.3414
  478MOL0     H64530   3.468   6.570   5.784  0.1777 -0.1928 -2.3334
  479MOL0     O64531   8.975   2.936   4.021  0.6746  0.4104  0.3894
  479MOL0     C64532   8.989   3.050   4.041  0.7576 -0.2091 -0.4129
  479MOL0     O64533   8.916   3.149   3.978 -0.4206 -0.9522  0.1917
  479MOL0     C64534   8.809   3.135   3.891  0.2526  0.4534  0.3050
  479MOL0     C64535   8.745   3.248   3.861  0.0344 -0.2399  0.8208
  479MOL0     C64536   8.641   3.261   3.773  0.2759 -0.1687  0.3937
  479MOL0     C64537   8.594   3.148   3.710 -0.6290  0.1238 -1.0054
  479MOL0     O64538   8.484   3.173   3.636 -0.0054  0.6614 -0.3979
  479MOL0     C64539   8.394   3.066   3.610  0.0704  0.3499 -0.0708
  479MOL0     C64540   8.259   3.123   3.573  0.7268 -0.4888 -0.3777
  479MOL0     C64541   8.266   3.252   3.481  0.1405  0.2754 -0.1075
  479MOL0     C64542   8.128   3.291   3.421 -0.2459 -0.2381  0.3247
  479MOL0     C64543   8.151   3.425   3.351  0.4360 -0.0419 -0.1116
  479MOL0     C64544   8.012   3.484   3.334 -0.0451  0.6379 -0.2668
  479MOL0     C64545   8.011   3.598   3.226  0.2228  0.3557 -0.4398
  479MOL0     C64546   7.881   3.668   3.221 -0.2324 -0.0601  0.0977
  479MOL0     N64547   7.771   3.595   3.153 -0.3283  0.3526 -0.1350
  479MOL0     C64548   7.745   3.601   3.013 -0.5102  0.6272 -0.2276
  479MOL0     C64549   7.624   3.555   2.997  0.1951 -0.2515 -0.2804
  479MOL0     C64550   7.556   3.541   2.868  0.4891  0.1205  0.1550
  479MOL0     C64551   7.497   3.679   2.821  0.4056  0.2291  0.0838
  479MOL0     C64552   7.380   3.717   2.895  0.0092  0.4014 -0.9938
  479MOL0     C64553   7.365   3.869   2.898  0.5758  0.0028 -0.5413
  479MOL0     O64554   7.360   3.938   2.769  0.3666 -0.4143  0.6444
  479MOL0     C64555   7.350   4.076   2.742 -0.0673 -0.2688 -0.6650
  479MOL0     C64556   7.363   4.171   2.840 -0.4730  0.0873  0.1496
  479MOL0     C64557   7.350   4.311   2.805  0.5723 -0.9605  0.0843
  479MOL0     C64558   7.390   4.406   2.912 -0.8472  0.0500 -0.5894
  479MOL0     C64559   7.314   4.358   2.673  0.2021  0.1565  0.1990
  479MOL0     C64560   7.306   4.494   2.619 -0.0409  0.0403 -0.4433
  479MOL0     O64561   7.216   4.516   2.520 -0.1525  0.5550 -0.3231
  479MOL0     C64562   7.203   4.646   2.475 -0.0681  0.0637  1.0941
  479MOL0     C64563   7.267   4.686   2.350 -0.0923 -0.3390  0.4748
  479MOL0     C64564   7.259   4.821   2.315  0.0390  0.2741  0.9934
  479MOL0     C64565   7.178   4.909   2.390 -0.0292 -0.3925  0.8393
  479MOL0     O64566   7.164   5.042   2.365  0.0028  0.1467  0.4759
  479MOL0     C64567   7.165   5.091   2.231  0.0951  0.4231  0.0057
  479MOL0     C64568   7.128   5.235   2.219 -0.3548  0.8117  0.0657
  479MOL0     C64569   6.988   5.272   2.264  0.1957  1.1811 -0.3939
  479MOL0     C64570   6.887   5.170   2.222  0.2506 -0.1225 -0.0062
  479MOL0     C64571   6.746   5.228   2.224  0.3032 -0.5085 -0.5929
  479MOL0     C64572   6.633   5.126   2.228  0.3509 -0.5816  0.2294
  479MOL0     C64573   6.638   5.007   2.124 -0.0868 -0.0292 -0.7931
  479MOL0     C64574   6.513   4.909   2.130 -0.1523 -0.5365  0.1018
  479MOL0    Cl64575   6.499   4.819   2.291  0.3092  0.0407  0.0736
  479MOL0     C64576   7.103   4.868   2.492  0.8082  0.0840 -0.3348
  479MOL0     C64577   7.106   4.730   2.534 -0.4799 -0.1292 -0.0019
  479MOL0     O64578   7.387   4.574   2.667  0.4884 -0.6722  0.0305
  479MOL0     C64579   7.306   4.248   2.579  0.6662 -0.5212 -0.4574
  479MOL0     C64580   7.322   4.118   2.612 -0.2931  0.2580 -0.0656
  479MOL0     N64581   7.569   3.511   3.120  0.4442  0.7509  0.0371
  479MOL0     N64582   7.668   3.538   3.211  0.4585 -0.2523 -0.6552
  479MOL0     C64583   8.659   3.027   3.732  0.7625  0.9521  0.4174
  479MOL0     C64584   8.764   3.022   3.827  0.0018  0.1700  0.3283
  479MOL0     C64585   9.101   3.097   4.124  1.0176 -1.1146 -0.3834
  479MOL0     C64586   9.146   3.232   4.130  0.5698  0.8250 -1.0896
  479MOL0     C64587   9.256   3.270   4.204 -0.6827  0.2270  0.7591
  479MOL0     C64588   9.321   3.168   4.279  0.1303 -0.1540  0.3428
  479MOL0     O64589   9.433   3.182   4.353 -0.2872 -0.6697  0.4132
  479MOL0     C64590   9.487   3.313   4.355 -1.0513  0.1835  0.5203
  479MOL0     C64591   9.616   3.318   4.433  0.1794 -1.9923 -0.6754
  479MOL0     C64592   9.709   3.204   4.410  0.6279  0.4639 -0.0330
  479MOL0     C64593   9.832   3.207   4.505 -0.2203 -0.5744 -0.1316
  479MOL0     C64594   9.949   3.235   4.423  0.6075  0.4250  0.1177
  479MOL0     C64595  10.055   3.251   4.363 -0.3998 -0.2124 -0.2250
  479MOL0     C64596   9.283   3.039   4.273  0.4541 -0.3037 -0.2025
  479MOL0     C64597   9.178   3.006   4.195  0.1235 -0.5301 -0.5820
  479MOL0     H64598   8.795   3.322   3.923  4.6719 -0.5020 -2.1139
  479MOL0     H64599   8.578   3.350   3.762  0.7897  0.4879  2.4095
  479MOL0     H64600   8.437   2.999   3.536 -0.1290  0.5272 -0.3525
  479MOL0     H64601   8.383   3.013   3.705 -1.5985 -1.3245 -1.1204
  479MOL0     H64602   8.207   3.038   3.526  3.0067 -1.4474 -1.3176
  479MOL0     H64603   8.202   3.158   3.660 -2.1043  2.0939 -3.0125
  479MOL0     H64604   8.309   3.336   3.536  1.8396 -0.9728  0.5539
  479MOL0     H64605   8.329   3.240   3.392  1.9578  0.0899  1.1567
  479MOL0     H64606   8.098   3.212   3.352  0.2023  0.3305 -0.5374
  479MOL0     H64607   8.052   3.292   3.499 -1.5276 -1.1973 -0.8655
  479MOL0     H64608   8.205   3.495   3.415  2.4048 -2.0440  0.5879
  479MOL0     H64609   8.207   3.394   3.262  1.7003  0.1414  0.6034
  479MOL0     H64610   7.946   3.404   3.298  0.0378  1.1373 -1.5535
  479MOL0     H64611   7.967   3.532   3.422  0.8815 -0.8320  1.0799
  479MOL0     H64612   8.089   3.670   3.252 -1.7805  2.6255 -0.3590
  479MOL0     H64613   8.044   3.565   3.128  1.9827 -2.8509  1.0778
  479MOL0     H64614   7.900   3.758   3.162  0.5770 -0.4324 -0.2127
  479MOL0     H64615   7.840   3.709   3.314 -0.0205  0.0439  0.1462
  479MOL0     H64616   7.800   3.644   2.930 -0.7177 -0.9168 -1.1920
  479MOL0     H64617   7.633   3.507   2.799  1.6437  0.9980  0.9857
  479MOL0     H64618   7.476   3.466   2.860  0.9958 -0.2770 -1.5361
  479MOL0     H64619   7.467   3.665   2.716  1.3869 -1.3067 -0.0210
  479MOL0     H64620   7.576   3.754   2.819  1.5759 -0.9922 -0.6803
  479MOL0     H64621   7.392   3.687   3.000  1.2852 -0.9343 -1.4954
  479MOL0     H64622   7.289   3.670   2.857 -2.3576  3.3649  0.5408
  479MOL0     H64623   7.454   3.908   2.949  0.7534 -0.3404 -0.5881
  479MOL0     H64624   7.287   3.901   2.968  2.2130 -1.0848  1.9511
  479MOL0     H64625   7.377   4.146   2.945  2.1253 -2.2488 -0.6448
  479MOL0     H64626   7.481   4.456   2.877 -0.5340 -1.4919 -2.1018
  479MOL0     H64627   7.319   4.482   2.945  0.1858  1.0140 -0.5400
  479MOL0     H64628   7.409   4.357   3.008  2.1742 -0.9796 -1.6027
  479MOL0     H64629   7.317   4.616   2.284  1.1769  1.4179 -0.5280
  479MOL0     H64630   7.311   4.865   2.230 -1.7623 -0.4894 -0.5611
  479MOL0     H64631   7.267   5.086   2.191 -0.0713  0.5733 -0.4455
  479MOL0     H64632   7.108   5.033   2.158 -0.1768  1.0208 -0.2651
  479MOL0     H64633   7.189   5.300   2.281 -0.3888  1.3898 -0.4994
  479MOL0     H64634   7.146   5.279   2.120 -2.5698 -0.3280 -0.9206
  479MOL0     H64635   6.951   5.361   2.212 -1.0567  1.1447  0.4037
  479MOL0     H64636   6.984   5.278   2.373 -1.5435 -0.2606 -0.3419
  479MOL0     H64637   6.916   5.128   2.125  0.9451 -2.0706  0.9944
  479MOL0     H64638   6.891   5.087   2.292  1.0634 -0.8624 -0.9080
  479MOL0     H64639   6.729   5.304   2.147 -0.1177  1.9969  1.8190
  479MOL0     H64640   6.731   5.287   2.316  0.7809  0.7707 -1.3060
  479MOL0     H64641   6.623   5.081   2.327 -0.6112  0.7173  0.7570
  479MOL0     H64642   6.536   5.174   2.213  0.1402 -1.0899 -0.0527
  479MOL0     H64643   6.729   4.949   2.140  1.9649  2.4439 -2.6012
  479MOL0     H64644   6.640   5.049   2.023 -0.3645 -0.3626 -0.9397
  479MOL0     H64645   6.506   4.823   2.064 -1.3145 -1.4733  1.3905
  479MOL0     H64646   6.422   4.968   2.121  0.8013  1.1111  0.7578
  479MOL0     H64647   7.030   4.922   2.550 -0.6063 -2.5263  0.4783
  479MOL0     H64648   7.046   4.696   2.618  1.4272  0.5595  1.7418
  479MOL0     H64649   7.292   4.268   2.473 -0.2711 -0.5969 -0.3628
  479MOL0     H64650   7.306   4.034   2.546 -1.8812 -0.8780  1.6367
  479MOL0     H64651   8.633   2.934   3.681 -0.5063  1.4103  0.1961
  479MOL0     H64652   8.823   2.931   3.824 -1.2597 -0.6924 -2.9300
  479MOL0     H64653   9.107   3.313   4.069 -5.6053 -2.2645 -2.0737
  479MOL0     H64654   9.296   3.370   4.203  0.6877 -0.2958 -0.5082
  479MOL0     H64655   9.512   3.337   4.251 -1.5931  2.0824  0.7976
  479MOL0     H64656   9.419   3.385   4.401 -1.8209  0.6763 -1.3137
  479MOL0     H64657   9.598   3.327   4.541  0.2919  1.2343 -0.8210
  479MOL0     H64658   9.660   3.416   4.409 -1.4332 -1.0658 -0.0686
  479MOL0     H64659   9.739   3.207   4.305 -0.6112  1.5918 -0.3748
  479MOL0     H64660   9.658   3.108   4.424 -1.0501  1.1866 -0.9296
  479MOL0     H64661   9.837   3.113   4.560  1.4372 -0.8004 -0.6240
  479MOL0     H64662   9.821   3.283   4.583  1.1514 -3.4724  3.1385
  479MOL0     H64663  10.147   3.240   4.310  1.2504 -0.9892  2.5902
  479MOL0     H64664   9.336   2.957   4.321 -0.3113 -0.5848  0.1667
  479MOL0     H64665   9.146   2.903   4.199  0.0382 -0.4663  2.0943
  480MOL0     O64666   7.965   4.536   8.229  0.6125  0.0610 -0.6857
  480MOL0     C64667   8.041   4.581   8.316  0.2452 -0.3373 -0.0303
  480MOL0     O64668   7.997   4.650   8.423  0.1732  0.3193  0.0017
  480MOL0     C64669   7.862   4.664   8.442 -0.0032 -0.2790 -0.2478
  480MOL0     C64670   7.782   4.552   8.439 -0.4656  0.8766 -0.9053
  480MOL0     C64671   7.642   4.571   8.456  0.0544  0.4975  0.3163
  480MOL0     C64672   7.587   4.690   8.495  0.1828  0.6774  0.1275
  480MOL0     O64673   7.452   4.702   8.516 -0.8199 -0.1250  0.0786
  480MOL0     C64674   7.375   4.756   8.407  0.1615 -0.6130 -0.0260
  480MOL0     C64675   7.245   4.681   8.408  0.3951 -0.5805  0.3034
  480MOL0     C64676   7.269   4.535   8.370  0.4784 -0.7934 -0.7213
  480MOL0     C64677   7.143   4.455   8.372 -0.1367  0.2174 -0.3419
  480MOL0     C64678   7.090   4.416   8.515 -0.1931 -0.4912 -0.1558
  480MOL0     C64679   7.015   4.281   8.503  0.2337 -0.6110  0.4980
  480MOL0     C64680   6.930   4.257   8.639 -0.4646  0.4064  0.2577
  480MOL0     C64681   6.885   4.108   8.647  0.0092 -0.8078 -0.1030
  480MOL0     N64682   6.807   4.094   8.773  0.0128  0.1832 -0.3686
  480MOL0     C64683   6.729   3.985   8.795 -0.0464 -0.1967 -0.3093
  480MOL0     C64684   6.705   3.981   8.933  0.1104 -0.1503  0.2052
  480MOL0     C64685   6.649   3.856   9.004  0.3767  0.1043 -0.4585
  480MOL0     C64686   6.765   3.766   9.060 -0.8133 -0.2396  0.8312
  480MOL0     C64687   6.717   3.637   9.124 -0.2967  0.3334  0.5663
  480MOL0     C64688   6.631   3.674   9.245 -0.3336  0.6633 -0.4494
  480MOL0     O64689   6.603   3.554   9.317 -0.0772  0.7012  0.4833
  480MOL0     C64690   6.534   3.571   9.433  0.6730 -0.1643  0.0471
  480MOL0     C64691   6.589   3.628   9.544 -0.2145 -0.0981  0.4787
  480MOL0     C64692   6.524   3.617   9.667 -0.0119 -0.0054  0.5873
  480MOL0     C64693   6.594   3.677   9.786  0.6736  0.2934  0.0463
  480MOL0     C64694   6.391   3.570   9.664  0.2206 -0.0415 -1.1567
  480MOL0     C64695   6.313   3.552   9.789  0.4230  0.1602  0.4999
  480MOL0     O64696   6.172   3.559   9.780  0.0283  0.2276 -0.1803
  480MOL0     C64697   6.094   3.550   9.894  0.8086  0.5063 -0.1850
  480MOL0     C64698   6.073   3.669   9.957 -0.8497  0.0377 -0.0584
  480MOL0     C64699   5.981   3.674  10.065 -0.0421  0.5024 -0.1811
  480MOL0     C64700   5.919   3.560  10.103  0.2124  0.4746 -0.4412
  480MOL0     O64701   5.832   3.571  10.208 -0.4038  0.7369  0.6393
  480MOL0     C64702   5.755   3.463  10.256 -0.6449  0.1272  0.2337
  480MOL0     C64703   5.669   3.498  10.375  1.0169 -0.0948 -0.6987
  480MOL0     C64704   5.588   3.378  10.433 -0.3954 -0.4217  0.8722
  480MOL0     C64705   5.491   3.432  10.539  0.2688 -0.5204  0.3781
  480MOL0     C64706   5.424   3.328  10.619 -0.1485 -0.3898 -0.5962
  480MOL0     C64707   5.344   3.387  10.740 -0.2186 -0.7366  0.0988
  480MOL0     C64708   5.251   3.288  10.804  0.2131  0.6852  0.0395
  480MOL0     C64709   5.247   3.283  10.952 -0.5397  0.8218 -0.5461
  480MOL0    Cl64710   5.179   3.129  11.014 -0.5081 -0.0666 -0.5119
  480MOL0     C64711   5.948   3.437  10.048  1.2341  0.1483  0.5085
  480MOL0     C64712   6.036   3.430   9.942 -0.2774 -0.0973 -0.1994
  480MOL0     O64713   6.370   3.530   9.887  1.0364 -0.2459 -0.9236
  480MOL0     C64714   6.338   3.510   9.554  0.0301 -0.1365 -0.7275
  480MOL0     C64715   6.408   3.512   9.436  0.2160 -1.4025  0.4614
  480MOL0     N64716   6.768   4.088   8.991 -0.0992 -0.1941  0.4928
  480MOL0     N64717   6.822   4.161   8.898  0.0119  0.4909 -0.2734
  480MOL0     C64718   7.665   4.799   8.503 -0.3301  0.7678 -0.2325
  480MOL0     C64719   7.803   4.790   8.471 -0.2492  0.3684  0.2231
  480MOL0     C64720   8.181   4.591   8.272  0.3427 -0.0824 -0.9445
  480MOL0     C64721   8.234   4.533   8.160  0.1996 -0.3277 -0.4824
  480MOL0     C64722   8.366   4.526   8.126  0.4742  0.4197 -0.4021
  480MOL0     C64723   8.465   4.577   8.218 -0.4310  0.0454 -0.5168
  480MOL0     O64724   8.600   4.556   8.192  0.0667 -0.3245 -0.1249
  480MOL0     C64725   8.701   4.638   8.262  0.0350 -0.2374  0.3914
  480MOL0     C64726   8.736   4.595   8.406 -0.2963  0.8356  0.0843
  480MOL0     C64727   8.787   4.451   8.394 -0.3774  0.6937 -0.0822
  480MOL0     C64728   8.842   4.400   8.529  0.4115  1.2168 -0.0872
  480MOL0     C64729   8.988   4.415   8.555  0.1663  0.7345  0.4879
  480MOL0     C64730   9.105   4.421   8.588 -0.0432  0.6938  0.1144
  480MOL0     C64731   8.413   4.654   8.328  0.4016 -0.0460  0.8939
  480MOL0     C64732   8.271   4.667   8.349  0.0748  0.8738 -0.3434
  480MOL0     H64733   7.817   4.450   8.427  2.2010  1.7857 -1.6495
  480MOL0     H64734   7.583   4.481   8.445 -0.7558  1.0428  0.1098
  480MOL0     H64735   7.354   4.863   8.423  0.2402 -0.1164 -2.7838
  480MOL0     H64736   7.429   4.736   8.314 -1.6526 -1.8784 -0.8556
  480MOL0     H64737   7.190   4.681   8.503 -1.2101 -0.6302 -0.5915
  480MOL0     H64738   7.175   4.735   8.343  1.0028  1.7285  1.4520
  480MOL0     H64739   7.306   4.523   8.268 -1.0699 -0.4451 -1.3584
  480MOL0     H64740   7.346   4.499   8.438  2.7967  3.4223 -0.7619
  480MOL0     H64741   7.057   4.498   8.319  0.8067  0.3004 -1.8753
  480MOL0     H64742   7.165   4.364   8.315  2.9633 -1.2944  2.8666
  480MOL0     H64743   7.174   4.410   8.585  0.1218 -1.3233 -0.5920
  480MOL0     H64744   7.024   4.493   8.556  1.3745  3.2490 -3.9294
  480MOL0     H64745   6.950   4.289   8.415 -1.8093 -0.0737  1.9703
  480MOL0     H64746   7.083   4.199   8.480 -1.1680 -1.1566 -2.0727
  480MOL0     H64747   6.994   4.280   8.725  0.5827 -1.4785  0.0313
  480MOL0     H64748   6.843   4.324   8.633 -0.1265  0.7087 -3.0155
  480MOL0     H64749   6.982   4.057   8.648 -0.1684 -1.1969  2.1670
  480MOL0     H64750   6.828   4.082   8.558 -0.4782  1.0020 -0.3608
  480MOL0     H64751   6.693   3.916   8.719  0.3912  1.3974 -2.0372
  480MOL0     H64752   6.582   3.886   9.085  0.9521  4.2182 -1.3253
  480MOL0     H64753   6.589   3.784   8.946 -1.5868  1.9229 -0.8091
  480MOL0     H64754   6.829   3.827   9.125 -0.7017 -0.5661  1.0258
  480MOL0     H64755   6.827   3.730   8.978 -2.0867  0.8879 -0.7040
  480MOL0     H64756   6.804   3.573   9.144 -2.1165 -2.4653  0.1114
  480MOL0     H64757   6.656   3.580   9.053  0.0320 -0.7004  1.0977
  480MOL0     H64758   6.539   3.721   9.210  0.4114  3.6021  1.2198
  480MOL0     H64759   6.682   3.750   9.305 -1.8239  0.0981  1.6203
  480MOL0     H64760   6.693   3.652   9.527 -1.0111  0.6619 -5.6753
  480MOL0     H64761   6.601   3.603   9.867 -1.7473 -0.0082  0.0420
  480MOL0     H64762   6.695   3.707   9.756  0.1461  0.5576 -1.5247
  480MOL0     H64763   6.528   3.756   9.822  2.0457  0.3040  2.8885
  480MOL0     H64764   6.115   3.763   9.924 -0.7843 -0.7183 -2.3145
  480MOL0     H64765   5.963   3.770  10.112 -2.1005  0.5591 -0.9575
  480MOL0     H64766   5.678   3.437  10.182  0.2435  1.0739 -1.0776
  480MOL0     H64767   5.806   3.368  10.271 -1.3152 -0.2682  0.0696
  480MOL0     H64768   5.735   3.543  10.450 -1.2230  2.3686 -0.0412
  480MOL0     H64769   5.600   3.580  10.355 -0.9682 -1.5310 -0.1296
  480MOL0     H64770   5.653   3.303  10.481  2.4579  1.5761  0.3707
  480MOL0     H64771   5.525   3.326  10.361 -1.0589 -1.9702  2.4713
  480MOL0     H64772   5.547   3.506  10.597 -2.2571  2.4231 -0.6721
  480MOL0     H64773   5.421   3.501  10.490  1.1370  1.2781  1.5374
  480MOL0     H64774   5.493   3.250  10.649 -0.4744 -0.5525 -0.2612
  480MOL0     H64775   5.353   3.285  10.548 -1.3595  0.7749 -0.1393
  480MOL0     H64776   5.420   3.415  10.813 -1.4712 -2.3709  2.1491
  480MOL0     H64777   5.277   3.468  10.709 -1.0704 -0.9099  1.3786
  480MOL0     H64778   5.269   3.189  10.761  1.3212  1.3854 -1.1843
  480MOL0     H64779   5.149   3.306  10.767 -0.2426  0.6727  1.2440
  480MOL0     H64780   5.193   3.366  10.998 -0.5696  0.0083  0.9630
  480MOL0     H64781   5.346   3.297  10.996  0.1651 -1.0219 -1.4315
  480MOL0     H64782   5.894   3.350  10.083  1.5661 -0.5449 -0.6678
  480MOL0     H64783   6.055   3.335   9.893 -0.2078 -0.7192  0.9808
  480MOL0     H64784   6.242   3.461   9.560 -0.5573  1.1634  3.5280
  480MOL0     H64785   6.370   3.450   9.356  2.0759 -0.4459 -1.2535
  480MOL0     H64786   7.629   4.899   8.525 -3.3591 -0.0756 -0.8465
  480MOL0     H64787   7.867   4.876   8.479  0.1696  0.2716 -1.6026
  480MOL0     H64788   8.165   4.485   8.091  3.2697 -0.7749 -3.5329
  480MOL0     H64789   8.407   4.481   8.036 -0.5143  0.6631 -0.9962
  480MOL0     H64790   8.801   4.643   8.218  0.6907  1.6616  1.9540
  480MOL0     H64791   8.677   4.745   8.256  1.9814  0.3687  2.2850
  480MOL0     H64792   8.656   4.597   8.480 -0.8945  2.4281 -0.5583
  480MOL0     H64793   8.817   4.648   8.458  0.5288 -1.8093  1.7003
  480MOL0     H64794   8.863   4.444   8.315 -0.8461 -1.3506 -0.3916
  480MOL0     H64795   8.705   4.385   8.365  1.2858  0.0573 -3.9004
  480MOL0     H64796   8.819   4.293   8.540  2.4659  0.8166  0.7694
  480MOL0     H64797   8.790   4.448   8.612 -1.3159 -1.1148  0.2837
  480MOL0     H64798   9.208   4.417   8.619  0.0060 -0.3670 -0.1631
  480MOL0     H64799   8.484   4.712   8.386  1.0358  1.8880 -1.6172
  480MOL0     H64800   8.240   4.728   8.433 -2.1388  1.2572 -1.3529
  481MOL0     O64801   2.927   6.858   1.383  0.3736  0.8824 -0.1938
  481MOL0     C64802   2.890   6.955   1.448 -0.1065  0.2423 -0.1822
  481MOL0     O64803   2.970   7.019   1.531  0.1283  0.0757 -0.5738
  481MOL0     C64804   3.110   7.013   1.501  0.0521  0.4736  0.2156
  481MOL0     C64805   3.169   7.039   1.367  0.3157 -0.7670 -1.0497
  481MOL0     C64806   3.312   7.042   1.350 -0.5015 -0.2438 -0.4276
  481MOL0     C64807   3.392   7.020   1.462  0.1382  0.4016  0.3688
  481MOL0     O64808   3.527   7.026   1.455  0.1336  0.4531 -0.2872
  481MOL0     C64809   3.585   7.101   1.352 -0.0339  1.6070  0.0263
  481MOL0     C64810   3.741   7.104   1.374  0.1479  0.4486  0.7622
  481MOL0     C64811   3.777   7.190   1.490 -0.6056  0.4446 -1.2218
  481MOL0     C64812   3.931   7.189   1.523  0.5744 -0.6768  0.4111
  481MOL0     C64813   4.009   7.239   1.396 -0.3281 -0.4730  0.5184
  481MOL0     C64814   4.152   7.266   1.434 -0.7729  0.3237 -0.6322
  481MOL0     C64815   4.229   7.351   1.332 -0.5861  0.5266  0.6172
  481MOL0     C64816   4.371   7.313   1.336  0.0193  0.0775  0.1831
  481MOL0     N64817   4.457   7.382   1.240 -0.1887  0.0555  0.1334
  481MOL0     C64818   4.438   7.371   1.104 -0.5194 -0.1344 -0.8533
  481MOL0     C64819   4.553   7.421   1.053 -0.3773 -0.0323 -0.6236
  481MOL0     C64820   4.594   7.442   0.914  0.6645 -0.0242  0.9811
  481MOL0     C64821   4.477   7.497   0.830 -0.9137 -0.4007 -0.0617
  481MOL0     C64822   4.520   7.497   0.681 -0.6951 -0.3670 -1.0053
  481MOL0     C64823   4.435   7.588   0.595  0.0769  0.3503 -0.7287
  481MOL0     O64824   4.443   7.727   0.643 -0.2481 -0.6125  0.0664
  481MOL0     C64825   4.325   7.792   0.684 -0.1568  0.1770 -1.0193
  481MOL0     C64826   4.347   7.894   0.778  0.0577  0.3406  0.5751
  481MOL0     C64827   4.243   7.967   0.832 -0.3273 -0.0138  0.3148
  481MOL0     C64828   4.273   8.082   0.925 -0.2358  0.1977 -0.1966
  481MOL0     C64829   4.113   7.949   0.780  0.0583 -0.1984 -0.4235
  481MOL0     C64830   3.988   8.019   0.829  0.2706  0.0282 -0.2228
  481MOL0     O64831   3.885   7.939   0.825  0.7917  0.4649  0.0070
  481MOL0     C64832   3.748   7.976   0.835 -0.2516 -0.4611  0.5936
  481MOL0     C64833   3.663   7.883   0.900 -0.3133  0.6200 -0.2442
  481MOL0     C64834   3.531   7.909   0.938 -0.2216  0.1312  0.1996
  481MOL0     C64835   3.476   8.036   0.908  0.4973  0.3923  0.7798
  481MOL0     O64836   3.343   8.061   0.941 -0.7792 -0.0353  0.8048
  481MOL0     C64837   3.289   8.191   0.909  0.2982 -0.1790  0.2894
  481MOL0     C64838   3.141   8.189   0.921  0.0988 -0.5940 -0.2566
  481MOL0     C64839   3.097   8.150   1.063  0.0909  0.1486  0.6642
  481MOL0     C64840   2.959   8.196   1.087 -0.3473 -0.7426  0.8296
  481MOL0     C64841   2.863   8.136   0.978  0.4757  0.4458 -0.1203
  481MOL0     C64842   2.713   8.184   0.997 -0.3386 -0.5986  0.0437
  481MOL0     C64843   2.639   8.119   0.885 -0.4481 -0.0598  0.1947
  481MOL0     C64844   2.507   8.186   0.874  0.2610 -0.1725 -0.1721
  481MOL0    Cl64845   2.422   8.168   1.035  0.0117 -0.0363  0.1465
  481MOL0     C64846   3.556   8.127   0.836  0.9112 -0.2855 -0.0915
  481MOL0     C64847   3.685   8.099   0.801  0.4012  0.1873  0.3558
  481MOL0     O64848   3.989   8.129   0.881  0.0924 -0.4802 -0.2463
  481MOL0     C64849   4.093   7.854   0.682  0.1637  0.0104  0.2216
  481MOL0     C64850   4.194   7.777   0.636 -0.9743  0.2456  1.0289
  481MOL0     N64851   4.632   7.469   1.159  0.0482 -0.9513 -0.4264
  481MOL0     N64852   4.578   7.437   1.272 -0.8227  0.2215  0.7272
  481MOL0     C64853   3.333   6.996   1.588  0.6715  0.4601  0.3799
  481MOL0     C64854   3.196   7.001   1.608 -0.8373 -0.4164 -0.5579
  481MOL0     C64855   2.752   6.980   1.461  0.1121 -0.6042  0.5628
  481MOL0     C64856   2.661   6.901   1.387  0.5386 -0.0975 -0.0434
  481MOL0     C64857   2.520   6.922   1.402  0.5221 -0.4270  0.1721
  481MOL0     C64858   2.468   7.025   1.483  0.2645  0.7923  0.4063
  481MOL0     O64859   2.333   7.052   1.500 -0.1515  0.9436 -1.2223
  481MOL0     C64860   2.278   7.130   1.402  0.3681 -1.2354 -0.6894
  481MOL0     C64861   2.128   7.157   1.437 -0.0172 -0.1372 -0.2346
  481MOL0     C64862   2.038   7.046   1.400  0.1026 -0.4006  0.5808
  481MOL0     C64863   1.884   7.084   1.414  0.4641 -0.2735  0.2451
  481MOL0     C64864   1.833   7.193   1.334 -0.9740  0.0900 -0.1515
  481MOL0     C64865   1.804   7.280   1.255 -0.2213 -0.5682 -0.2048
  481MOL0     C64866   2.564   7.107   1.547  0.1649  0.5180  0.2245
  481MOL0     C64867   2.701   7.081   1.538  0.6268 -0.0971 -0.2811
  481MOL0     H64868   3.102   7.061   1.284  0.4891 -2.2948 -1.6310
  481MOL0     H64869   3.360   7.065   1.256  0.5018  1.1951  0.4000
  481MOL0     H64870   3.557   7.048   1.261  2.3913 -3.4331  1.8479
  481MOL0     H64871   3.550   7.205   1.352  0.2273  1.6990  0.4208
  481MOL0     H64872   3.770   6.999   1.385 -3.7923 -0.8172  0.7685
  481MOL0     H64873   3.783   7.132   1.277  1.4824  0.0202  1.1928
  481MOL0     H64874   3.734   7.289   1.476 -0.6722  0.6940  0.4435
  481MOL0     H64875   3.729   7.142   1.577 -0.2101  0.7541 -0.8270
  481MOL0     H64876   3.952   7.252   1.609  0.2599  0.7306 -0.5020
  481MOL0     H64877   3.958   7.086   1.549 -0.6961 -2.4611 -4.1856
  481MOL0     H64878   4.019   7.155   1.327  2.6902  0.9657 -0.9913
  481MOL0     H64879   3.966   7.324   1.342 -1.0741 -1.6162 -0.7415
  481MOL0     H64880   4.151   7.319   1.530 -1.6671 -0.1085 -0.3872
  481MOL0     H64881   4.202   7.169   1.442 -0.5909  0.5852  2.8029
  481MOL0     H64882   4.194   7.333   1.230  0.7701 -0.6339  0.3305
  481MOL0     H64883   4.223   7.458   1.353  0.7532  0.5007  1.3086
  481MOL0     H64884   4.374   7.205   1.320 -0.1715 -0.0669  1.0616
  481MOL0     H64885   4.412   7.334   1.435  0.0541  2.0327 -0.2032
  481MOL0     H64886   4.348   7.341   1.050 -1.5313  0.2741  0.5623
  481MOL0     H64887   4.679   7.509   0.894  0.3214 -0.6579 -3.5875
  481MOL0     H64888   4.622   7.342   0.880 -1.7308 -0.4822  0.2048
  481MOL0     H64889   4.461   7.600   0.866 -1.8095 -0.3235 -0.6309
  481MOL0     H64890   4.383   7.442   0.841 -0.0271 -2.0007 -0.2149
  481MOL0     H64891   4.506   7.394   0.646 -1.1186 -0.5150 -0.4179
  481MOL0     H64892   4.625   7.524   0.672 -0.4224 -0.6921  0.8855
  481MOL0     H64893   4.335   7.542   0.600 -0.0216  0.1789 -3.0329
  481MOL0     H64894   4.468   7.573   0.492  0.1067  1.3852 -0.8751
  481MOL0     H64895   4.445   7.915   0.819 -0.0984 -0.2950  1.2946
  481MOL0     H64896   4.246   8.175   0.874  1.3961  0.4328 -0.7001
  481MOL0     H64897   4.205   8.068   1.010  1.5405 -1.1250  1.0904
  481MOL0     H64898   4.376   8.078   0.962 -0.7286  2.4851  1.7034
  481MOL0     H64899   3.710   7.792   0.936  1.2003  2.0529  1.6006
  481MOL0     H64900   3.465   7.837   0.985 -0.9208  0.5755 -0.0958
  481MOL0     H64901   3.339   8.260   0.978  0.3659 -1.0069  1.0928
  481MOL0     H64902   3.302   8.229   0.808  0.4891 -3.4380 -1.0463
  481MOL0     H64903   3.102   8.287   0.895 -2.8051 -1.9423 -1.4832
  481MOL0     H64904   3.099   8.123   0.843 -0.0039 -1.5413  0.5797
  481MOL0     H64905   3.147   8.187   1.153 -2.8205 -1.2798  3.0388
  481MOL0     H64906   3.102   8.041   1.066 -3.2011 -0.1460 -0.2650
  481MOL0     H64907   2.915   8.169   1.183 -0.6321  0.5671  1.0938
  481MOL0     H64908   2.948   8.305   1.087  1.1371 -0.5612  0.3482
  481MOL0     H64909   2.869   8.027   0.983  0.3608  0.4876  1.4739
  481MOL0     H64910   2.893   8.164   0.877  1.3030 -0.9129 -0.2833
  481MOL0     H64911   2.684   8.148   1.097 -1.1349  3.3962  1.4307
  481MOL0     H64912   2.710   8.293   1.000  1.0066 -0.4722 -1.7672
  481MOL0     H64913   2.627   8.012   0.904  1.8685 -0.5633 -0.9081
  481MOL0     H64914   2.688   8.130   0.789 -0.8827  3.1406  0.2392
  481MOL0     H64915   2.447   8.143   0.792 -0.2425  1.9457 -0.9755
  481MOL0     H64916   2.518   8.294   0.861  1.4069 -0.2261  0.2920
  481MOL0     H64917   3.520   8.226   0.808 -0.0469 -0.2526  1.1335
  481MOL0     H64918   3.742   8.174   0.747 -1.0559  0.1252 -1.3536
  481MOL0     H64919   3.999   7.841   0.630 -0.0131 -1.4176  0.8390
  481MOL0     H64920   4.166   7.701   0.564 -0.5058 -1.2423  2.3443
  481MOL0     H64921   3.400   6.980   1.671  1.2907  2.0054  0.1967
  481MOL0     H64922   3.153   6.993   1.707  1.1862  0.2684  0.4327
  481MOL0     H64923   2.702   6.835   1.311 -3.2318 -0.4560 -2.0102
  481MOL0     H64924   2.463   6.860   1.334  0.2790  3.2270 -3.3768
  481MOL0     H64925   2.341   7.219   1.410  0.7401 -1.6142  1.3704
  481MOL0     H64926   2.302   7.079   1.308 -2.7354 -0.0646 -2.2264
  481MOL0     H64927   2.095   7.240   1.375 -0.9522 -1.4015 -1.4925
  481MOL0     H64928   2.115   7.183   1.542 -1.0827 -1.3382 -0.0449
  481MOL0     H64929   2.057   6.966   1.472  1.5984  0.4504  1.1865
  481MOL0     H64930   2.046   7.006   1.299 -0.6754  2.4105 -0.7015
  481MOL0     H64931   1.869   7.107   1.520  2.1489 -1.5513  0.8038
  481MOL0     H64932   1.817   6.999   1.399 -0.5501  0.8807 -2.4003
  481MOL0     H64933   1.787   7.366   1.195 -1.6334 -0.3915  0.4062
  481MOL0     H64934   2.526   7.188   1.607 -2.1089 -0.1945 -0.1672
  481MOL0     H64935   2.772   7.133   1.602  0.1469  0.1215  0.0847
  482MOL0     O64936   7.174   1.724   0.944  0.4119  0.3907  0.1747
  482MOL0     C64937   7.216   1.725   1.056  0.3491 -0.5869  0.7302
  482MOL0     O64938   7.157   1.656   1.163  0.2814 -0.6518 -0.0858
  482MOL0     C64939   7.036   1.588   1.134 -0.2821  0.8145 -0.3347
  482MOL0     C64940   6.914   1.657   1.111  0.1804  0.0775  0.0306
  482MOL0     C64941   6.801   1.580   1.086  0.9151 -0.1645 -0.6271
  482MOL0     C64942   6.802   1.437   1.090  0.5102  0.3443 -0.2532
  482MOL0     O64943   6.686   1.370   1.068  0.2714  0.2266  0.0687
  482MOL0     C64944   6.588   1.397   1.164 -0.1198 -0.8528  0.3551
  482MOL0     C64945   6.443   1.414   1.096  0.2148 -0.5885  0.2198
  482MOL0     C64946   6.342   1.427   1.209  0.7364  0.7294 -0.3472
  482MOL0     C64947   6.203   1.402   1.146 -0.3418 -0.2861 -0.2934
  482MOL0     C64948   6.087   1.435   1.237 -0.0861 -0.0497  0.0540
  482MOL0     C64949   6.061   1.582   1.246  0.5583  0.1336  0.5496
  482MOL0     C64950   5.935   1.630   1.322 -0.1592  0.1400  0.1562
  482MOL0     C64951   5.810   1.614   1.236 -0.1041 -0.3888  0.6620
  482MOL0     N64952   5.691   1.623   1.320 -0.4364  0.0306 -0.0865
  482MOL0     C64953   5.621   1.734   1.374  0.0055 -0.4338  0.3074
  482MOL0     C64954   5.510   1.688   1.436  0.2501 -0.8880  0.2431
  482MOL0     C64955   5.384   1.763   1.482 -0.5733 -0.2071 -1.0198
  482MOL0     C64956   5.287   1.786   1.368 -0.1913 -0.8102  0.3962
  482MOL0     C64957   5.209   1.919   1.394 -0.2864  0.8108 -0.1131
  482MOL0     C64958   5.071   1.905   1.353  0.3929 -0.0519  0.3085
  482MOL0     O64959   5.025   1.801   1.441  0.2515 -0.7912 -0.0962
  482MOL0     C64960   4.886   1.782   1.439 -1.0806  0.0258  0.1331
  482MOL0     C64961   4.801   1.875   1.496 -0.2870 -0.7690 -0.1046
  482MOL0     C64962   4.662   1.866   1.488 -0.3541 -0.3288  0.3705
  482MOL0     C64963   4.585   1.972   1.547  0.0371 -0.5587 -0.1030
  482MOL0     C64964   4.609   1.754   1.419 -0.7917 -0.1232 -0.4145
  482MOL0     C64965   4.465   1.730   1.402  0.5588  0.2517  0.0852
  482MOL0     O64966   4.426   1.606   1.381  0.0787 -0.7041  0.2539
  482MOL0     C64967   4.298   1.575   1.359 -0.6996 -0.4830  0.1937
  482MOL0     C64968   4.217   1.552   1.470 -0.3383  0.4296  1.0122
  482MOL0     C64969   4.076   1.541   1.459  0.4177  0.1313  0.8180
  482MOL0     C64970   4.019   1.530   1.333  0.7229 -0.0387 -1.0812
  482MOL0     O64971   3.881   1.512   1.320  0.5609  0.1159  0.1627
  482MOL0     C64972   3.819   1.550   1.194 -0.0004  0.6912 -0.4066
  482MOL0     C64973   3.676   1.577   1.222  0.7007 -0.0427  0.2473
  482MOL0     C64974   3.659   1.691   1.321  0.2899 -0.2242 -0.2479
  482MOL0     C64975   3.508   1.717   1.340 -0.0630 -0.8790 -1.0011
  482MOL0     C64976   3.480   1.827   1.443  0.9615  0.2593 -0.8835
  482MOL0     C64977   3.342   1.889   1.413  0.2693 -0.2662 -0.4013
  482MOL0     C64978   3.313   2.003   1.500 -1.0053  0.3703 -0.0303
  482MOL0     C64979   3.211   2.103   1.445  0.1471 -0.0161  0.0397
  482MOL0    Cl64980   3.166   2.228   1.563  0.5063 -0.0719 -0.1428
  482MOL0     C64981   4.100   1.552   1.217 -0.3495 -0.6938 -0.5465
  482MOL0     C64982   4.236   1.584   1.230  0.2195  0.2972 -0.0090
  482MOL0     O64983   4.388   1.825   1.415 -0.6584  0.4363 -0.1398
  482MOL0     C64984   4.697   1.664   1.357  0.0657 -0.0205  0.1167
  482MOL0     C64985   4.835   1.686   1.360 -0.8387  0.2301  0.5379
  482MOL0     N64986   5.520   1.550   1.422 -0.6104  0.1367  0.2157
  482MOL0     N64987   5.630   1.516   1.365  0.0756  0.2032  0.0729
  482MOL0     C64988   6.921   1.365   1.114 -0.0240 -0.3108  0.6765
  482MOL0     C64989   7.042   1.444   1.123  0.4237 -0.1556 -0.1717
  482MOL0     C64990   7.343   1.782   1.086  0.3507 -0.5065  0.1962
  482MOL0     C64991   7.429   1.812   0.977 -0.4040  0.5515  0.0734
  482MOL0     C64992   7.552   1.875   0.999  0.0975  0.8289 -0.3562
  482MOL0     C64993   7.597   1.903   1.127  1.1405  0.4353  0.2623
  482MOL0     O64994   7.721   1.964   1.160 -0.1031  0.3322  0.2251
  482MOL0     C64995   7.815   1.961   1.057  0.3195  0.7166 -0.9485
  482MOL0     C64996   7.951   1.997   1.098 -0.3408  0.1052 -0.9382
  482MOL0     C64997   8.046   2.014   0.974  0.3319  0.3031  0.8948
  482MOL0     C64998   8.195   2.001   1.020  0.7729  0.0166  0.5066
  482MOL0     C64999   8.233   2.092   1.126 -0.0195 -0.1496 -0.2604
  482MOL0     C65000   8.260   2.183   1.204  0.2222 -0.4643 -0.6451
  482MOL0     C65001   7.514   1.875   1.237  0.3704  0.4438  0.1853
  482MOL0     C65002   7.387   1.814   1.216 -0.4530 -0.4909  0.2082
  482MOL0     H65003   6.919   1.765   1.119  0.1369 -0.0413  2.2498
  482MOL0     H65004   6.710   1.635   1.066  1.3337  0.2812 -1.3533
  482MOL0     H65005   6.581   1.311   1.231  1.0209 -1.4802 -0.3028
  482MOL0     H65006   6.615   1.482   1.228  1.2466 -0.8775 -0.1729
  482MOL0     H65007   6.430   1.496   1.025 -3.7923 -0.2002  1.1789
  482MOL0     H65008   6.434   1.322   1.037  0.6679 -0.2026 -0.4562
  482MOL0     H65009   6.368   1.359   1.290  0.8073  1.9489  0.6937
  482MOL0     H65010   6.349   1.526   1.256  0.2863 -0.1726  1.7264
  482MOL0     H65011   6.202   1.457   1.051  2.3038  0.9409  0.2800
  482MOL0     H65012   6.196   1.294   1.130 -1.0376 -0.5428  1.5125
  482MOL0     H65013   5.998   1.397   1.185 -1.3113  1.0213  1.2940
  482MOL0     H65014   6.077   1.387   1.334 -3.0794  2.7501  1.3602
  482MOL0     H65015   6.153   1.624   1.289  1.5770 -1.3844 -0.0456
  482MOL0     H65016   6.041   1.610   1.142 -0.6398 -2.6697 -0.0462
  482MOL0     H65017   5.922   1.568   1.411 -0.9763  1.7704  1.2416
  482MOL0     H65018   5.948   1.732   1.360 -0.1077 -0.6823  2.4964
  482MOL0     H65019   5.815   1.521   1.178  3.1846 -0.4322  0.8043
  482MOL0     H65020   5.824   1.702   1.173  0.0814  0.6864  2.1570
  482MOL0     H65021   5.655   1.837   1.372  2.4935 -1.1737 -2.1912
  482MOL0     H65022   5.339   1.694   1.554  1.7100 -2.2391 -1.3762
  482MOL0     H65023   5.418   1.857   1.527 -1.6893 -1.1270  2.0230
  482MOL0     H65024   5.218   1.702   1.358  0.4772 -1.4244  0.8487
  482MOL0     H65025   5.329   1.805   1.269 -0.6769  0.2243  0.3776
  482MOL0     H65026   5.266   1.994   1.337  0.1689  2.1937  2.0415
  482MOL0     H65027   5.215   1.946   1.499  1.3020  2.6846 -0.6223
  482MOL0     H65028   5.055   1.879   1.247  0.9812 -0.6062  0.3517
  482MOL0     H65029   5.021   2.000   1.372  1.9157  0.7110  0.6047
  482MOL0     H65030   4.846   1.956   1.552 -1.2842 -0.1163 -0.2270
  482MOL0     H65031   4.555   2.045   1.471 -0.1988 -1.3047 -0.7468
  482MOL0     H65032   4.500   1.945   1.610  0.4251  0.6438  0.9663
  482MOL0     H65033   4.646   2.024   1.621  0.1877 -0.5794 -0.2117
  482MOL0     H65034   4.265   1.561   1.567 -1.7158 -0.7006  1.8320
  482MOL0     H65035   4.014   1.539   1.548  0.8419  1.1600  1.1532
  482MOL0     H65036   3.877   1.627   1.141  1.2678  0.2344  0.2591
  482MOL0     H65037   3.831   1.463   1.128  1.0082  1.4985 -1.3420
  482MOL0     H65038   3.623   1.609   1.131  0.1159 -2.5662 -0.3830
  482MOL0     H65039   3.644   1.481   1.265  1.6752 -0.8055 -0.6473
  482MOL0     H65040   3.728   1.772   1.297  0.3374 -0.6300 -1.5648
  482MOL0     H65041   3.706   1.652   1.412 -0.8997 -1.7232 -0.2353
  482MOL0     H65042   3.478   1.755   1.241  1.0226 -0.1546 -1.0778
  482MOL0     H65043   3.468   1.621   1.373  0.7826 -0.7483  0.5132
  482MOL0     H65044   3.550   1.910   1.425 -0.2404  1.3593 -0.6265
  482MOL0     H65045   3.500   1.786   1.542  2.8475  1.4631 -0.7004
  482MOL0     H65046   3.330   1.930   1.312 -0.7107 -1.7119 -0.9050
  482MOL0     H65047   3.265   1.812   1.426  1.4055 -1.3229  0.3621
  482MOL0     H65048   3.407   2.053   1.523 -1.6274  2.4175 -1.6537
  482MOL0     H65049   3.276   1.966   1.596  2.7895  1.6102  2.1050
  482MOL0     H65050   3.121   2.053   1.408  1.2600 -1.2366 -1.1699
  482MOL0     H65051   3.255   2.161   1.363 -0.2394  3.1099  1.9102
  482MOL0     H65052   4.060   1.561   1.117  0.9547 -1.0175 -1.1156
  482MOL0     H65053   4.290   1.626   1.146  0.6586  0.8313  0.5315
  482MOL0     H65054   4.663   1.578   1.301 -1.2316  1.0207 -0.7543
  482MOL0     H65055   4.905   1.620   1.309  1.0785  0.8195  2.2393
  482MOL0     H65056   6.934   1.257   1.119 -2.5979 -0.7945 -0.8646
  482MOL0     H65057   7.135   1.388   1.126  1.2119  1.1272  0.3034
  482MOL0     H65058   7.393   1.787   0.877 -2.0057  1.0989  0.4792
  482MOL0     H65059   7.607   1.900   0.909  1.0957 -1.6416 -0.5111
  482MOL0     H65060   7.825   1.860   1.015 -0.8469  0.2643 -0.1997
  482MOL0     H65061   7.776   2.035   0.986 -1.7884  2.0006  1.4107
  482MOL0     H65062   7.983   1.909   1.155  0.8290  0.0536 -1.6245
  482MOL0     H65063   7.959   2.072   1.177 -1.0041 -1.6166  0.8641
  482MOL0     H65064   8.013   2.107   0.926 -4.9485 -1.5602  0.2935
  482MOL0     H65065   8.028   1.940   0.895 -0.3831 -0.1693  1.4925
  482MOL0     H65066   8.265   2.011   0.936 -0.3486 -0.1978 -0.4805
  482MOL0     H65067   8.212   1.902   1.061  2.0931  0.0323  0.0700
  482MOL0     H65068   8.270   2.273   1.261 -3.6515 -0.6437  0.6231
  482MOL0     H65069   7.549   1.902   1.337  3.8030 -2.0805 -0.1564
  482MOL0     H65070   7.322   1.793   1.301  1.2013 -0.7719  1.4479
  483MOL0     O65071   4.958   2.990   0.586 -0.3914 -0.0554 -0.8794
  483MOL0     C65072   5.026   3.045   0.499  0.9939 -0.3613 -0.0718
  483MOL0     O65073   4.980   3.149   0.430 -0.1330 -0.9004 -0.2528
  483MOL0     C65074   4.851   3.184   0.439  0.8874  0.8956 -0.2760
  483MOL0     C65075   4.806   3.286   0.524  0.4016 -0.3920  0.0491
  483MOL0     C65076   4.671   3.321   0.542 -0.2950  0.2622  0.5975
  483MOL0     C65077   4.580   3.253   0.464  0.9665 -0.1736 -0.1908
  483MOL0     O65078   4.452   3.284   0.502 -0.1290 -0.4106 -0.1096
  483MOL0     C65079   4.343   3.229   0.418  0.1211 -0.0533 -0.5616
  483MOL0     C65080   4.220   3.310   0.425  0.3225 -0.0450 -0.5976
  483MOL0     C65081   4.178   3.325   0.570  0.1821 -0.3836 -0.5539
  483MOL0     C65082   4.056   3.415   0.577  0.4299  0.3980 -0.8051
  483MOL0     C65083   4.021   3.440   0.718 -0.1143 -0.1570 -0.5551
  483MOL0     C65084   3.978   3.583   0.743 -0.1171  0.7705  0.1859
  483MOL0     C65085   4.092   3.686   0.700  0.4121 -0.4588 -0.0234
  483MOL0     C65086   4.231   3.668   0.764  0.3299  0.2097 -1.0584
  483MOL0     N65087   4.220   3.678   0.913  0.7202  0.2141  0.2087
  483MOL0     C65088   4.176   3.790   0.988 -0.3920  0.8442  0.3334
  483MOL0     C65089   4.171   3.743   1.113  0.8103  0.4602  0.2224
  483MOL0     C65090   4.128   3.823   1.229  0.3808 -0.1942 -0.7671
  483MOL0     C65091   3.982   3.806   1.266  0.1046 -0.6081  0.2992
  483MOL0     C65092   3.900   3.883   1.174 -0.6466 -0.1101 -0.1327
  483MOL0     C65093   3.912   4.047   1.204 -0.6040  0.4424 -0.2177
  483MOL0     O65094   3.863   4.071   1.330  0.7024  0.6094 -0.6014
  483MOL0     C65095   3.724   4.094   1.353 -0.3435  0.0443 -0.0044
  483MOL0     C65096   3.637   4.121   1.252  0.0431 -0.2002 -0.5983
  483MOL0     C65097   3.497   4.156   1.277 -0.4512 -0.5360  0.2501
  483MOL0     C65098   3.400   4.188   1.164 -0.8332  0.6220  0.2199
  483MOL0     C65099   3.449   4.144   1.405  0.8045 -0.0674  0.4403
  483MOL0     C65100   3.300   4.171   1.437 -0.1539  0.9091  1.1581
  483MOL0     O65101   3.235   4.289   1.386 -0.2024  0.2233  0.4079
  483MOL0     C65102   3.101   4.288   1.420 -1.1928  0.6604  0.3009
  483MOL0     C65103   3.007   4.242   1.334 -0.5845 -0.6400 -0.3136
  483MOL0     C65104   2.875   4.232   1.386  0.0365  0.3136  0.7768
  483MOL0     C65105   2.835   4.258   1.511 -0.1237 -0.4737 -0.4214
  483MOL0     O65106   2.709   4.239   1.538 -0.0446  0.4087 -0.2457
  483MOL0     C65107   2.677   4.190   1.675 -0.3746 -0.2736  0.5458
  483MOL0     C65108   2.540   4.131   1.674 -0.9555 -0.2576 -0.2628
  483MOL0     C65109   2.425   4.236   1.675  0.0581  0.1298  0.8119
  483MOL0     C65110   2.295   4.166   1.700 -0.3853 -0.8414  0.0036
  483MOL0     C65111   2.177   4.265   1.672 -0.4482 -0.3178  0.0817
  483MOL0     C65112   2.043   4.197   1.658  0.1356  0.2359  0.0264
  483MOL0     C65113   1.927   4.299   1.658  0.2653 -0.2584 -0.3646
  483MOL0     C65114   1.788   4.244   1.680  0.7877  0.2004 -0.3060
  483MOL0    Cl65115   1.750   4.107   1.563  0.0113  0.0964 -0.0443
  483MOL0     C65116   2.931   4.313   1.593 -0.1003 -0.0996  0.4777
  483MOL0     C65117   3.060   4.314   1.548 -0.4224  0.1319  0.4711
  483MOL0     O65118   3.247   4.085   1.506 -0.2359 -0.6420 -0.7750
  483MOL0     C65119   3.540   4.105   1.503 -0.7800  0.1368  0.1480
  483MOL0     C65120   3.682   4.108   1.477  0.8169  0.7044 -0.3281
  483MOL0     N65121   4.194   3.602   1.114 -0.7497 -0.0622 -0.0687
  483MOL0     N65122   4.224   3.568   0.995 -0.0741  0.1431 -0.3318
  483MOL0     C65123   4.617   3.158   0.374  0.0148  0.0992 -0.8163
  483MOL0     C65124   4.755   3.123   0.358  0.1796 -0.3826 -0.2156
  483MOL0     C65125   5.170   3.017   0.500 -0.3696  0.4613  0.6662
  483MOL0     C65126   5.260   3.106   0.432 -0.9921 -0.1162 -0.2032
  483MOL0     C65127   5.399   3.079   0.438  0.6660 -0.2204  1.2597
  483MOL0     C65128   5.443   2.966   0.508  0.0174  0.1566 -0.5499
  483MOL0     O65129   5.570   2.925   0.516 -0.6047  0.0679  0.0962
  483MOL0     C65130   5.663   3.019   0.470 -0.1208 -0.1758  0.2347
  483MOL0     C65131   5.804   2.951   0.458  0.1995  0.4668 -0.1607
  483MOL0     C65132   5.846   2.913   0.606  0.0888 -0.6988  0.0831
  483MOL0     C65133   5.986   2.851   0.611 -0.4964 -0.0764  0.2921
  483MOL0     C65134   6.010   2.759   0.500  0.1753 -0.0905 -0.0525
  483MOL0     C65135   6.034   2.684   0.409 -0.3512 -0.0282 -0.4816
  483MOL0     C65136   5.357   2.872   0.561  0.3323  0.4241 -0.0317
  483MOL0     C65137   5.222   2.901   0.564 -0.2425  0.3206  0.1395
  483MOL0     H65138   4.876   3.345   0.582 -1.5994  0.2079  1.9465
  483MOL0     H65139   4.653   3.395   0.619  1.2655  0.9499  0.3338
  483MOL0     H65140   4.373   3.218   0.314 -1.9193 -0.5816 -1.1306
  483MOL0     H65141   4.315   3.129   0.454  1.0869  0.0753  0.6199
  483MOL0     H65142   4.234   3.414   0.393 -0.3025 -0.3921 -2.1024
  483MOL0     H65143   4.137   3.279   0.360 -1.9074  1.9180  1.1094
  483MOL0     H65144   4.154   3.227   0.612 -3.1115 -0.3947 -2.1533
  483MOL0     H65145   4.256   3.382   0.624 -0.8806 -0.1565  0.7962
  483MOL0     H65146   4.069   3.506   0.517  1.2319  0.7852 -0.0679
  483MOL0     H65147   3.967   3.359   0.546 -1.3413  0.0635  4.0477
  483MOL0     H65148   3.941   3.370   0.744 -1.5753  1.8718  0.6916
  483MOL0     H65149   4.111   3.417   0.777 -0.0903 -1.0585 -0.9214
  483MOL0     H65150   3.887   3.605   0.687 -1.3309 -0.9988  1.3541
  483MOL0     H65151   3.949   3.589   0.849  0.7832 -0.4738  0.5262
  483MOL0     H65152   4.107   3.699   0.592 -2.1464  1.0058 -0.2660
  483MOL0     H65153   4.049   3.782   0.729  2.6429  0.6904 -0.2418
  483MOL0     H65154   4.299   3.751   0.743 -0.7456  1.4403  0.1105
  483MOL0     H65155   4.270   3.572   0.729 -2.5794 -1.6412  0.4060
  483MOL0     H65156   4.161   3.890   0.949  0.8049  1.0844  0.4586
  483MOL0     H65157   4.186   3.780   1.311 -1.5023 -3.2363 -0.8821
  483MOL0     H65158   4.166   3.925   1.223  2.1830 -0.5168  2.5945
  483MOL0     H65159   3.962   3.849   1.364 -1.1705  2.4124 -1.1730
  483MOL0     H65160   3.946   3.703   1.265 -0.0113 -0.5869 -1.8461
  483MOL0     H65161   3.796   3.850   1.183 -0.6069 -0.4387 -0.8289
  483MOL0     H65162   3.927   3.861   1.070  0.2899  3.7992 -0.8647
  483MOL0     H65163   3.844   4.095   1.132 -1.2037 -0.7055 -0.4454
  483MOL0     H65164   4.016   4.071   1.182 -0.1434 -1.7056 -0.6204
  483MOL0     H65165   3.655   4.125   1.145 -4.4051 -0.7925 -1.5549
  483MOL0     H65166   3.323   4.111   1.150  0.5808 -0.4604 -2.5332
  483MOL0     H65167   3.357   4.287   1.180 -1.8256  0.7563 -2.7682
  483MOL0     H65168   3.454   4.186   1.069  0.4567  0.1227  0.9262
  483MOL0     H65169   3.031   4.216   1.232 -0.3454 -0.1602 -0.3821
  483MOL0     H65170   2.802   4.191   1.317  2.0983  0.4313 -1.6369
  483MOL0     H65171   2.751   4.123   1.719 -0.3434 -0.8837 -0.4090
  483MOL0     H65172   2.671   4.274   1.745  1.6364  0.6427 -0.2872
  483MOL0     H65173   2.529   4.063   1.588 -1.6456  0.1599 -0.5186
  483MOL0     H65174   2.540   4.073   1.766 -3.2018  1.1741  0.7408
  483MOL0     H65175   2.425   4.280   1.575 -0.2888 -0.9141  0.3355
  483MOL0     H65176   2.449   4.312   1.750  2.8515 -0.5810  0.7374
  483MOL0     H65177   2.296   4.085   1.626  0.9385  1.8417 -3.2015
  483MOL0     H65178   2.282   4.129   1.802 -0.7717  0.3249  0.3914
  483MOL0     H65179   2.183   4.320   1.577  2.9332 -1.7806 -0.7125
  483MOL0     H65180   2.165   4.343   1.748 -3.2124 -1.2562  0.7144
  483MOL0     H65181   2.050   4.148   1.560 -1.7226  0.1347 -0.0891
  483MOL0     H65182   2.034   4.116   1.732  5.2374  1.3909  2.3816
  483MOL0     H65183   1.923   4.342   1.558 -2.9507 -3.8407 -2.0582
  483MOL0     H65184   1.955   4.378   1.729  0.3272 -1.8755  1.5249
  483MOL0     H65185   1.711   4.321   1.671 -2.0718 -2.3558  0.5600
  483MOL0     H65186   1.777   4.211   1.784 -0.3746  0.2525 -0.3989
  483MOL0     H65187   2.897   4.348   1.689 -0.9133 -0.7663  0.4390
  483MOL0     H65188   3.140   4.349   1.613  2.0556 -1.1887 -1.6651
  483MOL0     H65189   3.503   4.096   1.604  1.8890 -0.0620  1.1744
  483MOL0     H65190   3.751   4.091   1.559 -1.2039 -3.3245  0.8196
  483MOL0     H65191   4.543   3.098   0.322 -0.9590  1.9201 -1.6148
  483MOL0     H65192   4.781   3.049   0.283 -0.6261 -0.6606 -0.2367
  483MOL0     H65193   5.217   3.189   0.377  1.5596  0.9455 -0.7764
  483MOL0     H65194   5.461   3.147   0.380 -1.2501  1.1360  0.6997
  483MOL0     H65195   5.647   3.040   0.364 -4.6839 -0.9896  0.5887
  483MOL0     H65196   5.665   3.109   0.533 -1.7675 -0.5704  0.9035
  483MOL0     H65197   5.873   3.032   0.432  0.6357  0.2831  0.4002
  483MOL0     H65198   5.806   2.865   0.391 -0.9779 -0.8255  1.3806
  483MOL0     H65199   5.770   2.843   0.643 -1.0808  1.0302  1.0915
  483MOL0     H65200   5.853   3.005   0.663 -1.8154 -0.3195 -0.2397
  483MOL0     H65201   6.000   2.801   0.707 -3.2364 -1.1157  0.2200
  483MOL0     H65202   6.051   2.940   0.607 -2.3796  1.4255  1.4805
  483MOL0     H65203   6.081   2.622   0.334  2.4125  1.4078 -0.0667
  483MOL0     H65204   5.403   2.790   0.616 -1.9895 -1.0668 -0.1666
  483MOL0     H65205   5.164   2.834   0.626  0.1702 -0.6357 -0.4911
  484MOL0     O65206   1.220   1.202   3.297 -0.1144  0.3263 -0.3528
  484MOL0     C65207   1.239   1.114   3.211 -0.1078  0.2247 -0.1533
  484MOL0     O65208   1.157   1.088   3.102  0.2640  0.5294 -0.3943
  484MOL0     C65209   1.055   1.173   3.074 -0.2623 -0.5038  0.1542
  484MOL0     C65210   0.932   1.125   3.050  0.3439 -0.9826  0.0832
  484MOL0     C65211   0.830   1.210   3.005  0.5697 -0.2476  0.2249
  484MOL0     C65212   0.849   1.348   2.991  0.4469 -0.3793 -1.1871
  484MOL0     O65213   0.751   1.433   2.949 -0.2144 -0.4701 -0.4505
  484MOL0     C65214   0.626   1.391   2.904  0.1942 -0.8794  0.1556
  484MOL0     C65215   0.576   1.503   2.820 -0.2780  0.7322  0.1430
  484MOL0     C65216   0.443   1.484   2.768 -0.1887  0.5745 -0.2986
  484MOL0     C65217   0.330   1.476   2.879  0.0035 -0.2337 -0.3011
  484MOL0     C65218   0.191   1.504   2.824 -0.5912 -0.8705  0.4706
  484MOL0     C65219   0.077   1.499   2.923  0.3830  0.5508  0.0865
  484MOL0     C65220  -0.046   1.534   2.840 -0.5903 -0.1148  0.2151
  484MOL0     C65221  -0.177   1.524   2.921 -0.6734 -0.2857  0.9516
  484MOL0     N65222  -0.294   1.548   2.840  0.8005  0.1753  0.9063
  484MOL0     C65223  -0.328   1.472   2.727 -0.1758 -0.3485 -0.0765
  484MOL0     C65224  -0.444   1.525   2.693 -0.7510 -0.3041  0.0444
  484MOL0     C65225  -0.525   1.456   2.588 -0.5120 -0.4485 -0.3969
  484MOL0     C65226  -0.668   1.510   2.604  0.6409  0.2613  0.2522
  484MOL0     C65227  -0.770   1.419   2.532  0.2743 -0.1873  0.0812
  484MOL0     C65228  -0.909   1.479   2.514  0.1280 -0.8240 -1.0561
  484MOL0     O65229  -0.985   1.414   2.412  0.8678 -0.4532  0.2333
  484MOL0     C65230  -1.093   1.477   2.351  0.2133  0.3528  0.8245
  484MOL0     C65231  -1.145   1.410   2.239 -0.2978  0.0608 -0.5629
  484MOL0     C65232  -1.239   1.467   2.153 -0.5874 -0.9542 -0.0703
  484MOL0     C65233  -1.297   1.391   2.038  0.1636  0.0403 -0.1819
  484MOL0     C65234  -1.281   1.604   2.178  0.0068  0.4537 -0.7780
  484MOL0     C65235  -1.387   1.667   2.098  0.0621 -0.0530 -0.1342
  484MOL0     O65236  -1.457   1.750   2.170  0.1219 -0.0742 -0.5008
  484MOL0     C65237  -1.572   1.804   2.135 -0.5462 -0.5996  1.0885
  484MOL0     C65238  -1.697   1.746   2.162 -0.3119 -0.0377  0.3398
  484MOL0     C65239  -1.813   1.823   2.137  0.4510  0.0767 -0.1213
  484MOL0     C65240  -1.805   1.946   2.061  0.0571  0.3187 -0.2744
  484MOL0     O65241  -1.911   2.017   2.021  0.7694 -0.5469 -0.4427
  484MOL0     C65242  -2.039   1.957   2.048 -0.1508 -0.4195  0.7596
  484MOL0     C65243  -2.143   2.046   1.985  1.3595 -0.3389 -0.3590
  484MOL0     C65244  -2.111   2.090   1.840 -0.5218  0.9090  0.5599
  484MOL0     C65245  -2.232   2.139   1.759  0.1426 -0.2653 -0.4172
  484MOL0     C65246  -2.302   2.019   1.698  0.2614  0.5276  0.6008
  484MOL0     C65247  -2.439   2.057   1.638  0.4794 -0.6202 -0.5215
  484MOL0     C65248  -2.525   1.938   1.589 -0.6479 -0.2353  0.1028
  484MOL0     C65249  -2.474   1.893   1.446  0.2231  0.0951 -0.6747
  484MOL0    Cl65250  -2.533   2.025   1.335  0.4419  0.5529  0.6627
  484MOL0     C65251  -1.675   1.993   2.028 -0.0236 -0.5914 -0.2506
  484MOL0     C65252  -1.559   1.929   2.072 -0.4207  0.4392  0.6563
  484MOL0     O65253  -1.412   1.640   1.983  0.0123 -0.6562  0.3207
  484MOL0     C65254  -1.228   1.664   2.291 -0.5643 -0.0661 -0.2060
  484MOL0     C65255  -1.139   1.608   2.370  0.2285 -0.7271 -1.0374
  484MOL0     N65256  -0.474   1.641   2.770 -0.2687  0.2745 -0.4104
  484MOL0     N65257  -0.385   1.653   2.853  0.2523 -0.3186  0.1596
  484MOL0     C65258   0.974   1.398   3.029 -0.3664 -0.0866  1.1543
  484MOL0     C65259   1.080   1.312   3.061 -0.4314  0.4358  0.4345
  484MOL0     C65260   1.358   1.026   3.227  0.2243 -0.1662  0.5279
  484MOL0     C65261   1.390   0.931   3.125 -0.0672  0.3743  0.3606
  484MOL0     C65262   1.503   0.845   3.151 -0.6719 -0.4198 -0.1331
  484MOL0     C65263   1.574   0.848   3.270  0.3912 -0.4725  0.5074
  484MOL0     O65264   1.688   0.772   3.283 -0.4667  0.1524  0.8474
  484MOL0     C65265   1.751   0.714   3.168 -0.2112  0.1927 -0.5728
  484MOL0     C65266   1.887   0.662   3.210  0.9894  0.4275 -0.2360
  484MOL0     C65267   1.960   0.571   3.105 -0.4836  0.8383  0.2228
  484MOL0     C65268   2.094   0.518   3.167  0.2147  0.0152  0.0044
  484MOL0     C65269   2.165   0.442   3.071 -0.1569  1.0130 -0.2321
  484MOL0     C65270   2.249   0.386   2.997  0.0294 -0.3931 -0.0005
  484MOL0     C65271   1.535   0.941   3.367  0.7004 -0.6077  0.5446
  484MOL0     C65272   1.437   1.031   3.335 -0.1323 -0.2448  0.0067
  484MOL0     H65273   0.911   1.020   3.068  1.8741 -1.4297 -0.5867
  484MOL0     H65274   0.731   1.168   2.992  1.6775 -2.4199 -1.8943
  484MOL0     H65275   0.627   1.305   2.837 -1.2129 -0.1196 -0.9096
  484MOL0     H65276   0.556   1.388   2.988 -0.1354  2.9992  0.1743
  484MOL0     H65277   0.582   1.600   2.869 -4.8989  1.8352 -1.0768
  484MOL0     H65278   0.651   1.502   2.740 -0.7436  2.6347 -0.3511
  484MOL0     H65279   0.427   1.574   2.708  2.3280  2.4432  1.6058
  484MOL0     H65280   0.443   1.391   2.711  0.2207  0.7414 -0.5791
  484MOL0     H65281   0.335   1.379   2.928 -1.7807 -0.4239 -0.4370
  484MOL0     H65282   0.342   1.548   2.962 -0.1736  1.2372 -1.5038
  484MOL0     H65283   0.190   1.607   2.787 -2.7356 -1.4324 -1.2910
  484MOL0     H65284   0.184   1.426   2.747  1.3947 -0.6582  0.0215
  484MOL0     H65285   0.073   1.398   2.965  0.0578  1.0833  1.3806
  484MOL0     H65286   0.082   1.571   3.005 -4.8413 -0.2456  1.4398
  484MOL0     H65287  -0.031   1.633   2.797 -0.3134  0.1232  0.8399
  484MOL0     H65288  -0.051   1.456   2.764  0.6652 -1.7301  1.7112
  484MOL0     H65289  -0.189   1.601   2.997 -2.0881  0.8333 -0.3289
  484MOL0     H65290  -0.185   1.423   2.962 -0.4853 -1.0497 -0.7909
  484MOL0     H65291  -0.271   1.396   2.675  0.6640  0.8462 -0.9516
  484MOL0     H65292  -0.483   1.467   2.488 -1.1125 -0.3976 -0.6478
  484MOL0     H65293  -0.523   1.350   2.617  0.8970 -0.2095  0.4974
  484MOL0     H65294  -0.685   1.614   2.578 -0.5580  0.2211  0.7911
  484MOL0     H65295  -0.690   1.509   2.711  1.7840 -2.9398  0.5892
  484MOL0     H65296  -0.792   1.327   2.588 -2.0527 -0.4888 -1.1673
  484MOL0     H65297  -0.741   1.394   2.429  1.1536  1.1447 -0.0200
  484MOL0     H65298  -0.894   1.586   2.498  0.5939 -0.6238  0.5693
  484MOL0     H65299  -0.956   1.473   2.613  3.1996 -0.8882  0.5383
  484MOL0     H65300  -1.103   1.311   2.227 -0.3768 -0.0211 -0.1745
  484MOL0     H65301  -1.284   1.286   2.064  0.5032  0.7291  2.7421
  484MOL0     H65302  -1.402   1.413   2.017 -0.1559 -1.0537  0.2323
  484MOL0     H65303  -1.236   1.417   1.951  1.3621  1.0720  0.9266
  484MOL0     H65304  -1.701   1.645   2.202 -1.5037 -0.1429  0.0039
  484MOL0     H65305  -1.902   1.780   2.182  1.9202 -0.3454  2.5991
  484MOL0     H65306  -2.038   1.853   2.015  0.5856 -0.3850  0.6531
  484MOL0     H65307  -2.055   1.948   2.156  0.2705  2.3479  1.1285
  484MOL0     H65308  -2.235   1.988   1.982  1.7121 -1.3938  3.8303
  484MOL0     H65309  -2.168   2.140   2.033  1.3663  0.7243 -2.3043
  484MOL0     H65310  -2.053   2.017   1.783 -1.2206  0.5028  0.3631
  484MOL0     H65311  -2.041   2.173   1.858 -0.7166  1.3362 -0.5971
  484MOL0     H65312  -2.306   2.196   1.817 -0.8844  1.0377 -2.8696
  484MOL0     H65313  -2.195   2.211   1.686  1.7138  1.1456  1.6508
  484MOL0     H65314  -2.317   1.933   1.764  1.7398 -2.2653 -2.4202
  484MOL0     H65315  -2.233   1.987   1.619  0.0254  2.7628 -0.6238
  484MOL0     H65316  -2.503   2.100   1.717  0.3877 -0.9820 -0.3965
  484MOL0     H65317  -2.416   2.138   1.568  1.8045  2.1918  2.8546
  484MOL0     H65318  -2.632   1.961   1.588 -0.4202  0.9503  0.9730
  484MOL0     H65319  -2.494   1.863   1.662 -0.6008  0.2491  0.5837
  484MOL0     H65320  -2.525   1.803   1.412  0.8934 -0.7469  0.5143
  484MOL0     H65321  -2.366   1.876   1.442  0.2032  0.1669 -3.0120
  484MOL0     H65322  -1.670   2.085   1.970  0.2159  0.5582  1.5268
  484MOL0     H65323  -1.460   1.971   2.061 -0.9662  2.1702  1.9511
  484MOL0     H65324  -1.243   1.768   2.319  1.3243 -0.0237  0.8137
  484MOL0     H65325  -1.095   1.674   2.445 -3.3689  1.1953 -0.4064
  484MOL0     H65326   1.002   1.499   3.005 -3.0899  0.6381  0.6829
  484MOL0     H65327   1.182   1.348   3.072 -0.5610  2.6871 -3.6843
  484MOL0     H65328   1.338   0.932   3.030 -2.9901  4.5566  1.7256
  484MOL0     H65329   1.536   0.781   3.069 -0.9365  1.5993 -1.9182
  484MOL0     H65330   1.689   0.632   3.132 -0.3759  0.4918 -0.9822
  484MOL0     H65331   1.773   0.787   3.090  1.2276 -0.1013 -0.4708
  484MOL0     H65332   1.862   0.598   3.295  0.8976  2.1124  1.0602
  484MOL0     H65333   1.955   0.742   3.240  0.6431  0.2206  1.2092
  484MOL0     H65334   1.984   0.631   3.017  0.4532  0.1749  0.0096
  484MOL0     H65335   1.904   0.479   3.086  0.3775  0.4419 -0.4735
  484MOL0     H65336   2.080   0.469   3.264  3.0698  1.7137  1.4283
  484MOL0     H65337   2.148   0.603   3.208 -0.7230 -0.2378  1.8647
  484MOL0     H65338   2.313   0.342   2.923  1.3318  0.5294  0.5286
  484MOL0     H65339   1.596   0.945   3.458  1.7834  0.7299 -0.1996
  484MOL0     H65340   1.419   1.103   3.415  3.4957 -0.3534  1.0853
  485MOL0     O65341   3.230   6.821   1.847 -0.2258 -0.0349 -0.1347
  485MOL0     C65342   3.243   6.872   1.957 -0.9804  0.0907 -0.4178
  485MOL0     O65343   3.149   6.898   2.046 -1.0947  0.0924  0.1952
  485MOL0     C65344   3.014   6.893   2.025  0.2193 -0.1792  0.5475
  485MOL0     C65345   2.943   6.905   2.139 -0.0483  0.4992  0.1811
  485MOL0     C65346   2.802   6.896   2.137  0.6061  0.1980  0.4132
  485MOL0     C65347   2.730   6.887   2.016  1.2228 -0.1229 -0.3819
  485MOL0     O65348   2.590   6.900   1.996  0.4373  0.7594  0.0635
  485MOL0     C65349   2.514   6.945   2.111  0.6716 -0.0017  0.6702
  485MOL0     C65350   2.372   6.985   2.071  0.5304 -0.7337  0.4441
  485MOL0     C65351   2.301   6.874   1.985 -0.0537 -0.3411 -0.4724
  485MOL0     C65352   2.171   6.912   1.908  0.3004 -0.3212 -0.8805
  485MOL0     C65353   2.079   6.788   1.874  0.3621  0.0094  0.2657
  485MOL0     C65354   1.952   6.832   1.781 -0.0042 -0.7187  0.5582
  485MOL0     C65355   1.874   6.707   1.744 -0.2990  0.6823 -0.7397
  485MOL0     C65356   1.742   6.751   1.672 -0.9901 -0.0521 -0.1088
  485MOL0     N65357   1.648   6.632   1.649  0.1453  0.6150  0.1342
  485MOL0     C65358   1.675   6.514   1.579 -0.2681 -0.4113  0.1038
  485MOL0     C65359   1.559   6.448   1.572 -0.5397 -0.5831 -0.3241
  485MOL0     C65360   1.532   6.312   1.516  0.4023 -0.1573 -0.3914
  485MOL0     C65361   1.398   6.315   1.435  0.7109 -1.1995  0.3302
  485MOL0     C65362   1.433   6.383   1.298  0.2353 -0.9302  0.2470
  485MOL0     C65363   1.303   6.441   1.251 -0.6275 -0.4847  0.6431
  485MOL0     O65364   1.203   6.338   1.236  0.2887 -0.3859 -0.2274
  485MOL0     C65365   1.071   6.379   1.221  0.9825  0.0166  0.2385
  485MOL0     C65366   0.971   6.286   1.187  0.7821  0.2106 -0.3630
  485MOL0     C65367   0.844   6.309   1.167  0.6733  0.2790  0.4699
  485MOL0     C65368   0.761   6.188   1.129  0.3301  0.3814 -0.0826
  485MOL0     C65369   0.786   6.435   1.177  0.0797 -0.4850  0.6263
  485MOL0     C65370   0.641   6.469   1.145  0.4598 -0.1511  0.4171
  485MOL0     O65371   0.550   6.370   1.110 -0.4224  0.4548  0.1301
  485MOL0     C65372   0.418   6.401   1.070  1.0899  0.2044 -0.1769
  485MOL0     C65373   0.384   6.518   0.998  0.2928  0.0661  0.3054
  485MOL0     C65374   0.255   6.536   0.949  0.4098 -0.4062 -0.1870
  485MOL0     C65375   0.155   6.440   0.962  0.0369 -0.5721 -0.8377
  485MOL0     O65376   0.033   6.478   0.913  0.4678 -0.4034 -0.0101
  485MOL0     C65377  -0.079   6.391   0.946 -0.2970  0.4785 -0.1221
  485MOL0     C65378  -0.184   6.444   0.848  0.9385  0.0190 -0.1975
  485MOL0     C65379  -0.323   6.388   0.855  0.6346 -0.3366  0.1870
  485MOL0     C65380  -0.365   6.337   0.719 -0.0377  0.7201  0.4628
  485MOL0     C65381  -0.504   6.275   0.732 -0.7474 -0.1967  0.2387
  485MOL0     C65382  -0.617   6.379   0.748 -0.2275  0.0615  0.4437
  485MOL0     C65383  -0.743   6.306   0.771  0.9813 -0.3132  0.4246
  485MOL0     C65384  -0.854   6.394   0.740  0.0096 -0.0633 -0.9517
  485MOL0    Cl65385  -1.008   6.337   0.807 -0.5647 -0.2589 -0.1234
  485MOL0     C65386   0.194   6.325   1.039  0.1400 -0.4112  0.1010
  485MOL0     C65387   0.328   6.299   1.088  0.4382 -0.0714 -0.1486
  485MOL0     O65388   0.619   6.587   1.167 -0.0083  0.7051 -0.0623
  485MOL0     C65389   0.875   6.538   1.220 -0.3343  0.6134  0.7626
  485MOL0     C65390   1.013   6.507   1.241  0.5245  0.7101 -0.4336
  485MOL0     N65391   1.467   6.525   1.640 -0.0940 -0.7824 -0.5878
  485MOL0     N65392   1.518   6.632   1.687  0.0409 -0.4620 -0.2725
  485MOL0     C65393   2.798   6.875   1.899  0.0083 -0.4162  0.4305
  485MOL0     C65394   2.945   6.876   1.906 -0.2853  0.9720  0.3478
  485MOL0     C65395   3.388   6.902   1.986 -0.4529 -0.5087 -0.6229
  485MOL0     C65396   3.426   6.972   2.102  0.2442  0.3982 -0.7641
  485MOL0     C65397   3.558   6.973   2.139  0.1059 -0.8703 -0.7594
  485MOL0     C65398   3.662   6.929   2.059  0.3246  0.9603 -0.7433
  485MOL0     O65399   3.794   6.918   2.092 -0.8637 -0.2141 -1.1905
  485MOL0     C65400   3.833   6.922   2.231  0.0741 -0.5901 -0.0184
  485MOL0     C65401   3.944   6.819   2.273 -0.2652 -0.0784 -0.3373
  485MOL0     C65402   4.082   6.844   2.205 -0.2076  0.3066 -0.3402
  485MOL0     C65403   4.195   6.763   2.278 -0.7197 -0.3730  0.0118
  485MOL0     C65404   4.319   6.752   2.190  0.2854 -0.3720 -0.7352
  485MOL0     C65405   4.425   6.730   2.129 -0.6063 -0.6585  0.3601
  485MOL0     C65406   3.621   6.865   1.944  0.1280  0.0359  0.2756
  485MOL0     C65407   3.491   6.859   1.901 -0.4682  0.4463  0.1232
  485MOL0     H65408   2.991   6.906   2.237  2.0274 -2.4526 -0.6534
  485MOL0     H65409   2.760   6.883   2.236 -0.3483 -3.7782 -0.3489
  485MOL0     H65410   2.507   6.874   2.194  1.4929  0.4305  1.1122
  485MOL0     H65411   2.553   7.038   2.154  0.4342  0.0622  0.7513
  485MOL0     H65412   2.314   7.003   2.162 -0.8486  0.7119 -0.6548
  485MOL0     H65413   2.375   7.081   2.019  1.4698 -3.0924 -4.4072
  485MOL0     H65414   2.377   6.845   1.911  0.4689 -0.4429  0.0993
  485MOL0     H65415   2.278   6.790   2.050  0.0025 -0.2899 -0.3864
  485MOL0     H65416   2.116   6.979   1.974  0.2568  0.5294 -1.7671
  485MOL0     H65417   2.192   6.970   1.818  0.1460  2.5497  0.8282
  485MOL0     H65418   2.141   6.711   1.828  0.1207  0.3911 -0.7379
  485MOL0     H65419   2.046   6.743   1.968 -1.1422  0.6731  0.0806
  485MOL0     H65420   1.885   6.893   1.842 -3.3379 -3.8127  0.3318
  485MOL0     H65421   1.976   6.887   1.689 -2.3168 -2.0159 -0.9439
  485MOL0     H65422   1.934   6.650   1.672 -0.9526 -1.7396  0.5456
  485MOL0     H65423   1.851   6.646   1.832  7.5783 -0.9834  0.9826
  485MOL0     H65424   1.766   6.803   1.579  0.5994 -1.5123 -0.5748
  485MOL0     H65425   1.689   6.825   1.732 -0.9741  0.9567 -1.2997
  485MOL0     H65426   1.762   6.491   1.518 -0.6245  0.0476 -0.5824
  485MOL0     H65427   1.617   6.271   1.460  2.1815  0.1679  1.8986
  485MOL0     H65428   1.511   6.248   1.603 -1.2845 -1.0533 -1.3992
  485MOL0     H65429   1.326   6.366   1.499  3.5686  0.0934  2.7827
  485MOL0     H65430   1.371   6.212   1.408  0.1403 -0.8627 -0.4065
  485MOL0     H65431   1.455   6.302   1.228 -1.9395  0.1666 -1.8544
  485MOL0     H65432   1.510   6.459   1.315 -0.8591 -0.1467  1.9524
  485MOL0     H65433   1.315   6.495   1.157  0.7672 -1.0462  0.4758
  485MOL0     H65434   1.271   6.514   1.327  1.8955  0.4599  0.8780
  485MOL0     H65435   1.010   6.185   1.182 -1.5756 -0.9182  1.8476
  485MOL0     H65436   0.719   6.138   1.217 -2.7218  0.5128 -1.3295
  485MOL0     H65437   0.683   6.204   1.054  1.0436 -0.0208 -0.9368
  485MOL0     H65438   0.824   6.109   1.088  2.4713  1.0382  1.7381
  485MOL0     H65439   0.462   6.585   0.964 -0.6174  0.8427 -0.2887
  485MOL0     H65440   0.232   6.634   0.908 -1.4874 -0.4916  0.6083
  485MOL0     H65441  -0.061   6.289   0.911  0.4463  1.1637 -1.8925
  485MOL0     H65442  -0.118   6.397   1.048 -0.4962  1.7029 -0.2545
  485MOL0     H65443  -0.196   6.551   0.868  0.3165 -0.4319  2.0593
  485MOL0     H65444  -0.143   6.443   0.746  3.5683  2.4435  0.7105
  485MOL0     H65445  -0.396   6.465   0.883  0.3926 -1.2017  2.1541
  485MOL0     H65446  -0.332   6.311   0.932 -3.3177  0.1094  0.4086
  485MOL0     H65447  -0.374   6.416   0.644 -2.0318  0.9493  0.8735
  485MOL0     H65448  -0.289   6.269   0.681 -0.1348  0.4126  0.8130
  485MOL0     H65449  -0.507   6.226   0.830 -1.4032  0.6368  0.6522
  485MOL0     H65450  -0.510   6.199   0.654  2.6300 -0.9977  0.6434
  485MOL0     H65451  -0.603   6.434   0.842 -4.0498  1.3197  0.4282
  485MOL0     H65452  -0.627   6.437   0.656 -1.5008 -1.2028 -0.2566
  485MOL0     H65453  -0.752   6.272   0.875 -1.0103 -1.4477 -0.0710
  485MOL0     H65454  -0.748   6.217   0.708  1.5660  0.3964 -0.6461
  485MOL0     H65455  -0.864   6.384   0.631 -0.6484 -2.7065 -0.7150
  485MOL0     H65456  -0.837   6.499   0.766 -0.2596  0.1710 -1.6790
  485MOL0     H65457   0.124   6.247   1.063 -2.9123  1.0127 -3.2612
  485MOL0     H65458   0.354   6.210   1.144  0.0476  1.0841  1.9358
  485MOL0     H65459   0.842   6.641   1.231 -1.4935  0.2871  0.4655
  485MOL0     H65460   1.074   6.586   1.284 -1.2041  1.5965  0.4824
  485MOL0     H65461   2.751   6.850   1.804 -0.6848 -0.8952  0.8955
  485MOL0     H65462   3.000   6.861   1.813  0.8529  0.6427  1.0469
  485MOL0     H65463   3.349   6.999   2.173 -2.7427 -1.1223 -3.2129
  485MOL0     H65464   3.591   7.009   2.235 -0.6444 -4.6661  1.1103
  485MOL0     H65465   3.872   7.024   2.240 -2.0304  0.2475  0.0746
  485MOL0     H65466   3.749   6.916   2.300 -0.1788 -0.1579 -0.2807
  485MOL0     H65467   3.909   6.718   2.249  3.1593 -1.4464 -0.1264
  485MOL0     H65468   3.955   6.838   2.380 -1.3660 -1.4586  0.0483
  485MOL0     H65469   4.116   6.947   2.212 -0.3416  0.2399  2.7627
  485MOL0     H65470   4.073   6.826   2.097  1.9681  2.3486 -0.9389
  485MOL0     H65471   4.172   6.658   2.302 -1.7324  0.4456  3.0853
  485MOL0     H65472   4.218   6.811   2.374  1.3005 -2.2043  0.5445
  485MOL0     H65473   4.500   6.706   2.057 -0.8773 -0.6558  0.0706
  485MOL0     H65474   3.693   6.814   1.882 -1.1573 -2.5654  0.7958
  485MOL0     H65475   3.470   6.798   1.814 -1.3277  0.7238  0.1285
  486MOL0     O65476   7.954   4.256   5.600 -0.2237  0.3832  0.3353
  486MOL0     C65477   8.050   4.259   5.525  0.1016  0.8214 -0.1092
  486MOL0     O65478   8.052   4.304   5.399 -0.2810 -0.7511 -0.2524
  486MOL0     C65479   7.953   4.383   5.348 -0.7001 -0.0303 -0.8229
  486MOL0     C65480   7.829   4.334   5.312  0.2689  0.1907  0.4622
  486MOL0     C65481   7.732   4.417   5.260  0.6555 -0.3180  0.3692
  486MOL0     C65482   7.765   4.555   5.240  0.6210 -0.4086  0.3528
  486MOL0     O65483   7.673   4.634   5.184  0.6559  0.1343 -0.2470
  486MOL0     C65484   7.682   4.779   5.185  0.0399  0.6752 -0.1175
  486MOL0     C65485   7.552   4.841   5.127 -0.0790 -0.8868  0.4607
  486MOL0     C65486   7.562   4.989   5.092 -0.1686 -0.2398  0.5975
  486MOL0     C65487   7.426   5.034   5.047  0.2643  0.2887 -0.1204
  486MOL0     C65488   7.292   4.998   5.117 -0.4600 -0.6871 -0.5522
  486MOL0     C65489   7.171   5.078   5.063 -0.3392 -0.2409 -0.3151
  486MOL0     C65490   7.042   5.012   5.114  0.2748 -0.3340 -0.3831
  486MOL0     C65491   6.916   5.106   5.102 -0.3332 -1.5823 -0.7705
  486MOL0     N65492   6.929   5.226   5.189  0.3105  0.1446 -0.0540
  486MOL0     C65493   6.934   5.348   5.132 -0.2362 -0.2829  0.2693
  486MOL0     C65494   6.933   5.433   5.240  0.7968  0.7337  0.5692
  486MOL0     C65495   6.931   5.583   5.254 -0.4421 -0.1975 -0.0087
  486MOL0     C65496   7.042   5.646   5.172 -0.9481 -0.6589 -0.0710
  486MOL0     C65497   7.169   5.659   5.248  0.1091 -0.3323  0.6278
  486MOL0     C65498   7.260   5.536   5.246  1.0312  0.1333  0.1393
  486MOL0     O65499   7.295   5.488   5.113 -0.0275 -0.4932  0.7139
  486MOL0     C65500   7.402   5.554   5.051  0.2569  0.5939 -0.4225
  486MOL0     C65501   7.388   5.687   5.008  0.1260  0.3630  0.5606
  486MOL0     C65502   7.494   5.765   4.965 -0.5268  0.2091 -0.5235
  486MOL0     C65503   7.467   5.909   4.922  0.5577  0.2607 -1.1927
  486MOL0     C65504   7.621   5.705   4.953  0.6889  0.0113  0.7740
  486MOL0     C65505   7.739   5.765   4.901  0.0939 -0.4463  0.0437
  486MOL0     O65506   7.714   5.840   4.789 -0.3063  0.3782  0.3702
  486MOL0     C65507   7.808   5.907   4.716 -0.1527  0.3211  1.0003
  486MOL0     C65508   7.744   5.972   4.603  0.3459 -0.1762 -0.3027
  486MOL0     C65509   7.819   6.052   4.511  0.3843  0.1715 -0.0255
  486MOL0     C65510   7.954   6.077   4.527  0.2374  0.3090 -0.9033
  486MOL0     O65511   8.012   6.161   4.444  0.2727 -0.0428  0.6665
  486MOL0     C65512   8.149   6.177   4.447 -0.4290 -0.1040  0.1721
  486MOL0     C65513   8.193   6.294   4.361  0.4463  0.0583 -0.8681
  486MOL0     C65514   8.343   6.338   4.382  0.3882 -0.5072  0.4043
  486MOL0     C65515   8.430   6.254   4.281  0.3012 -0.3090  0.1669
  486MOL0     C65516   8.570   6.302   4.304 -0.0784 -0.7160  0.4629
  486MOL0     C65517   8.682   6.212   4.253 -0.7391 -0.6878 -0.2211
  486MOL0     C65518   8.814   6.279   4.295  0.4824  1.0986 -0.0076
  486MOL0     C65519   8.934   6.254   4.212 -0.1803 -0.7083 -0.0229
  486MOL0    Cl65520   9.080   6.346   4.243 -0.3114  0.1671 -0.1538
  486MOL0     C65521   8.016   6.008   4.636 -0.0184  0.5625  0.4471
  486MOL0     C65522   7.947   5.933   4.735  0.1959  0.1865 -0.1340
  486MOL0     O65523   7.849   5.745   4.958  0.4549  1.6130 -0.6029
  486MOL0     C65524   7.631   5.570   4.985 -0.1125  0.0755 -0.5280
  486MOL0     C65525   7.527   5.494   5.046 -0.6974  0.1628  0.7312
  486MOL0     N65526   6.941   5.346   5.354 -1.1804 -0.3605 -0.3828
  486MOL0     N65527   6.929   5.228   5.320 -0.2145  0.0600  0.3098
  486MOL0     C65528   7.888   4.600   5.281  0.1482 -0.2311 -0.3149
  486MOL0     C65529   7.988   4.518   5.327 -0.2278  0.0360 -0.3589
  486MOL0     C65530   8.181   4.211   5.564  0.2426 -0.1735 -0.4331
  486MOL0     C65531   8.302   4.255   5.507 -0.0325  0.1710 -0.8814
  486MOL0     C65532   8.417   4.200   5.563 -0.0393  0.3394 -0.2055
  486MOL0     C65533   8.423   4.107   5.669  0.1559 -0.5107 -0.0635
  486MOL0     O65534   8.547   4.071   5.710 -0.1372 -0.5054 -0.0632
  486MOL0     C65535   8.567   4.082   5.852 -0.4340 -0.7263  0.8129
  486MOL0     C65536   8.573   4.229   5.913 -0.3983  0.5585  0.4294
  486MOL0     C65537   8.641   4.333   5.828  0.4598 -0.1944  0.6142
  486MOL0     C65538   8.675   4.466   5.904 -0.9917 -0.0114 -0.5608
  486MOL0     C65539   8.560   4.529   5.981 -0.4481 -0.1223 -0.0070
  486MOL0     C65540   8.470   4.567   6.048  0.2552 -0.6876 -0.1165
  486MOL0     C65541   8.309   4.070   5.732  1.0948  0.6675  0.4777
  486MOL0     C65542   8.188   4.124   5.677  0.4979 -0.3345  0.2398
  486MOL0     H65543   7.810   4.228   5.323 -0.0625  0.0359 -1.3576
  486MOL0     H65544   7.633   4.379   5.239 -0.2212  2.0763 -0.0535
  486MOL0     H65545   7.699   4.815   5.287 -1.9815 -2.2917  1.4105
  486MOL0     H65546   7.770   4.809   5.127  0.6188 -0.0243  0.3800
  486MOL0     H65547   7.536   4.791   5.031 -1.1823  1.6832 -0.8134
  486MOL0     H65548   7.469   4.817   5.194  2.5315 -2.2144  3.4790
  486MOL0     H65549   7.578   5.044   5.186  0.6601  2.2636 -0.9149
  486MOL0     H65550   7.632   5.026   5.017 -0.5832 -0.5426  0.0584
  486MOL0     H65551   7.436   5.141   5.026  1.3758 -0.0311 -1.3126
  486MOL0     H65552   7.403   4.993   4.948 -1.1266  1.9147 -0.5126
  486MOL0     H65553   7.266   4.893   5.097 -0.3533 -0.2648 -3.1917
  486MOL0     H65554   7.300   5.007   5.226  3.1107 -0.7241 -0.6867
  486MOL0     H65555   7.174   5.186   5.082 -2.0589 -0.3703  0.8809
  486MOL0     H65556   7.184   5.078   4.955 -0.6261 -0.9746 -0.3545
  486MOL0     H65557   7.028   4.914   5.068  0.2918 -0.7393  0.4548
  486MOL0     H65558   7.056   4.979   5.217  0.6072  1.1434  0.0795
  486MOL0     H65559   6.825   5.055   5.137 -0.6454 -0.1445  0.6385
  486MOL0     H65560   6.891   5.140   5.001 -0.0522  3.5434  0.6020
  486MOL0     H65561   6.926   5.375   5.027 -2.1651 -0.5408  0.3057
  486MOL0     H65562   6.836   5.622   5.218 -1.7521  1.2184  4.4034
  486MOL0     H65563   6.936   5.613   5.358  0.6020  1.3061 -0.4624
  486MOL0     H65564   7.016   5.750   5.153  2.0570  0.4233  1.1181
  486MOL0     H65565   7.055   5.589   5.079  0.9418 -0.4128  0.0157
  486MOL0     H65566   7.151   5.684   5.353  0.7784  0.9519  0.4538
  486MOL0     H65567   7.218   5.744   5.199  1.9943 -2.2105 -0.9061
  486MOL0     H65568   7.204   5.456   5.294 -3.2491  2.2124 -0.8188
  486MOL0     H65569   7.349   5.561   5.304 -0.5693  0.3599  2.6308
  486MOL0     H65570   7.287   5.725   4.991 -0.5988 -1.7144 -0.0720
  486MOL0     H65571   7.534   5.978   4.973  0.9506 -1.2966  0.5343
  486MOL0     H65572   7.457   5.918   4.814  0.8056  0.1907 -1.2211
  486MOL0     H65573   7.369   5.941   4.959  0.3349 -0.1455 -1.4203
  486MOL0     H65574   7.641   5.945   4.583  1.4565 -3.1723 -2.7104
  486MOL0     H65575   7.765   6.107   4.434  2.7908  3.1658  0.2434
  486MOL0     H65576   8.183   6.190   4.550  0.7057 -0.1409 -0.1896
  486MOL0     H65577   8.199   6.085   4.416 -0.8102 -0.2404 -0.0494
  486MOL0     H65578   8.162   6.267   4.259  2.2767 -1.5055 -1.0634
  486MOL0     H65579   8.131   6.381   4.387 -0.2035 -0.1835 -1.5938
  486MOL0     H65580   8.378   6.314   4.483  0.5543  1.6425  0.9086
  486MOL0     H65581   8.351   6.447   4.376 -2.6521 -0.1868  0.7070
  486MOL0     H65582   8.417   6.147   4.299  1.7000 -0.2221  2.0191
  486MOL0     H65583   8.399   6.275   4.178  0.6724 -0.2089  0.0746
  486MOL0     H65584   8.596   6.322   4.409  0.7036  0.3179  0.0897
  486MOL0     H65585   8.577   6.400   4.255  0.6120 -0.3199  1.3279
  486MOL0     H65586   8.681   6.113   4.300  0.9676  0.2065  1.8698
  486MOL0     H65587   8.691   6.201   4.145  2.1497  2.3152 -0.4713
  486MOL0     H65588   8.836   6.229   4.390 -3.5341 -1.6332 -0.2923
  486MOL0     H65589   8.791   6.386   4.307  2.1337  1.8113 -2.3811
  486MOL0     H65590   8.905   6.274   4.108  0.7614 -0.2292 -0.2073
  486MOL0     H65591   8.961   6.148   4.218  1.1322 -0.5561 -2.1690
  486MOL0     H65592   8.124   6.006   4.646  0.0340  0.3252 -0.1388
  486MOL0     H65593   7.991   5.899   4.828  0.0375  3.7130  1.3748
  486MOL0     H65594   7.727   5.522   4.974 -0.2910 -0.6982  1.0293
  486MOL0     H65595   7.532   5.392   5.083  1.2453  0.1180  0.4352
  486MOL0     H65596   7.920   4.704   5.276 -1.7219  0.4270  0.7426
  486MOL0     H65597   8.088   4.548   5.357 -0.4604  0.8751 -0.4132
  486MOL0     H65598   8.304   4.330   5.428  1.3028 -2.2751 -3.3451
  486MOL0     H65599   8.513   4.230   5.524 -0.1547  0.4603 -0.4001
  486MOL0     H65600   8.504   4.013   5.910 -0.1005 -0.0029  2.0832
  486MOL0     H65601   8.668   4.040   5.862 -0.0338 -0.3443 -1.1499
  486MOL0     H65602   8.632   4.214   6.004  3.1603 -1.7325 -1.9743
  486MOL0     H65603   8.474   4.269   5.936  0.0404  3.0224 -1.5125
  486MOL0     H65604   8.569   4.350   5.748 -0.1949 -1.1014  0.9866
  486MOL0     H65605   8.731   4.293   5.780 -0.2456 -0.2701 -0.6593
  486MOL0     H65606   8.714   4.540   5.834 -0.2977  0.8668  0.7070
  486MOL0     H65607   8.748   4.452   5.984 -0.5384 -0.5317 -1.0522
  486MOL0     H65608   8.383   4.583   6.108  0.9244  3.7047 -0.0114
  486MOL0     H65609   8.300   4.014   5.825 -1.8257  2.2444  1.2592
  486MOL0     H65610   8.098   4.101   5.733  1.3337  3.3339  3.5329
  487MOL0     O65611   4.707  10.329   2.525  0.2756 -0.4581  0.3135
  487MOL0     C65612   4.631  10.388   2.600 -0.2027  0.4410 -0.4559
  487MOL0     O65613   4.611  10.353   2.729  0.3901 -0.0131  0.5302
  487MOL0     C65614   4.699  10.258   2.780  0.1873 -0.6944 -0.6263
  487MOL0     C65615   4.818  10.300   2.837 -0.8550  0.1600 -0.1400
  487MOL0     C65616   4.902  10.205   2.893  0.3940 -0.3944 -0.5752
  487MOL0     C65617   4.868  10.070   2.908  0.2094  1.7773 -0.1605
  487MOL0     O65618   4.949   9.979   2.974  0.0914 -0.5043 -0.3486
  487MOL0     C65619   4.900   9.850   3.001  1.1006  0.0167  0.0823
  487MOL0     C65620   4.994   9.787   3.087  0.2834  0.0107 -0.3217
  487MOL0     C65621   4.959   9.637   3.120  0.1030  0.2261  0.1950
  487MOL0     C65622   5.081   9.569   3.175 -0.7091  0.2928  0.4833
  487MOL0     C65623   5.065   9.417   3.203  0.0137  0.1498  0.8650
  487MOL0     C65624   5.169   9.341   3.283 -0.5387 -0.1076 -0.4359
  487MOL0     C65625   5.137   9.195   3.296  0.8647  1.3356 -0.3308
  487MOL0     C65626   5.190   9.112   3.413  0.2446 -0.3044 -0.2865
  487MOL0     N65627   5.336   9.108   3.434 -0.1806 -0.6336 -0.5345
  487MOL0     C65628   5.417   8.999   3.402  0.5611  0.1935  0.2855
  487MOL0     C65629   5.539   9.028   3.447 -0.4628 -0.3883 -0.1886
  487MOL0     C65630   5.671   8.953   3.450 -0.3168  0.8038  0.9930
  487MOL0     C65631   5.714   8.906   3.587  0.5473 -0.3157  0.0871
  487MOL0     C65632   5.662   8.763   3.641  0.5335 -0.3718  0.2825
  487MOL0     C65633   5.509   8.751   3.647  0.4831  0.3665 -0.0642
  487MOL0     O65634   5.447   8.843   3.747 -0.5540  0.0213  0.0812
  487MOL0     C65635   5.321   8.803   3.782 -2.0335  0.6652  1.0804
  487MOL0     C65636   5.216   8.865   3.720  0.4170 -0.4370  0.3287
  487MOL0     C65637   5.089   8.819   3.734 -0.6105 -0.0086 -0.2796
  487MOL0     C65638   4.997   8.880   3.629  0.9731  0.4042 -0.2686
  487MOL0     C65639   5.064   8.716   3.828 -0.4637 -0.8476 -0.2922
  487MOL0     C65640   4.933   8.660   3.841 -0.6658  0.1404 -0.0700
  487MOL0     O65641   4.880   8.660   3.964 -0.0702  0.0832 -0.2460
  487MOL0     C65642   4.748   8.623   3.961  0.2315  0.7809 -0.4177
  487MOL0     C65643   4.719   8.496   4.009 -0.6244 -0.5955 -0.4407
  487MOL0     C65644   4.594   8.449   3.984  0.3344  0.3250  0.0298
  487MOL0     C65645   4.499   8.539   3.933 -0.4131 -0.4411  0.0670
  487MOL0     O65646   4.380   8.475   3.926  0.5225  0.3858 -0.5746
  487MOL0     C65647   4.266   8.546   3.871 -0.1220  0.3518 -0.3140
  487MOL0     C65648   4.158   8.451   3.900  0.0635 -0.4840  0.8378
  487MOL0     C65649   4.027   8.512   3.848  0.0693 -0.1237  0.4993
  487MOL0     C65650   3.910   8.413   3.881  0.3900  0.1615  0.6642
  487MOL0     C65651   3.869   8.430   4.027 -0.3319  0.7124  0.2346
  487MOL0     C65652   3.730   8.365   4.054 -0.8155 -0.4877  0.3366
  487MOL0     C65653   3.653   8.413   4.181 -0.5925 -0.1148  0.8899
  487MOL0     C65654   3.731   8.372   4.307  0.1153 -0.5702 -0.2122
  487MOL0    Cl65655   3.758   8.190   4.316 -0.0049 -0.2136 -0.1388
  487MOL0     C65656   4.520   8.672   3.902  0.1154 -0.1832 -0.2448
  487MOL0     C65657   4.652   8.704   3.910 -0.6452 -0.3767 -0.0225
  487MOL0     O65658   4.899   8.594   3.741  0.0749 -0.2471  0.5026
  487MOL0     C65659   5.170   8.656   3.899  0.0739 -0.5739  0.2428
  487MOL0     C65660   5.302   8.701   3.873 -0.6634  0.1867 -0.2018
  487MOL0     N65661   5.536   9.151   3.507  0.6626  0.0794  0.2339
  487MOL0     N65662   5.415   9.196   3.497  0.4222  0.4567 -0.1739
  487MOL0     C65663   4.741  10.034   2.859 -0.7775  0.9797  0.9290
  487MOL0     C65664   4.658  10.124   2.786  0.0229  0.3453  0.4778
  487MOL0     C65665   4.537  10.488   2.547 -1.0081 -0.1540 -0.2952
  487MOL0     C65666   4.441  10.550   2.630 -0.3803  0.9063 -0.4084
  487MOL0     C65667   4.366  10.658   2.590  0.1770  0.2823 -0.1621
  487MOL0     C65668   4.359  10.689   2.450 -0.0966  0.2357  0.0053
  487MOL0     O65669   4.277  10.782   2.390 -0.6556  0.0647 -0.0191
  487MOL0     C65670   4.146  10.804   2.451 -0.7602 -0.4180 -0.0373
  487MOL0     C65671   4.074  10.921   2.385 -0.0795  0.0865  0.3252
  487MOL0     C65672   4.165  11.045   2.393  0.6903 -0.0793 -0.0393
  487MOL0     C65673   4.200  11.094   2.530  0.5691 -0.6652 -0.8591
  487MOL0     C65674   4.091  11.115   2.622  0.6586 -0.3363  0.3141
  487MOL0     C65675   3.992  11.128   2.691 -0.0974  0.6429 -0.1106
  487MOL0     C65676   4.456  10.630   2.365 -0.5680  0.3869  0.0145
  487MOL0     C65677   4.547  10.537   2.416  0.0258  0.2374  0.8003
  487MOL0     H65678   4.842  10.406   2.840  1.2897 -0.3035  1.0744
  487MOL0     H65679   4.990  10.242   2.944 -0.9203 -0.2262  1.7155
  487MOL0     H65680   4.805   9.852   3.056 -0.9672  1.1806 -3.2815
  487MOL0     H65681   4.887   9.795   2.908 -1.1529  3.3212 -1.7694
  487MOL0     H65682   5.095   9.798   3.048 -0.2230  0.2766 -1.6015
  487MOL0     H65683   4.986   9.829   3.188  0.5551 -2.2150  0.6956
  487MOL0     H65684   4.880   9.630   3.195  2.2802 -0.6054  2.5252
  487MOL0     H65685   4.923   9.580   3.033 -0.2758  1.0614 -0.2015
  487MOL0     H65686   5.165   9.586   3.108 -1.7110  1.2739 -0.5686
  487MOL0     H65687   5.109   9.622   3.267 -2.0228 -1.0034  1.6919
  487MOL0     H65688   4.972   9.402   3.259 -0.7353 -2.1894 -0.8432
  487MOL0     H65689   5.045   9.378   3.103  2.1778 -2.0714  1.1911
  487MOL0     H65690   5.269   9.342   3.238 -0.8585  1.1052 -1.1701
  487MOL0     H65691   5.166   9.383   3.383  0.8273  0.6831 -0.6905
  487MOL0     H65692   5.029   9.191   3.309  0.4332  1.6447 -3.1354
  487MOL0     H65693   5.170   9.147   3.203  1.8291 -0.4865  0.8894
  487MOL0     H65694   5.148   9.011   3.411 -0.8114  0.1008  0.6320
  487MOL0     H65695   5.153   9.152   3.508  2.7778  0.9121  0.2734
  487MOL0     H65696   5.390   8.911   3.345  1.1434  0.3643 -0.2669
  487MOL0     H65697   5.656   8.863   3.389 -0.6855  0.4739  1.5672
  487MOL0     H65698   5.749   9.019   3.409 -1.7180  1.2839 -1.0888
  487MOL0     H65699   5.684   8.978   3.663 -0.7096 -1.6592  0.9103
  487MOL0     H65700   5.822   8.892   3.589  0.8659  1.3548 -1.8782
  487MOL0     H65701   5.700   8.759   3.744  1.6376 -1.4887 -0.1465
  487MOL0     H65702   5.705   8.678   3.588 -1.0523 -0.0473 -1.6248
  487MOL0     H65703   5.498   8.646   3.676 -1.9861  0.6645  0.2863
  487MOL0     H65704   5.459   8.761   3.551 -1.1867 -1.0746  0.5926
  487MOL0     H65705   5.235   8.947   3.651 -0.1282  0.3261  1.0581
  487MOL0     H65706   5.021   8.843   3.529 -1.0161 -2.1592  0.0755
  487MOL0     H65707   4.894   8.846   3.646  1.3410 -0.2758  0.7164
  487MOL0     H65708   4.996   8.989   3.627 -1.4303  0.4652  0.7136
  487MOL0     H65709   4.797   8.433   4.050 -1.5547 -2.0131 -0.7869
  487MOL0     H65710   4.559   8.347   3.996  0.6381  0.0549 -1.3111
  487MOL0     H65711   4.254   8.650   3.905  2.6533  1.3561 -2.0681
  487MOL0     H65712   4.281   8.554   3.763 -0.9930 -0.3037 -0.4908
  487MOL0     H65713   4.179   8.356   3.851 -2.2506 -1.4292  1.5446
  487MOL0     H65714   4.148   8.436   4.007 -2.4104  0.6269  0.8313
  487MOL0     H65715   4.027   8.519   3.739 -0.6640  1.9008  0.5712
  487MOL0     H65716   4.014   8.615   3.885 -1.1702 -0.4375  0.9949
  487MOL0     H65717   3.816   8.426   3.826 -1.5858 -2.2095  3.1865
  487MOL0     H65718   3.941   8.310   3.864 -2.4653 -0.6569 -0.0696
  487MOL0     H65719   3.859   8.535   4.054  1.5642  1.0928 -0.3501
  487MOL0     H65720   3.946   8.380   4.087 -0.7135 -0.0308  0.1119
  487MOL0     H65721   3.666   8.395   3.970  1.2534  0.6873 -0.9130
  487MOL0     H65722   3.740   8.256   4.047 -0.1696 -0.7057  3.2813
  487MOL0     H65723   3.557   8.361   4.179  0.0512 -1.3209  0.1921
  487MOL0     H65724   3.642   8.522   4.171 -0.9468 -0.3828 -3.3756
  487MOL0     H65725   3.665   8.397   4.392  1.5209  0.4500  0.6265
  487MOL0     H65726   3.825   8.427   4.318 -0.2762 -0.3134  2.9208
  487MOL0     H65727   4.444   8.740   3.864 -0.5745 -0.0171  1.3673
  487MOL0     H65728   4.686   8.800   3.873 -1.7306  0.3620  0.8573
  487MOL0     H65729   5.135   8.585   3.973 -3.0458  1.0926  0.5168
  487MOL0     H65730   5.387   8.661   3.929 -2.4848  0.0593  2.7173
  487MOL0     H65731   4.702   9.932   2.865  0.1736  0.6367  1.6777
  487MOL0     H65732   4.562  10.096   2.744  0.9868 -0.6097 -1.1939
  487MOL0     H65733   4.441  10.511   2.731  0.7854  1.2016 -0.2828
  487MOL0     H65734   4.301  10.706   2.663  2.0935  2.0423  0.4839
  487MOL0     H65735   4.089  10.713   2.431 -0.8955 -0.2892 -0.2397
  487MOL0     H65736   4.148  10.829   2.558  0.9361 -0.0037 -0.1424
  487MOL0     H65737   3.978  10.923   2.437  0.3594  0.1561  1.1410
  487MOL0     H65738   4.047  10.898   2.281 -1.9494 -1.2440  1.0696
  487MOL0     H65739   4.119  11.132   2.345  1.9920 -1.0014 -3.2096
  487MOL0     H65740   4.260  11.033   2.340  1.6794  3.7647  0.5874
  487MOL0     H65741   4.241  11.193   2.508  2.2636 -1.4329 -1.2881
  487MOL0     H65742   4.276  11.035   2.583  2.4472  3.4692  1.5701
  487MOL0     H65743   3.906  11.133   2.755 -1.8998  0.3441 -2.3453
  487MOL0     H65744   4.459  10.661   2.261  0.2895  2.3236  0.5705
  487MOL0     H65745   4.625  10.495   2.353 -0.0975  2.3281 -0.8407
  488MOL0     O65746   8.579   3.887  10.555  0.5682  0.0140 -0.3999
  488MOL0     C65747   8.648   3.984  10.579  0.1358 -1.1453  0.0812
  488MOL0     O65748   8.593   4.103  10.620 -0.4811 -0.1645 -0.7205
  488MOL0     C65749   8.455   4.103  10.639  0.3782 -0.3592 -0.2106
  488MOL0     C65750   8.366   4.067  10.548  0.1398 -0.7695 -0.2917
  488MOL0     C65751   8.225   4.052  10.584 -0.4085 -0.6563  0.2879
  488MOL0     C65752   8.189   4.087  10.714 -0.0378 -1.0297  0.3526
  488MOL0     O65753   8.063   4.081  10.769 -0.7528  0.6514  0.4452
  488MOL0     C65754   7.962   4.150  10.692 -0.1963  0.4331  0.2972
  488MOL0     C65755   7.824   4.150  10.752 -0.5358 -0.4907 -0.2921
  488MOL0     C65756   7.801   4.024  10.835 -0.1632  0.6140 -0.1325
  488MOL0     C65757   7.660   4.026  10.899 -0.2771  0.5492  0.4282
  488MOL0     C65758   7.629   3.903  10.987  0.4808  0.1772 -0.4443
  488MOL0     C65759   7.494   3.926  11.059 -0.3992 -0.4410  0.1490
  488MOL0     C65760   7.461   3.811  11.156  0.2955  0.3130 -0.1901
  488MOL0     C65761   7.326   3.818  11.228  0.2445  0.0597 -0.3032
  488MOL0     N65762   7.331   3.878  11.365 -0.0012 -0.5847  0.5192
  488MOL0     C65763   7.418   3.846  11.474 -0.8275  0.2465 -0.2251
  488MOL0     C65764   7.364   3.896  11.588  0.4485 -0.3021  0.0353
  488MOL0     C65765   7.414   3.876  11.729 -0.1425 -0.1461  0.6334
  488MOL0     C65766   7.395   3.735  11.786  0.2446 -0.0082 -0.8163
  488MOL0     C65767   7.241   3.698  11.788  0.1108 -1.0704  0.3137
  488MOL0     C65768   7.180   3.745  11.918 -0.8247 -0.2598  0.1206
  488MOL0     O65769   7.038   3.741  11.894 -0.9446  0.2820 -0.7382
  488MOL0     C65770   6.963   3.755  12.002 -0.6212 -0.6576 -0.5076
  488MOL0     C65771   7.007   3.785  12.134 -0.1943 -0.0952  0.1754
  488MOL0     C65772   6.917   3.825  12.231  0.7571  0.2638  0.4317
  488MOL0     C65773   6.961   3.869  12.370 -0.7557  0.0214  1.3368
  488MOL0     C65774   6.775   3.823  12.200  0.2795  0.1084  0.0741
  488MOL0     C65775   6.666   3.852  12.294  0.2673 -0.3734 -0.1492
  488MOL0     O65776   6.676   3.816  12.423  0.0292  0.1501  0.3289
  488MOL0     C65777   6.548   3.823  12.483 -0.1398  0.1686  0.1150
  488MOL0     C65778   6.443   3.731  12.460  0.5263  0.7550  0.7431
  488MOL0     C65779   6.311   3.751  12.494 -0.6768 -0.6946 -0.4845
  488MOL0     C65780   6.283   3.855  12.582 -1.0722  0.0580 -0.0267
  488MOL0     O65781   6.170   3.858  12.648  0.1963 -0.3248 -0.5833
  488MOL0     C65782   6.102   3.738  12.697  0.3269  0.4819  0.6490
  488MOL0     C65783   5.986   3.769  12.793 -0.3497 -0.1717  0.2421
  488MOL0     C65784   5.879   3.854  12.722 -0.2342  0.2740 -0.1434
  488MOL0     C65785   5.746   3.849  12.787 -0.0111 -0.5834  0.6058
  488MOL0     C65786   5.653   3.948  12.718 -0.6743 -0.0078  0.1949
  488MOL0     C65787   5.505   3.941  12.761 -0.4454  0.9981 -0.3952
  488MOL0     C65788   5.399   4.030  12.694 -0.2682 -0.7073 -0.3538
  488MOL0     C65789   5.256   4.013  12.748 -0.3478 -0.0560 -0.5572
  488MOL0    Cl65790   5.193   3.861  12.682  0.0335 -0.4244  0.1302
  488MOL0     C65791   6.382   3.955  12.604  0.8980 -0.1153  0.5220
  488MOL0     C65792   6.503   3.938  12.541 -0.0397 -0.0001  0.8641
  488MOL0     O65793   6.566   3.910  12.245 -0.0869  0.5697 -0.3755
  488MOL0     C65794   6.736   3.788  12.071  0.2512 -0.1013 -0.0126
  488MOL0     C65795   6.829   3.757  11.980 -0.0395 -0.1416 -0.5588
  488MOL0     N65796   7.246   3.962  11.554  0.3499 -0.4343  0.1739
  488MOL0     N65797   7.239   3.955  11.427  0.3808 -1.1375 -0.3438
  488MOL0     C65798   8.289   4.134  10.798  0.9483  0.2636 -0.9914
  488MOL0     C65799   8.419   4.146  10.762  0.1064  0.2168  1.1314
  488MOL0     C65800   8.794   3.956  10.593  0.0658 -0.1108 -0.2557
  488MOL0     C65801   8.865   4.014  10.702  0.1937 -0.3187 -0.3587
  488MOL0     C65802   9.000   3.985  10.721 -0.2126  0.4696  0.2211
  488MOL0     C65803   9.075   3.918  10.625 -0.2945 -0.3231 -0.6579
  488MOL0     O65804   9.213   3.916  10.643 -0.1961  0.0815 -0.2760
  488MOL0     C65805   9.303   3.895  10.535 -0.9960 -0.3364 -0.3639
  488MOL0     C65806   9.455   3.910  10.571  0.0400 -0.3892 -0.3574
  488MOL0     C65807   9.491   3.816  10.690 -1.4778  0.3594 -0.2191
  488MOL0     C65808   9.639   3.827  10.733 -0.6519 -0.1726 -0.3331
  488MOL0     C65809   9.721   3.773  10.630  0.4456  0.0965  0.1619
  488MOL0     C65810   9.785   3.719  10.546  0.4861 -0.3448 -0.5388
  488MOL0     C65811   9.001   3.861  10.514  0.3587 -0.2075 -0.2907
  488MOL0     C65812   8.863   3.880  10.493 -0.6467  1.6109  0.1645
  488MOL0     H65813   8.396   4.040  10.448 -1.5603  0.8006 -1.2983
  488MOL0     H65814   8.159   4.022  10.503 -0.0364 -1.6030  0.3211
  488MOL0     H65815   7.998   4.252  10.674  1.1302  0.0809  0.9075
  488MOL0     H65816   7.948   4.094  10.599  1.9068 -1.5955  1.1264
  488MOL0     H65817   7.820   4.234  10.821  0.3361 -1.3310  0.8303
  488MOL0     H65818   7.745   4.165  10.679  1.7672  1.7974 -2.5188
  488MOL0     H65819   7.793   3.944  10.760 -0.0356  0.5299 -0.0559
  488MOL0     H65820   7.873   3.993  10.911  0.3072 -3.2505 -1.9052
  488MOL0     H65821   7.639   4.113  10.962 -0.2687  0.2776  0.8105
  488MOL0     H65822   7.584   4.034  10.821  1.0529 -0.9100 -1.0897
  488MOL0     H65823   7.622   3.806  10.936 -2.1271 -0.3596  0.7596
  488MOL0     H65824   7.698   3.895  11.072 -0.7250  2.7268  0.8779
  488MOL0     H65825   7.507   4.016  11.120  0.6146 -0.8322  0.5290
  488MOL0     H65826   7.414   3.948  10.988  0.5447  0.8407 -0.5659
  488MOL0     H65827   7.458   3.720  11.096  2.1503  0.0480  0.0467
  488MOL0     H65828   7.533   3.786  11.234 -1.9032 -1.0790  1.5443
  488MOL0     H65829   7.283   3.717  11.229 -0.9931  0.5562 -0.9956
  488MOL0     H65830   7.264   3.885  11.168 -1.2339  1.0681  2.1904
  488MOL0     H65831   7.504   3.779  11.470  0.9131  2.2598  1.3923
  488MOL0     H65832   7.521   3.897  11.722  0.4532 -2.6621  1.3696
  488MOL0     H65833   7.370   3.953  11.794 -1.1080 -0.8902  0.8961
  488MOL0     H65834   7.429   3.720  11.889 -0.7172 -0.0304 -0.4945
  488MOL0     H65835   7.457   3.673  11.720  1.3156  0.2398 -0.0620
  488MOL0     H65836   7.224   3.590  11.796 -0.0164 -1.1092 -0.3861
  488MOL0     H65837   7.187   3.735  11.700  0.6414  0.4369  0.6081
  488MOL0     H65838   7.200   3.849  11.944 -0.1764 -0.6296  1.1567
  488MOL0     H65839   7.215   3.680  11.999  1.0083  0.1622 -0.3077
  488MOL0     H65840   7.107   3.761  12.168 -1.6935 -2.8098  3.1858
  488MOL0     H65841   6.893   3.950  12.399 -1.6352  0.3639 -1.3627
  488MOL0     H65842   6.956   3.795  12.449  1.2119  1.1362  2.5957
  488MOL0     H65843   7.068   3.895  12.366 -0.4023 -1.3352 -2.7930
  488MOL0     H65844   6.461   3.633  12.418  2.1422 -0.8295  4.6607
  488MOL0     H65845   6.230   3.680  12.476  0.4092 -2.4147  1.0052
  488MOL0     H65846   6.072   3.682  12.608  0.4913  1.6689 -0.1877
  488MOL0     H65847   6.169   3.668  12.747  1.3986  1.4832  0.6693
  488MOL0     H65848   5.945   3.677  12.837 -4.1126  2.0826  1.9892
  488MOL0     H65849   6.025   3.823  12.879  0.5240 -0.3643 -0.0276
  488MOL0     H65850   5.865   3.812  12.622 -0.7418  0.0210  0.0321
  488MOL0     H65851   5.912   3.957  12.705 -1.1943  0.4567 -1.0154
  488MOL0     H65852   5.698   3.751  12.796  3.2741 -2.5812 -1.3578
  488MOL0     H65853   5.760   3.876  12.893 -1.1623  0.5024  0.5041
  488MOL0     H65854   5.661   3.935  12.609  0.3330 -0.1470  0.2806
  488MOL0     H65855   5.682   4.052  12.736  0.0806 -0.0408 -0.7713
  488MOL0     H65856   5.469   3.838  12.762 -2.8476  1.7581  1.1034
  488MOL0     H65857   5.503   3.962  12.869  3.0281 -0.3605  0.0729
  488MOL0     H65858   5.405   4.013  12.586  1.4977  1.4943 -0.6743
  488MOL0     H65859   5.430   4.134  12.711  2.9425 -1.3532 -1.6622
  488MOL0     H65860   5.190   4.098  12.728  0.4223 -0.1201 -3.8931
  488MOL0     H65861   5.257   4.011  12.857 -0.1651  0.9529 -0.5293
  488MOL0     H65862   6.360   4.043  12.663  0.0471  0.4174 -0.5376
  488MOL0     H65863   6.581   4.012  12.556 -0.0892  0.0194  1.0363
  488MOL0     H65864   6.637   3.802  12.029  1.1067  1.1602 -1.7299
  488MOL0     H65865   6.796   3.751  11.877  2.2884  2.3099 -1.5610
  488MOL0     H65866   8.250   4.162  10.896  1.9476 -1.1121 -0.1590
  488MOL0     H65867   8.492   4.169  10.840  1.3637 -0.4606  0.1926
  488MOL0     H65868   8.814   4.079  10.772  2.3847  3.4826 -1.9675
  488MOL0     H65869   9.041   4.045  10.801 -0.4259  2.3772 -1.0506
  488MOL0     H65870   9.294   3.790  10.507  0.3413 -0.5755  0.0216
  488MOL0     H65871   9.276   3.958  10.450 -0.7711  0.2011 -0.0421
  488MOL0     H65872   9.480   4.011  10.604  0.5718 -1.2438  2.0840
  488MOL0     H65873   9.517   3.884  10.484  0.7131  1.4799 -0.4764
  488MOL0     H65874   9.467   3.719  10.646  1.5656  0.1640 -1.6803
  488MOL0     H65875   9.418   3.829  10.771 -1.7737 -1.0173 -0.2392
  488MOL0     H65876   9.650   3.763  10.821 -3.0942 -0.4018 -0.1326
  488MOL0     H65877   9.660   3.927  10.770 -2.1033  0.3322 -0.8099
  488MOL0     H65878   9.845   3.657  10.483 -0.2845  0.8679 -2.5654
  488MOL0     H65879   9.060   3.809  10.440  0.5740 -1.4216  0.6923
  488MOL0     H65880   8.806   3.826  10.418  0.1077  1.2158 -0.1276
  489MOL0     O65881   9.913  11.180  11.143  0.2758  0.4259  0.0262
  489MOL0     C65882   9.987  11.245  11.065  0.2474 -0.0750  0.1201
  489MOL0     O65883   9.942  11.332  10.969 -0.4085  0.0220  0.5368
  489MOL0     C65884   9.807  11.329  10.964 -0.2774  0.3753  0.4166
  489MOL0     C65885   9.736  11.213  10.911 -0.6233 -0.0385  0.7365
  489MOL0     C65886   9.591  11.219  10.903 -0.8945 -0.2823  0.5298
  489MOL0     C65887   9.519  11.334  10.946 -0.7561  0.1641 -0.0812
  489MOL0     O65888   9.380  11.345  10.943  0.1161  0.7813 -0.2787
  489MOL0     C65889   9.303  11.223  10.948  0.4822  0.4290 -0.3636
  489MOL0     C65890   9.155  11.262  10.950 -0.7445 -0.2029  0.8484
  489MOL0     C65891   9.049  11.159  10.996  0.8345  0.0435  0.7562
  489MOL0     C65892   9.027  11.056  10.879  0.1465 -0.4597 -0.2222
  489MOL0     C65893   8.963  10.920  10.922  0.9977 -0.0950  0.7474
  489MOL0     C65894   8.824  10.925  10.977 -0.0465 -0.5037  0.0152
  489MOL0     C65895   8.717  10.946  10.868 -0.1322  0.0281  0.3075
  489MOL0     C65896   8.691  10.814  10.788 -0.2401 -0.1575  0.8147
  489MOL0     N65897   8.607  10.728  10.870 -0.2800 -0.1377  0.3052
  489MOL0     C65898   8.498  10.759  10.949  0.1810 -0.6158  0.5050
  489MOL0     C65899   8.492  10.658  11.034 -0.2455  0.5839 -0.3908
  489MOL0     C65900   8.396  10.626  11.149 -0.4785  0.4493  0.1582
  489MOL0     C65901   8.251  10.605  11.109 -0.0536 -0.6322  0.2669
  489MOL0     C65902   8.162  10.605  11.231 -0.3949 -0.2787  0.3777
  489MOL0     C65903   8.020  10.568  11.181  0.0597 -0.9164  0.7308
  489MOL0     O65904   7.932  10.538  11.294 -0.1484 -0.3937  0.1846
  489MOL0     C65905   7.796  10.531  11.289  0.8349 -1.1255 -0.1337
  489MOL0     C65906   7.721  10.516  11.401 -0.5892  0.3545  0.0212
  489MOL0     C65907   7.582  10.522  11.405  0.6001 -0.0470 -0.2298
  489MOL0     C65908   7.517  10.511  11.547 -0.2169 -0.2592 -0.0545
  489MOL0     C65909   7.508  10.557  11.282  0.0981 -0.3437 -0.0824
  489MOL0     C65910   7.360  10.577  11.264 -0.5682  0.1881 -0.3934
  489MOL0     O65911   7.320  10.597  11.132 -0.6404  0.7607  0.2234
  489MOL0     C65912   7.185  10.596  11.098 -0.2967  0.4435 -0.3771
  489MOL0     C65913   7.070  10.631  11.173 -0.8377 -0.2738 -0.5840
  489MOL0     C65914   6.949  10.645  11.110  0.7426  0.0980  0.3141
  489MOL0     C65915   6.923  10.609  10.977  0.3683  0.2799 -0.2042
  489MOL0     O65916   6.793  10.626  10.926 -0.5762  0.2470 -0.1919
  489MOL0     C65917   6.757  10.562  10.804 -0.8257 -0.7051 -0.1343
  489MOL0     C65918   6.606  10.525  10.793 -1.0124 -0.6658  0.2795
  489MOL0     C65919   6.517  10.629  10.869 -0.2653  0.4206  0.4272
  489MOL0     C65920   6.372  10.609  10.824  0.1715 -0.5549 -1.3350
  489MOL0     C65921   6.290  10.695  10.920 -0.7323  0.1335 -0.8711
  489MOL0     C65922   6.145  10.681  10.883  0.3672 -0.4769 -0.3759
  489MOL0     C65923   6.069  10.756  10.997  1.0970  0.5211  0.5017
  489MOL0     C65924   5.914  10.740  10.967  0.1444  0.0375  0.9046
  489MOL0    Cl65925   5.853  10.859  10.839  0.3540 -0.2585 -0.0428
  489MOL0     C65926   7.037  10.571  10.906  0.3807 -0.4723 -0.2912
  489MOL0     C65927   7.160  10.557  10.967  0.5736  0.3358  1.0797
  489MOL0     O65928   7.285  10.554  11.359  0.2878 -0.5931  0.7148
  489MOL0     C65929   7.592  10.570  11.165  0.5657  0.5013 -0.4270
  489MOL0     C65930   7.727  10.546  11.169  0.1800  0.0589  0.3762
  489MOL0     N65931   8.598  10.571  11.023  1.0036 -0.7534  0.1548
  489MOL0     N65932   8.664  10.614  10.921 -1.0242  0.4375 -0.2098
  489MOL0     C65933   9.597  11.441  10.998 -1.0923  0.5090 -0.0922
  489MOL0     C65934   9.732  11.443  11.011 -0.0172 -0.6325 -0.0810
  489MOL0     C65935  10.127  11.208  11.065 -0.8837  0.2618  0.2966
  489MOL0     C65936  10.225  11.287  11.003 -0.3286 -0.6072  0.3107
  489MOL0     C65937  10.354  11.241  10.996 -0.1333 -0.0434  0.4529
  489MOL0     C65938  10.395  11.130  11.068  0.4422 -0.1564 -0.8123
  489MOL0     O65939  10.528  11.114  11.060 -0.7698 -0.3834  0.0109
  489MOL0     C65940  10.601  11.149  11.181  0.3419 -0.2055 -0.9667
  489MOL0     C65941  10.749  11.147  11.166 -0.2539 -0.5127  0.0095
  489MOL0     C65942  10.808  11.108  11.303  0.0299  0.0067 -0.3632
  489MOL0     C65943  10.957  11.134  11.298 -0.6997  0.0537  0.2790
  489MOL0     C65944  11.034  11.088  11.412 -0.2567  1.0922  0.3881
  489MOL0     C65945  11.085  11.057  11.516 -0.1847  0.1525  0.3763
  489MOL0     C65946  10.309  11.058  11.146  0.5321  0.2989 -0.2884
  489MOL0     C65947  10.174  11.099  11.143  0.1724  0.1737  0.1199
  489MOL0     H65948   9.790  11.127  10.872  0.0045 -0.7282  3.0193
  489MOL0     H65949   9.538  11.131  10.866  0.8776 -1.7161  1.2409
  489MOL0     H65950   9.326  11.163  10.859  1.3925 -0.0741  0.1958
  489MOL0     H65951   9.334  11.165  11.035  0.5798  0.1776 -0.5641
  489MOL0     H65952   9.137  11.345  11.018 -0.9876 -1.8150  2.8299
  489MOL0     H65953   9.132  11.298  10.849  0.1088 -3.0933 -0.5061
  489MOL0     H65954   9.086  11.094  11.076  1.0326 -0.0989  0.5489
  489MOL0     H65955   8.950  11.204  11.011  0.0057  0.0730 -3.4340
  489MOL0     H65956   8.964  11.102  10.803 -2.5478 -4.2626 -0.6076
  489MOL0     H65957   9.120  11.036  10.825 -1.9151 -3.2147 -3.0993
  489MOL0     H65958   8.964  10.870  10.825  1.3150  1.6754 -0.2121
  489MOL0     H65959   9.015  10.863  10.999  0.6559  0.0034  1.0515
  489MOL0     H65960   8.792  10.833  11.027 -1.4228  0.4714  1.0067
  489MOL0     H65961   8.822  11.008  11.048 -1.4256  0.8858 -1.5800
  489MOL0     H65962   8.622  10.977  10.913 -0.1561 -0.8761  0.8885
  489MOL0     H65963   8.752  11.032  10.810  1.3564 -0.4020  0.5441
  489MOL0     H65964   8.780  10.764  10.751  0.2380  0.8578  0.5663
  489MOL0     H65965   8.638  10.833  10.694  0.0401 -3.9907 -0.2819
  489MOL0     H65966   8.445  10.853  10.956  4.2033  2.0858 -1.8350
  489MOL0     H65967   8.425  10.534  11.200 -0.3609 -0.6217 -1.7558
  489MOL0     H65968   8.395  10.712  11.216 -1.9027  0.3359  0.3292
  489MOL0     H65969   8.239  10.513  11.051 -1.8816 -1.2965  1.6112
  489MOL0     H65970   8.231  10.685  11.037  0.8377  0.6883  1.4344
  489MOL0     H65971   8.161  10.699  11.288  1.0726 -1.9519  3.4435
  489MOL0     H65972   8.191  10.527  11.302 -0.5216 -0.2027  0.5142
  489MOL0     H65973   8.029  10.477  11.121 -1.2821 -1.3478  1.1610
  489MOL0     H65974   7.980  10.646  11.115 -2.5439 -2.3248  0.5308
  489MOL0     H65975   7.779  10.503  11.491 -0.3524 -3.1415 -0.4795
  489MOL0     H65976   7.575  10.440  11.607  4.3273  0.6546 -2.9259
  489MOL0     H65977   7.523  10.609  11.594  2.4915 -0.4014  0.0033
  489MOL0     H65978   7.410  10.491  11.531 -0.7588  3.7748 -3.0920
  489MOL0     H65979   7.072  10.673  11.273  0.2616 -0.5936 -0.4573
  489MOL0     H65980   6.875  10.693  11.172  0.9185  1.7952 -0.7308
  489MOL0     H65981   6.779  10.635  10.726 -1.4015 -0.0510  0.2989
  489MOL0     H65982   6.821  10.476  10.786 -0.9179 -0.4446 -1.8764
  489MOL0     H65983   6.577  10.510  10.689 -2.0599  0.5868  0.3574
  489MOL0     H65984   6.603  10.427  10.841  0.5962 -1.1232 -0.4789
  489MOL0     H65985   6.563  10.723  10.838  1.4943 -0.7139 -0.5779
  489MOL0     H65986   6.539  10.614  10.975 -0.2333 -2.2954  0.1187
  489MOL0     H65987   6.365  10.654  10.725  1.9773  3.9559  0.3265
  489MOL0     H65988   6.339  10.505  10.829 -0.6083 -0.3366 -1.7616
  489MOL0     H65989   6.329  10.796  10.929  2.6492 -1.1125 -0.2701
  489MOL0     H65990   6.302  10.659  11.023  1.9436  0.6458 -0.9338
  489MOL0     H65991   6.140  10.730  10.785  1.5720 -1.7939 -1.1273
  489MOL0     H65992   6.112  10.578  10.869  0.2927 -0.2700 -1.9363
  489MOL0     H65993   6.096  10.861  10.984  2.1114  0.1731 -0.3750
  489MOL0     H65994   6.095  10.728  11.099  1.8101  2.1360  0.7962
  489MOL0     H65995   5.868  10.765  11.063  0.6709 -1.0443  1.4596
  489MOL0     H65996   5.900  10.633  10.949  2.0370  0.0926 -1.2824
  489MOL0     H65997   7.034  10.538  10.803  0.3263 -0.2091 -0.3754
  489MOL0     H65998   7.241  10.511  10.910 -0.5314 -0.7219  0.3186
  489MOL0     H65999   7.555  10.555  11.064  3.1790 -2.4394 -1.1152
  489MOL0     H66000   7.774  10.542  11.071  0.4274 -0.1922  0.5033
  489MOL0     H66001   9.535  11.517  11.044 -0.4448  0.4438  0.9084
  489MOL0     H66002   9.784  11.530  11.050 -2.1112 -0.0558  1.6864
  489MOL0     H66003  10.196  11.380  10.955 -0.1151  0.2133  1.7127
  489MOL0     H66004  10.422  11.307  10.944 -2.3126  1.8225 -0.2073
  489MOL0     H66005  10.570  11.252  11.201  0.8229  0.0325 -1.4336
  489MOL0     H66006  10.573  11.085  11.266  0.1951  2.3932  1.0735
  489MOL0     H66007  10.795  11.243  11.140  0.6871 -0.2447  2.3934
  489MOL0     H66008  10.779  11.070  11.094 -0.9412  0.0357 -0.8858
  489MOL0     H66009  10.777  11.005  11.325  1.4402 -0.2455  0.5678
  489MOL0     H66010  10.760  11.175  11.375 -0.3008  0.8029 -1.3108
  489MOL0     H66011  10.966  11.243  11.292  1.6074 -0.0263  1.5081
  489MOL0     H66012  10.997  11.104  11.201 -1.6386 -0.2176 -0.0361
  489MOL0     H66013  11.143  11.030  11.602 -1.1682 -1.2093  0.6636
  489MOL0     H66014  10.349  10.978  11.208 -0.1159 -2.1302 -2.7776
  489MOL0     H66015  10.110  11.037  11.205 -1.2853  0.1815 -1.2977
  490MOL0     O66016   5.920   2.827   9.653  0.2284  1.0925  0.4734
  490MOL0     C66017   5.887   2.768   9.761 -0.4415 -0.2213  0.3703
  490MOL0     O66018   5.758   2.759   9.812  0.0742 -0.2655  0.0203
  490MOL0     C66019   5.650   2.820   9.753 -1.2087 -0.3704  0.5677
  490MOL0     C66020   5.532   2.806   9.821 -0.2620  0.2116 -0.6798
  490MOL0     C66021   5.414   2.873   9.780 -0.6339  0.0650  0.5780
  490MOL0     C66022   5.417   2.959   9.670 -0.4390  0.2468  0.7530
  490MOL0     O66023   5.303   3.033   9.625  0.1975  0.3500 -0.0076
  490MOL0     C66024   5.172   2.965   9.634  0.8040  0.4156 -0.0227
  490MOL0     C66025   5.078   3.058   9.552  0.2192 -0.3648  0.5300
  490MOL0     C66026   4.932   2.997   9.536  0.7895 -0.1233  0.2594
  490MOL0     C66027   4.845   3.045   9.650  0.7156 -0.3748 -0.9173
  490MOL0     C66028   4.741   3.149   9.611 -0.2584 -0.9249 -0.2122
  490MOL0     C66029   4.647   3.173   9.726 -0.0306 -0.1020 -0.3874
  490MOL0     C66030   4.543   3.285   9.695 -0.3794  0.2110  0.5129
  490MOL0     C66031   4.502   3.329   9.829  0.1527  0.7914 -0.7755
  490MOL0     N66032   4.402   3.442   9.807 -0.7427  0.7099 -0.2586
  490MOL0     C66033   4.272   3.440   9.845 -0.1283  0.7904 -0.5945
  490MOL0     C66034   4.221   3.561   9.823  0.3544 -0.1557 -0.1683
  490MOL0     C66035   4.073   3.599   9.821 -0.0055  0.4791  0.7550
  490MOL0     C66036   4.027   3.639   9.956 -0.5151  0.1950  0.8915
  490MOL0     C66037   3.884   3.683   9.966  0.0477  0.4509 -0.3020
  490MOL0     C66038   3.836   3.688  10.111 -0.5349 -0.4373 -0.1250
  490MOL0     O66039   3.696   3.708  10.119 -0.1495  0.7030  0.1531
  490MOL0     C66040   3.651   3.841  10.120 -0.0241 -0.0471  0.6758
  490MOL0     C66041   3.724   3.962  10.107 -1.1010  0.3925  0.0392
  490MOL0     C66042   3.658   4.091  10.118  0.1026  0.2545 -0.2602
  490MOL0     C66043   3.737   4.223  10.098  0.0379  0.2439  0.1149
  490MOL0     C66044   3.514   4.087  10.139 -0.9365  0.0001  0.2389
  490MOL0     C66045   3.443   4.213  10.145  1.2479  0.4303 -0.1635
  490MOL0     O66046   3.340   4.218  10.050  0.1780  0.1283  0.1076
  490MOL0     C66047   3.247   4.318  10.056 -0.1939 -0.0873 -0.0433
  490MOL0     C66048   3.254   4.438   9.982 -0.4360  1.5246 -1.0575
  490MOL0     C66049   3.149   4.520   9.972 -0.5410 -0.3620  0.2722
  490MOL0     C66050   3.024   4.504  10.030 -0.0794  0.2168 -0.6353
  490MOL0     O66051   2.916   4.587  10.017 -0.4784 -0.2056 -0.1015
  490MOL0     C66052   2.794   4.570  10.094 -0.2646 -1.1490 -0.0712
  490MOL0     C66053   2.685   4.495  10.018  0.5625  0.1900 -0.4095
  490MOL0     C66054   2.547   4.535  10.079 -0.4261  0.0136  0.4537
  490MOL0     C66055   2.429   4.452  10.015 -0.0526 -0.7851 -0.7593
  490MOL0     C66056   2.297   4.497  10.084 -0.2704 -0.7106  0.1201
  490MOL0     C66057   2.172   4.435  10.028 -0.7689 -0.1829  0.5090
  490MOL0     C66058   2.146   4.292  10.079 -1.5222 -0.3990 -0.1376
  490MOL0     C66059   2.021   4.234  10.007 -0.1841 -0.4914 -0.5540
  490MOL0    Cl66060   1.859   4.309  10.051 -0.5807  0.2954 -0.0169
  490MOL0     C66061   3.018   4.383  10.101  0.1662  0.3074 -0.6938
  490MOL0     C66062   3.125   4.296  10.124 -0.2543  0.4066  0.0044
  490MOL0     O66063   3.468   4.291  10.233  0.0362 -0.5066 -0.0156
  490MOL0     C66064   3.444   3.969  10.137 -0.0668  0.1822 -0.3930
  490MOL0     C66065   3.508   3.846  10.136  0.4844  0.2215  0.3802
  490MOL0     N66066   4.320   3.629   9.745  0.0369 -0.6346 -0.4332
  490MOL0     N66067   4.432   3.561   9.751  0.0017 -0.3181 -0.3645
  490MOL0     C66068   5.533   2.960   9.591 -0.4738  0.6255 -0.0145
  490MOL0     C66069   5.645   2.889   9.629 -0.5884 -0.2832 -0.3464
  490MOL0     C66070   5.995   2.712   9.841  0.3955 -0.5155  0.7449
  490MOL0     C66071   6.129   2.749   9.823 -0.0101  0.5772 -0.1692
  490MOL0     C66072   6.228   2.700   9.910 -0.6243  0.7768  0.1049
  490MOL0     C66073   6.198   2.611  10.016  0.3357  0.0214  0.0451
  490MOL0     O66074   6.287   2.578  10.111  0.2857  0.4684  0.2131
  490MOL0     C66075   6.243   2.512  10.232 -0.0549  0.0330 -1.3209
  490MOL0     C66076   6.245   2.358  10.238  0.3202  0.3372 -0.8906
  490MOL0     C66077   6.380   2.297  10.236 -0.0604 -0.4390 -0.4813
  490MOL0     C66078   6.477   2.343  10.351  0.0633  0.0362 -0.5171
  490MOL0     C66079   6.410   2.344  10.486  0.6378  1.0790 -0.0919
  490MOL0     C66080   6.341   2.335  10.585 -0.5171  0.6571 -0.4024
  490MOL0     C66081   6.065   2.563  10.017  0.0666 -0.2576  0.1842
  490MOL0     C66082   5.959   2.618   9.938 -0.5790  0.5777  0.2953
  490MOL0     H66083   5.543   2.741   9.907  2.0278 -0.7283 -1.6049
  490MOL0     H66084   5.321   2.855   9.833  0.5837 -0.3959  2.6692
  490MOL0     H66085   5.178   2.870   9.579  3.3978  1.1597 -1.1909
  490MOL0     H66086   5.130   2.958   9.735 -1.4226 -0.7316 -0.9705
  490MOL0     H66087   5.053   3.154   9.599  0.7372  0.2298 -0.3945
  490MOL0     H66088   5.112   3.065   9.449 -0.7635  0.4304  0.2374
  490MOL0     H66089   4.884   3.044   9.450  0.6578  1.3056  1.0690
  490MOL0     H66090   4.938   2.889   9.528  1.2047 -0.1078  0.3227
  490MOL0     H66091   4.790   2.955   9.679  0.7534 -0.6294 -1.6112
  490MOL0     H66092   4.903   3.071   9.739  0.1754 -0.5786 -0.4985
  490MOL0     H66093   4.801   3.239   9.596 -1.7324  0.2280  0.6172
  490MOL0     H66094   4.694   3.121   9.516  1.9416  0.1739 -1.7105
  490MOL0     H66095   4.598   3.082   9.762  0.3363 -0.2586 -0.2836
  490MOL0     H66096   4.713   3.196   9.810  0.9581 -1.5333 -0.7376
  490MOL0     H66097   4.586   3.367   9.636  1.2000 -0.1741  1.0744
  490MOL0     H66098   4.457   3.237   9.648 -0.5971  0.5520  0.5648
  490MOL0     H66099   4.594   3.356   9.882 -0.7107  0.1304  1.1384
  490MOL0     H66100   4.448   3.251   9.882  0.0151  1.0558 -0.5218
  490MOL0     H66101   4.221   3.354   9.888  1.8018  1.0039  2.4218
  490MOL0     H66102   4.062   3.673   9.742  1.8984  0.8314  0.7716
  490MOL0     H66103   4.019   3.507   9.796  0.0032  0.9264 -0.9844
  490MOL0     H66104   4.097   3.715   9.993  2.0553 -2.0748  1.0912
  490MOL0     H66105   4.031   3.547  10.015  0.6372 -0.7591 -0.5934
  490MOL0     H66106   3.815   3.612   9.920 -0.5684 -0.9795  2.5673
  490MOL0     H66107   3.881   3.779   9.914  0.3299  0.3853 -0.4357
  490MOL0     H66108   3.889   3.762  10.171 -0.6887 -1.0125  0.7421
  490MOL0     H66109   3.851   3.591  10.160  1.0803  1.0912  2.7009
  490MOL0     H66110   3.831   3.961  10.122 -1.3914  2.0564  3.0389
  490MOL0     H66111   3.695   4.319  10.127 -0.9376 -0.0301 -0.3453
  490MOL0     H66112   3.822   4.214  10.165  2.2483  1.2608 -2.3549
  490MOL0     H66113   3.765   4.226   9.992 -1.8585 -0.0911 -0.4367
  490MOL0     H66114   3.351   4.464   9.942  1.0353  2.6212  2.7442
  490MOL0     H66115   3.170   4.603   9.906 -1.3327  0.6382  1.2386
  490MOL0     H66116   2.801   4.525  10.194 -3.5956 -4.7556 -1.2181
  490MOL0     H66117   2.763   4.674  10.107  0.3163 -1.0842  0.8925
  490MOL0     H66118   2.682   4.535   9.916  0.6738  2.9842  0.5822
  490MOL0     H66119   2.696   4.387  10.031 -1.1636  0.0723  0.3488
  490MOL0     H66120   2.529   4.642  10.067 -3.4729 -0.6329 -1.9289
  490MOL0     H66121   2.552   4.508  10.185 -1.1203  0.1760  0.5306
  490MOL0     H66122   2.415   4.479   9.910  3.0105 -3.7069 -2.1279
  490MOL0     H66123   2.448   4.344  10.020 -2.0077 -1.1321  0.4540
  490MOL0     H66124   2.293   4.606  10.076  3.2801 -0.2634  2.3729
  490MOL0     H66125   2.304   4.463  10.188  1.2237  0.8867  0.5910
  490MOL0     H66126   2.098   4.497  10.079 -0.5302 -0.1706  0.8420
  490MOL0     H66127   2.166   4.449   9.920 -3.7347  0.5796  0.7057
  490MOL0     H66128   2.133   4.287  10.187  0.2007 -1.3765  0.0627
  490MOL0     H66129   2.232   4.231  10.050 -2.5352 -1.9399 -0.0114
  490MOL0     H66130   2.019   4.125  10.021 -0.9942 -0.4830 -0.5529
  490MOL0     H66131   2.039   4.241   9.899 -0.1002  1.7213 -0.4346
  490MOL0     H66132   2.928   4.349  10.150  0.8684 -0.6801 -0.0525
  490MOL0     H66133   3.109   4.207  10.184 -4.6907 -0.3450 -1.9126
  490MOL0     H66134   3.337   3.969  10.153 -0.5905  1.3157 -3.2727
  490MOL0     H66135   3.451   3.755  10.154  0.4415  0.3840  1.1103
  490MOL0     H66136   5.545   3.028   9.508  1.7522  2.1516  1.4617
  490MOL0     H66137   5.732   2.901   9.565  0.2903 -4.0652 -0.1114
  490MOL0     H66138   6.160   2.830   9.758 -1.2669  0.8954 -0.3967
  490MOL0     H66139   6.327   2.743   9.900 -1.3982  2.2939 -1.6616
  490MOL0     H66140   6.298   2.552  10.318 -0.1130 -0.2296 -1.1610
  490MOL0     H66141   6.136   2.527  10.246  0.1010  0.5911 -0.6725
  490MOL0     H66142   6.185   2.329  10.151  0.3242 -2.4870 -0.0574
  490MOL0     H66143   6.192   2.316  10.324  1.8295  0.9612  0.4081
  490MOL0     H66144   6.424   2.323  10.139  0.4666  0.2192 -0.0734
  490MOL0     H66145   6.365   2.188  10.231 -2.4735 -0.1230 -1.3447
  490MOL0     H66146   6.519   2.442  10.329  1.4509 -0.5963 -0.7627
  490MOL0     H66147   6.559   2.271  10.358  1.2033  1.3597  0.4692
  490MOL0     H66148   6.275   2.336  10.669 -0.2409 -0.2247 -0.1689
  490MOL0     H66149   6.040   2.480  10.081 -0.1830 -2.9575 -3.1149
  490MOL0     H66150   5.856   2.588   9.954 -0.8436 -0.5011 -2.7954
  491MOL0     O66151   4.093  10.258   7.803  0.0001  0.3408  0.4612
  491MOL0     C66152   4.081  10.378   7.781  0.4129 -0.5778  0.7041
  491MOL0     O66153   3.964  10.453   7.757  0.1885  0.4571 -0.9040
  491MOL0     C66154   3.845  10.389   7.778  0.2813 -0.3227 -0.3970
  491MOL0     C66155   3.732  10.452   7.832 -0.1576 -0.3796  0.1462
  491MOL0     C66156   3.609  10.392   7.832 -0.0511 -0.1185  0.4822
  491MOL0     C66157   3.600  10.258   7.793  0.2257  0.0774 -0.8060
  491MOL0     O66158   3.489  10.182   7.808 -0.3024 -0.2793 -0.1964
  491MOL0     C66159   3.369  10.251   7.853  0.0832 -0.3707  0.1017
  491MOL0     C66160   3.251  10.169   7.821  0.5476  0.3403 -0.6365
  491MOL0     C66161   3.129  10.233   7.882 -0.0153 -0.1277 -0.0396
  491MOL0     C66162   3.006  10.146   7.869 -0.8190  0.3593 -0.6223
  491MOL0     C66163   2.883  10.211   7.928 -0.7387  0.6457 -0.2366
  491MOL0     C66164   2.756  10.141   7.888 -0.2009  0.5615  0.0386
  491MOL0     C66165   2.633  10.210   7.941 -0.1212  0.0227  0.4298
  491MOL0     C66166   2.503  10.125   7.900  0.1030  0.2670 -0.6443
  491MOL0     N66167   2.380  10.193   7.939  0.4061  0.1254 -0.5129
  491MOL0     C66168   2.365  10.289   8.025  0.6794  0.7118  0.2472
  491MOL0     C66169   2.226  10.292   8.050 -0.2315 -0.6654  1.7458
  491MOL0     C66170   2.155  10.382   8.148 -0.0579  0.3268  0.3617
  491MOL0     C66171   2.076  10.509   8.095  0.4873  0.2676 -0.3216
  491MOL0     C66172   1.927  10.467   8.113 -0.5886  0.1236  0.1011
  491MOL0     C66173   1.836  10.580   8.053 -0.1835 -0.4005  0.1696
  491MOL0     O66174   1.709  10.550   8.095 -0.7528  0.1958 -0.8621
  491MOL0     C66175   1.610  10.616   8.026  0.0477 -0.5384 -0.2414
  491MOL0     C66176   1.489  10.555   8.006  0.2445 -0.4968 -1.1711
  491MOL0     C66177   1.373  10.620   7.952 -0.1535  1.1795 -0.4349
  491MOL0     C66178   1.248  10.540   7.949 -0.4390 -0.2006 -0.2516
  491MOL0     C66179   1.390  10.753   7.906  0.1940 -0.4041  0.7287
  491MOL0     C66180   1.285  10.841   7.841 -0.3010 -0.5447  0.9171
  491MOL0     O66181   1.196  10.767   7.775  0.1097  0.0655  0.0019
  491MOL0     C66182   1.074  10.822   7.731 -0.1438 -0.4812  0.3012
  491MOL0     C66183   1.063  10.943   7.659  0.2360  0.4688  0.2622
  491MOL0     C66184   0.938  10.987   7.606 -0.1331 -0.3443 -0.4337
  491MOL0     C66185   0.821  10.908   7.640  0.2228 -0.0008  0.0829
  491MOL0     O66186   0.693  10.932   7.614  0.2158 -0.2887  0.3075
  491MOL0     C66187   0.653  11.039   7.525 -0.3644 -0.7478  0.8704
  491MOL0     C66188   0.502  11.083   7.545  0.4725  0.3204 -0.2662
  491MOL0     C66189   0.409  10.963   7.516 -0.3483 -0.5874 -0.0912
  491MOL0     C66190   0.381  10.939   7.365 -0.3013  0.9490  0.4848
  491MOL0     C66191   0.262  10.844   7.337  0.4239 -0.0906 -0.3844
  491MOL0     C66192   0.241  10.831   7.188 -0.4774 -0.3833 -0.1389
  491MOL0     C66193   0.114  10.751   7.158 -0.8837  0.4087 -0.1431
  491MOL0     C66194   0.082  10.727   7.010  0.3872  0.4073  0.1121
  491MOL0    Cl66195  -0.032  10.577   7.001  0.4414  0.1251 -0.2113
  491MOL0     C66196   0.838  10.790   7.698 -0.6541  0.3358 -0.1619
  491MOL0     C66197   0.959  10.749   7.743 -0.0451  0.4582 -0.2043
  491MOL0     O66198   1.289  10.964   7.829  0.4534 -0.0235  0.0688
  491MOL0     C66199   1.518  10.815   7.925  0.0465  0.9375  0.8968
  491MOL0     C66200   1.624  10.746   7.981  0.1596 -0.6984 -0.4310
  491MOL0     N66201   2.161  10.210   7.964 -0.2529 -0.1152 -0.1035
  491MOL0     N66202   2.251  10.153   7.896 -0.5366 -0.0376  0.2577
  491MOL0     C66203   3.702  10.202   7.720 -0.1868 -0.3594  0.1719
  491MOL0     C66204   3.825  10.267   7.716  0.3744  0.1360  0.7281
  491MOL0     C66205   4.207  10.455   7.760  0.0466  0.6679 -0.1953
  491MOL0     C66206   4.331  10.391   7.756  0.1771 -0.8885 -0.6448
  491MOL0     C66207   4.451  10.458   7.757  0.2313  0.3456  1.0765
  491MOL0     C66208   4.445  10.601   7.747 -0.1482  0.6604  0.0474
  491MOL0     O66209   4.568  10.665   7.761 -0.2594  0.6562  0.5520
  491MOL0     C66210   4.580  10.801   7.741  0.2907  0.1350 -0.1543
  491MOL0     C66211   4.565  10.870   7.878 -0.0379 -0.5784  0.8556
  491MOL0     C66212   4.694  10.857   7.959  0.4062  0.4716 -0.4527
  491MOL0     C66213   4.713  10.927   8.090  0.3303 -0.8582  0.2177
  491MOL0     C66214   4.706  11.077   8.070  0.5917 -0.5456 -0.2597
  491MOL0     C66215   4.705  11.192   8.052 -0.9408 -1.2464  1.0691
  491MOL0     C66216   4.322  10.667   7.741  0.2133  0.1925  0.1515
  491MOL0     C66217   4.204  10.598   7.754  0.8747 -0.3551  0.3727
  491MOL0     H66218   3.748  10.552   7.869 -0.6792  0.1532 -1.0329
  491MOL0     H66219   3.530  10.450   7.878 -2.2782  0.3864 -3.4977
  491MOL0     H66220   3.369  10.264   7.962 -1.0730 -0.8429  0.1753
  491MOL0     H66221   3.348  10.340   7.794 -1.0284 -1.5942 -1.4201
  491MOL0     H66222   3.236  10.148   7.714 -1.9264 -0.7949 -0.1371
  491MOL0     H66223   3.269  10.069   7.861 -0.2423  0.6224  0.4667
  491MOL0     H66224   3.149  10.249   7.989 -1.7207 -1.3196  0.5129
  491MOL0     H66225   3.114  10.327   7.828  0.4192  0.2538  0.4924
  491MOL0     H66226   2.986  10.130   7.762 -2.5082 -0.6598 -0.2040
  491MOL0     H66227   3.026  10.048   7.914 -2.6213 -0.2385 -1.0169
  491MOL0     H66228   2.894  10.205   8.036  3.6954  1.0339 -0.4622
  491MOL0     H66229   2.865  10.315   7.898 -0.2040  0.7682 -0.1550
  491MOL0     H66230   2.759  10.125   7.780 -0.4754 -1.9024  0.3377
  491MOL0     H66231   2.746  10.042   7.934 -3.2962  0.9498  0.4364
  491MOL0     H66232   2.644  10.215   8.050 -0.3750 -4.0326  0.8055
  491MOL0     H66233   2.633  10.309   7.894  2.6593  0.2468  0.7195
  491MOL0     H66234   2.494  10.024   7.940 -3.9359  0.8669  0.3925
  491MOL0     H66235   2.492  10.110   7.793 -0.7589  1.0695 -0.6924
  491MOL0     H66236   2.444  10.348   8.071 -0.4524  2.9705 -0.5379
  491MOL0     H66237   2.096  10.318   8.214  0.4520  0.1892  0.6881
  491MOL0     H66238   2.243  10.420   8.199  1.2634 -2.5382  0.4133
  491MOL0     H66239   2.103  10.526   7.990  1.7783  1.6439  0.2059
  491MOL0     H66240   2.085  10.594   8.162 -2.9274 -1.6610  2.9677
  491MOL0     H66241   1.898  10.440   8.215  1.7050 -2.5315  0.1785
  491MOL0     H66242   1.915  10.368   8.068  2.8106 -2.1809  3.5896
  491MOL0     H66243   1.832  10.580   7.944 -3.8611  2.2207  0.1334
  491MOL0     H66244   1.857  10.683   8.083  1.8475 -0.3089 -1.3818
  491MOL0     H66245   1.470  10.456   8.047 -4.5449  0.0027 -1.5792
  491MOL0     H66246   1.237  10.498   7.848  0.7383  1.2004 -0.9980
  491MOL0     H66247   1.247  10.450   8.011 -0.8885 -0.0569 -0.0451
  491MOL0     H66248   1.158  10.598   7.971  0.1266  0.2346  0.9477
  491MOL0     H66249   1.157  10.995   7.642  0.7924 -1.4497 -3.6184
  491MOL0     H66250   0.936  11.074   7.541 -2.1453 -0.8819 -1.1672
  491MOL0     H66251   0.715  11.129   7.532  1.6990 -1.9688 -0.4211
  491MOL0     H66252   0.670  11.013   7.420 -0.9985  1.5102  0.1618
  491MOL0     H66253   0.498  11.112   7.650 -0.5531 -2.8789  0.7039
  491MOL0     H66254   0.469  11.169   7.487 -0.1830 -1.6295 -2.9632
  491MOL0     H66255   0.312  10.993   7.558 -0.8019  0.4675 -1.7899
  491MOL0     H66256   0.446  10.875   7.569 -2.1829 -2.6853 -2.1079
  491MOL0     H66257   0.360  11.035   7.317  1.5013  1.2331  0.1836
  491MOL0     H66258   0.471  10.901   7.316 -1.2301 -0.4213 -0.2016
  491MOL0     H66259   0.171  10.870   7.391 -0.1214 -1.3901 -0.6320
  491MOL0     H66260   0.300  10.750   7.379 -0.7191  0.5629  2.3449
  491MOL0     H66261   0.235  10.933   7.149  4.0143  0.7000  1.3307
  491MOL0     H66262   0.321  10.779   7.133  1.2677  0.8964  1.0744
  491MOL0     H66263   0.031  10.808   7.202 -0.9446  1.1455 -1.1847
  491MOL0     H66264   0.130  10.657   7.212 -0.6301  1.0464  0.9165
  491MOL0     H66265   0.168  10.693   6.951 -0.3046  1.5069 -1.6033
  491MOL0     H66266   0.032  10.816   6.971  2.0586  2.6142  2.5953
  491MOL0     H66267   0.757  10.719   7.709  0.2944 -1.0804 -1.7798
  491MOL0     H66268   0.976  10.646   7.772 -2.3632 -0.2009 -0.8988
  491MOL0     H66269   1.538  10.915   7.889  3.0789 -0.1092 -0.6282
  491MOL0     H66270   1.712  10.808   7.991 -1.0752  0.7935  2.0894
  491MOL0     H66271   3.695  10.102   7.679  0.8008 -0.1061 -0.6531
  491MOL0     H66272   3.896  10.215   7.652 -0.8370 -2.6791  1.5180
  491MOL0     H66273   4.337  10.283   7.763 -0.6449 -0.8455  1.5477
  491MOL0     H66274   4.545  10.404   7.758  1.3173  1.7943 -2.9511
  491MOL0     H66275   4.668  10.824   7.680  0.4732  2.8795  0.9714
  491MOL0     H66276   4.493  10.838   7.686 -1.5160 -1.9893  1.1360
  491MOL0     H66277   4.479  10.833   7.934  0.1334  0.7699  2.0898
  491MOL0     H66278   4.550  10.974   7.846  0.1252 -1.0541 -0.8610
  491MOL0     H66279   4.780  10.882   7.897 -0.2525 -1.0748 -2.0836
  491MOL0     H66280   4.703  10.751   7.987 -2.0992  0.5702  1.0389
  491MOL0     H66281   4.804  10.894   8.142 -0.2790 -0.7306  1.3951
  491MOL0     H66282   4.631  10.890   8.151  0.2884 -2.5982 -0.8246
  491MOL0     H66283   4.713  11.299   8.047  1.6125 -1.4297 -1.4565
  491MOL0     H66284   4.308  10.775   7.738  2.2896  0.5012  0.5466
  491MOL0     H66285   4.111  10.653   7.763  0.7575 -0.1499 -1.5655
  492MOL0     O66286   7.897   0.310   2.258  0.2332 -1.1506 -0.3217
  492MOL0     C66287   7.940   0.192   2.248  0.1636  0.6516 -0.3278
  492MOL0     O66288   7.860   0.080   2.250  0.0332 -0.5758 -0.1563
  492MOL0     C66289   7.724   0.098   2.261 -0.7722 -0.7949 -0.2609
  492MOL0     C66290   7.668   0.092   2.399  0.0558 -0.2084  0.8101
  492MOL0     C66291   7.524   0.102   2.412  0.2778  0.1155  0.2186
  492MOL0     C66292   7.443   0.139   2.301  0.5102 -0.3427  0.6317
  492MOL0     O66293   7.299   0.159   2.305 -1.1861  0.1282 -0.0393
  492MOL0     C66294   7.234   0.089   2.409 -0.0578 -0.1787 -0.4660
  492MOL0     C66295   7.084   0.100   2.355 -0.6674  0.9556 -0.2666
  492MOL0     C66296   6.994   0.083   2.477  0.5419  0.3589 -0.7590
  492MOL0     C66297   7.023  -0.048   2.558  0.8541 -0.1172 -0.1942
  492MOL0     C66298   6.895  -0.087   2.638 -0.3008 -0.1878 -0.1712
  492MOL0     C66299   6.909  -0.210   2.711 -0.5676  0.2905  1.1543
  492MOL0     C66300   6.802  -0.257   2.802 -1.0993  0.4921  0.1863
  492MOL0     C66301   6.681  -0.308   2.736 -0.1568  0.1188  0.0326
  492MOL0     N66302   6.582  -0.379   2.821  0.6464 -0.4344  0.4718
  492MOL0     C66303   6.554  -0.356   2.956  0.1071  0.3862  0.1581
  492MOL0     C66304   6.452  -0.437   2.978 -0.0394 -0.3150  0.8955
  492MOL0     C66305   6.375  -0.466   3.103  0.1044  0.2098 -0.1483
  492MOL0     C66306   6.286  -0.348   3.141  0.4719 -1.0405 -0.2912
  492MOL0     C66307   6.220  -0.371   3.274  0.5642  0.4239 -0.6859
  492MOL0     C66308   6.089  -0.293   3.291 -0.1500 -0.0673  0.7448
  492MOL0     O66309   6.121  -0.153   3.264 -0.1420 -0.2731  0.2764
  492MOL0     C66310   6.019  -0.067   3.300 -0.6539  0.3804 -0.5596
  492MOL0     C66311   6.047   0.060   3.354 -0.4487  0.4862 -0.6449
  492MOL0     C66312   5.948   0.160   3.381 -0.6652  0.7446 -0.2290
  492MOL0     C66313   6.002   0.288   3.441  0.2749 -0.7245  0.2214
  492MOL0     C66314   5.813   0.130   3.351 -0.3410 -0.3252 -0.1364
  492MOL0     C66315   5.703   0.231   3.349  0.0263  0.2142  0.7900
  492MOL0     O66316   5.578   0.186   3.361 -0.2284 -0.1199  0.3255
  492MOL0     C66317   5.481   0.271   3.378  0.0988  0.2976  0.3059
  492MOL0     C66318   5.472   0.374   3.479  0.1467 -0.1641  0.3094
  492MOL0     C66319   5.356   0.452   3.478 -0.1228 -0.2392  0.2438
  492MOL0     C66320   5.253   0.446   3.383  0.0730  0.2459  0.5417
  492MOL0     O66321   5.153   0.540   3.384  0.5599 -0.3599  0.5570
  492MOL0     C66322   5.064   0.534   3.266  0.4791  0.2520 -0.6202
  492MOL0     C66323   4.962   0.646   3.267  0.1432  0.3240 -0.3516
  492MOL0     C66324   4.863   0.641   3.389 -0.7807 -0.0419  0.6535
  492MOL0     C66325   4.786   0.778   3.395  0.0047  0.5558  0.2731
  492MOL0     C66326   4.703   0.784   3.531 -0.1412 -0.1577  0.1918
  492MOL0     C66327   4.610   0.661   3.556  1.1143  0.7101 -0.0303
  492MOL0     C66328   4.565   0.673   3.705  0.1923  0.9291 -0.3584
  492MOL0     C66329   4.479   0.555   3.744  1.1308 -0.8784 -0.1900
  492MOL0    Cl66330   4.582   0.419   3.775 -0.0973 -0.0709 -0.1193
  492MOL0     C66331   5.267   0.343   3.293 -0.0354  0.0362  0.7526
  492MOL0     C66332   5.369   0.252   3.291 -0.8721 -0.3414 -0.1091
  492MOL0     O66333   5.729   0.344   3.317 -0.3669 -0.1560  0.2830
  492MOL0     C66334   5.782  -0.001   3.302  0.0632  0.1484 -0.3649
  492MOL0     C66335   5.880  -0.092   3.279  0.8400 -0.7400 -0.0111
  492MOL0     N66336   6.426  -0.510   2.868 -0.2901  0.9227  0.2790
  492MOL0     N66337   6.503  -0.478   2.771  0.4041  0.3200  0.3687
  492MOL0     C66338   7.506   0.159   2.180  0.4917 -0.3250  0.4240
  492MOL0     C66339   7.643   0.140   2.160  0.0094  0.1033  0.1141
  492MOL0     C66340   8.080   0.162   2.229 -0.1385  0.7975 -0.3538
  492MOL0     C66341   8.136   0.034   2.206 -0.2072  0.1598 -0.1412
  492MOL0     C66342   8.272   0.009   2.191  0.1022 -0.1889  0.9109
  492MOL0     C66343   8.357   0.120   2.199 -0.5499  0.8341  0.7455
  492MOL0     O66344   8.488   0.083   2.191  0.5684 -0.5127  0.2640
  492MOL0     C66345   8.577   0.191   2.147 -0.0569 -0.0982  0.5785
  492MOL0     C66346   8.686   0.124   2.074  0.1702  0.3221  0.1443
  492MOL0     C66347   8.796   0.227   2.051  0.2678 -0.3958 -0.3585
  492MOL0     C66348   8.919   0.163   1.984  0.2545 -0.3850 -0.2934
  492MOL0     C66349   9.027   0.263   1.946  1.0402  0.3371  0.3364
  492MOL0     C66350   9.100   0.351   1.898  0.3060  0.2722 -0.3660
  492MOL0     C66351   8.310   0.254   2.217 -0.5131  0.5277 -0.4075
  492MOL0     C66352   8.172   0.269   2.233 -0.1011 -0.0853  0.2062
  492MOL0     H66353   7.723   0.059   2.486  1.1345 -1.1549 -0.2080
  492MOL0     H66354   7.488   0.067   2.508 -0.9229  1.1717  0.1648
  492MOL0     H66355   7.263  -0.015   2.422  1.2271  0.2428  0.2208
  492MOL0     H66356   7.238   0.125   2.512  1.8641 -1.6418  0.0193
  492MOL0     H66357   7.065   0.193   2.301  0.5345  0.2962 -1.8979
  492MOL0     H66358   7.056   0.016   2.291  0.1795 -1.5310  2.4334
  492MOL0     H66359   6.995   0.173   2.539 -0.7042  1.0085 -1.6456
  492MOL0     H66360   6.892   0.077   2.440  1.0055 -4.8074 -2.0281
  492MOL0     H66361   7.042  -0.134   2.492 -0.1798  0.2359 -0.9807
  492MOL0     H66362   7.108  -0.028   2.624  1.0203  0.4000 -0.5565
  492MOL0     H66363   6.887  -0.003   2.708 -0.3635  2.5636 -3.2581
  492MOL0     H66364   6.806  -0.086   2.576 -0.0663  0.5271 -0.5091
  492MOL0     H66365   6.922  -0.291   2.639  2.4165  2.3003 -0.7529
  492MOL0     H66366   6.999  -0.203   2.772 -0.3322  0.6230  0.7667
  492MOL0     H66367   6.847  -0.333   2.865  0.7037 -0.7569 -2.4172
  492MOL0     H66368   6.776  -0.172   2.866 -0.1573  0.9667 -0.0380
  492MOL0     H66369   6.710  -0.377   2.656  0.9231  0.9163 -0.2826
  492MOL0     H66370   6.627  -0.226   2.687  0.8802  0.2974 -0.8471
  492MOL0     H66371   6.616  -0.299   3.025 -1.0168  0.9454  0.7363
  492MOL0     H66372   6.312  -0.554   3.089  1.3106 -1.1159  2.2468
  492MOL0     H66373   6.452  -0.491   3.175 -0.2720  0.7668  0.4644
  492MOL0     H66374   6.214  -0.334   3.060  1.0517 -1.2789 -0.8570
  492MOL0     H66375   6.353  -0.262   3.147  0.3594 -0.9597 -0.2092
  492MOL0     H66376   6.293  -0.346   3.351 -0.1394 -2.1045  0.9069
  492MOL0     H66377   6.201  -0.478   3.285  1.8677 -0.0537 -2.6303
  492MOL0     H66378   6.048  -0.314   3.390  2.0301  0.6566  1.8873
  492MOL0     H66379   6.019  -0.318   3.211  0.7645  3.4575 -1.4067
  492MOL0     H66380   6.149   0.085   3.379 -0.4748 -2.5612  3.5439
  492MOL0     H66381   6.012   0.370   3.369  0.7207  0.4465  1.5702
  492MOL0     H66382   5.925   0.333   3.503 -0.9630 -0.7578 -1.2362
  492MOL0     H66383   6.097   0.271   3.492  0.6445  1.7628  0.4742
  492MOL0     H66384   5.553   0.383   3.550 -0.3207 -1.2007  0.9870
  492MOL0     H66385   5.339   0.534   3.548 -1.0930  1.1893 -1.5753
  492MOL0     H66386   5.104   0.532   3.164  1.8468 -2.4250 -0.1340
  492MOL0     H66387   5.010   0.439   3.281  1.4387 -0.0372  1.4531
  492MOL0     H66388   5.009   0.745   3.261 -0.0353  0.3557 -1.3453
  492MOL0     H66389   4.894   0.637   3.182  1.0594 -1.1729 -0.9865
  492MOL0     H66390   4.911   0.629   3.486  2.1224  1.9344 -0.4285
  492MOL0     H66391   4.787   0.565   3.368 -1.1009  0.1861  0.9690
  492MOL0     H66392   4.849   0.865   3.415 -0.7090  1.3038 -0.7230
  492MOL0     H66393   4.726   0.794   3.306 -2.5600  3.4595  2.2993
  492MOL0     H66394   4.651   0.880   3.533 -0.0778 -0.1250  0.3038
  492MOL0     H66395   4.777   0.789   3.612  3.7419 -4.9092 -2.4577
  492MOL0     H66396   4.528   0.655   3.484  0.5480  3.1905  0.3026
  492MOL0     H66397   4.664   0.566   3.557 -0.4648 -0.2493  1.4272
  492MOL0     H66398   4.509   0.767   3.715  1.8933  2.0816 -1.1708
  492MOL0     H66399   4.655   0.678   3.767  0.8324 -1.5107 -0.9543
  492MOL0     H66400   4.407   0.526   3.667  0.1465 -0.2888  0.4881
  492MOL0     H66401   4.436   0.580   3.841  0.3591  3.4673 -1.4719
  492MOL0     H66402   5.191   0.338   3.216  1.5592 -1.8294 -0.7990
  492MOL0     H66403   5.380   0.170   3.220  1.3484 -1.2068  1.1583
  492MOL0     H66404   5.680  -0.032   3.282 -0.1688 -0.2467  1.2646
  492MOL0     H66405   5.837  -0.182   3.238 -3.6204  1.9446 -1.9385
  492MOL0     H66406   7.438   0.178   2.098  0.8713 -0.8069 -0.0104
  492MOL0     H66407   7.691   0.138   2.063  2.2869 -4.2263  1.0791
  492MOL0     H66408   8.076  -0.056   2.197 -3.2695  2.0377 -0.1690
  492MOL0     H66409   8.309  -0.090   2.167 -1.8079 -1.6650  3.5991
  492MOL0     H66410   8.524   0.262   2.083  1.9636 -0.9031 -2.1549
  492MOL0     H66411   8.603   0.247   2.238 -0.6254 -0.2671  0.8515
  492MOL0     H66412   8.654   0.074   1.982  0.5177  0.5190 -0.0862
  492MOL0     H66413   8.730   0.044   2.134 -0.9955 -1.9095 -1.7915
  492MOL0     H66414   8.826   0.279   2.142 -2.6954  1.0104 -0.0749
  492MOL0     H66415   8.754   0.304   1.987 -1.3513 -0.8329  0.1308
  492MOL0     H66416   8.874   0.114   1.897  0.9905 -2.0267  0.2169
  492MOL0     H66417   8.973   0.091   2.046  1.7249  1.6821  0.9320
  492MOL0     H66418   9.172   0.423   1.864  0.0660  0.9917  0.6355
  492MOL0     H66419   8.382   0.334   2.224  3.4085 -2.7572  0.4974
  492MOL0     H66420   8.136   0.369   2.257  4.1268  1.7532 -0.3838
  493MOL0     O66421   0.115   6.993  10.019  0.0996 -0.5148 -0.0890
  493MOL0     C66422   0.151   7.086  10.090 -0.0511  0.4203 -0.4442
  493MOL0     O66423   0.079   7.153  10.187 -0.4529  0.0234 -0.0649
  493MOL0     C66424  -0.055   7.142  10.194 -0.4092  0.3900  0.2282
  493MOL0     C66425  -0.115   7.154  10.312  0.5537 -0.6219 -0.8513
  493MOL0     C66426  -0.249   7.151  10.323  0.5629  0.2813  1.0369
  493MOL0     C66427  -0.333   7.129  10.211  0.4545 -0.3212 -0.3840
  493MOL0     O66428  -0.465   7.132  10.243  0.2110 -0.4785 -0.5402
  493MOL0     C66429  -0.569   7.120  10.140  1.0528  0.0421 -0.2716
  493MOL0     C66430  -0.701   7.122  10.215 -0.0044 -0.4019  0.8692
  493MOL0     C66431  -0.728   7.263  10.272  0.2633  0.0716  0.3093
  493MOL0     C66432  -0.789   7.356  10.166  0.9003 -0.2930 -0.8548
  493MOL0     C66433  -0.862   7.471  10.229  0.7634  0.0247  0.0178
  493MOL0     C66434  -0.917   7.570  10.131 -0.4069 -0.4749  1.1912
  493MOL0     C66435  -0.934   7.703  10.193  0.2585  0.5541  0.2301
  493MOL0     C66436  -1.000   7.817  10.101 -0.3541  0.5217  0.1660
  493MOL0     N66437  -1.145   7.788  10.092  0.1816 -0.0345  0.1048
  493MOL0     C66438  -1.215   7.718   9.996  0.3046  0.6793 -0.6181
  493MOL0     C66439  -1.344   7.747  10.020  0.0373 -0.0736 -0.4247
  493MOL0     C66440  -1.465   7.684   9.944  0.4109 -0.3524  0.8938
  493MOL0     C66441  -1.577   7.779   9.923 -0.3276 -0.4155  0.0127
  493MOL0     C66442  -1.704   7.718   9.867  0.1822  0.3382 -0.3237
  493MOL0     C66443  -1.805   7.826   9.830 -0.7908  0.2928 -0.5780
  493MOL0     O66444  -1.919   7.779   9.764 -0.5727  0.3235 -0.0389
  493MOL0     C66445  -1.907   7.730   9.632 -0.3855 -0.7497 -0.3525
  493MOL0     C66446  -1.801   7.753   9.539  0.2135  0.1425  0.0234
  493MOL0     C66447  -1.801   7.708   9.408 -0.3981  0.3576  1.1026
  493MOL0     C66448  -1.679   7.738   9.330  0.1683  0.5658 -0.7378
  493MOL0     C66449  -1.921   7.664   9.352  0.0637  0.4207  0.1442
  493MOL0     C66450  -1.933   7.622   9.211  0.2809  0.0415 -1.2203
  493MOL0     O66451  -2.052   7.552   9.187  0.7342  0.1689 -0.3038
  493MOL0     C66452  -2.086   7.545   9.056  0.8605  0.0343  0.6864
  493MOL0     C66453  -2.105   7.422   9.007  0.7827  1.1391 -0.3516
  493MOL0     C66454  -2.172   7.405   8.886 -0.1855 -0.6793 -0.0294
  493MOL0     C66455  -2.204   7.513   8.813 -0.6594 -0.2203 -0.1276
  493MOL0     O66456  -2.255   7.511   8.691 -0.0638 -0.3943  0.6304
  493MOL0     C66457  -2.370   7.430   8.679 -0.2613  0.3890  0.6712
  493MOL0     C66458  -2.376   7.405   8.524  0.0187  0.5410 -0.4550
  493MOL0     C66459  -2.529   7.390   8.480 -0.8865 -0.8219 -0.2592
  493MOL0     C66460  -2.549   7.394   8.328 -0.9390  0.0924  0.0757
  493MOL0     C66461  -2.694   7.428   8.291  0.0551  0.2861  0.3791
  493MOL0     C66462  -2.695   7.462   8.142  0.4886  0.1925  0.6608
  493MOL0     C66463  -2.843   7.502   8.092 -0.5114 -0.2487 -0.8141
  493MOL0     C66464  -2.894   7.404   7.998  0.1856 -0.4476  0.4289
  493MOL0    Cl66465  -2.938   7.248   8.079  0.3371  0.2111  0.5477
  493MOL0     C66466  -2.164   7.641   8.857  0.1190 -0.0740 -0.4175
  493MOL0     C66467  -2.116   7.664   8.983  0.1274  0.0467 -0.6970
  493MOL0     O66468  -1.854   7.648   9.121 -0.2398 -0.7865  0.4757
  493MOL0     C66469  -2.032   7.648   9.438 -0.0174 -1.2427  0.0624
  493MOL0     C66470  -2.020   7.675   9.577 -0.6314 -0.2166  0.4463
  493MOL0     N66471  -1.351   7.826  10.133  0.3370  0.3938 -0.7540
  493MOL0     N66472  -1.232   7.848  10.180 -0.6388  0.4234  0.0769
  493MOL0     C66473  -0.275   7.132  10.092  0.6091  0.5549 -0.4715
  493MOL0     C66474  -0.137   7.128  10.083 -0.5326 -0.2060  0.1437
  493MOL0     C66475   0.291   7.128  10.066  0.0983  0.3953 -0.1011
  493MOL0     C66476   0.347   7.118   9.938  0.8366 -0.8895  0.6608
  493MOL0     C66477   0.475   7.170   9.913 -0.2900  0.3451 -0.1078
  493MOL0     C66478   0.564   7.220  10.016  0.6672  0.3463  0.1034
  493MOL0     O66479   0.683   7.269   9.986  0.1519 -0.5192  0.1806
  493MOL0     C66480   0.789   7.225  10.063 -0.0070  0.5363 -0.5612
  493MOL0     C66481   0.795   7.078  10.058 -0.4443  0.2738 -0.0531
  493MOL0     C66482   0.926   7.034  10.125 -0.9051 -0.1617  0.5012
  493MOL0     C66483   0.942   6.876  10.124  0.3176  0.0992  0.4212
  493MOL0     C66484   1.088   6.855  10.141 -0.0305  0.7054  0.1503
  493MOL0     C66485   1.209   6.832  10.166  0.8741  0.2204 -0.1495
  493MOL0     C66486   0.505   7.213  10.145 -0.6070 -0.6151  0.1705
  493MOL0     C66487   0.375   7.174  10.170  0.7974 -0.3281 -0.3081
  493MOL0     H66488  -0.049   7.172  10.397  1.9632  1.3175 -2.2697
  493MOL0     H66489  -0.306   7.158  10.415  0.3769 -1.2276  1.0681
  493MOL0     H66490  -0.576   7.204  10.070 -3.0529 -0.2611 -0.4759
  493MOL0     H66491  -0.551   7.035  10.074  1.0046  0.5297 -0.9295
  493MOL0     H66492  -0.793   7.092  10.164 -0.1281  2.4069 -0.7577
  493MOL0     H66493  -0.703   7.053  10.300 -3.7150 -1.6977 -0.0608
  493MOL0     H66494  -0.793   7.238  10.356  0.5768 -4.4720 -0.5402
  493MOL0     H66495  -0.642   7.319  10.308 -1.4287  2.4688  0.9026
  493MOL0     H66496  -0.713   7.402  10.102  1.3918  1.3678  0.8199
  493MOL0     H66497  -0.851   7.296  10.099  0.3640  0.1572 -0.7700
  493MOL0     H66498  -0.952   7.435  10.280 -1.6789  1.7615 -2.7186
  493MOL0     H66499  -0.792   7.522  10.295  2.2292 -2.0366  0.1185
  493MOL0     H66500  -0.831   7.577  10.062 -1.1947 -1.0112  0.1263
  493MOL0     H66501  -1.010   7.533  10.086  0.9734 -1.6861 -0.8780
  493MOL0     H66502  -0.990   7.693  10.286  1.2153 -1.1652  0.6578
  493MOL0     H66503  -0.834   7.745  10.207 -0.7817  4.3471 -2.0381
  493MOL0     H66504  -0.951   7.814  10.003 -0.4689 -0.7009  0.1320
  493MOL0     H66505  -0.990   7.907  10.163 -3.2727  1.7463 -0.9389
  493MOL0     H66506  -1.173   7.670   9.908 -1.7876  4.1051 -3.7562
  493MOL0     H66507  -1.426   7.653   9.846 -3.0256 -0.6464 -0.5082
  493MOL0     H66508  -1.520   7.605   9.996 -3.2287  0.7388 -0.9902
  493MOL0     H66509  -1.538   7.852   9.851 -0.5553 -0.7579 -0.4650
  493MOL0     H66510  -1.595   7.813  10.025 -1.2091 -0.6242 -0.0678
  493MOL0     H66511  -1.749   7.651   9.941  0.1282 -0.4263 -1.0263
  493MOL0     H66512  -1.681   7.663   9.775 -1.4818  0.6385 -0.9633
  493MOL0     H66513  -1.747   7.889   9.762 -0.5827  2.5356  1.5380
  493MOL0     H66514  -1.829   7.893   9.913  0.2664  0.3994 -0.3432
  493MOL0     H66515  -1.710   7.800   9.574 -0.0494  0.1357  0.7406
  493MOL0     H66516  -1.637   7.640   9.306 -1.4112 -0.6622  1.1304
  493MOL0     H66517  -1.699   7.808   9.248 -0.4223  1.4093  0.0868
  493MOL0     H66518  -1.599   7.783   9.390 -0.5617 -0.7937  1.3532
  493MOL0     H66519  -2.085   7.331   9.063  0.1948  0.6726 -0.8894
  493MOL0     H66520  -2.190   7.304   8.850 -0.3172 -0.5569 -0.3069
  493MOL0     H66521  -2.375   7.336   8.735  0.9314  0.1700  0.4213
  493MOL0     H66522  -2.459   7.489   8.703 -1.9648 -1.9998  0.7064
  493MOL0     H66523  -2.331   7.478   8.456  2.5145  0.2408  0.7552
  493MOL0     H66524  -2.319   7.313   8.508 -0.4295  0.4258 -1.4202
  493MOL0     H66525  -2.583   7.475   8.523  1.3359  0.3741  0.3085
  493MOL0     H66526  -2.566   7.300   8.530 -0.4336  0.5818  2.8329
  493MOL0     H66527  -2.485   7.470   8.282 -4.1147  2.3488 -0.9846
  493MOL0     H66528  -2.528   7.296   8.285  3.5688  0.8164  0.0485
  493MOL0     H66529  -2.736   7.509   8.352 -1.0779 -1.5527  2.1825
  493MOL0     H66530  -2.754   7.336   8.298 -1.4170  0.9644 -2.0955
  493MOL0     H66531  -2.624   7.543   8.122 -0.5984  0.9104 -0.4281
  493MOL0     H66532  -2.651   7.385   8.078 -0.6460  0.9370 -1.0995
  493MOL0     H66533  -2.837   7.599   8.042  0.1663  0.5167  0.6891
  493MOL0     H66534  -2.900   7.507   8.186  1.1794  1.2547  0.2009
  493MOL0     H66535  -2.810   7.394   7.927 -1.2637 -1.2623 -1.2624
  493MOL0     H66536  -2.976   7.428   7.930  1.5690 -2.9145 -2.3696
  493MOL0     H66537  -2.166   7.727   8.791  1.1474 -0.3273 -0.7891
  493MOL0     H66538  -2.100   7.760   9.032  2.5251  0.5513 -2.3071
  493MOL0     H66539  -2.124   7.606   9.399 -0.0510  1.0117 -2.5897
  493MOL0     H66540  -2.105   7.647   9.638 -1.9606 -0.9705 -1.6142
  493MOL0     H66541  -0.335   7.131  10.001 -3.4039  0.9015  1.9570
  493MOL0     H66542  -0.091   7.111   9.985  1.6474 -3.1455  1.5134
  493MOL0     H66543   0.291   7.086   9.850  0.1161  1.5372  0.1396
  493MOL0     H66544   0.512   7.152   9.813  0.4988  0.6672  0.1167
  493MOL0     H66545   0.879   7.261  10.012  1.4973 -1.2829  0.6700
  493MOL0     H66546   0.781   7.263  10.165 -0.9773  1.7675 -1.0725
  493MOL0     H66547   0.808   7.040   9.956 -0.9282  1.0865 -0.4291
  493MOL0     H66548   0.712   7.035  10.114  0.2997 -0.0555  0.8202
  493MOL0     H66549   0.925   7.081  10.224 -2.5249  4.7671 -1.5311
  493MOL0     H66550   1.008   7.086  10.075 -1.5361  0.4842  0.1311
  493MOL0     H66551   0.908   6.832  10.030 -0.1347  0.2717  0.4976
  493MOL0     H66552   0.889   6.836  10.211  2.4938 -2.3491  0.7354
  493MOL0     H66553   1.314   6.816  10.184  0.9797  1.0294 -0.0170
  493MOL0     H66554   0.560   7.261  10.225 -1.5870 -1.2219  1.2295
  493MOL0     H66555   0.331   7.185  10.268  0.3755 -1.8150 -0.3178
  494MOL0     O66556   3.520   1.989   5.627 -0.0486  0.4410 -0.0380
  494MOL0     C66557   3.563   2.054   5.726 -0.4788 -0.6178 -0.0821
  494MOL0     O66558   3.485   2.107   5.824 -0.2904  0.0996 -0.0298
  494MOL0     C66559   3.357   2.127   5.792  0.3795 -0.2661  0.8725
  494MOL0     C66560   3.312   2.229   5.703  0.5622  0.0430  0.0152
  494MOL0     C66561   3.172   2.251   5.687 -0.1340 -0.4602  0.3969
  494MOL0     C66562   3.076   2.181   5.748 -0.1332  0.5796  0.0658
  494MOL0     O66563   2.947   2.226   5.708 -0.1308  0.0433  0.0393
  494MOL0     C66564   2.830   2.169   5.773  0.7534  0.4539  0.3017
  494MOL0     C66565   2.711   2.266   5.751 -0.6365  0.4818 -0.3962
  494MOL0     C66566   2.584   2.212   5.814  0.5332  0.3086  0.0298
  494MOL0     C66567   2.459   2.269   5.745  0.8700  1.2406  0.9018
  494MOL0     C66568   2.328   2.245   5.809 -1.1490 -0.0633  1.7771
  494MOL0     C66569   2.285   2.099   5.834  0.6913 -0.5901 -0.9304
  494MOL0     C66570   2.267   2.020   5.713  0.1502  0.3666  0.3579
  494MOL0     C66571   2.194   1.893   5.753 -0.0683 -0.1301  0.6305
  494MOL0     N66572   2.044   1.902   5.742 -0.3237 -0.4667  0.0873
  494MOL0     C66573   1.967   1.938   5.637 -0.2643 -0.4794 -0.3040
  494MOL0     C66574   1.845   1.960   5.690  0.1552  1.0204 -0.0655
  494MOL0     C66575   1.717   2.002   5.632  0.0086 -0.9522  0.1725
  494MOL0     C66576   1.660   1.914   5.526  0.5669 -0.7383  0.0553
  494MOL0     C66577   1.618   1.773   5.569 -0.6595  0.6332 -0.0762
  494MOL0     C66578   1.484   1.781   5.638 -0.5378  0.0499 -0.2492
  494MOL0     O66579   1.389   1.796   5.538  0.2237  0.0128 -0.1152
  494MOL0     C66580   1.256   1.750   5.560 -0.7430 -0.8733  0.0399
  494MOL0     C66581   1.206   1.717   5.686  0.5549 -0.0284  0.3769
  494MOL0     C66582   1.063   1.690   5.702  0.4527 -0.5800 -0.4583
  494MOL0     C66583   1.019   1.630   5.832  0.1015  0.1523  0.0892
  494MOL0     C66584   0.978   1.708   5.590 -0.2150 -0.5798  0.5352
  494MOL0     C66585   0.827   1.690   5.605  0.0620 -0.2073 -0.4483
  494MOL0     O66586   0.786   1.595   5.696 -0.4693  0.2499 -0.2176
  494MOL0     C66587   0.654   1.576   5.712 -0.0615 -0.4304 -0.5589
  494MOL0     C66588   0.585   1.671   5.797 -0.9689  0.5797 -0.2448
  494MOL0     C66589   0.451   1.660   5.816  0.5207  0.7736  0.3567
  494MOL0     C66590   0.378   1.547   5.779 -0.8201 -0.2859 -0.8279
  494MOL0     O66591   0.244   1.539   5.808 -0.0208  0.2956 -0.6028
  494MOL0     C66592   0.169   1.513   5.695  0.2454  0.0745  1.1448
  494MOL0     C66593   0.022   1.493   5.729  0.1541 -0.1049 -0.5010
  494MOL0     C66594  -0.062   1.469   5.608  0.7090 -0.4770 -0.7373
  494MOL0     C66595  -0.199   1.396   5.638  1.1303  0.7461 -0.2749
  494MOL0     C66596  -0.253   1.351   5.505  0.6463  0.1389 -0.3370
  494MOL0     C66597  -0.402   1.328   5.500  0.9066  0.0503 -0.5035
  494MOL0     C66598  -0.460   1.216   5.595  0.6703 -0.2212  1.3004
  494MOL0     C66599  -0.611   1.215   5.582  0.1047 -0.1547 -0.0462
  494MOL0    Cl66600  -0.664   1.130   5.437  0.1941 -0.0560 -0.0460
  494MOL0     C66601   0.452   1.444   5.714 -0.0593 -0.4614 -0.8478
  494MOL0     C66602   0.582   1.467   5.676  0.4819 -0.1042  0.0253
  494MOL0     O66603   0.748   1.768   5.544 -0.5486  0.2617  0.2075
  494MOL0     C66604   1.030   1.763   5.475  0.1378 -0.7324 -0.4723
  494MOL0     C66605   1.165   1.779   5.460  0.1199 -0.1168 -0.3683
  494MOL0     N66606   1.851   1.945   5.832 -0.0128 -0.6214 -0.1960
  494MOL0     N66607   1.969   1.906   5.858  0.1247  0.6695  0.1944
  494MOL0     C66608   3.120   2.086   5.837 -0.2534 -0.0538 -0.2278
  494MOL0     C66609   3.257   2.061   5.864 -0.5693  0.3519  0.4532
  494MOL0     C66610   3.714   2.064   5.753  0.0913  0.3519  0.3800
  494MOL0     C66611   3.770   2.110   5.875 -0.3247  0.6854  0.8707
  494MOL0     C66612   3.909   2.127   5.885  0.3280  0.3299 -0.3038
  494MOL0     C66613   3.996   2.080   5.794 -0.7068 -0.0267 -0.0344
  494MOL0     O66614   4.127   2.090   5.833  0.1165 -0.2580 -0.7187
  494MOL0     C66615   4.230   2.076   5.738 -0.5678  0.7776  1.1898
  494MOL0     C66616   4.368   2.112   5.798 -0.6409  0.1685 -0.4054
  494MOL0     C66617   4.486   2.072   5.706 -0.0935  0.4283  0.2142
  494MOL0     C66618   4.612   2.166   5.731 -0.6048 -0.7064 -0.4547
  494MOL0     C66619   4.596   2.311   5.694 -0.1203 -0.6470 -0.4637
  494MOL0     C66620   4.566   2.428   5.673  0.5006  0.0353 -0.0211
  494MOL0     C66621   3.942   2.032   5.673 -0.0998 -0.8105 -0.1929
  494MOL0     C66622   3.802   2.024   5.653  0.3077 -0.7228  0.2793
  494MOL0     H66623   3.379   2.295   5.649 -2.9063  2.2966 -1.9128
  494MOL0     H66624   3.135   2.332   5.626 -2.0209 -0.2398  1.7679
  494MOL0     H66625   2.811   2.081   5.711 -0.7209  1.9114 -1.4099
  494MOL0     H66626   2.841   2.141   5.878 -1.6157 -0.5891  0.3251
  494MOL0     H66627   2.728   2.364   5.796 -1.4372  1.4320 -2.0423
  494MOL0     H66628   2.706   2.288   5.644  1.9734 -0.4935 -0.7830
  494MOL0     H66629   2.582   2.103   5.809 -2.4243  0.3365 -2.4337
  494MOL0     H66630   2.593   2.240   5.920  2.6468 -1.1835  0.3164
  494MOL0     H66631   2.467   2.378   5.739  0.4202  1.2139 -0.9339
  494MOL0     H66632   2.459   2.232   5.642  1.1159  3.4848  0.0474
  494MOL0     H66633   2.329   2.302   5.902 -0.6290  2.8041  0.1471
  494MOL0     H66634   2.241   2.291   5.761 -1.1404 -1.5291  0.2475
  494MOL0     H66635   2.364   2.050   5.892 -0.4824 -3.1243 -1.3820
  494MOL0     H66636   2.198   2.104   5.901  0.8342 -3.2702 -0.4374
  494MOL0     H66637   2.223   2.077   5.631  1.3326  1.7012  0.6262
  494MOL0     H66638   2.366   2.000   5.672 -0.3553 -0.5710 -0.4544
  494MOL0     H66639   2.220   1.858   5.853  0.0677 -0.2690  0.5473
  494MOL0     H66640   2.231   1.814   5.686  4.7437  1.1117  1.5182
  494MOL0     H66641   1.990   1.951   5.531 -2.0767 -0.1757 -0.7048
  494MOL0     H66642   1.646   2.011   5.715 -1.3385 -2.1120 -0.7980
  494MOL0     H66643   1.735   2.100   5.587  3.3057 -0.6462  1.8617
  494MOL0     H66644   1.738   1.911   5.449  1.3345  1.5997  0.6602
  494MOL0     H66645   1.576   1.964   5.477  2.8392  1.0419 -2.3554
  494MOL0     H66646   1.695   1.718   5.624  1.3971  2.4601 -0.9702
  494MOL0     H66647   1.609   1.714   5.478 -0.8344  1.3910 -0.5614
  494MOL0     H66648   1.468   1.855   5.717  0.7995 -0.5305  0.6087
  494MOL0     H66649   1.470   1.680   5.675 -0.8125 -0.1924 -0.9995
  494MOL0     H66650   1.267   1.695   5.774  1.0885 -0.2876 -0.0529
  494MOL0     H66651   0.947   1.684   5.894  1.1607  1.7921 -0.0262
  494MOL0     H66652   0.980   1.531   5.806  0.1675  0.1766 -0.1065
  494MOL0     H66653   1.105   1.623   5.899 -0.0955 -3.2209  0.1568
  494MOL0     H66654   0.650   1.746   5.839  0.1356  0.1490 -1.1139
  494MOL0     H66655   0.400   1.742   5.865 -3.6116 -0.6597 -1.1127
  494MOL0     H66656   0.172   1.603   5.632  1.5668 -0.5697  0.2589
  494MOL0     H66657   0.208   1.429   5.638  0.8813  0.7235  0.6139
  494MOL0     H66658   0.007   1.416   5.805  0.2497  0.9801  0.6620
  494MOL0     H66659  -0.007   1.589   5.772  0.3524 -1.2128  2.3424
  494MOL0     H66660  -0.005   1.402   5.544 -0.5703 -2.1055 -0.2434
  494MOL0     H66661  -0.071   1.569   5.565  2.1569  0.5413  1.1682
  494MOL0     H66662  -0.195   1.316   5.713 -2.6244  0.8216  0.1723
  494MOL0     H66663  -0.271   1.463   5.686  1.2406 -0.6025  1.8941
  494MOL0     H66664  -0.201   1.266   5.460  0.9769 -0.4912  1.1621
  494MOL0     H66665  -0.237   1.430   5.431  0.9796 -0.3286 -0.7739
  494MOL0     H66666  -0.448   1.423   5.530  3.4619  0.4330  2.6852
  494MOL0     H66667  -0.427   1.290   5.400 -0.7756 -0.7043  0.1663
  494MOL0     H66668  -0.436   1.231   5.701 -0.3621  2.1115  1.2691
  494MOL0     H66669  -0.416   1.119   5.570 -2.1703 -1.5285  1.0032
  494MOL0     H66670  -0.638   1.321   5.579 -1.0146 -0.4077  0.5272
  494MOL0     H66671  -0.655   1.189   5.679  0.8463  2.1561  0.9890
  494MOL0     H66672   0.401   1.351   5.693 -0.1159 -0.4902 -0.5837
  494MOL0     H66673   0.631   1.384   5.626  1.2751 -1.8127  3.3391
  494MOL0     H66674   0.962   1.802   5.400 -0.0575  1.0014  0.5578
  494MOL0     H66675   1.199   1.828   5.369  1.8206 -0.2931  0.1448
  494MOL0     H66676   3.036   2.033   5.881  1.1520 -0.3873  2.1950
  494MOL0     H66677   3.300   1.979   5.922  0.4286  0.4664 -0.0998
  494MOL0     H66678   3.701   2.131   5.957  0.2153  2.2954  0.9387
  494MOL0     H66679   3.950   2.145   5.983  0.8504 -1.1268 -0.2318
  494MOL0     H66680   4.231   1.977   5.693  1.1075  1.3654 -0.1557
  494MOL0     H66681   4.216   2.143   5.653  1.3432  1.8531  1.6645
  494MOL0     H66682   4.379   2.051   5.889  2.9690 -4.2680 -3.3453
  494MOL0     H66683   4.369   2.219   5.817  3.5384  0.0331  1.1411
  494MOL0     H66684   4.455   2.087   5.602  0.8189  1.9036  0.1256
  494MOL0     H66685   4.506   1.967   5.730  1.0781  0.5967  0.0353
  494MOL0     H66686   4.700   2.132   5.675  0.2964  0.7344  0.0298
  494MOL0     H66687   4.638   2.162   5.838  1.8127 -1.3207 -1.0016
  494MOL0     H66688   4.540   2.531   5.660 -0.8228 -0.4244 -1.3765
  494MOL0     H66689   4.005   1.994   5.593 -1.2358 -2.5519 -0.3194
  494MOL0     H66690   3.765   1.973   5.565  2.1073  2.0416 -2.2578
  495MOL0     O66691   9.898   3.836   3.489 -0.0757 -0.4643 -0.1304
  495MOL0     C66692   9.819   3.828   3.584  0.4303 -0.7558 -0.2256
  495MOL0     O66693   9.698   3.768   3.585  0.2197 -0.0013  1.1030
  495MOL0     C66694   9.650   3.691   3.479  0.8427 -0.1772 -0.3603
  495MOL0     C66695   9.725   3.607   3.383 -0.9047 -0.9577  0.0429
  495MOL0     C66696   9.668   3.553   3.263 -0.4198  0.3260 -0.1366
  495MOL0     C66697   9.529   3.550   3.249  0.2320 -0.0844 -0.2776
  495MOL0     O66698   9.462   3.481   3.149 -1.2659  0.4133 -0.1024
  495MOL0     C66699   9.402   3.567   3.055 -0.3551 -0.7377 -0.9098
  495MOL0     C66700   9.352   3.473   2.943  0.7677  0.4621 -1.0696
  495MOL0     C66701   9.221   3.409   2.985  0.3412 -0.4129  0.2368
  495MOL0     C66702   9.098   3.495   2.958  0.4895  0.3558  0.5871
  495MOL0     C66703   8.969   3.420   2.900 -0.7329 -0.2569  0.1983
  495MOL0     C66704   8.980   3.368   2.754  1.0872 -0.0400 -0.2576
  495MOL0     C66705   9.005   3.478   2.639 -0.3875 -0.1938  0.0948
  495MOL0     C66706   8.900   3.597   2.625 -0.8616 -0.3666 -0.1588
  495MOL0     N66707   8.778   3.559   2.557 -0.5070 -0.4447  0.3122
  495MOL0     C66708   8.773   3.523   2.431 -0.2269  0.6651 -0.7497
  495MOL0     C66709   8.640   3.503   2.415  0.4562 -1.0427  0.1702
  495MOL0     C66710   8.572   3.463   2.280 -0.9341 -0.4535 -0.7882
  495MOL0     C66711   8.457   3.358   2.298 -0.2160  0.3985 -0.3413
  495MOL0     C66712   8.415   3.295   2.160 -0.5364 -0.0170  0.8718
  495MOL0     C66713   8.278   3.221   2.163 -0.6937 -0.0445 -0.6238
  495MOL0     O66714   8.256   3.181   2.027  0.6949  0.0630 -0.5372
  495MOL0     C66715   8.127   3.126   2.009 -0.0285 -0.0810 -0.5348
  495MOL0     C66716   8.095   3.004   2.057 -0.1912 -0.6303  0.1697
  495MOL0     C66717   7.958   2.964   2.066  0.2714 -0.0706 -0.1193
  495MOL0     C66718   7.926   2.836   2.137  0.0859  0.3263  0.1672
  495MOL0     C66719   7.857   3.044   2.009  0.9432 -0.2759  0.4242
  495MOL0     C66720   7.714   3.007   2.007 -0.2520 -0.9311 -0.5185
  495MOL0     O66721   7.657   2.973   2.118 -0.1966 -1.0046  0.6096
  495MOL0     C66722   7.518   2.975   2.111 -0.5951  0.8162 -0.0287
  495MOL0     C66723   7.444   2.856   2.082 -0.6796 -0.4082  0.3422
  495MOL0     C66724   7.307   2.856   2.112  1.0158 -0.3764  0.5112
  495MOL0     C66725   7.243   2.971   2.152 -0.0384 -0.2841  0.1405
  495MOL0     O66726   7.109   2.983   2.183 -0.2516 -0.3746  0.5646
  495MOL0     C66727   7.033   2.864   2.177 -0.0643  0.1506  0.2676
  495MOL0     C66728   6.894   2.877   2.233 -0.2087  0.0999  0.4421
  495MOL0     C66729   6.867   2.833   2.371 -0.6503 -0.8010 -0.1316
  495MOL0     C66730   6.724   2.869   2.421 -0.0971 -0.4246 -0.4253
  495MOL0     C66731   6.613   2.842   2.318 -0.8739 -0.0117 -0.3554
  495MOL0     C66732   6.482   2.861   2.388  0.0442 -0.2594 -0.6832
  495MOL0     C66733   6.361   2.864   2.289 -0.4851 -0.0243  0.4085
  495MOL0     C66734   6.225   2.840   2.338 -0.6758 -0.1252  0.2155
  495MOL0    Cl66735   6.214   2.685   2.426 -0.0218  0.3641  0.1074
  495MOL0     C66736   7.316   3.088   2.174  0.0623  0.1309  1.1654
  495MOL0     C66737   7.454   3.094   2.152  0.0247  0.0431 -0.4973
  495MOL0     O66738   7.663   3.024   1.899 -0.2978  0.6238  0.3432
  495MOL0     C66739   7.896   3.171   1.950  0.5311  0.1137 -0.0124
  495MOL0     C66740   8.030   3.209   1.947 -0.2643 -0.4726 -0.2299
  495MOL0     N66741   8.573   3.535   2.530  0.0835 -1.3322 -0.5000
  495MOL0     N66742   8.660   3.568   2.616 -0.0144  0.1999 -0.9360
  495MOL0     C66743   9.456   3.616   3.357 -0.6723 -0.3697  0.6280
  495MOL0     C66744   9.514   3.693   3.459 -0.0489 -1.0130  0.4750
  495MOL0     C66745   9.872   3.871   3.716  0.7790 -0.2366  0.1728
  495MOL0     C66746   9.798   3.841   3.834  0.3312 -0.5317  1.1219
  495MOL0     C66747   9.851   3.868   3.959 -0.2020 -0.9910  0.3942
  495MOL0     C66748   9.963   3.951   3.980  0.2987 -0.3215  1.0810
  495MOL0     O66749   9.986   3.995   4.108 -0.1725  0.6945 -0.2111
  495MOL0     C66750  10.124   4.001   4.151  0.4212 -0.0523 -0.0812
  495MOL0     C66751  10.120   4.054   4.295  0.4225  0.2656  0.1256
  495MOL0     C66752  10.239   4.022   4.379 -0.0371 -0.7829 -0.7095
  495MOL0     C66753  10.353   4.118   4.387  0.0820 -0.7879 -0.1481
  495MOL0     C66754  10.437   4.120   4.268 -0.1076 -0.9607 -0.0756
  495MOL0     C66755  10.511   4.110   4.173  0.2093  0.3947 -0.4237
  495MOL0     C66756  10.030   3.989   3.864  0.3933 -0.5511 -0.6898
  495MOL0     C66757   9.993   3.946   3.738  0.2842 -0.5782  0.4634
  495MOL0     H66758   9.831   3.612   3.402 -1.2619  1.7398  1.8241
  495MOL0     H66759   9.735   3.499   3.196 -0.1994 -3.3270  2.7382
  495MOL0     H66760   9.325   3.628   3.104 -0.8869 -2.6123  0.7036
  495MOL0     H66761   9.477   3.634   3.012  1.7126 -0.6401  2.5168
  495MOL0     H66762   9.345   3.533   2.852  4.7178 -1.2994 -2.7402
  495MOL0     H66763   9.425   3.396   2.917  0.4538 -0.0928 -0.3534
  495MOL0     H66764   9.209   3.319   2.924 -1.6510 -0.9050  1.2511
  495MOL0     H66765   9.222   3.379   3.090  0.5023 -1.0944  0.0474
  495MOL0     H66766   9.068   3.534   3.055 -1.0700  0.4424  0.0901
  495MOL0     H66767   9.123   3.571   2.883  0.2370  1.6600  1.7883
  495MOL0     H66768   8.960   3.338   2.971  4.1781  1.7651  3.7458
  495MOL0     H66769   8.886   3.490   2.907 -0.6700 -0.0022 -1.2565
  495MOL0     H66770   9.056   3.290   2.749  1.0131 -0.2505  1.4092
  495MOL0     H66771   8.886   3.317   2.729  0.7288  0.3851  0.1966
  495MOL0     H66772   9.104   3.524   2.650 -1.3015  2.6169 -2.0862
  495MOL0     H66773   9.004   3.426   2.542  1.7747 -1.3402  0.6165
  495MOL0     H66774   8.952   3.668   2.560 -0.5636  1.9536  2.4321
  495MOL0     H66775   8.888   3.652   2.719  0.7827  2.0044 -1.2357
  495MOL0     H66776   8.843   3.515   2.349  2.3482 -2.4104  1.4980
  495MOL0     H66777   8.528   3.548   2.226 -0.8045 -0.9874 -1.7588
  495MOL0     H66778   8.654   3.428   2.217  1.2541  2.0314  0.5122
  495MOL0     H66779   8.373   3.414   2.340  0.6460  1.6487 -0.2268
  495MOL0     H66780   8.481   3.272   2.362 -5.3921 -3.1223 -2.4691
  495MOL0     H66781   8.496   3.225   2.136  0.2792  1.0144  0.4992
  495MOL0     H66782   8.410   3.379   2.089 -0.4594 -0.4541  0.3448
  495MOL0     H66783   8.202   3.292   2.198 -0.4655 -0.3991  0.6367
  495MOL0     H66784   8.278   3.137   2.232  0.8867 -0.1949 -0.7682
  495MOL0     H66785   8.177   2.942   2.091 -3.0606 -4.2709  1.0593
  495MOL0     H66786   7.875   2.758   2.080  0.7754  0.6415 -0.9216
  495MOL0     H66787   8.019   2.790   2.172 -1.4569 -0.6863  3.2829
  495MOL0     H66788   7.868   2.872   2.223 -0.9432 -0.8952  0.0162
  495MOL0     H66789   7.492   2.767   2.044  0.8833  1.3270 -2.0171
  495MOL0     H66790   7.244   2.770   2.093  0.5703 -0.1083  0.7464
  495MOL0     H66791   7.029   2.821   2.077  1.1403  0.6261  0.0090
  495MOL0     H66792   7.075   2.790   2.246 -0.1722  1.3975  1.7239
  495MOL0     H66793   6.873   2.984   2.231  0.0214  0.1415  0.1910
  495MOL0     H66794   6.829   2.829   2.159  0.5821  1.7571 -1.4257
  495MOL0     H66795   6.949   2.860   2.439 -0.9875  1.1312 -0.4469
  495MOL0     H66796   6.886   2.725   2.368  0.4966 -0.5904 -1.3088
  495MOL0     H66797   6.708   2.813   2.514  0.2133 -2.5173 -1.5745
  495MOL0     H66798   6.723   2.976   2.447 -1.1109 -0.5323  0.0379
  495MOL0     H66799   6.630   2.744   2.271 -3.0990 -1.1631  1.0786
  495MOL0     H66800   6.617   2.915   2.237  0.0678  0.3865  0.0351
  495MOL0     H66801   6.483   2.792   2.473 -1.8867  0.1659 -0.2676
  495MOL0     H66802   6.481   2.959   2.436  0.5709 -1.0560  1.0626
  495MOL0     H66803   6.379   2.786   2.214 -2.0788 -2.1223  2.0657
  495MOL0     H66804   6.361   2.952   2.224 -1.0633 -1.8534 -2.2771
  495MOL0     H66805   6.160   2.857   2.252  2.0512  2.0308 -1.5582
  495MOL0     H66806   6.207   2.918   2.413 -0.9127 -1.2505  1.3702
  495MOL0     H66807   7.249   3.167   2.206 -0.8556 -0.7510  1.4901
  495MOL0     H66808   7.512   3.181   2.182  2.7624 -1.7967 -0.0128
  495MOL0     H66809   7.817   3.238   1.916  0.9412  1.1117  0.9099
  495MOL0     H66810   8.068   3.298   1.898  1.6172 -0.8605  0.4498
  495MOL0     H66811   9.347   3.612   3.351 -0.5674 -1.6629 -1.0391
  495MOL0     H66812   9.442   3.743   3.523 -0.8110 -0.0934 -1.0369
  495MOL0     H66813   9.703   3.788   3.824  1.8158 -3.2003  0.0663
  495MOL0     H66814   9.804   3.829   4.049  1.7437  3.7966  3.9405
  495MOL0     H66815  10.157   3.897   4.160 -2.3249 -0.8607  2.2348
  495MOL0     H66816  10.188   4.050   4.078  2.4170 -0.5627  1.2348
  495MOL0     H66817  10.040   4.005   4.352  1.4559 -2.7960 -0.8756
  495MOL0     H66818  10.109   4.163   4.289  0.2944  0.1924 -1.0714
  495MOL0     H66819  10.279   3.926   4.346  0.8115 -0.7030  0.0380
  495MOL0     H66820  10.203   4.010   4.482 -0.1973 -0.8993 -0.7784
  495MOL0     H66821  10.416   4.098   4.474 -1.0450 -0.0099  0.8870
  495MOL0     H66822  10.302   4.215   4.390 -0.2275 -0.7705 -3.1790
  495MOL0     H66823  10.564   4.091   4.082  0.5746 -2.3344  0.2770
  495MOL0     H66824  10.115   4.056   3.869 -2.2860  3.3190 -1.5862
  495MOL0     H66825  10.061   3.978   3.660  0.9298  2.4003  2.0950
  496MOL0     O66826   3.225   6.611   0.183  0.3426  0.2172  0.0112
  496MOL0     C66827   3.222   6.597   0.304 -0.6505  0.2499  0.1215
  496MOL0     O66828   3.331   6.576   0.384 -0.2476  0.1528 -0.2213
  496MOL0     C66829   3.455   6.558   0.328 -0.2399  0.7809 -0.2252
  496MOL0     C66830   3.496   6.431   0.289 -0.2494  0.0303  0.4113
  496MOL0     C66831   3.618   6.407   0.218  0.3883 -0.3572  0.0342
  496MOL0     C66832   3.699   6.514   0.197  0.0330  0.1424  1.2441
  496MOL0     O66833   3.817   6.490   0.143 -0.2374  0.0873 -0.3588
  496MOL0     C66834   3.925   6.514   0.235  0.6152  0.1525  0.4736
  496MOL0     C66835   4.038   6.418   0.183 -0.4196  0.8384 -0.0337
  496MOL0     C66836   3.997   6.270   0.184 -1.1265 -0.2560  0.4641
  496MOL0     C66837   4.046   6.199   0.318  0.9186  0.2832 -0.2313
  496MOL0     C66838   3.961   6.073   0.338 -0.5989 -0.4518  0.0764
  496MOL0     C66839   3.820   6.102   0.383  0.3546  0.2641 -0.5207
  496MOL0     C66840   3.734   5.981   0.423  0.3953  0.0524  0.7946
  496MOL0     C66841   3.592   5.979   0.376  0.6001 -0.1176 -0.4520
  496MOL0     N66842   3.497   5.889   0.447 -0.6957 -0.6893 -1.0421
  496MOL0     C66843   3.517   5.761   0.485 -0.0426 -0.1938  0.4806
  496MOL0     C66844   3.411   5.716   0.552  0.4676 -0.5015  0.6795
  496MOL0     C66845   3.414   5.597   0.646  0.5686  0.1521 -0.3201
  496MOL0     C66846   3.288   5.512   0.625 -0.7498 -0.3561  0.0422
  496MOL0     C66847   3.293   5.372   0.695  0.1210 -0.6055  0.6915
  496MOL0     C66848   3.151   5.305   0.689 -0.5136 -0.3327 -0.6817
  496MOL0     O66849   3.061   5.376   0.775  0.5525 -0.2155 -0.0628
  496MOL0     C66850   2.925   5.347   0.765  0.7485  0.1740 -0.1782
  496MOL0     C66851   2.835   5.457   0.770  0.5309  0.3953  0.2628
  496MOL0     C66852   2.698   5.436   0.782  0.6391 -0.4129  0.4478
  496MOL0     C66853   2.623   5.572   0.799  0.0353  0.2716  0.1552
  496MOL0     C66854   2.638   5.306   0.783  0.8701 -0.3448  1.1184
  496MOL0     C66855   2.490   5.275   0.780 -0.4608 -0.6965 -0.2237
  496MOL0     O66856   2.463   5.140   0.764 -0.1167 -0.3256 -0.3124
  496MOL0     C66857   2.346   5.092   0.702 -0.1873 -0.0710 -0.8668
  496MOL0     C66858   2.314   4.956   0.721 -0.0459 -1.0884 -0.2042
  496MOL0     C66859   2.205   4.895   0.674  0.1641 -1.2711 -0.4962
  496MOL0     C66860   2.104   4.978   0.618 -0.6028  0.0489  0.1399
  496MOL0     O66861   1.984   4.917   0.599  0.5075  0.5648  0.0562
  496MOL0     C66862   1.874   4.959   0.682 -0.2300 -0.0723 -0.5207
  496MOL0     C66863   1.751   4.996   0.611  0.1812 -1.2738 -0.2718
  496MOL0     C66864   1.645   5.048   0.703 -1.1578  0.8621 -0.2284
  496MOL0     C66865   1.507   5.029   0.652  0.1865 -0.2973 -0.4816
  496MOL0     C66866   1.470   5.140   0.558 -0.3491 -0.1712  0.2282
  496MOL0     C66867   1.321   5.124   0.509  0.2004 -0.5335  0.2815
  496MOL0     C66868   1.269   5.249   0.419  0.1737  0.9603 -0.1293
  496MOL0     C66869   1.117   5.239   0.378  0.4488 -1.2064 -0.4345
  496MOL0    Cl66870   1.091   5.095   0.265  0.2531 -0.2794 -0.2136
  496MOL0     C66871   2.123   5.115   0.591  0.0023  0.2823  0.1684
  496MOL0     C66872   2.246   5.173   0.640 -0.5229 -0.0075  0.1102
  496MOL0     O66873   2.404   5.366   0.769 -0.6020 -0.1043  0.4300
  496MOL0     C66874   2.734   5.198   0.778  0.0135  0.1596 -0.1684
  496MOL0     C66875   2.871   5.219   0.774 -0.1063  0.1050 -0.2624
  496MOL0     N66876   3.327   5.825   0.559 -0.2858 -0.1459 -0.2732
  496MOL0     N66877   3.374   5.924   0.492  0.1993 -0.1968 -0.3206
  496MOL0     C66878   3.666   6.646   0.230  0.4620 -0.6180 -0.2135
  496MOL0     C66879   3.544   6.665   0.301 -0.1364  0.3363  0.0462
  496MOL0     C66880   3.081   6.600   0.368 -0.0669 -0.4985  1.0142
  496MOL0     C66881   2.970   6.648   0.286  0.1862  0.5076 -1.2839
  496MOL0     C66882   2.838   6.644   0.343 -0.3615 -0.5336  0.3986
  496MOL0     C66883   2.813   6.617   0.477 -0.2380 -0.4640  0.3382
  496MOL0     O66884   2.694   6.623   0.543 -0.3040  0.2725 -0.4488
  496MOL0     C66885   2.571   6.631   0.474  0.5346 -0.2615 -0.6211
  496MOL0     C66886   2.442   6.620   0.562 -0.3846  0.4638  0.0108
  496MOL0     C66887   2.423   6.734   0.662  0.0600  0.0399 -0.0302
  496MOL0     C66888   2.318   6.844   0.623 -0.4966  0.2856  0.0520
  496MOL0     C66889   2.181   6.792   0.642 -0.1982 -0.3770  0.1059
  496MOL0     C66890   2.067   6.770   0.675  0.1097 -0.0163 -0.1088
  496MOL0     C66891   2.927   6.592   0.558  0.5841 -0.6010  0.3269
  496MOL0     C66892   3.061   6.573   0.507  1.0763 -0.6331  0.2528
  496MOL0     H66893   3.422   6.353   0.306  1.3088 -1.3085  1.4642
  496MOL0     H66894   3.635   6.305   0.187 -2.6647 -0.8547 -0.2781
  496MOL0     H66895   3.933   6.622   0.252 -3.0351  0.3378  1.9695
  496MOL0     H66896   3.891   6.484   0.335 -0.3650  1.3629  0.5294
  496MOL0     H66897   4.071   6.458   0.087  2.3369 -0.2228  0.3958
  496MOL0     H66898   4.116   6.432   0.258 -0.9350  2.0658  0.2991
  496MOL0     H66899   3.892   6.265   0.152 -0.7979  1.1338 -1.0253
  496MOL0     H66900   4.042   6.220   0.097 -3.8176 -0.0681 -1.1465
  496MOL0     H66901   4.147   6.157   0.310  0.1079 -2.4240  2.0055
  496MOL0     H66902   4.037   6.265   0.405 -2.0691 -0.4768  0.1363
  496MOL0     H66903   3.968   6.012   0.247  0.0265  0.4324 -0.4903
  496MOL0     H66904   4.011   6.019   0.419 -1.6594 -0.2049  0.9028
  496MOL0     H66905   3.839   6.164   0.471  1.8326  1.6540 -1.7327
  496MOL0     H66906   3.774   6.175   0.315  1.3513  3.5981  2.1206
  496MOL0     H66907   3.787   5.893   0.384 -0.8435  0.7088 -2.7171
  496MOL0     H66908   3.731   5.966   0.531  0.2764 -1.5389  0.5993
  496MOL0     H66909   3.593   5.938   0.275  1.8913  1.4888 -1.1466
  496MOL0     H66910   3.556   6.081   0.356  1.2567  0.1791 -0.1489
  496MOL0     H66911   3.617   5.720   0.489  1.8089  3.9618  2.1065
  496MOL0     H66912   3.506   5.540   0.629  1.7756  1.6038  0.9907
  496MOL0     H66913   3.407   5.638   0.748  1.6610 -2.1310  0.7307
  496MOL0     H66914   3.268   5.499   0.518  0.7240 -0.1045 -0.2855
  496MOL0     H66915   3.204   5.570   0.663  0.0088  2.3405 -2.0854
  496MOL0     H66916   3.331   5.390   0.796  0.5499  1.4524  0.2219
  496MOL0     H66917   3.364   5.308   0.643 -0.2501  0.5642 -1.3653
  496MOL0     H66918   3.169   5.204   0.728 -4.6812 -1.0166  0.0324
  496MOL0     H66919   3.115   5.274   0.591  0.3372 -3.7155 -0.0485
  496MOL0     H66920   2.874   5.558   0.770 -0.4890  0.8226  1.5497
  496MOL0     H66921   2.694   5.651   0.824  2.4463 -1.3006 -1.3924
  496MOL0     H66922   2.566   5.586   0.706  0.3953 -2.0365 -0.4607
  496MOL0     H66923   2.558   5.561   0.886 -1.4787  1.4463 -0.7720
  496MOL0     H66924   2.384   4.893   0.774  1.8315  1.8309  1.0955
  496MOL0     H66925   2.188   4.788   0.686 -2.9893 -0.9926 -1.4597
  496MOL0     H66926   1.846   4.873   0.743 -2.3921 -0.5323 -2.0459
  496MOL0     H66927   1.905   5.045   0.743 -1.2814 -0.0328 -0.0219
  496MOL0     H66928   1.772   5.065   0.530 -0.8117 -0.0448  0.4812
  496MOL0     H66929   1.706   4.910   0.560  0.6170 -0.0296 -2.8670
  496MOL0     H66930   1.664   5.154   0.722 -2.7018  0.6946  2.9757
  496MOL0     H66931   1.648   4.986   0.793 -1.0243 -1.4184 -1.7120
  496MOL0     H66932   1.494   4.937   0.594 -3.3698 -0.1370 -0.1522
  496MOL0     H66933   1.457   5.029   0.749  1.8678 -0.4557  0.4314
  496MOL0     H66934   1.529   5.138   0.466  1.5902 -0.9557  1.4135
  496MOL0     H66935   1.476   5.237   0.609 -0.9898  0.2982 -0.5570
  496MOL0     H66936   1.315   5.028   0.457  1.3683 -0.3346 -0.2626
  496MOL0     H66937   1.257   5.119   0.597 -1.5945  1.6226 -0.8008
  496MOL0     H66938   1.324   5.240   0.326 -0.1404 -2.0909 -0.1066
  496MOL0     H66939   1.286   5.341   0.476 -0.3947  0.3929  1.0121
  496MOL0     H66940   1.089   5.333   0.331  0.0605  0.4456  2.7708
  496MOL0     H66941   1.054   5.225   0.467 -0.2970  2.0939 -0.3347
  496MOL0     H66942   2.046   5.176   0.543  0.1826  0.5511  0.2164
  496MOL0     H66943   2.240   5.280   0.624  2.1691  0.4563  1.7140
  496MOL0     H66944   2.705   5.093   0.781  4.3813 -1.2383  2.9130
  496MOL0     H66945   2.940   5.137   0.759 -0.0681  0.2436 -0.8982
  496MOL0     H66946   3.723   6.733   0.200  0.3475 -0.7803 -0.9262
  496MOL0     H66947   3.511   6.766   0.325  0.3425  0.1265  1.6779
  496MOL0     H66948   2.986   6.683   0.185  0.5992  1.9142 -0.7560
  496MOL0     H66949   2.753   6.654   0.277  0.7835 -2.9357 -1.6550
  496MOL0     H66950   2.555   6.724   0.418 -2.0600  0.0353  0.4530
  496MOL0     H66951   2.562   6.554   0.396 -2.0101 -1.9251  1.1449
  496MOL0     H66952   2.446   6.527   0.618  1.9932  1.1537  1.0772
  496MOL0     H66953   2.352   6.618   0.498  0.6046  1.0146 -1.4583
  496MOL0     H66954   2.519   6.785   0.678 -0.1961  0.1417  1.3119
  496MOL0     H66955   2.403   6.696   0.762  2.8066  1.3069  1.1138
  496MOL0     H66956   2.328   6.869   0.517 -0.1841  1.2436  0.3037
  496MOL0     H66957   2.326   6.938   0.679  0.2473  1.0241 -1.2552
  496MOL0     H66958   1.966   6.758   0.709  0.4170 -0.2169  0.7672
  496MOL0     H66959   2.910   6.600   0.664 -0.9598 -0.0320  0.0562
  496MOL0     H66960   3.155   6.554   0.557  0.4885 -1.6945  1.0146
  497MOL0     O66961   4.142   7.245   5.274  0.0807 -0.6223 -0.8676
  497MOL0     C66962   4.197   7.350   5.254 -0.5270  0.2270 -0.0641
  497MOL0     O66963   4.133   7.469   5.258  0.1328  0.4059  0.0533
  497MOL0     C66964   4.015   7.477   5.314 -0.6328 -0.5329  0.6628
  497MOL0     C66965   3.903   7.460   5.225 -0.0629  0.5041  0.4636
  497MOL0     C66966   3.773   7.460   5.275  0.3628  0.0468  0.2220
  497MOL0     C66967   3.744   7.510   5.399 -1.0560 -0.0940 -0.4101
  497MOL0     O66968   3.613   7.533   5.439 -0.4562 -0.3518  0.3095
  497MOL0     C66969   3.561   7.660   5.386  0.9900  0.4797 -0.0575
  497MOL0     C66970   3.443   7.619   5.299 -0.1814  0.5390  0.2577
  497MOL0     C66971   3.331   7.547   5.378 -0.4652  1.7052 -0.2274
  497MOL0     C66972   3.207   7.514   5.289 -0.1097 -0.8135 -0.0391
  497MOL0     C66973   3.085   7.464   5.371 -0.1758  0.1493  0.8609
  497MOL0     C66974   2.959   7.450   5.286 -0.7016  0.2428  0.1391
  497MOL0     C66975   2.832   7.486   5.358  0.4171  0.2040  0.5577
  497MOL0     C66976   2.709   7.440   5.286 -0.5371  1.2059 -0.2304
  497MOL0     N66977   2.707   7.479   5.143 -0.1328 -0.8008 -0.4221
  497MOL0     C66978   2.688   7.607   5.096 -0.3457 -0.2476  0.8340
  497MOL0     C66979   2.689   7.596   4.964 -0.9355 -0.1396  0.5522
  497MOL0     C66980   2.651   7.689   4.850  0.2383 -0.1309 -0.3917
  497MOL0     C66981   2.523   7.635   4.781  0.2923 -0.8324 -0.1995
  497MOL0     C66982   2.477   7.743   4.681 -0.1518 -1.2585 -0.3647
  497MOL0     C66983   2.361   7.687   4.596  0.5681 -0.2434  0.0526
  497MOL0     O66984   2.316   7.795   4.513 -0.4892  0.4803 -0.3927
  497MOL0     C66985   2.180   7.803   4.477  0.8801  0.0610  0.6811
  497MOL0     C66986   2.135   7.935   4.482 -0.1232  0.3028  0.2421
  497MOL0     C66987   1.999   7.954   4.463 -0.2910 -0.5929  0.1976
  497MOL0     C66988   1.949   8.090   4.487 -0.6394  0.3747  0.1419
  497MOL0     C66989   1.913   7.848   4.425 -0.2057  0.2847 -0.6283
  497MOL0     C66990   1.771   7.864   4.401  0.7746  0.1907 -0.0786
  497MOL0     O66991   1.702   7.975   4.458 -0.4300 -0.2006 -0.1262
  497MOL0     C66992   1.582   8.002   4.406  0.2208 -0.4311 -0.1130
  497MOL0     C66993   1.555   8.027   4.267 -0.7416  0.6683 -1.4690
  497MOL0     C66994   1.425   8.055   4.225  0.9712  0.2668  0.1403
  497MOL0     C66995   1.316   8.046   4.314  0.4079  0.2750  0.3748
  497MOL0     O66996   1.190   8.061   4.261  0.0068  0.3022  0.3369
  497MOL0     C66997   1.075   8.095   4.342 -0.3126 -0.0840  1.0911
  497MOL0     C66998   0.978   7.974   4.331 -0.0830 -0.3912 -0.1033
  497MOL0     C66999   0.865   7.975   4.426  0.5231  0.4247 -0.0078
  497MOL0     C67000   0.798   8.107   4.450  0.4337 -0.0643 -0.6622
  497MOL0     C67001   0.669   8.107   4.532  0.7312  0.4581  0.5591
  497MOL0     C67002   0.556   8.026   4.457 -0.3365 -0.3127 -0.4219
  497MOL0     C67003   0.428   8.013   4.537  0.1099 -0.1975  0.2726
  497MOL0     C67004   0.361   8.143   4.595  0.1704 -0.2346  0.0882
  497MOL0    Cl67005   0.290   8.235   4.462  0.4246 -0.3717  0.6478
  497MOL0     C67006   1.341   8.008   4.449 -0.7567  0.7404  0.8360
  497MOL0     C67007   1.474   7.995   4.498 -0.0491 -0.0083 -1.1518
  497MOL0     O67008   1.720   7.780   4.329  0.0084  0.4461 -0.5030
  497MOL0     C67009   1.971   7.720   4.404  1.2854  0.4623 -0.0172
  497MOL0     C67010   2.105   7.700   4.428 -0.2094  0.0046 -0.3596
  497MOL0     N67011   2.724   7.465   4.940 -0.4877  0.3381 -0.2282
  497MOL0     N67012   2.735   7.394   5.044  0.5349  0.4648  0.1135
  497MOL0     C67013   3.848   7.525   5.488  0.2183 -0.1702  0.2417
  497MOL0     C67014   3.978   7.507   5.450 -0.4835  0.1607 -0.5857
  497MOL0     C67015   4.344   7.348   5.209  0.5046  0.0866  0.2011
  497MOL0     C67016   4.412   7.230   5.178  0.0756  0.3893  1.0602
  497MOL0     C67017   4.543   7.230   5.124 -0.5877  0.1202  0.0919
  497MOL0     C67018   4.611   7.348   5.111 -0.0101 -1.1388 -0.5526
  497MOL0     O67019   4.737   7.332   5.069 -0.7254  0.2229  0.8172
  497MOL0     C67020   4.826   7.449   5.050 -1.0852 -0.1976  0.1992
  497MOL0     C67021   4.971   7.409   5.056 -0.1214  0.5509 -0.5498
  497MOL0     C67022   5.057   7.528   5.037 -0.9576 -0.3979  0.0451
  497MOL0     C67023   5.205   7.500   5.058 -0.0008 -0.2625 -0.3598
  497MOL0     C67024   5.286   7.618   5.061  0.4955  0.5032  0.0300
  497MOL0     C67025   5.341   7.726   5.070 -0.0120  0.1783  0.2585
  497MOL0     C67026   4.548   7.465   5.161 -0.8734 -0.5025 -0.2831
  497MOL0     C67027   4.416   7.464   5.201  0.0928  0.3156 -0.1292
  497MOL0     H67028   3.907   7.438   5.119  0.1972  1.0937  0.3440
  497MOL0     H67029   3.687   7.427   5.219  0.8798 -0.7847 -0.0976
  497MOL0     H67030   3.521   7.721   5.468 -0.4645 -1.5869  0.8551
  497MOL0     H67031   3.628   7.724   5.327  0.8350  0.2266 -0.5131
  497MOL0     H67032   3.413   7.699   5.231  0.8838 -1.0176 -2.1699
  497MOL0     H67033   3.497   7.553   5.230 -0.7728 -0.9004  1.1360
  497MOL0     H67034   3.366   7.447   5.404 -1.2071  1.2820 -0.8362
  497MOL0     H67035   3.306   7.596   5.472  2.3618  0.2617  1.4357
  497MOL0     H67036   3.179   7.606   5.237 -0.7818 -0.4613  0.9221
  497MOL0     H67037   3.236   7.436   5.218  1.1267 -0.9233  0.5649
  497MOL0     H67038   3.105   7.373   5.427  1.4791  1.0713  1.8738
  497MOL0     H67039   3.073   7.544   5.444  0.2939  0.4515  0.6180
  497MOL0     H67040   2.952   7.516   5.199 -1.4858  0.9862  0.7471
  497MOL0     H67041   2.959   7.349   5.244  0.1139  0.6747 -0.9526
  497MOL0     H67042   2.835   7.432   5.453 -0.5917 -0.3921  0.2772
  497MOL0     H67043   2.827   7.593   5.380 -1.4031 -0.2286  2.6206
  497MOL0     H67044   2.622   7.495   5.325 -0.7437  0.4739  0.3461
  497MOL0     H67045   2.696   7.334   5.305  1.5686  1.5379  4.0497
  497MOL0     H67046   2.679   7.698   5.155  3.7255  0.1891  1.0725
  497MOL0     H67047   2.647   7.792   4.886  0.0347 -0.4612  0.5646
  497MOL0     H67048   2.731   7.679   4.776 -0.3361 -0.3631 -0.9916
  497MOL0     H67049   2.447   7.615   4.856  1.0645 -1.6392  0.3948
  497MOL0     H67050   2.543   7.548   4.718 -3.0129 -1.0853 -1.0839
  497MOL0     H67051   2.558   7.772   4.614  2.4027 -2.0317  2.1873
  497MOL0     H67052   2.452   7.836   4.734 -0.6338 -0.9809 -1.0724
  497MOL0     H67053   2.275   7.646   4.650 -1.3672  1.7767 -1.2699
  497MOL0     H67054   2.408   7.621   4.522  4.3689  0.9748  1.1498
  497MOL0     H67055   2.194   8.022   4.509 -3.7475  3.6356 -1.5489
  497MOL0     H67056   2.028   8.163   4.507 -1.6269  2.2571 -2.3780
  497MOL0     H67057   1.893   8.128   4.401  1.9829  0.0366 -1.8523
  497MOL0     H67058   1.879   8.092   4.571 -0.7947 -0.7008  0.0476
  497MOL0     H67059   1.637   8.024   4.195  0.2772 -1.2048 -0.3120
  497MOL0     H67060   1.410   8.092   4.125  3.1245 -2.0143 -1.1346
  497MOL0     H67061   1.089   8.123   4.446 -2.8019  1.1195  1.1647
  497MOL0     H67062   1.028   8.180   4.291 -2.0966 -2.0307 -0.7286
  497MOL0     H67063   0.939   7.966   4.229 -0.9425  3.6552 -0.2859
  497MOL0     H67064   1.038   7.884   4.345 -1.7795 -1.7639 -1.1786
  497MOL0     H67065   0.910   7.955   4.524 -0.0322  1.8201  0.5460
  497MOL0     H67066   0.784   7.908   4.395  1.1585 -0.7227  0.7278
  497MOL0     H67067   0.880   8.163   4.496  1.2308 -1.1153 -0.7700
  497MOL0     H67068   0.772   8.151   4.353  1.2260 -0.3084 -1.0013
  497MOL0     H67069   0.631   8.206   4.555 -0.3633  0.3475 -0.6394
  497MOL0     H67070   0.695   8.050   4.622  2.3379 -2.0833 -1.3488
  497MOL0     H67071   0.539   8.068   4.357  2.4412  1.1861 -0.3509
  497MOL0     H67072   0.585   7.921   4.445 -2.3800 -0.8700 -0.8482
  497MOL0     H67073   0.446   7.941   4.618  1.9764 -3.0053 -2.4076
  497MOL0     H67074   0.353   7.967   4.472  0.2388  2.9091 -2.3347
  497MOL0     H67075   0.426   8.212   4.650 -1.9877  0.2236  2.2124
  497MOL0     H67076   0.276   8.127   4.662 -1.2797  1.1635 -1.3295
  497MOL0     H67077   1.266   7.992   4.525  0.4860 -0.8481  1.7945
  497MOL0     H67078   1.494   7.964   4.600 -1.2844  0.2041 -0.8295
  497MOL0     H67079   1.913   7.643   4.353  1.5462 -0.5665  1.1911
  497MOL0     H67080   2.145   7.600   4.414  1.9434  0.3444  2.3943
  497MOL0     H67081   3.823   7.535   5.593 -1.6882 -1.7414 -0.0061
  497MOL0     H67082   4.051   7.508   5.530 -2.0010  0.0758  0.8604
  497MOL0     H67083   4.374   7.129   5.187 -0.1814  0.1351 -1.7278
  497MOL0     H67084   4.593   7.138   5.097  1.6952  1.6990 -1.3325
  497MOL0     H67085   4.800   7.493   4.954 -0.4059  2.2720  1.0755
  497MOL0     H67086   4.811   7.530   5.121 -2.3540 -0.7319  0.5726
  497MOL0     H67087   4.994   7.331   4.983 -0.2128  1.0328 -1.0972
  497MOL0     H67088   4.991   7.368   5.156  1.2969  0.1051 -0.9978
  497MOL0     H67089   5.033   7.606   5.110 -0.8137 -0.7947  0.5195
  497MOL0     H67090   5.037   7.560   4.934 -0.9212 -3.0258 -0.8392
  497MOL0     H67091   5.241   7.442   4.972 -3.0207 -0.6968 -1.4596
  497MOL0     H67092   5.214   7.440   5.148  1.1259  1.9725  1.1062
  497MOL0     H67093   5.394   7.819   5.066  1.1667 -0.3474  2.1926
  497MOL0     H67094   4.603   7.557   5.147  0.1134 -1.1718 -0.9221
  497MOL0     H67095   4.366   7.555   5.233  2.5353  1.3353  1.0709
  498MOL0     O67096   5.016   1.832  10.742  0.3844 -0.0585 -0.3414
  498MOL0     C67097   5.095   1.915  10.782 -0.5513  0.5597 -0.5718
  498MOL0     O67098   5.104   1.956  10.906 -0.2588  0.8108 -0.8224
  498MOL0     C67099   5.003   1.922  10.997  0.1183 -1.0067  0.6259
  498MOL0     C67100   4.884   1.989  11.002  0.3502  0.3333  0.2376
  498MOL0     C67101   4.787   1.953  11.092 -0.3628  0.1955 -0.5639
  498MOL0     C67102   4.808   1.852  11.180  0.9040 -0.3186 -0.2303
  498MOL0     O67103   4.703   1.805  11.257  0.8399 -0.6764 -0.5856
  498MOL0     C67104   4.649   1.890  11.355  0.7471 -0.3898 -0.0535
  498MOL0     C67105   4.510   1.822  11.414  0.2595 -0.1523 -0.4235
  498MOL0     C67106   4.380   1.899  11.388  0.9958  0.7494  0.9035
  498MOL0     C67107   4.254   1.834  11.452 -0.6053  0.0631  0.5831
  498MOL0     C67108   4.123   1.910  11.433  0.3006 -0.6751 -0.3613
  498MOL0     C67109   4.064   1.900  11.295 -0.2434  0.5410  0.5226
  498MOL0     C67110   3.927   1.969  11.290  0.3590  0.3253  0.2875
  498MOL0     C67111   3.811   1.878  11.356 -0.2768 -0.0720 -0.7254
  498MOL0     N67112   3.671   1.937  11.351 -0.2812  0.8694  0.5839
  498MOL0     C67113   3.608   1.978  11.239 -0.5780 -0.7690  0.3193
  498MOL0     C67114   3.484   2.014  11.277 -0.7186 -0.0893  0.2037
  498MOL0     C67115   3.385   2.073  11.185  0.1889 -0.5849 -0.1267
  498MOL0     C67116   3.253   1.984  11.174  0.0380 -0.2950  0.2597
  498MOL0     C67117   3.158   2.064  11.083  0.3615  0.1380  0.0240
  498MOL0     C67118   3.019   1.995  11.072 -0.4257  0.0895  1.3683
  498MOL0     O67119   2.931   2.025  11.182  0.7405  0.2295 -0.5585
  498MOL0     C67120   2.796   1.984  11.179 -0.1027 -0.5871  0.0838
  498MOL0     C67121   2.721   1.945  11.066  1.0850 -0.4689 -0.2218
  498MOL0     C67122   2.578   1.909  11.084  0.1078 -0.6397  0.9034
  498MOL0     C67123   2.504   1.867  10.959 -0.3385 -0.0979  0.2832
  498MOL0     C67124   2.522   1.908  11.212  1.3804  0.7480  0.4777
  498MOL0     C67125   2.387   1.865  11.246  0.5113  0.1548 -0.7871
  498MOL0     O67126   2.359   1.794  11.354  0.5276 -0.1310 -0.3119
  498MOL0     C67127   2.230   1.785  11.399  0.3890 -0.5448  1.0660
  498MOL0     C67128   2.205   1.823  11.526  1.1883  0.4635 -0.5316
  498MOL0     C67129   2.076   1.802  11.582 -0.3418 -0.3691 -0.0143
  498MOL0     C67130   1.972   1.752  11.506 -0.1303  0.6744  0.4462
  498MOL0     O67131   1.842   1.740  11.557 -0.1718 -0.4182 -0.0308
  498MOL0     C67132   1.813   1.807  11.675 -0.4924 -0.6322 -0.4046
  498MOL0     C67133   1.666   1.809  11.706  0.5206  0.3916  0.9719
  498MOL0     C67134   1.595   1.905  11.613  0.0412  0.4337  0.4517
  498MOL0     C67135   1.441   1.907  11.635 -0.4434  0.1878  0.3865
  498MOL0     C67136   1.360   1.978  11.520 -0.7179 -0.1972  0.3279
  498MOL0     C67137   1.394   1.935  11.377 -0.4597 -0.0469  0.6213
  498MOL0     C67138   1.305   2.031  11.288  0.3567 -1.2446 -0.6058
  498MOL0     C67139   1.345   2.006  11.144  0.3405  0.0870 -0.0360
  498MOL0    Cl67140   1.264   1.855  11.103 -0.1013 -0.1984  0.2974
  498MOL0     C67141   1.998   1.721  11.374  0.5491 -0.4486 -0.0538
  498MOL0     C67142   2.123   1.738  11.318  0.2557 -0.3149  0.5155
  498MOL0     O67143   2.303   1.896  11.160  0.3340 -0.2047 -0.3071
  498MOL0     C67144   2.603   1.942  11.319  1.2498 -0.6996  0.1460
  498MOL0     C67145   2.736   1.989  11.303 -0.0105  0.3078  0.8475
  498MOL0     N67146   3.481   2.001  11.415  0.3817 -0.3841 -0.4872
  498MOL0     N67147   3.583   1.951  11.450 -0.1297 -0.3312 -1.1475
  498MOL0     C67148   4.936   1.790  11.190  0.1384  0.8531 -0.1331
  498MOL0     C67149   5.031   1.822  11.094  0.3822  0.1390 -0.4311
  498MOL0     C67150   5.193   1.971  10.689 -0.2335 -0.3876 -0.1096
  498MOL0     C67151   5.243   2.093  10.708 -0.7324 -0.8853 -0.3993
  498MOL0     C67152   5.361   2.148  10.644 -0.5533 -0.0509  0.7419
  498MOL0     C67153   5.408   2.082  10.534  0.0339  0.7369  0.2882
  498MOL0     O67154   5.510   2.143  10.467  0.1079  0.4107 -0.6075
  498MOL0     C67155   5.594   2.076  10.374 -0.5376  0.8665 -0.2794
  498MOL0     C67156   5.706   2.158  10.331  0.1951  0.1194 -0.1066
  498MOL0     C67157   5.670   2.276  10.243  0.4358 -0.2573 -0.5873
  498MOL0     C67158   5.800   2.359  10.202  0.3657 -0.1060 -0.4930
  498MOL0     C67159   5.883   2.292  10.105 -0.2371  0.2789 -0.6358
  498MOL0     C67160   5.961   2.227  10.040 -0.1615 -0.1299 -0.2474
  498MOL0     C67161   5.353   1.956  10.501  0.5462  0.2035 -0.5526
  498MOL0     C67162   5.252   1.904  10.582 -0.4745 -0.0071 -0.1724
  498MOL0     H67163   4.875   2.056  10.917  0.7065 -0.9560 -0.8558
  498MOL0     H67164   4.696   2.012  11.086  0.7906  2.0842 -0.1710
  498MOL0     H67165   4.715   1.908  11.440  0.7330  0.4105 -0.2062
  498MOL0     H67166   4.630   1.988  11.310  0.4238 -1.4033 -2.2816
  498MOL0     H67167   4.505   1.716  11.385  0.5499 -0.0617 -0.7978
  498MOL0     H67168   4.527   1.831  11.522 -0.7275  2.4150 -0.4025
  498MOL0     H67169   4.396   1.994  11.440 -2.2457  0.6032  2.3597
  498MOL0     H67170   4.360   1.919  11.282 -0.1045  4.7409  1.7032
  498MOL0     H67171   4.242   1.734  11.407  0.7442  0.2685 -0.2872
  498MOL0     H67172   4.276   1.826  11.558 -0.1033 -0.6510  0.4296
  498MOL0     H67173   4.056   1.870  11.510  0.3833  0.4061  0.2972
  498MOL0     H67174   4.127   2.016  11.458  0.0477 -0.5796 -0.7200
  498MOL0     H67175   4.130   1.958  11.230 -0.2136  2.2669  1.9990
  498MOL0     H67176   4.048   1.800  11.254  2.1359 -1.1931  3.4231
  498MOL0     H67177   3.926   2.064  11.345 -1.1042  0.2929  0.3655
  498MOL0     H67178   3.901   1.977  11.184  0.2209 -0.0742  0.2903
  498MOL0     H67179   3.835   1.860  11.461 -1.8076  1.5868 -0.0191
  498MOL0     H67180   3.818   1.784  11.300  2.4044  0.0203 -0.6464
  498MOL0     H67181   3.646   1.971  11.137 -2.3495 -2.4378 -0.2890
  498MOL0     H67182   3.363   2.174  11.220 -1.4217 -0.1516 -2.2088
  498MOL0     H67183   3.436   2.082  11.089  0.5002  1.5613  0.1894
  498MOL0     H67184   3.209   1.965  11.272  2.9441 -1.3188  1.4856
  498MOL0     H67185   3.273   1.886  11.130  0.6163 -0.3892  0.7140
  498MOL0     H67186   3.202   2.071  10.983  1.2772  0.6511  0.4524
  498MOL0     H67187   3.140   2.166  11.116  0.8876  0.5123 -0.8312
  498MOL0     H67188   3.041   1.888  11.063  1.6548  0.6313 -0.9637
  498MOL0     H67189   2.969   2.040  10.986 -0.1811 -1.8108  0.1725
  498MOL0     H67190   2.761   1.956  10.966 -1.5301  1.6592 -1.1445
  498MOL0     H67191   2.442   1.782  10.986  1.4486 -1.3917  0.4663
  498MOL0     H67192   2.440   1.951  10.930  1.7898  1.2091 -0.9143
  498MOL0     H67193   2.559   1.850  10.866 -3.2882 -0.8206 -1.4465
  498MOL0     H67194   2.273   1.870  11.597 -3.3777  2.8754  2.7869
  498MOL0     H67195   2.066   1.822  11.688 -2.1112 -1.1060 -0.0140
  498MOL0     H67196   1.862   1.763  11.762 -1.6569  0.3873  0.7967
  498MOL0     H67197   1.853   1.908  11.667  2.3881 -1.4745  1.5328
  498MOL0     H67198   1.617   1.711  11.702 -0.2961  0.5572  4.3959
  498MOL0     H67199   1.661   1.850  11.807 -0.3165  3.9135 -0.3210
  498MOL0     H67200   1.617   1.865  11.514  2.3747 -0.4778  1.2763
  498MOL0     H67201   1.636   2.004  11.632 -0.9775  1.2843 -1.4602
  498MOL0     H67202   1.399   1.807  11.648  0.9506 -0.7041 -1.6561
  498MOL0     H67203   1.429   1.967  11.726  2.1521  1.1588  0.1751
  498MOL0     H67204   1.395   2.080  11.534  0.0315 -0.5040  0.7170
  498MOL0     H67205   1.254   1.960  11.543 -1.0273  1.2869  0.1599
  498MOL0     H67206   1.498   1.965  11.363  0.5009 -2.9130  1.1021
  498MOL0     H67207   1.382   1.827  11.367  1.9341 -0.2817 -0.3214
  498MOL0     H67208   1.332   2.130  11.326 -2.8578 -1.2641  2.1581
  498MOL0     H67209   1.198   2.021  11.305  0.0237  1.7152 -0.6056
  498MOL0     H67210   1.453   2.014  11.128  0.2398  0.4406 -0.5541
  498MOL0     H67211   1.301   2.084  11.081 -1.4345 -1.2135 -0.4862
  498MOL0     H67212   1.919   1.677  11.314  0.9896 -0.3945 -0.6925
  498MOL0     H67213   2.142   1.717  11.214  0.9255  0.9017  0.3663
  498MOL0     H67214   2.566   1.937  11.421  3.2597 -3.7193  0.8741
  498MOL0     H67215   2.801   2.021  11.384  0.2398  1.0842  0.3480
  498MOL0     H67216   4.948   1.713  11.265 -1.5688 -0.1640 -0.8475
  498MOL0     H67217   5.125   1.771  11.110 -1.7273 -3.4625  2.1773
  498MOL0     H67218   5.203   2.153  10.789  0.2167 -1.8736  0.8576
  498MOL0     H67219   5.408   2.244  10.667 -0.0522  0.5747 -2.3786
  498MOL0     H67220   5.645   1.995  10.427  1.6702  2.2574 -0.1303
  498MOL0     H67221   5.544   2.049  10.281 -0.1727  1.4871 -0.6663
  498MOL0     H67222   5.772   2.094  10.272  0.8795  0.3425  0.4040
  498MOL0     H67223   5.764   2.198  10.414  0.6336 -1.4824  0.4024
  498MOL0     H67224   5.606   2.347  10.296 -0.6054  0.5841 -2.8671
  498MOL0     H67225   5.613   2.262  10.151  0.7770 -0.6830 -0.7368
  498MOL0     H67226   5.870   2.379  10.283  2.0266  1.6463 -2.2352
  498MOL0     H67227   5.762   2.458  10.176 -2.4898 -0.2504  2.4729
  498MOL0     H67228   6.023   2.152   9.996 -0.7170 -0.7253 -0.0105
  498MOL0     H67229   5.401   1.899  10.422  2.4705 -2.0814  2.1007
  498MOL0     H67230   5.222   1.805  10.549 -1.7050  0.0446  0.7221
  499MOL0     O67231   4.504   2.698   1.749 -0.0471 -0.2569 -0.3854
  499MOL0     C67232   4.581   2.793   1.764  0.2945  0.1464  1.7370
  499MOL0     O67233   4.548   2.924   1.805 -0.1246  0.4708 -0.1068
  499MOL0     C67234   4.413   2.942   1.833  0.1924 -0.1643 -0.2351
  499MOL0     C67235   4.316   2.971   1.729 -0.3263 -0.5324 -0.4469
  499MOL0     C67236   4.182   2.996   1.758  0.8358 -0.5872  0.5495
  499MOL0     C67237   4.135   2.986   1.892 -0.5831  0.0727  0.2827
  499MOL0     O67238   4.005   3.014   1.913 -0.4677  0.6196 -0.8267
  499MOL0     C67239   3.963   3.041   2.045 -0.0157 -0.3967 -0.0172
  499MOL0     C67240   3.830   3.112   2.032 -0.1959  0.0050  0.4444
  499MOL0     C67241   3.779   3.183   2.162  0.1086 -0.1410 -0.6271
  499MOL0     C67242   3.676   3.287   2.124  0.4001  0.8296 -0.4314
  499MOL0     C67243   3.580   3.310   2.248 -0.6656 -0.4483 -0.0928
  499MOL0     C67244   3.517   3.446   2.227 -0.2415 -0.2546 -0.9486
  499MOL0     C67245   3.426   3.484   2.337  0.1353  0.1583 -0.8298
  499MOL0     C67246   3.292   3.417   2.310  0.9403  0.9972 -0.6575
  499MOL0     N67247   3.192   3.429   2.423 -1.1592 -0.7227  0.0888
  499MOL0     C67248   3.064   3.411   2.399 -0.7736 -0.0927  0.6118
  499MOL0     C67249   2.993   3.488   2.480  0.0655 -1.0222 -0.1560
  499MOL0     C67250   2.845   3.500   2.489 -0.1469 -0.0179  0.1442
  499MOL0     C67251   2.804   3.406   2.612 -0.5480 -0.1729  0.2799
  499MOL0     C67252   2.653   3.406   2.638  0.0980  0.7474  0.8049
  499MOL0     C67253   2.565   3.370   2.508  0.2642 -0.5040 -0.2821
  499MOL0     O67254   2.443   3.295   2.535  0.6812 -0.1559 -0.4137
  499MOL0     C67255   2.329   3.366   2.545  0.0092  0.2513  0.9184
  499MOL0     C67256   2.217   3.290   2.509 -0.3331  0.0626 -0.2898
  499MOL0     C67257   2.090   3.352   2.483  0.1596 -0.4839  0.4866
  499MOL0     C67258   1.979   3.261   2.434  0.1635 -0.5999  0.7718
  499MOL0     C67259   2.081   3.498   2.495  0.2036  1.0280 -0.4539
  499MOL0     C67260   1.958   3.580   2.465  0.3182  0.1916  1.4536
  499MOL0     O67261   1.849   3.517   2.400 -0.2579  0.4229  0.2235
  499MOL0     C67262   1.720   3.568   2.392  0.1338 -0.0381 -0.6253
  499MOL0     C67263   1.679   3.686   2.457  0.2404 -0.1980  0.2089
  499MOL0     C67264   1.548   3.743   2.445  0.0401  0.9819  0.3839
  499MOL0     C67265   1.448   3.668   2.383 -0.3770  0.1202 -0.4514
  499MOL0     O67266   1.324   3.727   2.369  0.3426 -0.2804  0.3587
  499MOL0     C67267   1.277   3.713   2.239  0.1474 -0.4145  0.5634
  499MOL0     C67268   1.147   3.780   2.240 -0.1698  0.3735  0.2610
  499MOL0     C67269   1.143   3.921   2.180 -0.1503  0.3764  0.2476
  499MOL0     C67270   1.005   3.972   2.178 -0.3030  0.5615 -0.5056
  499MOL0     C67271   0.992   4.111   2.123 -0.9044 -0.4789 -0.4460
  499MOL0     C67272   0.867   4.176   2.171 -0.0860  0.1656 -0.4405
  499MOL0     C67273   0.824   4.311   2.127 -0.7840 -1.3919  0.2256
  499MOL0     C67274   0.881   4.368   1.997 -0.0965 -0.3770 -0.3546
  499MOL0    Cl67275   0.844   4.541   1.973  0.5186  0.0751 -0.8980
  499MOL0     C67276   1.493   3.546   2.328 -0.2292  0.6809 -0.7749
  499MOL0     C67277   1.619   3.490   2.334 -0.8663 -0.0051 -0.4702
  499MOL0     O67278   1.957   3.702   2.487  0.2712 -0.2624 -0.2576
  499MOL0     C67279   2.188   3.564   2.550 -0.5903  0.3099  0.1477
  499MOL0     C67280   2.314   3.501   2.574 -0.1484 -0.4009 -0.3908
  499MOL0     N67281   3.088   3.542   2.563 -0.1172  0.5321  0.1921
  499MOL0     N67282   3.203   3.509   2.528 -0.8387  0.0087  0.3091
  499MOL0     C67283   4.231   2.943   1.990 -0.5007 -0.1357 -0.6741
  499MOL0     C67284   4.369   2.927   1.966  0.1923  0.2021 -0.0831
  499MOL0     C67285   4.720   2.767   1.719 -0.3848  0.3451 -0.3997
  499MOL0     C67286   4.832   2.822   1.777  0.6419  0.1727 -0.0435
  499MOL0     C67287   4.962   2.811   1.719  0.4063  0.4314 -0.0646
  499MOL0     C67288   4.984   2.708   1.624 -0.3657  0.2245  0.0396
  499MOL0     O67289   5.107   2.691   1.565 -0.0029  0.1253  0.9191
  499MOL0     C67290   5.208   2.794   1.581 -0.0400 -0.6390 -1.1453
  499MOL0     C67291   5.341   2.729   1.546  0.1199  0.3856 -0.2364
  499MOL0     C67292   5.340   2.678   1.402 -0.5824  0.1013 -0.6974
  499MOL0     C67293   5.481   2.671   1.345 -0.2389 -0.0382 -0.1490
  499MOL0     C67294   5.552   2.569   1.413 -0.8319 -0.4968 -0.9206
  499MOL0     C67295   5.631   2.502   1.476  0.1590  0.4811  0.4793
  499MOL0     C67296   4.877   2.640   1.572 -0.3244  1.0247  0.3678
  499MOL0     C67297   4.746   2.669   1.618 -0.2043 -0.4061  0.4037
  499MOL0     H67298   4.360   2.968   1.629  1.0492  1.1609  0.0554
  499MOL0     H67299   4.113   3.014   1.677  0.5980  0.1956  0.9087
  499MOL0     H67300   3.954   2.962   2.120 -0.5300 -0.3396 -0.0129
  499MOL0     H67301   4.035   3.107   2.094 -0.0091 -0.7173  0.4086
  499MOL0     H67302   3.823   3.182   1.948 -3.2403  1.5888  1.8352
  499MOL0     H67303   3.755   3.033   2.021  1.5223 -1.6999  0.4813
  499MOL0     H67304   3.729   3.111   2.228 -1.6721  1.1397 -0.4938
  499MOL0     H67305   3.856   3.232   2.223 -1.3342 -0.0774  1.2416
  499MOL0     H67306   3.724   3.378   2.085  0.8107 -0.8131 -4.2580
  499MOL0     H67307   3.613   3.255   2.040  0.5157  1.8482 -0.9300
  499MOL0     H67308   3.504   3.233   2.263  0.1429 -1.1863  0.3520
  499MOL0     H67309   3.646   3.310   2.335  0.3296  1.2769 -0.8001
  499MOL0     H67310   3.596   3.522   2.225  1.9230 -2.3409 -0.1086
  499MOL0     H67311   3.473   3.439   2.128  0.0037 -1.1766 -1.0019
  499MOL0     H67312   3.472   3.444   2.427 -0.3752  1.1852 -0.0878
  499MOL0     H67313   3.406   3.592   2.341  0.3771  0.2168 -1.1867
  499MOL0     H67314   3.320   3.313   2.294  4.3274  2.0386 -2.3961
  499MOL0     H67315   3.247   3.454   2.217 -2.1519 -1.8051 -0.4497
  499MOL0     H67316   3.032   3.343   2.320 -0.2847  0.0889  0.2501
  499MOL0     H67317   2.810   3.603   2.498  1.3508  0.3271  3.7980
  499MOL0     H67318   2.803   3.454   2.398 -0.3644  0.5417 -0.0436
  499MOL0     H67319   2.854   3.432   2.706  1.8672  0.2684 -1.0451
  499MOL0     H67320   2.832   3.302   2.594  1.3670 -0.2516  2.9837
  499MOL0     H67321   2.622   3.501   2.683  1.2848 -0.1719  3.7951
  499MOL0     H67322   2.635   3.325   2.709 -0.7689 -2.5418 -2.8441
  499MOL0     H67323   2.637   3.314   2.447  0.2056 -1.1290  0.2166
  499MOL0     H67324   2.555   3.455   2.441 -0.5351 -1.0581 -0.8866
  499MOL0     H67325   2.231   3.182   2.508 -1.3808 -0.1083  0.7361
  499MOL0     H67326   2.000   3.155   2.442  2.0411 -0.3896 -0.7905
  499MOL0     H67327   1.887   3.284   2.490  0.9283 -0.0898  1.8519
  499MOL0     H67328   1.951   3.276   2.329 -2.4750 -0.6631  1.3775
  499MOL0     H67329   1.736   3.757   2.517  0.8138 -1.5364  1.3043
  499MOL0     H67330   1.518   3.841   2.481 -1.5087  0.6272  0.0931
  499MOL0     H67331   1.346   3.757   2.166 -0.3602  1.7877  1.3504
  499MOL0     H67332   1.260   3.606   2.221  0.7034 -0.1760 -1.7367
  499MOL0     H67333   1.078   3.718   2.183 -0.9281  1.4547 -0.0348
  499MOL0     H67334   1.097   3.777   2.337 -1.1768 -0.2262 -0.2595
  499MOL0     H67335   1.193   3.926   2.083  0.9673 -3.0506  0.4917
  499MOL0     H67336   1.189   3.991   2.251 -1.6097  3.3918 -1.5861
  499MOL0     H67337   0.948   3.901   2.117  2.2184  0.5645 -3.1403
  499MOL0     H67338   0.956   3.974   2.275  0.6422  0.4685 -0.0193
  499MOL0     H67339   0.999   4.099   2.014  0.9999  0.0907 -0.4102
  499MOL0     H67340   1.079   4.172   2.145 -0.7373 -0.3831 -1.3336
  499MOL0     H67341   0.782   4.115   2.142  0.1362  0.7253 -2.4348
  499MOL0     H67342   0.848   4.174   2.279 -2.2690 -3.8872 -0.7262
  499MOL0     H67343   0.831   4.384   2.208 -1.5581 -2.4276  1.2481
  499MOL0     H67344   0.715   4.302   2.116 -1.0542 -0.5592  1.8874
  499MOL0     H67345   0.845   4.308   1.912 -2.3884 -1.5157  1.2920
  499MOL0     H67346   0.990   4.361   1.992  0.0925  1.4917  0.3622
  499MOL0     H67347   1.422   3.488   2.269  2.5658 -1.5798 -2.1724
  499MOL0     H67348   1.647   3.400   2.280  0.9350  0.0663  0.2788
  499MOL0     H67349   2.183   3.670   2.573 -1.5107 -0.0458  1.7243
  499MOL0     H67350   2.402   3.553   2.610  1.4429 -1.6947 -2.1930
  499MOL0     H67351   4.205   2.917   2.092  3.1455 -0.8463  0.2009
  499MOL0     H67352   4.441   2.903   2.043  2.0769 -0.7570 -2.0375
  499MOL0     H67353   4.822   2.886   1.865 -0.8331 -0.1457  0.0516
  499MOL0     H67354   5.046   2.866   1.762 -0.4185  0.2408  1.8639
  499MOL0     H67355   5.173   2.881   1.525 -0.2853 -0.5730 -0.8846
  499MOL0     H67356   5.225   2.825   1.684  3.8115 -2.4325 -1.0675
  499MOL0     H67357   5.366   2.651   1.617 -4.8155 -0.6891  0.6868
  499MOL0     H67358   5.415   2.809   1.559 -1.6239  1.8194  1.4134
  499MOL0     H67359   5.266   2.727   1.340 -1.6135 -0.2333  0.2315
  499MOL0     H67360   5.294   2.579   1.415 -2.9759  1.3752  1.3917
  499MOL0     H67361   5.534   2.766   1.356  3.1817 -1.2068 -4.0115
  499MOL0     H67362   5.481   2.645   1.239 -1.8929  1.9250 -0.7068
  499MOL0     H67363   5.703   2.433   1.515  0.2387 -0.3743 -1.0836
  499MOL0     H67364   4.873   2.587   1.477 -1.9528 -1.4284  1.7095
  499MOL0     H67365   4.658   2.637   1.564 -0.5887 -3.2931  2.4890
  500MOL0     O67366   6.146   7.326   6.762  0.1544  0.0721  0.0185
  500MOL0     C67367   6.187   7.421   6.691 -0.0727  0.2636 -0.1537
  500MOL0     O67368   6.126   7.535   6.663  0.2287  0.3287  0.4931
  500MOL0     C67369   6.002   7.564   6.713 -0.1071 -0.6691 -0.3432
  500MOL0     C67370   5.897   7.552   6.634  1.0927 -0.5559  0.1545
  500MOL0     C67371   5.765   7.561   6.680 -0.8188  0.5237  0.3779
  500MOL0     C67372   5.737   7.600   6.808  0.4838  1.0236 -0.4949
  500MOL0     O67373   5.605   7.635   6.844 -0.1318 -0.5869 -0.3389
  500MOL0     C67374   5.588   7.675   6.984  0.4188  0.0495 -0.5149
  500MOL0     C67375   5.445   7.719   7.009 -0.2032 -0.0856  0.5075
  500MOL0     C67376   5.348   7.610   7.060 -0.4890 -0.0660  0.3902
  500MOL0     C67377   5.207   7.639   7.021  0.2155 -0.3368  0.6154
  500MOL0     C67378   5.105   7.553   7.088 -0.3801  0.8382  0.2976
  500MOL0     C67379   4.964   7.593   7.055 -0.4417  0.1254  0.6813
  500MOL0     C67380   4.869   7.485   7.100 -0.5706  0.1502 -0.5244
  500MOL0     C67381   4.739   7.556   7.106  0.9053  0.8053 -0.2324
  500MOL0     N67382   4.636   7.465   7.165 -0.4237 -0.8755  0.3550
  500MOL0     C67383   4.580   7.360   7.102 -0.6017 -0.9636  0.3593
  500MOL0     C67384   4.499   7.307   7.194  0.3980 -0.8798  0.1436
  500MOL0     C67385   4.432   7.174   7.165 -0.1979 -0.4005 -0.3908
  500MOL0     C67386   4.295   7.183   7.099  0.7768 -0.0110  0.6524
  500MOL0     C67387   4.196   7.260   7.190 -0.2531  0.8854  0.0682
  500MOL0     C67388   4.057   7.261   7.117  0.9627 -0.9077  0.2630
  500MOL0     O67389   3.966   7.344   7.186 -0.5058 -0.0806 -0.3764
  500MOL0     C67390   3.843   7.370   7.131  1.0891  0.0773 -0.1210
  500MOL0     C67391   3.769   7.482   7.189 -0.0795  0.2098  0.3291
  500MOL0     C67392   3.634   7.510   7.144 -0.4625  0.1335  0.2920
  500MOL0     C67393   3.566   7.630   7.213 -0.3815  0.7193  0.3677
  500MOL0     C67394   3.576   7.434   7.038 -0.3411  0.1761 -0.0733
  500MOL0     C67395   3.439   7.448   6.991  0.7615 -0.1864  0.1178
  500MOL0     O67396   3.412   7.458   6.856  0.0630  0.0935 -0.2946
  500MOL0     C67397   3.289   7.480   6.804  0.6413  0.7642 -0.4027
  500MOL0     C67398   3.188   7.386   6.832  0.3134 -0.0048  0.8099
  500MOL0     C67399   3.058   7.391   6.781 -0.2893 -0.2778  0.7278
  500MOL0     C67400   3.029   7.495   6.685  0.0054 -0.8228 -0.5878
  500MOL0     O67401   2.899   7.486   6.628 -0.1944  0.1439  0.0905
  500MOL0     C67402   2.888   7.546   6.496 -0.0969 -0.8154 -0.8756
  500MOL0     C67403   2.760   7.509   6.416 -0.4478  0.2351 -0.9950
  500MOL0     C67404   2.630   7.568   6.473 -0.2572 -0.5017 -0.6814
  500MOL0     C67405   2.509   7.526   6.393  0.6051 -0.4650  0.7259
  500MOL0     C67406   2.395   7.630   6.398  0.1836 -0.7271  0.5590
  500MOL0     C67407   2.258   7.564   6.362 -0.7680 -0.6796 -0.7352
  500MOL0     C67408   2.252   7.535   6.222 -0.6823 -0.4856 -0.0013
  500MOL0     C67409   2.106   7.518   6.177  0.1873 -0.0369  0.3970
  500MOL0    Cl67410   2.022   7.678   6.173 -0.5526  0.3205  0.4351
  500MOL0     C67411   3.129   7.587   6.659 -0.1358 -0.8512 -0.4009
  500MOL0     C67412   3.253   7.584   6.719 -0.0650 -0.2103  0.4797
  500MOL0     O67413   3.356   7.467   7.074  0.2205 -0.7480 -0.6114
  500MOL0     C67414   3.645   7.328   6.986 -0.4387  0.1617 -0.3848
  500MOL0     C67415   3.773   7.294   7.039  0.1580  0.4662 -0.1710
  500MOL0     N67416   4.497   7.382   7.313  0.1295  0.5610  0.1144
  500MOL0     N67417   4.584   7.480   7.287  0.3603  0.7710 -0.0477
  500MOL0     C67418   5.848   7.617   6.899 -0.6123  0.1065  0.8520
  500MOL0     C67419   5.975   7.593   6.850  0.0197  0.2629 -0.5683
  500MOL0     C67420   6.317   7.394   6.624 -0.0635  0.6134 -0.0984
  500MOL0     C67421   6.369   7.261   6.611  0.6390  0.7867  0.3034
  500MOL0     C67422   6.485   7.238   6.531 -0.3542  0.1012 -0.6047
  500MOL0     C67423   6.565   7.340   6.498  0.3673 -1.2898  0.5799
  500MOL0     O67424   6.691   7.310   6.449 -0.1968 -0.0729 -0.7913
  500MOL0     C67425   6.778   7.408   6.411  0.0165 -0.2195 -0.1002
  500MOL0     C67426   6.907   7.336   6.372 -0.3235 -0.9564  0.1608
  500MOL0     C67427   6.993   7.416   6.273 -0.1161  0.7223 -0.7731
  500MOL0     C67428   6.947   7.407   6.131  0.1634  0.3939  0.5184
  500MOL0     C67429   7.025   7.480   6.029  0.0706  0.2891  0.0495
  500MOL0     C67430   7.100   7.532   5.952  0.7135 -0.8281 -0.0419
  500MOL0     C67431   6.520   7.473   6.524  0.8111 -0.2164  0.0395
  500MOL0     C67432   6.399   7.499   6.581 -0.6344  0.3467 -0.5097
  500MOL0     H67433   5.912   7.534   6.528 -1.4872 -0.9081 -0.2081
  500MOL0     H67434   5.691   7.557   6.600  0.8382  1.1486 -1.2543
  500MOL0     H67435   5.618   7.602   7.060 -1.3940  0.1139  0.3247
  500MOL0     H67436   5.648   7.763   7.011  1.8414 -0.8564 -0.6214
  500MOL0     H67437   5.445   7.802   7.081  0.0426  1.6832 -1.4296
  500MOL0     H67438   5.416   7.760   6.913  0.1566 -1.4678 -0.2171
  500MOL0     H67439   5.377   7.514   7.016  0.2840  0.9913 -1.5560
  500MOL0     H67440   5.357   7.603   7.168 -2.6425 -3.3079  0.4891
  500MOL0     H67441   5.184   7.745   7.036  0.2130 -0.3066  0.4033
  500MOL0     H67442   5.200   7.618   6.914 -0.2903 -1.0157  0.7754
  500MOL0     H67443   5.126   7.451   7.057  0.6067  1.4439 -1.0974
  500MOL0     H67444   5.124   7.564   7.196  0.3184 -0.9863  0.3904
  500MOL0     H67445   4.945   7.694   7.092  2.5970  0.1852  2.3588
  500MOL0     H67446   4.965   7.592   6.946  0.4590 -0.4199  0.6917
  500MOL0     H67447   4.866   7.395   7.038  0.9150  0.6832 -1.4099
  500MOL0     H67448   4.892   7.458   7.204 -1.0505  0.4821 -0.3279
  500MOL0     H67449   4.701   7.598   7.012 -0.2345  0.0334 -0.1353
  500MOL0     H67450   4.753   7.637   7.179  1.9746 -0.8476  1.5050
  500MOL0     H67451   4.601   7.321   7.002 -1.0855 -1.2532  0.3668
  500MOL0     H67452   4.492   7.113   7.096  0.7183 -0.6349  0.5944
  500MOL0     H67453   4.430   7.117   7.258 -1.7408 -0.7098 -0.5891
  500MOL0     H67454   4.268   7.077   7.095 -0.8308  0.2767  2.5075
  500MOL0     H67455   4.297   7.227   6.999 -0.8497 -2.1279 -0.4039
  500MOL0     H67456   4.226   7.364   7.208 -3.3768  1.8543  0.2890
  500MOL0     H67457   4.173   7.217   7.287 -0.7102 -0.7762 -0.7443
  500MOL0     H67458   4.021   7.159   7.100 -0.7577 -0.2060 -0.4445
  500MOL0     H67459   4.067   7.298   7.015 -3.0269 -2.1752 -0.7553
  500MOL0     H67460   3.810   7.535   7.274  1.3961  1.4101 -1.0654
  500MOL0     H67461   3.484   7.676   7.157 -0.4762  0.6378  0.4409
  500MOL0     H67462   3.556   7.600   7.317  1.4534 -0.0626  0.3456
  500MOL0     H67463   3.640   7.710   7.209 -0.9791  1.3796  1.9121
  500MOL0     H67464   3.227   7.297   6.881  0.9447 -0.6124 -0.7324
  500MOL0     H67465   2.984   7.313   6.798  0.7641 -1.1065  1.6379
  500MOL0     H67466   2.893   7.654   6.512  0.1477 -1.1849  2.0827
  500MOL0     H67467   2.976   7.511   6.441 -0.9343  0.4497 -3.1048
  500MOL0     H67468   2.771   7.536   6.310  2.2115 -1.0347 -1.1341
  500MOL0     H67469   2.746   7.401   6.429  0.0553  0.3490  0.8457
  500MOL0     H67470   2.638   7.677   6.481  1.3940 -0.7127  1.3610
  500MOL0     H67471   2.623   7.536   6.577 -0.2608  0.7360 -0.2788
  500MOL0     H67472   2.533   7.528   6.286 -0.8887 -3.0971  0.2522
  500MOL0     H67473   2.475   7.427   6.425  0.5324 -0.8230 -0.4129
  500MOL0     H67474   2.410   7.720   6.338 -3.5577 -0.4805 -0.2581
  500MOL0     H67475   2.396   7.667   6.501  2.1994 -0.6624  0.5568
  500MOL0     H67476   2.257   7.466   6.411  0.7878 -0.9804 -1.2366
  500MOL0     H67477   2.180   7.635   6.391 -0.7990 -1.2385  0.6237
  500MOL0     H67478   2.311   7.444   6.209 -0.8755 -0.7492  0.8886
  500MOL0     H67479   2.298   7.613   6.161  1.4397 -1.7120 -0.0516
  500MOL0     H67480   2.054   7.443   6.238 -0.8779 -0.1620 -0.6500
  500MOL0     H67481   2.110   7.478   6.075  2.5749  0.9095  0.0600
  500MOL0     H67482   3.110   7.663   6.584  0.1194 -1.5085 -1.1295
  500MOL0     H67483   3.339   7.645   6.691  0.7983 -1.2906  0.7010
  500MOL0     H67484   3.601   7.258   6.915 -4.3077  0.4906  1.4660
  500MOL0     H67485   3.820   7.203   7.005 -0.7958 -0.2168  0.3076
  500MOL0     H67486   5.838   7.650   7.002  1.0018 -1.4366  1.5495
  500MOL0     H67487   6.066   7.582   6.909  0.3845 -3.5250 -1.5256
  500MOL0     H67488   6.308   7.180   6.649  1.6183  0.7401  1.8891
  500MOL0     H67489   6.516   7.134   6.526  0.2785  0.3042 -0.9856
  500MOL0     H67490   6.749   7.475   6.330 -1.2895 -1.5211 -0.7662
  500MOL0     H67491   6.805   7.480   6.489  3.1006  0.4906 -1.6916
  500MOL0     H67492   6.889   7.240   6.323 -0.2952 -0.0431 -1.7566
  500MOL0     H67493   6.962   7.309   6.462  3.0119  2.9150 -0.4497
  500MOL0     H67494   7.094   7.374   6.272 -0.3603  0.1295 -2.0008
  500MOL0     H67495   7.006   7.521   6.303  0.1564  0.9742 -1.7323
  500MOL0     H67496   6.846   7.447   6.122  0.2424  0.1612 -2.1677
  500MOL0     H67497   6.944   7.306   6.089 -0.9393  1.4271 -2.0943
  500MOL0     H67498   7.150   7.601   5.888  0.0041 -0.2312  0.0316
  500MOL0     H67499   6.573   7.566   6.504 -0.5467  0.5812 -0.0065
  500MOL0     H67500   6.362   7.596   6.615  0.7958  1.1463 -1.1338
  501MOL0     O67501   7.216   7.556   4.266  0.2862 -0.0986  0.0958
  501MOL0     C67502   7.249   7.665   4.224  0.6274  0.3678 -0.4658
  501MOL0     O67503   7.174   7.757   4.153  1.0035  0.3418 -0.4766
  501MOL0     C67504   7.031   7.755   4.156 -0.9219  0.3400  0.0366
  501MOL0     C67505   6.947   7.696   4.256  0.1443 -0.0508  0.1591
  501MOL0     C67506   6.809   7.717   4.254  0.9520 -0.0994  0.6366
  501MOL0     C67507   6.753   7.795   4.152 -0.5196 -0.0764 -0.0034
  501MOL0     O67508   6.616   7.810   4.155 -0.9589  0.4955 -0.0376
  501MOL0     C67509   6.553   7.849   4.032  0.0970  0.6825 -0.1263
  501MOL0     C67510   6.401   7.813   4.056  0.2996  0.2605 -0.0975
  501MOL0     C67511   6.376   7.665   4.062  0.2001 -0.4467  0.9935
  501MOL0     C67512   6.222   7.631   4.076 -0.5589  0.0887  0.0650
  501MOL0     C67513   6.187   7.480   4.044 -0.6115  0.0013 -0.3376
  501MOL0     C67514   6.041   7.452   4.065  0.3303  0.0670  0.0847
  501MOL0     C67515   6.004   7.315   4.015 -0.9998  0.4342 -0.6092
  501MOL0     C67516   5.855   7.299   4.009  0.3798  0.5838 -0.4615
  501MOL0     N67517   5.799   7.356   3.884 -0.0796  1.1587  0.2220
  501MOL0     C67518   5.819   7.283   3.770 -0.1595 -0.3893 -0.5504
  501MOL0     C67519   5.760   7.348   3.669 -0.6496  0.4272  0.6575
  501MOL0     C67520   5.754   7.297   3.528 -0.5414  0.2667 -0.6150
  501MOL0     C67521   5.866   7.361   3.444  0.4397 -0.4622  0.2302
  501MOL0     C67522   5.829   7.359   3.296 -0.2834 -0.3679 -0.8650
  501MOL0     C67523   5.907   7.457   3.209 -0.7851 -0.3183 -0.4382
  501MOL0     O67524   5.906   7.583   3.285  0.9263  0.2656  0.1781
  501MOL0     C67525   5.806   7.672   3.261  0.2674  0.9430 -0.3837
  501MOL0     C67526   5.688   7.670   3.337 -0.5858  0.9554 -0.0317
  501MOL0     C67527   5.590   7.765   3.320  0.7834  0.0507 -0.1108
  501MOL0     C67528   5.467   7.758   3.403 -0.5437  0.1334 -0.4171
  501MOL0     C67529   5.601   7.867   3.219  0.7177 -0.1873  0.2746
  501MOL0     C67530   5.510   7.982   3.198  0.5959  0.8178 -0.6315
  501MOL0     O67531   5.520   8.053   3.087 -0.3886  0.2270  0.4605
  501MOL0     C67532   5.454   8.159   3.053  0.6118  0.2239 -0.1699
  501MOL0     C67533   5.521   8.232   2.952 -0.0265  0.1521  0.9875
  501MOL0     C67534   5.465   8.351   2.904 -0.2049  0.2074 -0.1708
  501MOL0     C67535   5.332   8.387   2.940 -0.3437 -0.3865 -0.3340
  501MOL0     O67536   5.292   8.503   2.884 -0.3835 -0.2648  0.4305
  501MOL0     C67537   5.155   8.535   2.871 -0.4338  0.4698  0.2152
  501MOL0     C67538   5.148   8.647   2.765 -0.1223  0.6845  0.5046
  501MOL0     C67539   5.004   8.667   2.714  0.2102 -0.0045 -0.0999
  501MOL0     C67540   5.003   8.801   2.649 -0.5625 -0.4412 -0.8306
  501MOL0     C67541   4.862   8.851   2.606  0.0553 -0.7286 -0.9924
  501MOL0     C67542   4.879   8.969   2.501  0.0589  0.0529 -0.4857
  501MOL0     C67543   4.754   9.068   2.509 -0.6212 -0.1692  0.8982
  501MOL0     C67544   4.765   9.209   2.446 -0.4912  1.0260 -0.0161
  501MOL0    Cl67545   4.914   9.291   2.519  0.0297  0.0291 -0.1751
  501MOL0     C67546   5.267   8.317   3.036  1.1571 -0.0670  0.1860
  501MOL0     C67547   5.330   8.204   3.097  0.1992 -0.4109 -0.6033
  501MOL0     O67548   5.442   8.018   3.289  0.1875 -0.3064  0.1636
  501MOL0     C67549   5.712   7.860   3.140 -0.1848 -0.9009 -0.1201
  501MOL0     C67550   5.818   7.769   3.162  0.0339 -0.4275  0.6529
  501MOL0     N67551   5.694   7.459   3.719 -0.1763 -0.3278  0.1087
  501MOL0     N67552   5.734   7.463   3.838 -0.2631  0.7895 -0.2451
  501MOL0     C67553   6.837   7.839   4.049 -1.0363  0.6371  0.3444
  501MOL0     C67554   6.971   7.820   4.045 -0.4304  0.0582 -0.1839
  501MOL0     C67555   7.387   7.704   4.261  0.3567 -0.0809 -0.3676
  501MOL0     C67556   7.452   7.795   4.178  0.5163  0.6443 -0.8918
  501MOL0     C67557   7.577   7.835   4.215  0.0645 -0.1955  0.6062
  501MOL0     C67558   7.644   7.785   4.328 -0.1082 -0.0230 -0.9266
  501MOL0     O67559   7.772   7.815   4.354 -0.4230  0.2153 -0.1185
  501MOL0     C67560   7.872   7.728   4.292  0.0554  0.6430  0.5332
  501MOL0     C67561   8.010   7.780   4.340  0.4614  0.2836  0.2985
  501MOL0     C67562   8.123   7.699   4.285  0.8526 -0.4987  0.2059
  501MOL0     C67563   8.253   7.749   4.363  0.2041 -0.4686  0.1529
  501MOL0     C67564   8.307   7.876   4.311  0.4308  0.4945  0.3919
  501MOL0     C67565   8.355   7.984   4.270 -0.4053  1.0034 -0.6998
  501MOL0     C67566   7.576   7.693   4.411 -0.1796  0.3796 -0.3778
  501MOL0     C67567   7.450   7.660   4.374 -0.4113 -0.0324 -0.5952
  501MOL0     H67568   6.988   7.647   4.344  1.7617 -0.1292 -0.5887
  501MOL0     H67569   6.746   7.679   4.334 -0.0813  0.2664  0.0131
  501MOL0     H67570   6.562   7.958   4.019  1.0031  0.8734  1.8064
  501MOL0     H67571   6.595   7.803   3.942  4.2686  0.1253  1.8682
  501MOL0     H67572   6.372   7.860   4.150 -2.5351  0.0418 -0.7675
  501MOL0     H67573   6.353   7.856   3.968 -0.2554 -1.0628 -0.4705
  501MOL0     H67574   6.428   7.618   3.978  1.4382  1.4786  0.6375
  501MOL0     H67575   6.424   7.624   4.152  1.0230  2.3372  1.9111
  501MOL0     H67576   6.194   7.661   4.177 -0.1197 -0.0508  0.2315
  501MOL0     H67577   6.170   7.699   4.008 -0.4065  1.1541  0.9862
  501MOL0     H67578   6.220   7.457   3.942 -0.2155 -1.3415  0.0647
  501MOL0     H67579   6.247   7.417   4.111 -0.9446 -1.1107 -1.0641
  501MOL0     H67580   6.018   7.469   4.170 -2.2676 -3.6150  0.2770
  501MOL0     H67581   5.977   7.525   4.012 -2.8435 -3.3199 -1.2205
  501MOL0     H67582   6.060   7.289   3.924 -2.0445 -1.5956 -0.7472
  501MOL0     H67583   6.039   7.240   4.086 -2.9836  0.2678  0.2602
  501MOL0     H67584   5.809   7.342   4.098  0.7554 -1.1416  0.6278
  501MOL0     H67585   5.842   7.190   4.004  1.1579  0.5200 -2.1357
  501MOL0     H67586   5.880   7.193   3.766  0.9390  0.3154 -0.1231
  501MOL0     H67587   5.759   7.188   3.517 -2.3363  0.1268 -0.2391
  501MOL0     H67588   5.655   7.328   3.494 -0.1067  1.0175 -1.2269
  501MOL0     H67589   5.955   7.299   3.460  1.2403  1.1542  2.6909
  501MOL0     H67590   5.886   7.462   3.480  1.4339  0.2270 -2.1151
  501MOL0     H67591   5.722   7.381   3.287 -0.4581 -0.8012  0.0189
  501MOL0     H67592   5.848   7.258   3.259 -1.5184 -0.9624  0.0210
  501MOL0     H67593   5.872   7.463   3.106 -1.1916  2.0277 -0.2219
  501MOL0     H67594   6.013   7.428   3.214  0.3699  3.4902  0.7809
  501MOL0     H67595   5.678   7.592   3.412  0.3646  0.5140 -0.3446
  501MOL0     H67596   5.374   7.783   3.351 -0.8068  4.5087  1.6949
  501MOL0     H67597   5.456   7.652   3.429 -1.9829  0.7679  1.7518
  501MOL0     H67598   5.491   7.813   3.494  1.4152  0.5307 -1.1038
  501MOL0     H67599   5.617   8.190   2.927 -0.2174  1.4387 -2.4197
  501MOL0     H67600   5.530   8.410   2.841  3.3336 -2.5535  0.5368
  501MOL0     H67601   5.099   8.451   2.829 -0.5720  1.1183 -0.9559
  501MOL0     H67602   5.116   8.573   2.966  1.7042  1.6827  0.6837
  501MOL0     H67603   5.181   8.739   2.815  1.1418 -0.5071  1.9517
  501MOL0     H67604   5.220   8.628   2.685 -1.0422 -0.3838 -0.0907
  501MOL0     H67605   4.944   8.654   2.805  1.5148 -2.2139  0.5114
  501MOL0     H67606   4.971   8.585   2.649  0.8431 -1.2998  1.1478
  501MOL0     H67607   5.039   8.878   2.717 -0.1746 -1.7368  0.4970
  501MOL0     H67608   5.070   8.806   2.563  2.9750 -2.9393  1.4548
  501MOL0     H67609   4.802   8.889   2.690  0.2595 -2.0986 -0.1982
  501MOL0     H67610   4.809   8.766   2.562 -1.8746  0.8190 -1.8638
  501MOL0     H67611   4.965   9.026   2.535 -0.7143  0.5698  0.6485
  501MOL0     H67612   4.903   8.926   2.403 -0.6178  1.8969 -1.5243
  501MOL0     H67613   4.740   9.074   2.618  1.8022 -2.0050  1.4142
  501MOL0     H67614   4.667   9.014   2.471  1.2684 -2.2748 -0.6389
  501MOL0     H67615   4.682   9.276   2.468 -0.2601  0.6140  2.3163
  501MOL0     H67616   4.776   9.192   2.338  1.8788 -0.9022  0.4454
  501MOL0     H67617   5.167   8.346   3.067  0.1819 -3.3639  0.5070
  501MOL0     H67618   5.272   8.156   3.175 -0.2685 -2.4871 -2.1328
  501MOL0     H67619   5.725   7.932   3.059  2.5948 -0.7240  0.3802
  501MOL0     H67620   5.909   7.777   3.104 -0.3598  0.6587  0.1750
  501MOL0     H67621   6.785   7.891   3.969 -2.3047 -2.0772 -0.7511
  501MOL0     H67622   7.024   7.872   3.966  1.7884 -0.4651  0.8999
  501MOL0     H67623   7.403   7.832   4.089 -1.5952 -0.9189 -0.4581
  501MOL0     H67624   7.629   7.909   4.155 -0.9599  1.4525  1.6668
  501MOL0     H67625   7.861   7.625   4.328 -0.6320  0.8072  0.8138
  501MOL0     H67626   7.888   7.726   4.184  1.4544 -0.5270  0.7335
  501MOL0     H67627   8.002   7.765   4.448  0.3150 -1.2408  0.1002
  501MOL0     H67628   8.008   7.884   4.307 -0.4739 -0.0878 -0.8672
  501MOL0     H67629   8.147   7.711   4.179 -3.0512 -1.0102 -0.9017
  501MOL0     H67630   8.094   7.594   4.301 -0.1374 -0.6350 -2.1439
  501MOL0     H67631   8.327   7.674   4.335  0.2258 -0.8827  1.2666
  501MOL0     H67632   8.250   7.746   4.473  1.2285 -1.8263  0.1763
  501MOL0     H67633   8.398   8.076   4.236 -1.5011  1.3524 -1.2075
  501MOL0     H67634   7.626   7.646   4.495  1.2082  2.3740 -0.0192
  501MOL0     H67635   7.401   7.582   4.431  1.1134 -0.8633 -0.3777
  502MOL0     O67636   3.502   1.161   9.990 -0.3146 -0.6914  0.3377
  502MOL0     C67637   3.482   1.177  10.108 -0.1736  1.0548 -0.3147
  502MOL0     O67638   3.364   1.212  10.162 -0.1525 -0.0718  0.1755
  502MOL0     C67639   3.265   1.263  10.081 -0.0907 -0.4820 -0.1517
  502MOL0     C67640   3.183   1.179  10.007 -0.3626  0.0623 -0.0718
  502MOL0     C67641   3.069   1.232   9.938  0.2297  0.1531 -0.2531
  502MOL0     C67642   3.055   1.374   9.947 -0.7784  0.8457 -0.4826
  502MOL0     O67643   2.961   1.442   9.877 -0.0809 -0.7831  0.4376
  502MOL0     C67644   2.852   1.372   9.809 -0.2459 -1.0032 -0.0407
  502MOL0     C67645   2.741   1.463   9.749 -0.3770  0.3005 -0.1459
  502MOL0     C67646   2.675   1.553   9.848  0.0178 -0.1458  0.1006
  502MOL0     C67647   2.567   1.640   9.792 -0.2923 -0.3329  0.3394
  502MOL0     C67648   2.510   1.729   9.907 -0.2803  0.1209 -0.1402
  502MOL0     C67649   2.381   1.803   9.861  0.0644  0.2888  0.7567
  502MOL0     C67650   2.259   1.712   9.865 -0.4091 -0.7850  0.0742
  502MOL0     C67651   2.151   1.803   9.797  0.9505 -0.5151  0.1065
  502MOL0     N67652   2.010   1.748   9.822 -0.3620 -0.4791 -0.4152
  502MOL0     C67653   1.915   1.815   9.881 -0.9141  0.5055 -0.2790
  502MOL0     C67654   1.806   1.739   9.887 -0.6807  0.3987 -0.3530
  502MOL0     C67655   1.687   1.764   9.975 -0.7817 -0.1067  0.6907
  502MOL0     C67656   1.587   1.847   9.889 -0.4139 -0.2111 -0.2065
  502MOL0     C67657   1.517   1.763   9.781 -0.8143 -0.2801 -0.1350
  502MOL0     C67658   1.409   1.843   9.705 -0.3142  0.3663 -0.6465
  502MOL0     O67659   1.370   1.766   9.593 -0.4069 -0.2876  0.3193
  502MOL0     C67660   1.245   1.787   9.535 -0.0134 -0.3019  0.3484
  502MOL0     C67661   1.216   1.713   9.425 -0.1892 -0.1595  0.1875
  502MOL0     C67662   1.095   1.722   9.361 -0.2284  0.8017  0.0984
  502MOL0     C67663   1.081   1.665   9.227 -0.2827  0.3915  0.2934
  502MOL0     C67664   0.991   1.796   9.425 -0.7059 -0.4205 -0.0673
  502MOL0     C67665   0.855   1.812   9.368 -0.6039 -0.7077 -0.1213
  502MOL0     O67666   0.801   1.705   9.317  0.0813 -0.1092  0.4782
  502MOL0     C67667   0.691   1.728   9.234 -0.7252  0.0646  0.4717
  502MOL0     C67668   0.576   1.784   9.286  0.5974  0.6304 -0.0659
  502MOL0     C67669   0.459   1.789   9.204 -0.1257 -0.2883 -1.2656
  502MOL0     C67670   0.459   1.747   9.070 -0.7257 -0.2633  0.3902
  502MOL0     O67671   0.356   1.753   8.983  0.0774 -0.2565  0.4673
  502MOL0     C67672   0.240   1.695   9.029  0.2412 -0.2678 -0.4671
  502MOL0     C67673   0.150   1.663   8.911  0.0472 -0.9271 -0.6446
  502MOL0     C67674   0.014   1.597   8.957 -0.6176 -0.1087 -0.2334
  502MOL0     C67675  -0.069   1.547   8.842 -0.5052 -0.0047 -0.3259
  502MOL0     C67676  -0.207   1.514   8.891 -0.0460  0.6149 -0.2227
  502MOL0     C67677  -0.285   1.429   8.793 -0.0520  0.2876 -0.5408
  502MOL0     C67678  -0.421   1.387   8.847 -0.4315  0.1350  0.1680
  502MOL0     C67679  -0.511   1.297   8.749  0.0536 -0.0482 -0.1312
  502MOL0    Cl67680  -0.642   1.241   8.857  0.2741 -0.0393  0.0916
  502MOL0     C67681   0.585   1.714   9.016  0.5633  0.3530  0.0675
  502MOL0     C67682   0.697   1.710   9.094  0.3130 -0.0746  0.5481
  502MOL0     O67683   0.809   1.930   9.362 -0.4085 -0.4258  0.3701
  502MOL0     C67684   1.019   1.867   9.538  0.3554 -0.5166  0.5829
  502MOL0     C67685   1.147   1.866   9.597 -0.2342  0.0832 -0.3866
  502MOL0     N67686   1.843   1.622   9.824 -0.0798  0.6156 -0.6095
  502MOL0     N67687   1.962   1.632   9.787 -0.0419 -0.1762  0.3706
  502MOL0     C67688   3.143   1.456  10.016 -0.3072 -0.4869 -1.0849
  502MOL0     C67689   3.239   1.395  10.090  0.0110 -0.2050  0.0481
  502MOL0     C67690   3.574   1.129  10.213 -0.1859  0.3327  0.3961
  502MOL0     C67691   3.700   1.080  10.170 -0.2000 -0.2216 -0.5596
  502MOL0     C67692   3.798   1.038  10.262 -0.1601  0.3284 -0.3150
  502MOL0     C67693   3.766   1.032  10.405 -0.2777 -0.3535  1.3645
  502MOL0     O67694   3.858   0.980  10.494 -0.3289 -0.5594 -0.5563
  502MOL0     C67695   3.990   0.934  10.457 -0.9020  0.4255 -0.5719
  502MOL0     C67696   3.967   0.787  10.413 -0.1085 -1.0306 -0.4865
  502MOL0     C67697   3.912   0.700  10.521  0.3440  0.6919 -0.0941
  502MOL0     C67698   3.856   0.568  10.471  0.3131  0.1940  0.0644
  502MOL0     C67699   3.964   0.479  10.425  0.1562  0.2127 -0.5772
  502MOL0     C67700   4.053   0.398  10.394 -0.6613 -0.3519 -0.6432
  502MOL0     C67701   3.643   1.085  10.446  0.6238 -0.6290 -0.2977
  502MOL0     C67702   3.545   1.137  10.354 -0.8587  0.2708  0.6572
  502MOL0     H67703   3.211   1.076   9.988  0.6696  0.9883 -4.6382
  502MOL0     H67704   2.997   1.174   9.882 -2.5971  2.0830  1.0844
  502MOL0     H67705   2.895   1.315   9.726 -0.7687  2.0674 -2.6041
  502MOL0     H67706   2.808   1.303   9.882  1.1729 -0.5631  1.2752
  502MOL0     H67707   2.779   1.510   9.659  1.7980  1.3358  1.2270
  502MOL0     H67708   2.655   1.399   9.723 -0.3954  0.1088  0.3653
  502MOL0     H67709   2.644   1.493   9.934  4.2049 -0.7523  1.4481
  502MOL0     H67710   2.765   1.608   9.879  2.7806 -2.8891 -2.3562
  502MOL0     H67711   2.611   1.696   9.708 -1.8825 -2.9340 -2.4310
  502MOL0     H67712   2.494   1.572   9.749 -2.9030  1.2094  2.0726
  502MOL0     H67713   2.483   1.665   9.992 -0.7205 -0.4972 -0.7397
  502MOL0     H67714   2.584   1.804   9.938 -0.6765  0.4949 -0.0833
  502MOL0     H67715   2.358   1.883   9.931 -1.6304 -0.4723  1.1184
  502MOL0     H67716   2.403   1.850   9.764 -1.4500  0.3141  0.4032
  502MOL0     H67717   2.280   1.625   9.803 -3.0114  0.1717 -2.3784
  502MOL0     H67718   2.228   1.691   9.968 -1.6866 -2.0189 -0.5269
  502MOL0     H67719   2.162   1.794   9.689 -3.0565  2.0300 -0.7239
  502MOL0     H67720   2.154   1.910   9.821  2.3077 -0.1789 -1.3750
  502MOL0     H67721   1.933   1.913   9.924 -0.1808 -0.1501  0.9357
  502MOL0     H67722   1.641   1.667   9.994 -1.0535  0.2453  1.9016
  502MOL0     H67723   1.728   1.809  10.066 -2.1024 -0.8322  1.6840
  502MOL0     H67724   1.645   1.932   9.851  0.1497 -0.3889  0.2286
  502MOL0     H67725   1.515   1.900   9.951  0.1472 -2.5176  2.6828
  502MOL0     H67726   1.473   1.676   9.831 -0.0203  0.5913  2.2611
  502MOL0     H67727   1.586   1.728   9.704 -0.7775 -2.6503  0.8954
  502MOL0     H67728   1.442   1.933   9.653  2.8096 -0.7572 -0.7911
  502MOL0     H67729   1.334   1.862   9.783  0.0537 -4.3191  1.1706
  502MOL0     H67730   1.293   1.662   9.369  2.5306  2.9792  0.7772
  502MOL0     H67731   1.038   1.565   9.234 -0.9821  0.7540  1.5143
  502MOL0     H67732   1.012   1.729   9.171  0.1465 -0.6239 -1.4632
  502MOL0     H67733   1.174   1.664   9.171 -0.2389 -0.3237  0.3670
  502MOL0     H67734   0.571   1.814   9.390 -1.3942  0.3147 -0.0441
  502MOL0     H67735   0.364   1.831   9.234  0.2444 -0.0480 -0.4075
  502MOL0     H67736   0.258   1.599   9.079  1.7473 -0.5814 -1.5376
  502MOL0     H67737   0.183   1.760   9.096  0.4969  2.6540 -2.8417
  502MOL0     H67738   0.129   1.760   8.865 -2.1208 -0.2126  1.6157
  502MOL0     H67739   0.192   1.614   8.823 -1.0095 -0.9341 -1.1573
  502MOL0     H67740  -0.043   1.667   9.019 -0.8370 -1.4069  1.0833
  502MOL0     H67741   0.024   1.504   9.014 -1.6300 -0.5205 -0.7179
  502MOL0     H67742  -0.075   1.624   8.764  0.9789 -2.0527 -2.6200
  502MOL0     H67743  -0.018   1.461   8.798 -0.7595 -1.1252  1.5143
  502MOL0     H67744  -0.275   1.596   8.918 -1.3469 -0.0981 -1.2446
  502MOL0     H67745  -0.190   1.458   8.984  0.8902  0.4253 -0.4971
  502MOL0     H67746  -0.296   1.481   8.697  1.6037 -0.9034 -1.4402
  502MOL0     H67747  -0.229   1.337   8.773 -1.4147 -0.6949  0.0800
  502MOL0     H67748  -0.479   1.467   8.894 -1.6254 -0.1951 -0.6764
  502MOL0     H67749  -0.397   1.325   8.934 -1.2228  0.0743  0.3538
  502MOL0     H67750  -0.448   1.218   8.706  0.3870 -0.2982  0.8023
  502MOL0     H67751  -0.543   1.367   8.671  0.0219 -0.0243 -0.0977
  502MOL0     H67752   0.593   1.691   8.910 -1.3011 -1.1896  0.2208
  502MOL0     H67753   0.790   1.680   9.047 -0.0845 -0.0999 -0.2404
  502MOL0     H67754   0.952   1.930   9.596  0.8543  0.2663  0.3363
  502MOL0     H67755   1.167   1.934   9.679  0.6532  0.7015 -1.0932
  502MOL0     H67756   3.135   1.563  10.027  0.4387 -0.5563  0.3262
  502MOL0     H67757   3.298   1.455  10.157  1.6320 -0.3553 -1.1876
  502MOL0     H67758   3.719   1.072  10.064 -0.0825  1.3220 -0.6695
  502MOL0     H67759   3.897   1.014  10.226  0.2620 -0.1725  1.1010
  502MOL0     H67760   4.039   0.988  10.375  0.7008  1.6145  1.0921
  502MOL0     H67761   4.051   0.952  10.546 -1.6542 -2.0371  0.5348
  502MOL0     H67762   4.064   0.740  10.393 -0.0273 -1.5331  0.9318
  502MOL0     H67763   3.914   0.785  10.318  1.3069  0.0452 -1.3346
  502MOL0     H67764   3.840   0.756  10.582  0.4088  1.5376 -0.7750
  502MOL0     H67765   3.985   0.682  10.600  1.0471  3.6522  0.0331
  502MOL0     H67766   3.785   0.594  10.392 -1.6378 -2.3312  0.8853
  502MOL0     H67767   3.805   0.524  10.556  1.8285  0.1019  0.9655
  502MOL0     H67768   4.132   0.343  10.345  0.3915 -1.8144  2.4369
  502MOL0     H67769   3.621   1.084  10.552  1.3079  0.1424 -0.1365
  502MOL0     H67770   3.449   1.167  10.396 -2.3310 -2.1253 -0.7646
  503MOL0     O67771  10.202   3.410   4.090 -0.1471 -0.0433 -0.0759
  503MOL0     C67772  10.213   3.520   4.028 -1.2058 -0.1325  0.1478
  503MOL0     O67773  10.139   3.562   3.921  0.3794  0.1650 -0.0673
  503MOL0     C67774  10.055   3.481   3.848 -0.1777 -0.2812 -0.3213
  503MOL0     C67775   9.967   3.538   3.760  0.3213 -0.5869 -0.2757
  503MOL0     C67776   9.874   3.457   3.691  0.4780 -0.0105  1.0229
  503MOL0     C67777   9.880   3.307   3.703  0.1362 -0.0260  0.5809
  503MOL0     O67778   9.790   3.225   3.648  0.4023 -0.1426  0.6372
  503MOL0     C67779   9.670   3.281   3.585  0.1842  0.5079 -0.1274
  503MOL0     C67780   9.606   3.166   3.518  0.4324 -0.0885 -0.4016
  503MOL0     C67781   9.490   3.214   3.438 -0.2381 -0.3538 -0.1560
  503MOL0     C67782   9.444   3.095   3.350 -0.2135  0.4842 -0.2936
  503MOL0     C67783   9.323   3.140   3.275 -0.6073 -0.6857  0.5000
  503MOL0     C67784   9.274   3.028   3.188 -0.1983 -0.3084  0.1504
  503MOL0     C67785   9.142   3.067   3.123 -0.2680 -0.5848 -0.3045
  503MOL0     C67786   9.069   2.939   3.085 -0.6678  0.1154 -0.2010
  503MOL0     N67787   8.974   2.967   2.970 -0.3954  0.0069  0.7229
  503MOL0     C67788   9.008   2.945   2.840 -0.4177 -0.0389  0.1695
  503MOL0     C67789   8.887   2.962   2.773 -0.0816 -0.4558  0.6291
  503MOL0     C67790   8.854   2.931   2.628 -0.4186  0.5386 -0.3859
  503MOL0     C67791   8.828   3.059   2.547 -0.0069  0.1216 -0.6133
  503MOL0     C67792   8.796   3.027   2.398 -1.1680 -0.7846  0.4499
  503MOL0     C67793   8.666   2.945   2.390  0.5130  0.4237 -0.6543
  503MOL0     O67794   8.675   2.798   2.414 -0.1136 -0.4086  0.3656
  503MOL0     C67795   8.573   2.714   2.404  0.1266  0.4674 -0.1275
  503MOL0     C67796   8.594   2.581   2.434 -0.1557  0.0602  0.0745
  503MOL0     C67797   8.503   2.481   2.409  0.1526 -0.8637 -0.7241
  503MOL0     C67798   8.545   2.339   2.413  0.9048  0.0794  1.5654
  503MOL0     C67799   8.375   2.524   2.367 -0.0113  1.0780 -0.4668
  503MOL0     C67800   8.265   2.430   2.335  0.0877 -0.3512 -0.3087
  503MOL0     O67801   8.156   2.487   2.275  0.2785  0.2389  0.0137
  503MOL0     C67802   8.044   2.413   2.245 -0.2882 -0.9183 -0.8249
  503MOL0     C67803   7.981   2.336   2.341 -0.0537 -0.0494 -0.1061
  503MOL0     C67804   7.883   2.248   2.304  0.0615  0.9916  0.0399
  503MOL0     C67805   7.838   2.236   2.176 -1.3616 -0.1475  0.7745
  503MOL0     O67806   7.745   2.141   2.139  0.3787  0.1622  0.2579
  503MOL0     C67807   7.629   2.190   2.072 -0.6910  0.1798  0.0393
  503MOL0     C67808   7.520   2.118   2.144 -0.5595 -0.0219 -0.2868
  503MOL0     C67809   7.382   2.140   2.084 -0.0096 -0.2326  0.4147
  503MOL0     C67810   7.273   2.096   2.189  0.6714 -0.2714 -0.0156
  503MOL0     C67811   7.133   2.157   2.161 -0.1825  0.6363  0.8248
  503MOL0     C67812   7.065   2.100   2.038 -0.5231 -0.3665 -0.3318
  503MOL0     C67813   7.003   1.961   2.062  0.0131  0.5292  0.5364
  503MOL0     C67814   6.904   1.920   1.960 -0.1194  0.2877 -0.1058
  503MOL0    Cl67815   6.753   2.024   1.957  0.1239  0.1168  0.0620
  503MOL0     C67816   7.902   2.313   2.077 -1.0627 -0.8479 -0.0528
  503MOL0     C67817   8.002   2.404   2.118 -0.0807  0.3351 -0.4288
  503MOL0     O67818   8.281   2.312   2.360  0.4691 -0.0129 -0.3062
  503MOL0     C67819   8.343   2.660   2.350 -0.3919 -0.0291 -0.1667
  503MOL0     C67820   8.447   2.752   2.371  0.4413  0.4547  0.6651
  503MOL0     N67821   8.790   2.991   2.867  0.2595 -0.6769  0.4460
  503MOL0     N67822   8.843   2.994   2.983 -0.7193 -0.1683 -0.2156
  503MOL0     C67823   9.984   3.253   3.778  0.1000 -0.0974 -0.1323
  503MOL0     C67824  10.072   3.339   3.841 -0.0975  0.5304  1.1047
  503MOL0     C67825  10.324   3.606   4.076  0.2592  0.7997  0.3314
  503MOL0     C67826  10.366   3.718   4.000  0.2528 -0.0237  0.2247
  503MOL0     C67827  10.484   3.787   4.032 -0.2674 -0.7498 -0.2299
  503MOL0     C67828  10.555   3.753   4.150 -0.0609  0.6835 -0.4101
  503MOL0     O67829  10.667   3.823   4.192  0.9509 -0.9088  0.1177
  503MOL0     C67830  10.751   3.860   4.085  0.4552 -0.5004  0.4514
  503MOL0     C67831  10.875   3.945   4.131 -0.8880  0.3046  0.6592
  503MOL0     C67832  10.854   4.099   4.145 -0.3365  0.2444 -0.0033
  503MOL0     C67833  10.987   4.174   4.174 -0.2469 -0.7290  0.1956
  503MOL0     C67834  11.067   4.122   4.285 -0.1971 -0.8605 -0.7112
  503MOL0     C67835  11.132   4.078   4.380  0.7149 -0.2311  0.8440
  503MOL0     C67836  10.499   3.656   4.236  0.3186 -0.3739  0.8233
  503MOL0     C67837  10.383   3.583   4.199  0.4623 -0.2205 -0.0714
  503MOL0     H67838   9.970   3.647   3.759  1.2796 -0.6094 -0.7615
  503MOL0     H67839   9.802   3.508   3.629  0.3923 -1.9997 -0.6340
  503MOL0     H67840   9.617   3.335   3.664  2.3415  1.5590  0.6797
  503MOL0     H67841   9.707   3.353   3.511 -0.2705  1.8803  0.9398
  503MOL0     H67842   9.670   3.113   3.446 -3.1123 -1.1290 -3.0771
  503MOL0     H67843   9.574   3.095   3.594 -0.4646  0.8868  0.1599
  503MOL0     H67844   9.410   3.237   3.509 -0.9659 -3.6144  0.2283
  503MOL0     H67845   9.524   3.300   3.379 -0.3308  1.2723  2.0253
  503MOL0     H67846   9.516   3.059   3.276 -0.0340  1.4420 -0.5997
  503MOL0     H67847   9.413   3.009   3.410 -0.8649  0.6604 -0.3680
  503MOL0     H67848   9.250   3.179   3.346  2.6688  1.9127  2.7227
  503MOL0     H67849   9.359   3.222   3.212  0.9116 -1.5946  0.1303
  503MOL0     H67850   9.349   3.002   3.113  0.0818 -0.2626  0.4144
  503MOL0     H67851   9.255   2.942   3.253 -1.1077 -0.2520 -0.0223
  503MOL0     H67852   9.092   3.145   3.181  1.1443  0.4741 -0.4517
  503MOL0     H67853   9.155   3.122   3.029 -1.2122 -0.2396 -0.2464
  503MOL0     H67854   9.011   2.898   3.168  0.2959 -0.3053  0.2898
  503MOL0     H67855   9.151   2.875   3.051 -1.4421 -1.2178  0.3733
  503MOL0     H67856   9.097   2.906   2.790 -0.1905 -0.7683  1.1210
  503MOL0     H67857   8.947   2.896   2.582  0.1121  0.1694  0.9144
  503MOL0     H67858   8.783   2.848   2.624 -0.4895  0.6315 -1.1361
  503MOL0     H67859   8.918   3.121   2.552  1.5094 -1.6744 -3.2475
  503MOL0     H67860   8.749   3.117   2.595  1.4751  2.2868 -0.6355
  503MOL0     H67861   8.883   2.973   2.360  0.7868  0.6512  2.6005
  503MOL0     H67862   8.796   3.129   2.358  2.0690 -0.7406  0.2642
  503MOL0     H67863   8.608   2.962   2.298 -1.5069 -2.5483 -0.0747
  503MOL0     H67864   8.603   2.980   2.472 -0.8278  0.0327 -1.4827
  503MOL0     H67865   8.689   2.554   2.478 -0.1892  0.0477  0.1410
  503MOL0     H67866   8.499   2.289   2.499 -0.7352  1.3110  1.4524
  503MOL0     H67867   8.509   2.285   2.325 -0.8045  2.2810  0.8417
  503MOL0     H67868   8.654   2.327   2.415  0.9009 -0.7647 -0.8503
  503MOL0     H67869   8.004   2.341   2.447 -2.6113  1.0654  0.4791
  503MOL0     H67870   7.830   2.189   2.378 -0.2839 -0.2516 -1.1637
  503MOL0     H67871   7.616   2.298   2.071 -0.0444  0.3415 -3.0790
  503MOL0     H67872   7.633   2.164   1.966  1.7773 -1.3594  0.4209
  503MOL0     H67873   7.536   2.010   2.137  2.2306  0.1977  1.1315
  503MOL0     H67874   7.530   2.132   2.252  2.3912  1.1869 -0.6438
  503MOL0     H67875   7.370   2.088   1.989  0.8068  0.9919 -0.3924
  503MOL0     H67876   7.382   2.248   2.069 -2.8622 -0.2481 -0.2016
  503MOL0     H67877   7.267   1.987   2.196  1.5059 -0.2526  1.3456
  503MOL0     H67878   7.308   2.130   2.287  1.8587 -0.1995 -0.4409
  503MOL0     H67879   7.130   2.265   2.142 -3.3284  0.3543 -0.9874
  503MOL0     H67880   7.068   2.131   2.245 -1.5010  1.7898  0.1969
  503MOL0     H67881   6.991   2.177   2.016 -0.7228 -0.2941  0.5626
  503MOL0     H67882   7.145   2.103   1.963  0.3009  0.5597  0.5386
  503MOL0     H67883   6.951   1.959   2.158 -0.7802 -2.9323  0.1551
  503MOL0     H67884   7.086   1.893   2.080 -2.1021 -1.8603  1.8716
  503MOL0     H67885   6.860   1.822   1.983 -4.7374  1.2581 -3.4661
  503MOL0     H67886   6.950   1.926   1.861 -1.5249  0.3119 -0.7747
  503MOL0     H67887   7.893   2.298   1.970  2.3612  1.9052 -0.8904
  503MOL0     H67888   8.040   2.466   2.037 -2.3273  0.0112 -1.8251
  503MOL0     H67889   8.244   2.692   2.319 -0.4179  1.1084  1.0471
  503MOL0     H67890   8.424   2.856   2.352 -0.3304  0.6068  2.2736
  503MOL0     H67891  10.000   3.146   3.778 -3.2762 -0.8370  3.4107
  503MOL0     H67892  10.159   3.298   3.891  0.8645  0.4594 -0.5572
  503MOL0     H67893  10.312   3.747   3.910  0.2029 -0.0307  0.2523
  503MOL0     H67894  10.525   3.872   3.979 -0.9817  0.2167  0.7271
  503MOL0     H67895  10.793   3.774   4.033 -0.4127 -1.4547  1.2994
  503MOL0     H67896  10.711   3.930   4.011  1.7232  0.3369  0.5081
  503MOL0     H67897  10.950   3.929   4.054 -0.5505  0.9778  0.8437
  503MOL0     H67898  10.901   3.893   4.223 -1.8467 -1.5989 -0.0826
  503MOL0     H67899  10.791   4.116   4.233 -1.5693  0.0065 -0.8096
  503MOL0     H67900  10.811   4.148   4.057 -0.2327  3.1883  1.4553
  503MOL0     H67901  10.956   4.276   4.197 -1.3729 -1.2673  1.2665
  503MOL0     H67902  11.045   4.174   4.082 -2.3122  0.7572 -1.1851
  503MOL0     H67903  11.172   4.040   4.472  0.4358  0.0014  1.0630
  503MOL0     H67904  10.538   3.648   4.337 -0.3838 -3.2112  0.9705
  503MOL0     H67905  10.339   3.509   4.264 -2.8126  1.6207  0.0454
  504MOL0     O67906   0.065   9.377   7.064 -0.5511 -0.4357 -0.2183
  504MOL0     C67907   0.101   9.370   7.180  0.3394  0.0914  0.2359
  504MOL0     O67908   0.026   9.352   7.280 -0.3217 -0.4452 -0.2857
  504MOL0     C67909  -0.104   9.297   7.265 -0.4569 -0.0347  0.3049
  504MOL0     C67910  -0.126   9.171   7.330  0.4661 -0.1313 -0.2070
  504MOL0     C67911  -0.258   9.118   7.335 -0.1350 -0.1442  0.3953
  504MOL0     C67912  -0.365   9.174   7.259 -0.6502 -0.2279 -0.8768
  504MOL0     O67913  -0.492   9.136   7.261 -0.2876 -0.5442  0.5510
  504MOL0     C67914  -0.531   9.043   7.360 -0.4447 -0.2511  0.0508
  504MOL0     C67915  -0.679   8.994   7.335 -0.5451 -0.0231 -0.0064
  504MOL0     C67916  -0.777   9.080   7.421 -0.9790  0.1780 -0.4880
  504MOL0     C67917  -0.921   9.019   7.402  0.7695  0.3689  0.3509
  504MOL0     C67918  -1.033   9.117   7.457  0.4489  0.0154 -0.0012
  504MOL0     C67919  -1.172   9.066   7.411  0.3429 -0.0173 -0.0678
  504MOL0     C67920  -1.285   9.165   7.422 -0.4887 -0.1199 -0.0789
  504MOL0     C67921  -1.407   9.089   7.372  0.5227 -1.0637 -0.9580
  504MOL0     N67922  -1.515   9.179   7.340  0.1209 -0.5510 -0.7463
  504MOL0     C67923  -1.624   9.140   7.263 -0.1669  0.1786  0.1961
  504MOL0     C67924  -1.702   9.249   7.264  0.0915  0.1527  0.1949
  504MOL0     C67925  -1.838   9.276   7.209 -0.7056 -0.0685  0.6494
  504MOL0     C67926  -1.950   9.170   7.236  0.8458  0.9586  0.3205
  504MOL0     C67927  -1.963   9.132   7.381 -0.6127  0.3776  0.1653
  504MOL0     C67928  -2.067   9.023   7.417 -0.2546 -0.3151 -0.7131
  504MOL0     O67929  -2.036   8.892   7.381  0.6412  0.5555  0.2590
  504MOL0     C67930  -1.914   8.850   7.429  0.0836 -0.3043  0.1707
  504MOL0     C67931  -1.835   8.787   7.339  0.4419  0.2114 -0.9221
  504MOL0     C67932  -1.705   8.752   7.367  0.2171  0.2607 -0.5572
  504MOL0     C67933  -1.632   8.690   7.256 -1.1249  1.1895  0.1934
  504MOL0     C67934  -1.645   8.774   7.492  0.9728 -0.1506  0.5826
  504MOL0     C67935  -1.504   8.747   7.525 -0.5699 -0.3698  0.0874
  504MOL0     O67936  -1.443   8.654   7.448 -0.3734  0.3235 -0.6045
  504MOL0     C67937  -1.312   8.626   7.474  0.2518  0.0920 -0.3472
  504MOL0     C67938  -1.277   8.579   7.599  0.3414  0.1931 -0.9585
  504MOL0     C67939  -1.142   8.551   7.629 -0.3926 -0.1342 -0.0928
  504MOL0     C67940  -1.040   8.589   7.534  0.5109  0.6136 -0.0119
  504MOL0     O67941  -0.909   8.543   7.554  0.0476 -0.0694  0.5265
  504MOL0     C67942  -0.814   8.642   7.520  0.4281 -0.3402 -0.5624
  504MOL0     C67943  -0.687   8.562   7.490  0.1162 -0.4278  0.2944
  504MOL0     C67944  -0.563   8.657   7.494  0.1592 -0.1650  0.3534
  504MOL0     C67945  -0.432   8.573   7.491  0.6085  0.8020 -1.3629
  504MOL0     C67946  -0.315   8.631   7.569 -0.1324 -0.3201 -0.2324
  504MOL0     C67947  -0.255   8.759   7.508 -0.1279  0.6923 -0.3657
  504MOL0     C67948  -0.162   8.843   7.594 -0.6186 -0.3578 -0.1575
  504MOL0     C67949  -0.232   8.891   7.727  0.2811 -0.1142 -0.1858
  504MOL0    Cl67950  -0.377   9.000   7.706  0.2879  0.2203  0.1753
  504MOL0     C67951  -1.085   8.640   7.414  0.3376  0.1187  0.9745
  504MOL0     C67952  -1.216   8.658   7.383  0.2399  0.0229 -0.0650
  504MOL0     O67953  -1.445   8.814   7.612  0.2826  0.1957  0.2222
  504MOL0     C67954  -1.727   8.830   7.588  0.5401 -0.2806 -0.3795
  504MOL0     C67955  -1.859   8.881   7.556 -0.0928 -0.1129 -0.0893
  504MOL0     N67956  -1.636   9.356   7.317  0.4807 -0.2220 -0.1873
  504MOL0     N67957  -1.523   9.311   7.372  0.3553  0.5012  0.5379
  504MOL0     C67958  -0.334   9.288   7.192  0.9697 -0.3314 -0.7840
  504MOL0     C67959  -0.207   9.348   7.193  0.7414 -0.4279  0.4491
  504MOL0     C67960   0.241   9.374   7.214  0.0860 -0.0479  0.0568
  504MOL0     C67961   0.341   9.384   7.116  0.4161  0.3291 -0.0479
  504MOL0     C67962   0.479   9.393   7.151 -0.1989  0.3788  0.6799
  504MOL0     C67963   0.510   9.392   7.282 -0.5288  0.2165  0.4198
  504MOL0     O67964   0.640   9.420   7.305  0.1372 -0.7381 -0.3173
  504MOL0     C67965   0.677   9.539   7.371  0.3670  0.3862 -0.2884
  504MOL0     C67966   0.803   9.521   7.460 -0.9113 -0.1045 -0.2230
  504MOL0     C67967   0.924   9.465   7.378  0.1130  0.4215 -1.2291
  504MOL0     C67968   1.026   9.393   7.464 -0.3345  0.9198  0.3904
  504MOL0     C67969   1.100   9.490   7.532 -0.4356 -0.0639  0.0739
  504MOL0     C67970   1.170   9.577   7.576  0.2071  0.1845  0.5635
  504MOL0     C67971   0.417   9.384   7.382  0.2341  0.8096 -0.7302
  504MOL0     C67972   0.282   9.366   7.346  1.2029  0.3920 -0.8017
  504MOL0     H67973  -0.042   9.122   7.378 -0.1567 -0.7585  0.2480
  504MOL0     H67974  -0.263   9.019   7.379 -0.6154 -0.3828 -0.1834
  504MOL0     H67975  -0.460   8.961   7.348  1.0812  0.9154  0.8197
  504MOL0     H67976  -0.528   9.094   7.457  2.5709  0.7413 -0.4583
  504MOL0     H67977  -0.707   8.982   7.230 -0.5358 -1.1142  0.1049
  504MOL0     H67978  -0.690   8.891   7.370 -2.2844 -0.7868 -2.5360
  504MOL0     H67979  -0.748   9.077   7.526  1.6818  1.2963 -1.0918
  504MOL0     H67980  -0.773   9.183   7.386  1.1520  1.0192  1.9463
  504MOL0     H67981  -0.931   9.005   7.295  1.1762 -2.4728  0.6139
  504MOL0     H67982  -0.924   8.917   7.441  0.2528 -0.4199 -1.6802
  504MOL0     H67983  -1.034   9.127   7.566  2.3852  0.0634  0.0326
  504MOL0     H67984  -1.020   9.218   7.415 -0.2778 -0.1737 -0.7155
  504MOL0     H67985  -1.154   9.042   7.306 -0.7182 -2.0866  0.1737
  504MOL0     H67986  -1.197   8.977   7.468 -0.8127  1.3159  1.6044
  504MOL0     H67987  -1.307   9.211   7.519 -4.3954  1.6855 -1.5931
  504MOL0     H67988  -1.275   9.251   7.355  0.5884  0.8260  1.2476
  504MOL0     H67989  -1.430   9.015   7.449  0.0700 -2.1723 -2.1271
  504MOL0     H67990  -1.376   9.037   7.281 -0.4003 -2.0764 -0.7136
  504MOL0     H67991  -1.646   9.048   7.210 -1.0426 -0.2668  1.3056
  504MOL0     H67992  -1.875   9.370   7.250  2.1595  0.9248  1.1539
  504MOL0     H67993  -1.828   9.276   7.100 -1.0676  1.7919  0.5941
  504MOL0     H67994  -1.923   9.083   7.176 -3.8880  0.9149 -2.2245
  504MOL0     H67995  -2.044   9.210   7.197  1.6134  3.1746  0.6053
  504MOL0     H67996  -2.005   9.222   7.427  1.0398  2.0873 -1.4766
  504MOL0     H67997  -1.864   9.109   7.422 -0.2811 -0.3873 -1.0149
  504MOL0     H67998  -2.161   9.056   7.370 -0.4093  1.9599  0.9817
  504MOL0     H67999  -2.081   9.023   7.526  1.0016  1.2111 -0.5161
  504MOL0     H68000  -1.881   8.758   7.246  0.6910 -0.5525 -0.8110
  504MOL0     H68001  -1.703   8.692   7.173  0.0736  2.2891 -0.8429
  504MOL0     H68002  -1.549   8.759   7.237 -0.8889  0.8118 -0.1690
  504MOL0     H68003  -1.596   8.589   7.277 -2.1197  0.3640 -1.7708
  504MOL0     H68004  -1.345   8.541   7.674 -0.3879  0.8617 -1.2684
  504MOL0     H68005  -1.132   8.486   7.716 -2.8473 -0.2257  0.1844
  504MOL0     H68006  -0.835   8.718   7.444  2.1287  0.3136 -0.4218
  504MOL0     H68007  -0.796   8.708   7.606 -1.2673  0.2764 -0.6530
  504MOL0     H68008  -0.677   8.475   7.555  0.0024 -3.7692 -3.7251
  504MOL0     H68009  -0.693   8.520   7.389  1.7405 -1.2477  0.5133
  504MOL0     H68010  -0.569   8.718   7.585  2.3054  0.9207 -0.1846
  504MOL0     H68011  -0.567   8.731   7.414  3.9264 -0.0152  0.1070
  504MOL0     H68012  -0.459   8.481   7.544  3.1336  0.9609  0.4053
  504MOL0     H68013  -0.396   8.552   7.390  2.1754  0.8212 -0.8455
  504MOL0     H68014  -0.241   8.551   7.577  0.5590  0.2908 -0.4225
  504MOL0     H68015  -0.351   8.656   7.669  1.8107  0.6174  0.2873
  504MOL0     H68016  -0.211   8.748   7.408 -0.9212 -0.3260 -0.6328
  504MOL0     H68017  -0.348   8.814   7.493 -0.2573  0.6392  0.2399
  504MOL0     H68018  -0.120   8.932   7.547 -0.2885 -0.2840  0.2727
  504MOL0     H68019  -0.074   8.779   7.607 -0.0196 -0.4897 -3.6838
  504MOL0     H68020  -0.152   8.948   7.776  1.6346  0.0731 -2.4372
  504MOL0     H68021  -0.264   8.803   7.784  0.9774 -0.4375 -0.2733
  504MOL0     H68022  -1.015   8.661   7.334  3.0050 -0.4407  2.9915
  504MOL0     H68023  -1.246   8.689   7.284 -0.7408  0.8335  0.4664
  504MOL0     H68024  -1.693   8.840   7.691 -0.5054  1.1341 -0.1323
  504MOL0     H68025  -1.929   8.921   7.628 -2.6257 -0.7615 -2.0395
  504MOL0     H68026  -0.429   9.322   7.150  0.9338 -0.5251 -0.8592
  504MOL0     H68027  -0.189   9.439   7.136 -1.7950 -0.1431 -0.0337
  504MOL0     H68028   0.300   9.393   7.016 -2.4294 -0.0307  0.9904
  504MOL0     H68029   0.550   9.417   7.072 -1.5864 -0.1465 -0.7855
  504MOL0     H68030   0.700   9.615   7.296 -0.5947 -0.6822 -1.7081
  504MOL0     H68031   0.603   9.583   7.437 -0.8934 -2.1437  0.1186
  504MOL0     H68032   0.778   9.456   7.545 -1.4904  0.2257 -0.1358
  504MOL0     H68033   0.829   9.618   7.503 -0.4243  1.0339 -2.9188
  504MOL0     H68034   0.971   9.551   7.330  4.0709 -0.5418  0.5389
  504MOL0     H68035   0.896   9.386   7.307 -1.4283 -2.7925  2.5673
  504MOL0     H68036   1.101   9.336   7.408 -0.5671  2.3733 -1.4955
  504MOL0     H68037   0.983   9.325   7.538  1.7136 -0.9930 -0.0598
  504MOL0     H68038   1.234   9.653   7.615  1.2620  1.3771 -3.0662
  504MOL0     H68039   0.464   9.388   7.480  0.9801  1.8573 -1.1064
  504MOL0     H68040   0.215   9.354   7.431 -0.4434  0.4592 -2.0460
  505MOL0     O68041   6.189   3.994   6.526 -0.0311 -0.1103 -0.0943
  505MOL0     C68042   6.239   4.056   6.620 -0.9517 -0.8645  0.1607
  505MOL0     O68043   6.211   4.040   6.753  0.8644  0.2426  0.1581
  505MOL0     C68044   6.105   3.962   6.795 -0.7464  0.6533  0.2353
  505MOL0     C68045   6.000   4.030   6.855 -0.5539  0.9800  0.2174
  505MOL0     C68046   5.876   3.980   6.879  0.0833  0.1065  0.5569
  505MOL0     C68047   5.854   3.847   6.829  0.2326 -0.2611 -0.3977
  505MOL0     O68048   5.732   3.784   6.832 -1.1305  0.6276  0.0488
  505MOL0     C68049   5.638   3.832   6.928  0.1273  0.4486 -0.0580
  505MOL0     C68050   5.538   3.712   6.970  0.0293 -0.2719  0.2442
  505MOL0     C68051   5.400   3.764   7.002 -0.0484  0.0736 -0.1950
  505MOL0     C68052   5.391   3.849   7.125  0.7058 -0.3359 -0.5640
  505MOL0     C68053   5.246   3.859   7.178  0.0762  0.2789  0.6849
  505MOL0     C68054   5.219   3.908   7.322  1.0051  0.2246  1.0211
  505MOL0     C68055   5.276   3.825   7.434  0.1785  0.4332 -0.9611
  505MOL0     C68056   5.258   3.897   7.560 -0.4045 -0.3311 -0.1532
  505MOL0     N68057   5.114   3.903   7.612 -0.2324  0.2868  0.4881
  505MOL0     C68058   5.036   4.017   7.606  0.3789  0.4024 -0.3770
  505MOL0     C68059   4.910   3.968   7.623 -0.0249 -0.1653  0.1948
  505MOL0     C68060   4.785   4.050   7.604  0.2996 -0.3156  0.0738
  505MOL0     C68061   4.687   4.004   7.488 -0.8803 -0.2614 -0.4792
  505MOL0     C68062   4.585   4.111   7.463 -0.1273  0.5946  0.3038
  505MOL0     C68063   4.448   4.067   7.422  0.3249 -0.3529  0.0051
  505MOL0     O68064   4.378   4.163   7.337 -0.1444  0.0473  0.9740
  505MOL0     C68065   4.246   4.166   7.340 -0.8685  0.1430 -1.1648
  505MOL0     C68066   4.169   4.059   7.376 -0.2199 -0.2523 -0.0681
  505MOL0     C68067   4.033   4.079   7.393  0.5207  0.1151 -0.6578
  505MOL0     C68068   3.944   3.967   7.426  0.6897  0.6333 -0.1663
  505MOL0     C68069   3.976   4.206   7.365 -0.1471 -0.3650 -0.4690
  505MOL0     C68070   3.829   4.235   7.384  0.8035 -0.6712 -0.7651
  505MOL0     O68071   3.761   4.295   7.282  0.3577 -0.0233  0.0929
  505MOL0     C68072   3.632   4.302   7.306  0.5368  0.3791 -0.1136
  505MOL0     C68073   3.551   4.186   7.286 -1.0553 -0.2398  0.1773
  505MOL0     C68074   3.413   4.203   7.293 -0.1749  0.1113 -0.4774
  505MOL0     C68075   3.348   4.322   7.313 -0.0187  1.2451 -1.1269
  505MOL0     O68076   3.211   4.322   7.324 -0.4656 -0.0422 -0.1674
  505MOL0     C68077   3.147   4.277   7.442  0.3173 -0.4098 -0.1713
  505MOL0     C68078   3.031   4.374   7.469  0.1276 -0.0259 -0.1923
  505MOL0     C68079   2.960   4.348   7.602 -0.3947  0.2112  0.1341
  505MOL0     C68080   2.814   4.379   7.600 -0.0416  0.4513 -0.3591
  505MOL0     C68081   2.748   4.362   7.734 -0.2985 -0.1573  0.2227
  505MOL0     C68082   2.598   4.393   7.713 -0.0162 -0.3949  0.3318
  505MOL0     C68083   2.564   4.534   7.669  1.1320 -0.1702 -0.8045
  505MOL0     C68084   2.429   4.580   7.727 -0.1999  0.5898 -0.0736
  505MOL0    Cl68085   2.467   4.638   7.895 -0.3822 -0.2774  0.1564
  505MOL0     C68086   3.421   4.440   7.331 -0.7738  0.5119 -0.3414
  505MOL0     C68087   3.563   4.429   7.325 -0.3940  0.2838 -0.1376
  505MOL0     O68088   3.776   4.193   7.491 -0.6368 -0.7428 -0.6252
  505MOL0     C68089   4.055   4.309   7.311  0.0492 -1.2257 -0.3552
  505MOL0     C68090   4.193   4.284   7.300 -0.5252  0.0553  0.7237
  505MOL0     N68091   4.911   3.831   7.659  0.6380 -0.7110  0.0190
  505MOL0     N68092   5.032   3.795   7.649 -0.6535  0.7088 -0.2619
  505MOL0     C68093   5.962   3.773   6.783 -0.2295  0.1290 -0.2091
  505MOL0     C68094   6.090   3.830   6.754  0.1250  0.3003  0.8063
  505MOL0     C68095   6.350   4.155   6.583 -0.0005  0.5564 -0.1301
  505MOL0     C68096   6.438   4.214   6.682  0.7974  0.2955 -0.2898
  505MOL0     C68097   6.544   4.292   6.650  0.1546  0.4576  0.0859
  505MOL0     C68098   6.570   4.324   6.516  0.4811 -0.9396 -0.0488
  505MOL0     O68099   6.674   4.405   6.487  0.4506  0.3583 -0.1516
  505MOL0     C68100   6.763   4.366   6.381 -0.0567  0.6069  0.1440
  505MOL0     C68101   6.884   4.456   6.393  0.0373 -0.3911  0.1744
  505MOL0     C68102   6.961   4.433   6.526  0.1628 -0.2792 -0.2130
  505MOL0     C68103   7.102   4.498   6.532  0.4793 -0.3274 -0.3902
  505MOL0     C68104   7.192   4.451   6.423  0.0482 -0.0233  0.1529
  505MOL0     C68105   7.288   4.428   6.351  0.0717 -0.2731 -0.5496
  505MOL0     C68106   6.487   4.268   6.416 -0.5308 -0.4671  0.0182
  505MOL0     C68107   6.382   4.188   6.445  0.0974  0.3983 -0.3638
  505MOL0     H68108   6.010   4.136   6.875  2.6115  1.1243 -1.3713
  505MOL0     H68109   5.795   4.036   6.925  0.1552 -0.9945  2.1075
  505MOL0     H68110   5.683   3.873   7.019 -1.3541  2.1625 -0.0441
  505MOL0     H68111   5.583   3.914   6.881 -1.1966 -0.6134 -0.4192
  505MOL0     H68112   5.513   3.647   6.886 -2.0947  2.3589 -1.3133
  505MOL0     H68113   5.586   3.657   7.051 -1.9792  0.1188  1.7675
  505MOL0     H68114   5.358   3.817   6.916 -0.7756  0.2935  0.2845
  505MOL0     H68115   5.347   3.674   7.036  2.0743 -1.0465  0.3123
  505MOL0     H68116   5.447   3.802   7.206 -1.7966 -2.0445  0.3080
  505MOL0     H68117   5.429   3.951   7.123  0.8045 -0.3759 -0.7709
  505MOL0     H68118   5.188   3.928   7.115  0.4585  1.2362  1.3585
  505MOL0     H68119   5.201   3.760   7.163 -2.3616  1.4614 -0.5820
  505MOL0     H68120   5.256   4.010   7.332  1.7579  0.2313 -1.2544
  505MOL0     H68121   5.111   3.920   7.334  1.5342  5.6358  2.8511
  505MOL0     H68122   5.229   3.726   7.446 -0.7632  1.1002  1.5441
  505MOL0     H68123   5.383   3.805   7.423  0.4503 -0.8779  2.5897
  505MOL0     H68124   5.300   3.997   7.562 -0.3973 -0.2171 -2.7375
  505MOL0     H68125   5.300   3.828   7.634 -0.2485  0.4916  0.5302
  505MOL0     H68126   5.065   4.118   7.580  2.4579 -0.0397 -0.0120
  505MOL0     H68127   4.728   4.041   7.697  0.8633 -1.1677  0.3400
  505MOL0     H68128   4.815   4.153   7.583  0.6814 -0.7140 -1.4686
  505MOL0     H68129   4.648   3.907   7.519 -2.4859  0.9757  1.6085
  505MOL0     H68130   4.749   3.987   7.399  0.1480 -3.1241  0.6877
  505MOL0     H68131   4.615   4.161   7.370  1.6242  0.9887  1.0445
  505MOL0     H68132   4.595   4.185   7.543  0.3901  0.5154  0.3139
  505MOL0     H68133   4.396   4.051   7.516  1.6132  0.8587  0.9833
  505MOL0     H68134   4.458   3.971   7.370  0.3722 -0.5963  0.4578
  505MOL0     H68135   4.214   3.964   7.404  0.4557 -0.0372 -0.3996
  505MOL0     H68136   3.855   3.975   7.363  0.0089  1.3368  0.8492
  505MOL0     H68137   3.990   3.868   7.412  1.5570  1.0170 -0.1269
  505MOL0     H68138   3.917   3.965   7.532  1.0021 -3.4178 -0.0054
  505MOL0     H68139   3.591   4.086   7.275  1.6068  0.7221  0.4493
  505MOL0     H68140   3.359   4.112   7.271 -5.1236  2.7389 -0.6018
  505MOL0     H68141   3.111   4.177   7.414 -0.0293  0.0207 -1.2937
  505MOL0     H68142   3.212   4.273   7.530  0.5825 -1.5823 -0.3957
  505MOL0     H68143   3.080   4.471   7.480  1.5279 -0.3999 -2.4526
  505MOL0     H68144   2.968   4.388   7.381  2.1331  0.8153 -1.5570
  505MOL0     H68145   3.014   4.399   7.681 -0.0909  1.4581 -0.8519
  505MOL0     H68146   2.971   4.243   7.630 -0.7188  0.5486  1.5819
  505MOL0     H68147   2.795   4.480   7.563 -2.8740  0.1776  0.0852
  505MOL0     H68148   2.751   4.313   7.538 -0.1097 -1.0480  1.2234
  505MOL0     H68149   2.790   4.435   7.804  1.0689  0.9912 -1.6941
  505MOL0     H68150   2.775   4.262   7.769  2.6942  1.0833  1.8708
  505MOL0     H68151   2.563   4.315   7.644 -1.9821  0.2381  0.5362
  505MOL0     H68152   2.545   4.372   7.807 -1.2160 -0.8476 -0.4207
  505MOL0     H68153   2.545   4.551   7.563 -5.1979  0.7885  0.0715
  505MOL0     H68154   2.639   4.609   7.695 -0.8693  1.2302  1.4016
  505MOL0     H68155   2.365   4.492   7.721 -2.3999  2.1877 -1.9171
  505MOL0     H68156   2.379   4.657   7.667 -4.4030 -0.7910  1.3120
  505MOL0     H68157   3.360   4.524   7.361 -1.4021 -0.0769  0.0875
  505MOL0     H68158   3.621   4.520   7.332 -2.3586  1.5132  1.5947
  505MOL0     H68159   4.002   4.395   7.272  1.1008 -0.8829 -1.0705
  505MOL0     H68160   4.263   4.361   7.269 -1.9186  1.1628  0.2074
  505MOL0     H68161   5.939   3.668   6.768 -0.1704  0.2534 -1.2639
  505MOL0     H68162   6.170   3.782   6.698 -0.7718  1.8501 -1.9598
  505MOL0     H68163   6.417   4.177   6.781 -1.1868 -0.8269 -1.0880
  505MOL0     H68164   6.607   4.313   6.736 -0.0867  0.0389  0.3635
  505MOL0     H68165   6.784   4.259   6.393 -3.8373 -0.2968 -0.0888
  505MOL0     H68166   6.704   4.382   6.291  1.1111  0.1748 -0.7302
  505MOL0     H68167   6.844   4.557   6.401 -3.9050 -1.7711  0.3895
  505MOL0     H68168   6.949   4.444   6.306  1.3511 -0.5293  1.1519
  505MOL0     H68169   6.971   4.325   6.535 -0.3430 -0.4671 -1.6806
  505MOL0     H68170   6.897   4.465   6.609 -0.1535 -1.4708  0.0270
  505MOL0     H68171   7.155   4.474   6.625 -3.1257  2.4627  2.7281
  505MOL0     H68172   7.089   4.606   6.518 -2.0853 -0.4972  0.0658
  505MOL0     H68173   7.356   4.388   6.278  0.8500  0.6241 -0.3328
  505MOL0     H68174   6.502   4.298   6.313 -2.8405  0.5809 -0.0686
  505MOL0     H68175   6.304   4.157   6.377 -0.6346 -4.7353  2.2616
  506MOL0     O68176   1.666   7.693   8.254  0.1842 -0.2058 -0.1169
  506MOL0     C68177   1.705   7.663   8.143  0.2714  0.1315  0.1513
  506MOL0     O68178   1.625   7.655   8.027 -0.4772 -0.4670 -0.4293
  506MOL0     C68179   1.494   7.653   8.049 -0.2354  0.0794 -0.3106
  506MOL0     C68180   1.418   7.771   8.070 -0.3974  0.3078 -0.4488
  506MOL0     C68181   1.280   7.770   8.078 -0.0122  1.0861 -0.5737
  506MOL0     C68182   1.212   7.643   8.057 -0.3005  0.9372  1.0610
  506MOL0     O68183   1.078   7.616   8.045  1.2769 -0.3672 -0.2156
  506MOL0     C68184   0.986   7.725   8.066 -0.2878  0.6826  0.2328
  506MOL0     C68185   0.844   7.672   8.075  0.8491  0.1878  0.4318
  506MOL0     C68186   0.726   7.773   8.066 -1.0931  0.1692 -0.5900
  506MOL0     C68187   0.608   7.742   8.162  1.0135  0.2659 -0.7603
  506MOL0     C68188   0.492   7.834   8.116  0.1071 -0.2513  0.4230
  506MOL0     C68189   0.359   7.778   8.158 -0.2725  0.5922  0.1760
  506MOL0     C68190   0.234   7.871   8.143 -1.0845 -0.6364  0.1148
  506MOL0     C68191   0.105   7.817   8.202  0.1372 -0.8619  0.2251
  506MOL0     N68192  -0.015   7.892   8.157  0.4289 -0.6019 -0.7197
  506MOL0     C68193  -0.136   7.834   8.137  0.5257 -0.7385 -0.0532
  506MOL0     C68194  -0.217   7.943   8.107 -0.2215  0.0578 -1.5584
  506MOL0     C68195  -0.360   7.923   8.067  0.4915  0.3701  0.0571
  506MOL0     C68196  -0.472   7.926   8.175  0.5739 -0.5742  0.2737
  506MOL0     C68197  -0.597   7.972   8.097 -0.8005 -0.2755  0.6833
  506MOL0     C68198  -0.733   7.960   8.173  0.5242 -0.5991  0.4818
  506MOL0     O68199  -0.827   7.882   8.094  0.0232 -0.1470  0.2307
  506MOL0     C68200  -0.963   7.884   8.123  0.0874  0.3320 -0.1162
  506MOL0     C68201  -1.043   7.840   8.020  0.0777  0.2686 -0.7337
  506MOL0     C68202  -1.180   7.868   8.026  0.1975 -0.7170  0.2053
  506MOL0     C68203  -1.266   7.821   7.907 -0.0736  0.3177 -0.2425
  506MOL0     C68204  -1.242   7.928   8.143  0.1013 -0.7512 -0.0544
  506MOL0     C68205  -1.376   7.986   8.153 -0.1094 -0.9757  0.4053
  506MOL0     O68206  -1.425   8.009   8.278  0.4760  0.8762 -0.1493
  506MOL0     C68207  -1.547   8.071   8.282  0.2707  0.5591  0.4407
  506MOL0     C68208  -1.666   7.998   8.301 -0.7473  0.0637  0.1574
  506MOL0     C68209  -1.796   8.056   8.313  0.0867  0.1074 -0.1876
  506MOL0     C68210  -1.813   8.196   8.292 -0.8096 -0.1137  0.3569
  506MOL0     O68211  -1.931   8.260   8.277  0.0589 -1.0376 -0.5472
  506MOL0     C68212  -2.050   8.178   8.267  0.3772  0.7818 -0.1821
  506MOL0     C68213  -2.169   8.261   8.273  0.2756 -0.2111 -0.1545
  506MOL0     C68214  -2.182   8.351   8.155  0.3802 -0.6953 -0.3861
  506MOL0     C68215  -2.300   8.441   8.177  0.2058  0.6462  0.3437
  506MOL0     C68216  -2.315   8.543   8.069  0.1714  0.4263  0.4589
  506MOL0     C68217  -2.386   8.500   7.940 -0.3889 -0.6435  0.6963
  506MOL0     C68218  -2.530   8.449   7.963  0.4074 -0.8485  0.1081
  506MOL0     C68219  -2.601   8.451   7.829 -0.4314 -0.0973 -0.0433
  506MOL0    Cl68220  -2.765   8.411   7.855 -0.0045 -0.0027  0.0399
  506MOL0     C68221  -1.691   8.269   8.273  0.3220 -0.9241 -0.5774
  506MOL0     C68222  -1.560   8.213   8.273  0.8223  0.0568 -1.1190
  506MOL0     O68223  -1.436   8.010   8.046  0.0746 -0.0260  0.0786
  506MOL0     C68224  -1.160   7.961   8.249 -0.1790 -0.0893  0.6671
  506MOL0     C68225  -1.021   7.946   8.237 -0.2417  0.8747 -0.1556
  506MOL0     N68226  -0.145   8.059   8.121 -0.3442  0.2512 -0.3081
  506MOL0     N68227  -0.022   8.026   8.150  0.5828 -0.0874  0.1349
  506MOL0     C68228   1.285   7.520   8.041  0.4663 -0.5034  0.3353
  506MOL0     C68229   1.421   7.529   8.043 -0.7479  0.0970  0.4982
  506MOL0     C68230   1.851   7.656   8.118  0.2022  0.2768  0.3676
  506MOL0     C68231   1.940   7.708   8.214 -0.2032 -0.1936 -0.5320
  506MOL0     C68232   2.077   7.708   8.194 -0.1030 -0.2305  0.6786
  506MOL0     C68233   2.126   7.666   8.071  0.0728 -0.4934 -0.0610
  506MOL0     O68234   2.261   7.668   8.057  0.0246 -0.2956  0.5009
  506MOL0     C68235   2.331   7.605   7.947 -0.3121  0.3061 -0.4854
  506MOL0     C68236   2.481   7.615   7.968  1.3729 -0.1356  0.0394
  506MOL0     C68237   2.563   7.508   7.899  0.7149  0.5647  0.2378
  506MOL0     C68238   2.547   7.528   7.742 -1.1299 -0.9084  0.1302
  506MOL0     C68239   2.654   7.455   7.674  0.1870  0.2444 -0.7886
  506MOL0     C68240   2.739   7.397   7.608  0.1536  0.3516  0.0897
  506MOL0     C68241   2.038   7.610   7.984 -0.5794 -0.4326  1.1207
  506MOL0     C68242   1.903   7.611   8.000 -1.4045  0.5158  0.1462
  506MOL0     H68243   1.470   7.866   8.082  0.5621 -0.3830  1.1919
  506MOL0     H68244   1.232   7.866   8.090 -0.3384  0.6399  2.5357
  506MOL0     H68245   0.999   7.783   8.158  1.5991  0.3837  0.2050
  506MOL0     H68246   0.979   7.791   7.980 -0.1375 -0.7851 -0.9437
  506MOL0     H68247   0.836   7.606   7.988 -0.0865  0.3683  0.3725
  506MOL0     H68248   0.834   7.608   8.163  3.7935  0.1302  0.8213
  506MOL0     H68249   0.761   7.873   8.092 -1.2834 -0.8389  4.5485
  506MOL0     H68250   0.692   7.768   7.962 -0.3904  0.1733 -0.8249
  506MOL0     H68251   0.577   7.637   8.159  1.2494  0.1391  0.4781
  506MOL0     H68252   0.628   7.761   8.268  2.0882  2.5777 -1.3289
  506MOL0     H68253   0.507   7.935   8.157  0.1184  0.1871 -0.6330
  506MOL0     H68254   0.482   7.843   8.008 -3.6681  0.7802  0.6940
  506MOL0     H68255   0.330   7.690   8.101  0.7392  0.8753 -0.8045
  506MOL0     H68256   0.369   7.762   8.266 -1.7310 -0.7703  0.1383
  506MOL0     H68257   0.252   7.972   8.180 -1.5922 -0.0742 -1.1401
  506MOL0     H68258   0.214   7.889   8.037  0.9027 -1.7780 -0.5156
  506MOL0     H68259   0.119   7.833   8.310  0.1552 -0.2187  0.1303
  506MOL0     H68260   0.090   7.709   8.194 -0.5370 -1.3026  4.7825
  506MOL0     H68261  -0.172   7.732   8.144 -0.4985 -0.3299  0.9739
  506MOL0     H68262  -0.380   8.014   8.009 -2.5316 -0.4212 -0.3121
  506MOL0     H68263  -0.360   7.829   8.011  1.8164 -1.0530  2.3125
  506MOL0     H68264  -0.451   8.007   8.246 -0.9261  1.2556 -1.2698
  506MOL0     H68265  -0.495   7.834   8.231  1.1957 -0.6132  0.4745
  506MOL0     H68266  -0.617   7.900   8.017 -3.0395 -1.1111  1.8862
  506MOL0     H68267  -0.577   8.069   8.050 -1.5638 -0.4806 -0.0775
  506MOL0     H68268  -0.782   8.053   8.205  1.5126 -0.5846  2.0498
  506MOL0     H68269  -0.719   7.897   8.261  0.4084  0.1347  1.0378
  506MOL0     H68270  -1.001   7.795   7.931  0.3745  1.0868 -1.0158
  506MOL0     H68271  -1.253   7.721   7.866 -1.3201  0.0404  0.0027
  506MOL0     H68272  -1.372   7.814   7.935  0.1907 -1.6625  0.4025
  506MOL0     H68273  -1.257   7.892   7.824 -1.8401 -1.8152 -2.3935
  506MOL0     H68274  -1.660   7.890   8.305 -3.2368 -0.2641 -1.8297
  506MOL0     H68275  -1.870   7.983   8.345  0.4509  0.3537  1.2869
  506MOL0     H68276  -2.054   8.134   8.166 -0.3991  1.1224 -0.3111
  506MOL0     H68277  -2.061   8.099   8.342 -0.6381  1.0753 -0.0069
  506MOL0     H68278  -2.260   8.201   8.271 -1.1624  1.7679  1.1809
  506MOL0     H68279  -2.170   8.305   8.373  0.1568 -1.6614  0.5071
  506MOL0     H68280  -2.193   8.291   8.064  0.1940 -1.7227  0.2919
  506MOL0     H68281  -2.092   8.412   8.143  1.2321 -1.9407 -0.6413
  506MOL0     H68282  -2.387   8.376   8.189  0.4088 -0.4449 -3.0384
  506MOL0     H68283  -2.287   8.497   8.270  1.4934 -2.4440  2.1609
  506MOL0     H68284  -2.217   8.584   8.042  0.6853 -2.4126 -2.7516
  506MOL0     H68285  -2.372   8.631   8.101  1.2844  0.4920  2.3999
  506MOL0     H68286  -2.392   8.590   7.879  0.6958  1.2988  3.2968
  506MOL0     H68287  -2.318   8.426   7.895  0.7270  0.7936 -0.0633
  506MOL0     H68288  -2.579   8.516   8.035 -1.9757 -3.2070  0.8774
  506MOL0     H68289  -2.539   8.347   8.000  1.0640 -1.4755 -1.3740
  506MOL0     H68290  -2.549   8.384   7.759  1.3518  0.0868  1.0376
  506MOL0     H68291  -2.604   8.548   7.779 -0.8021  1.2131  2.3937
  506MOL0     H68292  -1.709   8.376   8.275  1.7572 -0.6204 -2.0510
  506MOL0     H68293  -1.482   8.287   8.257 -0.4172  1.0263 -2.9373
  506MOL0     H68294  -1.196   8.011   8.338 -2.1539  0.7314 -0.5225
  506MOL0     H68295  -0.966   7.973   8.327  0.0497 -0.1195 -0.0159
  506MOL0     H68296   1.227   7.430   8.021  1.7345 -1.2771  0.0175
  506MOL0     H68297   1.482   7.440   8.034 -2.9633 -1.7695  2.3647
  506MOL0     H68298   1.905   7.759   8.303 -1.3022  0.6062 -1.3946
  506MOL0     H68299   2.132   7.754   8.276  0.6230 -0.6945  0.4651
  506MOL0     H68300   2.301   7.500   7.936  1.7908 -0.6949  2.2609
  506MOL0     H68301   2.313   7.650   7.848  0.6399 -2.1830 -1.8757
  506MOL0     H68302   2.487   7.602   8.077  1.5354 -2.1359 -0.1838
  506MOL0     H68303   2.520   7.714   7.941  0.3228  0.7451  1.5583
  506MOL0     H68304   2.522   7.411   7.928 -1.7833  1.3996 -0.2266
  506MOL0     H68305   2.667   7.518   7.930  1.1479  1.3791 -1.3508
  506MOL0     H68306   2.545   7.634   7.716 -0.1806 -0.9606 -0.1849
  506MOL0     H68307   2.450   7.485   7.713 -2.3466  0.9430  1.2560
  506MOL0     H68308   2.809   7.337   7.553 -0.8207 -2.9415  2.1093
  506MOL0     H68309   2.072   7.549   7.901  0.8272 -0.6465  1.8271
  506MOL0     H68310   1.858   7.566   7.913 -0.2292  1.0501 -0.7701
  507MOL0     O68311   2.411   0.994   6.985  0.3011 -0.4818  0.1262
  507MOL0     C68312   2.521   0.974   6.950  0.1528 -0.1209 -0.4865
  507MOL0     O68313   2.561   0.909   6.841  0.1334 -0.0918  0.3881
  507MOL0     C68314   2.458   0.851   6.760 -0.6113 -0.1054  0.4338
  507MOL0     C68315   2.389   0.937   6.674  0.0344 -0.2863 -0.4327
  507MOL0     C68316   2.292   0.886   6.589 -0.7018  0.4382 -0.2472
  507MOL0     C68317   2.258   0.751   6.593  0.5564  1.0021 -0.7353
  507MOL0     O68318   2.146   0.689   6.529  0.0168  0.0016  0.4289
  507MOL0     C68319   2.075   0.763   6.422 -0.4643  0.0313  0.3818
  507MOL0     C68320   1.960   0.666   6.388  0.9349  0.2523 -0.3561
  507MOL0     C68321   1.862   0.717   6.288  0.0976 -0.1261 -0.6870
  507MOL0     C68322   1.754   0.613   6.269 -0.9368  0.5040  0.5982
  507MOL0     C68323   1.643   0.661   6.177  0.4872 -0.9317  0.0924
  507MOL0     C68324   1.554   0.547   6.124  0.6015 -0.2057 -0.1673
  507MOL0     C68325   1.485   0.584   5.992 -0.0321  0.4775 -0.4053
  507MOL0     C68326   1.488   0.472   5.885  0.1331  0.0458 -0.6534
  507MOL0     N68327   1.386   0.500   5.783  0.4648 -0.0503 -0.1716
  507MOL0     C68328   1.248   0.514   5.810 -0.2549  0.4580 -0.0764
  507MOL0     C68329   1.191   0.531   5.692 -0.0541 -0.3409  0.5460
  507MOL0     C68330   1.047   0.573   5.665  0.8102  0.8541 -0.4258
  507MOL0     C68331   0.936   0.555   5.774  0.6638 -0.0591 -0.3092
  507MOL0     C68332   0.826   0.653   5.757  0.6158 -0.4939 -0.0417
  507MOL0     C68333   0.706   0.635   5.864  0.3155  0.8026  0.7994
  507MOL0     O68334   0.627   0.511   5.819 -0.0561 -0.1824 -0.1052
  507MOL0     C68335   0.495   0.506   5.795 -0.1196  0.5300  0.6150
  507MOL0     C68336   0.408   0.616   5.793  0.1145 -0.3892  0.1306
  507MOL0     C68337   0.271   0.590   5.779 -0.4520  0.2634  0.3950
  507MOL0     C68338   0.176   0.706   5.791 -0.2220 -0.3393 -0.1122
  507MOL0     C68339   0.218   0.462   5.761 -0.4915  0.0296  0.3559
  507MOL0     C68340   0.078   0.430   5.729  0.1621  0.3555  0.5910
  507MOL0     O68341  -0.021   0.519   5.761  0.6988 -0.0009 -0.3798
  507MOL0     C68342  -0.151   0.485   5.746  0.0001  0.2318 -0.1240
  507MOL0     C68343  -0.240   0.568   5.678  0.6417  0.2602  0.2439
  507MOL0     C68344  -0.382   0.550   5.688 -0.0616  0.2389 -0.5957
  507MOL0     C68345  -0.424   0.448   5.767 -0.0378  0.3092 -0.3798
  507MOL0     O68346  -0.562   0.441   5.789  0.6753  0.1550 -0.1893
  507MOL0     C68347  -0.589   0.430   5.926 -0.0255 -1.0106 -0.8047
  507MOL0     C68348  -0.729   0.450   5.940 -0.4962  0.2633 -0.5668
  507MOL0     C68349  -0.806   0.321   5.921  0.0139  0.4223  0.5785
  507MOL0     C68350  -0.950   0.359   5.895 -0.2132  0.2137 -0.6459
  507MOL0     C68351  -1.044   0.242   5.914  0.3755 -0.2285 -0.7761
  507MOL0     C68352  -1.181   0.280   5.861  0.2397 -0.3468  0.5595
  507MOL0     C68353  -1.272   0.163   5.855 -0.2379  0.0253 -0.0660
  507MOL0     C68354  -1.414   0.193   5.810  0.1628  0.4896  0.9609
  507MOL0    Cl68355  -1.503   0.295   5.930 -0.0925  0.0870  0.4403
  507MOL0     C68356  -0.329   0.358   5.826  0.2041 -0.1698  0.6000
  507MOL0     C68357  -0.192   0.370   5.814 -0.7280  0.7072  0.5942
  507MOL0     O68358   0.057   0.331   5.660 -0.5261  0.1415 -0.1638
  507MOL0     C68359   0.308   0.356   5.774  0.8583 -0.1049 -0.0071
  507MOL0     C68360   0.441   0.380   5.791 -0.7258  0.2929  0.1001
  507MOL0     N68361   1.289   0.528   5.597 -0.2597 -1.0535  0.0887
  507MOL0     N68362   1.404   0.510   5.650 -0.2518  0.9436  0.9070
  507MOL0     C68363   2.332   0.669   6.678  0.3798  0.0364  0.1843
  507MOL0     C68364   2.429   0.713   6.761  0.3642  0.4149 -1.1691
  507MOL0     C68365   2.622   1.018   7.051  0.5495 -0.5756 -0.6629
  507MOL0     C68366   2.758   1.022   7.019 -0.7382  0.4230  0.3387
  507MOL0     C68367   2.855   1.074   7.098 -0.1520  0.3346 -0.1272
  507MOL0     C68368   2.822   1.116   7.228  1.0297 -0.0034  0.9028
  507MOL0     O68369   2.905   1.168   7.323  0.4088 -0.0034  0.5644
  507MOL0     C68370   3.021   1.234   7.266 -0.6889 -0.3126 -0.8581
  507MOL0     C68371   3.115   1.298   7.371  0.2355 -0.3783  0.0548
  507MOL0     C68372   3.237   1.368   7.307  0.8201  0.2987  0.0721
  507MOL0     C68373   3.334   1.413   7.426  0.3394  0.2062  1.0193
  507MOL0     C68374   3.427   1.521   7.385 -0.9060 -0.1787 -0.3270
  507MOL0     C68375   3.517   1.598   7.371  0.1705 -0.0614  0.3876
  507MOL0     C68376   2.685   1.116   7.265 -0.1186  0.9444  0.0322
  507MOL0     C68377   2.593   1.060   7.184  0.2028 -0.5971 -0.0182
  507MOL0     H68378   2.418   1.042   6.674 -2.4296  0.4488 -1.2455
  507MOL0     H68379   2.242   0.958   6.525 -0.9248  0.6184  0.1220
  507MOL0     H68380   2.028   0.855   6.456  1.5308  0.7533  1.3395
  507MOL0     H68381   2.143   0.783   6.339 -0.0891  1.8070  1.0850
  507MOL0     H68382   1.995   0.575   6.338 -0.5014  0.7059 -2.3116
  507MOL0     H68383   1.912   0.645   6.484 -0.2178  0.3301 -0.8992
  507MOL0     H68384   1.830   0.812   6.331  2.0452  0.6562 -0.8677
  507MOL0     H68385   1.897   0.743   6.188 -0.2572  0.0901 -0.7573
  507MOL0     H68386   1.796   0.526   6.220  0.8952  0.8854  1.4025
  507MOL0     H68387   1.711   0.570   6.360  2.8585 -1.1038  1.8102
  507MOL0     H68388   1.581   0.737   6.225 -0.2070 -1.0445 -0.5992
  507MOL0     H68389   1.678   0.712   6.087 -1.0693 -1.8529 -1.0917
  507MOL0     H68390   1.617   0.460   6.104  2.2081  1.1351 -1.2839
  507MOL0     H68391   1.474   0.520   6.193  0.7709 -0.5878 -0.1179
  507MOL0     H68392   1.377   0.596   6.008  0.0792  1.8182 -0.5647
  507MOL0     H68393   1.529   0.676   5.952  1.9826 -0.8149 -1.3042
  507MOL0     H68394   1.461   0.370   5.915 -2.0423  0.0574 -2.2902
  507MOL0     H68395   1.583   0.464   5.832 -0.3340 -1.8066 -1.3076
  507MOL0     H68396   1.190   0.511   5.901  1.1106  0.9147  0.8493
  507MOL0     H68397   1.052   0.679   5.637 -0.9173  1.7105  2.1472
  507MOL0     H68398   1.002   0.524   5.579 -0.7160  1.7984 -0.2039
  507MOL0     H68399   0.976   0.557   5.876  1.8608 -0.6088 -0.7445
  507MOL0     H68400   0.894   0.454   5.767 -1.3358  0.7513 -0.5351
  507MOL0     H68401   0.790   0.658   5.654 -1.1208 -2.3003  0.4152
  507MOL0     H68402   0.871   0.751   5.776 -0.0275 -0.1277 -0.3698
  507MOL0     H68403   0.642   0.723   5.859 -1.1318 -0.2736 -0.5932
  507MOL0     H68404   0.749   0.619   5.963  2.9032  2.0373 -0.0564
  507MOL0     H68405   0.429   0.722   5.805  0.1926 -0.3956  0.0605
  507MOL0     H68406   0.104   0.684   5.870 -0.0645 -0.7028 -0.0665
  507MOL0     H68407   0.235   0.794   5.816  2.3158 -1.9509 -0.0312
  507MOL0     H68408   0.127   0.731   5.696  0.2515  1.2148  0.0377
  507MOL0     H68409  -0.209   0.663   5.636  0.6766  0.1760  0.0763
  507MOL0     H68410  -0.452   0.618   5.642  2.4425  1.1924 -3.3438
  507MOL0     H68411  -0.567   0.329   5.962  1.5495 -0.8794 -1.2802
  507MOL0     H68412  -0.540   0.498   5.996 -3.7005  0.2978  0.6914
  507MOL0     H68413  -0.735   0.473   6.047  0.2587 -0.8975 -0.2534
  507MOL0     H68414  -0.779   0.532   5.889 -2.5551 -1.4616 -1.4465
  507MOL0     H68415  -0.799   0.263   6.014  1.7328 -0.8435 -0.2728
  507MOL0     H68416  -0.770   0.258   5.839  0.0257 -0.0311  0.9277
  507MOL0     H68417  -0.982   0.441   5.959 -1.0045  0.0262 -0.7836
  507MOL0     H68418  -0.952   0.393   5.791  1.2484 -2.0525 -1.4956
  507MOL0     H68419  -1.051   0.213   6.020 -1.3105  0.8611 -0.5551
  507MOL0     H68420  -1.004   0.162   5.851  0.6057  0.0380 -0.9697
  507MOL0     H68421  -1.235   0.345   5.930 -1.8986 -0.5371 -0.8454
  507MOL0     H68422  -1.173   0.327   5.763 -0.2713 -0.9202  0.2334
  507MOL0     H68423  -1.275   0.120   5.956 -0.6075  0.9682  0.3436
  507MOL0     H68424  -1.230   0.081   5.796  2.7035  1.2809  0.0775
  507MOL0     H68425  -1.478   0.108   5.785  0.3994  0.4423  0.5095
  507MOL0     H68426  -1.401   0.246   5.715 -0.0061 -0.9644  0.0990
  507MOL0     H68427  -0.359   0.270   5.883  1.1466  0.2535  1.7733
  507MOL0     H68428  -0.132   0.290   5.857 -1.3745 -1.3024 -2.0078
  507MOL0     H68429   0.272   0.254   5.765  1.2709 -0.3928  1.4620
  507MOL0     H68430   0.513   0.301   5.810 -0.8619  0.8094  3.3051
  507MOL0     H68431   2.314   0.562   6.672  1.2413 -0.0836 -0.3783
  507MOL0     H68432   2.474   0.642   6.829  0.6779  1.4201 -0.2910
  507MOL0     H68433   2.778   0.983   6.920  2.7181  0.6636  0.8447
  507MOL0     H68434   2.952   1.083   7.050  0.1860  0.3076  0.5396
  507MOL0     H68435   3.077   1.165   7.202  0.3473  1.1729 -1.5789
  507MOL0     H68436   2.994   1.312   7.195  1.4826  1.0044 -0.3114
  507MOL0     H68437   3.143   1.224   7.447 -1.4462 -1.0617  0.0523
  507MOL0     H68438   3.059   1.379   7.419 -0.5867 -0.7101 -0.3317
  507MOL0     H68439   3.190   1.439   7.238  0.0074 -1.5500 -1.3765
  507MOL0     H68440   3.294   1.295   7.249 -0.1365 -1.4006  1.1870
  507MOL0     H68441   3.397   1.335   7.469 -0.0231 -0.9131 -0.4150
  507MOL0     H68442   3.259   1.443   7.500 -0.7400 -0.8583  0.3896
  507MOL0     H68443   3.595   1.670   7.364  0.2510 -0.3090 -3.9595
  507MOL0     H68444   2.654   1.154   7.362 -2.2953 -3.3867  1.2616
  507MOL0     H68445   2.488   1.070   7.213  0.1929  1.3176 -0.5668
  508MOL0     O68446   0.897   2.061   6.231 -0.0459  0.7474 -0.4075
  508MOL0     C68447   0.960   1.978   6.165 -0.0085 -0.0361  0.4695
  508MOL0     O68448   0.906   1.864   6.115 -0.8106  0.3077 -0.2090
  508MOL0     C68449   0.770   1.843   6.143  0.8314  0.7408 -0.0425
  508MOL0     C68450   0.747   1.742   6.245  1.2748 -0.7243  0.1257
  508MOL0     C68451   0.610   1.722   6.288 -0.3573 -0.0357  0.5193
  508MOL0     C68452   0.507   1.784   6.213 -0.9195  0.2260  0.6603
  508MOL0     O68453   0.375   1.756   6.246  0.2118  0.1459  0.0189
  508MOL0     C68454   0.338   1.678   6.364  0.3564  0.4684  0.8589
  508MOL0     C68455   0.190   1.695   6.401  0.4835 -0.0328  0.1032
  508MOL0     C68456   0.095   1.602   6.321  0.3227 -1.0680 -0.1943
  508MOL0     C68457   0.054   1.667   6.189 -0.2710 -0.0214  0.4070
  508MOL0     C68458  -0.063   1.601   6.114  0.4942 -0.2353 -0.0811
  508MOL0     C68459  -0.203   1.662   6.159 -0.0181 -0.0886 -0.2280
  508MOL0     C68460  -0.313   1.584   6.088  0.0925 -0.3304  0.3209
  508MOL0     C68461  -0.443   1.658   6.101  0.7145  0.2704  0.1735
  508MOL0     N68462  -0.566   1.577   6.072  0.3422 -0.0069 -0.4943
  508MOL0     C68463  -0.655   1.525   6.169 -0.7943  0.6268  0.4164
  508MOL0     C68464  -0.747   1.457   6.102  0.1168  0.5582 -0.3531
  508MOL0     C68465  -0.863   1.393   6.168  0.2912  0.0940 -0.5560
  508MOL0     C68466  -0.975   1.493   6.209 -0.2027 -0.3773 -0.4425
  508MOL0     C68467  -1.098   1.417   6.268  0.2352 -0.1386  0.0313
  508MOL0     C68468  -1.184   1.357   6.159  0.8712  0.3012  0.8575
  508MOL0     O68469  -1.303   1.297   6.224  0.4244 -0.1969  0.4852
  508MOL0     C68470  -1.404   1.259   6.135  0.3054  0.6644  0.3836
  508MOL0     C68471  -1.393   1.260   5.991 -0.1600  0.6803 -0.6214
  508MOL0     C68472  -1.499   1.217   5.904 -0.4218 -0.1509 -0.8394
  508MOL0     C68473  -1.467   1.231   5.760  0.7708  0.4924 -0.7261
  508MOL0     C68474  -1.617   1.162   5.958 -0.1351  0.4080 -0.0499
  508MOL0     C68475  -1.721   1.103   5.875 -0.4398 -0.3982 -0.2819
  508MOL0     O68476  -1.716   1.121   5.739 -0.6540 -0.6408 -0.6985
  508MOL0     C68477  -1.812   1.080   5.657  0.5862 -0.2002 -0.2095
  508MOL0     C68478  -1.911   1.176   5.641  1.0226  0.1176 -0.2940
  508MOL0     C68479  -2.023   1.137   5.566  0.3374 -0.7537  0.0059
  508MOL0     C68480  -2.027   1.014   5.498  0.7075  0.1356 -0.0125
  508MOL0     O68481  -2.130   0.989   5.411 -0.1827  0.3134 -0.0563
  508MOL0     C68482  -2.146   0.859   5.355  0.2313  0.3356  0.4833
  508MOL0     C68483  -2.282   0.832   5.296  0.2152  0.8844  0.1977
  508MOL0     C68484  -2.344   0.934   5.196  0.3132  0.4169 -0.5974
  508MOL0     C68485  -2.426   0.850   5.084 -0.4099  0.6502 -0.6520
  508MOL0     C68486  -2.521   0.939   5.009  0.3826 -0.4561  0.4620
  508MOL0     C68487  -2.639   0.861   4.948  0.1161 -0.6018 -0.3863
  508MOL0     C68488  -2.671   0.934   4.815  0.2479 -0.4618  0.0717
  508MOL0     C68489  -2.693   1.089   4.814  0.2765  0.6197  0.4761
  508MOL0    Cl68490  -2.809   1.120   4.958 -0.1643 -0.4306  0.2140
  508MOL0     C68491  -1.917   0.920   5.524  0.8942 -0.1976 -0.3366
  508MOL0     C68492  -1.809   0.948   5.601 -0.7097 -0.1800 -0.3522
  508MOL0     O68493  -1.806   1.043   5.931  0.6921  0.2873 -0.1542
  508MOL0     C68494  -1.624   1.149   6.099  0.2808  0.4910 -0.2203
  508MOL0     C68495  -1.523   1.196   6.186 -0.2896 -0.4209  0.1070
  508MOL0     N68496  -0.718   1.464   5.964 -0.7040  0.4562 -0.3434
  508MOL0     N68497  -0.614   1.538   5.953 -0.4462  0.1402 -0.1361
  508MOL0     C68498   0.535   1.873   6.112  0.3265 -0.4002 -0.2335
  508MOL0     C68499   0.665   1.908   6.073 -0.7210  0.2543 -0.9048
  508MOL0     C68500   1.107   2.007   6.144 -0.2381 -0.7069 -0.2238
  508MOL0     C68501   1.195   1.952   6.052  0.4835  0.3203  0.6066
  508MOL0     C68502   1.326   1.990   6.043  0.0274 -0.9280 -0.2598
  508MOL0     C68503   1.390   2.068   6.144  0.0095 -0.1689  0.6683
  508MOL0     O68504   1.521   2.119   6.152 -0.3596 -0.7160 -0.3480
  508MOL0     C68505   1.605   2.113   6.039  0.0414 -0.8573  0.2282
  508MOL0     C68506   1.582   2.229   5.927 -0.6531  0.4534 -0.2148
  508MOL0     C68507   1.638   2.372   5.968  0.1894  0.5452  0.0777
  508MOL0     C68508   1.782   2.390   6.009 -0.4407  0.8991  0.2156
  508MOL0     C68509   1.868   2.336   5.899 -0.3552 -0.0565  0.5113
  508MOL0     C68510   1.940   2.291   5.815 -0.2365  1.1341 -0.5685
  508MOL0     C68511   1.306   2.108   6.248 -0.4614  0.5851 -0.1233
  508MOL0     C68512   1.174   2.087   6.246 -0.3833  0.4261 -0.5103
  508MOL0     H68513   0.829   1.692   6.296  2.6687  1.2407 -0.0752
  508MOL0     H68514   0.593   1.633   6.348 -0.7374 -1.1708 -1.2013
  508MOL0     H68515   0.359   1.572   6.348  0.7866  0.7614 -0.6559
  508MOL0     H68516   0.401   1.704   6.449  1.9247 -0.0170 -0.1273
  508MOL0     H68517   0.168   1.687   6.508  0.8283  1.9019  0.3537
  508MOL0     H68518   0.165   1.799   6.382 -2.5465 -0.7877 -0.5459
  508MOL0     H68519   0.143   1.506   6.302 -1.2185 -2.5044  2.4879
  508MOL0     H68520   0.005   1.590   6.382  0.0493  2.6436  0.3604
  508MOL0     H68521   0.043   1.775   6.197  0.4555  0.1336 -0.4876
  508MOL0     H68522   0.147   1.656   6.131 -0.2614 -0.8295  0.5680
  508MOL0     H68523  -0.046   1.620   6.007 -1.0258 -0.9629 -0.4687
  508MOL0     H68524  -0.055   1.496   6.143  0.4038 -0.4652 -0.8635
  508MOL0     H68525  -0.211   1.655   6.268 -0.0931 -3.7495 -0.3341
  508MOL0     H68526  -0.202   1.766   6.128  1.7181  1.1273  3.3108
  508MOL0     H68527  -0.289   1.585   5.982  0.0987  0.7594  0.3255
  508MOL0     H68528  -0.326   1.479   6.119  2.0636 -0.9171 -0.6656
  508MOL0     H68529  -0.434   1.748   6.040 -2.0419 -0.0068 -0.7983
  508MOL0     H68530  -0.444   1.694   6.205  0.9287 -2.0275  1.0181
  508MOL0     H68531  -0.638   1.530   6.276  0.3925 -0.6989  0.3264
  508MOL0     H68532  -0.903   1.311   6.108 -0.5514 -0.0069  0.1203
  508MOL0     H68533  -0.813   1.350   6.256 -2.6455  0.7742  1.6025
  508MOL0     H68534  -1.008   1.562   6.131  0.3120  1.4024  0.8361
  508MOL0     H68535  -0.929   1.550   6.291 -0.3925 -0.4621 -0.2768
  508MOL0     H68536  -1.163   1.483   6.326 -2.1668 -0.5859 -1.9337
  508MOL0     H68537  -1.075   1.334   6.336  0.7571  2.3333  3.0755
  508MOL0     H68538  -1.132   1.286   6.095 -2.4857  0.1774 -2.0716
  508MOL0     H68539  -1.223   1.442   6.102  1.1934 -0.2587 -0.2171
  508MOL0     H68540  -1.296   1.293   5.955  2.7878 -3.3925  2.5522
  508MOL0     H68541  -1.470   1.137   5.705  1.3538  1.0018 -1.6462
  508MOL0     H68542  -1.536   1.299   5.711  0.8635 -0.2831 -1.9675
  508MOL0     H68543  -1.370   1.281   5.748  0.8371  0.3423 -0.8153
  508MOL0     H68544  -1.927   1.266   5.699 -2.3148 -1.2042  1.1183
  508MOL0     H68545  -2.101   1.211   5.550  1.5985  0.4600 -0.7453
  508MOL0     H68546  -2.077   0.846   5.272  0.4261 -0.0329  0.7030
  508MOL0     H68547  -2.128   0.783   5.431 -0.9784  0.4737  0.9380
  508MOL0     H68548  -2.274   0.737   5.243 -3.2720  2.0346 -2.8501
  508MOL0     H68549  -2.351   0.812   5.379  0.4802  1.3408  0.5364
  508MOL0     H68550  -2.271   0.998   5.146  2.5698  0.5606  2.5991
  508MOL0     H68551  -2.410   1.001   5.252 -2.7851 -2.7478 -0.1286
  508MOL0     H68552  -2.345   0.804   5.027  0.1997  2.6649 -1.5264
  508MOL0     H68553  -2.487   0.776   5.136  0.5157  0.3403  0.0140
  508MOL0     H68554  -2.471   0.992   4.927 -2.1198 -0.1619 -0.9775
  508MOL0     H68555  -2.562   1.015   5.076 -0.1678 -2.1246  2.1176
  508MOL0     H68556  -2.601   0.763   4.919 -1.4147 -1.6765  1.0926
  508MOL0     H68557  -2.727   0.841   5.009  1.2887 -0.6855  1.3307
  508MOL0     H68558  -2.764   0.898   4.770  1.4860 -0.2681 -2.8196
  508MOL0     H68559  -2.592   0.906   4.745  0.6944 -1.3130  0.8924
  508MOL0     H68560  -2.736   1.116   4.717  0.5376 -2.7632 -0.7186
  508MOL0     H68561  -2.596   1.136   4.825  1.0962 -0.9251  0.1466
  508MOL0     H68562  -1.911   0.824   5.472 -2.0637  0.8012 -2.8857
  508MOL0     H68563  -1.733   0.871   5.606  1.8958  2.2618  0.3947
  508MOL0     H68564  -1.710   1.104   6.149 -0.1612  0.9809 -0.5289
  508MOL0     H68565  -1.525   1.190   6.295  2.3329  3.8569  0.6192
  508MOL0     H68566   0.458   1.942   6.077  1.2230  2.5280  2.9809
  508MOL0     H68567   0.681   1.991   6.004  0.4796  0.4940 -0.3654
  508MOL0     H68568   1.162   1.872   5.986  1.0886  1.1563 -0.7395
  508MOL0     H68569   1.388   1.954   5.962  1.0156  2.7899 -1.3529
  508MOL0     H68570   1.705   2.135   6.077 -0.6146 -1.3468  2.3263
  508MOL0     H68571   1.601   2.018   5.986  0.8905 -1.4834  1.2440
  508MOL0     H68572   1.477   2.239   5.899 -1.0667 -1.6913  0.3962
  508MOL0     H68573   1.640   2.203   5.838  2.6724  0.4974  1.7612
  508MOL0     H68574   1.572   2.411   6.046 -1.5565 -0.0815 -1.0338
  508MOL0     H68575   1.614   2.442   5.888 -0.3836  0.5646  0.2592
  508MOL0     H68576   1.815   2.338   6.099  2.4894  0.2765 -1.0905
  508MOL0     H68577   1.812   2.493   6.028  1.0911  0.2975  1.2164
  508MOL0     H68578   2.004   2.243   5.744 -0.3283  0.3477 -0.1407
  508MOL0     H68579   1.346   2.172   6.325 -1.2812  0.2877  0.5650
  508MOL0     H68580   1.122   2.138   6.327 -2.3618 -2.3608  0.1361
  509MOL0     O68581  10.878   5.533   1.110  0.4770 -0.2654  0.1557
  509MOL0     C68582  10.888   5.506   1.231 -0.2490 -0.7564  0.2896
  509MOL0     O68583  10.783   5.474   1.313 -1.0087 -0.4470  0.2892
  509MOL0     C68584  10.663   5.473   1.258 -0.0402 -0.3979 -0.5743
  509MOL0     C68585  10.609   5.348   1.224  0.6901  1.0030  0.4804
  509MOL0     C68586  10.477   5.348   1.180 -1.0549  0.2934  0.3234
  509MOL0     C68587  10.408   5.469   1.182 -0.1013  0.3323  1.1236
  509MOL0     O68588  10.279   5.491   1.146  0.0540  0.2350 -0.5264
  509MOL0     C68589  10.200   5.376   1.092  0.3556  0.1375 -0.1292
  509MOL0     C68590  10.055   5.413   1.086 -0.0907  0.2189  0.1439
  509MOL0     C68591  10.038   5.527   0.991  0.9315  0.0100  1.0228
  509MOL0     C68592   9.888   5.555   0.971 -0.1043  0.9790  0.8938
  509MOL0     C68593   9.833   5.491   0.837  0.4055  0.2866  0.0073
  509MOL0     C68594   9.691   5.536   0.808 -0.3209 -0.2154 -0.1064
  509MOL0     C68595   9.636   5.462   0.685 -0.3303 -0.3905 -0.4122
  509MOL0     C68596   9.480   5.496   0.668 -0.5929  0.6849 -0.5659
  509MOL0     N68597   9.424   5.387   0.592  0.6241 -0.1562 -0.4114
  509MOL0     C68598   9.317   5.401   0.506 -0.0117  0.4071  0.2046
  509MOL0     C68599   9.267   5.277   0.479  0.3989 -0.4418 -0.0134
  509MOL0     C68600   9.144   5.240   0.399  0.2536  0.7308 -0.2567
  509MOL0     C68601   9.056   5.156   0.484  0.4119 -0.7708 -0.2746
  509MOL0     C68602   8.922   5.118   0.403 -0.0648 -0.3678  0.7815
  509MOL0     C68603   8.810   5.070   0.499 -0.0729 -0.4697  0.2705
  509MOL0     O68604   8.702   5.011   0.429 -0.6928  0.8370 -0.3157
  509MOL0     C68605   8.586   5.081   0.391 -1.0536  0.3112 -0.7235
  509MOL0     C68606   8.570   5.216   0.391  0.3547 -0.7972 -0.7532
  509MOL0     C68607   8.456   5.285   0.338 -0.6935  0.0754  0.7577
  509MOL0     C68608   8.458   5.436   0.348 -0.2954  0.0062  0.1523
  509MOL0     C68609   8.347   5.206   0.287 -0.2466  0.2574 -0.6021
  509MOL0     C68610   8.220   5.260   0.226  0.0401  0.1680  0.6593
  509MOL0     O68611   8.141   5.167   0.164 -0.2228  0.5311  0.8285
  509MOL0     C68612   8.009   5.187   0.118 -0.4819  1.1195 -0.1080
  509MOL0     C68613   7.993   5.241  -0.011 -0.1946 -0.3235 -0.4750
  509MOL0     C68614   7.872   5.236  -0.072  0.3732  0.2423 -0.1558
  509MOL0     C68615   7.767   5.168  -0.019  0.9199  0.5077 -0.7910
  509MOL0     O68616   7.661   5.141  -0.096 -0.4805 -0.0275  0.8219
  509MOL0     C68617   7.569   5.033  -0.058 -0.2907 -0.3699  0.8769
  509MOL0     C68618   7.474   5.001  -0.173 -0.0084  0.2761 -0.1544
  509MOL0     C68619   7.338   4.999  -0.108  0.0796  0.9007 -0.4300
  509MOL0     C68620   7.243   4.929  -0.207 -0.8357 -0.7792 -0.8245
  509MOL0     C68621   7.101   4.940  -0.154 -0.1363 -0.1336 -0.2142
  509MOL0     C68622   6.999   4.877  -0.243  0.8144  0.3023  0.4654
  509MOL0     C68623   6.994   4.715  -0.239 -0.5358 -0.4369 -0.6079
  509MOL0     C68624   6.857   4.667  -0.283 -0.1778 -0.7043 -0.3620
  509MOL0    Cl68625   6.825   4.745  -0.444  0.3423 -0.1406 -0.3075
  509MOL0     C68626   7.780   5.115   0.111  0.2157  0.1161 -0.3125
  509MOL0     C68627   7.902   5.121   0.175  0.0175 -0.7961 -0.6681
  509MOL0     O68628   8.186   5.376   0.243  0.4229 -0.0974  0.3087
  509MOL0     C68629   8.375   5.066   0.286 -0.2100  0.4770 -0.3018
  509MOL0     C68630   8.485   5.005   0.339  0.1447  0.1507 -0.3581
  509MOL0     N68631   9.351   5.191   0.537 -0.2331  0.2882 -0.0932
  509MOL0     N68632   9.434   5.252   0.605 -0.4971  0.1891  0.2414
  509MOL0     C68633  10.467   5.588   1.216  0.4440 -0.2660 -0.4511
  509MOL0     C68634  10.602   5.596   1.248  0.0552  0.1067 -0.0569
  509MOL0     C68635  11.024   5.509   1.296  0.5852 -0.4557  0.5877
  509MOL0     C68636  11.142   5.541   1.228  0.0377 -0.2601  0.2586
  509MOL0     C68637  11.263   5.539   1.295 -0.0156  0.0021 -1.0408
  509MOL0     C68638  11.272   5.501   1.431 -0.7372  0.1070 -0.0480
  509MOL0     O68639  11.395   5.506   1.506  0.7175 -0.4566 -0.0539
  509MOL0     C68640  11.513   5.530   1.441 -0.1421 -0.5823 -0.2005
  509MOL0     C68641  11.618   5.531   1.544 -0.7577  0.0212  0.5258
  509MOL0     C68642  11.766   5.555   1.496 -0.0296  0.6036 -0.2510
  509MOL0     C68643  11.854   5.580   1.608  0.1653  0.5405  0.3218
  509MOL0     C68644  11.986   5.622   1.560 -0.1722 -0.1553  0.1834
  509MOL0     C68645  12.100   5.633   1.528 -0.1784 -0.6008  0.2528
  509MOL0     C68646  11.156   5.483   1.504  0.2760  0.1635  0.2432
  509MOL0     C68647  11.036   5.470   1.430  0.0947 -0.1083  0.5929
  509MOL0     H68648  10.673   5.262   1.239 -1.5561 -1.1230 -1.2226
  509MOL0     H68649  10.421   5.260   1.150 -2.4182  1.1841  0.1760
  509MOL0     H68650  10.228   5.357   0.989 -2.4024 -1.5719 -0.6722
  509MOL0     H68651  10.216   5.290   1.158 -1.5427 -0.1153  0.0638
  509MOL0     H68652   9.995   5.328   1.051  1.4385  0.3928 -3.2942
  509MOL0     H68653  10.025   5.439   1.188  1.0756 -1.8712  1.0878
  509MOL0     H68654  10.085   5.617   1.032 -2.0750  1.6592  1.1000
  509MOL0     H68655  10.077   5.510   0.890 -3.1581  0.9663 -0.9132
  509MOL0     H68656   9.826   5.532   1.058  0.6056  1.5440  1.5643
  509MOL0     H68657   9.886   5.664   0.960  1.3075  1.0206  0.8347
  509MOL0     H68658   9.887   5.519   0.746  2.6361 -2.2306  0.4293
  509MOL0     H68659   9.836   5.381   0.838 -2.6132 -0.0283 -3.5717
  509MOL0     H68660   9.614   5.521   0.884  0.1313 -0.8378  0.2416
  509MOL0     H68661   9.697   5.641   0.777 -0.2938 -0.6640 -1.7579
  509MOL0     H68662   9.682   5.505   0.596  0.9602  0.4481  0.6200
  509MOL0     H68663   9.649   5.354   0.686  2.6580 -0.1375 -0.9929
  509MOL0     H68664   9.466   5.599   0.635  1.4789  0.7949 -1.2940
  509MOL0     H68665   9.437   5.480   0.767 -1.4966 -3.4812 -1.4626
  509MOL0     H68666   9.273   5.496   0.479  0.4251  0.6326  0.2951
  509MOL0     H68667   9.089   5.329   0.368 -0.9987  0.1262  0.1564
  509MOL0     H68668   9.178   5.196   0.305  1.1622  0.9097 -0.0206
  509MOL0     H68669   9.023   5.213   0.571 -0.2195  0.9742 -1.5966
  509MOL0     H68670   9.107   5.065   0.516 -1.5069 -2.1031 -0.8577
  509MOL0     H68671   8.948   5.046   0.326  0.4849  0.1478  0.4708
  509MOL0     H68672   8.889   5.211   0.356  1.5174 -0.7460 -1.1961
  509MOL0     H68673   8.777   5.145   0.570 -1.5897  0.9442 -1.8094
  509MOL0     H68674   8.840   4.986   0.562 -0.9551 -1.4795 -0.5988
  509MOL0     H68675   8.655   5.272   0.430  1.2526 -0.3971 -3.1397
  509MOL0     H68676   8.381   5.484   0.288  1.1668 -0.9504 -2.6821
  509MOL0     H68677   8.452   5.479   0.448  0.7069  1.5149 -0.3825
  509MOL0     H68678   8.552   5.473   0.304 -1.4032  0.0522 -2.3356
  509MOL0     H68679   8.081   5.288  -0.053 -0.5803 -0.1933 -1.1536
  509MOL0     H68680   7.854   5.267  -0.175 -1.1817  0.5651  0.1786
  509MOL0     H68681   7.625   4.942  -0.035  1.2516 -0.0358 -1.2715
  509MOL0     H68682   7.510   5.073   0.026  1.5572  0.9013  1.6414
  509MOL0     H68683   7.465   5.079  -0.250  0.9549 -1.1836 -1.8414
  509MOL0     H68684   7.497   4.912  -0.233 -1.5759  0.9204 -1.8352
  509MOL0     H68685   7.304   5.101  -0.087 -0.5925  0.3187  1.4609
  509MOL0     H68686   7.335   4.945  -0.013 -0.5419  4.2803  1.6144
  509MOL0     H68687   7.245   4.983  -0.302 -0.8427 -2.5566 -1.8820
  509MOL0     H68688   7.275   4.826  -0.224  0.7325 -0.8655  2.0465
  509MOL0     H68689   7.081   5.047  -0.152  2.7719  0.4636  1.2120
  509MOL0     H68690   7.079   4.898  -0.055 -0.7086  0.7563  0.0426
  509MOL0     H68691   6.900   4.918  -0.222  0.0531 -1.9026  1.4858
  509MOL0     H68692   7.030   4.898  -0.346  1.9457 -0.2658  0.6708
  509MOL0     H68693   7.012   4.682  -0.136  0.5236 -2.3665 -1.3701
  509MOL0     H68694   7.076   4.667  -0.293  4.0472  1.6359  3.7016
  509MOL0     H68695   6.784   4.685  -0.203  0.0625 -1.7152  0.1056
  509MOL0     H68696   6.859   4.560  -0.305  3.7790 -1.2991  1.9315
  509MOL0     H68697   7.702   5.062   0.165 -0.7951  1.5287 -0.3491
  509MOL0     H68698   7.915   5.062   0.265  0.5822  0.2268 -0.0555
  509MOL0     H68699   8.306   4.993   0.246 -1.3222  1.5212 -0.3332
  509MOL0     H68700   8.490   4.899   0.319 -0.6880 -0.0557  0.4652
  509MOL0     H68701  10.412   5.681   1.221  3.1732  1.5579 -1.6469
  509MOL0     H68702  10.660   5.685   1.270  2.7652 -0.5293 -3.5644
  509MOL0     H68703  11.131   5.573   1.125 -2.3357 -2.5862 -0.3080
  509MOL0     H68704  11.355   5.568   1.245 -0.8763  3.7717 -0.7667
  509MOL0     H68705  11.508   5.450   1.367 -1.8104 -0.8065  0.1141
  509MOL0     H68706  11.517   5.625   1.387 -2.9785  1.2541  2.4574
  509MOL0     H68707  11.626   5.435   1.596  1.0443 -1.8278 -2.7637
  509MOL0     H68708  11.598   5.610   1.616  1.0008 -1.1095  2.3292
  509MOL0     H68709  11.767   5.638   1.424  1.0394 -0.7868 -1.9119
  509MOL0     H68710  11.796   5.462   1.447 -2.1704  0.1159 -0.7366
  509MOL0     H68711  11.849   5.483   1.657 -0.9962  0.1852 -0.4585
  509MOL0     H68712  11.815   5.653   1.680 -1.2415 -0.3896  0.5286
  509MOL0     H68713  12.202   5.665   1.522 -0.7801  1.3419 -0.0164
  509MOL0     H68714  11.158   5.462   1.610  0.5537  0.8280  0.3784
  509MOL0     H68715  10.950   5.455   1.495  0.6946 -0.1954  1.3801
  510MOL0     O68716   2.366   2.243   7.802  0.2227 -0.2661  0.9254
  510MOL0     C68717   2.469   2.201   7.746 -0.0664  0.3958  1.7896
  510MOL0     O68718   2.525   2.259   7.626 -0.2638 -0.4840 -0.1155
  510MOL0     C68719   2.462   2.358   7.571 -0.0553  0.5029  0.4060
  510MOL0     C68720   2.504   2.485   7.599  0.5295  0.0158 -0.3410
  510MOL0     C68721   2.431   2.595   7.563  0.0011  0.5309  0.2391
  510MOL0     C68722   2.315   2.580   7.491 -0.3981  0.0915  0.8946
  510MOL0     O68723   2.247   2.700   7.468 -0.3032 -0.5149  0.3345
  510MOL0     C68724   2.299   2.770   7.357  0.0522 -0.4921 -0.0937
  510MOL0     C68725   2.240   2.738   7.218  0.4281  0.1178  0.6197
  510MOL0     C68726   2.091   2.775   7.231  0.4787  0.7780  0.7726
  510MOL0     C68727   1.983   2.674   7.188 -0.0239  0.5750 -0.3941
  510MOL0     C68728   1.844   2.712   7.240  0.3473  0.1561 -0.5545
  510MOL0     C68729   1.800   2.847   7.192  0.3719 -0.0242 -0.0307
  510MOL0     C68730   1.665   2.885   7.248  0.3226 -0.3664 -0.6018
  510MOL0     C68731   1.560   2.790   7.203 -0.7983  0.8068 -0.0966
  510MOL0     N68732   1.441   2.864   7.159  0.0970 -0.0782 -0.1398
  510MOL0     C68733   1.348   2.912   7.247  0.0495 -1.1584  0.2655
  510MOL0     C68734   1.263   2.989   7.166 -0.3286  0.0285 -0.7312
  510MOL0     C68735   1.145   3.070   7.201 -0.4194 -0.4116  0.6151
  510MOL0     C68736   1.015   2.980   7.194 -0.4243 -0.5633 -0.3912
  510MOL0     C68737   0.980   2.931   7.051 -0.5036  0.5212 -0.5879
  510MOL0     C68738   0.827   2.897   7.027 -0.6799 -0.1439 -0.2989
  510MOL0     O68739   0.769   2.819   7.137 -0.6899 -0.0410 -0.0232
  510MOL0     C68740   0.639   2.844   7.162 -0.0296  0.7678  0.1842
  510MOL0     C68741   0.582   2.964   7.207  0.4059 -0.2480 -0.1042
  510MOL0     C68742   0.448   2.977   7.230  0.0149 -0.3605  0.0421
  510MOL0     C68743   0.382   3.111   7.267 -0.2753  1.0050  0.6982
  510MOL0     C68744   0.362   2.868   7.211 -0.0975 -0.1186 -0.3905
  510MOL0     C68745   0.213   2.876   7.238  0.0619 -0.8225  0.4822
  510MOL0     O68746   0.137   2.765   7.218 -0.5599  1.2301  0.1224
  510MOL0     C68747   0.005   2.752   7.268 -0.7774 -0.4915 -0.5487
  510MOL0     C68748  -0.083   2.655   7.210 -0.4551 -0.4280 -0.6894
  510MOL0     C68749  -0.215   2.641   7.264 -0.5147 -0.6558  0.8614
  510MOL0     C68750  -0.266   2.714   7.368  0.4717  0.0801  0.7096
  510MOL0     O68751  -0.384   2.679   7.425  0.4173 -0.2531  0.4433
  510MOL0     C68752  -0.447   2.777   7.510 -0.1254 -0.1624  0.1901
  510MOL0     C68753  -0.588   2.742   7.529  0.5010 -0.2454 -0.3050
  510MOL0     C68754  -0.696   2.770   7.416 -0.2888  0.1521 -0.4654
  510MOL0     C68755  -0.826   2.691   7.435 -0.5997 -0.1713  0.3791
  510MOL0     C68756  -0.916   2.709   7.318 -0.0252  0.4368  0.4385
  510MOL0     C68757  -1.063   2.658   7.340 -0.1070 -0.4407 -0.2879
  510MOL0     C68758  -1.092   2.513   7.302  0.7625  0.2953  0.2028
  510MOL0     C68759  -0.995   2.403   7.337  0.1124  0.1336  0.3595
  510MOL0    Cl68760  -0.978   2.397   7.515  0.3103  0.4930 -0.1054
  510MOL0     C68761  -0.167   2.787   7.433  0.1083 -0.4147 -0.2393
  510MOL0     C68762  -0.043   2.812   7.381 -0.6368 -0.8939 -0.6531
  510MOL0     O68763   0.156   2.987   7.240 -1.0222  0.3264  0.7890
  510MOL0     C68764   0.416   2.741   7.184 -0.3925  0.0117 -0.0636
  510MOL0     C68765   0.555   2.734   7.152  0.4084 -0.0684 -0.3241
  510MOL0     N68766   1.310   2.981   7.038  0.2930 -0.5484 -0.7222
  510MOL0     N68767   1.415   2.911   7.041  0.5250  0.3421  0.5887
  510MOL0     C68768   2.275   2.451   7.451  1.2411  0.1775  1.0093
  510MOL0     C68769   2.344   2.344   7.494  0.0417 -0.4151 -0.4242
  510MOL0     C68770   2.550   2.088   7.798  0.9446 -0.3467  0.2804
  510MOL0     C68771   2.495   1.976   7.865  0.3032 -0.4217  0.4884
  510MOL0     C68772   2.571   1.867   7.912  0.4171  0.2583  0.4141
  510MOL0     C68773   2.708   1.869   7.893 -0.1959  1.0141  0.9447
  510MOL0     O68774   2.794   1.771   7.922  0.4997 -0.1151 -0.3248
  510MOL0     C68775   2.781   1.652   7.840  0.1057 -0.6650  0.3641
  510MOL0     C68776   2.824   1.670   7.691  0.5677  0.5677  0.2658
  510MOL0     C68777   2.974   1.693   7.696  0.3109 -0.5539 -0.2253
  510MOL0     C68778   3.027   1.706   7.556 -0.2637  0.2466 -0.5779
  510MOL0     C68779   3.171   1.744   7.559  0.2150 -0.5214  0.9773
  510MOL0     C68780   3.283   1.788   7.559 -0.5412  0.8492 -0.1089
  510MOL0     C68781   2.765   1.974   7.818  0.1332 -0.0497  0.0461
  510MOL0     C68782   2.688   2.088   7.770 -0.9308  0.0106  0.2242
  510MOL0     H68783   2.599   2.496   7.650  2.6968 -0.8606 -3.8580
  510MOL0     H68784   2.463   2.694   7.594  2.0016 -0.0610  0.1707
  510MOL0     H68785   2.283   2.874   7.387  2.2773  0.0349 -0.5493
  510MOL0     H68786   2.409   2.765   7.355 -0.0025 -1.8810 -0.5558
  510MOL0     H68787   2.280   2.796   7.134 -1.3530 -0.8471 -0.9592
  510MOL0     H68788   2.254   2.630   7.206 -1.3199 -0.4590  3.0277
  510MOL0     H68789   2.064   2.802   7.334 -1.1928  0.7452  0.3656
  510MOL0     H68790   2.074   2.864   7.170 -0.2560  1.4276  1.8952
  510MOL0     H68791   1.986   2.652   7.081 -0.2757 -2.3354  0.1127
  510MOL0     H68792   2.009   2.579   7.234 -1.1669  0.7469  0.6590
  510MOL0     H68793   1.781   2.636   7.192 -1.4423  1.1054  0.2094
  510MOL0     H68794   1.820   2.701   7.346 -0.4502 -1.3428 -0.8592
  510MOL0     H68795   1.867   2.918   7.242 -0.7119 -1.5202  3.9388
  510MOL0     H68796   1.815   2.874   7.087 -0.5282 -1.3977 -0.5387
  510MOL0     H68797   1.663   2.896   7.357  2.4678 -0.8359 -0.4627
  510MOL0     H68798   1.639   2.976   7.193 -1.0998 -1.8931 -2.5985
  510MOL0     H68799   1.555   2.719   7.286  1.6218  1.5364  0.7480
  510MOL0     H68800   1.598   2.726   7.122 -1.1254 -1.1937  1.2664
  510MOL0     H68801   1.346   2.905   7.355  3.4923  3.2788  0.8751
  510MOL0     H68802   1.160   3.115   7.299  0.6438  0.9433 -0.1337
  510MOL0     H68803   1.138   3.155   7.132  2.1639  0.3010  1.1359
  510MOL0     H68804   0.930   3.044   7.221 -0.6896 -0.0345 -2.3197
  510MOL0     H68805   1.022   2.901   7.270  2.4562  0.3454  0.3765
  510MOL0     H68806   1.051   2.848   7.043  0.7459  1.0602  3.0863
  510MOL0     H68807   1.017   3.009   6.985 -1.3940  1.9722  0.5500
  510MOL0     H68808   0.821   2.838   6.935  1.4048 -1.4770  0.3408
  510MOL0     H68809   0.776   2.993   7.019 -2.3837 -0.7475  2.2027
  510MOL0     H68810   0.645   3.052   7.214 -1.9438  1.5585 -0.4554
  510MOL0     H68811   0.315   3.104   7.354 -2.7772  2.4364 -0.9773
  510MOL0     H68812   0.458   3.187   7.288  1.0182 -0.4867  1.6168
  510MOL0     H68813   0.317   3.155   7.191 -1.5549  0.1609  1.2648
  510MOL0     H68814  -0.050   2.611   7.116  3.4624  0.9520 -0.1707
  510MOL0     H68815  -0.287   2.573   7.221  1.7119 -1.4105 -2.0757
  510MOL0     H68816  -0.409   2.769   7.612  0.5746  1.8465  0.1287
  510MOL0     H68817  -0.433   2.881   7.477  4.4621  0.1372  2.3294
  510MOL0     H68818  -0.578   2.634   7.539 -0.1678 -0.3077 -0.2863
  510MOL0     H68819  -0.631   2.793   7.615 -3.3146 -0.6454 -1.7765
  510MOL0     H68820  -0.647   2.743   7.322  0.8057  1.1569 -0.1970
  510MOL0     H68821  -0.713   2.878   7.414 -0.3724  0.1366 -2.0202
  510MOL0     H68822  -0.796   2.587   7.450  0.1725 -0.0883 -0.4799
  510MOL0     H68823  -0.872   2.727   7.527  2.1351  0.5818  1.5707
  510MOL0     H68824  -0.877   2.679   7.220  2.1259  0.7458  1.1505
  510MOL0     H68825  -0.926   2.816   7.299  1.1330  0.6264  0.8487
  510MOL0     H68826  -1.099   2.686   7.439 -0.6180  1.7312 -1.0502
  510MOL0     H68827  -1.124   2.724   7.278 -1.4502 -1.0607  0.3542
  510MOL0     H68828  -1.107   2.501   7.194 -0.8451 -1.5672  0.5761
  510MOL0     H68829  -1.188   2.488   7.347  0.4887  3.3874  1.6126
  510MOL0     H68830  -0.906   2.415   7.275 -0.2570  0.9702 -0.0293
  510MOL0     H68831  -1.036   2.305   7.309  1.0145  0.8426 -4.3030
  510MOL0     H68832  -0.186   2.841   7.525 -2.9365  1.6309 -1.9159
  510MOL0     H68833   0.022   2.874   7.442  0.5722 -3.5731  0.9124
  510MOL0     H68834   0.349   2.655   7.172 -2.4259  1.6605 -1.3418
  510MOL0     H68835   0.601   2.638   7.132 -2.1493 -1.2231 -0.9669
  510MOL0     H68836   2.184   2.436   7.393  1.7735 -0.0452  0.2169
  510MOL0     H68837   2.311   2.241   7.481 -0.4422 -0.5573  1.6540
  510MOL0     H68838   2.391   1.970   7.895  0.4652  0.1988  1.2156
  510MOL0     H68839   2.533   1.790   7.978 -2.1199  0.3236 -0.8598
  510MOL0     H68840   2.846   1.573   7.879 -1.5233 -2.6292 -0.7230
  510MOL0     H68841   2.681   1.610   7.830  1.0694 -3.0783  0.3075
  510MOL0     H68842   2.760   1.744   7.643 -0.8884 -0.5000  0.4877
  510MOL0     H68843   2.807   1.570   7.650 -1.0279  0.5839  0.8073
  510MOL0     H68844   3.028   1.607   7.735  0.7165  0.1024  0.7017
  510MOL0     H68845   2.994   1.779   7.761  0.5182 -1.6775  1.2469
  510MOL0     H68846   2.964   1.777   7.502 -0.8954  1.3067  1.4489
  510MOL0     H68847   3.019   1.606   7.513  0.6625  0.4553 -1.2797
  510MOL0     H68848   3.383   1.828   7.553  0.6092 -1.3598  2.2961
  510MOL0     H68849   2.867   1.954   7.787 -0.5607 -1.8597 -1.2409
  510MOL0     H68850   2.738   2.172   7.723 -3.9974  1.0689 -1.4144
  511MOL0     O68851   7.051  10.645   4.034 -0.2385 -0.0652  0.1688
  511MOL0     C68852   7.064  10.526   4.004  0.1797  0.1979  0.2197
  511MOL0     O68853   6.959  10.442   3.974  0.3412  0.3826  0.0206
  511MOL0     C68854   6.843  10.497   3.987  0.2012 -0.7570 -0.2242
  511MOL0     C68855   6.783  10.578   3.884  0.6742  0.2731 -0.0990
  511MOL0     C68856   6.659  10.641   3.915 -0.7137 -0.5283 -0.6141
  511MOL0     C68857   6.595  10.628   4.041  0.4845  0.3037  0.5522
  511MOL0     O68858   6.482  10.693   4.059  0.0105 -0.7369 -1.3367
  511MOL0     C68859   6.504  10.838   4.037  0.6320  0.3249  0.4544
  511MOL0     C68860   6.394  10.909   4.121 -0.2278 -0.6280  0.1092
  511MOL0     C68861   6.253  10.906   4.065 -0.1354 -0.3649  0.4690
  511MOL0     C68862   6.143  10.923   4.170 -0.0622  0.0214  0.6508
  511MOL0     C68863   6.123  10.801   4.263 -0.4728  0.3436  0.1442
  511MOL0     C68864   6.049  10.684   4.195 -0.4629 -0.2453  0.9664
  511MOL0     C68865   6.060  10.561   4.279 -0.4267 -0.6180  0.2877
  511MOL0     C68866   6.024  10.424   4.209 -0.0871 -0.4804 -0.3397
  511MOL0     N68867   5.880  10.392   4.212 -0.2629 -0.0057  0.3465
  511MOL0     C68868   5.832  10.269   4.251  0.2762  0.7521 -0.1319
  511MOL0     C68869   5.698  10.289   4.264 -0.4967 -0.2468  0.3386
  511MOL0     C68870   5.592  10.187   4.318 -0.2306 -0.8175  0.2806
  511MOL0     C68871   5.480  10.164   4.215 -0.6569 -0.0352 -0.5313
  511MOL0     C68872   5.522  10.132   4.072  0.0152 -0.2869 -0.0472
  511MOL0     C68873   5.400  10.080   3.989 -0.2178  0.5945 -0.3450
  511MOL0     O68874   5.448  10.027   3.869 -0.2398 -0.1996 -0.0506
  511MOL0     C68875   5.470  10.101   3.759 -0.1286 -0.0023  0.4256
  511MOL0     C68876   5.531  10.033   3.649  0.2625  0.6649  0.1585
  511MOL0     C68877   5.561  10.100   3.527  0.4804 -0.7432 -0.2458
  511MOL0     C68878   5.640  10.029   3.425 -0.2920 -0.0357  0.3948
  511MOL0     C68879   5.535  10.239   3.514  0.7749  0.3080  0.4694
  511MOL0     C68880   5.596  10.334   3.413 -0.1671  0.0396 -0.0505
  511MOL0     O68881   5.524  10.443   3.386  0.7342 -1.0547  0.0426
  511MOL0     C68882   5.595  10.543   3.334  0.7641 -0.0691 -0.3471
  511MOL0     C68883   5.649  10.642   3.411  0.2051  0.0530 -0.0793
  511MOL0     C68884   5.702  10.756   3.346 -0.0614 -0.7145 -0.2659
  511MOL0     C68885   5.712  10.765   3.203  0.0375 -0.3816 -0.3320
  511MOL0     O68886   5.774  10.875   3.149 -0.2451 -0.0309  0.0215
  511MOL0     C68887   5.687  10.951   3.068 -1.1678  0.0384  0.2721
  511MOL0     C68888   5.744  10.957   2.920 -0.0729  1.2779 -0.3128
  511MOL0     C68889   5.901  10.962   2.901  0.2970  0.7520  0.1457
  511MOL0     C68890   5.938  10.990   2.759 -0.1154  0.0846  0.1273
  511MOL0     C68891   6.089  10.992   2.737 -0.0055 -0.9409  0.1362
  511MOL0     C68892   6.139  11.101   2.644  0.4829  0.5028 -0.1636
  511MOL0     C68893   6.283  11.098   2.593  0.6433 -0.5701 -0.8296
  511MOL0     C68894   6.311  11.227   2.527 -0.0876  0.4664  0.3991
  511MOL0    Cl68895   6.479  11.221   2.492  0.0113  0.2829 -0.2725
  511MOL0     C68896   5.657  10.668   3.126 -0.3765 -0.3954  0.3765
  511MOL0     C68897   5.595  10.555   3.188 -0.3556  0.6676 -0.0120
  511MOL0     O68898   5.707  10.306   3.364 -0.6072 -0.7009 -0.7798
  511MOL0     C68899   5.476  10.306   3.625  0.1820 -0.2624  0.3649
  511MOL0     C68900   5.441  10.230   3.738  0.0785  0.1420 -0.1095
  511MOL0     N68901   5.668  10.416   4.218 -0.2363 -1.1761 -0.1828
  511MOL0     N68902   5.778  10.476   4.190 -0.3421  0.0574 -0.3786
  511MOL0     C68903   6.649  10.538   4.133  0.7037 -0.0848  0.3944
  511MOL0     C68904   6.768  10.471   4.104  0.2025  0.0284 -0.2621
  511MOL0     C68905   7.206  10.500   3.984 -0.5188  0.3159  0.1723
  511MOL0     C68906   7.248  10.423   3.876 -0.7073  0.9652 -0.2208
  511MOL0     C68907   7.384  10.393   3.848 -1.2188 -0.2585  0.1942
  511MOL0     C68908   7.484  10.472   3.907 -0.8353  0.7565  0.5456
  511MOL0     O68909   7.612  10.445   3.853 -0.1375 -0.1846  0.8511
  511MOL0     C68910   7.717  10.532   3.892 -0.1446 -0.6034  0.6173
  511MOL0     C68911   7.693  10.676   3.844 -0.1522  0.8077  0.5054
  511MOL0     C68912   7.603  10.691   3.726  0.5975 -0.5138 -0.4415
  511MOL0     C68913   7.624  10.838   3.676 -1.3009 -0.0733  0.8057
  511MOL0     C68914   7.568  10.850   3.538 -0.0321 -0.9495 -1.2614
  511MOL0     C68915   7.523  10.871   3.429  0.6065 -0.4340  0.1497
  511MOL0     C68916   7.447  10.546   4.015  0.4156  0.2280 -0.9404
  511MOL0     C68917   7.311  10.557   4.054 -0.0670  0.0246 -0.6947
  511MOL0     H68918   6.823  10.596   3.785 -0.6666  1.4779 -0.4602
  511MOL0     H68919   6.615  10.703   3.837 -2.4806 -0.6490  0.2627
  511MOL0     H68920   6.600  10.874   4.076 -0.2657  2.3444  0.9368
  511MOL0     H68921   6.502  10.866   3.931  2.0198  0.5651  0.4749
  511MOL0     H68922   6.398  10.857   4.217  2.5202 -3.4934 -1.3902
  511MOL0     H68923   6.435  11.009   4.139  2.1240 -1.6752  0.9457
  511MOL0     H68924   6.238  10.984   3.989  0.4952 -1.3169 -0.6714
  511MOL0     H68925   6.248  10.811   4.012  4.2909 -0.8385  0.5229
  511MOL0     H68926   6.160  11.011   4.233  4.7825  0.0002 -0.2352
  511MOL0     H68927   6.046  10.939   4.121 -1.3186 -1.2850  2.5377
  511MOL0     H68928   6.223  10.776   4.300 -0.4598  1.0383  0.5834
  511MOL0     H68929   6.056  10.839   4.341 -1.8726 -3.0466  0.7821
  511MOL0     H68930   5.948  10.725   4.181  0.0863  0.7336 -0.3141
  511MOL0     H68931   6.082  10.655   4.095  0.9332  3.1013  0.3477
  511MOL0     H68932   6.158  10.557   4.329 -0.9500 -2.3336  1.2970
  511MOL0     H68933   5.992  10.576   4.363  0.9144  0.0286  1.3087
  511MOL0     H68934   6.077  10.349   4.267  1.6441  0.8085 -0.1656
  511MOL0     H68935   6.070  10.425   4.109 -0.0775 -0.1250 -0.3339
  511MOL0     H68936   5.905  10.192   4.276  0.7394  1.3737  0.4821
  511MOL0     H68937   5.640  10.094   4.347 -2.5327 -2.4231 -0.7333
  511MOL0     H68938   5.545  10.226   4.408  1.9295 -1.0262  1.5674
  511MOL0     H68939   5.427  10.260   4.206  0.8698  0.7262 -2.0069
  511MOL0     H68940   5.414  10.086   4.254 -1.5683  0.8276 -0.2873
  511MOL0     H68941   5.600  10.055   4.069  1.1992  0.7790  1.6029
  511MOL0     H68942   5.554  10.228   4.029  1.4587 -0.3616  0.8005
  511MOL0     H68943   5.344  10.174   3.986 -1.1849  0.0782  0.6613
  511MOL0     H68944   5.341  10.010   4.048 -1.2937  2.5287  0.9908
  511MOL0     H68945   5.567   9.931   3.660 -0.0409  0.5018 -0.3361
  511MOL0     H68946   5.745  10.048   3.447 -0.3468  1.2415 -0.3223
  511MOL0     H68947   5.617   9.922   3.427  0.1804 -0.1288  2.2562
  511MOL0     H68948   5.603  10.070   3.330 -1.3942 -0.3933  0.6507
  511MOL0     H68949   5.661  10.648   3.518  1.3944  2.5105 -0.2756
  511MOL0     H68950   5.747  10.843   3.394 -1.7852 -0.2575  0.5926
  511MOL0     H68951   5.585  10.913   3.076 -0.3994 -1.7581  2.1904
  511MOL0     H68952   5.687  11.054   3.104  1.3312 -0.0580  0.7453
  511MOL0     H68953   5.715  10.857   2.887  1.0419  0.0757  2.1053
  511MOL0     H68954   5.691  11.035   2.866 -2.4613 -0.5992 -0.8282
  511MOL0     H68955   5.942  10.864   2.925  1.0086  0.4589 -2.0207
  511MOL0     H68956   5.945  11.039   2.964  2.2131 -1.1124  1.2183
  511MOL0     H68957   5.882  10.931   2.685  0.9392  0.0837 -0.6851
  511MOL0     H68958   5.907  11.094   2.747  0.3956  0.0600 -1.7468
  511MOL0     H68959   6.122  10.893   2.704 -0.1902 -0.9607  0.0079
  511MOL0     H68960   6.142  11.014   2.830 -1.3932 -1.7024  1.1396
  511MOL0     H68961   6.064  11.127   2.568 -0.3885  1.3804  0.9636
  511MOL0     H68962   6.129  11.194   2.701 -2.6800 -0.6092  1.3489
  511MOL0     H68963   6.302  11.013   2.527  1.1315  0.7843 -2.4954
  511MOL0     H68964   6.343  11.089   2.684  0.0480  0.8529 -0.2635
  511MOL0     H68965   6.286  11.306   2.598 -1.5629 -0.4378  0.9359
  511MOL0     H68966   6.248  11.236   2.438  2.1297 -2.8439 -1.7279
  511MOL0     H68967   5.645  10.666   3.018 -0.9138 -0.9693  0.4375
  511MOL0     H68968   5.538  10.481   3.134 -0.9855  0.6026  0.7282
  511MOL0     H68969   5.458  10.413   3.616  1.3920 -0.1697 -1.3436
  511MOL0     H68970   5.381  10.283   3.812 -0.3116 -0.4475  0.0039
  511MOL0     H68971   6.607  10.530   4.233  0.3632  0.0147  0.2635
  511MOL0     H68972   6.815  10.402   4.173 -0.1365 -0.1456 -0.2031
  511MOL0     H68973   7.175  10.371   3.814 -1.5744  0.7236  0.9582
  511MOL0     H68974   7.415  10.327   3.768 -1.1532  0.5858 -0.4926
  511MOL0     H68975   7.721  10.531   4.001 -2.5442  1.0489  0.8056
  511MOL0     H68976   7.804  10.486   3.845 -1.7871 -1.0020 -2.2888
  511MOL0     H68977   7.789  10.724   3.822 -1.0641  1.6195 -2.0579
  511MOL0     H68978   7.643  10.721   3.930 -0.1885  3.1589 -0.6548
  511MOL0     H68979   7.498  10.681   3.754  0.6123 -0.2347 -0.2827
  511MOL0     H68980   7.629  10.621   3.647  0.2589  2.0513 -2.9896
  511MOL0     H68981   7.729  10.868   3.668 -0.8354 -2.0111 -1.6233
  511MOL0     H68982   7.565  10.906   3.739 -2.6385  0.5020 -1.0047
  511MOL0     H68983   7.482  10.895   3.333  3.6483  0.9991 -0.9375
  511MOL0     H68984   7.513  10.585   4.092 -0.4483 -1.9901  1.0355
  511MOL0     H68985   7.293  10.625   4.137 -1.2999  0.9437 -1.6702
  512MOL0     O68986   1.715   5.010   5.319  0.0360  0.8920  1.0506
  512MOL0     C68987   1.788   4.932   5.253  0.3713  1.0116 -0.0470
  512MOL0     O68988   1.751   4.809   5.198  0.0151  0.6618 -0.4753
  512MOL0     C68989   1.617   4.763   5.182  0.0125 -0.4986 -0.2537
  512MOL0     C68990   1.493   4.822   5.224  0.2562  0.1603 -0.2148
  512MOL0     C68991   1.374   4.764   5.194 -0.0057 -0.1379 -0.2785
  512MOL0     C68992   1.370   4.650   5.124  0.1644  0.7055 -0.4142
  512MOL0     O68993   1.249   4.582   5.084  0.2039  0.1694 -0.1519
  512MOL0     C68994   1.123   4.646   5.118 -0.7974 -0.3122 -0.2153
  512MOL0     C68995   1.009   4.566   5.063 -0.1549  0.7145 -0.5263
  512MOL0     C68996   0.886   4.650   5.048 -0.3191 -0.4959  0.4324
  512MOL0     C68997   0.764   4.569   5.001  0.1721 -0.5275  0.1319
  512MOL0     C68998   0.658   4.667   4.938  0.3281 -0.5260  0.3696
  512MOL0     C68999   0.517   4.606   4.936  0.3347  0.3094 -0.2898
  512MOL0     C69000   0.408   4.714   4.895 -0.8330  0.0522 -0.2185
  512MOL0     C69001   0.266   4.669   4.913  0.1666  0.6988  0.2647
  512MOL0     N69002   0.220   4.589   4.799 -0.0858  0.8550 -0.6197
  512MOL0     C69003   0.166   4.646   4.687  0.6650 -0.9811 -0.0463
  512MOL0     C69004   0.123   4.542   4.614  0.5078 -0.8100 -0.1520
  512MOL0     C69005   0.063   4.554   4.477  0.7898 -0.0455  0.2787
  512MOL0     C69006  -0.095   4.555   4.483 -0.4586  0.4964  0.1899
  512MOL0     C69007  -0.157   4.422   4.532 -1.0408 -0.2644  0.3720
  512MOL0     C69008  -0.313   4.412   4.510 -0.3646  0.1835 -0.3302
  512MOL0     O69009  -0.354   4.494   4.395 -0.0110 -0.0026 -0.3213
  512MOL0     C69010  -0.485   4.500   4.357 -0.2016  0.4893  0.1503
  512MOL0     C69011  -0.506   4.580   4.247  0.1039  0.9251  0.4130
  512MOL0     C69012  -0.636   4.604   4.198  0.1772  0.5010  0.0192
  512MOL0     C69013  -0.640   4.689   4.072  0.8493 -0.0400  0.4885
  512MOL0     C69014  -0.742   4.540   4.260  0.1801  0.0477  0.6499
  512MOL0     C69015  -0.884   4.543   4.204 -0.4445  0.9349 -0.5790
  512MOL0     O69016  -0.978   4.460   4.270 -0.1234 -0.6622 -0.3649
  512MOL0     C69017  -1.093   4.444   4.198  0.7202  0.5178  0.2641
  512MOL0     C69018  -1.207   4.519   4.208  0.0182  0.2376 -0.7837
  512MOL0     C69019  -1.323   4.502   4.134  1.1824  1.1642  0.2126
  512MOL0     C69020  -1.317   4.412   4.028  0.1911  0.0557 -0.6078
  512MOL0     O69021  -1.426   4.397   3.950  0.0303 -0.1264 -0.0973
  512MOL0     C69022  -1.465   4.262   3.936  0.9308 -0.8385 -0.6529
  512MOL0     C69023  -1.501   4.238   3.791  0.5790 -0.2807  0.0486
  512MOL0     C69024  -1.633   4.307   3.752 -0.0782  0.4411 -0.0168
  512MOL0     C69025  -1.682   4.235   3.626  0.3004  0.1372 -0.0141
  512MOL0     C69026  -1.814   4.308   3.585 -0.4707 -0.0958 -0.0552
  512MOL0     C69027  -1.875   4.270   3.447 -0.0099  0.5940 -0.5034
  512MOL0     C69028  -2.025   4.300   3.444 -0.1489 -0.8962  0.0085
  512MOL0     C69029  -2.092   4.235   3.319  0.1034 -0.1700 -0.2200
  512MOL0    Cl69030  -2.260   4.321   3.306 -0.2322  0.1409  0.0982
  512MOL0     C69031  -1.192   4.344   4.001 -0.2431  0.7641  0.8999
  512MOL0     C69032  -1.079   4.361   4.085 -0.0124  0.2994 -0.5241
  512MOL0     O69033  -0.905   4.596   4.099  0.0716 -0.8441  0.0427
  512MOL0     C69034  -0.718   4.461   4.369  0.4385  0.2375  0.2581
  512MOL0     C69035  -0.593   4.437   4.424  0.0118  0.2612  0.6658
  512MOL0     N69036   0.161   4.424   4.681  0.3681  0.0582 -0.3661
  512MOL0     N69037   0.216   4.454   4.799 -0.0174  0.8188 -0.2718
  512MOL0     C69038   1.486   4.594   5.079  0.2233  0.8714 -0.4491
  512MOL0     C69039   1.615   4.646   5.106  0.4493 -0.1475  0.0823
  512MOL0     C69040   1.939   4.947   5.254  0.5923  0.0007 -0.2386
  512MOL0     C69041   1.998   5.070   5.288 -0.5049 -0.3203 -0.3088
  512MOL0     C69042   2.143   5.090   5.279  0.5430  0.2796 -0.2550
  512MOL0     C69043   2.232   4.989   5.245 -0.1359  0.6999 -0.1956
  512MOL0     O69044   2.368   5.016   5.265  0.0792  0.1675  0.7181
  512MOL0     C69045   2.469   4.940   5.194 -0.3626  0.8823 -0.0381
  512MOL0     C69046   2.615   4.977   5.211 -0.6095 -0.0786 -0.6121
  512MOL0     C69047   2.713   4.893   5.130  0.7493 -0.2691 -0.6129
  512MOL0     C69048   2.747   4.958   4.995 -0.5472 -0.5088 -0.4842
  512MOL0     C69049   2.637   4.955   4.901  0.6077  0.2511  0.6860
  512MOL0     C69050   2.531   4.951   4.843 -0.2801  0.6923 -0.6435
  512MOL0     C69051   2.169   4.867   5.207 -0.3146 -1.0281  0.4345
  512MOL0     C69052   2.028   4.843   5.207  0.0453  0.7400  0.7762
  512MOL0     H69053   1.495   4.916   5.279 -0.3803 -0.0516  0.1762
  512MOL0     H69054   1.284   4.817   5.223  1.6148  1.4549  2.2161
  512MOL0     H69055   1.108   4.658   5.226 -1.9394 -1.9477 -0.1473
  512MOL0     H69056   1.119   4.744   5.070 -2.8738 -0.3494 -0.2025
  512MOL0     H69057   1.043   4.516   4.971  0.3730 -1.3361  0.7149
  512MOL0     H69058   0.983   4.484   5.130  0.2508  1.6413  0.8140
  512MOL0     H69059   0.869   4.691   5.148 -1.6142 -0.2777  0.1368
  512MOL0     H69060   0.893   4.734   4.979  0.0190 -0.6857  0.2353
  512MOL0     H69061   0.788   4.485   4.935  1.2153 -0.9045  0.9712
  512MOL0     H69062   0.721   4.532   5.094  0.0721  1.1256  0.7742
  512MOL0     H69063   0.655   4.760   4.997  1.7349  0.1714 -0.5957
  512MOL0     H69064   0.690   4.701   4.839 -0.9512 -0.0315  0.1070
  512MOL0     H69065   0.505   4.522   4.867  1.2203  1.0291 -1.3359
  512MOL0     H69066   0.492   4.561   5.033  0.7223 -1.1909 -0.8515
  512MOL0     H69067   0.430   4.800   4.958  0.2817 -0.4535  0.1216
  512MOL0     H69068   0.416   4.749   4.792 -2.2009  2.6390  0.4861
  512MOL0     H69069   0.206   4.759   4.919 -1.4875 -0.4314  2.0807
  512MOL0     H69070   0.259   4.615   5.008  3.6705  0.0073  0.2663
  512MOL0     H69071   0.162   4.751   4.663 -0.5720 -0.2582  2.8913
  512MOL0     H69072   0.097   4.650   4.438 -1.3730  1.4899  1.9283
  512MOL0     H69073   0.084   4.468   4.413  1.9702 -0.5100  1.2589
  512MOL0     H69074  -0.125   4.585   4.382 -1.0575  2.9938  1.0198
  512MOL0     H69075  -0.115   4.641   4.548  0.5489  0.3231  0.7359
  512MOL0     H69076  -0.144   4.411   4.640  0.8495  3.4916  0.6891
  512MOL0     H69077  -0.120   4.335   4.478 -1.1527 -0.2678  0.3004
  512MOL0     H69078  -0.370   4.427   4.602 -0.3678 -2.2753  0.1537
  512MOL0     H69079  -0.333   4.308   4.481  1.1586 -1.1130  2.7833
  512MOL0     H69080  -0.419   4.625   4.199 -1.6554  2.6288 -1.4009
  512MOL0     H69081  -0.657   4.629   3.982 -1.6436  0.7976  0.3120
  512MOL0     H69082  -0.724   4.760   4.066  1.8067  1.2811  1.9706
  512MOL0     H69083  -0.548   4.748   4.064  0.9610 -0.1817  0.7590
  512MOL0     H69084  -1.215   4.586   4.293 -2.5147 -2.6693  1.4887
  512MOL0     H69085  -1.416   4.555   4.155  0.8183 -0.3290  2.7800
  512MOL0     H69086  -1.390   4.187   3.961  1.0053 -0.9132 -1.0889
  512MOL0     H69087  -1.557   4.244   3.993 -0.1351 -0.3609 -2.1615
  512MOL0     H69088  -1.417   4.276   3.732 -0.9055  3.3523 -0.0020
  512MOL0     H69089  -1.505   4.132   3.768  0.3038 -0.0187 -1.1614
  512MOL0     H69090  -1.623   4.414   3.728  0.3156  0.1476 -1.2678
  512MOL0     H69091  -1.712   4.308   3.827 -1.4410  3.4799 -1.2977
  512MOL0     H69092  -1.605   4.236   3.549  0.0436 -4.1615 -0.5446
  512MOL0     H69093  -1.700   4.131   3.655 -1.2540 -0.0469 -1.4977
  512MOL0     H69094  -1.791   4.415   3.586  0.4262 -0.2573  1.9821
  512MOL0     H69095  -1.883   4.295   3.669 -1.6736  2.3235 -0.5972
  512MOL0     H69096  -1.817   4.314   3.365  0.9690  0.7664  0.2626
  512MOL0     H69097  -1.868   4.160   3.444 -2.6291  0.3085  0.8693
  512MOL0     H69098  -2.030   4.408   3.432  1.9362 -0.2626  3.4534
  512MOL0     H69099  -2.083   4.280   3.534  0.8410  2.9477  1.6719
  512MOL0     H69100  -2.103   4.128   3.339 -0.9203 -0.1606 -0.6196
  512MOL0     H69101  -2.039   4.243   3.223  1.5665 -1.4841  0.4400
  512MOL0     H69102  -1.187   4.285   3.910 -0.0187 -1.9155  2.5338
  512MOL0     H69103  -0.984   4.310   4.077  0.3205  0.4615  1.6977
  512MOL0     H69104  -0.802   4.414   4.419 -1.1038  0.6245 -1.8609
  512MOL0     H69105  -0.590   4.367   4.506 -1.7607 -0.6144  0.0393
  512MOL0     H69106   1.461   4.510   5.015  1.5551  0.7263 -0.7965
  512MOL0     H69107   1.708   4.596   5.082 -0.0518 -0.4077 -1.4098
  512MOL0     H69108   1.928   5.149   5.315 -1.8199 -1.6295  0.2303
  512MOL0     H69109   2.186   5.185   5.308  1.4258  0.8352 -3.0948
  512MOL0     H69110   2.452   4.832   5.208  0.2098  0.7057 -0.6586
  512MOL0     H69111   2.437   4.967   5.093  0.3833  1.4570 -0.1295
  512MOL0     H69112   2.644   4.964   5.316 -0.5404  0.4481 -0.5636
  512MOL0     H69113   2.644   5.078   5.182 -0.0966 -0.1938 -0.5177
  512MOL0     H69114   2.666   4.795   5.120 -1.7795  0.6632  1.0708
  512MOL0     H69115   2.803   4.877   5.190  0.0351 -0.8227  0.3435
  512MOL0     H69116   2.833   4.909   4.949 -0.1254 -0.6052  0.3823
  512MOL0     H69117   2.786   5.060   4.999  3.8639 -1.9451 -0.9164
  512MOL0     H69118   2.437   4.943   4.792 -0.6042 -2.5577  0.2217
  512MOL0     H69119   2.231   4.781   5.187  1.4211 -0.1177  1.6130
  512MOL0     H69120   2.001   4.741   5.181 -1.8080  1.5272 -0.6492
  513MOL0     O69121   2.761   7.114   2.399 -0.5994  0.2104 -0.6568
  513MOL0     C69122   2.835   7.045   2.480 -0.8102  0.5022  0.9317
  513MOL0     O69123   2.795   6.941   2.552  0.0041  0.1759 -0.8875
  513MOL0     C69124   2.662   6.906   2.536  0.2922  0.5676 -0.2348
  513MOL0     C69125   2.557   6.998   2.568 -0.2735  0.1031 -0.4347
  513MOL0     C69126   2.420   6.953   2.565 -0.5796 -0.1853  0.1250
  513MOL0     C69127   2.390   6.820   2.534 -0.1223  0.1068  0.3334
  513MOL0     O69128   2.259   6.786   2.518 -0.5161  0.9057 -0.0116
  513MOL0     C69129   2.168   6.887   2.475 -0.6599  0.1779 -0.2032
  513MOL0     C69130   2.036   6.811   2.439  0.1514 -1.0177  0.3770
  513MOL0     C69131   2.025   6.732   2.306  0.3746  0.2603 -0.1235
  513MOL0     C69132   1.901   6.651   2.298 -0.2730  0.1906  0.6687
  513MOL0     C69133   1.915   6.525   2.209 -0.2197  0.6553 -0.1055
  513MOL0     C69134   1.779   6.490   2.148 -0.3280 -0.3103 -0.3402
  513MOL0     C69135   1.803   6.365   2.051  0.6920  0.3526 -0.3869
  513MOL0     C69136   1.693   6.362   1.946  0.2861 -0.6013  0.7389
  513MOL0     N69137   1.561   6.316   1.998  0.0024 -0.1083  0.3649
  513MOL0     C69138   1.437   6.366   1.952 -0.5096  0.2569  0.1146
  513MOL0     C69139   1.344   6.269   1.980 -0.8454 -0.1021 -0.5407
  513MOL0     C69140   1.200   6.288   1.945 -0.7099  0.3836  0.5035
  513MOL0     C69141   1.179   6.290   1.790  0.4749  0.1353 -0.6466
  513MOL0     C69142   1.028   6.326   1.750  0.3042 -1.2599  0.5743
  513MOL0     C69143   1.016   6.344   1.594  1.1415  0.6301  0.3795
  513MOL0     O69144   0.886   6.408   1.563  0.0593 -0.2635  0.2867
  513MOL0     C69145   0.776   6.329   1.538  0.4060  0.7251  0.9324
  513MOL0     C69146   0.773   6.193   1.545  0.2387 -0.0677 -0.4421
  513MOL0     C69147   0.667   6.115   1.506 -0.2072 -0.3365 -0.4759
  513MOL0     C69148   0.679   5.969   1.525 -0.3962  0.2326  0.3591
  513MOL0     C69149   0.553   6.189   1.452  0.2194  0.6209 -0.4580
  513MOL0     C69150   0.426   6.113   1.411  0.8563  0.2572 -0.0028
  513MOL0     O69151   0.307   6.193   1.412 -0.2411 -0.2664 -0.4960
  513MOL0     C69152   0.183   6.162   1.368  0.0526 -0.0625 -0.9400
  513MOL0     C69153   0.096   6.276   1.357 -0.1629  0.3395  0.3317
  513MOL0     C69154  -0.039   6.256   1.313  0.6666 -0.6172 -0.3030
  513MOL0     C69155  -0.084   6.128   1.287  0.0205 -0.9797 -0.3350
  513MOL0     O69156  -0.211   6.096   1.246  0.1741  0.4475 -0.7948
  513MOL0     C69157  -0.321   6.186   1.263 -0.2648 -0.2029 -0.5660
  513MOL0     C69158  -0.461   6.136   1.274 -0.6409 -0.0562  0.1443
  513MOL0     C69159  -0.493   6.046   1.147 -0.5542  0.0365  0.7968
  513MOL0     C69160  -0.642   6.054   1.122  0.3396  0.4973 -0.2883
  513MOL0     C69161  -0.681   5.946   1.025 -0.3911 -0.0798  0.3989
  513MOL0     C69162  -0.835   5.954   1.006  0.3794  0.1441  0.3060
  513MOL0     C69163  -0.883   5.839   0.915 -0.4323  0.2365  0.0267
  513MOL0     C69164  -1.029   5.824   0.922  1.1512 -0.0802 -0.5864
  513MOL0    Cl69165  -1.134   5.955   0.886 -0.5342 -0.4979  0.6476
  513MOL0     C69166   0.002   6.021   1.303 -0.2460  0.2681 -0.6165
  513MOL0     C69167   0.135   6.031   1.345  0.0703 -0.6131  0.1673
  513MOL0     O69168   0.427   5.991   1.387 -0.0399  0.0767 -0.7730
  513MOL0     C69169   0.554   6.333   1.436  0.2357  0.0558 -0.0555
  513MOL0     C69170   0.667   6.394   1.483 -0.5860 -0.6873 -0.1911
  513MOL0     N69171   1.415   6.162   2.032  0.5404 -0.5315 -0.9152
  513MOL0     N69172   1.537   6.188   2.039  0.3921 -0.1959  0.1958
  513MOL0     C69173   2.490   6.729   2.504 -0.6243 -0.3294  0.7850
  513MOL0     C69174   2.625   6.775   2.509  0.4888  0.6535  0.1846
  513MOL0     C69175   2.978   7.088   2.494  0.1608  0.1431  0.3120
  513MOL0     C69176   3.068   7.000   2.564 -0.2361 -0.6898  0.4182
  513MOL0     C69177   3.204   7.024   2.558 -0.6197  0.6851  0.3119
  513MOL0     C69178   3.248   7.138   2.496 -0.1384 -0.5924  0.1740
  513MOL0     O69179   3.381   7.159   2.481  0.0201  0.0609 -0.3195
  513MOL0     C69180   3.479   7.073   2.547 -0.0606 -0.3520 -0.7818
  513MOL0     C69181   3.612   7.142   2.525 -1.0669 -0.1201  1.4925
  513MOL0     C69182   3.722   7.054   2.579 -0.0427  0.2997  0.1320
  513MOL0     C69183   3.865   7.113   2.563  0.6428  0.5606  0.2332
  513MOL0     C69184   3.968   7.031   2.623 -0.5667 -0.1164 -0.0884
  513MOL0     C69185   4.046   6.945   2.647  0.4269  0.3572 -0.5093
  513MOL0     C69186   3.159   7.221   2.426  0.7962 -0.1052 -0.5205
  513MOL0     C69187   3.026   7.192   2.418  0.7485 -0.8773 -0.2118
  513MOL0     H69188   2.587   7.100   2.591  1.2850 -0.7489  1.6367
  513MOL0     H69189   2.346   7.031   2.577 -1.0633 -0.5158 -0.6266
  513MOL0     H69190   2.160   6.959   2.557 -0.6489 -0.1779  0.1088
  513MOL0     H69191   2.209   6.947   2.392 -1.1420  3.6453  1.8639
  513MOL0     H69192   2.012   6.750   2.527 -1.2014 -0.9088  0.1018
  513MOL0     H69193   1.959   6.889   2.432 -0.0198 -1.1069  1.1530
  513MOL0     H69194   2.014   6.807   2.227 -0.4635 -0.5537 -0.8101
  513MOL0     H69195   2.113   6.675   2.276 -1.7428 -2.7397 -1.1111
  513MOL0     H69196   1.872   6.619   2.399 -1.5878  1.3800  0.7097
  513MOL0     H69197   1.822   6.720   2.264  1.9268  2.9100  0.7034
  513MOL0     H69198   1.983   6.544   2.126  0.2056  1.9585  0.5099
  513MOL0     H69199   1.945   6.447   2.278 -0.9584 -0.2081 -0.7378
  513MOL0     H69200   1.706   6.464   2.224  0.0084 -1.6441 -0.4493
  513MOL0     H69201   1.740   6.570   2.084 -1.6432 -0.0549  0.7338
  513MOL0     H69202   1.904   6.373   2.009  0.4621  2.6676 -0.5858
  513MOL0     H69203   1.801   6.272   2.109  1.7479  0.9117  0.5842
  513MOL0     H69204   1.729   6.299   1.864 -0.9684 -0.9872  0.4643
  513MOL0     H69205   1.677   6.458   1.898  0.4456 -1.6546 -1.5372
  513MOL0     H69206   1.430   6.465   1.910  1.6425  0.9376  1.2092
  513MOL0     H69207   1.136   6.212   1.989 -0.4070 -0.0340  0.2235
  513MOL0     H69208   1.170   6.387   1.982 -2.0905  0.3060 -0.3644
  513MOL0     H69209   1.205   6.194   1.746 -2.1776 -1.3396  0.7301
  513MOL0     H69210   1.244   6.368   1.750  2.6386  1.4814  4.6120
  513MOL0     H69211   1.008   6.420   1.802 -1.3936 -2.2215  1.7797
  513MOL0     H69212   0.966   6.244   1.786  1.2628 -1.7569  1.1425
  513MOL0     H69213   1.021   6.242   1.556 -1.9011  0.1786  0.9693
  513MOL0     H69214   1.098   6.403   1.550  0.7262  0.8128 -0.1656
  513MOL0     H69215   0.851   6.131   1.588  0.8978  0.9079 -0.2004
  513MOL0     H69216   0.779   5.927   1.543 -0.8057 -2.2099 -2.2058
  513MOL0     H69217   0.608   5.932   1.599  0.6280 -0.9093  0.8066
  513MOL0     H69218   0.640   5.919   1.435 -1.5933  0.6010  0.6648
  513MOL0     H69219   0.135   6.374   1.383 -0.3471 -0.0427  2.2233
  513MOL0     H69220  -0.095   6.346   1.289 -0.8016 -1.5610 -0.5782
  513MOL0     H69221  -0.304   6.235   1.359 -0.7301 -2.3488  0.7025
  513MOL0     H69222  -0.304   6.263   1.188  1.4937 -1.0304 -1.0599
  513MOL0     H69223  -0.467   6.080   1.368  3.1920  3.0007  2.5016
  513MOL0     H69224  -0.541   6.210   1.269 -0.4056  0.1295 -1.8444
  513MOL0     H69225  -0.466   5.940   1.159 -1.8268 -0.5103 -0.7632
  513MOL0     H69226  -0.434   6.089   1.065 -2.5198  0.6757 -0.3559
  513MOL0     H69227  -0.688   6.014   1.214 -0.1233  0.8245 -0.3745
  513MOL0     H69228  -0.670   6.158   1.105  1.5465  0.9365  0.3291
  513MOL0     H69229  -0.658   5.846   1.063  1.0951  0.2194  0.3171
  513MOL0     H69230  -0.620   5.954   0.935  1.5490  0.7859  1.7091
  513MOL0     H69231  -0.881   5.935   1.103 -0.5649 -0.8019 -0.3068
  513MOL0     H69232  -0.863   6.050   0.961  1.4202  0.6136  0.6207
  513MOL0     H69233  -0.837   5.743   0.941 -2.6073 -0.8116  0.2190
  513MOL0     H69234  -0.872   5.871   0.811  0.9828  2.5601  0.8034
  513MOL0     H69235  -1.046   5.780   1.021 -1.5927 -0.9844 -1.3754
  513MOL0     H69236  -1.069   5.750   0.853  0.5349 -2.3730  2.0405
  513MOL0     H69237  -0.035   5.919   1.289 -0.0811 -0.3645  2.7597
  513MOL0     H69238   0.197   5.942   1.353 -0.0193 -0.5054  3.5417
  513MOL0     H69239   0.468   6.381   1.390 -0.3020  0.2427  1.1022
  513MOL0     H69240   0.665   6.502   1.484 -3.4516 -0.6600 -0.1982
  513MOL0     H69241   2.478   6.623   2.480  2.5426 -1.2600  2.6377
  513MOL0     H69242   2.702   6.701   2.492 -0.7208 -1.3047  2.6928
  513MOL0     H69243   3.029   6.926   2.634  1.5468 -0.1064  2.1498
  513MOL0     H69244   3.271   6.961   2.616 -0.7812  1.9098  1.8946
  513MOL0     H69245   3.467   7.068   2.656 -1.1737 -0.5728 -0.9042
  513MOL0     H69246   3.484   6.974   2.501  0.7792 -0.1157 -1.2107
  513MOL0     H69247   3.618   7.239   2.576 -2.6623  0.9302 -0.2162
  513MOL0     H69248   3.626   7.167   2.420 -4.5532  0.8278  1.1304
  513MOL0     H69249   3.714   6.955   2.532 -0.7255 -0.7720  2.3330
  513MOL0     H69250   3.695   7.036   2.684 -0.7343  1.7484  0.2228
  513MOL0     H69251   3.870   7.211   2.612 -1.8327  1.0413 -0.3461
  513MOL0     H69252   3.885   7.125   2.456 -1.9785  1.4127 -0.2467
  513MOL0     H69253   4.126   6.874   2.656 -0.4355 -0.4384  1.4436
  513MOL0     H69254   3.201   7.299   2.363 -3.6290  1.6498 -1.6436
  513MOL0     H69255   2.961   7.249   2.352  2.1034  1.1158  0.1036
  514MOL0     O69256   4.571   3.661   8.090  0.1760  0.1235  0.0811
  514MOL0     C69257   4.558   3.590   8.190  0.7749  0.4897 -0.1030
  514MOL0     O69258   4.448   3.514   8.227  0.3585  0.2795  0.0850
  514MOL0     C69259   4.340   3.491   8.140 -0.1364  0.1142 -0.4371
  514MOL0     C69260   4.304   3.575   8.038 -0.6559  0.2495 -0.2945
  514MOL0     C69261   4.191   3.550   7.964  0.6650  0.2823  0.3714
  514MOL0     C69262   4.105   3.438   7.993  0.4258 -0.8162 -0.4850
  514MOL0     O69263   3.988   3.425   7.915  0.3767  0.1535 -0.4255
  514MOL0     C69264   3.880   3.378   7.992 -0.1162 -0.4454  0.1406
  514MOL0     C69265   3.746   3.411   7.927  0.2254  0.8029  0.7321
  514MOL0     C69266   3.643   3.441   8.034  0.0282  0.1766 -0.4806
  514MOL0     C69267   3.607   3.333   8.135  0.3324 -0.5319 -0.8680
  514MOL0     C69268   3.500   3.366   8.238 -0.2638 -0.5783 -0.4000
  514MOL0     C69269   3.447   3.246   8.303 -0.0224  0.2589 -0.6162
  514MOL0     C69270   3.402   3.126   8.213  0.2890  1.1684 -0.1737
  514MOL0     C69271   3.299   3.157   8.107 -0.3080  0.0260  0.6039
  514MOL0     N69272   3.181   3.198   8.178 -0.1809  0.0060 -0.3021
  514MOL0     C69273   3.133   3.319   8.209 -0.1306  0.3738 -0.4836
  514MOL0     C69274   3.010   3.301   8.272 -0.2545 -0.4119  0.0028
  514MOL0     C69275   2.919   3.406   8.308 -0.3394 -0.2116  1.0506
  514MOL0     C69276   2.934   3.449   8.458  0.0543  0.8260  0.2588
  514MOL0     C69277   2.824   3.543   8.503 -0.1883  0.6096 -0.0520
  514MOL0     C69278   2.695   3.479   8.548  0.2010 -0.2407 -1.1773
  514MOL0     O69279   2.618   3.440   8.439 -0.0227  0.1756 -0.0040
  514MOL0     C69280   2.485   3.413   8.469 -0.5646  0.0067 -0.0944
  514MOL0     C69281   2.413   3.340   8.373  0.8293  0.1223 -0.3138
  514MOL0     C69282   2.283   3.293   8.403 -0.4023 -0.5559 -0.8141
  514MOL0     C69283   2.216   3.222   8.292 -0.4723  0.2079  0.3528
  514MOL0     C69284   2.219   3.316   8.531 -0.0911 -0.2610  0.8236
  514MOL0     C69285   2.078   3.267   8.565  0.5887 -0.5684 -0.2836
  514MOL0     O69286   2.027   3.160   8.491  0.4444 -0.1381 -0.2209
  514MOL0     C69287   1.902   3.121   8.528 -0.7745 -0.0483  0.3232
  514MOL0     C69288   1.800   3.155   8.440  0.7731  0.5607 -0.6486
  514MOL0     C69289   1.661   3.127   8.471 -0.2505  0.2747  0.5184
  514MOL0     C69290   1.629   3.073   8.594 -0.8750  0.1291  0.5514
  514MOL0     O69291   1.507   3.051   8.647  0.1551  0.0535 -0.1336
  514MOL0     C69292   1.389   3.105   8.587 -0.4625 -0.7734  0.1080
  514MOL0     C69293   1.382   3.262   8.582  0.4416  0.2729 -0.5072
  514MOL0     C69294   1.282   3.312   8.482  0.1115 -0.7979 -0.1331
  514MOL0     C69295   1.269   3.469   8.483 -0.7246  0.1495 -0.0260
  514MOL0     C69296   1.208   3.516   8.355  0.1636  0.0026 -0.4672
  514MOL0     C69297   1.167   3.666   8.371  0.2309 -0.2900  1.0987
  514MOL0     C69298   1.026   3.683   8.430 -0.1166 -1.4013 -0.2159
  514MOL0     C69299   0.988   3.835   8.419  0.0090 -0.4211 -0.1301
  514MOL0    Cl69300   1.008   3.905   8.254  0.3631  0.0198 -0.1504
  514MOL0     C69301   1.737   3.045   8.688  0.1762  0.0620  0.1719
  514MOL0     C69302   1.870   3.064   8.651  0.3994  0.7738  0.0002
  514MOL0     O69303   2.021   3.325   8.656  0.6140 -0.8989  0.6838
  514MOL0     C69304   2.289   3.399   8.622  0.4642 -0.1006  0.4041
  514MOL0     C69305   2.422   3.434   8.596 -0.0865 -0.2929 -0.2454
  514MOL0     N69306   2.989   3.164   8.276 -0.0757 -0.2068 -0.1577
  514MOL0     N69307   3.092   3.104   8.224 -1.2860 -0.3835  0.1367
  514MOL0     C69308   4.141   3.352   8.102 -0.0188  0.5455  0.4521
  514MOL0     C69309   4.259   3.376   8.175  0.7137 -0.7497  0.3315
  514MOL0     C69310   4.677   3.561   8.273 -0.2833 -0.4323  0.4284
  514MOL0     C69311   4.789   3.655   8.251  0.4439  0.2348  0.1402
  514MOL0     C69312   4.908   3.638   8.325 -0.3421  0.2782  0.4432
  514MOL0     C69313   4.926   3.536   8.419  0.2925  0.4410 -0.7772
  514MOL0     O69314   5.030   3.504   8.498 -0.2070  0.6065 -0.0477
  514MOL0     C69315   5.146   3.572   8.490 -0.4347 -0.6926 -0.1897
  514MOL0     C69316   5.250   3.490   8.562  0.0651  0.2906 -0.3137
  514MOL0     C69317   5.371   3.565   8.584 -0.5525 -0.0606  0.3601
  514MOL0     C69318   5.472   3.495   8.681  0.2907  0.2485  0.5991
  514MOL0     C69319   5.453   3.539   8.827  0.2834  0.0441  0.1596
  514MOL0     C69320   5.430   3.574   8.943 -0.5045 -0.4471 -1.0967
  514MOL0     C69321   4.818   3.443   8.436 -0.1468  0.8939  0.4287
  514MOL0     C69322   4.689   3.462   8.370 -0.9394 -0.3732 -0.0222
  514MOL0     H69323   4.358   3.664   8.009 -0.8686  0.1332 -1.0967
  514MOL0     H69324   4.167   3.616   7.881 -1.8600  2.8398  2.9282
  514MOL0     H69325   3.891   3.273   8.019 -0.0044  0.2339  3.1685
  514MOL0     H69326   3.881   3.438   8.084  2.5391 -0.8655  0.4424
  514MOL0     H69327   3.763   3.494   7.858  2.8619 -0.6714 -0.5307
  514MOL0     H69328   3.704   3.334   7.861 -2.2773  2.2412  0.5066
  514MOL0     H69329   3.678   3.533   8.082  0.0741  0.6339 -1.3692
  514MOL0     H69330   3.548   3.464   7.984 -1.0258 -2.4700  0.1144
  514MOL0     H69331   3.569   3.247   8.079 -1.5305 -0.1771 -0.2224
  514MOL0     H69332   3.694   3.297   8.190 -0.4802  2.1341  2.4742
  514MOL0     H69333   3.541   3.431   8.317  1.3405 -2.1245  0.1032
  514MOL0     H69334   3.425   3.423   8.183  0.0189 -0.0086 -0.2143
  514MOL0     H69335   3.525   3.211   8.371 -0.3507 -0.1787 -0.4630
  514MOL0     H69336   3.363   3.273   8.367 -0.6442  0.4161 -1.4694
  514MOL0     H69337   3.486   3.069   8.173  0.0809  2.6052 -2.8688
  514MOL0     H69338   3.355   3.059   8.287  0.7375 -0.8288 -1.6018
  514MOL0     H69339   3.287   3.063   8.053  0.7603 -0.7047  1.5766
  514MOL0     H69340   3.343   3.230   8.039  1.9992 -0.4567  1.4829
  514MOL0     H69341   3.177   3.417   8.190 -0.0606  0.6635  1.0474
  514MOL0     H69342   2.944   3.499   8.258 -1.6909 -0.1125  0.5037
  514MOL0     H69343   2.814   3.384   8.284 -0.6875  2.1462  0.1580
  514MOL0     H69344   3.036   3.484   8.473 -0.4257  1.0716  3.7607
  514MOL0     H69345   2.929   3.362   8.524 -1.0829  0.2662 -0.5371
  514MOL0     H69346   2.806   3.621   8.429  0.1719  1.9925  1.2575
  514MOL0     H69347   2.866   3.601   8.586 -1.5810  3.7051 -1.3332
  514MOL0     H69348   2.653   3.558   8.610  0.5214  1.5972 -3.1808
  514MOL0     H69349   2.712   3.396   8.617 -0.1191  1.3937  0.9750
  514MOL0     H69350   2.449   3.326   8.272 -0.6425  0.4241 -0.9010
  514MOL0     H69351   2.266   3.235   8.196 -0.7872 -1.2759 -0.0488
  514MOL0     H69352   2.193   3.118   8.317 -1.9908  0.9492  2.2968
  514MOL0     H69353   2.117   3.268   8.284  0.2044  1.5080 -0.8732
  514MOL0     H69354   1.827   3.200   8.345  0.8212  0.0936 -0.8606
  514MOL0     H69355   1.579   3.145   8.402  1.5967  2.7288 -1.1810
  514MOL0     H69356   1.364   3.074   8.485 -1.6104  0.0428  0.1156
  514MOL0     H69357   1.305   3.086   8.655 -1.2347  2.2836  0.1407
  514MOL0     H69358   1.369   3.299   8.684 -0.0870  1.2715 -0.9233
  514MOL0     H69359   1.480   3.296   8.547  0.8203  2.1337  2.1184
  514MOL0     H69360   1.191   3.267   8.522  1.4025  0.1441  4.3961
  514MOL0     H69361   1.300   3.268   8.383  0.7710 -1.2276  0.1651
  514MOL0     H69362   1.210   3.502   8.570  1.1439 -1.3657  1.9167
  514MOL0     H69363   1.370   3.506   8.504  0.3557 -2.9389  0.7144
  514MOL0     H69364   1.119   3.459   8.326 -1.7632  2.4612  0.3075
  514MOL0     H69365   1.281   3.510   8.274  0.6713 -2.6366  0.0789
  514MOL0     H69366   1.242   3.716   8.433  2.1516 -2.5565  0.7471
  514MOL0     H69367   1.175   3.699   8.267 -0.2159  0.9635  1.4415
  514MOL0     H69368   1.013   3.647   8.533  1.3786 -0.3837  0.3700
  514MOL0     H69369   0.956   3.627   8.368  0.1515 -1.6025 -0.3428
  514MOL0     H69370   1.035   3.895   8.498 -1.4655 -0.5726  0.8888
  514MOL0     H69371   0.882   3.833   8.445  0.4992  0.5628  2.2115
  514MOL0     H69372   1.716   2.990   8.779 -0.0553 -3.0467 -1.6211
  514MOL0     H69373   1.948   3.041   8.723 -0.1438 -1.0266  0.0585
  514MOL0     H69374   2.249   3.429   8.719  1.4417 -0.1756  0.8407
  514MOL0     H69375   2.477   3.486   8.674 -0.5202  0.0081 -0.1395
  514MOL0     H69376   4.069   3.275   8.128  0.0527  0.0167 -0.8561
  514MOL0     H69377   4.283   3.320   8.265  2.4415  2.4341  2.0021
  514MOL0     H69378   4.788   3.727   8.170  2.5017 -2.2720 -2.3367
  514MOL0     H69379   4.992   3.704   8.305 -1.0455  0.9141 -0.5183
  514MOL0     H69380   5.177   3.584   8.385  0.4814  1.2617  0.2407
  514MOL0     H69381   5.133   3.669   8.539 -0.4181 -1.1846  0.8071
  514MOL0     H69382   5.262   3.400   8.502  0.5120 -0.0529  0.2679
  514MOL0     H69383   5.217   3.455   8.661  0.4098  1.6418  0.3076
  514MOL0     H69384   5.337   3.663   8.621 -1.1703 -0.4939  0.9776
  514MOL0     H69385   5.419   3.582   8.488  0.2997 -1.5815  0.4976
  514MOL0     H69386   5.569   3.540   8.663  0.1965  1.5910  3.0798
  514MOL0     H69387   5.470   3.385   8.673 -0.7844  0.4169 -2.7208
  514MOL0     H69388   5.418   3.608   9.044  3.3804  1.4046 -1.0956
  514MOL0     H69389   4.826   3.369   8.515 -0.8483  0.0522 -0.2574
  514MOL0     H69390   4.609   3.392   8.395  0.6655 -0.9548  4.3769
  515MOL0     O69391   0.485   5.214   7.697  0.0780  0.1821 -0.0175
  515MOL0     C69392   0.563   5.122   7.727 -0.3410 -0.5203  0.0076
  515MOL0     O69393   0.529   4.996   7.776 -0.1854 -0.8035 -0.2220
  515MOL0     C69394   0.400   4.957   7.772  0.6093  0.2810  0.1413
  515MOL0     C69395   0.361   4.894   7.886  0.3325 -0.0649 -0.4845
  515MOL0     C69396   0.235   4.841   7.904 -0.3902 -0.5409 -0.0544
  515MOL0     C69397   0.154   4.846   7.787  0.0189  0.6007 -0.0249
  515MOL0     O69398   0.026   4.805   7.782  0.1110  0.3952  0.1719
  515MOL0     C69399  -0.016   4.687   7.858 -0.5775 -0.7924 -0.4913
  515MOL0     C69400  -0.144   4.640   7.802  0.0915  0.8099 -0.3399
  515MOL0     C69401  -0.266   4.737   7.828  0.7692 -0.1862  0.1951
  515MOL0     C69402  -0.291   4.787   7.976 -0.4989  0.0403 -0.0543
  515MOL0     C69403  -0.426   4.840   7.995 -0.4309  1.1830  0.1809
  515MOL0     C69404  -0.426   4.985   7.945 -0.5742  0.8148 -0.2764
  515MOL0     C69405  -0.397   5.085   8.059 -0.1257 -0.1256  0.0257
  515MOL0     C69406  -0.398   5.227   8.007  0.5536  0.0425 -0.2599
  515MOL0     N69407  -0.524   5.307   7.985  0.9868  0.6212 -0.3402
  515MOL0     C69408  -0.651   5.256   7.974  0.3291  0.1438 -0.2492
  515MOL0     C69409  -0.729   5.358   7.942  0.2556  0.7117 -0.9302
  515MOL0     C69410  -0.875   5.360   7.915 -0.1403 -0.2722 -0.1415
  515MOL0     C69411  -0.955   5.283   8.029 -0.0924 -0.4953  0.0245
  515MOL0     C69412  -1.104   5.281   7.986  0.0549 -0.3721  0.6834
  515MOL0     C69413  -1.194   5.201   8.084 -0.0090 -0.6554  0.0863
  515MOL0     O69414  -1.332   5.232   8.059  0.1899  0.2668 -0.1667
  515MOL0     C69415  -1.412   5.220   8.170 -1.0247  0.3146  0.7548
  515MOL0     C69416  -1.543   5.252   8.147 -0.0161 -0.9610 -0.6520
  515MOL0     C69417  -1.648   5.217   8.236  0.4932 -0.1568 -0.7716
  515MOL0     C69418  -1.790   5.213   8.183  1.4767  0.1961  0.1324
  515MOL0     C69419  -1.608   5.194   8.372 -0.2349 -0.4158  0.5264
  515MOL0     C69420  -1.697   5.196   8.491 -0.1220  0.1546  1.2039
  515MOL0     O69421  -1.821   5.252   8.465  0.1614 -0.1841 -0.5763
  515MOL0     C69422  -1.922   5.248   8.560  0.9352 -0.1958  0.3012
  515MOL0     C69423  -1.931   5.185   8.680 -0.0263  0.5095 -0.1573
  515MOL0     C69424  -2.060   5.183   8.745 -1.0697  0.2676  0.6461
  515MOL0     C69425  -2.172   5.246   8.691  0.3443  0.1967  0.0644
  515MOL0     O69426  -2.286   5.256   8.768  0.0559 -0.3618 -0.2369
  515MOL0     C69427  -2.301   5.202   8.903 -0.5385 -0.3813 -0.3073
  515MOL0     C69428  -2.440   5.177   8.938  0.6667  0.0466  0.9122
  515MOL0     C69429  -2.524   5.297   8.960 -0.2538 -0.2290  0.6053
  515MOL0     C69430  -2.657   5.258   9.019  0.4001 -0.0360 -0.5357
  515MOL0     C69431  -2.667   5.257   9.173  0.6260 -0.5263 -0.5079
  515MOL0     C69432  -2.797   5.189   9.222 -0.1829  0.3919 -0.2660
  515MOL0     C69433  -2.916   5.282   9.207 -1.0737  1.2234  0.3847
  515MOL0     C69434  -2.930   5.381   9.327 -0.6435  0.2138 -0.3146
  515MOL0    Cl69435  -3.102   5.426   9.339 -0.0953 -0.8476  0.4157
  515MOL0     C69436  -2.166   5.318   8.576 -0.5249  0.5769  0.1526
  515MOL0     C69437  -2.037   5.321   8.510  1.0900 -0.7123  0.3064
  515MOL0     O69438  -1.654   5.146   8.593  0.2064 -0.2599  0.0238
  515MOL0     C69439  -1.469   5.179   8.397  0.5088  0.4178 -0.2806
  515MOL0     C69440  -1.370   5.186   8.296  0.6576 -0.2404  0.6443
  515MOL0     N69441  -0.653   5.470   7.931  0.3082  0.0411  1.0834
  515MOL0     N69442  -0.530   5.434   7.944  0.1173  0.2016 -0.1329
  515MOL0     C69443   0.198   4.902   7.669 -0.4282 -0.1303 -0.0565
  515MOL0     C69444   0.320   4.964   7.658  0.0180 -0.2175  0.0700
  515MOL0     C69445   0.707   5.141   7.717  0.9713 -0.9117  0.0024
  515MOL0     C69446   0.766   5.263   7.686  0.8653  0.7695  0.3049
  515MOL0     C69447   0.901   5.273   7.644  0.2495  0.0069 -0.4272
  515MOL0     C69448   0.985   5.156   7.651  0.1964 -0.3331  0.8397
  515MOL0     O69449   1.114   5.151   7.602  0.1532 -0.2893  0.3496
  515MOL0     C69450   1.158   5.264   7.514  0.5822  0.2117 -0.6214
  515MOL0     C69451   1.285   5.232   7.452 -0.0863 -0.2779  0.2520
  515MOL0     C69452   1.404   5.229   7.547 -0.2204 -1.4095 -0.9076
  515MOL0     C69453   1.530   5.166   7.473  0.4300  1.3298 -0.3063
  515MOL0     C69454   1.647   5.169   7.567 -0.2850 -1.2693  0.0323
  515MOL0     C69455   1.746   5.182   7.639  0.1903 -0.0299 -0.6571
  515MOL0     C69456   0.928   5.039   7.705 -0.5095 -1.2110 -0.4198
  515MOL0     C69457   0.798   5.035   7.738  0.3354  0.2665 -0.4125
  515MOL0     H69458   0.415   4.906   7.980 -0.9392  0.6280  0.1870
  515MOL0     H69459   0.199   4.802   7.999  0.5027  1.0556  0.9788
  515MOL0     H69460   0.060   4.608   7.856 -0.6877 -0.8911 -1.7333
  515MOL0     H69461  -0.025   4.711   7.964  1.4286  1.0919 -0.6670
  515MOL0     H69462  -0.125   4.632   7.694  3.3635  0.8344  0.1284
  515MOL0     H69463  -0.163   4.537   7.834 -0.2985  0.9549 -0.1032
  515MOL0     H69464  -0.270   4.822   7.759  2.1470 -0.5213 -0.3325
  515MOL0     H69465  -0.364   4.689   7.817 -0.1787  1.4734  0.9359
  515MOL0     H69466  -0.279   4.702   8.044  0.1629  0.5681  0.4914
  515MOL0     H69467  -0.218   4.866   7.996  0.1265 -0.4660 -0.2960
  515MOL0     H69468  -0.501   4.791   7.933  0.3531 -1.1546  1.0000
  515MOL0     H69469  -0.451   4.834   8.101  0.8952  3.2978  0.6837
  515MOL0     H69470  -0.365   4.992   7.855 -0.4703 -0.1181 -0.2839
  515MOL0     H69471  -0.523   5.013   7.903 -0.2317  1.8766 -0.4004
  515MOL0     H69472  -0.475   5.068   8.133 -0.7221 -0.4678 -0.6695
  515MOL0     H69473  -0.298   5.070   8.104  0.7811  0.9086 -1.5503
  515MOL0     H69474  -0.326   5.231   7.924 -0.4569 -2.2593 -1.3482
  515MOL0     H69475  -0.350   5.289   8.083 -2.0471  0.1501  1.3919
  515MOL0     H69476  -0.678   5.151   7.982  1.2411 -0.1277 -0.6082
  515MOL0     H69477  -0.898   5.467   7.908  2.4724  0.4359  0.7511
  515MOL0     H69478  -0.888   5.320   7.814  0.8083  0.6015 -0.6288
  515MOL0     H69479  -0.949   5.336   8.125 -2.8824 -2.1469  1.2237
  515MOL0     H69480  -0.918   5.182   8.047 -0.3291 -0.7416 -0.8487
  515MOL0     H69481  -1.116   5.255   7.880 -2.9391  1.1412  0.5509
  515MOL0     H69482  -1.142   5.383   7.972 -0.4600 -0.5613  0.6744
  515MOL0     H69483  -1.160   5.222   8.186  1.9315 -0.7446 -0.4992
  515MOL0     H69484  -1.174   5.094   8.070 -1.4553 -0.7835 -1.2340
  515MOL0     H69485  -1.571   5.286   8.048 -1.0050 -1.2937 -0.4915
  515MOL0     H69486  -1.848   5.305   8.199  0.1941 -0.7388  1.0354
  515MOL0     H69487  -1.779   5.188   8.077  0.2695  0.3599 -0.0534
  515MOL0     H69488  -1.847   5.135   8.233  1.0884  0.0803 -0.4778
  515MOL0     H69489  -1.850   5.129   8.725 -0.0360 -0.6257 -1.4909
  515MOL0     H69490  -2.059   5.122   8.834 -1.6083  0.3705  0.7255
  515MOL0     H69491  -2.242   5.110   8.906 -2.3522 -1.6209 -0.5582
  515MOL0     H69492  -2.256   5.272   8.973  2.2640 -2.2315 -0.0738
  515MOL0     H69493  -2.491   5.129   8.855 -0.6519  3.9047 -0.7505
  515MOL0     H69494  -2.441   5.109   9.024  0.0715  1.2609  1.9013
  515MOL0     H69495  -2.547   5.349   8.867  2.1934 -2.0983 -1.1976
  515MOL0     H69496  -2.468   5.371   9.018 -0.0956  1.2201 -1.3008
  515MOL0     H69497  -2.735   5.322   8.976  1.6165  1.3804 -0.7292
  515MOL0     H69498  -2.683   5.157   8.988 -1.1621  0.5364 -1.1740
  515MOL0     H69499  -2.646   5.348   9.229  0.6504 -1.2820  0.7626
  515MOL0     H69500  -2.584   5.189   9.198  0.7755 -0.7360 -1.5268
  515MOL0     H69501  -2.802   5.108   9.148  2.0177  1.3364 -1.5501
  515MOL0     H69502  -2.788   5.144   9.321  2.6697  0.4724 -0.4043
  515MOL0     H69503  -3.006   5.221   9.199  0.0016 -0.1328 -2.3026
  515MOL0     H69504  -2.923   5.340   9.115  0.4330  3.0429  1.3252
  515MOL0     H69505  -2.854   5.459   9.314  0.5604 -0.7727  0.5788
  515MOL0     H69506  -2.908   5.334   9.423  1.2452  3.0277  0.7685
  515MOL0     H69507  -2.246   5.376   8.531 -1.3717 -1.1094 -0.6122
  515MOL0     H69508  -2.013   5.388   8.428 -0.6829  1.9196  1.8106
  515MOL0     H69509  -1.441   5.150   8.498  1.0040  1.6371 -0.0460
  515MOL0     H69510  -1.268   5.165   8.327  1.3519  1.4223 -0.3832
  515MOL0     H69511   0.136   4.896   7.580  2.3779  3.2663 -2.5365
  515MOL0     H69512   0.364   5.014   7.572  1.9951 -1.3002  0.3934
  515MOL0     H69513   0.696   5.346   7.680  0.6099  0.4887 -1.0359
  515MOL0     H69514   0.940   5.366   7.606 -1.3805  0.7330 -0.4009
  515MOL0     H69515   1.089   5.285   7.431 -0.0202  1.0203  0.0538
  515MOL0     H69516   1.167   5.357   7.572  3.1580  0.8209 -1.8826
  515MOL0     H69517   1.307   5.307   7.376 -4.1302  0.8244 -0.0398
  515MOL0     H69518   1.278   5.136   7.402 -0.5824 -0.0133 -0.1941
  515MOL0     H69519   1.376   5.195   7.647 -3.2562 -0.6701 -1.4126
  515MOL0     H69520   1.427   5.335   7.564 -2.4915 -0.9960 -0.0569
  515MOL0     H69521   1.545   5.214   7.376 -0.2351  2.7394  0.2623
  515MOL0     H69522   1.497   5.062   7.472  0.3462  1.3563 -0.3208
  515MOL0     H69523   1.826   5.188   7.711  1.6916 -0.3174 -2.2537
  515MOL0     H69524   0.991   4.953   7.723  1.2584  0.2031  0.4568
  515MOL0     H69525   0.757   4.939   7.768 -1.1981  0.7629 -0.8377
  516MOL0     O69526   8.644   5.069   4.476  0.1644  0.1738 -1.1395
  516MOL0     C69527   8.755   5.043   4.426 -0.1405 -0.1572  0.6744
  516MOL0     O69528   8.763   4.989   4.298  0.3358 -0.2405 -0.1366
  516MOL0     C69529   8.650   4.986   4.215 -0.6350 -0.2074 -0.3643
  516MOL0     C69530   8.680   5.018   4.080  0.0819 -0.5355  0.0366
  516MOL0     C69531   8.574   5.037   3.989  0.1918 -0.6108 -0.9094
  516MOL0     C69532   8.446   5.002   4.019  0.5674 -0.0102 -0.0850
  516MOL0     O69533   8.343   4.993   3.923 -0.1416 -0.3118  0.0916
  516MOL0     C69534   8.369   4.886   3.821 -0.2138  0.5664 -0.0513
  516MOL0     C69535   8.253   4.895   3.722 -0.3849 -0.2797  0.0181
  516MOL0     C69536   8.267   4.779   3.622 -0.0780 -0.1745 -0.1592
  516MOL0     C69537   8.209   4.815   3.485 -0.2545  0.8479 -0.0793
  516MOL0     C69538   8.270   4.721   3.383  0.2879 -0.2527  0.2226
  516MOL0     C69539   8.206   4.736   3.240 -0.5856  0.3556  0.5442
  516MOL0     C69540   8.074   4.668   3.248 -0.1200  0.8405 -0.0558
  516MOL0     C69541   7.978   4.754   3.170  0.1061  0.5484 -0.3026
  516MOL0     N69542   7.846   4.687   3.152 -0.0143 -0.6089  0.6867
  516MOL0     C69543   7.724   4.735   3.196 -0.0675  0.0449 -0.4036
  516MOL0     C69544   7.635   4.644   3.148 -0.0357  0.4895  0.1704
  516MOL0     C69545   7.482   4.636   3.179 -0.2826 -0.2414 -0.2620
  516MOL0     C69546   7.440   4.661   3.327  1.1686 -0.0005  0.4793
  516MOL0     C69547   7.284   4.647   3.339  0.5033  0.0218  0.8718
  516MOL0     C69548   7.250   4.639   3.486 -0.6215  0.1426 -0.0681
  516MOL0     O69549   7.125   4.709   3.504  0.0927 -0.1032  0.0714
  516MOL0     C69550   7.026   4.653   3.583  0.2585  0.4272  0.2126
  516MOL0     C69551   7.048   4.553   3.679  0.3998  0.9246 -0.4639
  516MOL0     C69552   6.940   4.493   3.755 -0.3070 -0.5595 -0.0939
  516MOL0     C69553   6.975   4.378   3.854  0.0618  0.0587 -0.4169
  516MOL0     C69554   6.805   4.542   3.725  0.1688 -0.2828  0.0744
  516MOL0     C69555   6.682   4.501   3.798 -0.2555  0.1915 -0.2488
  516MOL0     O69556   6.563   4.562   3.772  0.0184 -0.1760 -0.4968
  516MOL0     C69557   6.442   4.507   3.815 -0.6995 -0.2403  0.1600
  516MOL0     C69558   6.376   4.433   3.721  0.1592 -0.3597  0.6461
  516MOL0     C69559   6.248   4.391   3.761 -0.1717 -0.0213 -0.6140
  516MOL0     C69560   6.191   4.425   3.884  0.0147 -0.3538 -0.6159
  516MOL0     O69561   6.055   4.413   3.921  0.1048  0.3369  1.0092
  516MOL0     C69562   5.962   4.359   3.829 -0.4353  0.7108 -0.3085
  516MOL0     C69563   5.822   4.376   3.890  0.2396  0.5170 -0.3387
  516MOL0     C69564   5.711   4.320   3.790  0.7444 -0.0902 -0.0808
  516MOL0     C69565   5.572   4.329   3.863 -0.7289 -0.1521  0.1405
  516MOL0     C69566   5.528   4.480   3.857  0.7631  0.4982  0.2329
  516MOL0     C69567   5.395   4.496   3.939 -0.1981  0.4397  0.4772
  516MOL0     C69568   5.355   4.633   3.969 -0.1815  1.1343  0.2822
  516MOL0     C69569   5.269   4.641   4.092 -0.8096 -0.5068 -0.1464
  516MOL0    Cl69570   5.110   4.550   4.062  0.8386  0.2650  0.4502
  516MOL0     C69571   6.264   4.508   3.974  0.0010 -0.2402  0.9765
  516MOL0     C69572   6.393   4.549   3.934 -0.1152 -0.0034 -0.9537
  516MOL0     O69573   6.691   4.409   3.876  0.0852 -0.6857 -0.0189
  516MOL0     C69574   6.790   4.645   3.625  0.2325 -0.1354  0.3714
  516MOL0     C69575   6.898   4.697   3.553 -0.0275  0.5443  0.1543
  516MOL0     N69576   7.701   4.558   3.056 -0.4871 -0.2798 -0.1291
  516MOL0     N69577   7.825   4.589   3.062  0.6889  0.2323  0.8220
  516MOL0     C69578   8.416   4.965   4.153  0.3927 -0.5727 -0.7237
  516MOL0     C69579   8.518   4.964   4.250 -0.2521 -0.0305 -0.4743
  516MOL0     C69580   8.876   5.038   4.511  0.2781  0.4436  0.0553
  516MOL0     C69581   8.869   5.086   4.643 -0.4249  0.3030  0.4484
  516MOL0     C69582   8.987   5.070   4.726 -0.0937 -1.1265  0.4812
  516MOL0     C69583   9.113   5.034   4.674  0.2231  0.0508  0.1376
  516MOL0     O69584   9.210   5.036   4.768  0.0409 -0.4720 -0.2151
  516MOL0     C69585   9.327   4.959   4.749 -0.3057  0.2100  0.7251
  516MOL0     C69586   9.301   4.829   4.820 -0.8945  0.3599 -0.8254
  516MOL0     C69587   9.214   4.729   4.740  0.0736 -0.1337  0.2716
  516MOL0     C69588   9.245   4.582   4.777 -0.2529 -0.1821 -0.2966
  516MOL0     C69589   9.172   4.546   4.892  0.2059  0.1394 -0.1546
  516MOL0     C69590   9.107   4.524   4.991 -0.3572  0.3881  0.3704
  516MOL0     C69591   9.123   5.013   4.534  0.8348 -0.2337 -0.0336
  516MOL0     C69592   9.002   5.010   4.455 -0.1622 -0.6343  0.5979
  516MOL0     H69593   8.783   5.037   4.053 -0.5049  2.2716 -0.6124
  516MOL0     H69594   8.598   5.073   3.889 -1.6893  0.5159 -1.0070
  516MOL0     H69595   8.462   4.902   3.766  0.8497  0.4668  1.6404
  516MOL0     H69596   8.383   4.792   3.876  3.9696  0.2041 -1.3984
  516MOL0     H69597   8.154   4.889   3.769 -0.2724  1.2704  0.4965
  516MOL0     H69598   8.259   4.993   3.674  0.2623 -1.2055 -1.8874
  516MOL0     H69599   8.373   4.752   3.617 -0.5777 -2.3436  0.1274
  516MOL0     H69600   8.219   4.693   3.670  1.5586  0.1939  2.3168
  516MOL0     H69601   8.100   4.815   3.492 -0.2899  2.8631  0.1063
  516MOL0     H69602   8.236   4.918   3.458 -0.3745  0.9316  0.1105
  516MOL0     H69603   8.373   4.756   3.371  0.0018  1.0379  1.3011
  516MOL0     H69604   8.265   4.619   3.422 -0.7515 -0.7059 -1.0203
  516MOL0     H69605   8.194   4.842   3.216 -0.8350  0.0616 -0.6845
  516MOL0     H69606   8.273   4.693   3.164 -0.6583 -0.3401  0.8629
  516MOL0     H69607   8.084   4.566   3.209  0.7208  0.9704 -0.1949
  516MOL0     H69608   8.034   4.650   3.348 -5.2651 -0.7495 -2.0622
  516MOL0     H69609   8.026   4.761   3.072 -0.1880 -1.3822 -0.6178
  516MOL0     H69610   7.967   4.847   3.227  1.5035  0.7081 -0.2734
  516MOL0     H69611   7.710   4.818   3.266 -0.5780 -0.1975 -0.2120
  516MOL0     H69612   7.440   4.713   3.114  0.3076  0.0178 -0.3366
  516MOL0     H69613   7.438   4.542   3.144 -0.8640 -0.6838  1.5620
  516MOL0     H69614   7.467   4.764   3.352  0.2988  0.4964 -0.5160
  516MOL0     H69615   7.477   4.581   3.392  1.5884  1.2100  1.7629
  516MOL0     H69616   7.239   4.559   3.293 -2.8927 -0.1282  4.0178
  516MOL0     H69617   7.236   4.736   3.295  1.1183  1.3294  2.6947
  516MOL0     H69618   7.323   4.690   3.550  0.6913 -2.1437  0.3719
  516MOL0     H69619   7.252   4.532   3.513  2.1309 -0.0438 -0.7160
  516MOL0     H69620   7.148   4.515   3.700 -0.2228 -0.9933 -0.8244
  516MOL0     H69621   7.081   4.373   3.878 -0.0474 -0.4976 -0.0240
  516MOL0     H69622   6.920   4.394   3.948  1.0896  2.0062 -0.0994
  516MOL0     H69623   6.936   4.286   3.808 -1.4695  0.9623 -1.0296
  516MOL0     H69624   6.423   4.399   3.629 -0.7204 -2.8193  1.0057
  516MOL0     H69625   6.201   4.318   3.697  0.4949 -0.0938 -1.0275
  516MOL0     H69626   5.963   4.413   3.734 -1.9980 -3.5081 -3.0168
  516MOL0     H69627   5.982   4.252   3.815  0.3968  0.8982 -0.5704
  516MOL0     H69628   5.817   4.333   3.990 -2.7113  1.3801 -0.0137
  516MOL0     H69629   5.802   4.480   3.919 -1.7809 -0.3290  1.5768
  516MOL0     H69630   5.738   4.220   3.756 -1.8035 -1.0782  0.6231
  516MOL0     H69631   5.694   4.382   3.701 -4.2259  2.0060  1.9711
  516MOL0     H69632   5.498   4.275   3.803  0.2869  0.1960 -1.4826
  516MOL0     H69633   5.574   4.295   3.967 -1.8858  1.2197  0.6487
  516MOL0     H69634   5.500   4.508   3.755  2.0339  1.7906  0.2136
  516MOL0     H69635   5.610   4.544   3.890  0.3701  0.7120  0.7916
  516MOL0     H69636   5.315   4.454   3.877  1.2154 -1.2246 -0.3353
  516MOL0     H69637   5.397   4.436   4.030 -0.1189  0.5791  0.5678
  516MOL0     H69638   5.314   4.681   3.880 -0.0835 -1.2066 -1.1367
  516MOL0     H69639   5.443   4.690   4.000  1.7591 -0.7063 -1.4853
  516MOL0     H69640   5.251   4.747   4.113 -0.0762  0.4137 -3.5072
  516MOL0     H69641   5.328   4.598   4.174 -3.0094 -1.4816  0.9865
  516MOL0     H69642   6.218   4.550   4.063 -0.9155  3.4174 -0.9783
  516MOL0     H69643   6.460   4.613   3.992 -0.0288  0.3668 -1.4536
  516MOL0     H69644   6.695   4.666   3.577  0.9018 -0.2816 -1.0723
  516MOL0     H69645   6.889   4.760   3.465 -1.5927 -0.7917 -0.7034
  516MOL0     H69646   8.314   4.946   4.185 -0.0124  1.2892 -0.7995
  516MOL0     H69647   8.490   4.933   4.350  2.1291 -0.7711  0.0001
  516MOL0     H69648   8.773   5.110   4.688  0.1864  1.1752  1.3362
  516MOL0     H69649   8.980   5.108   4.828 -0.7748  3.5339 -1.0806
  516MOL0     H69650   9.353   4.950   4.643 -0.2307  1.7852  0.5791
  516MOL0     H69651   9.412   5.011   4.794  0.5428 -0.9482  0.5114
  516MOL0     H69652   9.260   4.847   4.920  0.9031 -0.2671  0.0694
  516MOL0     H69653   9.395   4.773   4.829 -1.8405 -1.2338 -0.4272
  516MOL0     H69654   9.241   4.739   4.634 -1.2597  2.5902  0.1022
  516MOL0     H69655   9.111   4.755   4.768 -0.3516 -0.9475 -0.5123
  516MOL0     H69656   9.352   4.567   4.795 -0.6243 -0.8789  1.4937
  516MOL0     H69657   9.222   4.519   4.690  2.0465 -1.8284  0.1895
  516MOL0     H69658   9.057   4.508   5.084  1.0570  0.0346  1.1014
  516MOL0     H69659   9.219   4.980   4.495  2.7622  0.8270  3.4072
  516MOL0     H69660   9.023   4.996   4.349  3.7109 -1.3095  1.3119
  517MOL0     O69661   9.215   9.177   9.258 -0.0687 -0.4511 -0.1847
  517MOL0     C69662   9.303   9.122   9.322 -0.2055 -0.6386 -0.1804
  517MOL0     O69663   9.280   9.025   9.419  0.0066  0.1880 -0.2097
  517MOL0     C69664   9.158   8.962   9.415 -0.1066  0.0293 -0.8777
  517MOL0     C69665   9.090   8.968   9.530  0.7044 -0.8909  0.1891
  517MOL0     C69666   8.986   8.878   9.558 -1.1745  0.2770  0.2830
  517MOL0     C69667   8.948   8.789   9.451 -0.2783 -0.1636  0.2274
  517MOL0     O69668   8.846   8.701   9.477  0.3029  0.0696 -0.6735
  517MOL0     C69669   8.805   8.610   9.373 -1.4128 -0.0428 -0.5516
  517MOL0     C69670   8.715   8.516   9.428  0.7300  0.3629 -0.2626
  517MOL0     C69671   8.648   8.422   9.331 -0.2720 -0.2490 -0.2599
  517MOL0     C69672   8.560   8.323   9.414  0.5183  0.3313 -0.0283
  517MOL0     C69673   8.472   8.240   9.321 -1.0295 -0.1992  0.8950
  517MOL0     C69674   8.380   8.150   9.405 -0.4675  0.8013  0.3055
  517MOL0     C69675   8.283   8.066   9.323  0.7332  0.7781  0.5126
  517MOL0     C69676   8.351   7.977   9.225 -0.4973 -0.2159 -0.2116
  517MOL0     N69677   8.256   7.883   9.160  0.5023  0.1008 -0.0011
  517MOL0     C69678   8.121   7.897   9.156 -0.4295  0.3346  0.7866
  517MOL0     C69679   8.077   7.789   9.091 -0.0799 -0.5549  0.3582
  517MOL0     C69680   7.939   7.773   9.031 -0.1158 -0.0435 -0.2794
  517MOL0     C69681   7.836   7.765   9.143 -0.1182  0.3548 -0.3251
  517MOL0     C69682   7.686   7.787   9.088 -0.5369  0.5202 -0.0748
  517MOL0     C69683   7.643   7.695   8.978 -0.0153 -0.5738 -0.1403
  517MOL0     O69684   7.670   7.554   9.014  0.0904  0.4223  0.7071
  517MOL0     C69685   7.566   7.486   9.064  0.4326 -0.3001  0.1258
  517MOL0     C69686   7.452   7.453   8.989  0.1523 -0.2150  0.5152
  517MOL0     C69687   7.341   7.390   9.053  0.1082 -0.0956  1.1663
  517MOL0     C69688   7.225   7.358   8.959 -0.2128  0.6692  0.8265
  517MOL0     C69689   7.342   7.362   9.189 -0.3118 -0.1628 -0.9584
  517MOL0     C69690   7.224   7.306   9.256  1.1642  0.0433 -0.1571
  517MOL0     O69691   7.152   7.212   9.194  0.0814 -0.4326 -0.9215
  517MOL0     C69692   7.067   7.138   9.280 -0.5857 -0.4935  0.2768
  517MOL0     C69693   6.926   7.166   9.268 -0.7294  0.3665 -0.6230
  517MOL0     C69694   6.840   7.113   9.362  0.5937 -0.0368 -0.4849
  517MOL0     C69695   6.885   7.035   9.464 -0.6659  0.3765 -0.5046
  517MOL0     O69696   6.806   6.970   9.561  0.2887 -0.5212 -0.9861
  517MOL0     C69697   6.667   6.990   9.555  0.4408  0.4588 -0.4256
  517MOL0     C69698   6.610   6.924   9.677  1.0097  0.5551 -0.1726
  517MOL0     C69699   6.459   6.939   9.672 -0.5426  0.5908  0.2246
  517MOL0     C69700   6.402   6.852   9.785  0.4440 -0.7133  0.3526
  517MOL0     C69701   6.243   6.855   9.780 -0.9885 -0.4519 -1.4449
  517MOL0     C69702   6.187   6.744   9.867 -1.1383 -0.3759 -0.2556
  517MOL0     C69703   6.036   6.749   9.896 -0.4854 -0.6064 -0.9001
  517MOL0     C69704   5.977   6.607   9.871  0.3395  0.0432 -0.7505
  517MOL0    Cl69705   6.001   6.574   9.697  0.1091 -0.2369  0.1831
  517MOL0     C69706   7.023   7.001   9.470 -0.6521  0.2178  0.9099
  517MOL0     C69707   7.117   7.049   9.381 -0.4566 -0.6797  0.1448
  517MOL0     O69708   7.208   7.341   9.368  0.2156  0.5167 -0.8937
  517MOL0     C69709   7.460   7.400   9.264 -0.7380  0.7197 -0.3629
  517MOL0     C69710   7.569   7.449   9.194 -0.2793 -0.5208 -0.1091
  517MOL0     N69711   8.184   7.707   9.062 -0.0770  0.1790 -0.5156
  517MOL0     N69712   8.286   7.763   9.111 -0.0164 -0.4902  0.2248
  517MOL0     C69713   9.009   8.804   9.325  0.7457 -0.0808 -0.3863
  517MOL0     C69714   9.107   8.889   9.307 -1.1534  0.1290  0.1932
  517MOL0     C69715   9.443   9.153   9.289 -0.1707 -0.9066  0.9427
  517MOL0     C69716   9.492   9.209   9.173 -0.0187  0.3337  0.2134
  517MOL0     C69717   9.632   9.229   9.147  0.7193 -0.5041  0.4817
  517MOL0     C69718   9.729   9.198   9.243  1.0553 -0.1813 -0.0067
  517MOL0     O69719   9.860   9.207   9.203 -0.0354  0.5547 -0.0216
  517MOL0     C69720   9.970   9.156   9.291  1.0038  0.0507  0.1683
  517MOL0     C69721  10.105   9.176   9.230 -0.6413 -0.7827  0.2190
  517MOL0     C69722  10.213   9.137   9.335  0.1877  0.1751 -0.3472
  517MOL0     C69723  10.355   9.164   9.280 -0.1663  0.3504 -0.0155
  517MOL0     C69724  10.394   9.066   9.175 -1.2580 -0.2866 -0.0898
  517MOL0     C69725  10.421   8.979   9.097  0.0517 -0.5113  0.5360
  517MOL0     C69726   9.677   9.144   9.369  0.3190  0.0586 -0.0077
  517MOL0     C69727   9.535   9.132   9.387 -1.0619 -0.2028 -0.4094
  517MOL0     H69728   9.119   9.028   9.615  0.5345 -2.6512  1.5511
  517MOL0     H69729   8.943   8.872   9.658 -0.2792  1.4842  0.7594
  517MOL0     H69730   8.768   8.678   9.296 -0.4939 -1.0746 -1.9690
  517MOL0     H69731   8.889   8.564   9.321 -1.4079 -1.0088  0.2789
  517MOL0     H69732   8.768   8.457   9.504  3.3767 -1.0024 -2.9188
  517MOL0     H69733   8.633   8.571   9.474 -0.4597 -1.8654  0.4359
  517MOL0     H69734   8.580   8.468   9.259 -0.0048 -1.3715 -1.2607
  517MOL0     H69735   8.726   8.362   9.284 -1.5204 -1.3752 -0.9634
  517MOL0     H69736   8.625   8.261   9.477 -3.7112 -2.8765  1.6858
  517MOL0     H69737   8.483   8.375   9.473 -1.7262 -1.5944 -1.1123
  517MOL0     H69738   8.403   8.306   9.269 -1.5690  0.0152  1.8655
  517MOL0     H69739   8.533   8.195   9.242  0.8618  3.1134  0.2617
  517MOL0     H69740   8.431   8.083   9.475  3.1209 -0.0918 -2.8106
  517MOL0     H69741   8.319   8.217   9.467  1.2788  3.3331 -0.5069
  517MOL0     H69742   8.224   8.008   9.395 -1.5185  2.0069 -0.2580
  517MOL0     H69743   8.200   8.109   9.267 -1.4872 -3.8339 -0.2475
  517MOL0     H69744   8.424   7.922   9.284  1.7964  1.0708 -1.7076
  517MOL0     H69745   8.411   8.035   9.155 -0.9782 -0.4491 -0.8304
  517MOL0     H69746   8.058   7.983   9.177 -2.2674 -0.4609 -1.0718
  517MOL0     H69747   7.918   7.856   8.964  0.2637 -1.0778 -1.7270
  517MOL0     H69748   7.940   7.680   8.972 -0.3711 -0.1299 -0.1506
  517MOL0     H69749   7.849   7.842   9.220  0.4814 -1.1272  1.1162
  517MOL0     H69750   7.847   7.674   9.202 -0.3566  0.3461 -0.2897
  517MOL0     H69751   7.671   7.889   9.052 -1.1205 -0.7338 -3.7871
  517MOL0     H69752   7.617   7.776   9.173 -0.7669  0.8354 -0.2153
  517MOL0     H69753   7.692   7.723   8.885 -1.6217  1.5998 -0.4027
  517MOL0     H69754   7.538   7.713   8.954 -0.0734 -1.4797 -0.5854
  517MOL0     H69755   7.451   7.497   8.890 -2.6524  2.2883  1.4985
  517MOL0     H69756   7.128   7.372   9.009  0.4458 -0.7149  2.6391
  517MOL0     H69757   7.233   7.423   8.872  0.0588 -2.6977 -1.9164
  517MOL0     H69758   7.233   7.255   8.921  0.2409  1.3559 -1.0445
  517MOL0     H69759   6.893   7.222   9.181  1.7344  1.9162 -0.6457
  517MOL0     H69760   6.733   7.124   9.348  0.3619 -2.2141 -0.7398
  517MOL0     H69761   6.634   7.094   9.559 -1.1072 -0.0217  0.6380
  517MOL0     H69762   6.628   6.945   9.464  1.9713 -3.2832  0.5838
  517MOL0     H69763   6.639   6.818   9.678 -1.5008 -0.2997 -2.6316
  517MOL0     H69764   6.653   6.972   9.765 -1.6820  1.4847  0.7288
  517MOL0     H69765   6.429   6.895   9.576 -0.3233  0.3480  0.2677
  517MOL0     H69766   6.436   7.046   9.677 -0.5149  0.7328 -1.8828
  517MOL0     H69767   6.447   6.753   9.775  2.9592  0.3290  0.6945
  517MOL0     H69768   6.433   6.890   9.883 -1.3693 -1.4192  1.2493
  517MOL0     H69769   6.211   6.855   9.676 -0.0626  1.5530 -1.7780
  517MOL0     H69770   6.208   6.950   9.822  1.6269 -0.1087  0.2266
  517MOL0     H69771   6.215   6.651   9.817 -2.1088  0.0205 -1.5883
  517MOL0     H69772   6.238   6.737   9.963  2.5670 -0.2401 -2.0365
  517MOL0     H69773   5.986   6.822   9.832 -0.9753 -0.5376 -0.4392
  517MOL0     H69774   6.016   6.773  10.001 -1.6850  0.3408 -1.3181
  517MOL0     H69775   5.870   6.610   9.894  0.5749 -3.5453  1.6057
  517MOL0     H69776   6.022   6.530   9.935  1.4582  0.3590 -1.1345
  517MOL0     H69777   7.063   6.933   9.544 -0.3388 -2.2633 -1.4089
  517MOL0     H69778   7.222   7.019   9.383 -0.5011 -1.0005 -1.3912
  517MOL0     H69779   7.471   7.376   9.370 -2.2546  0.4086 -0.2491
  517MOL0     H69780   7.660   7.467   9.252 -1.4197  0.2100  1.5341
  517MOL0     H69781   8.985   8.743   9.239 -3.4683  1.1972 -0.3766
  517MOL0     H69782   9.165   8.893   9.216 -0.8849  2.5758  0.3841
  517MOL0     H69783   9.420   9.246   9.101 -1.4102 -1.7242  0.4463
  517MOL0     H69784   9.663   9.282   9.057  1.1646 -1.3828  0.1133
  517MOL0     H69785   9.973   9.204   9.389  0.6797 -0.5792  0.4949
  517MOL0     H69786   9.964   9.047   9.302 -2.5238  0.0041 -0.9489
  517MOL0     H69787  10.122   9.281   9.204  1.2579 -1.1150  0.0159
  517MOL0     H69788  10.116   9.130   9.132  0.2368 -0.3118  0.0850
  517MOL0     H69789  10.210   9.030   9.355  0.8050 -0.1452 -1.8436
  517MOL0     H69790  10.188   9.206   9.416 -0.9273  0.5633 -0.9985
  517MOL0     H69791  10.425   9.156   9.363  0.7446  2.4864 -0.5075
  517MOL0     H69792  10.352   9.266   9.239 -0.8259  1.0119  1.6089
  517MOL0     H69793  10.452   8.909   9.022 -1.1543  0.6959 -1.1548
  517MOL0     H69794   9.756   9.118   9.439 -0.0579 -0.2599  0.3058
  517MOL0     H69795   9.494   9.090   9.478 -2.5597 -0.5718 -1.2194
  518MOL0     O69796   0.172   7.194   7.810 -0.6616  0.0661  1.1539
  518MOL0     C69797   0.269   7.171   7.741 -0.3752  0.7621 -0.5819
  518MOL0     O69798   0.297   7.240   7.625 -0.5023  0.5293  0.3029
  518MOL0     C69799   0.200   7.298   7.558  0.1399 -0.5890 -0.1103
  518MOL0     C69800   0.123   7.403   7.608  0.2926 -0.0519  0.0380
  518MOL0     C69801   0.021   7.452   7.535 -0.8586 -0.1169  0.6066
  518MOL0     C69802  -0.010   7.405   7.411 -0.0405  0.1696 -0.8706
  518MOL0     O69803  -0.108   7.474   7.348 -0.0966 -0.5416  0.1722
  518MOL0     C69804  -0.157   7.417   7.220 -0.2498  0.6422  0.2142
  518MOL0     C69805  -0.254   7.515   7.165 -0.4471 -0.0474 -0.4378
  518MOL0     C69806  -0.318   7.456   7.039  0.1906 -1.3257 -0.0596
  518MOL0     C69807  -0.438   7.541   6.991 -0.1984 -1.1307 -0.0394
  518MOL0     C69808  -0.503   7.487   6.871  0.0493  0.0575 -0.2959
  518MOL0     C69809  -0.606   7.580   6.811  0.3567  0.8129 -0.8690
  518MOL0     C69810  -0.674   7.507   6.696 -0.3495 -0.0781 -0.3109
  518MOL0     C69811  -0.793   7.578   6.643  0.4884  0.3802  0.7175
  518MOL0     N69812  -0.843   7.525   6.511  0.6580  0.2092 -0.0117
  518MOL0     C69813  -0.972   7.482   6.480 -1.0201  0.2718  0.5420
  518MOL0     C69814  -0.960   7.440   6.353  0.4301  0.2094  0.3636
  518MOL0     C69815  -1.091   7.382   6.282  0.3918  0.9841 -0.2564
  518MOL0     C69816  -1.184   7.497   6.241 -0.7478 -0.2457 -0.4805
  518MOL0     C69817  -1.327   7.454   6.237  0.8473  0.6474 -0.6506
  518MOL0     C69818  -1.418   7.574   6.203 -0.2076  0.2130  0.0246
  518MOL0     O69819  -1.558   7.542   6.200  0.1357  0.6406  0.1082
  518MOL0     C69820  -1.614   7.478   6.091  0.1086  0.3861  0.0247
  518MOL0     C69821  -1.548   7.444   5.974 -0.0763 -0.2004  0.8745
  518MOL0     C69822  -1.600   7.375   5.868  0.5334 -0.5281 -0.1445
  518MOL0     C69823  -1.522   7.359   5.748  0.0286 -0.2219 -0.0061
  518MOL0     C69824  -1.726   7.317   5.889  0.4345 -0.3689 -0.2589
  518MOL0     C69825  -1.795   7.235   5.788  0.1241  0.4115  0.5033
  518MOL0     O69826  -1.922   7.218   5.805  0.5357 -0.3731 -0.1355
  518MOL0     C69827  -2.005   7.129   5.736  0.6172 -0.3725 -0.1439
  518MOL0     C69828  -2.140   7.136   5.774 -0.2839 -0.7049 -0.1982
  518MOL0     C69829  -2.234   7.058   5.712  0.2693  0.1200  1.0613
  518MOL0     C69830  -2.203   6.974   5.603  0.2473 -0.2655 -0.0597
  518MOL0     O69831  -2.301   6.904   5.536  0.1672 -0.2720 -0.5299
  518MOL0     C69832  -2.265   6.764   5.515  0.3564 -0.4829  0.5329
  518MOL0     C69833  -2.380   6.696   5.439  0.4198 -0.0464 -0.5063
  518MOL0     C69834  -2.517   6.711   5.527 -0.5331 -0.2412 -0.2574
  518MOL0     C69835  -2.635   6.638   5.454 -0.5957 -0.0050  0.3730
  518MOL0     C69836  -2.751   6.609   5.545 -0.2981 -0.5497 -0.6658
  518MOL0     C69837  -2.844   6.503   5.487  0.5365 -0.1738  0.7907
  518MOL0     C69838  -2.955   6.466   5.585  0.2318 -0.1672  0.4165
  518MOL0     C69839  -3.056   6.378   5.524  0.2777  0.1878  0.5773
  518MOL0    Cl69840  -3.222   6.388   5.596 -0.2028  0.3207  0.2398
  518MOL0     C69841  -2.072   6.979   5.558  0.0299 -0.0105 -0.2285
  518MOL0     C69842  -1.970   7.052   5.621 -0.8874 -0.6391 -0.0295
  518MOL0     O69843  -1.735   7.194   5.690  0.2087  0.5752  0.4304
  518MOL0     C69844  -1.808   7.360   6.002  0.6728  0.4253 -0.0573
  518MOL0     C69845  -1.752   7.444   6.094 -0.1305  0.5935 -1.0032
  518MOL0     N69846  -0.839   7.462   6.298  0.3457  0.2918 -0.1128
  518MOL0     N69847  -0.766   7.506   6.394 -0.2357 -0.1284 -0.4100
  518MOL0     C69848   0.055   7.290   7.365 -0.8057  0.7103 -1.0477
  518MOL0     C69849   0.166   7.239   7.433 -0.4111 -0.5271  0.6065
  518MOL0     C69850   0.374   7.079   7.783 -0.6101  0.4148  0.0655
  518MOL0     C69851   0.501   7.064   7.719  0.6987 -0.5978 -0.3515
  518MOL0     C69852   0.593   6.965   7.771 -0.2928 -0.5202 -0.4766
  518MOL0     C69853   0.562   6.884   7.877  0.0903 -0.0683 -0.6620
  518MOL0     O69854   0.647   6.780   7.913 -0.4753  0.1262  0.3627
  518MOL0     C69855   0.780   6.820   7.921  0.3140  1.1036 -0.0143
  518MOL0     C69856   0.864   6.746   8.028  1.0267  0.0362 -0.2596
  518MOL0     C69857   0.869   6.817   8.165 -0.3144 -0.3711  0.5507
  518MOL0     C69858   0.746   6.819   8.249 -1.0099  0.5486  0.2945
  518MOL0     C69859   0.682   6.684   8.257 -0.7195  0.3706 -0.1106
  518MOL0     C69860   0.628   6.575   8.271  0.6136  1.2011  0.9348
  518MOL0     C69861   0.432   6.887   7.930 -0.1389  0.1070  0.4587
  518MOL0     C69862   0.341   6.988   7.882  0.1025 -0.5016  0.1308
  518MOL0     H69863   0.131   7.445   7.708 -0.7739  0.5863 -0.1271
  518MOL0     H69864  -0.034   7.538   7.572 -0.2881  1.0035 -0.9975
  518MOL0     H69865  -0.078   7.397   7.146 -2.1950  1.8923 -2.3718
  518MOL0     H69866  -0.213   7.323   7.222  2.4005 -1.0246  0.9807
  518MOL0     H69867  -0.328   7.549   7.238 -2.0087  1.5170 -2.6545
  518MOL0     H69868  -0.198   7.604   7.136 -0.2825  0.4064  1.1749
  518MOL0     H69869  -0.248   7.439   6.957 -1.9656 -1.9509 -1.8943
  518MOL0     H69870  -0.363   7.357   7.046 -0.1699 -1.0528  2.0678
  518MOL0     H69871  -0.515   7.541   7.068  0.7351  1.7579  1.0460
  518MOL0     H69872  -0.409   7.646   6.974  1.3047 -1.7269 -1.4187
  518MOL0     H69873  -0.426   7.442   6.808  0.8593 -0.1496  0.8023
  518MOL0     H69874  -0.557   7.402   6.915  1.3304 -0.5739  0.1404
  518MOL0     H69875  -0.686   7.610   6.880  0.7534  3.5280 -1.4780
  518MOL0     H69876  -0.548   7.663   6.770  0.7319  0.5756 -0.8289
  518MOL0     H69877  -0.594   7.504   6.621  0.7780  0.2185  0.8541
  518MOL0     H69878  -0.713   7.408   6.721 -0.7992  0.0313 -0.5695
  518MOL0     H69879  -0.786   7.687   6.637 -1.6507  0.5199 -0.5189
  518MOL0     H69880  -0.880   7.568   6.709 -0.0003  0.1908  0.0705
  518MOL0     H69881  -1.059   7.469   6.543 -0.5003  0.9759  1.4501
  518MOL0     H69882  -1.070   7.317   6.197  1.2096 -1.0566  1.3878
  518MOL0     H69883  -1.144   7.316   6.351  1.8413  0.1330  0.0925
  518MOL0     H69884  -1.151   7.523   6.140 -0.1671 -0.7147 -0.4206
  518MOL0     H69885  -1.175   7.584   6.307 -0.6647 -0.3307 -0.3785
  518MOL0     H69886  -1.357   7.404   6.330 -0.6376  1.6629 -0.5460
  518MOL0     H69887  -1.337   7.377   6.159 -0.1566 -2.0342  1.9230
  518MOL0     H69888  -1.376   7.625   6.116 -0.4502  2.3364  1.0825
  518MOL0     H69889  -1.403   7.652   6.279  1.3030 -1.1444  1.1815
  518MOL0     H69890  -1.449   7.484   5.954 -0.7980  0.0836 -2.8488
  518MOL0     H69891  -1.467   7.268   5.776  0.1654  0.2787  1.4119
  518MOL0     H69892  -1.571   7.342   5.652  1.4763 -1.7350 -0.5461
  518MOL0     H69893  -1.444   7.435   5.739 -2.1245  2.4051  1.8762
  518MOL0     H69894  -2.174   7.200   5.855  2.6817 -1.8394  2.1125
  518MOL0     H69895  -2.333   7.066   5.755 -0.1959  0.0027  0.0433
  518MOL0     H69896  -2.183   6.760   5.444  0.9853  1.2300  1.1047
  518MOL0     H69897  -2.253   6.718   5.614 -1.1656 -4.1378 -0.8168
  518MOL0     H69898  -2.401   6.741   5.341 -3.2372 -2.0387 -0.8423
  518MOL0     H69899  -2.365   6.588   5.426 -0.3479 -0.2652  0.3346
  518MOL0     H69900  -2.535   6.812   5.563 -3.0060 -1.6403  2.9053
  518MOL0     H69901  -2.507   6.658   5.622 -0.0057  0.4250  0.0621
  518MOL0     H69902  -2.668   6.697   5.369  1.9502  0.7481 -0.1676
  518MOL0     H69903  -2.590   6.548   5.411 -0.3109  0.1432  0.3609
  518MOL0     H69904  -2.806   6.702   5.564  0.4880 -0.2268  0.0750
  518MOL0     H69905  -2.716   6.575   5.643 -1.3032  3.7554  1.4352
  518MOL0     H69906  -2.886   6.555   5.400  1.2703  1.1424  1.1963
  518MOL0     H69907  -2.784   6.416   5.462  0.3907  0.0047 -0.2061
  518MOL0     H69908  -3.010   6.559   5.602 -0.4365 -0.4767 -0.0147
  518MOL0     H69909  -2.905   6.417   5.669 -0.6743 -2.5591 -0.3569
  518MOL0     H69910  -3.020   6.275   5.530 -1.4798 -0.5610 -0.7888
  518MOL0     H69911  -3.077   6.414   5.423 -0.4841 -2.0798 -0.1292
  518MOL0     H69912  -2.042   6.924   5.469  0.2587  0.4861 -0.4618
  518MOL0     H69913  -1.868   7.051   5.586 -1.6096  1.5729 -2.5840
  518MOL0     H69914  -1.905   7.315   6.017  0.2099  1.2185 -0.5680
  518MOL0     H69915  -1.815   7.465   6.180  0.1947 -1.7080 -0.1252
  518MOL0     H69916   0.013   7.226   7.288  1.3701 -1.8304 -0.2826
  518MOL0     H69917   0.217   7.149   7.399 -0.4890 -1.6502  3.2495
  518MOL0     H69918   0.532   7.133   7.641  0.1754  0.3125  0.2330
  518MOL0     H69919   0.690   6.959   7.724  0.8690 -2.3551  1.9509
  518MOL0     H69920   0.826   6.804   7.823 -1.0210 -3.7882 -0.0813
  518MOL0     H69921   0.786   6.927   7.944  1.3000  1.3203 -1.2041
  518MOL0     H69922   0.959   6.719   7.981  0.3024 -1.3031 -1.0585
  518MOL0     H69923   0.813   6.651   8.048 -0.7754  0.8263 -0.8746
  518MOL0     H69924   0.900   6.919   8.144 -0.1544 -0.5774 -0.2833
  518MOL0     H69925   0.938   6.760   8.228 -0.2547 -0.2994  0.5506
  518MOL0     H69926   0.670   6.880   8.201 -2.6068  1.0951  3.2752
  518MOL0     H69927   0.758   6.856   8.351  0.6491  3.5291 -0.8632
  518MOL0     H69928   0.588   6.477   8.287  3.6858 -0.0816  1.3355
  518MOL0     H69929   0.387   6.810   7.991 -0.1477  0.0403  0.3672
  518MOL0     H69930   0.243   6.986   7.928 -0.1184 -2.5532 -0.3261
  519MOL0     O69931   3.026   7.291   1.209  0.6312 -0.2973 -0.5030
  519MOL0     C69932   3.044   7.236   1.101  0.7077  0.0220 -0.3951
  519MOL0     O69933   2.951   7.179   1.019 -0.6480  0.1612 -0.2604
  519MOL0     C69934   2.821   7.208   1.039  0.4323  0.4122  0.9998
  519MOL0     C69935   2.746   7.284   0.944  0.8315  0.7945 -0.1943
  519MOL0     C69936   2.617   7.325   0.964  0.2310  0.1697 -0.7427
  519MOL0     C69937   2.550   7.276   1.080  1.0749  0.6008  0.0357
  519MOL0     O69938   2.418   7.287   1.113  0.3459 -0.2767  0.1065
  519MOL0     C69939   2.336   7.380   1.047 -0.4418 -0.9368 -0.3952
  519MOL0     C69940   2.197   7.372   1.121 -0.0027 -0.8690  0.0438
  519MOL0     C69941   2.096   7.475   1.074  0.1544 -0.9910 -0.8544
  519MOL0     C69942   2.060   7.453   0.923  1.3994 -0.1389 -0.1361
  519MOL0     C69943   1.960   7.557   0.875  0.6473  0.6513  0.1940
  519MOL0     C69944   1.814   7.533   0.931 -0.6993  0.2350  0.2846
  519MOL0     C69945   1.712   7.646   0.882 -0.7305  0.7481  0.1051
  519MOL0     C69946   1.571   7.595   0.897 -0.1167  0.4095 -0.5767
  519MOL0     N69947   1.523   7.563   1.039 -0.1855 -0.0893 -0.4586
  519MOL0     C69948   1.504   7.441   1.089  0.2403 -0.4602 -0.4900
  519MOL0     C69949   1.443   7.460   1.212 -0.6026 -0.0299 -0.0241
  519MOL0     C69950   1.401   7.346   1.307 -0.1796 -0.1441 -0.1354
  519MOL0     C69951   1.255   7.316   1.277 -0.5001  0.8435 -0.3641
  519MOL0     C69952   1.242   7.168   1.257  0.6914 -0.3259 -0.0526
  519MOL0     C69953   1.093   7.135   1.224 -0.0397  0.5539  0.2195
  519MOL0     O69954   1.022   7.220   1.134 -0.0166 -0.4349  0.3426
  519MOL0     C69955   0.892   7.186   1.106  0.2051  0.0167  0.1945
  519MOL0     C69956   0.806   7.293   1.089  0.0581  0.2747 -0.3044
  519MOL0     C69957   0.665   7.278   1.062 -0.0588 -0.3009  0.5784
  519MOL0     C69958   0.581   7.401   1.038  0.4664 -0.9897 -0.3603
  519MOL0     C69959   0.615   7.147   1.073 -0.5529  0.4457  0.3933
  519MOL0     C69960   0.470   7.105   1.067  0.1398 -0.3790 -0.1414
  519MOL0     O69961   0.433   6.979   1.034 -0.0764 -0.0222  0.8257
  519MOL0     C69962   0.299   6.957   1.015  0.4703  0.0197 -0.5348
  519MOL0     C69963   0.204   6.975   1.120  0.8209 -0.0741 -0.0201
  519MOL0     C69964   0.064   6.965   1.105  0.0943 -0.4137  0.2557
  519MOL0     C69965   0.021   6.939   0.967  0.1474 -0.1276 -0.3022
  519MOL0     O69966  -0.110   6.937   0.928  0.5524  0.2595 -0.5160
  519MOL0     C69967  -0.193   7.025   0.999 -0.6403  0.2205 -0.1519
  519MOL0     C69968  -0.329   7.024   0.917 -0.7331 -0.2572  0.1532
  519MOL0     C69969  -0.430   7.120   0.991 -0.3059 -0.4344  0.2049
  519MOL0     C69970  -0.574   7.068   0.967  1.5047 -0.2110 -0.9089
  519MOL0     C69971  -0.672   7.164   1.026 -0.0989  0.0552 -0.5765
  519MOL0     C69972  -0.808   7.116   0.979  0.7015  0.0581  0.4019
  519MOL0     C69973  -0.914   7.214   1.035 -0.2341 -0.0466  0.1168
  519MOL0     C69974  -1.053   7.171   1.004  0.3022 -0.0693 -0.5644
  519MOL0    Cl69975  -1.179   7.290   1.085  0.0191  0.5027  0.3702
  519MOL0     C69976   0.120   6.918   0.867  1.2001  0.5731 -0.2551
  519MOL0     C69977   0.252   6.927   0.888  0.6027 -0.6810  0.3970
  519MOL0     O69978   0.388   7.195   1.096 -0.3295  0.6371 -0.1432
  519MOL0     C69979   0.706   7.039   1.078 -0.1539  0.5935 -0.9795
  519MOL0     C69980   0.842   7.057   1.099 -0.1437 -0.1669 -0.4958
  519MOL0     N69981   1.435   7.593   1.237 -0.4881  0.2246 -0.0904
  519MOL0     N69982   1.480   7.659   1.133  0.2038 -0.4222  0.3366
  519MOL0     C69983   2.625   7.206   1.174  0.7766  0.1426  0.1750
  519MOL0     C69984   2.759   7.173   1.151  0.2915 -0.1171  0.0918
  519MOL0     C69985   3.181   7.231   1.065  0.5843  0.6494  0.5150
  519MOL0     C69986   3.225   7.139   0.967 -1.0157 -0.4241 -0.0944
  519MOL0     C69987   3.360   7.115   0.946  0.5278 -0.4959 -1.0228
  519MOL0     C69988   3.453   7.188   1.016  0.2416  1.1266 -0.7231
  519MOL0     O69989   3.590   7.179   1.012 -0.4674  0.5534  0.5801
  519MOL0     C69990   3.654   7.113   0.907  0.7110  0.3369  0.3877
  519MOL0     C69991   3.796   7.156   0.871  0.0914  0.6007 -0.5550
  519MOL0     C69992   3.881   7.173   0.999 -0.8091 -0.3541  0.3448
  519MOL0     C69993   4.031   7.177   0.979 -0.4117 -0.3657  0.0421
  519MOL0     C69994   4.075   7.297   0.909 -0.5185 -0.1605  0.1907
  519MOL0     C69995   4.109   7.391   0.837 -0.3293 -0.1646 -1.2483
  519MOL0     C69996   3.417   7.292   1.103  0.7917  0.8869  0.0492
  519MOL0     C69997   3.281   7.305   1.134  0.1671 -0.0451 -0.1645
  519MOL0     H69998   2.795   7.322   0.855 -1.4519 -0.5213 -2.1014
  519MOL0     H69999   2.572   7.387   0.887 -0.3182  1.5905  0.6833
  519MOL0     H70000   2.376   7.482   1.046  0.9589 -1.2858  3.7380
  519MOL0     H70001   2.336   7.342   0.944  1.2315 -0.2425 -0.6879
  519MOL0     H70002   2.148   7.277   1.096 -2.3251  0.5424 -1.1279
  519MOL0     H70003   2.201   7.375   1.230  0.2578 -2.2767  0.0842
  519MOL0     H70004   2.015   7.469   1.147  0.5469 -1.2570 -0.4332
  519MOL0     H70005   2.134   7.576   1.087 -1.3323 -0.2727 -1.8500
  519MOL0     H70006   2.146   7.465   0.856  1.2688 -2.0312 -0.7124
  519MOL0     H70007   2.009   7.356   0.914 -0.1190  0.5701  0.4403
  519MOL0     H70008   1.995   7.655   0.909  0.6086  0.2939  1.3071
  519MOL0     H70009   1.965   7.570   0.767  1.2488  1.7085  0.3299
  519MOL0     H70010   1.791   7.431   0.896 -0.7901 -0.0818  1.2509
  519MOL0     H70011   1.814   7.525   1.040  3.0966 -0.8830  0.3275
  519MOL0     H70012   1.723   7.737   0.942  0.8282  1.1329 -0.7111
  519MOL0     H70013   1.739   7.669   0.778  1.8567 -0.2171  0.4844
  519MOL0     H70014   1.559   7.499   0.846  1.0529  1.0721 -2.1798
  519MOL0     H70015   1.504   7.662   0.842 -2.4682  0.0050  1.6006
  519MOL0     H70016   1.501   7.352   1.027 -0.4464 -0.1849 -0.8639
  519MOL0     H70017   1.466   7.260   1.288  0.9269  0.9032 -1.3581
  519MOL0     H70018   1.424   7.369   1.411 -1.4890 -2.7222  0.8102
  519MOL0     H70019   1.224   7.362   1.183 -1.9707  0.2470 -0.2058
  519MOL0     H70020   1.188   7.354   1.355 -0.5348  0.7567 -0.3513
  519MOL0     H70021   1.261   7.132   1.358 -0.4829  0.1220  0.3405
  519MOL0     H70022   1.310   7.130   1.180 -2.3606  0.3804 -3.3415
  519MOL0     H70023   1.039   7.129   1.319  0.1517 -2.7410  0.2397
  519MOL0     H70024   1.106   7.036   1.179  1.4545  0.1564  1.4368
  519MOL0     H70025   0.842   7.395   1.090 -0.1081  0.3377 -0.5913
  519MOL0     H70026   0.644   7.482   1.000 -1.6988  0.0923 -1.8747
  519MOL0     H70027   0.518   7.376   0.952  0.0769 -1.1731 -0.0269
  519MOL0     H70028   0.519   7.430   1.123  0.6779 -1.9400  0.1319
  519MOL0     H70029   0.242   6.999   1.219  1.9526  1.1178 -0.7062
  519MOL0     H70030  -0.008   6.973   1.186 -0.8125 -0.8529 -0.4812
  519MOL0     H70031  -0.204   6.983   1.099  0.6950 -0.5956 -0.3207
  519MOL0     H70032  -0.150   7.125   0.992  1.1290 -0.5300 -0.6575
  519MOL0     H70033  -0.305   7.069   0.820 -1.4878 -2.5133 -1.1434
  519MOL0     H70034  -0.379   6.927   0.905 -0.7613 -0.4466  1.6322
  519MOL0     H70035  -0.416   7.219   0.946  0.0601 -1.5533 -2.3296
  519MOL0     H70036  -0.416   7.124   1.099 -3.3651  0.2388  0.6673
  519MOL0     H70037  -0.592   7.057   0.859 -0.3920 -0.1998 -0.6417
  519MOL0     H70038  -0.592   6.968   1.008  0.8489  0.7850  1.3653
  519MOL0     H70039  -0.651   7.271   1.010  0.9546  0.5228  3.0581
  519MOL0     H70040  -0.685   7.147   1.133  2.2073  0.9750 -0.1041
  519MOL0     H70041  -0.810   7.115   0.870  1.2036 -0.2677  0.3884
  519MOL0     H70042  -0.822   7.013   1.015 -0.2910 -0.5357 -1.5449
  519MOL0     H70043  -0.912   7.315   0.994  1.6963 -0.0099  0.2087
  519MOL0     H70044  -0.897   7.226   1.142  1.0404 -3.2722  0.3944
  519MOL0     H70045  -1.067   7.072   1.050 -2.1853  1.4598  2.3212
  519MOL0     H70046  -1.057   7.156   0.896 -0.4118 -0.2747 -0.5144
  519MOL0     H70047   0.090   6.891   0.766  2.4833 -0.8346 -0.2802
  519MOL0     H70048   0.328   6.923   0.810  1.2506 -0.5770  1.0111
  519MOL0     H70049   0.664   6.939   1.070 -0.2834  0.3185  1.9507
  519MOL0     H70050   0.909   6.976   1.125 -1.1738 -1.7315 -2.4348
  519MOL0     H70051   2.581   7.171   1.267  0.6245  0.2567  0.1467
  519MOL0     H70052   2.821   7.117   1.219  2.4648  0.8644 -0.9995
  519MOL0     H70053   3.156   7.077   0.912  0.3753 -2.1523  0.0266
  519MOL0     H70054   3.392   7.043   0.872  0.4748 -0.1665 -1.3685
  519MOL0     H70055   3.666   7.009   0.938 -1.0378 -0.4125 -1.2325
  519MOL0     H70056   3.587   7.116   0.820  0.1583 -2.3855  0.6282
  519MOL0     H70057   3.801   7.244   0.806 -1.0621 -1.0635 -3.0335
  519MOL0     H70058   3.831   7.079   0.802  1.0293  2.3798 -2.1473
  519MOL0     H70059   3.871   7.092   1.072 -1.3981  0.8551  1.6345
  519MOL0     H70060   3.848   7.263   1.051  0.1549  0.5625 -0.6016
  519MOL0     H70061   4.048   7.087   0.919 -3.7640  0.9508 -3.2205
  519MOL0     H70062   4.094   7.171   1.069  0.1956 -1.0658 -0.4168
  519MOL0     H70063   4.138   7.471   0.773 -1.3271 -0.2203 -1.7891
  519MOL0     H70064   3.496   7.339   1.160  3.1862 -1.8054 -0.8258
  519MOL0     H70065   3.254   7.381   1.206 -1.4957  0.5988 -1.4000
  520MOL0     O70066   7.641   2.540   3.643  0.0735  0.0969  0.0233
  520MOL0     C70067   7.681   2.468   3.735 -0.6642  0.2275 -0.0216
  520MOL0     O70068   7.611   2.438   3.853  0.7173  1.0727  0.1340
  520MOL0     C70069   7.491   2.500   3.882  0.2833  0.2330  0.2530
  520MOL0     C70070   7.499   2.642   3.882  0.6609  0.3569 -0.4047
  520MOL0     C70071   7.385   2.724   3.899 -0.6735  0.1175  0.0294
  520MOL0     C70072   7.265   2.657   3.949 -0.5066  0.2951 -0.0931
  520MOL0     O70073   7.163   2.740   3.981  0.6506 -0.4110 -0.1338
  520MOL0     C70074   7.126   2.725   4.125  0.7762 -0.4286  0.5245
  520MOL0     C70075   7.052   2.841   4.178 -0.1195 -0.4415  0.0589
  520MOL0     C70076   7.139   2.969   4.162 -0.0856  0.1892  0.7204
  520MOL0     C70077   7.116   3.055   4.288  0.0222 -0.6547  0.3753
  520MOL0     C70078   7.193   3.187   4.280  0.1517 -0.2232 -0.4379
  520MOL0     C70079   7.178   3.260   4.415 -0.7457 -0.1351 -0.9463
  520MOL0     C70080   7.042   3.342   4.414 -0.3517 -0.6387  0.0159
  520MOL0     C70081   7.001   3.395   4.556 -0.2546  0.1392  0.6790
  520MOL0     N70082   6.867   3.463   4.553 -0.0218 -0.0585 -0.0787
  520MOL0     C70083   6.825   3.550   4.648  0.1439 -1.0986 -0.8336
  520MOL0     C70084   6.698   3.583   4.623 -0.3181  0.4750  0.2627
  520MOL0     C70085   6.602   3.647   4.728 -0.1418  0.8577  0.7645
  520MOL0     C70086   6.487   3.546   4.757  0.1163 -0.5655  0.2392
  520MOL0     C70087   6.375   3.563   4.663  0.3307  0.2235  0.3464
  520MOL0     C70088   6.231   3.512   4.708  0.6836 -0.0592  0.1581
  520MOL0     O70089   6.190   3.583   4.821 -0.1627 -0.2843 -1.2517
  520MOL0     C70090   6.058   3.571   4.862 -0.4009  0.0118  0.4148
  520MOL0     C70091   6.007   3.676   4.938 -0.0290 -0.2044  0.3583
  520MOL0     C70092   5.873   3.667   4.992 -0.2329 -0.2896  0.7597
  520MOL0     C70093   5.829   3.771   5.092  0.4800 -0.2269  0.4069
  520MOL0     C70094   5.787   3.563   4.939 -0.7359 -0.7127  0.8092
  520MOL0     C70095   5.656   3.537   4.987 -0.5253 -0.0477  0.7290
  520MOL0     O70096   5.623   3.405   5.000  0.3910  0.1361  0.1387
  520MOL0     C70097   5.500   3.358   5.040 -0.7122  0.7622 -0.1298
  520MOL0     C70098   5.496   3.259   5.135 -0.0671 -0.0307 -0.0704
  520MOL0     C70099   5.374   3.205   5.175 -0.8332  1.0411 -0.0520
  520MOL0     C70100   5.249   3.241   5.129  0.1268 -0.0689  0.5368
  520MOL0     O70101   5.135   3.192   5.185 -0.3922 -0.0069 -0.1118
  520MOL0     C70102   5.008   3.244   5.151  0.2184 -0.7458  0.1060
  520MOL0     C70103   4.903   3.150   5.215 -0.5898  0.6753 -0.1694
  520MOL0     C70104   4.765   3.181   5.162 -0.1692 -0.4702  0.9358
  520MOL0     C70105   4.674   3.068   5.206  0.4833  1.0106 -0.1464
  520MOL0     C70106   4.532   3.116   5.217  0.2586 -0.2831 -0.1773
  520MOL0     C70107   4.462   3.148   5.080 -0.3339 -0.1371  0.0754
  520MOL0     C70108   4.322   3.211   5.075  0.0179  0.1069  0.0198
  520MOL0     C70109   4.210   3.113   5.108  0.1231  0.5599  0.4066
  520MOL0    Cl70110   4.055   3.187   5.116 -0.1985  0.5281 -0.0829
  520MOL0     C70111   5.261   3.360   5.042  0.6218  0.8108  0.4137
  520MOL0     C70112   5.379   3.410   4.991  0.1925 -0.2693 -0.4906
  520MOL0     O70113   5.582   3.628   5.006 -0.2382 -0.5165 -0.1725
  520MOL0     C70114   5.844   3.466   4.849 -0.1735 -0.7295  0.1278
  520MOL0     C70115   5.983   3.468   4.814  0.3526  1.1709 -0.4666
  520MOL0     N70116   6.681   3.550   4.487 -0.1188 -0.0777 -0.2267
  520MOL0     N70117   6.784   3.479   4.444  0.5487  0.1062  0.3445
  520MOL0     C70118   7.260   2.522   3.954  0.3566 -1.1855 -0.0849
  520MOL0     C70119   7.368   2.437   3.922 -0.7206  0.1173 -0.1840
  520MOL0     C70120   7.819   2.402   3.734  0.7261  0.1289 -0.2344
  520MOL0     C70121   7.882   2.379   3.606  0.9735  0.0088  0.0534
  520MOL0     C70122   8.002   2.315   3.602 -0.3357  0.4277  0.3456
  520MOL0     C70123   8.063   2.267   3.718 -0.2347 -0.7343 -0.3116
  520MOL0     O70124   8.184   2.199   3.718  0.6455 -0.4461 -0.0105
  520MOL0     C70125   8.296   2.275   3.771  0.1311 -0.9417 -0.0366
  520MOL0     C70126   8.393   2.177   3.829  0.2463 -0.3416 -0.4160
  520MOL0     C70127   8.521   2.182   3.744 -0.1769  0.5810  0.6873
  520MOL0     C70128   8.595   2.049   3.742 -0.3296  0.8926  0.2840
  520MOL0     C70129   8.742   2.055   3.738  0.6436  0.7121  0.1503
  520MOL0     C70130   8.863   2.037   3.742  0.2154  0.2046  0.1360
  520MOL0     C70131   7.995   2.293   3.838 -0.4580  1.1471 -0.5633
  520MOL0     C70132   7.873   2.353   3.846 -0.1112 -0.3741 -0.1836
  520MOL0     H70133   7.588   2.697   3.855  1.8748 -0.7688  1.1222
  520MOL0     H70134   7.372   2.829   3.873 -2.3938  0.0628  0.5399
  520MOL0     H70135   7.067   2.634   4.141  1.8554 -1.5283 -1.3226
  520MOL0     H70136   7.218   2.717   4.184  2.3611  0.1719 -1.7364
  520MOL0     H70137   6.947   2.843   4.145 -1.3149 -5.8180  2.4223
  520MOL0     H70138   7.047   2.823   4.286 -1.6217  0.0244  0.1035
  520MOL0     H70139   7.244   2.940   4.173  0.5912  1.9924 -0.4280
  520MOL0     H70140   7.120   3.013   4.064  1.5191 -1.3177 -0.3314
  520MOL0     H70141   7.008   3.076   4.285  0.3721  1.1719 -2.0188
  520MOL0     H70142   7.155   3.003   4.376  3.0226  1.2986  0.3223
  520MOL0     H70143   7.301   3.169   4.280  0.6159  2.0631  1.1364
  520MOL0     H70144   7.167   3.259   4.201 -3.2973  0.2922  0.9743
  520MOL0     H70145   7.182   3.201   4.507  1.7550  1.3056 -0.0262
  520MOL0     H70146   7.259   3.332   4.430  1.1659 -2.0053 -1.7481
  520MOL0     H70147   7.052   3.431   4.352 -1.0374 -0.3785  0.2644
  520MOL0     H70148   6.954   3.285   4.382 -1.5685  0.8731  0.5478
  520MOL0     H70149   7.082   3.463   4.586 -0.1016 -0.0273  0.6430
  520MOL0     H70150   6.986   3.308   4.620 -1.2909 -0.7703 -0.7359
  520MOL0     H70151   6.860   3.579   4.747  1.4558  0.7878 -1.7935
  520MOL0     H70152   6.650   3.676   4.822 -1.2383 -0.3930  1.7595
  520MOL0     H70153   6.560   3.739   4.685  0.1075  0.0529 -1.3071
  520MOL0     H70154   6.449   3.553   4.859 -0.7049 -1.9830  0.0597
  520MOL0     H70155   6.527   3.447   4.732 -1.4407 -0.6178 -2.5635
  520MOL0     H70156   6.402   3.512   4.570  1.2394  1.8867 -0.3219
  520MOL0     H70157   6.357   3.669   4.646  0.1123 -0.3598 -4.4655
  520MOL0     H70158   6.236   3.405   4.731 -1.5563 -0.6830 -1.8012
  520MOL0     H70159   6.160   3.535   4.628  0.9327 -4.1944 -1.4861
  520MOL0     H70160   6.077   3.757   4.955  0.3771 -0.6691  0.9618
  520MOL0     H70161   5.914   3.820   5.140  0.8440 -0.9214  0.4970
  520MOL0     H70162   5.759   3.840   5.044  0.9866 -0.2137 -0.3404
  520MOL0     H70163   5.788   3.714   5.176  4.8753  0.9086  3.6952
  520MOL0     H70164   5.586   3.219   5.181 -1.6202 -0.9039  2.4452
  520MOL0     H70165   5.391   3.122   5.244 -0.3202  1.4442  0.3080
  520MOL0     H70166   4.992   3.348   5.181  1.7371 -0.0202 -1.4220
  520MOL0     H70167   4.990   3.253   5.044  0.1512 -1.0750  0.0894
  520MOL0     H70168   4.928   3.046   5.194 -1.2442  0.1354  1.6122
  520MOL0     H70169   4.910   3.159   5.323 -1.4867 -2.9531  0.3272
  520MOL0     H70170   4.767   3.190   5.053  0.3635  1.2431  1.0457
  520MOL0     H70171   4.723   3.279   5.188  1.2336 -0.1266  2.0175
  520MOL0     H70172   4.683   2.981   5.140 -0.0294  0.5712  0.3454
  520MOL0     H70173   4.703   3.035   5.306  0.2954  0.9161 -0.1217
  520MOL0     H70174   4.518   3.206   5.278 -2.0238 -0.9496  0.3674
  520MOL0     H70175   4.465   3.041   5.259 -0.3545 -0.0577 -0.7359
  520MOL0     H70176   4.527   3.211   5.018  1.3411 -1.8869 -0.0517
  520MOL0     H70177   4.459   3.055   5.022 -0.4419  0.8212 -1.5057
  520MOL0     H70178   4.298   3.256   4.978 -0.2371  2.7949  1.2534
  520MOL0     H70179   4.318   3.289   5.150 -0.6097  0.0504  0.0533
  520MOL0     H70180   4.221   3.061   5.203  0.6203 -0.3564 -0.1415
  520MOL0     H70181   4.220   3.038   5.029  1.3281  0.7981  0.3199
  520MOL0     H70182   5.165   3.395   5.007 -1.6175 -3.4728  1.5505
  520MOL0     H70183   5.392   3.483   4.912  3.8337 -0.6721 -0.4402
  520MOL0     H70184   5.778   3.389   4.813 -4.0893  2.5315 -0.3382
  520MOL0     H70185   6.006   3.386   4.748 -4.9147  0.4763 -1.9305
  520MOL0     H70186   7.158   2.496   3.982 -0.5408 -0.0665 -2.1124
  520MOL0     H70187   7.362   2.329   3.925 -0.3633  0.0645 -1.0734
  520MOL0     H70188   7.824   2.415   3.522 -0.4182  3.1780  2.1677
  520MOL0     H70189   8.046   2.280   3.509 -0.7565 -0.6010  0.5150
  520MOL0     H70190   8.338   2.335   3.689  2.7664 -2.6873 -0.0865
  520MOL0     H70191   8.254   2.336   3.852 -0.7789 -2.0255  0.3255
  520MOL0     H70192   8.347   2.079   3.843 -0.4247  0.3859  3.7747
  520MOL0     H70193   8.433   2.202   3.928  2.4334 -1.7245 -0.8648
  520MOL0     H70194   8.591   2.260   3.776 -0.5068  2.1386 -2.0536
  520MOL0     H70195   8.486   2.192   3.640  2.2711  0.3559 -0.2341
  520MOL0     H70196   8.554   1.985   3.662  1.7774  1.3072 -1.1965
  520MOL0     H70197   8.573   2.002   3.839 -2.5317 -1.7552 -1.3298
  520MOL0     H70198   8.969   2.018   3.741 -0.2127 -2.5392 -0.2153
  520MOL0     H70199   8.038   2.243   3.925 -1.3381  0.2736 -0.6202
  520MOL0     H70200   7.826   2.350   3.944 -0.8669 -0.4718 -0.5429
  521MOL0     O70201   7.318  11.059   2.563  0.0741 -0.1291 -0.0491
  521MOL0     C70202   7.415  10.986   2.594  0.6240 -0.5008 -0.0049
  521MOL0     O70203   7.415  10.889   2.691 -0.2280 -0.3932  0.1415
  521MOL0     C70204   7.356  10.922   2.815 -0.1999  0.6343  0.3734
  521MOL0     C70205   7.323  10.809   2.895  0.4460 -0.2475 -0.2949
  521MOL0     C70206   7.238  10.828   3.012 -0.3170  0.1045 -0.1927
  521MOL0     C70207   7.209  10.958   3.059 -0.3402  0.7516  0.7617
  521MOL0     O70208   7.111  10.984   3.157  0.5720  0.4242 -0.2154
  521MOL0     C70209   7.009  10.887   3.191 -0.0299 -0.2651  0.3258
  521MOL0     C70210   6.911  10.948   3.294 -0.8884  0.3678  0.2702
  521MOL0     C70211   6.796  10.849   3.327 -0.9500 -0.1858  0.6969
  521MOL0     C70212   6.722  10.878   3.452 -0.3520  0.5930 -0.7457
  521MOL0     C70213   6.619  10.763   3.488  0.8900  0.3236 -0.2877
  521MOL0     C70214   6.498  10.816   3.572  0.5808  0.1591  0.1111
  521MOL0     C70215   6.394  10.711   3.591 -0.5602 -0.2435  0.2337
  521MOL0     C70216   6.272  10.770   3.672 -0.2144 -0.7686  0.3291
  521MOL0     N70217   6.153  10.692   3.668 -0.5025 -0.6026 -0.0356
  521MOL0     C70218   6.115  10.610   3.769  0.0833 -0.6689  0.1813
  521MOL0     C70219   5.989  10.567   3.740  0.1040 -0.2317 -0.1102
  521MOL0     C70220   5.908  10.471   3.819 -0.2186  0.5973  0.1498
  521MOL0     C70221   5.811  10.390   3.736 -0.1833 -0.4258 -0.7406
  521MOL0     C70222   5.872  10.260   3.691 -0.1605 -0.4321  0.5887
  521MOL0     C70223   5.992  10.271   3.605 -0.7081 -0.6942  0.9821
  521MOL0     O70224   6.117  10.283   3.675  0.0443  0.1628 -0.2793
  521MOL0     C70225   6.229  10.321   3.596 -0.3345 -0.4280 -0.5518
  521MOL0     C70226   6.347  10.333   3.669  0.2317  0.7899  0.3357
  521MOL0     C70227   6.468  10.363   3.604 -0.0024 -0.4167  0.2802
  521MOL0     C70228   6.578  10.372   3.696 -0.3157  0.5025  0.4599
  521MOL0     C70229   6.474  10.371   3.463 -0.8867 -0.3623  0.8263
  521MOL0     C70230   6.600  10.420   3.389 -0.3698 -0.3662  0.6567
  521MOL0     O70231   6.587  10.473   3.258  0.5750  0.8361  0.9195
  521MOL0     C70232   6.689  10.506   3.174  0.1436 -0.4336  0.3398
  521MOL0     C70233   6.643  10.534   3.039 -0.0418  0.3273 -0.5453
  521MOL0     C70234   6.735  10.571   2.936  1.1162  0.0097 -0.7226
  521MOL0     C70235   6.869  10.591   2.976  0.0373 -0.3417 -0.8035
  521MOL0     O70236   6.971  10.644   2.893  0.2553  0.4885 -0.5245
  521MOL0     C70237   6.948  10.624   2.757  0.4820  0.7239  0.1499
  521MOL0     C70238   7.083  10.650   2.698 -0.7297 -0.3148 -0.2369
  521MOL0     C70239   7.072  10.614   2.552 -0.2346  0.0597 -0.4949
  521MOL0     C70240   7.172  10.686   2.470  0.3496  0.1290 -0.2993
  521MOL0     C70241   7.278  10.578   2.440 -0.3826 -0.1107  0.1963
  521MOL0     C70242   7.398  10.646   2.368 -0.5213  0.9830 -0.6091
  521MOL0     C70243   7.354  10.697   2.225 -0.5880 -0.1185  0.4550
  521MOL0     C70244   7.471  10.714   2.136 -0.0837 -0.0470 -0.3551
  521MOL0    Cl70245   7.441  10.823   1.998  0.4717 -0.4664 -0.1991
  521MOL0     C70246   6.917  10.560   3.105  0.4731 -0.0838 -0.1497
  521MOL0     C70247   6.829  10.516   3.203 -0.2830  0.0386  0.7073
  521MOL0     O70248   6.710  10.389   3.442 -0.3446 -0.5530 -0.5534
  521MOL0     C70249   6.352  10.378   3.394  0.0974  0.0640  0.3840
  521MOL0     C70250   6.232  10.348   3.461 -0.5154  0.1468  0.6500
  521MOL0     N70251   5.948  10.632   3.629 -0.4740  0.0753  0.1106
  521MOL0     N70252   6.039  10.714   3.594  0.0907  0.8989  0.6208
  521MOL0     C70253   7.252  11.065   2.986 -0.2391  0.0550  0.6864
  521MOL0     C70254   7.319  11.049   2.869 -0.7206 -0.1623 -0.3807
  521MOL0     C70255   7.526  10.988   2.485  0.4788 -0.0036 -0.7908
  521MOL0     C70256   7.511  11.062   2.364  0.0907  0.3104  0.6676
  521MOL0     C70257   7.618  11.053   2.276 -0.2947  0.1836  0.8218
  521MOL0     C70258   7.742  10.992   2.304  0.4216 -0.2935 -0.4617
  521MOL0     O70259   7.854  10.993   2.234  0.3305 -0.7851 -0.0893
  521MOL0     C70260   7.853  11.039   2.102 -0.1370 -0.4469 -0.1198
  521MOL0     C70261   7.799  10.939   2.008  0.7438  0.0169 -0.9522
  521MOL0     C70262   7.847  10.802   2.027  0.3961  0.2148  0.0710
  521MOL0     C70263   7.993  10.777   1.981  0.4884  0.2204  0.1906
  521MOL0     C70264   8.022  10.639   2.006  0.7905  0.0747 -0.1048
  521MOL0     C70265   8.049  10.523   2.022  0.5430  0.1586  0.6806
  521MOL0     C70266   7.744  10.921   2.420  0.1442  0.5445  0.4088
  521MOL0     C70267   7.646  10.921   2.516  0.1817 -0.4399 -0.8026
  521MOL0     H70268   7.345  10.711   2.854 -4.7324 -2.2885  0.9502
  521MOL0     H70269   7.202  10.741   3.066  0.7231 -0.1153  0.1805
  521MOL0     H70270   6.948  10.855   3.106 -0.3130 -0.9308  0.7749
  521MOL0     H70271   7.050  10.794   3.232  1.9236  0.5881  0.4147
  521MOL0     H70272   6.962  10.961   3.390  0.5478 -2.3145 -0.0434
  521MOL0     H70273   6.878  11.047   3.261  1.9927  1.6408  0.8844
  521MOL0     H70274   6.733  10.852   3.237 -1.1659 -3.3980  0.6397
  521MOL0     H70275   6.838  10.749   3.329 -0.5636 -0.1713 -2.1237
  521MOL0     H70276   6.795  10.888   3.533  1.2520  3.3469 -2.4132
  521MOL0     H70277   6.673  10.976   3.449 -1.2040  0.1682 -1.1480
  521MOL0     H70278   6.578  10.720   3.396  1.6247 -1.1300  0.0318
  521MOL0     H70279   6.667  10.673   3.527 -2.0866 -2.4371 -2.4346
  521MOL0     H70280   6.528  10.855   3.670  0.1956  2.5462 -0.6567
  521MOL0     H70281   6.461  10.903   3.518  0.2183  0.1308  0.3131
  521MOL0     H70282   6.364  10.680   3.491  0.9943  0.2267 -0.4123
  521MOL0     H70283   6.427  10.625   3.649  1.9093  1.5787  1.7257
  521MOL0     H70284   6.251  10.870   3.633  0.3606  0.2116  2.4161
  521MOL0     H70285   6.302  10.778   3.777  3.4078  1.8499 -0.6956
  521MOL0     H70286   6.181  10.583   3.850  2.1088  1.6931 -0.5465
  521MOL0     H70287   5.972  10.408   3.881  2.2760  3.2894  0.5551
  521MOL0     H70288   5.841  10.515   3.894 -1.9960  0.4208 -1.2789
  521MOL0     H70289   5.784  10.450   3.648 -0.6837 -0.3702 -0.5550
  521MOL0     H70290   5.717  10.378   3.791  0.7578  2.0099  1.6045
  521MOL0     H70291   5.788  10.208   3.643 -1.0962  2.7112 -1.4413
  521MOL0     H70292   5.900  10.194   3.774  2.2315 -1.5464 -0.9873
  521MOL0     H70293   5.983  10.346   3.527 -0.8638 -0.8118  0.8855
  521MOL0     H70294   6.000  10.180   3.545 -1.5428 -1.5602  2.1527
  521MOL0     H70295   6.333  10.331   3.776  0.3311 -3.2978  0.4520
  521MOL0     H70296   6.555  10.353   3.802 -2.7458  1.5145  0.1896
  521MOL0     H70297   6.650  10.294   3.669 -1.0180  0.2244 -0.6770
  521MOL0     H70298   6.630  10.467   3.685  0.6762  0.2028  2.2260
  521MOL0     H70299   6.538  10.522   3.015  0.3770 -1.0535 -1.8678
  521MOL0     H70300   6.690  10.582   2.838 -0.6866  3.1979  0.3123
  521MOL0     H70301   6.918  10.522   2.734  0.1010  0.9706 -0.4830
  521MOL0     H70302   6.872  10.692   2.716 -1.0089 -1.6270 -1.1766
  521MOL0     H70303   7.109  10.755   2.712 -0.0052 -0.5764  0.4282
  521MOL0     H70304   7.157  10.585   2.745 -0.5037  0.0712 -0.0517
  521MOL0     H70305   6.976  10.653   2.518 -0.8129  1.0143  2.0079
  521MOL0     H70306   7.077  10.508   2.524  1.4274 -0.3968  1.2953
  521MOL0     H70307   7.122  10.717   2.378 -4.1627 -2.4936  0.9819
  521MOL0     H70308   7.217  10.772   2.521  1.4868  1.4544 -3.2687
  521MOL0     H70309   7.237  10.502   2.371 -1.1214  0.1192  0.3724
  521MOL0     H70310   7.304  10.531   2.535 -1.3290 -1.3287 -0.1106
  521MOL0     H70311   7.430  10.730   2.430  1.8000 -1.4957  1.7858
  521MOL0     H70312   7.486  10.580   2.366 -0.7914  0.6294 -1.9294
  521MOL0     H70313   7.310  10.794   2.248  2.6999  0.9040  3.4858
  521MOL0     H70314   7.280  10.628   2.183  1.1180 -1.5710 -0.3029
  521MOL0     H70315   7.520  10.619   2.114  4.3419  1.3276  2.2169
  521MOL0     H70316   7.553  10.759   2.192  0.1556 -0.8758 -0.0306
  521MOL0     H70317   7.019  10.580   3.136  0.3397 -1.3603  1.1969
  521MOL0     H70318   6.866  10.495   3.302 -0.6497  0.9066  1.0428
  521MOL0     H70319   6.341  10.390   3.286 -0.1299  0.9733  0.5000
  521MOL0     H70320   6.138  10.356   3.406 -1.1043  2.5977  1.8561
  521MOL0     H70321   7.219  11.165   3.013  1.2372  0.4687  1.0465
  521MOL0     H70322   7.346  11.142   2.821 -1.8475  0.2669 -0.1945
  521MOL0     H70323   7.422  11.119   2.336  1.3426  1.1692 -1.9143
  521MOL0     H70324   7.612  11.113   2.186  4.0401 -1.9746 -1.2191
  521MOL0     H70325   7.796  11.131   2.088 -3.0299 -2.3301 -1.8590
  521MOL0     H70326   7.956  11.054   2.071 -0.4103 -2.4865 -2.3138
  521MOL0     H70327   7.838  10.969   1.910 -3.2464 -1.4001 -3.2081
  521MOL0     H70328   7.690  10.935   2.013  0.7993 -1.1443 -0.2857
  521MOL0     H70329   7.780  10.743   1.964 -1.1691  3.4004 -1.5019
  521MOL0     H70330   7.836  10.779   2.134 -0.3864  2.5512  0.5525
  521MOL0     H70331   8.062  10.849   2.024  2.3420 -0.9350 -0.7399
  521MOL0     H70332   7.997  10.791   1.872 -0.0581  0.6546  0.2235
  521MOL0     H70333   8.074  10.419   2.027 -1.2553 -0.2845  1.2923
  521MOL0     H70334   7.831  10.858   2.434 -1.2570 -1.5931 -0.0719
  521MOL0     H70335   7.649  10.855   2.601 -0.8430 -1.2123 -1.3490
  522MOL0     O70336   7.948   4.777   8.743 -0.1585 -0.5265  0.9434
  522MOL0     C70337   8.018   4.679   8.745  0.4964  0.4625  0.4687
  522MOL0     O70338   8.156   4.675   8.723 -0.1765 -0.9620 -0.0113
  522MOL0     C70339   8.236   4.797   8.732 -0.4329  0.1345  0.1882
  522MOL0     C70340   8.217   4.893   8.830  0.3313  0.2627  0.4683
  522MOL0     C70341   8.305   4.998   8.835  0.0876 -1.1014 -0.1478
  522MOL0     C70342   8.418   5.011   8.742  0.0993 -0.6147 -0.5877
  522MOL0     O70343   8.500   5.114   8.738 -1.1294 -0.6864 -0.0101
  522MOL0     C70344   8.455   5.200   8.636  0.1334  0.6284  0.1006
  522MOL0     C70345   8.534   5.334   8.637  0.7334  0.4491  0.6391
  522MOL0     C70346   8.483   5.419   8.516  0.2835 -0.2367 -0.1458
  522MOL0     C70347   8.378   5.513   8.565  0.1833  0.1985 -0.1493
  522MOL0     C70348   8.302   5.583   8.447 -0.6991 -0.1905 -0.1915
  522MOL0     C70349   8.166   5.611   8.492  0.9002 -0.1230  0.0418
  522MOL0     C70350   8.078   5.650   8.361 -0.4191 -0.9071  0.1601
  522MOL0     C70351   7.971   5.753   8.396 -0.0517  0.0535 -0.2787
  522MOL0     N70352   7.865   5.691   8.482  0.0797  0.7946 -0.2025
  522MOL0     C70353   7.863   5.675   8.620  0.5000 -1.1854  0.2743
  522MOL0     C70354   7.752   5.603   8.648  0.1679  0.1424 -0.2813
  522MOL0     C70355   7.698   5.581   8.786 -0.3398  1.6694 -0.0462
  522MOL0     C70356   7.564   5.499   8.787  0.7826  0.1968 -0.4166
  522MOL0     C70357   7.519   5.461   8.932  0.1813  0.8947 -0.1941
  522MOL0     C70358   7.377   5.399   8.936  0.0000  0.3368  0.1297
  522MOL0     O70359   7.361   5.292   8.834 -0.2578 -0.1005  0.2245
  522MOL0     C70360   7.232   5.248   8.834  0.5701  0.4411  0.2710
  522MOL0     C70361   7.198   5.162   8.723 -0.5515 -0.0773  0.5724
  522MOL0     C70362   7.070   5.130   8.684 -0.0350 -0.0888 -0.4148
  522MOL0     C70363   7.050   5.055   8.556 -0.8320  0.3060 -0.2713
  522MOL0     C70364   6.964   5.171   8.778 -0.2820  0.6348 -0.0137
  522MOL0     C70365   6.821   5.143   8.751  0.7916  0.4145  0.8874
  522MOL0     O70366   6.731   5.189   8.849 -0.2667  0.4034  0.2640
  522MOL0     C70367   6.601   5.227   8.830 -0.0090  0.4252 -0.4756
  522MOL0     C70368   6.542   5.264   8.716  1.2198 -0.0074  0.2577
  522MOL0     C70369   6.406   5.292   8.732 -0.0165 -0.6327 -0.6386
  522MOL0     C70370   6.334   5.293   8.855 -0.3621  0.7249 -0.7721
  522MOL0     O70371   6.194   5.303   8.867 -0.6816 -0.0664  0.4051
  522MOL0     C70372   6.119   5.350   8.756  0.7746  0.0522  0.0451
  522MOL0     C70373   5.973   5.337   8.798  0.6630  0.4505 -0.1307
  522MOL0     C70374   5.933   5.455   8.881  0.6439  0.2009  0.3985
  522MOL0     C70375   5.787   5.433   8.936 -0.3912  0.6216 -0.1311
  522MOL0     C70376   5.741   5.553   9.020  0.0128  0.3950 -1.3215
  522MOL0     C70377   5.602   5.517   9.102 -0.2643  0.0895  0.1357
  522MOL0     C70378   5.623   5.415   9.219  0.8232  0.6846 -0.1586
  522MOL0     C70379   5.517   5.425   9.326  0.0789 -0.4456  0.6512
  522MOL0    Cl70380   5.357   5.418   9.261 -0.2798  0.0290 -0.0459
  522MOL0     C70381   6.410   5.267   8.967 -0.0638  0.1456  0.0888
  522MOL0     C70382   6.543   5.247   8.956  0.0200  0.4153  0.2276
  522MOL0     O70383   6.793   5.087   8.646 -0.1127 -0.5066  0.4789
  522MOL0     C70384   6.994   5.256   8.888  0.5499  0.6611 -0.5775
  522MOL0     C70385   7.125   5.291   8.917 -0.4144  0.1743 -0.3193
  522MOL0     N70386   7.680   5.600   8.529 -0.1721  0.4913 -0.1451
  522MOL0     N70387   7.755   5.630   8.434  0.2776  0.2530  1.3087
  522MOL0     C70388   8.449   4.898   8.664 -0.2332  0.4011  0.2417
  522MOL0     C70389   8.356   4.793   8.657 -0.5937  0.3078  0.1926
  522MOL0     C70390   7.930   4.553   8.746 -0.1488  0.2640  0.5605
  522MOL0     C70391   7.790   4.558   8.765 -0.1881  0.4841 -0.7087
  522MOL0     C70392   7.715   4.442   8.751 -0.1403  0.3491 -0.5781
  522MOL0     C70393   7.771   4.317   8.718 -0.4085  0.0510  0.2008
  522MOL0     O70394   7.679   4.217   8.699  0.2790 -0.4342  0.3455
  522MOL0     C70395   7.714   4.081   8.663  0.2338  1.1186  0.1077
  522MOL0     C70396   7.587   3.998   8.693 -0.2433 -0.6517 -0.7963
  522MOL0     C70397   7.591   3.860   8.639 -0.5166 -0.1115  0.1332
  522MOL0     C70398   7.479   3.764   8.668  0.5030 -0.4798 -0.1426
  522MOL0     C70399   7.348   3.814   8.611 -0.5977 -0.1258 -0.3588
  522MOL0     C70400   7.243   3.861   8.565  0.4485 -0.1264 -0.3649
  522MOL0     C70401   7.908   4.307   8.694 -0.1125 -1.0164 -0.0247
  522MOL0     C70402   7.987   4.421   8.709 -0.4986 -0.6712  0.5675
  522MOL0     H70403   8.132   4.888   8.898  2.1258  0.4615  2.8378
  522MOL0     H70404   8.277   5.078   8.903  3.3237 -0.3722  0.5011
  522MOL0     H70405   8.460   5.150   8.539  1.6756  1.2868 -0.2026
  522MOL0     H70406   8.351   5.227   8.658  0.6944  1.3440  2.0976
  522MOL0     H70407   8.509   5.380   8.733 -1.2076 -1.8739  1.3539
  522MOL0     H70408   8.638   5.306   8.620  1.1623  0.7085  2.5849
  522MOL0     H70409   8.553   5.480   8.458 -2.3577  0.5937 -2.6942
  522MOL0     H70410   8.450   5.345   8.442  2.7409  0.3694 -1.9890
  522MOL0     H70411   8.311   5.455   8.630  0.1025 -0.5680 -0.8951
  522MOL0     H70412   8.424   5.594   8.623 -0.0550 -1.3084  2.2571
  522MOL0     H70413   8.360   5.671   8.414 -1.2916  0.9717  1.7236
  522MOL0     H70414   8.307   5.520   8.358 -2.3274  0.3526 -0.6915
  522MOL0     H70415   8.121   5.522   8.539 -0.5622  0.2103 -0.6582
  522MOL0     H70416   8.174   5.700   8.555  0.2262  3.1890 -4.1591
  522MOL0     H70417   8.141   5.697   8.285 -1.1738 -1.4276 -0.7939
  522MOL0     H70418   8.037   5.560   8.316 -1.2349  0.3975 -1.8593
  522MOL0     H70419   7.920   5.797   8.309 -2.0197  0.2351  0.9152
  522MOL0     H70420   8.024   5.829   8.454  2.8871 -0.8336 -1.5869
  522MOL0     H70421   7.926   5.722   8.694 -0.8615  1.4609 -0.1171
  522MOL0     H70422   7.768   5.520   8.843 -1.2243  0.0452 -0.6526
  522MOL0     H70423   7.686   5.681   8.830 -0.3304  1.5979  0.1159
  522MOL0     H70424   7.588   5.403   8.741  1.6485 -1.2070  2.6682
  522MOL0     H70425   7.481   5.544   8.731 -2.5064  0.4723  4.1406
  522MOL0     H70426   7.520   5.554   8.988  0.5415  1.2120 -0.7127
  522MOL0     H70427   7.590   5.394   8.982  1.7502  1.5206 -1.4530
  522MOL0     H70428   7.304   5.477   8.909 -0.8147 -1.0790 -2.0261
  522MOL0     H70429   7.355   5.351   9.031  1.0891 -1.0169 -0.2720
  522MOL0     H70430   7.275   5.135   8.653 -1.3621 -1.5717  0.2155
  522MOL0     H70431   7.016   5.116   8.472 -2.6314 -0.3455 -0.0819
  522MOL0     H70432   7.142   5.005   8.526  0.2229 -0.3272  3.4268
  522MOL0     H70433   6.972   4.978   8.561 -2.3115  1.6371 -1.7428
  522MOL0     H70434   6.584   5.248   8.617 -1.0124  0.2805 -0.7997
  522MOL0     H70435   6.357   5.313   8.638  0.0105 -0.9886 -0.7361
  522MOL0     H70436   6.132   5.447   8.708 -0.4451 -0.1911 -0.8333
  522MOL0     H70437   6.129   5.281   8.672  0.5713 -1.6194  1.3367
  522MOL0     H70438   5.902   5.350   8.715  1.2269  1.8715 -0.4308
  522MOL0     H70439   5.956   5.240   8.845 -1.8439  0.1263 -1.5263
  522MOL0     H70440   5.938   5.541   8.814 -0.6672 -0.0891 -0.1048
  522MOL0     H70441   6.000   5.464   8.967  0.9010 -0.8158  0.3266
  522MOL0     H70442   5.710   5.409   8.862 -0.8548 -1.1091  0.8571
  522MOL0     H70443   5.783   5.348   9.004  2.1240 -0.4203 -1.1613
  522MOL0     H70444   5.729   5.639   8.953  1.4905  1.1786 -0.6177
  522MOL0     H70445   5.818   5.591   9.087 -0.2388  0.7735 -1.2459
  522MOL0     H70446   5.561   5.608   9.148 -1.7166  0.1239 -1.1252
  522MOL0     H70447   5.527   5.480   9.032  1.4898 -0.7044 -1.3765
  522MOL0     H70448   5.727   5.410   9.252  1.0202 -2.1875 -0.9343
  522MOL0     H70449   5.622   5.312   9.182  1.2798  1.0717 -1.3124
  522MOL0     H70450   5.533   5.521   9.375  1.6402 -0.7316  0.7545
  522MOL0     H70451   5.529   5.340   9.393  0.5941 -1.4920 -0.7221
  522MOL0     H70452   6.369   5.264   9.067  2.3572  1.8222  1.2560
  522MOL0     H70453   6.604   5.230   9.044 -0.4142 -0.6836  0.3281
  522MOL0     H70454   6.910   5.304   8.937 -1.5684 -0.6219 -2.7417
  522MOL0     H70455   7.138   5.374   8.986 -1.5674  0.6693 -0.6795
  522MOL0     H70456   8.536   4.886   8.601 -1.2175 -1.5267 -0.8637
  522MOL0     H70457   8.366   4.706   8.593 -1.2829  1.8213 -2.1033
  522MOL0     H70458   7.730   4.644   8.794  0.3905 -0.2546  3.3442
  522MOL0     H70459   7.609   4.446   8.774 -0.2735 -0.3580 -1.0613
  522MOL0     H70460   7.742   4.077   8.557  3.0220 -1.2540  0.8096
  522MOL0     H70461   7.807   4.056   8.715  0.8564  0.3342 -1.3202
  522MOL0     H70462   7.501   4.054   8.656 -0.6502 -1.2288 -0.7444
  522MOL0     H70463   7.572   3.990   8.802  0.0160 -0.0240 -0.7145
  522MOL0     H70464   7.681   3.808   8.673  2.9780  3.3812 -2.8170
  522MOL0     H70465   7.601   3.869   8.531 -1.3572  3.0608  0.2238
  522MOL0     H70466   7.471   3.760   8.777  0.0479 -1.9390 -0.2147
  522MOL0     H70467   7.502   3.660   8.643  0.7593 -0.2610 -0.8304
  522MOL0     H70468   7.160   3.923   8.537 -0.7825 -2.6803 -3.0296
  522MOL0     H70469   7.954   4.218   8.652  0.4751 -0.1525 -1.2657
  522MOL0     H70470   8.094   4.418   8.692 -0.5030  1.0553  0.0603
  523MOL0     O70471   6.139   0.630   6.936  0.1350 -0.3875  0.0245
  523MOL0     C70472   6.184   0.720   6.873 -0.4272 -1.2564  0.2685
  523MOL0     O70473   6.117   0.793   6.780  0.1504 -0.9043  0.0226
  523MOL0     C70474   5.990   0.749   6.740 -0.6279 -1.3653 -0.3193
  523MOL0     C70475   5.883   0.707   6.838 -0.3164  0.1822  0.2089
  523MOL0     C70476   5.755   0.688   6.784 -0.7002 -0.4247  0.2908
  523MOL0     C70477   5.716   0.723   6.653 -0.1145  0.7180 -0.0847
  523MOL0     O70478   5.585   0.693   6.618 -0.2294 -0.3665 -0.0736
  523MOL0     C70479   5.579   0.622   6.489  0.8326  0.1790 -0.3396
  523MOL0     C70480   5.459   0.521   6.496 -0.0678 -0.0259 -0.0398
  523MOL0     C70481   5.457   0.432   6.373  0.2799 -0.6211 -0.3557
  523MOL0     C70482   5.332   0.344   6.362  0.4433 -0.2664  0.0690
  523MOL0     C70483   5.330   0.271   6.226  0.2914 -0.0061 -0.6370
  523MOL0     C70484   5.223   0.156   6.230 -1.3800 -0.1511 -0.0702
  523MOL0     C70485   5.073   0.194   6.239  0.3293  0.2572 -0.8166
  523MOL0     C70486   4.990   0.067   6.255 -0.0542  0.3683 -0.7870
  523MOL0     N70487   4.846   0.101   6.268  0.2562  0.0661 -0.9014
  523MOL0     C70488   4.781   0.097   6.389  0.6377 -0.3628 -0.2209
  523MOL0     C70489   4.652   0.122   6.347 -0.0247 -0.6123 -0.0077
  523MOL0     C70490   4.538   0.104   6.433  0.4373  0.7697  0.3967
  523MOL0     C70491   4.444   0.001   6.379  0.9113  0.2136  0.3729
  523MOL0     C70492   4.315  -0.001   6.461  1.5843 -0.1379 -0.0360
  523MOL0     C70493   4.216  -0.106   6.413  0.2918 -1.0341 -0.2175
  523MOL0     O70494   4.090  -0.107   6.474 -0.5467  0.3407  0.2309
  523MOL0     C70495   4.000  -0.201   6.432  0.3669 -0.5937 -0.7378
  523MOL0     C70496   3.869  -0.152   6.435  0.9643  0.4387 -0.5980
  523MOL0     C70497   3.756  -0.234   6.405 -0.2525 -1.0250 -0.4050
  523MOL0     C70498   3.619  -0.168   6.425 -0.1977 -0.2183  0.0461
  523MOL0     C70499   3.772  -0.364   6.352 -0.1590 -1.0132 -1.0100
  523MOL0     C70500   3.663  -0.448   6.294 -0.2514  0.5350 -0.1498
  523MOL0     O70501   3.680  -0.577   6.279  0.0450  0.1728 -0.6429
  523MOL0     C70502   3.574  -0.659   6.242  0.0947 -0.2463  0.3423
  523MOL0     C70503   3.445  -0.643   6.291  0.3995 -0.6543  0.3253
  523MOL0     C70504   3.335  -0.725   6.261 -0.1461  0.0985 -0.8698
  523MOL0     C70505   3.354  -0.836   6.182 -0.3899 -0.2362 -0.0281
  523MOL0     O70506   3.259  -0.916   6.143  0.3476  0.3200  0.5665
  523MOL0     C70507   3.145  -0.927   6.230 -0.3067  0.3576  0.9091
  523MOL0     C70508   3.021  -0.858   6.177 -0.0358 -0.5513  0.5477
  523MOL0     C70509   2.907  -0.860   6.280 -0.2570 -0.3682  0.1658
  523MOL0     C70510   2.777  -0.798   6.226 -0.7135  0.4593  0.8647
  523MOL0     C70511   2.648  -0.848   6.286  0.4842  0.6420  0.2270
  523MOL0     C70512   2.635  -0.840   6.443  0.2304  0.3090 -0.6394
  523MOL0     C70513   2.509  -0.912   6.497 -0.4345  0.3102 -1.0822
  523MOL0     C70514   2.382  -0.897   6.419  0.1503  1.0449 -0.1370
  523MOL0    Cl70515   2.330  -0.729   6.435 -0.3124 -0.0508 -0.4668
  523MOL0     C70516   3.486  -0.856   6.131 -0.7352 -0.7603 -0.2695
  523MOL0     C70517   3.597  -0.770   6.151 -0.1298  1.0155  0.1377
  523MOL0     O70518   3.568  -0.383   6.253  0.4736 -0.6712 -0.5782
  523MOL0     C70519   3.910  -0.411   6.354  1.2824  0.4203 -0.2471
  523MOL0     C70520   4.016  -0.329   6.387  0.1371 -0.7404  0.3432
  523MOL0     N70521   4.645   0.146   6.215  0.3691  0.2297 -0.9685
  523MOL0     N70522   4.769   0.129   6.162  0.2810 -0.6678 -1.1006
  523MOL0     C70523   5.819   0.768   6.564 -0.3049 -0.1947  0.4168
  523MOL0     C70524   5.955   0.790   6.604  0.0539  0.4123 -0.0311
  523MOL0     C70525   6.317   0.773   6.916  0.3299  0.0209 -0.3068
  523MOL0     C70526   6.361   0.894   6.862  0.6559  0.1989  0.0367
  523MOL0     C70527   6.489   0.942   6.892  0.6782 -0.1708  0.2007
  523MOL0     C70528   6.564   0.877   6.991 -0.0994 -1.0780  0.6246
  523MOL0     O70529   6.691   0.919   7.021  0.4959  0.0594  0.0531
  523MOL0     C70530   6.758   0.840   7.123 -0.6125 -0.0949 -0.0326
  523MOL0     C70531   6.889   0.907   7.134 -0.7363 -0.2610 -0.2204
  523MOL0     C70532   6.996   0.827   7.220 -0.2730  0.8060  0.5382
  523MOL0     C70533   7.137   0.885   7.193 -0.1715 -0.5141  0.0743
  523MOL0     C70534   7.164   1.027   7.241  0.0103 -0.9283 -0.5166
  523MOL0     C70535   7.185   1.138   7.291 -0.4962 -0.1995  0.2224
  523MOL0     C70536   6.503   0.770   7.057 -0.2504 -0.2790  0.6449
  523MOL0     C70537   6.385   0.712   7.017  0.2941  0.5777 -0.0030
  523MOL0     H70538   5.898   0.695   6.945 -4.7877 -0.4693  0.9519
  523MOL0     H70539   5.680   0.655   6.855 -0.6127 -1.4390 -0.0770
  523MOL0     H70540   5.577   0.689   6.402 -1.0388 -0.3686 -0.7553
  523MOL0     H70541   5.661   0.550   6.481  0.2945 -0.5647  0.6469
  523MOL0     H70542   5.464   0.463   6.589 -1.7681  0.4344  0.3748
  523MOL0     H70543   5.358   0.564   6.504  0.0276  0.2600 -0.3517
  523MOL0     H70544   5.452   0.502   6.288 -1.0920 -0.4307 -0.1444
  523MOL0     H70545   5.549   0.378   6.352  0.9759  0.5376 -0.4101
  523MOL0     H70546   5.334   0.266   6.439 -2.5050 -2.7064 -2.0857
  523MOL0     H70547   5.247   0.411   6.377  0.4169 -0.4119  0.5875
  523MOL0     H70548   5.309   0.335   6.140  1.3115  0.6754 -0.3889
  523MOL0     H70549   5.425   0.217   6.215  0.9719  0.7686  1.0903
  523MOL0     H70550   5.233   0.091   6.142  1.7696 -2.1157  1.5296
  523MOL0     H70551   5.244   0.093   6.317 -0.6915 -1.5673 -1.2130
  523MOL0     H70552   5.041   0.258   6.321 -2.6575 -2.9757  0.7916
  523MOL0     H70553   5.046   0.249   6.148  1.5240 -0.7312 -1.8147
  523MOL0     H70554   5.023   0.016   6.346 -0.4180 -2.0992 -1.9353
  523MOL0     H70555   5.014   0.002   6.170  0.0593 -1.6497  0.7133
  523MOL0     H70556   4.815   0.075   6.489 -0.7492 -0.2415  0.2997
  523MOL0     H70557   4.570   0.074   6.533  1.9442  0.0505 -0.2581
  523MOL0     H70558   4.497   0.205   6.438  1.5146  1.2608 -0.1824
  523MOL0     H70559   4.488  -0.099   6.383  0.4045  0.0198  1.1800
  523MOL0     H70560   4.417   0.032   6.277  2.6789  2.1904  0.4335
  523MOL0     H70561   4.269   0.098   6.452  0.8951 -0.6387 -3.1121
  523MOL0     H70562   4.335  -0.024   6.566  0.2889 -0.2616  0.2047
  523MOL0     H70563   4.255  -0.207   6.428  3.0692  0.0458  0.4091
  523MOL0     H70564   4.194  -0.086   6.308 -2.6446  0.3378  0.5614
  523MOL0     H70565   3.843  -0.056   6.480 -2.5987 -0.5535 -0.2168
  523MOL0     H70566   3.565  -0.171   6.330  0.3581 -1.8128 -0.2471
  523MOL0     H70567   3.571  -0.226   6.505  4.7830 -1.5561  2.4804
  523MOL0     H70568   3.626  -0.064   6.458  1.2133  0.5683 -2.4346
  523MOL0     H70569   3.438  -0.554   6.353 -0.4984  0.3011 -1.1065
  523MOL0     H70570   3.234  -0.698   6.289 -0.1428 -1.0743  0.3881
  523MOL0     H70571   3.117  -1.032   6.240 -2.2890  0.8036  0.5918
  523MOL0     H70572   3.173  -0.904   6.333  4.8762 -2.3047  0.4378
  523MOL0     H70573   3.043  -0.752   6.161  1.2380 -1.0112 -1.0302
  523MOL0     H70574   2.982  -0.909   6.088 -0.3399 -0.7356  0.7837
  523MOL0     H70575   2.941  -0.801   6.365  0.2245  1.1821 -1.0597
  523MOL0     H70576   2.887  -0.963   6.312 -3.2499  0.3065  0.6999
  523MOL0     H70577   2.769  -0.689   6.222  0.5731  0.5205 -1.0417
  523MOL0     H70578   2.774  -0.833   6.123 -1.6888  1.0061  0.6923
  523MOL0     H70579   2.642  -0.954   6.260 -1.2881  0.6292  0.5490
  523MOL0     H70580   2.569  -0.788   6.240  1.6689  3.5157  1.6589
  523MOL0     H70581   2.725  -0.875   6.494  1.7084  1.8246 -2.1080
  523MOL0     H70582   2.623  -0.732   6.454 -3.5036  0.1561 -1.7705
  523MOL0     H70583   2.497  -0.871   6.598 -0.4618 -0.3338 -0.8211
  523MOL0     H70584   2.553  -1.011   6.509  0.5394  0.8994  0.7275
  523MOL0     H70585   2.309  -0.960   6.471  0.6171  0.1152 -0.5737
  523MOL0     H70586   2.396  -0.926   6.314 -3.1488  3.7943 -1.5506
  523MOL0     H70587   3.497  -0.951   6.078 -0.7457 -0.7641 -0.2640
  523MOL0     H70588   3.698  -0.793   6.118 -0.6886  0.4431 -1.2601
  523MOL0     H70589   3.926  -0.510   6.313 -2.4475 -0.1001 -0.7998
  523MOL0     H70590   4.114  -0.376   6.383 -0.3622 -1.8375  0.7447
  523MOL0     H70591   5.799   0.797   6.461 -0.1630  0.6761  0.6225
  523MOL0     H70592   6.036   0.811   6.535 -0.2678 -0.4948 -0.7040
  523MOL0     H70593   6.305   0.940   6.782 -0.5482 -0.9941  0.1660
  523MOL0     H70594   6.539   1.023   6.840  0.1477 -0.7632 -1.2771
  523MOL0     H70595   6.716   0.849   7.224  2.1362  1.3553  1.1021
  523MOL0     H70596   6.778   0.735   7.102 -0.0266 -0.0643  0.3354
  523MOL0     H70597   6.879   1.007   7.176  2.5395  1.1296 -2.3876
  523MOL0     H70598   6.928   0.921   7.033  4.0087 -2.4749  1.0195
  523MOL0     H70599   6.998   0.725   7.180 -2.3200  1.8929 -2.7141
  523MOL0     H70600   6.972   0.827   7.327 -0.4265 -0.3479  0.5213
  523MOL0     H70601   7.141   0.884   7.084 -2.3324 -2.8578 -0.0970
  523MOL0     H70602   7.215   0.825   7.241  0.5712  0.8212  0.5944
  523MOL0     H70603   7.200   1.228   7.347 -1.2002 -2.1781  3.9757
  523MOL0     H70604   6.551   0.721   7.141  2.5726  0.6197 -0.3043
  523MOL0     H70605   6.341   0.624   7.063  0.8275  0.4084  0.1824
  524MOL0     O70606   8.618   3.230   9.616  0.0915  0.3263  0.9685
  524MOL0     C70607   8.671   3.295   9.705 -0.0273 -0.7250  0.1441
  524MOL0     O70608   8.629   3.302   9.835 -0.5581  0.0360  0.0220
  524MOL0     C70609   8.513   3.238   9.890  0.7894 -0.3096 -0.4262
  524MOL0     C70610   8.382   3.228   9.820 -0.7737 -0.1894  0.2704
  524MOL0     C70611   8.277   3.173   9.896  0.0173 -0.4842  0.3387
  524MOL0     C70612   8.293   3.139  10.030  0.6106  0.5874 -1.0911
  524MOL0     O70613   8.178   3.097  10.097 -0.4602 -0.4950 -0.6917
  524MOL0     C70614   8.131   3.174  10.212  0.3783 -0.1411  0.1050
  524MOL0     C70615   7.983   3.160  10.221  0.6543 -0.6696 -0.6226
  524MOL0     C70616   7.904   3.243  10.112  0.0643 -0.3873  0.9343
  524MOL0     C70617   7.756   3.231  10.138 -0.1285 -0.4254  0.1355
  524MOL0     C70618   7.668   3.297  10.035  0.1884 -0.7318  0.1720
  524MOL0     C70619   7.517   3.269  10.043  0.1334  0.7572  0.8121
  524MOL0     C70620   7.427   3.361   9.961 -0.1830  0.4009  0.2429
  524MOL0     C70621   7.279   3.324   9.975  1.1285 -0.3613  0.7365
  524MOL0     N70622   7.205   3.409   9.879  0.5973 -0.0181  0.1937
  524MOL0     C70623   7.106   3.353   9.804 -0.6459 -0.4283 -0.1640
  524MOL0     C70624   7.038   3.451   9.745 -0.5863 -0.1282 -0.5725
  524MOL0     C70625   6.919   3.421   9.666  0.1004 -0.5581  0.2780
  524MOL0     C70626   6.810   3.340   9.746 -0.0985  0.6397 -0.3589
  524MOL0     C70627   6.691   3.306   9.663 -0.5988  0.3903  0.5251
  524MOL0     C70628   6.571   3.268   9.741 -0.5425  0.9270 -0.3131
  524MOL0     O70629   6.605   3.146   9.822  0.1195  0.7072 -0.4403
  524MOL0     C70630   6.508   3.094   9.916  0.1069  0.5609 -0.3961
  524MOL0     C70631   6.556   3.012  10.023 -0.2419  0.1094 -0.5230
  524MOL0     C70632   6.468   2.966  10.123  0.3547  0.2267 -0.5133
  524MOL0     C70633   6.539   2.890  10.232 -0.6501 -0.7957  0.0449
  524MOL0     C70634   6.330   3.008  10.121  0.9048 -0.6932 -0.2559
  524MOL0     C70635   6.240   2.977  10.229 -0.9081 -0.1434 -0.8292
  524MOL0     O70636   6.118   2.934  10.201  0.3428  0.0415  0.4921
  524MOL0     C70637   6.036   2.844  10.269  0.0861  0.4015 -0.1825
  524MOL0     C70638   5.906   2.816  10.218  0.8931  0.0308  0.1043
  524MOL0     C70639   5.822   2.714  10.274 -0.0053 -0.0412 -1.2157
  524MOL0     C70640   5.856   2.660  10.397  0.0723 -0.2871  0.4862
  524MOL0     O70641   5.770   2.575  10.468 -0.2072 -0.7263 -0.1077
  524MOL0     C70642   5.768   2.603  10.609 -0.3637 -0.4849  0.2284
  524MOL0     C70643   5.744   2.479  10.686 -0.4040 -0.1326  0.3474
  524MOL0     C70644   5.870   2.387  10.669  0.3963  0.3072 -0.0098
  524MOL0     C70645   5.847   2.259  10.742  0.0124  0.5488 -0.4303
  524MOL0     C70646   5.959   2.157  10.740 -0.5618  0.1943 -0.4349
  524MOL0     C70647   5.998   2.127  10.597 -0.2002 -0.2551 -0.3074
  524MOL0     C70648   6.091   2.008  10.610  0.3017  0.3512  0.1653
  524MOL0     C70649   6.009   1.882  10.610  0.5794 -1.0005 -0.5174
  524MOL0    Cl70650   6.105   1.737  10.660 -0.2950 -0.3263 -0.1297
  524MOL0     C70651   5.992   2.681  10.442  0.0626 -0.0236 -0.0999
  524MOL0     C70652   6.083   2.765  10.380  0.6412 -1.0637  0.2503
  524MOL0     O70653   6.281   2.988  10.345 -0.0823 -0.3986 -0.3011
  524MOL0     C70654   6.285   3.100  10.021  0.0374 -0.0127  0.4881
  524MOL0     C70655   6.368   3.127   9.911  0.4922  0.3499  0.4315
  524MOL0     N70656   7.091   3.573   9.796 -0.0943 -0.8878  0.6610
  524MOL0     N70657   7.190   3.543   9.876 -0.5603  0.0346 -0.4871
  524MOL0     C70658   8.416   3.138  10.089  0.3150  0.9509  0.3209
  524MOL0     C70659   8.529   3.180  10.015  0.4929  0.0114  0.0409
  524MOL0     C70660   8.799   3.364   9.681  0.3094  0.3029  0.7391
  524MOL0     C70661   8.870   3.424   9.788  0.6720  0.0071 -0.3488
  524MOL0     C70662   8.981   3.502   9.761 -0.0889  0.1562 -0.8918
  524MOL0     C70663   9.016   3.533   9.634 -0.5131 -0.2563  0.3069
  524MOL0     O70664   9.111   3.629   9.599 -0.3622 -0.2577  0.3006
  524MOL0     C70665   9.192   3.696   9.704  0.0816 -0.4446  0.7524
  524MOL0     C70666   9.286   3.804   9.638 -0.5859 -0.3274 -0.5463
  524MOL0     C70667   9.376   3.866   9.741  0.4531  0.2566 -0.6184
  524MOL0     C70668   9.457   3.987   9.685 -0.1609  0.4917 -0.0081
  524MOL0     C70669   9.561   4.034   9.770 -0.3013 -0.6652  0.3523
  524MOL0     C70670   9.638   4.088   9.844  0.0856  1.5098  0.8330
  524MOL0     C70671   8.951   3.474   9.523 -0.1799 -0.5488 -0.2998
  524MOL0     C70672   8.835   3.399   9.553 -0.0404 -0.6742  0.2880
  524MOL0     H70673   8.387   3.258   9.716  0.5524 -0.9159  0.1056
  524MOL0     H70674   8.180   3.151   9.852  0.5819 -1.2505 -0.5865
  524MOL0     H70675   8.183   3.129  10.296  1.2518  0.2707 -0.2066
  524MOL0     H70676   8.151   3.281  10.208  0.5608 -0.2000 -1.4660
  524MOL0     H70677   7.949   3.056  10.221 -1.4077 -0.0364 -0.0237
  524MOL0     H70678   7.956   3.211  10.314  2.5657  2.8526 -1.8485
  524MOL0     H70679   7.927   3.350  10.111  2.4130 -0.8462  0.0810
  524MOL0     H70680   7.920   3.207  10.010  0.0799  0.8808  0.4800
  524MOL0     H70681   7.731   3.125  10.144  0.3338 -0.5328  0.2136
  524MOL0     H70682   7.727   3.273  10.234 -0.6939 -1.5337  0.4696
  524MOL0     H70683   7.678   3.405  10.049 -1.6489 -0.3705 -1.0829
  524MOL0     H70684   7.688   3.272   9.930 -1.1110 -1.7252  0.1275
  524MOL0     H70685   7.501   3.168  10.005  1.0093  0.3903  1.4017
  524MOL0     H70686   7.501   3.282  10.150  0.0040 -0.3413  0.9393
  524MOL0     H70687   7.438   3.462  10.001  2.2403 -0.0671  0.9282
  524MOL0     H70688   7.454   3.351   9.856  1.9512  2.5616  0.5066
  524MOL0     H70689   7.241   3.344  10.075 -1.7459  0.8841 -0.5061
  524MOL0     H70690   7.268   3.222   9.937 -3.7049  1.3164 -3.5304
  524MOL0     H70691   7.094   3.246   9.788  1.7997 -0.7230 -0.3473
  524MOL0     H70692   6.873   3.515   9.637  0.4027 -0.1708  1.0301
  524MOL0     H70693   6.947   3.357   9.582  3.3265 -1.8410  2.1358
  524MOL0     H70694   6.780   3.405   9.828 -0.6025  0.9314 -0.7702
  524MOL0     H70695   6.840   3.238   9.770 -5.1723 -0.6197  1.7117
  524MOL0     H70696   6.727   3.223   9.602  1.2384  1.6958 -0.2814
  524MOL0     H70697   6.682   3.394   9.597 -0.1551  1.0621  1.3400
  524MOL0     H70698   6.479   3.249   9.684 -1.8987  0.9714  1.7708
  524MOL0     H70699   6.546   3.352   9.806  0.2816  0.7700  0.2081
  524MOL0     H70700   6.659   2.980  10.020 -0.4653 -0.6247 -0.6392
  524MOL0     H70701   6.634   2.852  10.194 -1.6089 -2.4942 -0.7331
  524MOL0     H70702   6.555   2.966  10.310 -0.6472 -2.5213  1.8080
  524MOL0     H70703   6.491   2.797  10.265  2.5681 -2.9143 -0.7676
  524MOL0     H70704   5.877   2.874  10.131  0.1297 -1.3176 -0.5803
  524MOL0     H70705   5.730   2.673  10.234 -0.9762  0.9385 -0.0432
  524MOL0     H70706   5.857   2.654  10.649  2.6930 -5.0736  0.0691
  524MOL0     H70707   5.682   2.668  10.625  1.0888  1.6774 -0.3045
  524MOL0     H70708   5.724   2.505  10.791 -0.7347 -1.4843  0.6428
  524MOL0     H70709   5.657   2.429  10.643 -1.3465  2.9555 -1.6701
  524MOL0     H70710   5.959   2.439  10.706  0.5235  0.0618  0.0300
  524MOL0     H70711   5.885   2.373  10.562 -1.6245  1.8791 -0.5601
  524MOL0     H70712   5.840   2.292  10.846  1.7890 -1.0214  0.2445
  524MOL0     H70713   5.753   2.214  10.707 -1.7935  2.6939  1.3508
  524MOL0     H70714   5.929   2.067  10.794  0.0285  0.4485  0.3223
  524MOL0     H70715   6.046   2.203  10.787  0.5093 -1.4394 -0.7574
  524MOL0     H70716   5.906   2.106  10.541 -1.1181 -1.9175  1.6823
  524MOL0     H70717   6.058   2.211  10.561  0.0464 -0.4092 -0.2562
  524MOL0     H70718   6.160   2.014  10.695  0.7583 -1.1071 -0.0768
  524MOL0     H70719   6.158   2.006  10.524 -0.1027 -0.3045 -0.1417
  524MOL0     H70720   5.966   1.875  10.509  0.5936  5.1755 -1.3441
  524MOL0     H70721   5.927   1.896  10.682  0.3365 -1.4464 -0.7038
  524MOL0     H70722   6.022   2.622  10.528 -2.2566  0.8638  1.4352
  524MOL0     H70723   6.183   2.785  10.415  1.8626 -1.0536 -2.8962
  524MOL0     H70724   6.179   3.118  10.002  0.0419  0.8704  1.2146
  524MOL0     H70725   6.315   3.176   9.830  0.7331 -0.2180 -0.0749
  524MOL0     H70726   8.431   3.107  10.192  1.6251  1.4528  0.3092
  524MOL0     H70727   8.631   3.167  10.051  0.7083  0.6302 -0.3369
  524MOL0     H70728   8.820   3.408   9.882 -2.2014  2.2027 -1.3602
  524MOL0     H70729   9.043   3.550   9.836  0.7640 -1.0931 -0.7532
  524MOL0     H70730   9.128   3.749   9.775  0.9787 -2.7407  3.5107
  524MOL0     H70731   9.251   3.617   9.752  0.8657  0.7475  1.8029
  524MOL0     H70732   9.236   3.887   9.587  2.1447  1.4398 -0.5615
  524MOL0     H70733   9.342   3.752   9.559  0.1677 -1.4681  0.6933
  524MOL0     H70734   9.447   3.785   9.762  1.6094  1.2857 -0.4399
  524MOL0     H70735   9.320   3.889   9.832 -0.5000  0.7979 -1.3326
  524MOL0     H70736   9.393   4.073   9.665  1.3968  1.0998 -3.0807
  524MOL0     H70737   9.501   3.952   9.591  2.3823  1.5365  0.7018
  524MOL0     H70738   9.719   4.140   9.892  1.2633  1.5888 -1.1019
  524MOL0     H70739   8.963   3.504   9.419 -1.0287 -0.9801 -0.5327
  524MOL0     H70740   8.765   3.370   9.476 -1.8047  2.7818  0.3715
  525MOL0     O70741   3.801   5.548   4.365 -0.1797 -0.0035 -0.5011
  525MOL0     C70742   3.791   5.605   4.470 -0.5676  0.8243 -0.0273
  525MOL0     O70743   3.847   5.721   4.495  0.8355 -0.0321 -0.2751
  525MOL0     C70744   3.916   5.792   4.403  0.4072 -0.3856 -0.9110
  525MOL0     C70745   3.869   5.916   4.353  0.2988 -0.8912  0.0682
  525MOL0     C70746   3.942   5.981   4.259  0.1790  0.2609  0.1148
  525MOL0     C70747   4.063   5.931   4.214 -0.0623 -0.8767  0.4913
  525MOL0     O70748   4.142   5.991   4.113 -0.6448  0.1757  0.1940
  525MOL0     C70749   4.123   6.120   4.064  0.2764 -0.7113 -0.5859
  525MOL0     C70750   4.156   6.230   4.163  0.3635  0.2878  0.6789
  525MOL0     C70751   4.053   6.348   4.156 -0.7730 -0.4202  0.4953
  525MOL0     C70752   4.075   6.449   4.270  0.2191 -0.6011  0.3923
  525MOL0     C70753   4.035   6.413   4.415 -0.1019  0.5863 -0.0391
  525MOL0     C70754   3.893   6.357   4.432 -0.2058  0.2572 -0.3932
  525MOL0     C70755   3.852   6.369   4.579  0.2780 -0.5295  0.8557
  525MOL0     C70756   3.699   6.381   4.588 -0.3489  0.2871  0.6192
  525MOL0     N70757   3.618   6.270   4.523  0.9488  0.1042 -0.2879
  525MOL0     C70758   3.584   6.154   4.591 -0.2001 -0.9713 -0.4095
  525MOL0     C70759   3.535   6.071   4.496  1.2338  0.4424  0.1943
  525MOL0     C70760   3.487   5.927   4.519 -0.4567 -0.0003  0.2561
  525MOL0     C70761   3.412   5.902   4.645  0.3152  0.4789 -0.8670
  525MOL0     C70762   3.368   5.756   4.680  0.2630  0.0078 -0.0141
  525MOL0     C70763   3.258   5.700   4.597 -0.5546 -0.5435 -0.5028
  525MOL0     O70764   3.133   5.766   4.629  0.1958  0.5359  0.8616
  525MOL0     C70765   3.016   5.685   4.628 -0.0372  1.3693 -0.5899
  525MOL0     C70766   2.897   5.727   4.679 -0.3044  0.2456 -0.1803
  525MOL0     C70767   2.784   5.639   4.680  0.8540  0.1301  1.0466
  525MOL0     C70768   2.671   5.682   4.768  0.1993  0.4247 -0.1925
  525MOL0     C70769   2.774   5.524   4.598 -0.4303 -0.5328 -0.3636
  525MOL0     C70770   2.656   5.442   4.589 -0.4360  0.3402 -0.2772
  525MOL0     O70771   2.526   5.504   4.600 -0.1582 -0.9883 -0.6267
  525MOL0     C70772   2.410   5.442   4.576  0.1987 -0.7384 -0.0011
  525MOL0     C70773   2.385   5.311   4.584  0.4640  0.1279 -0.3829
  525MOL0     C70774   2.262   5.251   4.553  0.5201  0.4646  0.4850
  525MOL0     C70775   2.155   5.331   4.520  0.9110 -0.4614 -0.3623
  525MOL0     O70776   2.027   5.283   4.484 -0.0304 -0.1654 -0.4330
  525MOL0     C70777   2.015   5.140   4.467  0.4392  0.6238  0.4300
  525MOL0     C70778   1.889   5.106   4.381  0.5279  0.9539  0.4963
  525MOL0     C70779   1.746   5.139   4.451 -0.0940  0.3040 -0.5581
  525MOL0     C70780   1.633   5.113   4.351  0.2291 -0.2953  0.1406
  525MOL0     C70781   1.486   5.138   4.391 -0.4589 -0.0525  0.1471
  525MOL0     C70782   1.376   5.078   4.296  0.0922 -0.0035 -0.3811
  525MOL0     C70783   1.232   5.101   4.337 -0.2255 -1.2011 -1.0364
  525MOL0     C70784   1.132   5.125   4.234 -0.1605  0.0806 -0.2750
  525MOL0    Cl70785   0.971   5.142   4.309 -0.2261  0.0438  0.4119
  525MOL0     C70786   2.174   5.468   4.511 -0.6513  0.2646  1.0303
  525MOL0     C70787   2.299   5.524   4.548 -0.0746 -0.8157 -0.0948
  525MOL0     O70788   2.679   5.319   4.584  0.5836 -0.1360 -0.8948
  525MOL0     C70789   2.893   5.488   4.540  0.1456  0.0387  0.2566
  525MOL0     C70790   3.008   5.563   4.553  0.0720 -0.1456 -1.1881
  525MOL0     N70791   3.539   6.146   4.373 -0.5809  0.5097 -0.8054
  525MOL0     N70792   3.587   6.264   4.396  0.7104 -0.2240 -0.0098
  525MOL0     C70793   4.112   5.814   4.266  0.4384  0.6158  0.3699
  525MOL0     C70794   4.045   5.743   4.362  0.5650  0.3944  0.0450
  525MOL0     C70795   3.704   5.546   4.570  0.4870  0.5735  1.0357
  525MOL0     C70796   3.731   5.541   4.706 -0.1098  0.1304  0.3980
  525MOL0     C70797   3.637   5.507   4.799 -0.6220  0.3326 -0.0724
  525MOL0     C70798   3.525   5.430   4.761 -0.6471  0.0074 -0.4110
  525MOL0     O70799   3.438   5.371   4.852 -0.4858  0.4174  0.0201
  525MOL0     C70800   3.440   5.429   4.983 -0.2145  0.5027 -0.1232
  525MOL0     C70801   3.548   5.350   5.061  0.0489 -0.2715  0.2369
  525MOL0     C70802   3.527   5.195   5.053 -0.3685 -0.3056 -0.4663
  525MOL0     C70803   3.623   5.104   5.125  0.9912 -0.0863  0.3849
  525MOL0     C70804   3.566   4.978   5.173  0.4289 -0.2456 -0.0529
  525MOL0     C70805   3.531   4.873   5.226  0.2210 -0.1758 -0.5473
  525MOL0     C70806   3.507   5.415   4.622  0.0174 -0.3441  0.4936
  525MOL0     C70807   3.590   5.480   4.531  0.2584  0.4366 -0.6195
  525MOL0     H70808   3.778   5.957   4.394  0.5361  0.7723 -0.9926
  525MOL0     H70809   3.904   6.074   4.218  2.7594  0.9746 -0.8862
  525MOL0     H70810   4.192   6.130   3.980 -0.5971  0.5781 -1.1826
  525MOL0     H70811   4.021   6.128   4.024  1.3063  3.5677 -2.8362
  525MOL0     H70812   4.130   6.189   4.261  0.6029  3.7821  2.3740
  525MOL0     H70813   4.263   6.253   4.168  0.7525 -1.7109  4.0151
  525MOL0     H70814   4.086   6.414   4.075  1.7145  0.1010  1.8144
  525MOL0     H70815   3.947   6.339   4.132 -0.8565  1.9769 -0.2965
  525MOL0     H70816   4.181   6.473   4.256 -0.2063 -0.1475 -2.5197
  525MOL0     H70817   4.025   6.543   4.247  1.5971 -0.1003 -0.6592
  525MOL0     H70818   4.100   6.335   4.458  0.2366 -0.1389 -1.7769
  525MOL0     H70819   4.042   6.502   4.478 -0.3466 -0.2775  1.2529
  525MOL0     H70820   3.814   6.407   4.375 -3.2120 -2.0473  1.4291
  525MOL0     H70821   3.888   6.253   4.397 -0.7338  0.2647 -0.3402
  525MOL0     H70822   3.896   6.282   4.629  1.4843  0.6836  1.9926
  525MOL0     H70823   3.904   6.454   4.625  2.1571 -0.5718 -1.0403
  525MOL0     H70824   3.662   6.474   4.546 -1.6748 -1.3032 -2.0370
  525MOL0     H70825   3.671   6.391   4.693 -2.1758  1.3429  0.0777
  525MOL0     H70826   3.596   6.130   4.696 -2.1390  0.1963  0.1448
  525MOL0     H70827   3.431   5.885   4.436  0.4436 -1.4251  0.3252
  525MOL0     H70828   3.577   5.864   4.514 -1.6855 -1.7129 -1.6256
  525MOL0     H70829   3.324   5.967   4.652  1.3328  1.9129 -1.0334
  525MOL0     H70830   3.481   5.932   4.724 -1.4039 -1.0506  1.3595
  525MOL0     H70831   3.321   5.755   4.779 -2.3616  3.1858 -1.0348
  525MOL0     H70832   3.448   5.682   4.680 -3.0141 -3.9655  2.3253
  525MOL0     H70833   3.255   5.595   4.627 -0.1847 -0.8787 -1.6189
  525MOL0     H70834   3.279   5.710   4.490 -1.0626  0.6782 -0.5062
  525MOL0     H70835   2.886   5.827   4.719 -0.1525 -0.4250  1.6506
  525MOL0     H70836   2.590   5.722   4.706 -0.2989  3.8075  2.3915
  525MOL0     H70837   2.628   5.602   4.829  0.3606  1.4941  1.3777
  525MOL0     H70838   2.690   5.762   4.840 -2.5875 -0.0082  1.1485
  525MOL0     H70839   2.471   5.251   4.613  1.6699  2.8137  2.0712
  525MOL0     H70840   2.256   5.143   4.565  2.4214  0.4644  2.0627
  525MOL0     H70841   2.098   5.092   4.414 -0.7388 -2.3862  1.1057
  525MOL0     H70842   1.999   5.092   4.564  1.5373  1.6861  1.1716
  525MOL0     H70843   1.898   5.151   4.282 -2.7296 -0.7876 -0.7393
  525MOL0     H70844   1.891   4.998   4.360  0.3429  1.3626 -1.9040
  525MOL0     H70845   1.759   5.243   4.482  0.6949 -0.5005  2.0939
  525MOL0     H70846   1.736   5.071   4.536  4.3435 -0.5872 -0.5150
  525MOL0     H70847   1.652   5.183   4.269  1.1907 -1.0668 -0.3212
  525MOL0     H70848   1.640   5.012   4.310 -1.4285 -0.9786  1.4216
  525MOL0     H70849   1.475   5.246   4.404  3.0613  0.5075 -0.3968
  525MOL0     H70850   1.471   5.084   4.485 -2.6657 -0.2032 -0.2429
  525MOL0     H70851   1.387   5.101   4.189 -4.4291 -1.2215 -1.2914
  525MOL0     H70852   1.391   4.970   4.305  0.4095  0.1196  0.6877
  525MOL0     H70853   1.225   5.179   4.414  2.3491 -2.4174  0.5601
  525MOL0     H70854   1.209   5.017   4.404  3.5135  0.4109  2.7177
  525MOL0     H70855   1.134   5.034   4.173 -4.2541 -0.4079  0.0358
  525MOL0     H70856   1.140   5.214   4.172 -0.3131  0.5688  0.4009
  525MOL0     H70857   2.089   5.529   4.479  0.0000  0.2883 -0.7520
  525MOL0     H70858   2.316   5.631   4.549  1.3892 -0.9991 -1.4468
  525MOL0     H70859   2.892   5.404   4.472 -2.2660  0.8195 -0.7967
  525MOL0     H70860   3.099   5.518   4.514  0.4171 -2.0228  1.4989
  525MOL0     H70861   4.200   5.768   4.223 -2.0973 -2.4141 -2.0168
  525MOL0     H70862   4.086   5.654   4.409 -2.2429 -0.1549  1.7128
  525MOL0     H70863   3.834   5.568   4.727  0.4782 -1.6889  0.0925
  525MOL0     H70864   3.669   5.522   4.902  1.9131 -2.6623 -0.2733
  525MOL0     H70865   3.457   5.537   4.989 -1.2920  0.6869 -0.2216
  525MOL0     H70866   3.341   5.409   5.025  1.0754 -1.9944  1.9494
  525MOL0     H70867   3.538   5.386   5.164  0.0703  1.1607 -0.2352
  525MOL0     H70868   3.649   5.370   5.024  0.1605  0.8220  1.0733
  525MOL0     H70869   3.526   5.165   4.947  0.6994  0.5785 -0.7434
  525MOL0     H70870   3.426   5.177   5.090 -0.9609  2.0993 -0.7535
  525MOL0     H70871   3.640   5.156   5.219  0.0206 -1.3315  1.2860
  525MOL0     H70872   3.717   5.096   5.070  0.4065  2.2527 -1.1101
  525MOL0     H70873   3.505   4.787   5.284 -0.5772 -0.0969 -0.7754
  525MOL0     H70874   3.416   5.360   4.598  0.0008 -0.1315  0.0603
  525MOL0     H70875   3.568   5.477   4.425  2.3349  0.3819 -1.0813
  526MOL0     O70876   7.587   5.293   3.343  0.8156  0.1706  0.7063
  526MOL0     C70877   7.673   5.208   3.333 -0.2134  0.4306  0.3672
  526MOL0     O70878   7.669   5.089   3.264 -0.5019  0.1403 -0.0187
  526MOL0     C70879   7.564   5.058   3.189 -0.1819  0.6557  0.5152
  526MOL0     C70880   7.566   5.057   3.046  0.0511 -0.4610  0.5231
  526MOL0     C70881   7.444   5.018   2.980 -0.2911  0.3905  0.1096
  526MOL0     C70882   7.329   4.976   3.045  0.3730  0.7561 -0.2185
  526MOL0     O70883   7.214   4.932   2.980  0.1985  0.0486 -0.6526
  526MOL0     C70884   7.231   4.827   2.888 -0.2567  0.1095  0.1352
  526MOL0     C70885   7.112   4.740   2.897  1.0562 -0.5087  0.4944
  526MOL0     C70886   6.976   4.820   2.895 -0.8566 -0.4998  0.4213
  526MOL0     C70887   6.858   4.724   2.901  0.9137 -0.3785  0.0715
  526MOL0     C70888   6.723   4.800   2.901 -0.3176  0.5194  0.0086
  526MOL0     C70889   6.699   4.856   2.760  0.1367 -0.0206  0.7552
  526MOL0     C70890   6.613   4.983   2.763 -1.1278  0.1016 -0.0679
  526MOL0     C70891   6.592   5.021   2.614  0.2616 -0.5399  0.0566
  526MOL0     N70892   6.465   5.101   2.618  0.8495  0.3290 -0.9945
  526MOL0     C70893   6.451   5.237   2.647  0.3554 -0.2931 -0.3298
  526MOL0     C70894   6.325   5.270   2.606 -0.2010 -1.0393  0.2036
  526MOL0     C70895   6.254   5.412   2.606 -0.6855  0.8474  0.1293
  526MOL0     C70896   6.195   5.473   2.731 -0.1975  0.0404  0.0062
  526MOL0     C70897   6.086   5.383   2.778 -0.0445 -0.2354 -0.3225
  526MOL0     C70898   5.981   5.466   2.848  0.6648  0.3236  0.3736
  526MOL0     O70899   5.859   5.399   2.850  0.0487 -0.0325  0.4808
  526MOL0     C70900   5.766   5.420   2.949 -1.1384  0.1806 -0.6861
  526MOL0     C70901   5.763   5.524   3.039 -0.2621 -0.1962  0.0683
  526MOL0     C70902   5.664   5.534   3.144  0.5907 -0.0519  0.8886
  526MOL0     C70903   5.669   5.655   3.225  0.1267 -0.5724 -0.6443
  526MOL0     C70904   5.571   5.428   3.160  0.2962  0.6108 -0.6526
  526MOL0     C70905   5.450   5.432   3.248 -0.5479 -0.4811 -0.1592
  526MOL0     O70906   5.389   5.311   3.265  0.0338  0.0780 -0.1358
  526MOL0     C70907   5.266   5.319   3.325 -0.7894 -1.0475  0.2803
  526MOL0     C70908   5.162   5.368   3.256  0.5743 -0.0118  0.3420
  526MOL0     C70909   5.025   5.370   3.313 -1.6574 -0.2407  0.0009
  526MOL0     C70910   5.014   5.312   3.438 -0.1075  0.4041 -0.9596
  526MOL0     O70911   4.881   5.293   3.473  0.2303 -0.6100  0.0851
  526MOL0     C70912   4.860   5.271   3.616  0.4590  0.8987 -0.0584
  526MOL0     C70913   4.706   5.248   3.620  0.6872  0.4394 -0.8104
  526MOL0     C70914   4.675   5.228   3.770 -0.1027  0.1716 -0.0501
  526MOL0     C70915   4.531   5.180   3.795 -0.2832  0.0214 -0.0516
  526MOL0     C70916   4.490   5.196   3.943  0.4468 -0.3513 -0.2731
  526MOL0     C70917   4.345   5.165   3.963  0.7683  0.0534 -0.8099
  526MOL0     C70918   4.298   5.219   4.106 -0.3758 -0.2469  0.7057
  526MOL0     C70919   4.158   5.188   4.155  0.2305 -0.8091  1.4166
  526MOL0    Cl70920   4.042   5.267   4.036  0.0092  0.9017 -0.7470
  526MOL0     C70921   5.129   5.269   3.508 -0.2025 -0.9185 -1.0182
  526MOL0     C70922   5.253   5.274   3.454  0.2017 -0.7583 -0.1767
  526MOL0     O70923   5.424   5.538   3.300 -0.2272  0.2714 -0.4211
  526MOL0     C70924   5.580   5.324   3.069  0.8366 -0.5023  0.1088
  526MOL0     C70925   5.671   5.324   2.963 -0.0807 -0.5397  0.1693
  526MOL0     N70926   6.257   5.156   2.573 -0.0238  0.4863  0.2645
  526MOL0     N70927   6.345   5.061   2.574  0.1657  0.5388 -0.1465
  526MOL0     C70928   7.324   4.982   3.181 -0.2460 -0.4464 -0.1659
  526MOL0     C70929   7.441   5.015   3.251 -1.4484  0.2903  0.1418
  526MOL0     C70930   7.808   5.236   3.401  0.6496  0.3702  0.2685
  526MOL0     C70931   7.828   5.352   3.478 -0.3178  0.3564  1.3731
  526MOL0     C70932   7.948   5.402   3.522  0.3814 -0.0437  0.4687
  526MOL0     C70933   8.062   5.322   3.498  0.4244  0.0813 -0.3729
  526MOL0     O70934   8.189   5.351   3.543 -0.5373  0.4045 -0.1444
  526MOL0     C70935   8.214   5.439   3.652 -0.9477  0.1244  1.0422
  526MOL0     C70936   8.366   5.434   3.671 -0.1810 -0.4444  0.0422
  526MOL0     C70937   8.407   5.296   3.717 -0.6309 -0.4680 -0.6032
  526MOL0     C70938   8.478   5.210   3.608  0.6211 -0.0043  0.6967
  526MOL0     C70939   8.620   5.203   3.631 -0.6804 -0.8946  0.5005
  526MOL0     C70940   8.741   5.215   3.663 -0.2329  0.3065 -0.1167
  526MOL0     C70941   8.049   5.193   3.427  0.4159 -1.4602  0.1917
  526MOL0     C70942   7.925   5.156   3.374 -0.3351 -0.3064  0.4028
  526MOL0     H70943   7.649   5.095   2.988 -0.5834 -1.4524 -1.0944
  526MOL0     H70944   7.435   5.018   2.872 -1.7143 -1.7131  0.1621
  526MOL0     H70945   7.233   4.882   2.794  0.0487  0.5027  0.3709
  526MOL0     H70946   7.327   4.773   2.892 -1.1816 -1.6323 -0.2493
  526MOL0     H70947   7.128   4.659   2.826  0.6079 -1.9894  2.0122
  526MOL0     H70948   7.110   4.687   2.993  1.7274 -1.4753 -0.0234
  526MOL0     H70949   6.971   4.881   2.985  1.6280 -0.2354  0.4433
  526MOL0     H70950   6.982   4.896   2.817 -2.8614  1.7885  2.3606
  526MOL0     H70951   6.857   4.643   2.828 -1.2719 -1.5872  1.3149
  526MOL0     H70952   6.869   4.680   3.000  1.3240 -0.2564  0.0826
  526MOL0     H70953   6.640   4.731   2.917 -1.4064  2.0280  1.1699
  526MOL0     H70954   6.729   4.879   2.976  3.1872 -1.4345  2.0233
  526MOL0     H70955   6.791   4.875   2.705 -0.4346 -1.2934 -0.7331
  526MOL0     H70956   6.651   4.772   2.708 -0.4853  0.3252  0.7557
  526MOL0     H70957   6.523   4.962   2.821  0.4614  0.4291  2.7482
  526MOL0     H70958   6.655   5.072   2.812 -0.9833  0.7950 -1.4209
  526MOL0     H70959   6.578   4.934   2.550 -1.0763  0.8287 -1.5990
  526MOL0     H70960   6.678   5.074   2.572 -0.1513  2.6936  2.8397
  526MOL0     H70961   6.528   5.297   2.695  0.1839 -2.5131  3.0778
  526MOL0     H70962   6.331   5.482   2.572 -1.4275  2.0984  0.9445
  526MOL0     H70963   6.179   5.414   2.527  2.0376  2.0575 -2.6171
  526MOL0     H70964   6.169   5.577   2.710  2.8895  1.2485  1.5053
  526MOL0     H70965   6.275   5.471   2.806  1.3776 -1.1944 -1.6199
  526MOL0     H70966   6.128   5.315   2.853  0.5975  1.2076  0.6782
  526MOL0     H70967   6.047   5.322   2.697  1.6737 -1.4330 -0.2990
  526MOL0     H70968   5.967   5.565   2.803 -0.9617  1.6060  3.3915
  526MOL0     H70969   6.021   5.485   2.948  0.6244  0.2801  0.3979
  526MOL0     H70970   5.838   5.602   3.039  1.1649 -1.5116  0.2882
  526MOL0     H70971   5.686   5.633   3.331  2.1418 -0.5146 -0.9054
  526MOL0     H70972   5.751   5.722   3.198  2.4790 -2.7906  0.5296
  526MOL0     H70973   5.576   5.711   3.214 -0.5501 -1.8509 -1.6200
  526MOL0     H70974   5.190   5.409   3.159  2.1764 -3.5402 -0.8419
  526MOL0     H70975   4.935   5.396   3.259 -1.7671 -1.4619 -0.4410
  526MOL0     H70976   4.933   5.199   3.655  1.4140  1.8532 -0.0566
  526MOL0     H70977   4.882   5.359   3.677 -0.8688 -0.2867  2.3165
  526MOL0     H70978   4.658   5.336   3.576 -0.9323 -0.4390 -0.8911
  526MOL0     H70979   4.667   5.165   3.560  0.4293  0.4148 -0.6113
  526MOL0     H70980   4.696   5.319   3.827 -1.1641 -1.1538  2.6393
  526MOL0     H70981   4.749   5.156   3.804 -0.1237  0.9709  1.8173
  526MOL0     H70982   4.466   5.225   3.719  2.3242  1.2519 -1.7006
  526MOL0     H70983   4.540   5.073   3.772 -1.5721  0.1325 -1.2488
  526MOL0     H70984   4.501   5.298   3.982  2.4875 -0.8641  0.6096
  526MOL0     H70985   4.549   5.125   4.001 -0.5193  1.2542  2.9409
  526MOL0     H70986   4.294   5.220   3.883 -0.8365  2.4986  1.6785
  526MOL0     H70987   4.339   5.056   3.970 -1.7871  0.2445  2.2464
  526MOL0     H70988   4.310   5.327   4.117  1.6559  0.1160 -3.2602
  526MOL0     H70989   4.367   5.162   4.168 -0.1785  2.5114  3.2401
  526MOL0     H70990   4.127   5.213   4.257 -2.6856  2.0515  0.0046
  526MOL0     H70991   4.140   5.082   4.136 -3.3894 -0.5662  2.7253
  526MOL0     H70992   5.137   5.231   3.610  2.1060  2.6968  0.3792
  526MOL0     H70993   5.337   5.242   3.514  2.0069  2.3093 -0.8669
  526MOL0     H70994   5.507   5.244   3.066  1.0379 -0.9550  3.5362
  526MOL0     H70995   5.660   5.253   2.882  3.0785 -1.5727  0.5481
  526MOL0     H70996   7.229   4.966   3.231 -0.6873  1.3476 -0.3814
  526MOL0     H70997   7.441   5.016   3.359 -1.3389  2.4332  0.1744
  526MOL0     H70998   7.740   5.411   3.501 -1.5236  0.2313 -2.2476
  526MOL0     H70999   7.961   5.491   3.583  1.9933  0.3682 -0.3914
  526MOL0     H71000   8.189   5.539   3.615  0.5571 -0.3090 -1.3367
  526MOL0     H71001   8.160   5.420   3.745 -1.5598 -1.3321  0.4129
  526MOL0     H71002   8.393   5.494   3.759 -1.7940 -0.3221  0.4760
  526MOL0     H71003   8.426   5.459   3.583 -0.9697  1.0650 -0.0975
  526MOL0     H71004   8.319   5.240   3.748  0.1414 -0.4964  1.7077
  526MOL0     H71005   8.476   5.314   3.800  0.9912  0.4090 -2.0709
  526MOL0     H71006   8.449   5.238   3.506 -3.0390 -0.4026  1.4868
  526MOL0     H71007   8.435   5.109   3.618 -0.3274  0.3900  0.7486
  526MOL0     H71008   8.846   5.211   3.682  0.4836 -1.5080 -3.7008
  526MOL0     H71009   8.130   5.121   3.422 -0.4959 -2.5981  1.0809
  526MOL0     H71010   7.927   5.062   3.320 -3.2029  0.2033 -0.8181
  527MOL0     O71011   4.637  10.123   6.835 -0.4387  0.1697 -0.2011
  527MOL0     C71012   4.658  10.127   6.711 -0.9124  0.0397  0.2795
  527MOL0     O71013   4.576  10.165   6.610  0.2401  0.0063 -0.6342
  527MOL0     C71014   4.445  10.176   6.633  0.2227 -0.3112  0.0567
  527MOL0     C71015   4.397  10.267   6.727 -0.4808  0.1274  0.2237
  527MOL0     C71016   4.259  10.268   6.763 -0.6898 -0.2100  0.3241
  527MOL0     C71017   4.171  10.177   6.712  0.8660  0.1213 -0.2130
  527MOL0     O71018   4.046  10.186   6.765  0.1429  0.3560  0.3008
  527MOL0     C71019   3.974  10.057   6.764 -0.3809 -0.6874 -0.2070
  527MOL0     C71020   3.825  10.080   6.797  0.9491  0.0645 -0.6195
  527MOL0     C71021   3.752   9.966   6.869  0.2987 -0.6486 -0.0315
  527MOL0     C71022   3.624  10.018   6.947 -0.3060 -0.0204 -0.2155
  527MOL0     C71023   3.553   9.904   7.025 -0.9000  0.3181 -0.2437
  527MOL0     C71024   3.474   9.809   6.930 -0.5256 -0.4426  0.2491
  527MOL0     C71025   3.336   9.867   6.888  0.4870  0.5727 -0.3073
  527MOL0     C71026   3.248   9.891   7.013 -0.0109  0.1161 -0.3289
  527MOL0     N71027   3.107   9.859   6.994 -0.2619 -0.0895  0.0477
  527MOL0     C71028   3.007   9.953   6.982  0.6540  0.1020 -0.2753
  527MOL0     C71029   2.896   9.879   6.996  0.7356  0.1969  0.2527
  527MOL0     C71030   2.750   9.911   7.000 -0.0734  0.2901 -0.1470
  527MOL0     C71031   2.726   9.972   7.141  0.6238 -0.4421 -0.5549
  527MOL0     C71032   2.707   9.870   7.248 -0.1081 -0.5989 -0.2435
  527MOL0     C71033   2.601   9.768   7.221  0.3159  0.1231  0.5970
  527MOL0     O71034   2.476   9.822   7.164  0.2069  0.2017 -0.2630
  527MOL0     C71035   2.373   9.737   7.140 -0.0476 -0.1373  0.2809
  527MOL0     C71036   2.374   9.598   7.136  1.0044 -0.5986  0.1971
  527MOL0     C71037   2.264   9.529   7.098 -0.3505  0.2884 -0.2892
  527MOL0     C71038   2.279   9.376   7.090  0.2628 -0.6297  0.4669
  527MOL0     C71039   2.142   9.604   7.056  0.5641 -0.0056 -0.5416
  527MOL0     C71040   2.024   9.540   6.995 -0.0215  0.3903  0.3345
  527MOL0     O71041   1.913   9.615   7.007 -0.4984  0.0722 -0.3125
  527MOL0     C71042   1.792   9.587   6.942  0.5537 -0.0045 -1.2201
  527MOL0     C71043   1.724   9.692   6.874 -0.0125  0.2445  0.9287
  527MOL0     C71044   1.605   9.658   6.802 -0.2491 -0.1746  0.0026
  527MOL0     C71045   1.551   9.527   6.810  0.7881  0.0628 -0.5371
  527MOL0     O71046   1.427   9.482   6.764 -0.4226  0.7229  0.2078
  527MOL0     C71047   1.356   9.579   6.683 -0.4925 -0.4069  0.4360
  527MOL0     C71048   1.226   9.515   6.647 -0.1750 -0.0954 -0.5147
  527MOL0     C71049   1.141   9.505   6.770  0.3215 -0.6738  0.2579
  527MOL0     C71050   1.010   9.579   6.744 -0.5899  0.9334  0.2728
  527MOL0     C71051   0.917   9.582   6.871 -0.1243 -0.1389  0.3672
  527MOL0     C71052   0.789   9.663   6.852  0.6405 -0.3242  0.7399
  527MOL0     C71053   0.671   9.570   6.803  0.3063 -0.7458 -0.0086
  527MOL0     C71054   0.538   9.634   6.821  0.1987 -0.3218 -0.0893
  527MOL0    Cl71055   0.422   9.538   6.714  0.3677  0.2383  0.4411
  527MOL0     C71056   1.607   9.442   6.901 -0.0471  0.7156  0.1806
  527MOL0     C71057   1.734   9.465   6.968  0.8386 -1.0312 -0.3033
  527MOL0     O71058   2.027   9.428   6.936 -0.1550 -0.5276  0.1099
  527MOL0     C71059   2.143   9.742   7.073  0.1323  0.1627  1.3884
  527MOL0     C71060   2.261   9.809   7.108  0.8121  0.1191  0.3675
  527MOL0     N71061   2.930   9.743   7.011 -0.0903 -0.2358 -0.0234
  527MOL0     N71062   3.055   9.733   7.008  0.8782  0.9926  0.0265
  527MOL0     C71063   4.226  10.080   6.628 -0.1895  0.6733  0.4061
  527MOL0     C71064   4.358  10.088   6.578  0.4837 -0.8268 -0.2579
  527MOL0     C71065   4.804  10.104   6.679  0.4146  0.4074  0.6315
  527MOL0     C71066   4.836  10.104   6.542 -0.9840 -0.4298 -0.2101
  527MOL0     C71067   4.964  10.092   6.500 -0.4513 -0.1056 -1.0046
  527MOL0     C71068   5.072  10.084   6.595 -0.3332 -0.3932 -0.3934
  527MOL0     O71069   5.197  10.063   6.547  0.2101 -0.6116  0.2263
  527MOL0     C71070   5.309  10.057   6.638 -0.7115 -0.5186 -0.1074
  527MOL0     C71071   5.453  10.061   6.563  0.0347 -0.6826 -0.6752
  527MOL0     C71072   5.449  10.167   6.449 -0.9160  0.7939 -0.0244
  527MOL0     C71073   5.590  10.187   6.396 -0.1058 -0.1041  0.1558
  527MOL0     C71074   5.600  10.283   6.282  1.0800 -0.0728  0.2818
  527MOL0     C71075   5.611  10.357   6.193 -0.4772 -0.5562  0.5309
  527MOL0     C71076   5.042  10.091   6.733 -0.5250 -0.2941  0.0067
  527MOL0     C71077   4.908  10.098   6.775 -0.2004  0.9256 -0.3587
  527MOL0     H71078   4.465  10.329   6.784  1.9691 -4.2737  2.6332
  527MOL0     H71079   4.227  10.352   6.825  4.1442  2.3664 -0.1895
  527MOL0     H71080   3.987   9.997   6.673 -1.4344 -0.2669 -0.6476
  527MOL0     H71081   4.009   9.987   6.841  1.5056 -1.6654 -1.8575
  527MOL0     H71082   3.816  10.165   6.866  1.7633  0.4880 -1.0181
  527MOL0     H71083   3.767  10.116   6.712  0.0738  1.3738  0.4809
  527MOL0     H71084   3.725   9.882   6.805  1.4488  0.1222 -1.5922
  527MOL0     H71085   3.812   9.926   6.951 -3.9128  0.8587  4.2601
  527MOL0     H71086   3.660  10.089   7.022  0.3708 -1.2434  0.6767
  527MOL0     H71087   3.550  10.067   6.884 -1.0107 -1.0204 -0.1996
  527MOL0     H71088   3.632   9.843   7.070 -2.6578 -1.7000  0.2882
  527MOL0     H71089   3.495   9.948   7.107 -0.7940 -1.4772  0.8468
  527MOL0     H71090   3.527   9.787   6.836  2.5186  0.3942  1.6508
  527MOL0     H71091   3.462   9.712   6.980 -1.5463 -0.7556 -0.5681
  527MOL0     H71092   3.343   9.957   6.825  0.7645 -1.8846 -4.0823
  527MOL0     H71093   3.288   9.794   6.823  0.1812  0.2007  0.3288
  527MOL0     H71094   3.251   9.998   7.039  0.8784  0.1043 -0.3531
  527MOL0     H71095   3.277   9.832   7.099 -0.8703 -1.4540 -1.0812
  527MOL0     H71096   3.007  10.061   6.968 -0.7997  0.3315  1.2710
  527MOL0     H71097   2.733   9.988   6.925  2.1935  0.2599 -0.7603
  527MOL0     H71098   2.689   9.824   6.972  0.3551 -0.3069  0.7289
  527MOL0     H71099   2.629  10.023   7.134  0.7808  0.0401  0.5679
  527MOL0     H71100   2.807  10.043   7.159  0.3089 -0.2107 -0.0470
  527MOL0     H71101   2.663   9.920   7.335 -0.4722 -1.8000  0.2812
  527MOL0     H71102   2.801   9.826   7.281 -0.4331 -0.4471  0.9339
  527MOL0     H71103   2.581   9.713   7.314 -1.2855 -2.6348 -1.2351
  527MOL0     H71104   2.639   9.698   7.146 -1.7023 -0.6214  0.1934
  527MOL0     H71105   2.462   9.541   7.166  1.3491 -1.8346 -2.7818
  527MOL0     H71106   2.341   9.346   7.005  0.4149 -2.6737  1.2408
  527MOL0     H71107   2.327   9.336   7.180 -1.6285  1.7201  2.6782
  527MOL0     H71108   2.181   9.328   7.082  0.1578 -0.2350 -0.9249
  527MOL0     H71109   1.769   9.791   6.866 -0.5098  0.3708 -0.9996
  527MOL0     H71110   1.555   9.728   6.735 -1.1255  0.2186  1.0482
  527MOL0     H71111   1.345   9.678   6.727 -1.9447 -0.2512 -0.2340
  527MOL0     H71112   1.404   9.583   6.584 -1.7658 -0.0064 -0.1836
  527MOL0     H71113   1.181   9.561   6.558  1.1692  0.8134 -0.7499
  527MOL0     H71114   1.245   9.411   6.621  1.0304 -0.4600  1.5971
  527MOL0     H71115   1.196   9.538   6.858  0.8041 -0.7531 -0.0097
  527MOL0     H71116   1.123   9.400   6.796 -3.7260  0.0414  1.0056
  527MOL0     H71117   1.032   9.681   6.710  4.0467  0.0129 -0.1450
  527MOL0     H71118   0.947   9.536   6.666 -0.8745  1.3510  0.2686
  527MOL0     H71119   0.976   9.634   6.947  0.4238 -0.7729  0.3855
  527MOL0     H71120   0.897   9.480   6.903 -0.8788 -0.4678 -1.0542
  527MOL0     H71121   0.761   9.706   6.948  2.2599 -0.6494  1.3950
  527MOL0     H71122   0.797   9.744   6.778 -0.3995 -1.1261 -0.2876
  527MOL0     H71123   0.682   9.476   6.857  3.1833 -0.4201  0.1342
  527MOL0     H71124   0.692   9.547   6.698  0.2115  0.5459 -0.3326
  527MOL0     H71125   0.527   9.740   6.796 -0.9720  0.4860  3.3357
  527MOL0     H71126   0.503   9.613   6.922 -0.8343 -1.0148 -0.5705
  527MOL0     H71127   1.550   9.351   6.911  0.7573  0.1688 -0.0382
  527MOL0     H71128   1.778   9.377   7.015 -1.7700 -1.2386  2.0418
  527MOL0     H71129   2.060   9.808   7.048  2.1225  2.6504  0.9238
  527MOL0     H71130   2.261   9.917   7.122  3.2086  0.3440 -0.8094
  527MOL0     H71131   4.170   9.991   6.603 -0.4474  0.4372  1.7548
  527MOL0     H71132   4.382  10.012   6.504 -1.0926 -1.5853 -0.0385
  527MOL0     H71133   4.760  10.100   6.463  0.7480 -2.0114 -1.9045
  527MOL0     H71134   4.993  10.086   6.396 -3.3047 -2.5553 -1.7823
  527MOL0     H71135   5.304  10.148   6.698 -0.1190  1.4651 -2.8481
  527MOL0     H71136   5.313   9.965   6.698  3.4099  1.3739  3.0023
  527MOL0     H71137   5.476   9.963   6.520 -0.2740 -1.2995  0.5378
  527MOL0     H71138   5.533  10.084   6.633 -1.3121  0.7242  0.4669
  527MOL0     H71139   5.388  10.255   6.474 -1.7356  0.7441 -1.6699
  527MOL0     H71140   5.395  10.120   6.366  0.8131 -2.8369  0.7063
  527MOL0     H71141   5.635  10.093   6.365  2.0123  0.9902 -0.2754
  527MOL0     H71142   5.656  10.224   6.475 -0.8161 -0.1512  0.7848
  527MOL0     H71143   5.632  10.426   6.114  1.7938 -0.7762  0.8663
  527MOL0     H71144   5.111  10.097   6.816  0.5130 -2.3488 -0.6463
  527MOL0     H71145   4.885  10.116   6.880  1.1496  2.1631 -0.2301
  528MOL0     O71146   6.887   8.639   3.838 -0.1106  0.2975  0.5784
  528MOL0     C71147   6.854   8.757   3.838  0.0125  0.2766 -0.1322
  528MOL0     O71148   6.731   8.805   3.812  0.0720 -0.2493 -0.6001
  528MOL0     C71149   6.623   8.716   3.823  0.2094  0.3213 -0.1029
  528MOL0     C71150   6.604   8.633   3.934 -0.5537  0.5803 -0.1488
  528MOL0     C71151   6.501   8.535   3.942 -0.7159  0.4060  0.5247
  528MOL0     C71152   6.405   8.525   3.839  0.2151 -0.1971  1.0893
  528MOL0     O71153   6.303   8.433   3.849  0.0167  0.6849  0.4202
  528MOL0     C71154   6.187   8.475   3.786  0.3983 -0.2202  0.3981
  528MOL0     C71155   6.071   8.395   3.839 -0.3080  0.4557 -1.2677
  528MOL0     C71156   5.935   8.452   3.785 -0.1875  0.9454  0.6477
  528MOL0     C71157   5.824   8.364   3.847 -0.2386 -1.2235  0.7721
  528MOL0     C71158   5.686   8.415   3.800 -0.2136 -0.1858  1.2530
  528MOL0     C71159   5.574   8.316   3.834 -0.9031 -0.4661 -0.6951
  528MOL0     C71160   5.449   8.372   3.769  0.5527 -0.7660 -0.2239
  528MOL0     C71161   5.330   8.277   3.802 -0.0425 -0.5979  0.4314
  528MOL0     N71162   5.200   8.312   3.732 -0.0100 -0.1564 -0.1738
  528MOL0     C71163   5.082   8.295   3.803  0.1481 -0.1121  0.0281
  528MOL0     C71164   4.982   8.306   3.715 -0.0916  0.0769  0.1903
  528MOL0     C71165   4.830   8.289   3.730 -0.4476 -0.0891  0.5488
  528MOL0     C71166   4.785   8.153   3.690  0.3646  0.9415 -0.3189
  528MOL0     C71167   4.637   8.119   3.714 -0.2304  0.2543 -0.0476
  528MOL0     C71168   4.554   8.216   3.633  1.1589 -0.1456  0.3593
  528MOL0     O71169   4.408   8.196   3.632 -0.4780  0.3832 -0.0926
  528MOL0     C71170   4.323   8.281   3.567  0.5500 -0.9144  0.5131
  528MOL0     C71171   4.183   8.268   3.585  0.3625 -0.5226 -0.4978
  528MOL0     C71172   4.090   8.352   3.518  0.7337 -1.0366 -0.5994
  528MOL0     C71173   3.944   8.320   3.536  0.3033  0.3673  0.2601
  528MOL0     C71174   4.154   8.459   3.443  0.4053  0.4201 -0.7176
  528MOL0     C71175   4.072   8.545   3.363 -0.1125 -0.0964 -1.1094
  528MOL0     O71176   4.001   8.476   3.262  0.6603  0.6311 -0.0009
  528MOL0     C71177   3.924   8.552   3.181  0.2457  0.2919  0.9836
  528MOL0     C71178   3.970   8.654   3.097 -0.3295 -0.3479 -0.7671
  528MOL0     C71179   3.890   8.716   3.005  0.2691 -0.0468  0.2972
  528MOL0     C71180   3.748   8.678   2.998 -0.5993  0.0352  0.0160
  528MOL0     O71181   3.649   8.739   2.921  0.0091  0.0836  0.1221
  528MOL0     C71182   3.660   8.882   2.924  0.2323  0.2318  0.1688
  528MOL0     C71183   3.517   8.921   2.924  0.3255  0.5843  0.3998
  528MOL0     C71184   3.508   9.067   2.936 -0.4065 -0.6717 -0.0238
  528MOL0     C71185   3.376   9.123   2.862 -0.7111 -0.2701  0.2267
  528MOL0     C71186   3.371   9.273   2.849 -0.0780 -0.3102 -0.0073
  528MOL0     C71187   3.238   9.318   2.780 -0.4308  0.0707 -0.0272
  528MOL0     C71188   3.219   9.471   2.756 -0.0597 -0.0016 -0.1583
  528MOL0     C71189   3.144   9.495   2.624 -0.4921 -0.4180 -0.8635
  528MOL0    Cl71190   3.141   9.679   2.612  0.3728  0.3521 -0.6524
  528MOL0     C71191   3.701   8.576   3.084 -0.0693 -0.2853  0.4878
  528MOL0     C71192   3.788   8.517   3.173 -0.1481  0.3137  0.4198
  528MOL0     O71193   4.060   8.664   3.395  0.0765  0.1653  0.2780
  528MOL0     C71194   4.287   8.482   3.444 -0.3910  0.0208 -0.1284
  528MOL0     C71195   4.380   8.391   3.497  1.0602 -0.5048  0.2801
  528MOL0     N71196   5.041   8.332   3.591 -0.3012 -0.2501  0.3290
  528MOL0     N71197   5.168   8.334   3.602 -0.4508  0.4247  1.3861
  528MOL0     C71198   6.432   8.609   3.722 -0.7055 -0.0469  0.4204
  528MOL0     C71199   6.533   8.702   3.715 -0.4356 -0.0801 -0.1597
  528MOL0     C71200   6.967   8.854   3.850  0.8642  0.4107 -0.0456
  528MOL0     C71201   7.089   8.813   3.913 -0.4806  0.4200 -0.3700
  528MOL0     C71202   7.192   8.903   3.930  0.0506  0.7998  0.4406
  528MOL0     C71203   7.188   9.033   3.877  0.5231 -0.7746 -0.0715
  528MOL0     O71204   7.296   9.118   3.869 -0.1324 -0.5702  0.2541
  528MOL0     C71205   7.426   9.064   3.916 -1.1462  0.3629 -0.3166
  528MOL0     C71206   7.526   9.156   3.856 -0.4117  0.5135 -0.3108
  528MOL0     C71207   7.546   9.283   3.945 -0.2857  0.1053  0.4823
  528MOL0     C71208   7.598   9.266   4.087  0.1540 -0.2893  0.4719
  528MOL0     C71209   7.738   9.228   4.087 -1.5994 -0.8077  0.6172
  528MOL0     C71210   7.861   9.201   4.082 -0.4071  0.2419  0.1230
  528MOL0     C71211   7.062   9.071   3.816 -0.0598 -1.0379  0.1365
  528MOL0     C71212   6.950   8.988   3.804 -0.1491 -0.1692 -0.7629
  528MOL0     H71213   6.672   8.632   4.018 -0.0814  0.8944 -0.5187
  528MOL0     H71214   6.480   8.461   4.018 -1.7037 -0.9141 -0.9523
  528MOL0     H71215   6.158   8.578   3.807 -2.3049 -0.7942 -0.1917
  528MOL0     H71216   6.190   8.466   3.677 -2.4516  4.5860 -0.3835
  528MOL0     H71217   6.090   8.293   3.802  3.9687 -0.0963  1.7006
  528MOL0     H71218   6.056   8.392   3.947  2.0607 -1.2165 -0.9053
  528MOL0     H71219   5.919   8.544   3.842 -1.3430 -0.4876  2.7588
  528MOL0     H71220   5.932   8.464   3.677 -0.5236 -0.7157  0.4500
  528MOL0     H71221   5.827   8.263   3.806  0.1760 -1.0758  0.4304
  528MOL0     H71222   5.826   8.363   3.956 -4.0977  0.9538  1.0503
  528MOL0     H71223   5.665   8.520   3.823 -1.1929  0.4386 -2.0009
  528MOL0     H71224   5.685   8.420   3.691 -0.6738  0.4316  1.2808
  528MOL0     H71225   5.604   8.219   3.792  0.9192 -0.3589  0.2246
  528MOL0     H71226   5.555   8.317   3.942  2.2143  0.8956 -0.0505
  528MOL0     H71227   5.425   8.475   3.800  0.5185 -0.9022  0.2059
  528MOL0     H71228   5.466   8.376   3.662 -0.0994  0.9335 -0.3021
  528MOL0     H71229   5.324   8.293   3.910  2.1562 -0.0869  0.5185
  528MOL0     H71230   5.345   8.174   3.769 -1.4365  0.1147 -2.8213
  528MOL0     H71231   5.083   8.279   3.910  1.7358  2.8098  0.5563
  528MOL0     H71232   4.810   8.310   3.835  2.2350  2.4174  0.6796
  528MOL0     H71233   4.787   8.366   3.665  0.6173  0.1117  0.0546
  528MOL0     H71234   4.853   8.090   3.748  2.4462  4.1101  0.8972
  528MOL0     H71235   4.809   8.136   3.584 -0.3783  0.0285 -0.3564
  528MOL0     H71236   4.620   8.120   3.822  0.4461 -1.8724  0.1308
  528MOL0     H71237   4.630   8.014   3.686  1.1036 -0.0506  0.6358
  528MOL0     H71238   4.586   8.210   3.529 -1.9554 -0.8644 -0.6794
  528MOL0     H71239   4.587   8.315   3.667  3.6160 -0.2321 -1.5191
  528MOL0     H71240   4.158   8.186   3.652  0.4155  0.0059  0.1783
  528MOL0     H71241   3.927   8.290   3.640  1.0898  1.2073  0.6456
  528MOL0     H71242   3.886   8.411   3.514  2.0528  0.6803 -4.0769
  528MOL0     H71243   3.902   8.250   3.463  0.5653  1.7510 -1.2883
  528MOL0     H71244   4.072   8.686   3.112  0.9112 -3.5337 -1.5672
  528MOL0     H71245   3.933   8.789   2.938  1.7770 -0.4215  0.8210
  528MOL0     H71246   3.704   8.919   3.017  2.2811 -0.0907 -0.6196
  528MOL0     H71247   3.726   8.922   2.845 -1.7331 -1.0972 -2.2892
  528MOL0     H71248   3.474   8.881   2.831  0.5395  0.0730  0.5172
  528MOL0     H71249   3.456   8.884   3.006 -1.8491  2.9777 -0.0194
  528MOL0     H71250   3.592   9.118   2.888 -0.8632 -2.1664 -2.5495
  528MOL0     H71251   3.498   9.098   3.041  0.8260 -2.7475  0.7632
  528MOL0     H71252   3.384   9.083   2.760  0.7610  0.7751 -0.1048
  528MOL0     H71253   3.285   9.096   2.917  0.0601  0.0743  1.7235
  528MOL0     H71254   3.454   9.301   2.785 -1.7731  2.7038 -1.1177
  528MOL0     H71255   3.377   9.317   2.949 -0.4535 -1.6415  0.6259
  528MOL0     H71256   3.235   9.261   2.687  2.4024  0.4603 -0.4456
  528MOL0     H71257   3.156   9.281   2.842 -0.5897 -1.0733 -0.9032
  528MOL0     H71258   3.317   9.519   2.760 -0.3718  0.6345 -0.1562
  528MOL0     H71259   3.154   9.505   2.837 -0.6862 -1.5263  0.0154
  528MOL0     H71260   3.041   9.458   2.622 -1.2055  1.4451 -2.0613
  528MOL0     H71261   3.195   9.457   2.535 -0.4409 -0.8794 -0.6390
  528MOL0     H71262   3.594   8.557   3.083 -0.4027  1.2869 -2.4826
  528MOL0     H71263   3.745   8.437   3.232  2.3690 -1.0382  0.5576
  528MOL0     H71264   4.327   8.570   3.396 -1.7465 -0.4913 -2.3548
  528MOL0     H71265   4.485   8.407   3.478  1.3328 -3.2960 -0.9590
  528MOL0     H71266   6.361   8.596   3.641 -3.1842 -0.7652  2.5889
  528MOL0     H71267   6.537   8.765   3.627  1.5598 -0.5765 -0.4913
  528MOL0     H71268   7.101   8.710   3.944 -2.5616 -0.2751 -1.6461
  528MOL0     H71269   7.277   8.860   3.983 -0.6153 -1.5351 -0.3007
  528MOL0     H71270   7.433   9.047   4.024  1.9469 -1.5462 -0.7091
  528MOL0     H71271   7.454   8.965   3.878  0.1813  0.0291  1.4043
  528MOL0     H71272   7.500   9.174   3.751 -2.6811 -0.8370 -0.0474
  528MOL0     H71273   7.623   9.105   3.858  0.7020  2.3699 -2.2915
  528MOL0     H71274   7.474   9.365   3.937  3.4906  3.5050 -3.1481
  528MOL0     H71275   7.623   9.335   3.888 -0.1755  0.1503  0.6714
  528MOL0     H71276   7.534   9.196   4.142  1.7584 -1.0033  1.5178
  528MOL0     H71277   7.592   9.362   4.137 -0.3578 -0.5534  0.9240
  528MOL0     H71278   7.967   9.186   4.091 -0.2633  1.8901  1.7418
  528MOL0     H71279   7.050   9.167   3.767  0.4359  0.0072  1.9744
  528MOL0     H71280   6.859   9.018   3.753 -1.4979 -1.6466  0.6541
  529MOL0     O71281   9.488   7.920   2.125 -0.0853  0.1406 -0.2655
  529MOL0     C71282   9.541   7.877   2.225 -0.1645  0.6577 -0.3532
  529MOL0     O71283   9.497   7.779   2.307 -0.3841  0.3438 -0.4242
  529MOL0     C71284   9.371   7.727   2.295 -0.7775 -0.3861 -0.8965
  529MOL0     C71285   9.274   7.763   2.385 -0.7069 -0.0900 -0.3835
  529MOL0     C71286   9.146   7.701   2.374  0.0241 -1.1660 -0.5080
  529MOL0     C71287   9.117   7.609   2.271  0.6082 -0.4301  0.1030
  529MOL0     O71288   8.995   7.539   2.266 -0.3405 -0.6635  0.0364
  529MOL0     C71289   8.887   7.613   2.330  0.1744 -0.5349  0.1529
  529MOL0     C71290   8.754   7.547   2.298 -0.5165  0.2639  0.0334
  529MOL0     C71291   8.634   7.627   2.356  0.3193  0.8466 -0.1436
  529MOL0     C71292   8.506   7.547   2.350  0.3876  0.3449 -0.7206
  529MOL0     C71293   8.387   7.637   2.403 -0.0329 -0.1122 -0.6158
  529MOL0     C71294   8.269   7.541   2.380  1.4207  0.2374 -0.0656
  529MOL0     C71295   8.141   7.607   2.439 -0.9055 -0.4941 -0.4269
  529MOL0     C71296   8.033   7.505   2.473 -1.4112 -0.0774  0.3735
  529MOL0     N71297   7.908   7.556   2.524 -0.3791  0.1291 -0.5790
  529MOL0     C71298   7.894   7.662   2.607  0.3554  0.4614  0.1513
  529MOL0     C71299   7.762   7.673   2.626 -0.0179 -0.1700  0.2331
  529MOL0     C71300   7.689   7.757   2.726  0.1621  0.6241 -0.3796
  529MOL0     C71301   7.598   7.682   2.824  0.6763  0.2026  0.2275
  529MOL0     C71302   7.540   7.760   2.936  0.2289 -0.1731  0.0429
  529MOL0     C71303   7.642   7.789   3.048  0.6976 -0.0126  1.0455
  529MOL0     O71304   7.755   7.871   3.015 -0.0557  0.1556 -0.1069
  529MOL0     C71305   7.847   7.896   3.109  0.3204  0.5873 -0.8529
  529MOL0     C71306   7.968   7.962   3.071  0.5284 -0.4900 -0.7234
  529MOL0     C71307   8.065   8.001   3.166  0.0980 -0.0234 -0.4914
  529MOL0     C71308   8.166   8.095   3.107 -0.2113  0.7786  0.4950
  529MOL0     C71309   8.057   7.959   3.298 -0.6661 -0.7039 -0.2110
  529MOL0     C71310   8.156   8.002   3.408 -0.7412  0.6381 -0.7872
  529MOL0     O71311   8.147   7.930   3.527  0.1571  0.0788  0.0483
  529MOL0     C71312   8.242   7.941   3.620 -1.1974  0.0931  0.4409
  529MOL0     C71313   8.228   8.005   3.744  0.4397  1.1837 -0.3024
  529MOL0     C71314   8.323   8.005   3.839 -0.1523  0.0577  0.1108
  529MOL0     C71315   8.445   7.954   3.815 -0.9240  0.5946  0.1431
  529MOL0     O71316   8.532   7.962   3.918  1.1507 -0.2855 -0.1062
  529MOL0     C71317   8.605   7.840   3.946  0.2807 -0.8181 -0.5870
  529MOL0     C71318   8.711   7.857   4.053 -0.3951 -0.1855 -0.3551
  529MOL0     C71319   8.781   7.996   4.074 -0.1340 -0.0261 -1.2256
  529MOL0     C71320   8.911   7.985   4.004  0.2312 -0.1659 -0.2691
  529MOL0     C71321   8.991   8.118   4.014  0.4079 -0.1634 -0.2542
  529MOL0     C71322   9.127   8.096   3.948 -0.3400 -0.3457  0.9487
  529MOL0     C71323   9.205   8.231   3.927  0.9003  0.7225  0.6962
  529MOL0     C71324   9.342   8.198   3.864 -0.3454  0.6802  0.8404
  529MOL0    Cl71325   9.452   8.323   3.893 -0.1694 -0.3265  0.0533
  529MOL0     C71326   8.462   7.884   3.697 -0.9157  0.1215 -0.1756
  529MOL0     C71327   8.370   7.889   3.595 -1.2405  0.0804  0.0196
  529MOL0     O71328   8.235   8.087   3.385 -0.3329 -0.2379 -0.8200
  529MOL0     C71329   7.948   7.877   3.340 -0.9428 -0.6117  0.3177
  529MOL0     C71330   7.846   7.851   3.246  0.7415  0.5044  0.8064
  529MOL0     N71331   7.697   7.581   2.544 -0.4683  0.7471 -0.1530
  529MOL0     N71332   7.790   7.515   2.482  0.0446  0.4000  0.6362
  529MOL0     C71333   9.216   7.585   2.173  0.2943 -0.3596 -0.8471
  529MOL0     C71334   9.343   7.642   2.186 -0.2833 -0.5583  0.1630
  529MOL0     C71335   9.669   7.945   2.264 -0.3996 -0.8182  0.3727
  529MOL0     C71336   9.732   7.916   2.381  0.0711 -0.1273 -0.6022
  529MOL0     C71337   9.847   7.985   2.414  0.2346 -0.4557  0.1209
  529MOL0     C71338   9.908   8.082   2.332 -0.3577  0.6185 -0.1407
  529MOL0     O71339  10.026   8.159   2.357  0.4817 -0.4243  0.1762
  529MOL0     C71340  10.086   8.142   2.482 -0.9516  0.0975  0.0857
  529MOL0     C71341  10.218   8.224   2.474 -0.3233 -0.3736 -0.6178
  529MOL0     C71342  10.329   8.172   2.379 -0.3681  0.4995 -0.0146
  529MOL0     C71343  10.459   8.257   2.384 -0.7634  0.3048  0.2099
  529MOL0     C71344  10.573   8.207   2.300 -0.6892  0.0088 -0.2750
  529MOL0     C71345  10.669   8.161   2.236 -0.3386 -0.4283  0.0447
  529MOL0     C71346   9.850   8.104   2.210  0.7969  0.6858  0.7865
  529MOL0     C71347   9.731   8.043   2.176  0.6378  0.0286 -0.4574
  529MOL0     H71348   9.288   7.830   2.470 -0.2892 -0.6413 -0.0076
  529MOL0     H71349   9.074   7.730   2.450  0.1904 -1.7512 -0.1173
  529MOL0     H71350   8.894   7.615   2.439 -3.2601  2.0356  0.4994
  529MOL0     H71351   8.892   7.711   2.282 -3.3184 -1.5645 -2.7936
  529MOL0     H71352   8.754   7.528   2.190  0.0002  1.2369 -0.1505
  529MOL0     H71353   8.754   7.449   2.347 -1.5085 -0.3986 -1.2207
  529MOL0     H71354   8.661   7.652   2.458  0.5233  1.5718 -0.3711
  529MOL0     H71355   8.624   7.723   2.305 -0.1039  1.2176  0.6347
  529MOL0     H71356   8.486   7.515   2.248 -0.8579 -1.6941  0.0979
  529MOL0     H71357   8.519   7.458   2.413  0.2371  0.3275 -0.7133
  529MOL0     H71358   8.398   7.679   2.504 -1.9679 -1.4414  0.2173
  529MOL0     H71359   8.387   7.727   2.340  2.6866  0.4895  0.0988
  529MOL0     H71360   8.257   7.512   2.275  2.2865 -1.2531  0.2259
  529MOL0     H71361   8.274   7.449   2.439  0.2678  1.3136  1.8081
  529MOL0     H71362   8.162   7.657   2.534 -1.2855 -1.2598  0.0600
  529MOL0     H71363   8.110   7.681   2.365 -0.2791 -1.7529 -2.0094
  529MOL0     H71364   8.076   7.443   2.552 -1.1821 -0.2364  0.1252
  529MOL0     H71365   8.018   7.443   2.384  1.1349 -0.5186  0.1862
  529MOL0     H71366   7.979   7.717   2.646  0.1882 -0.8990  2.6374
  529MOL0     H71367   7.763   7.810   2.786  0.4483 -0.2288  0.0442
  529MOL0     H71368   7.637   7.833   2.668 -0.8993  0.2857  0.0891
  529MOL0     H71369   7.644   7.597   2.875 -1.5118  1.1262  4.0858
  529MOL0     H71370   7.509   7.643   2.773 -0.4093 -0.4902  2.5015
  529MOL0     H71371   7.459   7.703   2.981 -1.4213 -0.5668 -3.1593
  529MOL0     H71372   7.495   7.853   2.900  1.5893  0.4609 -0.0792
  529MOL0     H71373   7.680   7.691   3.077  0.6416 -0.3766 -0.0464
  529MOL0     H71374   7.586   7.823   3.136 -1.4098 -1.4279  0.3338
  529MOL0     H71375   7.974   7.972   2.963  1.0156  0.2252 -0.6370
  529MOL0     H71376   8.162   8.192   3.156  1.1666  1.0340  0.1345
  529MOL0     H71377   8.265   8.049   3.116 -0.7956 -0.3403  1.4664
  529MOL0     H71378   8.139   8.109   3.001  0.2880 -1.4621  0.0183
  529MOL0     H71379   8.139   8.057   3.778  2.6380  3.5378  2.3237
  529MOL0     H71380   8.304   8.047   3.937 -3.2300 -1.8332  0.4624
  529MOL0     H71381   8.539   7.755   3.967  1.1110 -0.6538  3.5635
  529MOL0     H71382   8.661   7.815   3.856  1.0770  1.5083 -0.8117
  529MOL0     H71383   8.661   7.831   4.147  1.8903  1.9729  1.5761
  529MOL0     H71384   8.786   7.780   4.030  0.2322  0.7590 -1.5699
  529MOL0     H71385   8.792   8.010   4.182  0.5310  1.4416 -1.4611
  529MOL0     H71386   8.719   8.075   4.030 -1.5599 -1.3953 -1.7799
  529MOL0     H71387   8.976   7.908   4.045 -0.2143 -1.3896 -1.7442
  529MOL0     H71388   8.889   7.969   3.898 -1.0979  0.7016 -0.1508
  529MOL0     H71389   9.016   8.138   4.118  1.4938  0.8967 -0.6958
  529MOL0     H71390   8.933   8.205   3.981 -0.0782  0.2437  1.6043
  529MOL0     H71391   9.189   8.032   4.011  2.4889  0.0235 -1.2740
  529MOL0     H71392   9.115   8.032   3.860 -4.5600 -3.2519  3.2533
  529MOL0     H71393   9.228   8.272   4.026  1.1240  0.5870  0.7023
  529MOL0     H71394   9.144   8.298   3.866 -2.3974 -1.3703  1.4348
  529MOL0     H71395   9.324   8.182   3.757  2.6504  1.3796  0.1596
  529MOL0     H71396   9.389   8.103   3.892  0.2226  0.3972 -0.9651
  529MOL0     H71397   8.563   7.849   3.675 -0.5477  1.9308 -1.6781
  529MOL0     H71398   8.399   7.838   3.503  2.8603 -0.2826  1.2959
  529MOL0     H71399   7.951   7.852   3.445  0.6768 -0.8312  0.2339
  529MOL0     H71400   7.761   7.788   3.270  1.9482 -1.0388  1.2302
  529MOL0     H71401   9.185   7.517   2.095 -3.6081  0.4368 -0.1899
  529MOL0     H71402   9.425   7.601   2.130 -1.9936 -3.3090 -0.5139
  529MOL0     H71403   9.693   7.853   2.461 -3.8232  2.4490 -0.2649
  529MOL0     H71404   9.885   7.969   2.514  0.1091  0.3513  0.3050
  529MOL0     H71405  10.028   8.180   2.566 -0.0141  3.1072 -0.5051
  529MOL0     H71406  10.111   8.039   2.510  1.5254  0.6144 -0.0046
  529MOL0     H71407  10.265   8.220   2.573 -2.1702  0.1723  0.3384
  529MOL0     H71408  10.201   8.329   2.449  2.1021  0.2005 -0.1342
  529MOL0     H71409  10.284   8.176   2.280  0.7529 -0.5888 -0.6015
  529MOL0     H71410  10.358   8.069   2.401 -1.7627  0.4103  1.5938
  529MOL0     H71411  10.502   8.256   2.484  2.4228  0.5308 -1.0339
  529MOL0     H71412  10.434   8.360   2.357 -0.3745  0.1048 -0.9958
  529MOL0     H71413  10.744   8.132   2.166 -0.0783 -1.1117  0.5989
  529MOL0     H71414   9.902   8.172   2.143  0.8139 -0.0190  0.0723
  529MOL0     H71415   9.699   8.074   2.077  1.1207  1.8878 -0.0605
  530MOL0     O71416   1.330   9.219   2.398  0.5755 -0.1836 -0.0449
  530MOL0     C71417   1.292   9.276   2.503  0.6624 -0.1516 -0.2875
  530MOL0     O71418   1.166   9.301   2.536  0.5612  0.7790 -0.1669
  530MOL0     C71419   1.070   9.212   2.489  0.2453 -0.8440 -1.1430
  530MOL0     C71420   0.954   9.256   2.421  0.1512 -0.2622  0.9194
  530MOL0     C71421   0.853   9.163   2.381 -0.3920 -1.0212 -0.0102
  530MOL0     C71422   0.875   9.026   2.403  0.6673  0.5836 -0.5438
  530MOL0     O71423   0.788   8.922   2.366 -0.6884 -0.2532 -0.3188
  530MOL0     C71424   0.670   8.941   2.295 -0.2437 -0.5233 -0.0186
  530MOL0     C71425   0.550   8.953   2.391  1.2203 -0.7424  0.5148
  530MOL0     C71426   0.420   8.959   2.297  0.8351  0.9397  0.5504
  530MOL0     C71427   0.289   8.926   2.377 -1.1211 -1.1073  0.5372
  530MOL0     C71428   0.186   8.901   2.271 -0.0252 -0.2584 -0.9481
  530MOL0     C71429   0.041   8.885   2.322 -0.3881  0.8084 -0.0970
  530MOL0     C71430  -0.054   8.858   2.200 -0.2025 -0.0005  0.0989
  530MOL0     C71431  -0.090   8.982   2.130  0.6867  0.3645  0.2750
  530MOL0     N71432  -0.186   9.065   2.199  0.0041 -0.4012 -0.1675
  530MOL0     C71433  -0.280   9.030   2.290  1.2823 -0.3027  0.2117
  530MOL0     C71434  -0.331   9.143   2.346 -0.4275 -0.6892 -0.0327
  530MOL0     C71435  -0.433   9.168   2.453  0.2864 -0.4116 -0.7599
  530MOL0     C71436  -0.571   9.101   2.445 -0.6512 -0.4360  0.6469
  530MOL0     C71437  -0.666   9.113   2.569  0.5321  0.3108  0.4143
  530MOL0     C71438  -0.794   9.027   2.563  0.5641 -0.3409 -0.5586
  530MOL0     O71439  -0.754   8.893   2.573 -0.0121  0.4861 -0.3804
  530MOL0     C71440  -0.849   8.792   2.600  0.1758  0.5521 -0.0478
  530MOL0     C71441  -0.797   8.672   2.643 -0.5008 -0.1371 -0.5247
  530MOL0     C71442  -0.886   8.573   2.691 -0.9525  0.5252 -0.0564
  530MOL0     C71443  -0.815   8.459   2.756 -0.7222  0.1038 -0.3328
  530MOL0     C71444  -1.026   8.597   2.699 -0.0512  0.1543  0.0365
  530MOL0     C71445  -1.128   8.496   2.738 -0.5806  0.8797 -0.3669
  530MOL0     O71446  -1.259   8.541   2.757 -0.6777 -0.3146 -0.0410
  530MOL0     C71447  -1.346   8.451   2.820  0.2401 -0.0312  0.4844
  530MOL0     C71448  -1.464   8.419   2.752 -0.5789  0.5051  0.5373
  530MOL0     C71449  -1.556   8.324   2.808  0.1455 -0.4228 -0.2978
  530MOL0     C71450  -1.528   8.271   2.940  0.6983  0.7325  0.3412
  530MOL0     O71451  -1.620   8.194   3.011 -0.5257 -0.3925  0.6266
  530MOL0     C71452  -1.726   8.135   2.943  0.3441 -0.2921 -0.6182
  530MOL0     C71453  -1.828   8.090   3.053 -0.8038  0.1728  0.3567
  530MOL0     C71454  -1.895   7.955   3.013 -0.1031 -0.4234 -0.1052
  530MOL0     C71455  -1.995   7.909   3.121  0.2332  0.2931  0.3397
  530MOL0     C71456  -2.085   7.784   3.087 -0.3134 -0.3775 -0.3742
  530MOL0     C71457  -2.198   7.821   2.992 -0.4044 -0.1116 -0.1583
  530MOL0     C71458  -2.159   7.782   2.851 -0.0949 -0.7074  0.7627
  530MOL0     C71459  -2.267   7.820   2.748  0.4797  0.1444 -0.5648
  530MOL0    Cl71460  -2.432   7.801   2.806 -0.5023  0.1794 -0.0989
  530MOL0     C71461  -1.416   8.310   3.010  0.7302 -0.6040 -0.3643
  530MOL0     C71462  -1.320   8.394   2.945  0.7544  0.5419  0.5173
  530MOL0     O71463  -1.091   8.383   2.760  0.4933  0.4964 -0.4077
  530MOL0     C71464  -1.075   8.714   2.649  0.0812  0.5601  0.6506
  530MOL0     C71465  -0.988   8.808   2.594  0.1210  0.4747 -0.0120
  530MOL0     N71466  -0.262   9.243   2.284  0.3979  0.2554  0.3318
  530MOL0     N71467  -0.175   9.196   2.199  0.2293 -0.5185 -0.9487
  530MOL0     C71468   1.000   8.990   2.461 -0.2883 -0.5116  0.0035
  530MOL0     C71469   1.087   9.083   2.520  0.2242  0.1083 -0.1615
  530MOL0     C71470   1.390   9.334   2.594  1.5585 -0.2326  0.0170
  530MOL0     C71471   1.522   9.304   2.575 -0.3300 -0.4314  0.4421
  530MOL0     C71472   1.624   9.366   2.649 -0.6669  0.0679  1.4672
  530MOL0     C71473   1.598   9.449   2.762  1.0529  0.2892 -0.3898
  530MOL0     O71474   1.687   9.503   2.846 -0.0132 -0.2438 -0.4201
  530MOL0     C71475   1.806   9.532   2.776  0.6730 -0.4535 -0.7027
  530MOL0     C71476   1.908   9.589   2.877  0.6724  0.4290 -0.0917
  530MOL0     C71477   2.012   9.676   2.821 -0.3668  0.1603  0.5526
  530MOL0     C71478   2.112   9.738   2.913  0.0012 -0.2992  0.1201
  530MOL0     C71479   2.217   9.638   2.933  0.2069 -0.7046  0.0642
  530MOL0     C71480   2.310   9.559   2.937  0.5004  0.6515 -0.8852
  530MOL0     C71481   1.462   9.465   2.798 -0.1188  0.6918 -0.8356
  530MOL0     C71482   1.361   9.404   2.719  0.5681 -0.4724  0.2276
  530MOL0     H71483   0.936   9.363   2.411  0.0048 -0.1397  2.2644
  530MOL0     H71484   0.767   9.196   2.323 -1.1154 -3.5623 -0.4995
  530MOL0     H71485   0.685   9.030   2.233  0.2974 -1.6179 -1.5028
  530MOL0     H71486   0.660   8.863   2.220 -3.4780 -0.7197  0.4909
  530MOL0     H71487   0.557   8.865   2.456  1.0632 -2.0701 -1.1812
  530MOL0     H71488   0.562   9.039   2.458 -0.9786 -1.4650  1.9566
  530MOL0     H71489   0.419   9.059   2.252  1.1591  1.0176  0.7111
  530MOL0     H71490   0.421   8.889   2.213  0.1997  1.9877 -0.3514
  530MOL0     H71491   0.303   8.831   2.430  2.2754 -1.3751 -0.5980
  530MOL0     H71492   0.256   9.016   2.430  3.1993  3.4473 -3.5517
  530MOL0     H71493   0.191   8.986   2.201 -2.1804 -1.6908 -2.9814
  530MOL0     H71494   0.207   8.811   2.213  3.3250  0.1930 -0.6816
  530MOL0     H71495   0.042   8.801   2.392 -0.4545  2.0925  1.4991
  530MOL0     H71496   0.021   8.972   2.386  2.0376  0.6178  1.0087
  530MOL0     H71497   0.003   8.795   2.131  1.0182 -0.6842  1.6524
  530MOL0     H71498  -0.144   8.804   2.228  1.1745 -2.4655  0.0031
  530MOL0     H71499  -0.138   8.955   2.035  2.6088  0.7128 -0.8554
  530MOL0     H71500   0.003   9.033   2.105  0.2726  1.3225  0.6410
  530MOL0     H71501  -0.310   8.931   2.324  1.3452  0.1889  1.7403
  530MOL0     H71502  -0.397   9.131   2.549 -0.9697  2.6495  1.0158
  530MOL0     H71503  -0.448   9.276   2.465 -3.5533 -0.9296  0.3399
  530MOL0     H71504  -0.573   8.996   2.415 -2.4817  0.1813 -1.6783
  530MOL0     H71505  -0.630   9.150   2.367 -1.8960  0.1249  1.8973
  530MOL0     H71506  -0.690   9.219   2.584  1.0212  0.8152 -1.9590
  530MOL0     H71507  -0.608   9.082   2.657  2.0881 -2.5502 -1.4592
  530MOL0     H71508  -0.847   9.050   2.470 -1.8130 -3.0077  0.0041
  530MOL0     H71509  -0.848   9.045   2.656  0.8234 -1.2168 -0.2239
  530MOL0     H71510  -0.689   8.662   2.647 -0.5199 -0.5220 -0.8779
  530MOL0     H71511  -0.864   8.364   2.732  0.0663 -0.4234  0.0937
  530MOL0     H71512  -0.714   8.458   2.714 -0.8934  0.8248 -0.7757
  530MOL0     H71513  -0.814   8.467   2.865 -0.1666  0.9946 -0.3927
  530MOL0     H71514  -1.484   8.474   2.661  0.9153 -1.1516 -0.8714
  530MOL0     H71515  -1.643   8.308   2.746 -0.4814 -1.2677  0.7593
  530MOL0     H71516  -1.762   8.220   2.885  4.0037  1.1976 -1.0132
  530MOL0     H71517  -1.691   8.056   2.876 -0.6750  1.3246 -3.2236
  530MOL0     H71518  -1.780   8.065   3.148 -1.5581 -2.3810  0.1221
  530MOL0     H71519  -1.905   8.165   3.073 -0.1659  0.1769  3.1935
  530MOL0     H71520  -1.814   7.886   2.988 -1.3206 -1.5136 -1.1522
  530MOL0     H71521  -1.961   7.966   2.927 -1.8277 -0.6922  1.1379
  530MOL0     H71522  -1.933   7.878   3.206  1.2308  1.0063 -0.1087
  530MOL0     H71523  -2.063   7.982   3.168 -0.1185 -0.4148  0.9481
  530MOL0     H71524  -2.120   7.745   3.183  1.6933 -0.0366  0.5517
  530MOL0     H71525  -2.020   7.704   3.049 -0.7617 -0.5623 -0.7587
  530MOL0     H71526  -2.281   7.757   3.023  1.5911 -2.2275  1.2131
  530MOL0     H71527  -2.224   7.926   3.007 -1.0367 -0.5231  1.9586
  530MOL0     H71528  -2.135   7.678   2.831  0.7291 -0.1465 -1.4504
  530MOL0     H71529  -2.063   7.829   2.826 -0.6795  0.9138  1.3885
  530MOL0     H71530  -2.260   7.751   2.663 -4.3718 -3.3934  1.4519
  530MOL0     H71531  -2.258   7.927   2.724  0.2672 -0.2552 -2.5879
  530MOL0     H71532  -1.399   8.273   3.110 -1.7226  1.0154  0.7361
  530MOL0     H71533  -1.223   8.413   2.990  1.9003 -1.6675 -0.8739
  530MOL0     H71534  -1.181   8.734   2.657 -0.2091 -1.0041  0.8869
  530MOL0     H71535  -1.017   8.902   2.550  0.5569  1.3114  1.4278
  530MOL0     H71536   1.019   8.883   2.468 -1.7560 -1.0480 -2.6147
  530MOL0     H71537   1.176   9.070   2.581 -0.0966  2.9090  1.0575
  530MOL0     H71538   1.544   9.250   2.484  0.8580  3.4393 -1.7931
  530MOL0     H71539   1.725   9.341   2.620 -0.3907 -0.2507  2.6407
  530MOL0     H71540   1.856   9.454   2.718 -1.3819  0.3634 -3.8484
  530MOL0     H71541   1.787   9.610   2.701 -0.2900  0.5557  0.5409
  530MOL0     H71542   1.952   9.504   2.931  0.4081  1.3029  1.5738
  530MOL0     H71543   1.855   9.643   2.957  0.7275  1.5017 -0.7587
  530MOL0     H71544   1.957   9.759   2.774  0.2662 -1.0886 -2.6035
  530MOL0     H71545   2.062   9.618   2.744  0.0462  1.2842 -0.0489
  530MOL0     H71546   2.065   9.779   3.003  1.6006  1.2297  0.3123
  530MOL0     H71547   2.150   9.822   2.854 -1.4972 -0.3161 -0.9188
  530MOL0     H71548   2.394   9.494   2.937  0.1660  0.2040 -1.6664
  530MOL0     H71549   1.445   9.517   2.891  1.5427 -1.8455  1.0311
  530MOL0     H71550   1.255   9.417   2.739  0.4225  0.9185 -1.2566
  531MOL0     O71551   1.022  10.748   6.118  0.2321  0.0903  1.2451
  531MOL0     C71552   1.064  10.859   6.139 -0.3543  0.0380 -0.4756
  531MOL0     O71553   0.988  10.967   6.173 -0.6482 -0.5114 -0.0182
  531MOL0     C71554   0.852  10.969   6.157 -0.6654 -0.2951 -0.5312
  531MOL0     C71555   0.789  10.898   6.054  0.2780 -0.5771 -0.2360
  531MOL0     C71556   0.647  10.898   6.048 -0.2597 -0.7538  0.4543
  531MOL0     C71557   0.569  10.986   6.128  0.6937  1.4845 -0.5233
  531MOL0     O71558   0.434  11.004   6.130  0.3183  0.1049 -0.6448
  531MOL0     C71559   0.354  10.929   6.043  0.3435 -0.3851 -0.7860
  531MOL0     C71560   0.202  10.957   6.066  0.0381  0.7036  0.1965
  531MOL0     C71561   0.111  10.876   5.973  0.7980  0.4028  0.0388
  531MOL0     C71562  -0.039  10.934   5.983 -0.2979  1.2381  0.2511
  531MOL0     C71563  -0.118  10.887   5.869  0.4470 -0.2001 -0.0763
  531MOL0     C71564  -0.263  10.940   5.876  0.6210 -0.5541 -0.2390
  531MOL0     C71565  -0.363  10.832   5.813 -0.8167 -0.1949 -0.1986
  531MOL0     C71566  -0.491  10.903   5.762 -0.8103 -0.5019 -0.0930
  531MOL0     N71567  -0.594  10.810   5.720  0.5776  0.5149 -0.0396
  531MOL0     C71568  -0.641  10.706   5.801  1.7864 -0.3603  0.8226
  531MOL0     C71569  -0.748  10.658   5.732  0.1628  0.0231  1.0840
  531MOL0     C71570  -0.848  10.545   5.772 -0.1268  0.3382  0.4529
  531MOL0     C71571  -0.941  10.587   5.880  0.1770 -0.3775 -0.6547
  531MOL0     C71572  -1.087  10.517   5.864  0.1535 -0.0869  0.7595
  531MOL0     C71573  -1.164  10.561   5.985  0.7783 -0.3743  0.5845
  531MOL0     O71574  -1.201  10.697   5.990 -0.2219 -0.4545 -0.0276
  531MOL0     C71575  -1.297  10.755   5.906  0.5896 -0.2137 -0.2081
  531MOL0     C71576  -1.303  10.901   5.895 -1.3333 -0.1836 -0.4959
  531MOL0     C71577  -1.398  10.962   5.815  1.0567  0.0874  0.4450
  531MOL0     C71578  -1.387  11.113   5.801  0.1892 -0.3178  0.2139
  531MOL0     C71579  -1.496  10.884   5.746 -0.2032 -0.5932  0.2008
  531MOL0     C71580  -1.592  10.940   5.642 -0.3578  0.3748  0.2317
  531MOL0     O71581  -1.676  10.842   5.582 -0.5699 -0.0910  0.0290
  531MOL0     C71582  -1.759  10.887   5.489  0.1336 -0.5007 -0.1037
  531MOL0     C71583  -1.881  10.933   5.527 -0.3011 -0.2973 -0.1277
  531MOL0     C71584  -1.979  10.971   5.430  0.0337 -0.0425 -0.3462
  531MOL0     C71585  -1.948  10.959   5.292 -0.0266 -0.1019 -0.9850
  531MOL0     O71586  -2.045  10.972   5.200 -0.1092  0.0438  0.0957
  531MOL0     C71587  -2.054  11.109   5.154  0.3733  0.6345 -0.3883
  531MOL0     C71588  -2.201  11.150   5.162  0.7670 -0.3548 -0.3162
  531MOL0     C71589  -2.298  11.065   5.060 -0.0115 -0.0773 -0.6885
  531MOL0     C71590  -2.452  11.090   5.083  0.4341 -0.0483 -0.2641
  531MOL0     C71591  -2.511  11.035   5.212  0.4296  0.5853 -1.1641
  531MOL0     C71592  -2.664  11.059   5.236 -0.3940  0.6177 -0.7382
  531MOL0     C71593  -2.768  11.021   5.130  0.0495  0.6497 -0.1208
  531MOL0     C71594  -2.896  11.087   5.152  0.4726  0.4130 -0.0056
  531MOL0    Cl71595  -3.031  11.016   5.063 -0.1583 -0.1693  0.4202
  531MOL0     C71596  -1.819  10.919   5.256 -0.8774 -0.2046 -0.6320
  531MOL0     C71597  -1.723  10.890   5.352  0.4475 -0.3817 -0.3126
  531MOL0     O71598  -1.597  11.063   5.610  0.4291 -0.2523 -0.2255
  531MOL0     C71599  -1.497  10.749   5.771  0.0716 -0.4548 -0.7607
  531MOL0     C71600  -1.401  10.682   5.851 -0.1548 -1.0106  0.6539
  531MOL0     N71601  -0.750  10.719   5.604 -0.4885 -0.2310  0.3306
  531MOL0     N71602  -0.656  10.809   5.600 -0.6281 -0.5309  0.4501
  531MOL0     C71603   0.638  11.053   6.233  0.2529  0.4571 -0.6817
  531MOL0     C71604   0.776  11.044   6.249  0.2319 -0.1148  0.7313
  531MOL0     C71605   1.206  10.880   6.137  0.4779 -0.7465  0.5184
  531MOL0     C71606   1.299  10.773   6.113  1.1565 -0.1881 -0.1737
  531MOL0     C71607   1.436  10.794   6.121  0.3900 -0.4208  0.1254
  531MOL0     C71608   1.484  10.922   6.152 -0.0006  0.6515  0.3710
  531MOL0     O71609   1.621  10.956   6.168  0.1216 -0.0636  0.0452
  531MOL0     C71610   1.716  10.847   6.164 -0.6404 -0.5522 -0.1684
  531MOL0     C71611   1.849  10.882   6.209 -0.0759 -0.6462  0.2854
  531MOL0     C71612   1.928  10.752   6.234 -0.4231  0.6018 -0.1573
  531MOL0     C71613   1.944  10.663   6.116 -0.4791  0.3691  0.4264
  531MOL0     C71614   1.989  10.727   5.995 -0.2194  0.6083  0.1169
  531MOL0     C71615   2.029  10.791   5.895 -0.2164 -0.3274 -1.0366
  531MOL0     C71616   1.394  11.025   6.160  0.2811 -0.3547  0.2644
  531MOL0     C71617   1.254  11.008   6.154  0.0341 -0.0291 -0.4528
  531MOL0     H71618   0.847  10.836   5.985  2.0540  1.0435 -0.2762
  531MOL0     H71619   0.596  10.842   5.970 -0.0721 -1.7720  1.0371
  531MOL0     H71620   0.378  10.958   5.940  1.5345  1.4243 -0.0414
  531MOL0     H71621   0.379  10.825   6.065 -1.3955 -0.3698  1.6362
  531MOL0     H71622   0.186  10.931   6.171  1.3545  2.7220  0.9827
  531MOL0     H71623   0.185  11.065   6.054  0.7974  0.7446 -0.6646
  531MOL0     H71624   0.150  10.885   5.871  3.1693 -3.3045  0.4132
  531MOL0     H71625   0.117  10.771   6.006 -1.0156  0.5974  1.1511
  531MOL0     H71626  -0.082  10.898   6.077  1.0433 -1.7073 -0.1439
  531MOL0     H71627  -0.045  11.043   5.984  2.1339  1.4499 -1.0123
  531MOL0     H71628  -0.082  10.914   5.769 -0.1975 -0.4319 -0.3785
  531MOL0     H71629  -0.120  10.778   5.880 -0.4830 -0.3714 -1.6041
  531MOL0     H71630  -0.284  10.967   5.979  1.5458  3.3356 -0.8885
  531MOL0     H71631  -0.275  11.035   5.824 -3.8574  0.0079  1.4199
  531MOL0     H71632  -0.307  10.771   5.741  2.1073  0.6662  1.1838
  531MOL0     H71633  -0.390  10.768   5.898  2.7046 -0.6698  0.7370
  531MOL0     H71634  -0.467  10.967   5.677 -0.2706 -0.8874 -0.2379
  531MOL0     H71635  -0.529  10.974   5.836 -0.6402  0.0448 -0.5273
  531MOL0     H71636  -0.603  10.671   5.897 -1.0376  0.4109  2.3178
  531MOL0     H71637  -0.902  10.512   5.683 -0.9372 -0.2128  1.1389
  531MOL0     H71638  -0.794  10.458   5.811 -1.7179 -0.3677  1.1662
  531MOL0     H71639  -0.958  10.694   5.865 -0.7417 -0.1957  1.3959
  531MOL0     H71640  -0.905  10.561   5.980  0.1254 -0.9752 -0.7885
  531MOL0     H71641  -1.070  10.409   5.872 -1.7318 -0.4598  0.3964
  531MOL0     H71642  -1.136  10.542   5.770  0.0829 -1.7403  0.3282
  531MOL0     H71643  -1.107  10.544   6.077 -1.2267  0.9037  2.1566
  531MOL0     H71644  -1.251  10.497   5.998  0.4867 -0.1984 -0.4710
  531MOL0     H71645  -1.224  10.958   5.941 -1.0648 -0.4396 -0.6380
  531MOL0     H71646  -1.338  11.143   5.708  0.6710 -1.6176  0.0320
  531MOL0     H71647  -1.485  11.162   5.807  0.7992  1.3330 -1.8960
  531MOL0     H71648  -1.334  11.163   5.883 -0.3856  2.1022 -0.7925
  531MOL0     H71649  -1.895  10.930   5.634  2.2131 -0.9502  0.2323
  531MOL0     H71650  -2.078  11.002   5.464 -0.5288 -1.6677 -0.4252
  531MOL0     H71651  -2.000  11.172   5.225  0.4132  0.1614  0.0068
  531MOL0     H71652  -2.008  11.120   5.055  1.6899  1.4793  0.2924
  531MOL0     H71653  -2.229  11.127   5.266 -1.1900 -3.7524 -1.4544
  531MOL0     H71654  -2.210  11.258   5.147  3.3203  0.0353  0.4117
  531MOL0     H71655  -2.276  10.961   5.087  0.2001  0.4632  1.4056
  531MOL0     H71656  -2.264  11.086   4.958 -1.5211  0.6689 -1.0735
  531MOL0     H71657  -2.473  11.197   5.085  0.6852 -0.0032 -0.0485
  531MOL0     H71658  -2.512  11.053   4.999  0.9817  2.9325 -2.1171
  531MOL0     H71659  -2.461  11.080   5.299 -2.3443  0.0233  0.8495
  531MOL0     H71660  -2.511  10.926   5.220 -2.0812  0.6231  0.8267
  531MOL0     H71661  -2.688  10.999   5.324  1.0305 -2.0796 -2.0937
  531MOL0     H71662  -2.664  11.168   5.249  1.9196  0.4200  1.6998
  531MOL0     H71663  -2.780  10.913   5.123  3.7173  0.1549 -0.3476
  531MOL0     H71664  -2.732  11.048   5.031 -0.5403 -1.9068 -1.1183
  531MOL0     H71665  -2.877  11.193   5.134  2.3271  0.5577  2.3345
  531MOL0     H71666  -2.925  11.071   5.257  0.3324  0.3144 -0.0583
  531MOL0     H71667  -1.787  10.908   5.153 -0.6960 -3.9123 -0.3398
  531MOL0     H71668  -1.625  10.871   5.310 -0.5165 -0.4230 -2.6942
  531MOL0     H71669  -1.563  10.672   5.732 -0.6245 -0.6619  0.7558
  531MOL0     H71670  -1.410  10.574   5.854 -0.1154 -1.0204  0.4575
  531MOL0     H71671   0.579  11.121   6.293 -2.1394 -1.6087 -0.4910
  531MOL0     H71672   0.812  11.094   6.338 -1.7280  0.7115  1.1090
  531MOL0     H71673   1.253  10.677   6.089 -0.8297  0.1108  2.0184
  531MOL0     H71674   1.517  10.731   6.084  1.3248  0.0665  1.2807
  531MOL0     H71675   1.681  10.761   6.223  0.8128 -0.9347  0.1673
  531MOL0     H71676   1.720  10.815   6.059  2.2988  1.0173 -0.6354
  531MOL0     H71677   1.844  10.945   6.298 -0.8754 -1.2273  0.6605
  531MOL0     H71678   1.902  10.935   6.129 -3.0413  1.1111 -0.6941
  531MOL0     H71679   1.885  10.689   6.312  0.5379  0.8855  0.6273
  531MOL0     H71680   2.027  10.774   6.276  0.0130 -1.8130  0.2230
  531MOL0     H71681   1.854  10.604   6.094 -0.3196  1.0022 -2.2557
  531MOL0     H71682   2.018  10.588   6.145 -1.0675  0.3012  1.8595
  531MOL0     H71683   2.055  10.834   5.800 -2.4516  0.8439 -1.1897
  531MOL0     H71684   1.436  11.122   6.186 -0.9680 -0.5651  3.6560
  531MOL0     H71685   1.194  11.098   6.165  0.7982  0.3151  1.2978
  532MOL0     O71686   5.188  10.392   3.956  0.1544 -0.4940 -0.1783
  532MOL0     C71687   5.194  10.502   3.898 -1.1688  0.7983  0.4448
  532MOL0     O71688   5.091  10.564   3.822 -0.9745 -0.7165  0.0218
  532MOL0     C71689   4.990  10.478   3.800  0.5105 -0.7565 -0.1962
  532MOL0     C71690   4.888  10.453   3.891 -0.1024 -0.6454 -0.1515
  532MOL0     C71691   4.791  10.355   3.866  0.2145  0.3382 -1.5813
  532MOL0     C71692   4.786  10.300   3.738 -0.3934  0.5849  0.2689
  532MOL0     O71693   4.693  10.210   3.700 -0.0120  0.1840 -0.9048
  532MOL0     C71694   4.673  10.091   3.773  1.0414 -0.0958  0.2836
  532MOL0     C71695   4.528  10.087   3.809 -0.3179  0.0286  1.2019
  532MOL0     C71696   4.452  10.040   3.684 -0.2919 -0.0858  0.5890
  532MOL0     C71697   4.304  10.028   3.714 -0.1043 -0.5639 -0.9681
  532MOL0     C71698   4.224   9.978   3.596 -0.1642 -0.2158 -0.6202
  532MOL0     C71699   4.081   9.942   3.645 -0.8657 -0.5106  0.3943
  532MOL0     C71700   4.023   9.849   3.546  0.5574 -0.3132 -0.6448
  532MOL0     C71701   3.870   9.831   3.583 -0.5308 -0.0229  0.2758
  532MOL0     N71702   3.802   9.738   3.492  0.0655  1.2306 -0.2714
  532MOL0     C71703   3.682   9.675   3.525  0.6649 -0.0491  0.4338
  532MOL0     C71704   3.649   9.611   3.410 -0.0100  0.4199  0.8451
  532MOL0     C71705   3.525   9.529   3.381 -0.0431 -0.9650  0.3579
  532MOL0     C71706   3.508   9.434   3.493 -0.0479 -0.4068  0.6053
  532MOL0     C71707   3.379   9.351   3.480  0.1286 -0.0067  0.5472
  532MOL0     C71708   3.383   9.241   3.367 -0.0128 -0.0719  0.4474
  532MOL0     O71709   3.351   9.297   3.239  0.6665  0.3794  0.4921
  532MOL0     C71710   3.221   9.286   3.183 -0.1525  0.2071 -0.1762
  532MOL0     C71711   3.164   9.164   3.162  0.4490 -1.6012  0.1702
  532MOL0     C71712   3.036   9.148   3.106  0.4217 -0.1766 -0.3996
  532MOL0     C71713   3.000   9.000   3.072 -0.1697  0.6681  0.2590
  532MOL0     C71714   2.956   9.261   3.084  0.7468  0.5169  0.4098
  532MOL0     C71715   2.813   9.254   3.038  0.4721 -0.7751  0.5094
  532MOL0     O71716   2.724   9.172   3.105  0.8827 -0.0144  0.1014
  532MOL0     C71717   2.601   9.146   3.061  0.1672 -0.7228  0.5963
  532MOL0     C71718   2.513   9.094   3.155  0.0589 -0.7683 -0.3077
  532MOL0     C71719   2.378   9.077   3.135  0.2700 -0.2221 -0.2031
  532MOL0     C71720   2.324   9.107   3.007  1.3227  0.5770 -0.7964
  532MOL0     O71721   2.190   9.099   2.978  0.6682 -0.2083 -0.1476
  532MOL0     C71722   2.106   9.180   3.057 -0.2640  0.4423 -0.0448
  532MOL0     C71723   1.960   9.166   3.004  0.2920 -0.3633  0.2304
  532MOL0     C71724   1.856   9.202   3.102 -0.4520  0.4399 -0.5207
  532MOL0     C71725   1.711   9.163   3.061 -0.3081 -0.0644 -0.4197
  532MOL0     C71726   1.624   9.123   3.179 -0.0002 -0.4378  0.0754
  532MOL0     C71727   1.476   9.090   3.122 -0.4953  0.5268  0.3594
  532MOL0     C71728   1.376   9.200   3.137  0.0551  0.6031  0.2605
  532MOL0     C71729   1.247   9.154   3.063  1.4493 -0.0039 -0.7590
  532MOL0    Cl71730   1.123   9.291   3.039  0.3055  0.1979  0.0046
  532MOL0     C71731   2.412   9.152   2.906 -0.8020 -0.5471  0.1136
  532MOL0     C71732   2.550   9.172   2.938 -0.4117  0.1816 -0.1238
  532MOL0     O71733   2.785   9.345   2.958 -0.2990  0.2629  1.0109
  532MOL0     C71734   3.006   9.389   3.118 -0.2875  0.3800 -0.7111
  532MOL0     C71735   3.135   9.401   3.166 -0.6125 -0.0799 -0.1072
  532MOL0     N71736   3.750   9.630   3.313  0.7256 -0.8157 -0.2034
  532MOL0     N71737   3.837   9.712   3.363 -0.5397 -0.4518  0.3718
  532MOL0     C71738   4.893  10.325   3.638  0.4253 -0.6448 -0.1977
  532MOL0     C71739   4.990  10.420   3.671  0.1597 -0.9540 -0.1790
  532MOL0     C71740   5.309  10.599   3.926  0.4008 -0.2259 -0.0431
  532MOL0     C71741   5.426  10.554   3.986 -0.7081 -0.4459  0.3516
  532MOL0     C71742   5.529  10.648   3.991 -0.5659 -0.5983 -0.0387
  532MOL0     C71743   5.517  10.780   3.947 -0.1510  0.8080  0.5356
  532MOL0     O71744   5.627  10.865   3.954 -0.0912  0.0990  0.1268
  532MOL0     C71745   5.736  10.822   3.870 -0.1847 -1.1222  0.0750
  532MOL0     C71746   5.734  10.902   3.740  0.1148 -0.2754 -0.3595
  532MOL0     C71747   5.712  11.057   3.766 -0.0146  0.0211  0.6881
  532MOL0     C71748   5.766  11.153   3.649 -0.2805  0.4057 -0.7136
  532MOL0     C71749   5.730  11.291   3.673 -0.0526  0.3430 -0.1782
  532MOL0     C71750   5.694  11.403   3.689  0.0383  0.3532 -0.4112
  532MOL0     C71751   5.400  10.817   3.895  0.9404 -0.2913 -0.9067
  532MOL0     C71752   5.289  10.733   3.894  0.4973  0.9039  0.4845
  532MOL0     H71753   4.892  10.500   3.988  0.3318 -0.5274 -0.2213
  532MOL0     H71754   4.716  10.343   3.944  0.9292  1.7580 -0.6183
  532MOL0     H71755   4.701  10.003   3.715 -1.0261 -0.8135  0.3092
  532MOL0     H71756   4.733  10.085   3.864  1.1111 -0.5663  0.2078
  532MOL0     H71757   4.508  10.017   3.891 -1.3722  2.9707  3.6010
  532MOL0     H71758   4.490  10.185   3.839  0.2152  0.3844  0.7285
  532MOL0     H71759   4.467  10.107   3.598 -1.4351 -2.9358 -2.0401
  532MOL0     H71760   4.490   9.947   3.642 -0.0754  0.2676 -0.0153
  532MOL0     H71761   4.283   9.966   3.802 -2.2592  0.3781 -0.7646
  532MOL0     H71762   4.269  10.128   3.739  2.1075 -0.2919  1.3717
  532MOL0     H71763   4.227  10.055   3.518 -0.6708 -1.1283 -1.5719
  532MOL0     H71764   4.265   9.886   3.554  0.1279 -0.8937  1.0649
  532MOL0     H71765   4.088   9.880   3.735  2.7922  0.1368  0.7095
  532MOL0     H71766   4.024  10.035   3.649 -1.3222 -0.8077  1.0009
  532MOL0     H71767   4.037   9.896   3.448 -0.7870  1.3392 -0.0858
  532MOL0     H71768   4.080   9.755   3.553  0.5544 -0.1763  1.7823
  532MOL0     H71769   3.820   9.929   3.591  1.1332  0.9621 -0.8686
  532MOL0     H71770   3.866   9.791   3.685 -0.9668 -0.0133  0.2648
  532MOL0     H71771   3.622   9.671   3.615 -1.0340  3.6486 -0.3475
  532MOL0     H71772   3.438   9.595   3.374 -0.0140 -1.1002 -2.3655
  532MOL0     H71773   3.545   9.469   3.291  2.0956  0.3353 -0.0891
  532MOL0     H71774   3.506   9.496   3.583  1.0985  0.2731  0.1966
  532MOL0     H71775   3.600   9.374   3.492  0.9002  0.9787  1.3463
  532MOL0     H71776   3.291   9.412   3.456 -0.0281 -1.3368 -2.8098
  532MOL0     H71777   3.370   9.305   3.579  3.6028 -0.2664  0.8379
  532MOL0     H71778   3.306   9.170   3.397 -4.2000  3.1858 -1.5595
  532MOL0     H71779   3.482   9.196   3.355  0.3144 -0.0468  2.7386
  532MOL0     H71780   3.234   9.085   3.186  0.8176 -0.3590  3.8255
  532MOL0     H71781   3.024   8.985   2.966  2.2555  3.0928  0.3422
  532MOL0     H71782   3.052   8.924   3.132 -0.7799  1.3790  1.7249
  532MOL0     H71783   2.894   8.980   3.088 -0.3318 -1.1735 -2.4215
  532MOL0     H71784   2.556   9.079   3.253  1.6523  2.5166 -0.3457
  532MOL0     H71785   2.313   9.058   3.219 -0.9600  3.5690 -0.0937
  532MOL0     H71786   2.101   9.137   3.157 -4.0430  0.8404  0.0823
  532MOL0     H71787   2.136   9.285   3.060  0.1347  0.3334 -0.0726
  532MOL0     H71788   1.955   9.235   2.920 -0.9231  0.6389  1.0930
  532MOL0     H71789   1.940   9.063   2.974  0.7596 -1.1163  2.3111
  532MOL0     H71790   1.852   9.310   3.119 -0.7142  0.0459  2.2651
  532MOL0     H71791   1.883   9.147   3.192 -2.0427 -0.3696 -0.5063
  532MOL0     H71792   1.664   9.249   3.012 -0.9132 -0.3688 -0.3755
  532MOL0     H71793   1.704   9.074   2.998 -0.5828 -1.1919  1.1543
  532MOL0     H71794   1.619   9.204   3.253  0.0476  0.1044 -0.5027
  532MOL0     H71795   1.669   9.037   3.230 -0.6388 -0.7917  0.0526
  532MOL0     H71796   1.484   9.075   3.014  1.1398  0.6193  0.4354
  532MOL0     H71797   1.437   8.997   3.165  1.1304 -0.5577 -0.4038
  532MOL0     H71798   1.412   9.292   3.090 -0.6584 -0.3750 -2.4320
  532MOL0     H71799   1.348   9.214   3.242  0.5324 -0.0197  0.4771
  532MOL0     H71800   1.201   9.068   3.113 -1.4626  1.3046 -0.9820
  532MOL0     H71801   1.271   9.116   2.964  0.4745  2.2684 -1.9358
  532MOL0     H71802   2.373   9.175   2.808  0.1533  2.3547  0.3335
  532MOL0     H71803   2.610   9.202   2.852 -0.3924 -2.3816 -1.0910
  532MOL0     H71804   2.954   9.484   3.113  0.2403  0.8159  1.1641
  532MOL0     H71805   3.178   9.500   3.180  1.8237 -0.9001 -1.1808
  532MOL0     H71806   4.896  10.280   3.540  0.7163  1.3488 -1.1568
  532MOL0     H71807   5.081  10.433   3.613  0.2479  0.8348  0.2849
  532MOL0     H71808   5.437  10.451   4.017  0.9489 -0.4749 -0.2695
  532MOL0     H71809   5.624  10.617   4.034  0.2963 -1.9309 -2.7169
  532MOL0     H71810   5.832  10.847   3.917 -0.1570  4.7119 -2.2380
  532MOL0     H71811   5.737  10.717   3.842 -3.2533 -0.9422 -1.0790
  532MOL0     H71812   5.659  10.861   3.672 -0.9210  0.1709  0.4892
  532MOL0     H71813   5.835  10.891   3.699  0.8581  2.4497  0.5151
  532MOL0     H71814   5.748  11.093   3.863  0.8437  1.3618 -0.1038
  532MOL0     H71815   5.605  11.080   3.777  0.0398  0.0305  1.2285
  532MOL0     H71816   5.742  11.114   3.549 -0.5859  2.2327 -1.3816
  532MOL0     H71817   5.875  11.152   3.651 -0.1394 -2.5955 -2.4075
  532MOL0     H71818   5.670  11.504   3.717 -1.9236 -0.7941  2.6168
  532MOL0     H71819   5.387  10.918   3.857 -2.2352  0.1153  0.9295
  532MOL0     H71820   5.198  10.774   3.851 -0.7069  1.0255  3.0036
  533MOL0     O71821  10.663   0.716   2.359 -0.2468 -0.6347  0.4297
  533MOL0     C71822  10.724   0.764   2.453  0.4250  0.1975 -0.5413
  533MOL0     O71823  10.669   0.822   2.564  0.6080 -0.4143 -0.1325
  533MOL0     C71824  10.538   0.868   2.559  0.6783 -0.2876 -0.1534
  533MOL0     C71825  10.504   1.005   2.563  0.0547  0.5383  1.2253
  533MOL0     C71826  10.376   1.047   2.544  0.9711  1.0040  0.5169
  533MOL0     C71827  10.271   0.951   2.526 -0.2992 -1.0031  0.7730
  533MOL0     O71828  10.144   0.973   2.486  0.4593  0.3494  1.0373
  533MOL0     C71829  10.097   1.110   2.456 -0.1992 -0.2109  0.1449
  533MOL0     C71830   9.945   1.121   2.441  0.2461  0.4658  0.7437
  533MOL0     C71831   9.891   1.044   2.321  0.3075 -0.4050  0.8358
  533MOL0     C71832   9.745   1.020   2.343 -0.4976  0.0171 -0.5159
  533MOL0     C71833   9.672   0.942   2.225  0.6242 -0.1701  0.2601
  533MOL0     C71834   9.569   0.844   2.284 -0.4244  0.8492 -0.1006
  533MOL0     C71835   9.449   0.901   2.356  0.6668 -0.0229 -1.1246
  533MOL0     C71836   9.347   0.973   2.271  0.1290 -0.0999 -0.8595
  533MOL0     N71837   9.274   0.888   2.183 -0.1352 -0.6223  0.6472
  533MOL0     C71838   9.191   0.780   2.198  0.2638 -0.7489  0.0289
  533MOL0     C71839   9.138   0.745   2.081  0.0368  0.0934 -0.7732
  533MOL0     C71840   9.064   0.620   2.071 -0.0768 -0.4877 -1.0280
  533MOL0     C71841   8.926   0.647   2.129 -0.4290  0.4267  0.1330
  533MOL0     C71842   8.815   0.702   2.036  0.1727 -1.2661  0.0524
  533MOL0     C71843   8.669   0.662   2.052  0.5348 -0.2020  0.1738
  533MOL0     O71844   8.586   0.740   1.956  0.3726  0.0334  0.1836
  533MOL0     C71845   8.466   0.686   1.926 -0.2792  1.3201 -0.1023
  533MOL0     C71846   8.406   0.735   1.811 -0.7532  0.1570  0.7195
  533MOL0     C71847   8.283   0.692   1.767  0.4005  0.6339  0.2996
  533MOL0     C71848   8.235   0.735   1.627 -0.3514 -0.0438  0.9610
  533MOL0     C71849   8.213   0.595   1.843 -0.4967  0.0384  0.4982
  533MOL0     C71850   8.084   0.542   1.805  0.3628  0.4501 -0.1752
  533MOL0     O71851   8.043   0.421   1.867 -0.2621  0.2208  1.0338
  533MOL0     C71852   7.915   0.386   1.832  0.3459 -0.5006  0.5602
  533MOL0     C71853   7.881   0.329   1.711  0.1811  0.6521  0.3600
  533MOL0     C71854   7.748   0.298   1.668 -0.8772 -0.5808  0.1649
  533MOL0     C71855   7.647   0.339   1.754  0.3644  0.4330  0.0373
  533MOL0     O71856   7.517   0.314   1.714  0.2225  0.0935  0.1742
  533MOL0     C71857   7.421   0.411   1.743  0.0997 -0.4725 -0.2006
  533MOL0     C71858   7.299   0.383   1.662  0.1365  0.5357  0.3401
  533MOL0     C71859   7.204   0.517   1.656  0.1847  0.0198  0.2184
  533MOL0     C71860   7.079   0.486   1.581  0.1548 -0.3841 -0.0836
  533MOL0     C71861   6.976   0.599   1.579 -0.4813 -0.3976 -0.3203
  533MOL0     C71862   6.855   0.566   1.496 -0.1819  0.4847 -0.1521
  533MOL0     C71863   6.751   0.679   1.499  0.2513 -0.3046  0.0254
  533MOL0     C71864   6.608   0.640   1.449  0.2931  0.1285  0.0583
  533MOL0    Cl71865   6.496   0.767   1.490 -0.1374  0.4592 -0.0419
  533MOL0     C71866   7.675   0.401   1.872 -0.0204 -0.3585 -0.3385
  533MOL0     C71867   7.808   0.419   1.912 -0.2008  0.5933  0.0229
  533MOL0     O71868   8.014   0.608   1.733 -0.1993 -0.1805  0.8357
  533MOL0     C71869   8.275   0.540   1.957  0.3403 -0.0345 -0.9190
  533MOL0     C71870   8.399   0.584   1.995 -0.3635  0.1723 -0.5856
  533MOL0     N71871   9.178   0.841   1.992  0.0688 -0.3600 -0.7368
  533MOL0     N71872   9.259   0.924   2.048 -0.0587 -0.0062  0.4771
  533MOL0     C71873  10.306   0.816   2.527 -0.3217 -0.3908 -0.3631
  533MOL0     C71874  10.443   0.777   2.545  0.4953 -0.2942  0.1196
  533MOL0     C71875  10.875   0.752   2.442  0.1745  0.6010 -0.2599
  533MOL0     C71876  10.934   0.687   2.326  1.2340 -0.4579 -0.2007
  533MOL0     C71877  11.075   0.671   2.321  0.5661 -0.1283  0.0090
  533MOL0     C71878  11.158   0.708   2.421  0.3119 -0.3150  0.0685
  533MOL0     O71879  11.293   0.692   2.424 -0.5538  0.2033 -0.1910
  533MOL0     C71880  11.355   0.586   2.347  0.0091 -0.3147  0.3671
  533MOL0     C71881  11.491   0.537   2.404 -0.9799 -0.6411  0.4560
  533MOL0     C71882  11.589   0.658   2.452  0.6038  0.1721 -0.2677
  533MOL0     C71883  11.618   0.754   2.341 -0.2818  0.5470  0.0267
  533MOL0     C71884  11.693   0.696   2.232 -0.2186  0.3980 -0.6587
  533MOL0     C71885  11.755   0.628   2.147 -0.1095  0.5698  0.9546
  533MOL0     C71886  11.099   0.783   2.530  0.4921  0.0589  0.2634
  533MOL0     C71887  10.962   0.801   2.546 -0.4155 -0.0460  0.8322
  533MOL0     H71888  10.589   1.069   2.586  0.2505  0.8046 -0.1820
  533MOL0     H71889  10.367   1.155   2.539 -2.9552  0.7744 -1.2114
  533MOL0     H71890  10.134   1.177   2.534  0.9181 -0.2374 -0.3571
  533MOL0     H71891  10.145   1.145   2.365  0.9640  0.7675  1.1050
  533MOL0     H71892   9.907   1.099   2.541  2.9867  1.9607  2.2346
  533MOL0     H71893   9.918   1.226   2.421  0.5866  1.2408  3.7712
  533MOL0     H71894   9.898   1.098   2.226  0.9236 -0.2692  0.9508
  533MOL0     H71895   9.952   0.957   2.296 -0.8199 -0.6522 -1.3024
  533MOL0     H71896   9.744   0.964   2.437 -3.7157  0.4441 -0.1735
  533MOL0     H71897   9.686   1.110   2.364 -1.6060 -1.2112  1.9745
  533MOL0     H71898   9.617   1.011   2.162 -2.9257  0.3333  3.5066
  533MOL0     H71899   9.753   0.893   2.170 -0.4430 -0.8543 -0.7323
  533MOL0     H71900   9.533   0.773   2.208 -0.0313  2.4593 -1.8659
  533MOL0     H71901   9.624   0.785   2.357  2.2879  1.0646 -1.8363
  533MOL0     H71902   9.401   0.819   2.410  2.5221 -1.0870 -1.0395
  533MOL0     H71903   9.490   0.970   2.430 -2.2446  1.0780 -0.3949
  533MOL0     H71904   9.401   1.055   2.223  0.4449 -0.0981 -0.5079
  533MOL0     H71905   9.266   1.012   2.333  0.8272 -0.5443  0.3764
  533MOL0     H71906   9.172   0.724   2.289 -0.6002 -1.8210 -0.7853
  533MOL0     H71907   9.054   0.587   1.967 -0.0076 -1.8990 -0.6014
  533MOL0     H71908   9.121   0.543   2.124  2.7926  2.6498  0.8667
  533MOL0     H71909   8.920   0.698   2.225 -1.7919 -1.0813  0.9028
  533MOL0     H71910   8.897   0.543   2.149  0.4183  0.4639  1.7468
  533MOL0     H71911   8.825   0.675   1.931  0.1899  0.4935 -0.4248
  533MOL0     H71912   8.833   0.810   2.039 -1.7727 -0.9264  2.3603
  533MOL0     H71913   8.635   0.684   2.153 -2.6928  1.2909 -1.1146
  533MOL0     H71914   8.652   0.556   2.031 -0.5888 -0.1395  0.7442
  533MOL0     H71915   8.466   0.814   1.767 -1.3693  0.0653 -0.3079
  533MOL0     H71916   8.198   0.649   1.572  1.9908  0.7095 -2.1084
  533MOL0     H71917   8.149   0.802   1.631 -0.4680 -0.0720 -0.5765
  533MOL0     H71918   8.313   0.774   1.561 -1.0297 -1.4607 -0.7471
  533MOL0     H71919   7.959   0.311   1.638  0.7939  0.5506  1.0307
  533MOL0     H71920   7.725   0.250   1.573 -0.3828  0.6501 -0.5976
  533MOL0     H71921   7.410   0.417   1.852 -2.3799  0.3619 -0.4376
  533MOL0     H71922   7.465   0.506   1.714 -0.7103  1.5408  4.3414
  533MOL0     H71923   7.327   0.353   1.560 -3.3584  1.0309 -0.8800
  533MOL0     H71924   7.238   0.309   1.714 -0.6702  0.6701 -0.3870
  533MOL0     H71925   7.265   0.597   1.614 -1.2057  0.8195 -0.3411
  533MOL0     H71926   7.167   0.546   1.755  0.0537 -0.6307  0.3682
  533MOL0     H71927   7.112   0.452   1.482  4.4653 -0.0042  1.0654
  533MOL0     H71928   7.024   0.412   1.640  0.8088  2.5645  4.7056
  533MOL0     H71929   7.033   0.684   1.541  2.2285 -1.9822 -0.0937
  533MOL0     H71930   6.937   0.616   1.679 -1.5182 -0.7992 -0.6393
  533MOL0     H71931   6.881   0.536   1.394  3.3069  0.0338  0.7571
  533MOL0     H71932   6.817   0.471   1.535 -0.5141 -0.2636 -2.1566
  533MOL0     H71933   6.789   0.765   1.443  0.7475  1.3135  2.6850
  533MOL0     H71934   6.741   0.713   1.602  1.0087 -2.0047  0.6914
  533MOL0     H71935   6.575   0.547   1.496 -0.1582  0.2777  0.0400
  533MOL0     H71936   6.606   0.629   1.340 -1.8704  1.1513 -0.0600
  533MOL0     H71937   7.596   0.441   1.934  1.5160 -0.0610  1.5417
  533MOL0     H71938   7.834   0.465   2.006 -0.3019  0.4504  0.1212
  533MOL0     H71939   8.239   0.452   2.010  2.1745 -1.3562 -1.7434
  533MOL0     H71940   8.441   0.535   2.082  0.5512  1.0545 -0.5141
  533MOL0     H71941  10.232   0.738   2.514  0.3994 -1.0633 -0.4981
  533MOL0     H71942  10.461   0.671   2.540 -1.3616 -0.5940 -0.8677
  533MOL0     H71943  10.879   0.647   2.241  2.6509  0.8392 -1.7982
  533MOL0     H71944  11.112   0.615   2.236 -0.3653 -0.7701  0.0029
  533MOL0     H71945  11.290   0.500   2.332 -1.7375  1.0781 -0.5421
  533MOL0     H71946  11.377   0.637   2.253 -1.1221  2.7060  1.5867
  533MOL0     H71947  11.540   0.483   2.323  2.2403  1.4478  0.8512
  533MOL0     H71948  11.470   0.466   2.484 -3.3228  1.2712  1.6787
  533MOL0     H71949  11.678   0.608   2.489 -1.2110 -2.0593  1.3567
  533MOL0     H71950  11.537   0.718   2.527  1.1072  0.7669 -0.3925
  533MOL0     H71951  11.682   0.831   2.384  2.1472 -1.8899  1.0204
  533MOL0     H71952  11.528   0.808   2.310  0.7968  0.4371 -3.7992
  533MOL0     H71953  11.806   0.570   2.073  0.2462  1.2168  0.6758
  533MOL0     H71954  11.171   0.810   2.607  2.4584 -0.5088 -1.2789
  533MOL0     H71955  10.924   0.867   2.623 -1.8838  2.1632 -1.6400
  534MOL0     O71956   9.041   3.888   7.552  0.4175  0.8103 -0.2671
  534MOL0     C71957   9.112   3.983   7.521  0.8284 -0.5281  0.1973
  534MOL0     O71958   9.070   4.087   7.445  0.4150 -0.3921  0.3158
  534MOL0     C71959   8.932   4.093   7.423 -0.3927  0.3225  0.5656
  534MOL0     C71960   8.869   4.210   7.468  0.2174  0.4483  0.4282
  534MOL0     C71961   8.731   4.226   7.447  0.3394 -0.7430  0.4310
  534MOL0     C71962   8.659   4.123   7.388 -0.1667 -0.0379 -0.3259
  534MOL0     O71963   8.530   4.156   7.376 -0.1184  0.0380  0.1155
  534MOL0     C71964   8.442   4.087   7.286 -0.3125 -0.0877  0.0868
  534MOL0     C71965   8.323   4.168   7.234  0.9940  0.8646 -0.4446
  534MOL0     C71966   8.213   4.065   7.207  0.1045  0.3720 -0.5947
  534MOL0     C71967   8.103   4.131   7.135 -0.5520 -0.5075  0.2050
  534MOL0     C71968   7.978   4.045   7.142 -0.3275 -0.0014  0.7468
  534MOL0     C71969   7.863   4.099   7.050  0.2892 -0.3987  0.2001
  534MOL0     C71970   7.743   3.998   7.054  0.5219 -0.6039  0.0810
  534MOL0     C71971   7.648   4.029   6.943  0.4286 -0.0164  0.4943
  534MOL0     N71972   7.552   4.136   6.981 -0.1028 -0.2789 -1.2146
  534MOL0     C71973   7.582   4.274   6.969  0.4322  0.6953 -0.0414
  534MOL0     C71974   7.459   4.334   6.988 -0.3161 -0.0373 -0.2769
  534MOL0     C71975   7.460   4.484   6.986 -0.2433  0.3212  0.7315
  534MOL0     C71976   7.324   4.535   6.944 -0.1257 -0.2985  0.0245
  534MOL0     C71977   7.327   4.694   6.949 -0.9351 -0.1421 -0.0454
  534MOL0     C71978   7.201   4.763   6.942  0.9758 -0.3671 -0.2291
  534MOL0     O71979   7.130   4.754   7.064 -0.5676 -0.2131 -0.7300
  534MOL0     C71980   6.994   4.770   7.079  0.0946  0.2780  0.2421
  534MOL0     C71981   6.933   4.711   7.188 -0.2548 -0.4661 -0.5934
  534MOL0     C71982   6.793   4.728   7.204  0.1438  0.7621  1.2148
  534MOL0     C71983   6.736   4.676   7.332 -0.1885  0.4189  0.3507
  534MOL0     C71984   6.716   4.813   7.122 -0.6379  1.1617  0.4566
  534MOL0     C71985   6.571   4.838   7.140 -1.0951  0.0079  0.1325
  534MOL0     O71986   6.488   4.802   7.038  0.2505  0.3165 -0.5241
  534MOL0     C71987   6.357   4.827   7.049  0.1365  0.3378  0.2397
  534MOL0     C71988   6.276   4.756   7.139  0.9556  0.1997  0.8247
  534MOL0     C71989   6.133   4.778   7.129  0.5685  0.1050 -0.4419
  534MOL0     C71990   6.079   4.864   7.035  0.1264  0.1038 -0.4386
  534MOL0     O71991   5.948   4.894   7.055 -0.1476 -0.2313 -0.3748
  534MOL0     C71992   5.883   4.922   6.929  0.8732  0.0405 -0.4154
  534MOL0     C71993   5.898   4.807   6.825  0.6688  0.6402 -0.4502
  534MOL0     C71994   5.838   4.677   6.878 -0.1127  0.5690  0.1795
  534MOL0     C71995   5.690   4.687   6.905 -0.2543 -0.4073  0.5137
  534MOL0     C71996   5.643   4.541   6.917 -0.4650  0.1747  0.6977
  534MOL0     C71997   5.501   4.533   6.965 -0.6032 -0.0229 -0.6829
  534MOL0     C71998   5.452   4.385   6.977  1.1084  0.1542 -0.2755
  534MOL0     C71999   5.299   4.399   6.982 -0.3441 -0.9480 -0.6418
  534MOL0    Cl72000   5.202   4.245   6.983 -0.2298  0.6450 -0.0480
  534MOL0     C72001   6.162   4.935   6.943  0.6001  0.8519 -1.1800
  534MOL0     C72002   6.304   4.919   6.954  0.2180 -0.3451  0.8598
  534MOL0     O72003   6.539   4.888   7.246  0.4580  0.6777  0.1362
  534MOL0     C72004   6.779   4.869   7.007 -0.3473 -0.1413  0.1400
  534MOL0     C72005   6.918   4.844   6.987  0.4021  0.1171  0.7252
  534MOL0     N72006   7.366   4.237   7.011  0.0080 -1.0037  0.7559
  534MOL0     N72007   7.417   4.121   7.004  0.1654  0.8052 -0.8157
  534MOL0     C72008   8.722   4.006   7.346 -0.0615  0.1053 -0.2484
  534MOL0     C72009   8.863   3.998   7.345 -0.4179  0.0169 -0.6003
  534MOL0     C72010   9.255   3.981   7.550 -0.9858  0.2961 -0.6490
  534MOL0     C72011   9.336   4.079   7.486  0.6230 -0.6542 -1.2284
  534MOL0     C72012   9.476   4.075   7.512  0.0763 -0.0132  0.3963
  534MOL0     C72013   9.534   3.967   7.587  1.2777 -0.0461  0.1613
  534MOL0     O72014   9.669   3.940   7.601  0.4400 -0.6662  0.5801
  534MOL0     C72015   9.755   4.052   7.582  0.5163  0.4293  1.3144
  534MOL0     C72016   9.896   4.010   7.620 -0.7006 -0.0858 -1.1911
  534MOL0     C72017   9.918   3.981   7.772 -0.6580 -0.1819  0.7681
  534MOL0     C72018   9.884   4.100   7.871 -0.0696 -0.5047 -0.8463
  534MOL0     C72019   9.908   4.061   8.016  0.0180 -0.3868 -0.6867
  534MOL0     C72020   9.933   4.029   8.128  0.8093  1.4412 -0.2210
  534MOL0     C72021   9.451   3.876   7.651  0.3279 -0.1802  0.3166
  534MOL0     C72022   9.311   3.885   7.640 -0.3059 -0.2026 -0.4522
  534MOL0     H72023   8.927   4.274   7.534 -2.4044  1.4349  1.9307
  534MOL0     H72024   8.687   4.322   7.468 -0.2210 -0.7845 -0.4804
  534MOL0     H72025   8.492   4.056   7.194 -1.0181  2.5445 -1.2850
  534MOL0     H72026   8.414   4.000   7.346  2.3509 -0.5547  0.7755
  534MOL0     H72027   8.288   4.239   7.310  1.1015  1.5867 -1.0597
  534MOL0     H72028   8.359   4.221   7.146  0.9097  1.2913 -0.2244
  534MOL0     H72029   8.251   3.982   7.146  2.3129  0.3525  0.6641
  534MOL0     H72030   8.168   4.018   7.295  0.7176  3.0086  1.2422
  534MOL0     H72031   8.090   4.235   7.163 -0.3659 -0.2794 -0.5169
  534MOL0     H72032   8.135   4.143   7.031  0.5037 -0.3589  0.5399
  534MOL0     H72033   7.996   3.942   7.107  0.9089  0.8151 -1.2232
  534MOL0     H72034   7.941   4.045   7.245  1.0234  0.3432  1.2494
  534MOL0     H72035   7.834   4.196   7.089  2.9159  0.5126  0.1081
  534MOL0     H72036   7.906   4.114   6.950  1.0336  3.3391  0.9360
  534MOL0     H72037   7.773   3.897   7.027  0.4046  0.2103 -3.6367
  534MOL0     H72038   7.701   3.993   7.155 -0.9321  1.0149 -0.3936
  534MOL0     H72039   7.583   3.945   6.916  1.3292 -0.5658 -0.0237
  534MOL0     H72040   7.706   4.058   6.855 -0.7090  0.5917 -0.0726
  534MOL0     H72041   7.680   4.317   6.954  1.9545 -2.9059 -1.4532
  534MOL0     H72042   7.474   4.514   7.090  0.1356  1.7648  0.2860
  534MOL0     H72043   7.540   4.511   6.916 -2.4066 -0.0620 -2.0720
  534MOL0     H72044   7.246   4.494   7.010  2.2373 -1.0447  2.5411
  534MOL0     H72045   7.318   4.506   6.839 -0.2263  0.4872 -0.1912
  534MOL0     H72046   7.392   4.740   6.874 -1.9936  0.1604 -0.8105
  534MOL0     H72047   7.360   4.718   7.050 -2.1120  1.3823  0.0040
  534MOL0     H72048   7.144   4.723   6.858 -1.2352  1.9793  0.0221
  534MOL0     H72049   7.228   4.868   6.928 -1.7072  0.6472  1.3671
  534MOL0     H72050   6.986   4.656   7.265  0.5115  2.9099  1.4695
  534MOL0     H72051   6.682   4.756   7.382 -0.4180  2.2471 -2.6185
  534MOL0     H72052   6.670   4.591   7.313  0.1797  0.4036 -0.9694
  534MOL0     H72053   6.812   4.647   7.406 -0.8149 -0.7528  0.5620
  534MOL0     H72054   6.319   4.688   7.211  1.5700  0.8644  1.0949
  534MOL0     H72055   6.075   4.721   7.200  3.4555 -2.9315 -0.3011
  534MOL0     H72056   5.774   4.924   6.939  0.7346 -0.4420 -1.6395
  534MOL0     H72057   5.908   5.015   6.879 -3.0668  0.8773 -1.1944
  534MOL0     H72058   5.845   4.826   6.731 -2.8101  0.2436  1.2721
  534MOL0     H72059   6.002   4.796   6.793  0.4295 -1.7308 -0.5592
  534MOL0     H72060   5.884   4.631   6.966  0.3650 -0.7909 -0.7552
  534MOL0     H72061   5.842   4.607   6.795  0.4941  0.4196  0.3283
  534MOL0     H72062   5.669   4.752   6.990 -0.4486  1.7840 -1.1054
  534MOL0     H72063   5.640   4.737   6.821  2.1438  1.9776  0.3675
  534MOL0     H72064   5.708   4.482   6.982  0.3734  0.3717  0.0596
  534MOL0     H72065   5.660   4.498   6.818 -1.4352 -0.6921  0.8880
  534MOL0     H72066   5.495   4.577   7.065  5.4517 -2.5258  1.2691
  534MOL0     H72067   5.441   4.586   6.891 -5.3583 -2.5550  0.9289
  534MOL0     H72068   5.485   4.326   7.063  0.9831 -2.8900 -2.1620
  534MOL0     H72069   5.488   4.329   6.890 -1.9026  1.1053 -2.2800
  534MOL0     H72070   5.269   4.447   6.888 -1.2871 -2.1365 -0.9770
  534MOL0     H72071   5.279   4.466   7.067  1.2649  1.8328 -2.3048
  534MOL0     H72072   6.122   5.014   6.880  0.0480  2.4777  1.0736
  534MOL0     H72073   6.374   4.965   6.885 -1.4739 -2.3211 -2.4277
  534MOL0     H72074   6.726   4.926   6.932 -0.4594  0.0099  0.3317
  534MOL0     H72075   6.964   4.904   6.909  0.3559  2.6323  2.5231
  534MOL0     H72076   8.671   3.921   7.302  1.3421  0.4038 -2.6019
  534MOL0     H72077   8.909   3.908   7.308 -1.7584  0.0314 -2.4463
  534MOL0     H72078   9.296   4.158   7.423  2.3616  1.0439 -0.2944
  534MOL0     H72079   9.544   4.152   7.477 -1.1280  0.0745 -1.9321
  534MOL0     H72080   9.762   4.071   7.474  1.9188 -0.9716  1.1229
  534MOL0     H72081   9.727   4.143   7.637 -2.6662  0.8700 -0.7795
  534MOL0     H72082   9.976   4.080   7.593  2.5627 -2.1127  2.3887
  534MOL0     H72083   9.918   3.916   7.569 -1.6177 -0.0400 -1.7003
  534MOL0     H72084  10.025   3.967   7.788 -0.8058 -1.6793  0.5950
  534MOL0     H72085   9.867   3.888   7.800  1.7611 -1.9508 -0.3239
  534MOL0     H72086   9.779   4.127   7.863  0.1652  0.8265  0.1345
  534MOL0     H72087   9.943   4.188   7.843 -1.6088  0.1692 -2.0811
  534MOL0     H72088   9.939   3.988   8.227 -0.0735  2.4770  0.2839
  534MOL0     H72089   9.496   3.803   7.717  2.1372 -0.4691 -1.1385
  534MOL0     H72090   9.248   3.814   7.692  0.0703 -1.3327 -1.5008
  535MOL0     O72091   3.480  10.543   6.798 -0.5338  0.2188  0.2494
  535MOL0     C72092   3.547  10.629   6.745 -0.5318  0.5341 -0.5561
  535MOL0     O72093   3.493  10.716   6.651  0.0034  0.8539  0.1757
  535MOL0     C72094   3.357  10.722   6.614  0.0671  0.6389 -0.2597
  535MOL0     C72095   3.260  10.614   6.625 -0.2084 -0.7804 -0.2095
  535MOL0     C72096   3.130  10.631   6.575 -0.4721 -0.0473  0.3829
  535MOL0     C72097   3.093  10.757   6.516  0.7682  0.1820  0.6259
  535MOL0     O72098   2.962  10.769   6.469 -0.0678 -0.0425 -0.3880
  535MOL0     C72099   2.862  10.751   6.574  0.0498  0.1766  0.1489
  535MOL0     C72100   2.865  10.864   6.677  0.3563 -0.3966 -0.2894
  535MOL0     C72101   2.787  10.986   6.626  0.0482 -0.0360  0.5984
  535MOL0     C72102   2.775  11.092   6.733 -0.3116  0.2093 -0.3333
  535MOL0     C72103   2.660  11.190   6.686 -0.2372 -0.7126 -0.8568
  535MOL0     C72104   2.609  11.278   6.806  0.4280 -0.0836  0.4181
  535MOL0     C72105   2.478  11.354   6.767 -0.1194 -0.5957 -0.6286
  535MOL0     C72106   2.424  11.423   6.892 -0.1069 -0.1003 -0.1997
  535MOL0     N72107   2.295  11.500   6.863  0.3520 -0.3850  0.0231
  535MOL0     C72108   2.268  11.583   6.761 -0.1893 -0.7181  0.0390
  535MOL0     C72109   2.129  11.586   6.751 -0.8347  0.5836  0.7486
  535MOL0     C72110   2.044  11.657   6.647  0.0093  0.0260  0.1715
  535MOL0     C72111   1.895  11.632   6.664  0.7232  0.7696 -0.7656
  535MOL0     C72112   1.819  11.716   6.776  0.3798 -0.9282  0.1614
  535MOL0     C72113   1.666  11.711   6.770  0.0607  0.3131  0.0036
  535MOL0     O72114   1.623  11.793   6.655 -0.2951  0.4069  0.2968
  535MOL0     C72115   1.489  11.796   6.612  0.3366 -0.5071 -0.2238
  535MOL0     C72116   1.446  11.872   6.500  0.5631 -0.2583 -0.5023
  535MOL0     C72117   1.311  11.879   6.471  0.2394 -0.2777 -0.5124
  535MOL0     C72118   1.274  11.963   6.354  1.2480 -0.9631 -0.0606
  535MOL0     C72119   1.213  11.803   6.536 -0.6279  0.0670 -0.0308
  535MOL0     C72120   1.070  11.812   6.501 -0.4617 -0.5421 -0.0052
  535MOL0     O72121   1.017  11.698   6.452  0.1237 -0.4263 -0.3655
  535MOL0     C72122   0.906  11.717   6.383 -0.4307 -0.1340 -0.5074
  535MOL0     C72123   0.902  11.702   6.240  0.0693  0.6557 -0.3480
  535MOL0     C72124   0.777  11.713   6.173  0.1173 -0.5246  0.2547
  535MOL0     C72125   0.657  11.735   6.236 -0.5603 -0.2742 -0.3055
  535MOL0     O72126   0.553  11.749   6.150  0.3525 -0.7618 -0.0026
  535MOL0     C72127   0.434  11.776   6.223  0.3104 -0.0946  0.6069
  535MOL0     C72128   0.302  11.765   6.141  0.7507  0.0675 -0.9269
  535MOL0     C72129   0.179  11.717   6.231  0.5284  0.4258 -0.1221
  535MOL0     C72130   0.061  11.689   6.134 -1.0016 -0.2634 -0.1429
  535MOL0     C72131  -0.057  11.636   6.215 -0.2577  0.5620  0.1016
  535MOL0     C72132  -0.160  11.744   6.266 -0.5924  0.4618  0.1022
  535MOL0     C72133  -0.282  11.665   6.319 -0.4525 -0.7129  0.2757
  535MOL0     C72134  -0.388  11.626   6.209  0.0333  0.7357  0.5901
  535MOL0    Cl72135  -0.548  11.597   6.283  0.1458  0.3171  0.1226
  535MOL0     C72136   0.669  11.744   6.374  0.1568 -1.1430 -0.2342
  535MOL0     C72137   0.790  11.728   6.455  0.4039 -0.4623  0.1514
  535MOL0     O72138   1.014  11.917   6.523 -0.2103  0.0660 -0.0818
  535MOL0     C72139   1.257  11.714   6.641  0.6863  0.1420 -0.5054
  535MOL0     C72140   1.390  11.728   6.683 -0.3208 -0.3576  0.4706
  535MOL0     N72141   2.078  11.511   6.859 -0.3596  0.2671 -0.2673
  535MOL0     N72142   2.181  11.451   6.916  0.7718  0.4130 -0.3032
  535MOL0     C72143   3.187  10.854   6.504  0.4504  0.7718  0.2444
  535MOL0     C72144   3.319  10.841   6.553  0.6784 -0.4262 -0.6298
  535MOL0     C72145   3.689  10.632   6.785 -0.6563 -0.5890 -0.2755
  535MOL0     C72146   3.775  10.720   6.717  0.2538 -0.4775 -0.8478
  535MOL0     C72147   3.910  10.704   6.734 -0.0322  0.1782  1.0069
  535MOL0     C72148   3.968  10.603   6.813  0.1062  0.2865  0.1221
  535MOL0     O72149   4.102  10.585   6.844 -0.0208 -0.8783 -0.2841
  535MOL0     C72150   4.202  10.650   6.763  0.0448 -0.1911 -0.3356
  535MOL0     C72151   4.272  10.757   6.849  0.5680  0.8186  0.6291
  535MOL0     C72152   4.204  10.895   6.853 -0.1955  0.0427  0.5318
  535MOL0     C72153   4.228  10.980   6.727  0.4719  0.3008  0.5893
  535MOL0     C72154   4.367  11.010   6.717  0.3112  0.4841 -0.3564
  535MOL0     C72155   4.484  11.044   6.714 -1.6139 -0.8223  0.4946
  535MOL0     C72156   3.885  10.518   6.881 -0.0588 -0.3563  0.1562
  535MOL0     C72157   3.747  10.533   6.859 -0.6267  0.0588 -0.2756
  535MOL0     H72158   3.269  10.513   6.665  0.9104 -1.1640 -1.3597
  535MOL0     H72159   3.060  10.547   6.573 -2.7739  1.6864 -3.0492
  535MOL0     H72160   2.765  10.751   6.524  0.1523  1.3918 -0.0793
  535MOL0     H72161   2.861  10.653   6.622  1.3172  1.1916  2.4006
  535MOL0     H72162   2.814  10.832   6.768  0.6936  0.0617  0.0681
  535MOL0     H72163   2.968  10.895   6.699  0.1793  0.2671 -0.3788
  535MOL0     H72164   2.842  11.039   6.547  2.4275  0.5976  2.5594
  535MOL0     H72165   2.688  10.954   6.593 -0.1359 -0.7121  1.7695
  535MOL0     H72166   2.743  11.039   6.823 -0.2657 -0.7668 -0.8785
  535MOL0     H72167   2.871  11.141   6.748 -0.2553  0.0617 -0.2135
  535MOL0     H72168   2.701  11.243   6.600  0.0505 -0.0163 -0.3005
  535MOL0     H72169   2.576  11.135   6.643  0.9705 -4.2216  0.9107
  535MOL0     H72170   2.576  11.221   6.893  1.7954  1.2065  1.8319
  535MOL0     H72171   2.687  11.350   6.831 -1.0426  1.0457  1.9648
  535MOL0     H72172   2.506  11.430   6.694 -1.8384  0.6687 -0.0196
  535MOL0     H72173   2.402  11.288   6.725 -3.5851  0.9897  2.6395
  535MOL0     H72174   2.498  11.488   6.939 -0.5947 -0.7463  1.5133
  535MOL0     H72175   2.403  11.346   6.967  0.4687  1.9566  2.2087
  535MOL0     H72176   2.347  11.626   6.700  0.7932 -2.3241  0.1269
  535MOL0     H72177   2.060  11.765   6.655 -0.0910 -0.0857  2.5599
  535MOL0     H72178   2.074  11.627   6.546  1.5330  1.7204  0.0595
  535MOL0     H72179   1.878  11.525   6.673  0.5526  0.9024  0.8363
  535MOL0     H72180   1.855  11.658   6.566  3.1748  0.3204 -1.9723
  535MOL0     H72181   1.831  11.821   6.751 -3.3621 -0.3722  0.1346
  535MOL0     H72182   1.859  11.704   6.878  1.4503 -0.5067 -0.1887
  535MOL0     H72183   1.626  11.746   6.866 -1.0373  2.0422 -1.0317
  535MOL0     H72184   1.630  11.609   6.752  0.2364  0.0937  0.8523
  535MOL0     H72185   1.518  11.939   6.454  0.5473  0.1702  0.0873
  535MOL0     H72186   1.259  11.901   6.265  0.0976  1.0439 -1.3408
  535MOL0     H72187   1.186  12.025   6.375  1.9506  0.2942 -0.6865
  535MOL0     H72188   1.347  12.043   6.340 -0.6752  1.3522  2.1264
  535MOL0     H72189   0.994  11.677   6.188  0.8324  0.4456  1.0786
  535MOL0     H72190   0.778  11.715   6.065  0.5289  0.8530  0.2763
  535MOL0     H72191   0.421  11.694   6.295 -2.2760 -0.6820 -0.4495
  535MOL0     H72192   0.439  11.871   6.277 -1.1056 -0.2508  1.0453
  535MOL0     H72193   0.268  11.848   6.079 -0.0702 -1.5742 -2.8129
  535MOL0     H72194   0.322  11.678   6.077  0.7106 -1.0922  0.5564
  535MOL0     H72195   0.148  11.788   6.308  1.0319 -1.2194  1.6776
  535MOL0     H72196   0.203  11.622   6.279 -0.0588  0.6213  0.5874
  535MOL0     H72197   0.041  11.782   6.080 -0.7520 -0.0212  0.1758
  535MOL0     H72198   0.096  11.611   6.067 -0.0515  0.0241  0.0066
  535MOL0     H72199  -0.023  11.579   6.301 -0.8522  0.2861  0.1567
  535MOL0     H72200  -0.123  11.569   6.158 -2.1733  0.4284  2.3100
  535MOL0     H72201  -0.117  11.800   6.349  0.6689  0.3317 -0.4454
  535MOL0     H72202  -0.183  11.807   6.180  1.9290 -0.9598 -1.7492
  535MOL0     H72203  -0.322  11.736   6.391  2.8578  3.6128 -1.6756
  535MOL0     H72204  -0.243  11.576   6.371  1.6267  0.2965  0.5463
  535MOL0     H72205  -0.358  11.537   6.154 -0.6512  1.4930 -1.0952
  535MOL0     H72206  -0.396  11.707   6.135  0.3512 -0.9454 -1.3971
  535MOL0     H72207   0.589  11.776   6.440  1.0432 -1.7072  1.1487
  535MOL0     H72208   0.784  11.723   6.563 -2.9523  1.7442  0.2142
  535MOL0     H72209   1.179  11.677   6.707  1.1656  2.8978  1.8519
  535MOL0     H72210   1.422  11.676   6.773  1.6120 -1.8143 -0.9725
  535MOL0     H72211   3.165  10.950   6.458 -2.4669 -0.4553 -1.1827
  535MOL0     H72212   3.382  10.927   6.535 -0.8215  0.1550 -3.6318
  535MOL0     H72213   3.736  10.804   6.661  0.9200  0.2593 -0.2194
  535MOL0     H72214   3.963  10.777   6.674 -1.0096  0.6852  0.7348
  535MOL0     H72215   4.279  10.576   6.738  1.5722  1.8524 -2.0197
  535MOL0     H72216   4.168  10.692   6.669 -2.0549 -1.2166 -0.1092
  535MOL0     H72217   4.367  10.767   6.797 -1.1096 -0.6032 -3.0871
  535MOL0     H72218   4.293  10.715   6.948 -1.3316 -0.4861  0.5481
  535MOL0     H72219   4.265  10.937   6.934 -0.9790  1.3658  0.4598
  535MOL0     H72220   4.100  10.896   6.889  0.2642 -1.4424  2.0358
  535MOL0     H72221   4.179  11.076   6.745 -0.0841  0.1113  0.1334
  535MOL0     H72222   4.188  10.934   6.636  0.7805  1.2612 -0.0544
  535MOL0     H72223   4.587  11.071   6.709 -1.9177  0.2304 -0.5828
  535MOL0     H72224   3.916  10.431   6.937 -1.2255 -0.8761  0.0399
  535MOL0     H72225   3.686  10.460   6.911 -3.0104  4.1061  3.1895
  536MOL0     O72226   6.134   7.480   9.910 -0.5400  0.0113 -0.5769
  536MOL0     C72227   6.116   7.601   9.916  0.2860 -0.4342 -0.3185
  536MOL0     O72228   5.997   7.669   9.902 -0.3150  0.0425  0.8558
  536MOL0     C72229   5.879   7.607   9.869  0.0999  0.5698  0.0894
  536MOL0     C72230   5.785   7.683   9.803  0.1213 -0.0474 -0.4642
  536MOL0     C72231   5.671   7.621   9.764  0.3890  0.1313  0.3708
  536MOL0     C72232   5.630   7.494   9.813 -0.3749 -0.4842 -0.9985
  536MOL0     O72233   5.510   7.434   9.784 -0.5183  0.1804  0.2343
  536MOL0     C72234   5.402   7.510   9.732 -0.3805 -0.6299  0.4165
  536MOL0     C72235   5.344   7.600   9.844  0.1303  0.4447  0.7422
  536MOL0     C72236   5.219   7.681   9.798 -0.3035 -0.2534 -0.2656
  536MOL0     C72237   5.098   7.593   9.817 -0.2079 -0.2034  0.7584
  536MOL0     C72238   4.975   7.676   9.792  0.9886  0.3677 -0.0127
  536MOL0     C72239   4.851   7.593   9.829 -0.4169  0.2407 -0.7153
  536MOL0     C72240   4.713   7.668   9.803 -1.1661  0.2744  0.7828
  536MOL0     C72241   4.605   7.566   9.851  0.8265 -0.0986  0.1695
  536MOL0     N72242   4.472   7.613   9.812 -0.5418 -0.7030  0.0230
  536MOL0     C72243   4.428   7.626   9.680  0.6936  0.1244  0.1155
  536MOL0     C72244   4.308   7.670   9.687  0.2428  0.1952  0.6170
  536MOL0     C72245   4.213   7.707   9.577 -0.7197  0.2097  0.7096
  536MOL0     C72246   4.095   7.604   9.578  1.1688  0.0081  0.3750
  536MOL0     C72247   4.030   7.599   9.437 -0.8735  0.1634 -0.3547
  536MOL0     C72248   3.919   7.501   9.435  0.4581  0.3209  0.2423
  536MOL0     O72249   3.830   7.515   9.323  0.7243  0.0843 -0.4126
  536MOL0     C72250   3.708   7.453   9.319  0.3272 -0.3958 -0.2341
  536MOL0     C72251   3.670   7.422   9.188  1.0293 -0.3007  0.5138
  536MOL0     C72252   3.553   7.361   9.163 -0.4246  0.6784 -0.1306
  536MOL0     C72253   3.516   7.348   9.020 -1.4639  0.4310  0.5644
  536MOL0     C72254   3.461   7.329   9.263  0.4255 -0.1505  0.4025
  536MOL0     C72255   3.323   7.266   9.257  0.1782  0.4564  0.3456
  536MOL0     O72256   3.253   7.263   9.372  0.4581 -0.0573 -0.2451
  536MOL0     C72257   3.127   7.209   9.362  0.5974 -0.9068  0.7301
  536MOL0     C72258   3.106   7.093   9.417  0.0817  0.9065 -0.2545
  536MOL0     C72259   2.987   7.022   9.411 -0.5538 -0.6718  0.5422
  536MOL0     C72260   2.878   7.068   9.333 -0.4857  0.1734  0.1963
  536MOL0     O72261   2.765   6.985   9.339  0.1407 -0.6777  0.3133
  536MOL0     C72262   2.648   7.033   9.289  1.0423  0.4041  0.5355
  536MOL0     C72263   2.534   6.937   9.312 -0.0011  0.2056 -0.2079
  536MOL0     C72264   2.400   6.998   9.255 -0.8075  0.8275 -0.4728
  536MOL0     C72265   2.286   6.905   9.292  0.1557 -0.4363 -0.1130
  536MOL0     C72266   2.154   6.966   9.220  0.1963  0.2951  0.1462
  536MOL0     C72267   2.025   6.883   9.258  0.9530 -0.6006  0.4395
  536MOL0     C72268   1.896   6.965   9.231 -0.5249  0.1598  0.4192
  536MOL0     C72269   1.765   6.878   9.219  0.0637  0.2811  0.8563
  536MOL0    Cl72270   1.636   6.972   9.126  0.5992  0.2194  0.4035
  536MOL0     C72271   2.893   7.194   9.276 -0.8737 -0.3751 -1.1795
  536MOL0     C72272   3.013   7.270   9.291  0.6355  0.0302 -0.0330
  536MOL0     O72273   3.303   7.197   9.158 -0.0860  0.6449 -0.1491
  536MOL0     C72274   3.503   7.354   9.395 -0.0337  0.2350  0.2211
  536MOL0     C72275   3.627   7.407   9.422 -0.4072 -0.3616  0.2953
  536MOL0     N72276   4.270   7.669   9.822 -0.1586 -0.1275  0.2129
  536MOL0     N72277   4.366   7.622   9.896  0.6780 -0.4037  0.0359
  536MOL0     C72278   5.725   7.413   9.877 -0.1020  0.2943  0.0021
  536MOL0     C72279   5.847   7.468   9.897  0.0239 -0.4172 -0.3749
  536MOL0     C72280   6.234   7.688   9.926 -0.0643 -0.2851  0.4439
  536MOL0     C72281   6.221   7.823   9.888 -0.5230 -0.1321 -0.0438
  536MOL0     C72282   6.330   7.910   9.905 -1.1466 -0.8560  0.1270
  536MOL0     C72283   6.458   7.861   9.935  0.2406 -1.5039 -0.8809
  536MOL0     O72284   6.564   7.945   9.916 -0.4624 -0.6626  0.3815
  536MOL0     C72285   6.701   7.907   9.892 -0.5711 -0.0060 -0.2071
  536MOL0     C72286   6.718   7.858   9.745 -0.2118  0.0430 -0.0254
  536MOL0     C72287   6.670   7.946   9.622  0.7687 -0.2720  0.6588
  536MOL0     C72288   6.732   8.088   9.618 -0.1251  0.4525 -0.0230
  536MOL0     C72289   6.880   8.088   9.579  0.6050 -0.6155 -0.9297
  536MOL0     C72290   7.000   8.104   9.549  0.7326  0.1980 -0.1047
  536MOL0     C72291   6.466   7.727   9.980  0.2647  0.5476 -0.2737
  536MOL0     C72292   6.357   7.640   9.980 -0.7666 -0.0118  0.1497
  536MOL0     H72293   5.812   7.784   9.775 -0.9917  0.5390  0.4734
  536MOL0     H72294   5.611   7.681   9.696  0.8977  0.7991  0.5055
  536MOL0     H72295   5.438   7.565   9.645  2.8114  0.0174  2.0124
  536MOL0     H72296   5.325   7.437   9.703  0.1576 -1.3160  0.6942
  536MOL0     H72297   5.318   7.540   9.932 -0.9499  3.0272  2.2951
  536MOL0     H72298   5.418   7.672   9.880  0.9890  0.2731 -0.6261
  536MOL0     H72299   5.211   7.769   9.861 -2.9457 -0.8641  0.3871
  536MOL0     H72300   5.220   7.707   9.691  0.0999 -0.9316 -0.4335
  536MOL0     H72301   5.104   7.515   9.741 -0.0765  1.6897 -1.2795
  536MOL0     H72302   5.099   7.561   9.921 -0.5640  0.8171  1.0818
  536MOL0     H72303   4.971   7.763   9.858 -1.2146  2.0381 -2.1463
  536MOL0     H72304   4.962   7.710   9.689 -0.4035 -0.2184 -0.0400
  536MOL0     H72305   4.859   7.501   9.770 -2.8387  1.2390 -2.7855
  536MOL0     H72306   4.858   7.553   9.931  2.7716  1.3040 -0.4047
  536MOL0     H72307   4.697   7.765   9.851 -2.0661  0.2451  0.5624
  536MOL0     H72308   4.712   7.685   9.695 -1.4112 -2.4946  0.2759
  536MOL0     H72309   4.608   7.549   9.959  1.2713 -3.3130 -0.2363
  536MOL0     H72310   4.618   7.471   9.797 -1.4660  0.7350 -2.0644
  536MOL0     H72311   4.487   7.605   9.592 -1.0532  1.0811 -1.3445
  536MOL0     H72312   4.184   7.812   9.587  2.5786  1.3382 -0.4494
  536MOL0     H72313   4.252   7.697   9.476 -1.6799 -0.8071  0.4094
  536MOL0     H72314   4.014   7.627   9.648  1.9642 -0.9350  1.6557
  536MOL0     H72315   4.119   7.502   9.609 -0.8697 -0.9617 -0.9970
  536MOL0     H72316   4.104   7.573   9.361 -1.0728  1.0520 -0.8646
  536MOL0     H72317   3.992   7.698   9.411 -0.7431  1.2805  3.1656
  536MOL0     H72318   3.862   7.507   9.529 -0.3415  0.1154 -0.2204
  536MOL0     H72319   3.965   7.402   9.423 -0.1486  0.2120 -1.3894
  536MOL0     H72320   3.740   7.454   9.111 -1.0629  3.8826  0.0508
  536MOL0     H72321   3.409   7.359   8.999 -1.2944  0.5385 -0.3173
  536MOL0     H72322   3.562   7.429   8.963  0.0436 -1.3054 -0.8265
  536MOL0     H72323   3.539   7.246   8.988  3.5690  0.8751  1.9775
  536MOL0     H72324   3.189   7.047   9.471 -0.8509  1.4888  1.7692
  536MOL0     H72325   2.980   6.929   9.466 -1.2349  0.5254  2.5624
  536MOL0     H72326   2.615   7.127   9.334 -1.1915  0.4898 -1.0979
  536MOL0     H72327   2.666   7.060   9.185  0.7273  0.2029  0.4261
  536MOL0     H72328   2.554   6.842   9.262  0.3918  0.6988 -1.0103
  536MOL0     H72329   2.528   6.913   9.419 -0.2614 -2.6431 -0.7782
  536MOL0     H72330   2.416   7.007   9.147 -3.0131 -1.5398 -1.1051
  536MOL0     H72331   2.379   7.097   9.297 -3.5130  0.4819 -0.8113
  536MOL0     H72332   2.301   6.805   9.251 -1.3642 -0.8837  0.3426
  536MOL0     H72333   2.262   6.889   9.398 -1.1391  0.1691 -0.2883
  536MOL0     H72334   2.162   6.969   9.111 -1.8460 -1.9664 -0.1467
  536MOL0     H72335   2.138   7.071   9.247 -3.5688  1.3127 -4.6553
  536MOL0     H72336   2.025   6.803   9.184  0.2430  0.7643 -1.0907
  536MOL0     H72337   2.022   6.834   9.356  1.1487  1.1839  1.3789
  536MOL0     H72338   1.907   6.999   9.127 -0.1070 -0.9982  0.0739
  536MOL0     H72339   1.877   7.043   9.305  2.9321  0.7351  0.8519
  536MOL0     H72340   1.735   6.847   9.320  0.9877 -1.2999  0.6692
  536MOL0     H72341   1.784   6.785   9.166 -0.5395  0.9645 -0.6223
  536MOL0     H72342   2.806   7.241   9.231 -2.0433 -1.1581  0.1969
  536MOL0     H72343   3.035   7.361   9.237  0.8397  0.9282  1.5030
  536MOL0     H72344   3.440   7.334   9.481 -1.1430  4.7974  0.7605
  536MOL0     H72345   3.667   7.425   9.521 -1.5946  1.6793  0.4611
  536MOL0     H72346   5.704   7.308   9.894 -1.6016  0.3914 -1.0461
  536MOL0     H72347   5.912   7.416   9.967 -2.4232  0.1310  2.4438
  536MOL0     H72348   6.130   7.873   9.857  0.2038  2.5018  1.7309
  536MOL0     H72349   6.323   8.016   9.886 -0.2051 -0.7907  0.0765
  536MOL0     H72350   6.773   7.982   9.924 -1.3388  0.3530  0.7052
  536MOL0     H72351   6.728   7.816   9.945 -0.5904 -0.4459 -0.9350
  536MOL0     H72352   6.666   7.764   9.721  1.3369 -0.9050  0.1619
  536MOL0     H72353   6.825   7.839   9.740 -0.1756  0.2144  0.1062
  536MOL0     H72354   6.562   7.960   9.629  0.2863 -1.5244 -2.6747
  536MOL0     H72355   6.684   7.892   9.528 -0.4749 -1.7566  1.2876
  536MOL0     H72356   6.707   8.134   9.713  2.4404  0.4093  0.7697
  536MOL0     H72357   6.682   8.151   9.544 -1.1762  0.6163  0.8185
  536MOL0     H72358   7.102   8.093   9.519 -0.0455 -2.9967 -2.1173
  536MOL0     H72359   6.563   7.687  10.008 -0.6713 -1.5310  0.1512
  536MOL0     H72360   6.367   7.538  10.014  1.7218  0.4991  1.1797
  537MOL0     O72361   2.964   4.706   3.533  0.3485 -0.4613  0.8382
  537MOL0     C72362   2.968   4.764   3.426  0.3774 -0.7868 -0.8125
  537MOL0     O72363   2.869   4.757   3.338  0.4056  0.2675  0.1982
  537MOL0     C72364   2.766   4.662   3.351 -0.7748  0.5946 -1.1268
  537MOL0     C72365   2.800   4.528   3.358 -0.3096 -0.1247 -0.0538
  537MOL0     C72366   2.698   4.432   3.377  0.4434  0.8218 -0.3814
  537MOL0     C72367   2.561   4.473   3.369 -0.4523 -0.7919 -0.0173
  537MOL0     O72368   2.462   4.386   3.353 -0.3567  0.1409  0.0787
  537MOL0     C72369   2.417   4.319   3.471 -0.4111  0.4924 -0.0747
  537MOL0     C72370   2.331   4.393   3.557  0.8424  0.0819 -0.5635
  537MOL0     C72371   2.188   4.397   3.499 -0.0190 -1.1461  0.6663
  537MOL0     C72372   2.118   4.515   3.581 -0.4601  0.0913 -0.6617
  537MOL0     C72373   1.969   4.519   3.586 -0.5421  0.0053 -0.3750
  537MOL0     C72374   1.909   4.389   3.628 -0.3457 -0.3035 -0.0958
  537MOL0     C72375   1.756   4.388   3.636  0.5994  0.1575 -0.1292
  537MOL0     C72376   1.700   4.270   3.711 -0.0425 -0.2919  0.5171
  537MOL0     N72377   1.560   4.297   3.744 -0.4497 -0.6820 -0.1689
  537MOL0     C72378   1.459   4.292   3.658  0.2864  0.5724  0.6929
  537MOL0     C72379   1.343   4.327   3.723  0.2492 -0.3201 -0.4550
  537MOL0     C72380   1.207   4.347   3.658 -0.1596  1.0198 -0.3753
  537MOL0     C72381   1.105   4.411   3.757 -0.5126 -0.7548 -0.0037
  537MOL0     C72382   1.046   4.306   3.847  0.6581  0.7479 -0.4306
  537MOL0     C72383   0.899   4.260   3.804 -0.1026 -0.2735 -0.0410
  537MOL0     O72384   0.907   4.171   3.688 -0.4579 -0.6644 -0.1673
  537MOL0     C72385   0.790   4.119   3.642 -0.0933 -0.6725  0.5878
  537MOL0     C72386   0.796   4.030   3.530 -0.1224 -0.1640 -0.2528
  537MOL0     C72387   0.690   3.981   3.457  0.1391  0.9062 -0.7115
  537MOL0     C72388   0.711   3.881   3.347 -0.3585  0.1429 -0.1314
  537MOL0     C72389   0.555   4.015   3.494 -0.1963 -0.3164 -0.1273
  537MOL0     C72390   0.435   3.943   3.451  0.1811  0.3235  0.0911
  537MOL0     O72391   0.337   3.934   3.544  0.1262 -0.0836  0.2678
  537MOL0     C72392   0.219   3.877   3.514 -0.8259  0.1687 -0.0230
  537MOL0     C72393   0.106   3.952   3.474 -0.0438 -0.4757  0.2904
  537MOL0     C72394  -0.011   3.893   3.420 -0.8598  0.2346  0.4039
  537MOL0     C72395  -0.025   3.756   3.429  0.0415  0.0817 -0.0520
  537MOL0     O72396  -0.144   3.696   3.392  0.4439 -0.2611  0.7265
  537MOL0     C72397  -0.174   3.560   3.432  0.1346 -0.7205  0.2988
  537MOL0     C72398  -0.328   3.553   3.404 -0.0352 -0.4214 -1.0499
  537MOL0     C72399  -0.364   3.409   3.387 -0.3906  0.1657 -0.2009
  537MOL0     C72400  -0.512   3.386   3.339 -0.3206 -0.5931 -0.7380
  537MOL0     C72401  -0.564   3.252   3.382  0.0364 -0.0563 -0.1672
  537MOL0     C72402  -0.712   3.244   3.346 -0.0219 -0.2693  0.0965
  537MOL0     C72403  -0.783   3.124   3.410 -0.7881 -0.2196 -0.3351
  537MOL0     C72404  -0.926   3.151   3.437  0.2363 -0.7560  0.1741
  537MOL0    Cl72405  -1.025   3.006   3.472  0.1210  0.2135  0.6169
  537MOL0     C72406   0.078   3.675   3.486 -0.6175  0.4776 -0.3204
  537MOL0     C72407   0.204   3.734   3.533  0.0413  0.7260  0.1802
  537MOL0     O72408   0.424   3.906   3.335  0.0198 -0.6167  0.7266
  537MOL0     C72409   0.547   4.120   3.592 -1.1065 -0.2321 -0.1674
  537MOL0     C72410   0.662   4.163   3.660 -0.1468 -0.6532 -0.4012
  537MOL0     N72411   1.380   4.334   3.857  0.1639 -0.0138 -0.2252
  537MOL0     N72412   1.506   4.315   3.868 -0.0060 -0.5765 -0.7189
  537MOL0     C72413   2.527   4.608   3.354 -0.6031  0.3440  1.0714
  537MOL0     C72414   2.629   4.696   3.347 -0.5509  0.1265  1.0866
  537MOL0     C72415   3.081   4.856   3.393 -0.4169 -0.4434 -0.0279
  537MOL0     C72416   3.095   4.911   3.268  0.3523 -0.6063 -0.3579
  537MOL0     C72417   3.206   4.995   3.242 -0.7396 -0.7401  0.4694
  537MOL0     C72418   3.305   5.016   3.335 -0.0177 -0.6296  0.0201
  537MOL0     O72419   3.414   5.098   3.311  0.5541  0.4829 -0.5542
  537MOL0     C72420   3.453   5.135   3.176  0.6921  0.3567 -0.7324
  537MOL0     C72421   3.579   5.226   3.188 -0.5953 -0.3196  0.5472
  537MOL0     C72422   3.539   5.359   3.254  0.0266  0.3924  0.1725
  537MOL0     C72423   3.656   5.428   3.317 -0.2070 -0.9882  0.3730
  537MOL0     C72424   3.772   5.454   3.227 -0.2468 -0.2393 -0.5957
  537MOL0     C72425   3.867   5.477   3.156  0.1628 -0.8239  0.0207
  537MOL0     C72426   3.301   4.952   3.462  0.0889 -0.6675  0.1283
  537MOL0     C72427   3.182   4.877   3.493  0.9031 -0.1477  0.3863
  537MOL0     H72428   2.905   4.500   3.354  0.0978  1.4501 -2.4332
  537MOL0     H72429   2.736   4.331   3.391 -0.3178  0.5990  0.1662
  537MOL0     H72430   2.370   4.224   3.445  1.2468 -0.7056  1.0830
  537MOL0     H72431   2.506   4.294   3.529  1.5973  4.3229 -1.1323
  537MOL0     H72432   2.330   4.346   3.656 -0.2260 -0.9403 -1.0394
  537MOL0     H72433   2.374   4.493   3.567  0.0499  0.2765  1.3617
  537MOL0     H72434   2.187   4.418   3.391  0.4418 -3.4122  0.1582
  537MOL0     H72435   2.136   4.302   3.516 -1.8296  0.0022  1.8358
  537MOL0     H72436   2.151   4.513   3.686  0.1336  2.4455 -0.7344
  537MOL0     H72437   2.146   4.618   3.555  3.6570 -0.5183  0.7312
  537MOL0     H72438   1.933   4.605   3.643 -0.9236 -1.0656  1.0431
  537MOL0     H72439   1.920   4.531   3.489 -0.8685 -2.5755 -0.6087
  537MOL0     H72440   1.939   4.313   3.556  0.0960  1.1055 -1.4446
  537MOL0     H72441   1.949   4.355   3.724 -0.6668 -0.0603  0.1263
  537MOL0     H72442   1.715   4.476   3.686  2.0534  0.4648  0.6014
  537MOL0     H72443   1.717   4.392   3.534  0.2089 -2.2360 -0.1425
  537MOL0     H72444   1.764   4.259   3.799 -0.5461  2.2887  1.2729
  537MOL0     H72445   1.712   4.178   3.652 -1.5299 -1.8483  2.4861
  537MOL0     H72446   1.464   4.270   3.552  0.4203  1.1031  0.5903
  537MOL0     H72447   1.210   4.406   3.566 -1.5202  2.3508  0.3752
  537MOL0     H72448   1.167   4.251   3.624  0.9192  0.5582 -0.3888
  537MOL0     H72449   1.025   4.468   3.708 -2.1132 -1.4455  1.6720
  537MOL0     H72450   1.166   4.481   3.813 -1.1205 -0.9648  0.9467
  537MOL0     H72451   1.037   4.359   3.943 -2.0799 -0.3155 -0.0052
  537MOL0     H72452   1.115   4.223   3.860  0.0145  0.3067  0.2499
  537MOL0     H72453   0.841   4.348   3.773  2.2544  0.9145 -1.3080
  537MOL0     H72454   0.851   4.205   3.886 -0.8496  0.6516  0.1691
  537MOL0     H72455   0.896   3.994   3.509 -0.6003 -1.2983 -0.6703
  537MOL0     H72456   0.663   3.786   3.372 -0.7361  0.9693  2.5098
  537MOL0     H72457   0.658   3.923   3.261 -2.5057 -1.1381  0.5002
  537MOL0     H72458   0.819   3.871   3.337 -0.1029  1.8459  0.5418
  537MOL0     H72459   0.121   4.059   3.468  0.5191 -0.6409 -3.1725
  537MOL0     H72460  -0.088   3.956   3.375 -2.7792 -1.9348  0.4612
  537MOL0     H72461  -0.119   3.487   3.371  3.2824  1.7979 -0.1037
  537MOL0     H72462  -0.153   3.546   3.539 -1.8868  1.7255  1.1227
  537MOL0     H72463  -0.369   3.605   3.491  1.3215 -0.7046 -0.2184
  537MOL0     H72464  -0.357   3.603   3.311 -1.0745 -0.9613 -1.0359
  537MOL0     H72465  -0.349   3.368   3.487  1.4436  0.5704 -0.2819
  537MOL0     H72466  -0.295   3.362   3.317  1.5045  3.0488 -0.4335
  537MOL0     H72467  -0.570   3.464   3.390  0.7936 -0.4003  0.3018
  537MOL0     H72468  -0.532   3.399   3.233 -4.2800 -0.8299 -0.1666
  537MOL0     H72469  -0.561   3.246   3.491 -0.0311 -1.6603 -0.2380
  537MOL0     H72470  -0.510   3.164   3.345 -2.2156 -1.2401 -0.8032
  537MOL0     H72471  -0.752   3.339   3.383  2.5914 -0.2448  3.3087
  537MOL0     H72472  -0.720   3.230   3.237  1.8291 -0.4260 -0.0411
  537MOL0     H72473  -0.741   3.104   3.510 -4.3243 -0.6139  1.2365
  537MOL0     H72474  -0.779   3.032   3.352 -0.7104 -1.2895  1.2888
  537MOL0     H72475  -0.976   3.201   3.353 -1.6614  1.3706  2.3909
  537MOL0     H72476  -0.940   3.219   3.522  0.3833 -0.0556 -0.3499
  537MOL0     H72477   0.081   3.567   3.500  0.6241  0.5666  0.2326
  537MOL0     H72478   0.290   3.676   3.562 -2.9344 -4.3390  0.0109
  537MOL0     H72479   0.449   4.162   3.614 -1.5827 -0.2597 -2.0362
  537MOL0     H72480   0.660   4.243   3.732  0.2404  0.9261 -2.0785
  537MOL0     H72481   2.429   4.654   3.347 -0.1364  1.1041 -1.0061
  537MOL0     H72482   2.616   4.802   3.327 -1.0709 -0.4407 -2.2889
  537MOL0     H72483   3.027   4.878   3.190 -0.6673  0.5368  0.0090
  537MOL0     H72484   3.212   5.053   3.151 -2.8130  0.5536  1.0725
  537MOL0     H72485   3.477   5.051   3.111  0.0461 -3.5087  3.4588
  537MOL0     H72486   3.375   5.208   3.153  0.9638  2.1698  3.2307
  537MOL0     H72487   3.608   5.237   3.084 -1.2296 -1.4891  0.2198
  537MOL0     H72488   3.660   5.182   3.248  0.2706  3.2973  2.2970
  537MOL0     H72489   3.470   5.348   3.339  1.4558 -0.5010  1.2551
  537MOL0     H72490   3.488   5.420   3.179 -1.5139 -0.2484  0.6462
  537MOL0     H72491   3.697   5.377   3.404  1.1646  2.2741  1.7898
  537MOL0     H72492   3.628   5.527   3.353  0.0033 -0.1826 -1.5579
  537MOL0     H72493   3.944   5.502   3.086  0.1572 -3.0974 -0.8686
  537MOL0     H72494   3.388   4.965   3.526  1.8644  0.3161 -2.3564
  537MOL0     H72495   3.174   4.819   3.584 -0.6390 -2.0133 -0.8438
  538MOL0     O72496   5.219   6.328   0.336 -0.4273 -0.2552 -0.0192
  538MOL0     C72497   5.299   6.276   0.257  0.2257  0.3215  0.1903
  538MOL0     O72498   5.318   6.141   0.231 -0.2225 -0.4741  0.8473
  538MOL0     C72499   5.224   6.050   0.283 -0.6809 -0.1446  0.7446
  538MOL0     C72500   5.265   5.943   0.372 -0.4328  0.7300  0.7289
  538MOL0     C72501   5.176   5.849   0.421  0.8942  0.0077 -0.0076
  538MOL0     C72502   5.044   5.859   0.385 -0.4574 -0.2427 -0.2344
  538MOL0     O72503   4.947   5.764   0.408 -0.6097  0.2193  0.0732
  538MOL0     C72504   4.945   5.687   0.535  0.2298 -0.6080  0.2626
  538MOL0     C72505   4.887   5.774   0.654  0.3189 -0.0151 -0.0644
  538MOL0     C72506   4.731   5.786   0.632  1.0779 -0.4005 -0.4170
  538MOL0     C72507   4.685   5.873   0.751 -0.1964 -1.3273 -0.4864
  538MOL0     C72508   4.529   5.863   0.763 -0.6144 -0.9707  0.7884
  538MOL0     C72509   4.485   5.868   0.918 -0.9188 -0.6561  0.7184
  538MOL0     C72510   4.332   5.858   0.924  0.1841 -1.0278 -0.1288
  538MOL0     C72511   4.255   5.989   0.930  0.5915 -0.2530 -0.0551
  538MOL0     N72512   4.109   5.968   0.941  0.5975  0.3242  0.5611
  538MOL0     C72513   4.013   5.980   0.847  0.0309  0.6129  1.1446
  538MOL0     C72514   3.898   5.957   0.913 -0.0651 -0.3989  0.2810
  538MOL0     C72515   3.766   5.971   0.841  0.0757 -0.4622  0.3944
  538MOL0     C72516   3.641   5.944   0.927 -0.2729  0.2194  0.6043
  538MOL0     C72517   3.529   5.885   0.827 -0.2753 -0.9834 -0.2555
  538MOL0     C72518   3.410   5.846   0.914 -0.1939  0.4023  0.0638
  538MOL0     O72519   3.442   5.721   0.986 -0.3316 -0.4016  0.5326
  538MOL0     C72520   3.350   5.631   1.025 -0.6462 -0.6080  0.4621
  538MOL0     C72521   3.391   5.504   1.080  0.1202 -0.5053 -0.7062
  538MOL0     C72522   3.301   5.414   1.123  0.1579  0.7041 -0.0807
  538MOL0     C72523   3.359   5.283   1.165  0.9965  0.4230 -0.3898
  538MOL0     C72524   3.161   5.433   1.109  0.3484  0.0921  0.2732
  538MOL0     C72525   3.068   5.319   1.135 -0.2384 -0.3610 -0.3477
  538MOL0     O72526   2.950   5.336   1.081 -0.6581  0.2787  0.6729
  538MOL0     C72527   2.840   5.254   1.111 -0.6920 -0.3759  0.2530
  538MOL0     C72528   2.720   5.320   1.099  0.0442  0.7315 -0.1491
  538MOL0     C72529   2.598   5.261   1.128  0.1733  0.8658 -0.1958
  538MOL0     C72530   2.591   5.127   1.167 -0.0786 -0.3373  0.3456
  538MOL0     O72531   2.483   5.046   1.171  0.1612  0.1441  0.0932
  538MOL0     C72532   2.368   5.092   1.108  0.3172 -1.1396 -0.1652
  538MOL0     C72533   2.269   4.977   1.097  0.9452  0.0178  0.5854
  538MOL0     C72534   2.147   5.018   1.017  0.9449  0.2663  0.1781
  538MOL0     C72535   2.062   4.887   0.998 -0.1287 -0.0733  0.1507
  538MOL0     C72536   1.998   4.846   1.133 -0.7576  0.0431 -0.6771
  538MOL0     C72537   1.978   4.698   1.145  0.7403 -0.3905  0.2314
  538MOL0     C72538   1.837   4.627   1.103  0.3091  0.4473  0.5032
  538MOL0     C72539   1.805   4.642   0.954  0.5188  0.3960 -0.1654
  538MOL0    Cl72540   1.634   4.595   0.922 -0.1226  0.0498 -0.1941
  538MOL0     C72541   2.715   5.058   1.177 -0.3299 -0.2817  0.1862
  538MOL0     C72542   2.839   5.121   1.141  0.6149  0.1802 -1.0837
  538MOL0     O72543   3.097   5.238   1.225 -0.9233  0.2027 -0.3459
  538MOL0     C72544   3.120   5.555   1.051 -0.2240 -0.0629  0.3067
  538MOL0     C72545   3.211   5.653   1.007 -0.0737 -0.3060 -0.1861
  538MOL0     N72546   3.927   5.932   1.045  0.2344  0.3307  0.0035
  538MOL0     N72547   4.049   5.934   1.063 -0.7324 -0.5614  0.3696
  538MOL0     C72548   5.003   5.959   0.299 -0.2145  0.5884  0.3178
  538MOL0     C72549   5.090   6.056   0.248 -0.9632  0.8158 -0.0237
  538MOL0     C72550   5.406   6.364   0.201  0.0633  0.3169  0.7703
  538MOL0     C72551   5.468   6.339   0.076  0.5111  0.7183  0.0060
  538MOL0     C72552   5.559   6.436   0.024 -0.5683  0.1842 -0.4566
  538MOL0     C72553   5.598   6.547   0.101 -0.4074  1.0453 -0.3397
  538MOL0     O72554   5.662   6.641   0.024 -0.3551 -0.4160  0.0183
  538MOL0     C72555   5.717   6.757   0.092 -0.0477  0.8893  0.0611
  538MOL0     C72556   5.747   6.856  -0.020  0.4393  0.1097 -0.4431
  538MOL0     C72557   5.795   6.996   0.026  0.3720  0.6670 -0.3585
  538MOL0     C72558   5.678   7.078   0.077  0.3561  0.0885  0.7274
  538MOL0     C72559   5.695   7.213   0.104 -0.6452 -0.5562 -0.3324
  538MOL0     C72560   5.725   7.329   0.130  1.0310  0.1465 -0.5645
  538MOL0     C72561   5.544   6.564   0.225 -0.5366 -0.3618  0.1975
  538MOL0     C72562   5.450   6.476   0.273 -0.4873  0.8483  0.4103
  538MOL0     H72563   5.361   5.929   0.421 -0.2391  0.7215  0.3444
  538MOL0     H72564   5.202   5.759   0.475 -0.4271 -1.5048 -1.7589
  538MOL0     H72565   4.866   5.612   0.523 -0.4799 -0.3883  2.8912
  538MOL0     H72566   5.045   5.648   0.555  0.5066  0.0220  0.1135
  538MOL0     H72567   4.919   5.724   0.746 -0.5452 -0.6128 -0.0799
  538MOL0     H72568   4.933   5.872   0.640 -4.6551  2.6924  0.4597
  538MOL0     H72569   4.708   5.829   0.533  0.9622  1.0637  0.2114
  538MOL0     H72570   4.685   5.688   0.642 -2.6555  1.3473  1.7194
  538MOL0     H72571   4.724   5.830   0.844 -0.4871  3.6813  2.3361
  538MOL0     H72572   4.713   5.978   0.742 -1.5088 -0.9498 -0.3201
  538MOL0     H72573   4.498   5.951   0.705  0.1550  0.5306  2.5377
  538MOL0     H72574   4.489   5.772   0.717 -1.7012 -0.8335  1.4364
  538MOL0     H72575   4.517   5.779   0.974  0.0964 -0.9511 -0.3052
  538MOL0     H72576   4.516   5.958   0.973  1.5639 -0.5901 -0.6524
  538MOL0     H72577   4.293   5.803   0.838 -1.7040  2.0305 -1.4084
  538MOL0     H72578   4.307   5.803   1.016  0.8520 -1.2013 -0.0477
  538MOL0     H72579   4.274   6.055   0.844  0.1834 -0.9040 -0.6550
  538MOL0     H72580   4.290   6.050   1.014  1.6834  1.5486 -1.7250
  538MOL0     H72581   4.023   6.014   0.744 -4.5222  2.2530  1.0158
  538MOL0     H72582   3.762   6.072   0.800  1.2005  0.2398  1.9405
  538MOL0     H72583   3.763   5.904   0.754 -0.8279  1.2868 -0.9814
  538MOL0     H72584   3.611   6.031   0.986 -0.4414  1.0098 -0.5953
  538MOL0     H72585   3.672   5.865   0.995  2.5492  0.8584  0.1973
  538MOL0     H72586   3.551   5.796   0.769  0.4954 -0.2214 -1.1692
  538MOL0     H72587   3.504   5.962   0.753 -0.6012 -1.9668 -1.1912
  538MOL0     H72588   3.324   5.837   0.848 -0.5815 -0.1059  0.6202
  538MOL0     H72589   3.387   5.914   0.997 -1.5600 -1.9515  1.7593
  538MOL0     H72590   3.495   5.479   1.096 -0.4151 -1.7156  1.2124
  538MOL0     H72591   3.467   5.275   1.145  2.1004  1.7969  4.0243
  538MOL0     H72592   3.343   5.272   1.272  2.4582 -2.5159 -0.3728
  538MOL0     H72593   3.319   5.197   1.111  3.1989 -1.5223  0.8664
  538MOL0     H72594   2.732   5.423   1.067 -1.4876  0.6843 -0.9688
  538MOL0     H72595   2.498   5.304   1.121 -1.3517 -2.4859 -1.2786
  538MOL0     H72596   2.327   5.172   1.171  0.6319 -0.3124 -0.9950
  538MOL0     H72597   2.383   5.139   1.011 -2.4061 -0.8811 -0.5510
  538MOL0     H72598   2.321   4.892   1.053  0.9831 -0.2528  1.1360
  538MOL0     H72599   2.240   4.946   1.198 -1.5480  2.0542  0.5966
  538MOL0     H72600   2.179   5.065   0.923  0.5129  1.8015  0.7652
  538MOL0     H72601   2.087   5.091   1.073  1.9249 -0.7513  2.6590
  538MOL0     H72602   1.989   4.895   0.917  0.0231 -0.6084 -0.0421
  538MOL0     H72603   2.128   4.805   0.968  0.1384 -0.0135  0.5610
  538MOL0     H72604   1.898   4.890   1.130 -0.0804  1.7660  0.3393
  538MOL0     H72605   2.053   4.874   1.224  0.5613 -1.1930 -1.0555
  538MOL0     H72606   2.055   4.637   1.097  0.6505 -0.9224  0.7546
  538MOL0     H72607   1.979   4.669   1.250 -3.5432 -0.2730  0.4895
  538MOL0     H72608   1.765   4.671   1.172  0.1019  0.9218 -0.0034
  538MOL0     H72609   1.849   4.521   1.127 -1.1900  0.2392  0.4499
  538MOL0     H72610   1.875   4.578   0.899  0.5564  0.9397 -0.7506
  538MOL0     H72611   1.820   4.747   0.927  0.8064  0.5382  0.5143
  538MOL0     H72612   2.699   4.952   1.197 -0.6243 -0.1176  0.8115
  538MOL0     H72613   2.927   5.061   1.158 -0.5297 -1.5422 -0.9858
  538MOL0     H72614   3.017   5.570   1.023  0.6110  1.1262 -2.4547
  538MOL0     H72615   3.179   5.749   0.970  1.0710  0.0622 -0.2799
  538MOL0     H72616   4.901   5.964   0.262 -0.6046 -0.6925  1.1663
  538MOL0     H72617   5.057   6.139   0.187  0.8876  1.6312  0.0170
  538MOL0     H72618   5.430   6.255   0.019 -2.2743  0.5565  1.9087
  538MOL0     H72619   5.594   6.423  -0.077 -0.5526 -0.8845 -0.3250
  538MOL0     H72620   5.655   6.796   0.173  0.8874  0.1724  1.1447
  538MOL0     H72621   5.810   6.721   0.137  0.3336 -0.6972 -1.8444
  538MOL0     H72622   5.653   6.870  -0.075 -1.0616  1.7999  2.3705
  538MOL0     H72623   5.820   6.817  -0.092  0.0926 -2.9203  0.7016
  538MOL0     H72624   5.857   7.036  -0.055  0.9491  1.4769  0.4590
  538MOL0     H72625   5.859   6.984   0.113  0.5577 -0.0748 -0.5900
  538MOL0     H72626   5.641   7.019   0.161 -1.2076 -0.5882 -0.3872
  538MOL0     H72627   5.601   7.076  -0.001  3.0005 -1.5394 -2.0498
  538MOL0     H72628   5.751   7.432   0.137  0.9112  0.1321  0.0908
  538MOL0     H72629   5.577   6.643   0.293  3.1642 -1.2102 -0.3902
  538MOL0     H72630   5.416   6.490   0.375 -0.9984 -1.3275  0.5769
  539MOL0     O72631  10.814   1.363   6.454 -0.7504  0.3899 -0.0994
  539MOL0     C72632  10.853   1.289   6.543 -0.3337 -0.7513  0.1622
  539MOL0     O72633  10.772   1.223   6.631  0.0854  1.0278 -0.8240
  539MOL0     C72634  10.640   1.243   6.622  0.1314 -0.1002 -0.1306
  539MOL0     C72635  10.559   1.132   6.624 -0.3363  0.2552  0.2980
  539MOL0     C72636  10.419   1.145   6.620  0.7405  0.3691 -0.3873
  539MOL0     C72637  10.359   1.269   6.629 -0.6002 -0.4167  0.8485
  539MOL0     O72638  10.223   1.286   6.611  0.0502  0.2782 -0.4338
  539MOL0     C72639  10.138   1.180   6.644  0.4739  0.2710  0.3707
  539MOL0     C72640  10.065   1.127   6.521  0.0582 -0.4163  0.2889
  539MOL0     C72641  10.145   1.024   6.438 -0.1332 -0.2199  0.5103
  539MOL0     C72642  10.081   0.965   6.315 -0.1862 -0.3905  0.6785
  539MOL0     C72643   9.940   0.894   6.328  0.1799 -0.8613 -0.1269
  539MOL0     C72644   9.905   0.846   6.186  0.2881 -0.1336 -0.4636
  539MOL0     C72645   9.787   0.761   6.149 -1.0217  0.4689  0.5585
  539MOL0     C72646   9.772   0.651   6.246  1.2752 -0.1691  0.6137
  539MOL0     N72647   9.651   0.572   6.217 -0.3970  0.6015  0.6142
  539MOL0     C72648   9.601   0.538   6.098  0.6415 -0.4015  0.3198
  539MOL0     C72649   9.514   0.447   6.115 -0.2717  0.5007 -0.2420
  539MOL0     C72650   9.434   0.393   6.007 -0.0228  0.8952  0.1166
  539MOL0     C72651   9.287   0.448   6.006 -0.3495 -0.2518  0.0244
  539MOL0     C72652   9.196   0.378   5.903 -0.9149  0.2777  0.4465
  539MOL0     C72653   9.062   0.454   5.891 -0.0924  0.1936  0.2409
  539MOL0     O72654   9.075   0.585   5.828 -0.4642 -0.5995  0.0269
  539MOL0     C72655   8.965   0.639   5.767  0.0180 -0.6053 -0.1503
  539MOL0     C72656   8.963   0.780   5.772 -0.6294  0.3869  0.0306
  539MOL0     C72657   8.860   0.855   5.707  0.8818 -0.9686  0.4457
  539MOL0     C72658   8.867   1.008   5.717  0.0826 -0.0835 -0.1021
  539MOL0     C72659   8.757   0.788   5.637 -0.4085  0.6509  0.8792
  539MOL0     C72660   8.637   0.845   5.570 -0.6340 -0.2083 -0.2100
  539MOL0     O72661   8.585   0.783   5.464  0.1843  0.2635  0.0048
  539MOL0     C72662   8.465   0.839   5.424 -0.7575 -0.2889 -0.1504
  539MOL0     C72663   8.346   0.773   5.473  0.2847  0.0953 -0.8319
  539MOL0     C72664   8.216   0.813   5.436  0.5219  0.9272  0.1031
  539MOL0     C72665   8.201   0.930   5.356 -0.6086 -0.2742  0.1610
  539MOL0     O72666   8.077   0.970   5.302  0.2320 -0.0968  0.1317
  539MOL0     C72667   7.987   1.003   5.401 -1.3520 -0.3549  0.3142
  539MOL0     C72668   7.851   0.972   5.350  1.1185  0.4064 -0.5755
  539MOL0     C72669   7.815   0.823   5.334  0.3496  0.7141  0.0320
  539MOL0     C72670   7.664   0.823   5.307  0.5825 -1.1609 -0.7089
  539MOL0     C72671   7.609   0.682   5.309 -0.1520  0.6976  0.5051
  539MOL0     C72672   7.453   0.670   5.274  0.7304 -0.5930  0.7894
  539MOL0     C72673   7.420   0.523   5.265 -0.2601 -1.0100  0.4965
  539MOL0     C72674   7.270   0.484   5.234  0.2199 -0.0480  0.4880
  539MOL0    Cl72675   7.172   0.534   5.369 -0.1493 -0.2748  0.0036
  539MOL0     C72676   8.319   1.007   5.322  0.1527 -0.3052 -0.6500
  539MOL0     C72677   8.448   0.966   5.357  0.2876  0.3644  0.0235
  539MOL0     O72678   8.599   0.954   5.616  0.3908 -0.4110 -0.4764
  539MOL0     C72679   8.770   0.651   5.618  0.3555  0.3085 -0.2758
  539MOL0     C72680   8.876   0.577   5.689  0.7619 -0.3252  0.1804
  539MOL0     N72681   9.511   0.409   6.247  0.4532 -0.1927  0.3769
  539MOL0     N72682   9.602   0.478   6.305 -0.0311 -0.9839  0.7102
  539MOL0     C72683  10.441   1.385   6.637  0.4061 -0.1728  0.9862
  539MOL0     C72684  10.580   1.370   6.633  0.2454 -0.8028 -0.3854
  539MOL0     C72685  10.994   1.263   6.554 -0.1193  0.5792  0.8769
  539MOL0     C72686  11.047   1.193   6.668  0.2300 -0.1042 -0.5121
  539MOL0     C72687  11.183   1.162   6.674 -1.1166  0.6735 -0.4691
  539MOL0     C72688  11.269   1.211   6.575 -0.4696 -1.2093  0.3362
  539MOL0     O72689  11.393   1.169   6.590 -0.4789  0.4325 -0.3013
  539MOL0     C72690  11.501   1.220   6.516 -0.3859  0.0307 -0.6129
  539MOL0     C72691  11.540   1.365   6.564  0.0853 -0.0550 -0.0332
  539MOL0     C72692  11.692   1.391   6.578  0.2357 -0.2687  0.3266
  539MOL0     C72693  11.728   1.473   6.698 -0.6150  0.6175 -0.2657
  539MOL0     C72694  11.675   1.615   6.698 -0.0635  0.2640 -1.0238
  539MOL0     C72695  11.642   1.735   6.718  0.0651  0.0501 -0.6461
  539MOL0     C72696  11.221   1.283   6.466 -0.9629  0.2850 -0.9974
  539MOL0     C72697  11.088   1.303   6.457  0.7377  0.1127  0.0587
  539MOL0     H72698  10.610   1.037   6.623 -2.2936 -0.8386 -0.5836
  539MOL0     H72699  10.360   1.055   6.607  0.7251  0.3423 -0.1429
  539MOL0     H72700  10.182   1.093   6.693  0.5618  0.2015  0.1690
  539MOL0     H72701  10.071   1.226   6.718  2.5700  1.2863  1.7352
  539MOL0     H72702   9.977   1.069   6.551 -1.4434  0.7696 -1.5846
  539MOL0     H72703  10.031   1.210   6.459  0.4588 -2.2646 -2.6488
  539MOL0     H72704  10.239   1.067   6.401 -0.3186 -0.3455 -0.1305
  539MOL0     H72705  10.178   0.949   6.510 -0.7968  0.9449  2.0655
  539MOL0     H72706  10.069   1.055   6.254  0.1964  1.2858  2.9502
  539MOL0     H72707  10.157   0.900   6.271  0.8115  2.0080 -1.3204
  539MOL0     H72708   9.942   0.807   6.395  0.2647 -0.0807  0.9015
  539MOL0     H72709   9.868   0.966   6.367  1.9048  1.3423 -0.7799
  539MOL0     H72710   9.891   0.932   6.119 -2.2343  0.0517  0.2044
  539MOL0     H72711   9.996   0.794   6.153  2.9150  3.2983  0.7943
  539MOL0     H72712   9.699   0.823   6.134 -0.5352  1.3257  1.1453
  539MOL0     H72713   9.817   0.725   6.050  1.0707  1.0808  0.9001
  539MOL0     H72714   9.762   0.687   6.349 -2.2181 -1.7944  0.9798
  539MOL0     H72715   9.863   0.592   6.229 -0.2864 -2.0414 -1.9033
  539MOL0     H72716   9.609   0.585   6.000 -1.7942 -1.4001 -0.4391
  539MOL0     H72717   9.471   0.417   5.907 -0.3351  2.3150  0.3190
  539MOL0     H72718   9.434   0.284   6.018  1.5726  1.0036  1.5516
  539MOL0     H72719   9.286   0.557   5.993  2.2792 -0.1266  0.3968
  539MOL0     H72720   9.242   0.437   6.105  1.9000 -0.4097  1.0832
  539MOL0     H72721   9.181   0.276   5.941  0.3613 -0.0155  0.2204
  539MOL0     H72722   9.243   0.368   5.805 -0.2149  1.0299  0.6941
  539MOL0     H72723   9.002   0.457   5.982 -4.1370 -0.7533 -2.1250
  539MOL0     H72724   8.992   0.393   5.832 -1.1656  0.3570  1.3021
  539MOL0     H72725   9.049   0.827   5.818 -0.6705 -0.9493  1.5897
  539MOL0     H72726   8.815   1.037   5.808 -1.3194 -1.0713 -0.5357
  539MOL0     H72727   8.973   1.028   5.728  0.0088 -0.9517  3.0819
  539MOL0     H72728   8.825   1.068   5.635 -0.1528  2.3241  1.6867
  539MOL0     H72729   8.368   0.686   5.535  1.8238 -0.1422 -1.6741
  539MOL0     H72730   8.134   0.756   5.478  2.9325 -1.7874  1.4177
  539MOL0     H72731   8.000   0.943   5.491  1.9033  0.3675  0.4477
  539MOL0     H72732   7.988   1.110   5.427 -2.3891 -0.0567 -0.7598
  539MOL0     H72733   7.781   1.010   5.425  0.4207 -0.0987 -0.9602
  539MOL0     H72734   7.845   1.023   5.253  2.0211  0.7256 -0.4749
  539MOL0     H72735   7.837   0.767   5.426  2.0997  0.7508 -0.3241
  539MOL0     H72736   7.874   0.768   5.260 -2.5092 -0.0148 -1.8797
  539MOL0     H72737   7.616   0.882   5.386  0.2980  1.1018 -2.4513
  539MOL0     H72738   7.636   0.871   5.213  0.7052  1.8114  0.6587
  539MOL0     H72739   7.630   0.656   5.413 -1.5877  2.1642  1.2129
  539MOL0     H72740   7.666   0.613   5.246 -0.6703 -0.9900  1.8243
  539MOL0     H72741   7.391   0.718   5.350  0.5761  1.4192 -0.5463
  539MOL0     H72742   7.441   0.726   5.181 -0.5826 -1.0783  0.6458
  539MOL0     H72743   7.447   0.483   5.363  0.5850 -4.4426 -0.9910
  539MOL0     H72744   7.479   0.465   5.192  0.4126  1.8338 -1.3821
  539MOL0     H72745   7.257   0.377   5.215  1.6997 -0.0301 -0.7939
  539MOL0     H72746   7.224   0.537   5.151 -1.6627  0.8379  2.0127
  539MOL0     H72747   8.311   1.094   5.259  1.0285 -0.7309 -1.3707
  539MOL0     H72748   8.536   1.020   5.324  0.1751  0.6617  0.2070
  539MOL0     H72749   8.702   0.586   5.563  1.6022 -2.3724  1.1394
  539MOL0     H72750   8.878   0.470   5.672 -1.2307 -0.2395 -0.8934
  539MOL0     H72751  10.396   1.483   6.628  0.8848 -0.0637 -0.7140
  539MOL0     H72752  10.638   1.461   6.641 -1.2969  0.1561  0.4813
  539MOL0     H72753  10.983   1.161   6.750  2.2152  1.7111  1.8837
  539MOL0     H72754  11.215   1.098   6.756  2.2031 -0.1486 -2.2267
  539MOL0     H72755  11.589   1.157   6.526  0.0007  0.1600 -2.8116
  539MOL0     H72756  11.477   1.211   6.410 -1.1327  2.4500 -0.7131
  539MOL0     H72757  11.504   1.360   6.667 -0.7701 -1.4452 -0.3791
  539MOL0     H72758  11.494   1.449   6.512  1.4668  2.0684  1.9777
  539MOL0     H72759  11.721   1.445   6.488  0.4876  0.4215  0.8111
  539MOL0     H72760  11.755   1.303   6.588  0.5383 -0.6286 -3.4736
  539MOL0     H72761  11.837   1.479   6.691 -0.3401  1.8033  3.1941
  539MOL0     H72762  11.706   1.409   6.784  3.4392 -0.3174  0.2764
  539MOL0     H72763  11.636   1.840   6.736  2.3084 -0.1729  2.0755
  539MOL0     H72764  11.282   1.311   6.381 -0.1221 -1.9431 -1.1922
  539MOL0     H72765  11.055   1.358   6.369 -1.0805 -2.0078 -0.6823
  540MOL0     O72766   0.900   3.913   6.206  0.5134 -0.3764  0.4133
  540MOL0     C72767   0.933   3.904   6.088 -0.9614 -0.3860 -0.3586
  540MOL0     O72768   0.866   3.849   5.984  0.7978  0.7660  0.5189
  540MOL0     C72769   0.738   3.809   5.998 -0.0166  0.8075 -0.4643
  540MOL0     C72770   0.691   3.708   5.909  0.0428 -0.7095  0.0960
  540MOL0     C72771   0.558   3.677   5.901 -0.3898 -0.4774 -1.1525
  540MOL0     C72772   0.467   3.749   5.975 -0.0902 -0.0553 -0.3616
  540MOL0     O72773   0.334   3.707   5.984  0.0192 -0.3952 -0.0794
  540MOL0     C72774   0.245   3.753   5.884 -0.5959  0.2012 -0.8880
  540MOL0     C72775   0.139   3.649   5.842 -0.4331 -0.0664 -0.5197
  540MOL0     C72776   0.061   3.693   5.718 -0.7950  0.9882 -0.1564
  540MOL0     C72777  -0.061   3.612   5.688 -0.4045 -0.5671 -0.7006
  540MOL0     C72778  -0.165   3.689   5.602  0.6512  0.1176  0.4807
  540MOL0     C72779  -0.274   3.746   5.701 -0.0125  0.6912  0.2486
  540MOL0     C72780  -0.376   3.830   5.629  0.1600  0.2765  0.0123
  540MOL0     C72781  -0.476   3.760   5.540 -0.1176  0.4129  0.5580
  540MOL0     N72782  -0.591   3.841   5.493 -0.5058  0.3437 -0.5212
  540MOL0     C72783  -0.702   3.877   5.567  0.0645 -0.1462  0.2700
  540MOL0     C72784  -0.786   3.943   5.482  0.3472  0.5015  0.5824
  540MOL0     C72785  -0.917   4.009   5.515 -0.0394 -0.1155 -0.8351
  540MOL0     C72786  -1.028   3.898   5.501 -0.4572 -0.3626 -0.1221
  540MOL0     C72787  -1.161   3.968   5.508  0.0531  0.1530  0.6025
  540MOL0     C72788  -1.281   3.878   5.498  0.1591 -0.4327  0.5048
  540MOL0     O72789  -1.345   3.882   5.369  0.2273 -0.1191 -0.0874
  540MOL0     C72790  -1.472   3.831   5.358 -0.0345 -0.5443  0.2800
  540MOL0     C72791  -1.510   3.815   5.228  0.1364  0.2956 -0.6462
  540MOL0     C72792  -1.638   3.751   5.197  0.0654  0.5374 -0.1110
  540MOL0     C72793  -1.657   3.745   5.048 -0.1897  0.0790 -0.0333
  540MOL0     C72794  -1.732   3.719   5.299 -0.0236  0.3568 -0.2180
  540MOL0     C72795  -1.872   3.640   5.282 -1.2885 -0.0110  0.5445
  540MOL0     O72796  -1.957   3.666   5.385  0.2519 -0.2738 -0.0669
  540MOL0     C72797  -2.086   3.614   5.404  0.3168 -0.2910  0.0451
  540MOL0     C72798  -2.172   3.562   5.305  0.7927  0.3296 -0.5559
  540MOL0     C72799  -2.300   3.524   5.333  0.5496  0.3933 -0.2512
  540MOL0     C72800  -2.343   3.515   5.470 -0.2713  0.0576  0.3393
  540MOL0     O72801  -2.455   3.473   5.523  0.1610 -0.0717 -0.4537
  540MOL0     C72802  -2.547   3.411   5.429  0.6344  0.3077  0.7183
  540MOL0     C72803  -2.662   3.351   5.513 -0.5880  0.0391 -0.1141
  540MOL0     C72804  -2.784   3.302   5.435  0.6088 -0.1036  0.0563
  540MOL0     C72805  -2.905   3.281   5.531 -0.0433  0.1032  0.5053
  540MOL0     C72806  -3.019   3.196   5.465  0.5283  0.2692 -0.7641
  540MOL0     C72807  -3.104   3.273   5.361  0.0180  0.1091  0.1619
  540MOL0     C72808  -3.234   3.200   5.352 -0.7496 -0.0112  0.5197
  540MOL0     C72809  -3.296   3.209   5.211  0.2683 -0.3562 -0.6075
  540MOL0    Cl72810  -3.421   3.341   5.227 -0.1467 -0.1380 -0.0136
  540MOL0     C72811  -2.259   3.561   5.573 -0.8279  0.7109 -0.5316
  540MOL0     C72812  -2.132   3.607   5.533  0.4945 -0.0148  0.6421
  540MOL0     O72813  -1.884   3.559   5.193 -0.1096  0.6530 -0.8449
  540MOL0     C72814  -1.687   3.757   5.432  0.3126  0.1870 -0.1894
  540MOL0     C72815  -1.559   3.800   5.461  0.1312  0.0251  0.0572
  540MOL0     N72816  -0.731   3.929   5.359 -0.2874 -0.2348 -0.2443
  540MOL0     N72817  -0.614   3.869   5.365  0.3195 -1.1792 -0.3063
  540MOL0     C72818   0.508   3.856   6.053  0.0020 -0.4581 -0.3596
  540MOL0     C72819   0.642   3.884   6.071  0.1342  0.4828 -0.5583
  540MOL0     C72820   1.072   3.943   6.069  0.1635  0.1246 -0.3683
  540MOL0     C72821   1.121   4.062   6.130  0.0417 -0.3286 -0.7050
  540MOL0     C72822   1.241   4.115   6.079 -0.4102 -0.0410 -0.4156
  540MOL0     C72823   1.327   4.057   5.984  0.3945 -0.1400  0.1877
  540MOL0     O72824   1.439   4.127   5.944 -0.0022 -0.2592  0.3300
  540MOL0     C72825   1.519   4.075   5.839  0.2626  0.3557 -0.0540
  540MOL0     C72826   1.644   4.161   5.823 -0.7154 -0.3926 -0.0341
  540MOL0     C72827   1.743   4.100   5.721  0.0499  0.0065 -0.2104
  540MOL0     C72828   1.871   4.172   5.742  0.6757  0.7688 -0.1686
  540MOL0     C72829   1.967   4.136   5.639 -0.4115 -0.0869  0.3895
  540MOL0     C72830   2.031   4.104   5.541  0.0464  0.0915 -0.7159
  540MOL0     C72831   1.287   3.928   5.946  0.0004  0.4194  0.6948
  540MOL0     C72832   1.164   3.874   5.990 -0.5558  0.0741 -0.3852
  540MOL0     H72833   0.752   3.650   5.841 -1.3995 -1.6320 -0.4690
  540MOL0     H72834   0.531   3.589   5.842 -1.2861 -0.2977 -1.0304
  540MOL0     H72835   0.189   3.841   5.917  1.2228  1.9010 -2.1121
  540MOL0     H72836   0.289   3.779   5.787 -3.0884 -0.4289 -2.2940
  540MOL0     H72837   0.184   3.551   5.823  0.0792  0.0042  0.2813
  540MOL0     H72838   0.063   3.632   5.919 -1.6203 -0.7896 -1.8202
  540MOL0     H72839   0.028   3.797   5.727  1.5467  1.6726  1.3493
  540MOL0     H72840   0.132   3.693   5.636  1.3768 -1.0585  1.5726
  540MOL0     H72841  -0.021   3.523   5.637  0.4798 -1.2815  1.1460
  540MOL0     H72842  -0.101   3.584   5.786  0.6822  1.2692  0.3274
  540MOL0     H72843  -0.121   3.765   5.537  2.1665 -0.1281  1.1896
  540MOL0     H72844  -0.211   3.621   5.529  1.0046  1.8768 -1.4518
  540MOL0     H72845  -0.331   3.673   5.760  1.9157  0.5947  2.1109
  540MOL0     H72846  -0.220   3.809   5.772 -2.3349  2.9477  0.1744
  540MOL0     H72847  -0.430   3.889   5.704 -0.5154  0.8317 -0.8954
  540MOL0     H72848  -0.319   3.906   5.574 -0.3094  1.3149  0.9104
  540MOL0     H72849  -0.506   3.667   5.589  0.7646  0.2535  0.8185
  540MOL0     H72850  -0.415   3.737   5.453 -0.2422  0.6847  0.3978
  540MOL0     H72851  -0.725   3.857   5.671 -0.6146 -0.0473  0.1461
  540MOL0     H72852  -0.918   4.049   5.617 -0.6730  1.8163 -1.5601
  540MOL0     H72853  -0.937   4.095   5.451  2.9291 -0.5443 -2.5169
  540MOL0     H72854  -1.012   3.817   5.572  1.7698 -0.7801 -1.0104
  540MOL0     H72855  -1.029   3.854   5.401 -1.5722  0.3420 -0.4439
  540MOL0     H72856  -1.174   4.044   5.431  3.2968 -1.3336 -1.6092
  540MOL0     H72857  -1.187   4.013   5.604  1.3393 -1.9320  2.0246
  540MOL0     H72858  -1.358   3.911   5.568 -1.2418 -3.2583  0.4689
  540MOL0     H72859  -1.260   3.773   5.523 -2.6600 -1.8404 -2.2573
  540MOL0     H72860  -1.448   3.844   5.144 -0.0873  0.0680 -0.8922
  540MOL0     H72861  -1.674   3.643   5.012  0.5332  0.0568 -0.3245
  540MOL0     H72862  -1.747   3.805   5.033 -1.5419 -2.2927 -2.1891
  540MOL0     H72863  -1.564   3.780   5.002  2.1959 -2.9387  2.0723
  540MOL0     H72864  -2.144   3.548   5.201  1.3489  2.3731 -0.7217
  540MOL0     H72865  -2.357   3.500   5.244  0.6726 -0.1533 -0.1862
  540MOL0     H72866  -2.588   3.490   5.366 -0.5357 -0.1981  0.8069
  540MOL0     H72867  -2.511   3.335   5.359  1.8263  1.9602 -0.5215
  540MOL0     H72868  -2.618   3.272   5.574  0.7415 -0.2385 -1.3519
  540MOL0     H72869  -2.687   3.428   5.585  1.4123  4.9202 -4.0635
  540MOL0     H72870  -2.763   3.214   5.375 -1.4847 -0.6328  0.0391
  540MOL0     H72871  -2.813   3.364   5.350 -0.0753  0.6214  0.7892
  540MOL0     H72872  -2.875   3.233   5.624 -1.7156  1.4780  1.8095
  540MOL0     H72873  -2.942   3.381   5.554 -1.9905 -1.0134  2.6252
  540MOL0     H72874  -3.086   3.179   5.549  1.8235  2.8698  0.9352
  540MOL0     H72875  -2.981   3.104   5.418  0.9669 -0.0663  0.2045
  540MOL0     H72876  -3.113   3.378   5.390 -1.5260  0.3182 -0.9611
  540MOL0     H72877  -3.048   3.275   5.266 -2.1191  0.3469 -1.1590
  540MOL0     H72878  -3.301   3.232   5.432 -2.2176  1.1312 -1.0750
  540MOL0     H72879  -3.224   3.093   5.373  0.5850  0.7282  4.2988
  540MOL0     H72880  -3.343   3.115   5.182 -0.9046 -0.2204  0.7366
  540MOL0     H72881  -3.218   3.239   5.140  3.1988  1.5371  3.0257
  540MOL0     H72882  -2.291   3.570   5.676  1.9904  1.1595  0.3806
  540MOL0     H72883  -2.058   3.645   5.603  2.7517  1.6423 -2.3631
  540MOL0     H72884  -1.762   3.747   5.509  1.7798  2.3232  1.6337
  540MOL0     H72885  -1.541   3.815   5.567 -1.2831  0.5311  0.2427
  540MOL0     H72886   0.434   3.912   6.109  1.9539  1.0298  0.8511
  540MOL0     H72887   0.674   3.962   6.139  1.6454 -0.4567 -0.1510
  540MOL0     H72888   1.048   4.120   6.186 -2.0326 -0.7279 -2.8321
  540MOL0     H72889   1.270   4.212   6.119 -2.3737  0.5216 -0.2347
  540MOL0     H72890   1.553   3.975   5.870 -1.6862 -0.4978 -0.4995
  540MOL0     H72891   1.453   4.060   5.754 -0.7823 -3.2345  1.2028
  540MOL0     H72892   1.701   4.183   5.913 -0.9913 -0.4121  0.1470
  540MOL0     H72893   1.615   4.262   5.790 -0.1553 -0.6541 -1.4138
  540MOL0     H72894   1.700   4.111   5.621  0.3279 -4.1111 -0.9271
  540MOL0     H72895   1.768   3.997   5.746 -2.8419 -1.3723 -2.4025
  540MOL0     H72896   1.903   4.158   5.846  0.4021  4.2122  0.5171
  540MOL0     H72897   1.851   4.279   5.732 -0.5006  0.4038 -2.2587
  540MOL0     H72898   2.096   4.073   5.461 -1.5731 -1.1887 -1.6065
  540MOL0     H72899   1.336   3.872   5.867  0.1573 -0.0654  1.1342
  540MOL0     H72900   1.123   3.782   5.949  2.6903 -1.7089  0.0347
  541MOL0     O72901   4.268   4.312   6.721  1.1013 -0.1300  0.2009
  541MOL0     C72902   4.315   4.198   6.706 -0.6869  0.2404 -0.2686
  541MOL0     O72903   4.240   4.073   6.700 -0.4027 -0.4748 -0.5621
  541MOL0     C72904   4.106   4.089   6.732 -0.8462 -0.1066  0.4848
  541MOL0     C72905   4.075   4.124   6.861 -0.3631  0.0750 -0.2998
  541MOL0     C72906   3.933   4.143   6.896 -0.3982 -0.4201 -0.7638
  541MOL0     C72907   3.831   4.137   6.800 -0.2900  0.4689  0.1420
  541MOL0     O72908   3.698   4.155   6.822  0.2327 -0.2031 -0.3851
  541MOL0     C72909   3.679   4.259   6.919  0.4569 -0.6871  0.2629
  541MOL0     C72910   3.530   4.269   6.947 -0.5794 -0.5433 -0.1144
  541MOL0     C72911   3.447   4.326   6.837  1.0318  0.2897 -0.1446
  541MOL0     C72912   3.305   4.283   6.850  0.1691  0.2304  0.2675
  541MOL0     C72913   3.213   4.407   6.873  0.4645  0.7156  0.5748
  541MOL0     C72914   3.065   4.352   6.838 -0.8872 -0.8335  0.1316
  541MOL0     C72915   2.961   4.454   6.853 -0.1389 -0.0613  0.4429
  541MOL0     C72916   2.812   4.405   6.825 -0.8609  0.1113  0.1756
  541MOL0     N72917   2.721   4.510   6.862 -0.3821  0.2983 -1.0045
  541MOL0     C72918   2.699   4.631   6.804  0.9617  0.2737 -0.2473
  541MOL0     C72919   2.614   4.706   6.881 -0.6111  0.4251 -1.1679
  541MOL0     C72920   2.570   4.843   6.858  0.4841 -0.3640  0.5337
  541MOL0     C72921   2.444   4.858   6.773  0.5357  1.3714  0.0973
  541MOL0     C72922   2.325   4.780   6.838 -0.3058  0.1821  0.6387
  541MOL0     C72923   2.183   4.827   6.804  0.9462 -0.0553 -0.4133
  541MOL0     O72924   2.172   4.961   6.848 -0.5855 -0.0680 -0.0148
  541MOL0     C72925   2.051   5.000   6.889  0.8835  0.4118 -0.8559
  541MOL0     C72926   2.034   5.073   7.007  0.3768  0.0136  0.7278
  541MOL0     C72927   1.914   5.132   7.050  0.1250  0.7267 -0.5507
  541MOL0     C72928   1.914   5.190   7.189 -0.2731  0.9189  0.6230
  541MOL0     C72929   1.796   5.096   6.976  0.0219  0.1180  0.2183
  541MOL0     C72930   1.659   5.154   7.005  0.3164  0.7699 -0.3930
  541MOL0     O72931   1.553   5.125   6.923 -0.2609 -0.0495 -0.0318
  541MOL0     C72932   1.417   5.168   6.946  0.1262  0.2358  0.1760
  541MOL0     C72933   1.365   5.201   7.068 -0.3689  0.1587 -1.0430
  541MOL0     C72934   1.232   5.237   7.085 -0.2413 -0.4765 -0.4641
  541MOL0     C72935   1.145   5.240   6.974  0.6316 -0.3512  1.0171
  541MOL0     O72936   1.014   5.255   7.007 -0.4697  0.0331 -0.0314
  541MOL0     C72937   0.928   5.264   6.903  0.7579  0.5545 -0.4044
  541MOL0     C72938   0.789   5.276   6.970 -0.0801  0.4216  0.1889
  541MOL0     C72939   0.675   5.270   6.874 -0.1320  1.2039  0.0477
  541MOL0     C72940   0.539   5.259   6.942 -0.1171 -0.3249  0.2199
  541MOL0     C72941   0.429   5.303   6.839 -1.1226 -0.2036 -0.2692
  541MOL0     C72942   0.286   5.268   6.894  0.4050  0.4502  0.6074
  541MOL0     C72943   0.179   5.317   6.801  0.5171  0.1044 -0.4219
  541MOL0     C72944   0.072   5.212   6.781 -0.0598  0.7732 -0.0551
  541MOL0    Cl72945   0.139   5.084   6.673  0.3779 -0.2667 -0.1348
  541MOL0     C72946   1.194   5.209   6.846 -0.3226  0.4492  0.7487
  541MOL0     C72947   1.330   5.175   6.831 -0.7640  0.2966  0.2237
  541MOL0     O72948   1.660   5.223   7.109 -0.0071  0.2446  0.3146
  541MOL0     C72949   1.808   5.013   6.857  0.0087  0.4023  0.5461
  541MOL0     C72950   1.935   4.976   6.815 -0.2265  0.2239  0.0981
  541MOL0     N72951   2.604   4.637   7.001 -0.0677  0.8729 -0.1597
  541MOL0     N72952   2.669   4.523   6.988 -0.1435  0.5225  0.6728
  541MOL0     C72953   3.871   4.110   6.667 -0.2256 -0.1395 -0.2593
  541MOL0     C72954   4.006   4.080   6.631 -0.5007  0.1969  0.7572
  541MOL0     C72955   4.460   4.183   6.687 -1.0178  0.7186  0.5122
  541MOL0     C72956   4.542   4.297   6.660 -0.0256  1.0256 -0.2434
  541MOL0     C72957   4.673   4.276   6.626 -0.2945  1.0278 -0.3583
  541MOL0     C72958   4.723   4.148   6.601  0.9446 -0.0004  0.3309
  541MOL0     O72959   4.847   4.118   6.549  0.6539 -1.0417 -0.2238
  541MOL0     C72960   4.926   4.230   6.497 -0.1485  0.6257 -0.0230
  541MOL0     C72961   5.054   4.168   6.445 -0.6572  0.9814 -0.5555
  541MOL0     C72962   5.142   4.106   6.560 -0.3938  0.0500 -0.0646
  541MOL0     C72963   5.203   4.201   6.665  0.1746 -0.3545 -0.7637
  541MOL0     C72964   5.292   4.304   6.612 -0.5186 -0.0206  0.0080
  541MOL0     C72965   5.353   4.396   6.568  0.3067 -0.3280 -0.0566
  541MOL0     C72966   4.636   4.040   6.619  0.0185  1.0350 -0.4987
  541MOL0     C72967   4.513   4.052   6.673 -0.4088 -0.1015 -0.0860
  541MOL0     H72968   4.150   4.118   6.940  0.3032 -0.0718 -0.9367
  541MOL0     H72969   3.905   4.170   6.997 -1.0957  1.3242 -1.3712
  541MOL0     H72970   3.721   4.232   7.016  0.0778  1.1551  0.9747
  541MOL0     H72971   3.718   4.358   6.896  1.0213 -0.9930 -0.1374
  541MOL0     H72972   3.500   4.169   6.979  0.5657 -0.4968  1.2275
  541MOL0     H72973   3.517   4.333   7.034  0.4786 -0.0756 -0.2753
  541MOL0     H72974   3.463   4.434   6.843  0.7695  0.2903  0.6131
  541MOL0     H72975   3.493   4.299   6.741  0.2811  0.1950 -0.4827
  541MOL0     H72976   3.265   4.226   6.766 -1.7389  3.0382 -0.8746
  541MOL0     H72977   3.297   4.224   6.942 -3.7223  2.6698  1.7361
  541MOL0     H72978   3.217   4.440   6.977 -0.7715 -0.4880  1.0236
  541MOL0     H72979   3.245   4.484   6.802  4.2328 -1.6753 -0.6564
  541MOL0     H72980   3.068   4.338   6.729  0.4958  0.0806  0.0356
  541MOL0     H72981   3.041   4.260   6.892 -0.3592 -1.4045 -0.5749
  541MOL0     H72982   2.970   4.488   6.956  3.7658 -0.7303  0.4856
  541MOL0     H72983   2.987   4.529   6.778 -2.1860  2.0910  1.7679
  541MOL0     H72984   2.794   4.312   6.879  2.6451 -0.4423  0.6475
  541MOL0     H72985   2.815   4.386   6.717  1.5658 -0.1532  0.2215
  541MOL0     H72986   2.742   4.661   6.710  0.9863  1.9330  0.2582
  541MOL0     H72987   2.560   4.890   6.956 -0.3801 -0.4802  0.5057
  541MOL0     H72988   2.651   4.894   6.804 -1.1053 -0.7719 -2.4365
  541MOL0     H72989   2.462   4.816   6.674 -0.0308 -0.5290  0.7574
  541MOL0     H72990   2.421   4.964   6.763 -0.1109  1.3277  0.9747
  541MOL0     H72991   2.333   4.786   6.947 -0.3548  0.1063  0.6456
  541MOL0     H72992   2.336   4.676   6.808 -2.2907 -0.4120  1.8064
  541MOL0     H72993   2.107   4.774   6.862  3.2984 -3.3874 -0.1073
  541MOL0     H72994   2.169   4.811   6.697 -0.0730  1.7533 -0.5820
  541MOL0     H72995   2.125   5.087   7.063 -1.7784  1.1495  4.2642
  541MOL0     H72996   1.849   5.122   7.245  1.6687  1.0999  3.2594
  541MOL0     H72997   2.011   5.176   7.237  1.2584 -0.4855 -2.5524
  541MOL0     H72998   1.886   5.296   7.188 -3.2335  0.2104  0.2476
  541MOL0     H72999   1.426   5.195   7.158 -0.0513 -1.1239 -1.3275
  541MOL0     H73000   1.190   5.249   7.184  2.1836  0.3526  0.5503
  541MOL0     H73001   0.942   5.355   6.845 -1.6831  1.3093  0.0559
  541MOL0     H73002   0.933   5.174   6.841  0.1213 -0.4715  0.9822
  541MOL0     H73003   0.772   5.195   7.042  0.3518  0.1105 -0.0567
  541MOL0     H73004   0.780   5.370   7.026  0.1710 -0.3673  1.5963
  541MOL0     H73005   0.687   5.171   6.828 -1.7438  1.5490 -1.2025
  541MOL0     H73006   0.671   5.352   6.801 -1.2450  1.2994  0.2060
  541MOL0     H73007   0.515   5.159   6.980 -1.3342 -1.0982 -2.3733
  541MOL0     H73008   0.549   5.318   7.033  0.6506  1.6591 -1.0973
  541MOL0     H73009   0.447   5.255   6.743 -2.9595 -1.7930  0.1145
  541MOL0     H73010   0.443   5.411   6.831 -0.6603 -0.1597  0.9230
  541MOL0     H73011   0.266   5.161   6.900 -0.1698  0.1446 -3.5749
  541MOL0     H73012   0.287   5.306   6.997 -0.4710 -0.9536  1.1732
  541MOL0     H73013   0.217   5.334   6.700  2.0922  0.0620  0.1393
  541MOL0     H73014   0.136   5.413   6.828  1.4084  0.7826 -1.3107
  541MOL0     H73015  -0.017   5.250   6.730 -0.3971 -1.8630 -1.6295
  541MOL0     H73016   0.042   5.171   6.878 -1.8110  0.7551 -0.5714
  541MOL0     H73017   1.133   5.216   6.757 -1.2067 -3.1597  0.9260
  541MOL0     H73018   1.380   5.156   6.737 -1.0939  0.7082 -0.0383
  541MOL0     H73019   1.719   4.989   6.801 -1.0846 -1.4913  2.9275
  541MOL0     H73020   1.937   4.916   6.725 -0.7297 -0.6924  0.6818
  541MOL0     H73021   3.804   4.120   6.582 -0.5575 -1.7392 -0.2150
  541MOL0     H73022   4.023   4.064   6.525 -0.2609 -0.9868  0.9661
  541MOL0     H73023   4.513   4.401   6.646 -0.6669  0.9479  0.4111
  541MOL0     H73024   4.730   4.365   6.603 -1.7056  1.5068 -2.2706
  541MOL0     H73025   4.883   4.290   6.416  1.0852  0.4666 -0.8176
  541MOL0     H73026   4.955   4.305   6.571 -1.6424 -0.0801  1.3199
  541MOL0     H73027   5.114   4.246   6.397  3.3685 -0.8868  1.0071
  541MOL0     H73028   5.032   4.088   6.373  0.8954 -2.6848  2.7213
  541MOL0     H73029   5.225   4.059   6.507 -1.6766 -2.0137 -0.3390
  541MOL0     H73030   5.096   4.026   6.619  0.9653 -0.4157  0.4041
  541MOL0     H73031   5.256   4.147   6.745 -1.1588 -0.7314 -0.1080
  541MOL0     H73032   5.114   4.253   6.700  0.7829  2.8633 -3.5392
  541MOL0     H73033   5.412   4.484   6.549  0.8950 -0.4849  0.9670
  541MOL0     H73034   4.665   3.940   6.587 -0.5510  1.3083 -1.9274
  541MOL0     H73035   4.460   3.959   6.689 -1.1668  0.4802  0.8893
  542MOL0     O73036   7.165   9.886   5.070  0.5718 -0.3081 -0.3538
  542MOL0     C73037   7.194   9.972   5.151  0.0174  0.3345 -0.3178
  542MOL0     O73038   7.117  10.073   5.191 -0.2141  0.0210  0.4117
  542MOL0     C73039   6.996  10.069   5.128  0.0407 -0.3983 -0.8694
  542MOL0     C73040   6.885  10.011   5.182  0.4420 -1.1629 -0.3439
  542MOL0     C73041   6.759  10.024   5.114  0.1537 -0.1046 -0.7075
  542MOL0     C73042   6.745  10.110   5.011  0.1081  0.0004  0.0414
  542MOL0     O73043   6.626  10.116   4.945 -0.5338 -0.2830 -0.3834
  542MOL0     C73044   6.631  10.075   4.809 -0.3022 -0.3146 -0.6008
  542MOL0     C73045   6.489  10.041   4.754  0.1703 -0.1081  0.2669
  542MOL0     C73046   6.408  10.172   4.754 -0.8806  0.2235  0.2315
  542MOL0     C73047   6.270  10.133   4.703  0.3626  0.4154 -0.8123
  542MOL0     C73048   6.175  10.257   4.695  0.6758  0.2122 -0.5262
  542MOL0     C73049   6.031  10.213   4.645  1.1774  0.0804 -0.2785
  542MOL0     C73050   5.915  10.312   4.675  0.2188  0.5127 -0.0736
  542MOL0     C73051   5.779  10.252   4.638 -0.3328  0.3484 -0.1014
  542MOL0     N73052   5.656  10.331   4.661  0.0835 -0.4185 -0.4930
  542MOL0     C73053   5.631  10.455   4.612 -0.0607 -0.2799 -0.3287
  542MOL0     C73054   5.509  10.474   4.659 -0.4043 -0.1746 -1.0490
  542MOL0     C73055   5.415  10.591   4.631  0.2565  0.8715  0.0525
  542MOL0     C73056   5.431  10.654   4.482  0.2657 -0.3285 -0.7341
  542MOL0     C73057   5.384  10.555   4.372 -0.3802  0.5122  0.0833
  542MOL0     C73058   5.241  10.506   4.380  0.0879  0.2773  0.9629
  542MOL0     O73059   5.231  10.367   4.419  0.6583  0.7757  0.1488
  542MOL0     C73060   5.116  10.296   4.386 -0.0870  0.2019 -0.1849
  542MOL0     C73061   4.991  10.358   4.411  0.0927 -0.1120  0.2757
  542MOL0     C73062   4.876  10.297   4.357 -0.5659 -0.3117 -0.4487
  542MOL0     C73063   4.748  10.366   4.389  0.5649 -0.3530  0.2198
  542MOL0     C73064   4.879  10.164   4.290 -0.3238 -0.1485 -0.6492
  542MOL0     C73065   4.756  10.104   4.226  0.7657  0.2627  0.5387
  542MOL0     O73066   4.636  10.175   4.211 -0.6034  0.2492 -0.1888
  542MOL0     C73067   4.522  10.108   4.185  0.8474 -0.5274 -0.4145
  542MOL0     C73068   4.419  10.192   4.144  0.2561  0.1238 -0.3498
  542MOL0     C73069   4.292  10.141   4.119 -0.8352 -0.1456 -0.1526
  542MOL0     C73070   4.267  10.009   4.121 -0.4639 -0.2332 -0.5994
  542MOL0     O73071   4.143   9.960   4.096  0.6202  0.0735  0.1921
  542MOL0     C73072   4.047  10.034   4.023 -0.2877  0.4935 -0.0561
  542MOL0     C73073   3.922   9.943   4.006 -0.5227 -0.0045 -0.6107
  542MOL0     C73074   3.823  10.018   3.917 -0.1463  0.5962  0.0351
  542MOL0     C73075   3.685   9.961   3.930  0.1245 -0.1865 -0.6769
  542MOL0     C73076   3.581  10.047   3.856 -0.0059 -0.3006 -0.2294
  542MOL0     C73077   3.437   9.983   3.833 -0.1050 -0.4362 -0.1732
  542MOL0     C73078   3.378   9.939   3.962 -0.4307 -0.1291  0.0849
  542MOL0     C73079   3.226   9.921   3.965 -0.0497  0.9465 -0.7443
  542MOL0    Cl73080   3.179   9.818   3.835  0.1614  0.0782 -0.3258
  542MOL0     C73081   4.367   9.920   4.159  0.0209  0.6920 -1.4634
  542MOL0     C73082   4.487   9.974   4.205  0.0405  0.3079  0.2762
  542MOL0     O73083   4.777   9.994   4.187  0.5273 -0.3054 -0.1424
  542MOL0     C73084   5.008  10.102   4.269  0.0949 -0.5633  0.0275
  542MOL0     C73085   5.119  10.170   4.318 -0.6374 -0.2058  0.3548
  542MOL0     N73086   5.468  10.377   4.750  0.8657 -0.3955 -0.3976
  542MOL0     N73087   5.550  10.285   4.738 -0.3353 -0.6443  1.0294
  542MOL0     C73088   6.855  10.169   4.954  0.1851  0.1334 -0.1344
  542MOL0     C73089   6.974  10.154   5.018 -0.0317 -0.3433 -0.5063
  542MOL0     C73090   7.335   9.975   5.195  0.0466 -0.6773  0.4814
  542MOL0     C73091   7.374  10.077   5.280 -0.4169  0.6234  0.4089
  542MOL0     C73092   7.510  10.078   5.328 -0.4235  0.2603 -0.1083
  542MOL0     C73093   7.597   9.963   5.313 -1.1048  0.1054  0.0428
  542MOL0     O73094   7.726   9.959   5.367  0.3891 -0.1257 -0.0055
  542MOL0     C73095   7.807   9.841   5.368 -0.0860  0.2648  0.1773
  542MOL0     C73096   7.931   9.895   5.430  0.1135  1.0770 -0.7242
  542MOL0     C73097   8.007  10.000   5.348 -0.4278  0.3385 -0.9154
  542MOL0     C73098   8.092   9.941   5.236  0.5458 -0.5322  0.0604
  542MOL0     C73099   8.105  10.040   5.126 -0.4425  0.3778  0.0838
  542MOL0     C73100   8.115  10.130   5.041 -0.8694  1.5060  0.0534
  542MOL0     C73101   7.554   9.868   5.220  0.5896 -0.0663 -0.3657
  542MOL0     C73102   7.427   9.875   5.160  0.1014  0.2042  0.0087
  542MOL0     H73103   6.892   9.947   5.269  0.7225 -1.2825 -0.4509
  542MOL0     H73104   6.676   9.966   5.154 -0.8037  2.2254  0.9358
  542MOL0     H73105   6.662  10.157   4.743  0.7569 -0.2594 -0.0461
  542MOL0     H73106   6.695   9.987   4.797 -2.2332 -1.7046 -1.2078
  542MOL0     H73107   6.498   9.991   4.657  0.7356  1.4669 -0.5299
  542MOL0     H73108   6.435   9.971   4.818  2.3027  0.3099  2.6823
  542MOL0     H73109   6.400  10.201   4.859 -0.1997  1.9396 -0.1620
  542MOL0     H73110   6.447  10.247   4.685 -1.3192 -1.5570 -2.1095
  542MOL0     H73111   6.289  10.084   4.607  3.7516 -3.5803  1.5714
  542MOL0     H73112   6.220  10.070   4.777  2.1404 -2.1042 -1.6527
  542MOL0     H73113   6.168  10.290   4.799  3.5749  1.6232 -0.6836
  542MOL0     H73114   6.215  10.336   4.632  0.3992  1.0331  0.3075
  542MOL0     H73115   6.017  10.189   4.540 -0.7458  0.8805 -0.2323
  542MOL0     H73116   6.005  10.123   4.701 -0.2667  1.1467  0.8321
  542MOL0     H73117   5.916  10.343   4.779 -1.0670  0.0405  0.0926
  542MOL0     H73118   5.935  10.400   4.613  3.0566 -0.6410 -0.9710
  542MOL0     H73119   5.770  10.174   4.714  3.3991 -0.5800 -0.4467
  542MOL0     H73120   5.784  10.209   4.538 -0.9644 -0.7772  0.3344
  542MOL0     H73121   5.695  10.525   4.559  1.5104 -0.2119  1.5510
  542MOL0     H73122   5.313  10.553   4.627  0.1254  1.2350 -3.8625
  542MOL0     H73123   5.427  10.659   4.716 -0.9820  1.6106 -0.3430
  542MOL0     H73124   5.537  10.679   4.473  0.7882 -2.3403 -0.5899
  542MOL0     H73125   5.377  10.748   4.462  1.9374  0.3577 -2.2899
  542MOL0     H73126   5.439  10.463   4.390 -2.3483 -0.4101  1.7059
  542MOL0     H73127   5.403  10.596   4.272  0.6681  2.4348  1.0135
  542MOL0     H73128   5.206  10.526   4.278  0.4583 -1.3397  0.4950
  542MOL0     H73129   5.188  10.565   4.456  1.8262  2.6197  0.4713
  542MOL0     H73130   4.987  10.453   4.463 -0.1595  0.2942 -0.4656
  542MOL0     H73131   4.766  10.422   4.481  2.9046 -3.3192  1.7531
  542MOL0     H73132   4.719  10.425   4.301 -2.5638  1.6076  2.3657
  542MOL0     H73133   4.661  10.301   4.399  0.8776 -1.0545 -1.3288
  542MOL0     H73134   4.432  10.298   4.128 -0.9088  0.6754  1.9194
  542MOL0     H73135   4.203  10.202   4.105  0.2789  1.3440 -1.0196
  542MOL0     H73136   4.022  10.123   4.081  3.4746  0.0986  2.5345
  542MOL0     H73137   4.084  10.059   3.924 -0.2322 -0.1924 -0.2192
  542MOL0     H73138   3.956   9.855   3.950  0.2230  0.7607 -1.3981
  542MOL0     H73139   3.872   9.920   4.100 -0.6314 -0.5752 -0.8009
  542MOL0     H73140   3.863  10.006   3.816 -0.1151  0.4700  0.0620
  542MOL0     H73141   3.821  10.123   3.949 -0.1454  0.1413  1.5816
  542MOL0     H73142   3.682   9.863   3.882  0.7815 -0.9978  0.8554
  542MOL0     H73143   3.654   9.958   4.035 -0.3980  1.3174 -0.7685
  542MOL0     H73144   3.623  10.062   3.756  0.3571  1.5986  0.1845
  542MOL0     H73145   3.564  10.143   3.905 -0.5404  0.4177 -1.7576
  542MOL0     H73146   3.361  10.046   3.787 -1.2158  0.6740  2.9320
  542MOL0     H73147   3.451   9.894   3.770  0.3168 -0.2217 -0.3814
  542MOL0     H73148   3.404  10.015   4.036  2.3257  0.3358 -1.2167
  542MOL0     H73149   3.426   9.842   3.981 -0.2526  0.0222  0.4121
  542MOL0     H73150   3.168  10.012   3.948  0.3043  1.9035  2.4161
  542MOL0     H73151   3.193   9.884   4.063  1.6067 -0.3697 -0.6270
  542MOL0     H73152   4.363   9.812   4.165 -1.0643  0.7822  1.8807
  542MOL0     H73153   4.553   9.896   4.243 -2.1199 -0.8631  1.8309
  542MOL0     H73154   5.022  10.007   4.218  0.3809  0.6342 -2.2477
  542MOL0     H73155   5.219  10.132   4.296  0.0521  1.6749  0.0573
  542MOL0     H73156   6.860  10.227   4.862  1.4489  2.1672  1.1181
  542MOL0     H73157   7.052  10.224   4.989 -1.5530  1.1429 -1.1762
  542MOL0     H73158   7.308  10.160   5.305 -1.5676 -0.6805  1.9557
  542MOL0     H73159   7.547  10.152   5.398  4.7080 -0.7554 -1.3817
  542MOL0     H73160   7.758   9.750   5.402 -1.6164 -0.3142 -3.1597
  542MOL0     H73161   7.837   9.826   5.263  2.4046  0.1086  0.8351
  542MOL0     H73162   7.994   9.807   5.447 -0.6863  1.0108  2.6914
  542MOL0     H73163   7.914   9.937   5.530  1.8339 -1.6244  0.8394
  542MOL0     H73164   8.064  10.060   5.420 -2.1362  1.1155 -0.1589
  542MOL0     H73165   7.941  10.068   5.293  1.0952  2.1904 -0.5962
  542MOL0     H73166   8.051   9.847   5.197  0.3713  0.5975 -2.6878
  542MOL0     H73167   8.188   9.906   5.277  0.4022 -1.3595 -0.2854
  542MOL0     H73168   8.134  10.202   4.964  2.9362  3.3353  2.4164
  542MOL0     H73169   7.623   9.793   5.184  1.1296  0.3333 -0.1772
  542MOL0     H73170   7.393   9.802   5.087 -0.7096  0.4463  0.1287
  543MOL0     O73171   2.443   7.916   8.824 -0.2023 -0.2639  0.5534
  543MOL0     C73172   2.518   7.830   8.788 -0.2656  1.2859  0.2420
  543MOL0     O73173   2.488   7.721   8.723  0.7153 -0.2173  1.1129
  543MOL0     C73174   2.358   7.684   8.730  0.7949 -0.5495  0.1762
  543MOL0     C73175   2.253   7.753   8.662  0.9466 -0.6716 -0.0373
  543MOL0     C73176   2.124   7.704   8.665  1.0117  1.1308  0.3004
  543MOL0     C73177   2.092   7.599   8.748  0.1885  1.0418 -0.4407
  543MOL0     O73178   1.970   7.536   8.762 -0.2716 -0.4641  0.2177
  543MOL0     C73179   1.853   7.604   8.715 -0.4430  0.0933  1.0601
  543MOL0     C73180   1.737   7.536   8.788  0.2224  0.4749  0.1371
  543MOL0     C73181   1.587   7.581   8.749 -0.1794  0.1698  0.6991
  543MOL0     C73182   1.556   7.533   8.611 -0.3825  0.0563  0.1904
  543MOL0     C73183   1.410   7.557   8.574  0.0837 -0.3765 -0.0607
  543MOL0     C73184   1.376   7.497   8.438 -0.9575 -0.1448  0.0395
  543MOL0     C73185   1.231   7.510   8.406 -0.1315  0.3812  0.4745
  543MOL0     C73186   1.160   7.393   8.475 -0.8589 -0.0710 -0.0806
  543MOL0     N73187   1.023   7.375   8.441 -0.1992  0.1225 -1.0077
  543MOL0     C73188   0.983   7.323   8.328  0.7601  0.5488 -0.1570
  543MOL0     C73189   0.849   7.308   8.339 -0.0882 -0.7710  0.5446
  543MOL0     C73190   0.761   7.238   8.238 -0.3924  0.6508  0.0531
  543MOL0     C73191   0.670   7.323   8.156  0.6072 -0.5195  0.9511
  543MOL0     C73192   0.583   7.251   8.065 -0.2873  0.4818  0.9722
  543MOL0     C73193   0.447   7.321   8.052  0.3648  1.3292  0.2993
  543MOL0     O73194   0.459   7.445   7.980 -0.6100  0.7168 -0.0606
  543MOL0     C73195   0.346   7.499   7.935 -0.2928 -0.9369  0.0048
  543MOL0     C73196   0.353   7.608   7.849 -0.0294  0.3188  0.9715
  543MOL0     C73197   0.226   7.683   7.815  0.0155 -0.1895 -0.1637
  543MOL0     C73198   0.243   7.779   7.708 -0.5998 -0.2311 -0.2099
  543MOL0     C73199   0.107   7.649   7.880  0.9211 -0.3059  0.0637
  543MOL0     C73200  -0.022   7.711   7.855  0.1691 -0.9630  0.1726
  543MOL0     O73201  -0.012   7.835   7.788  0.1278 -0.4737 -0.5189
  543MOL0     C73202  -0.119   7.899   7.734  0.0679 -0.2356 -0.4006
  543MOL0     C73203  -0.130   8.042   7.747 -0.6118  0.0042 -0.9180
  543MOL0     C73204  -0.235   8.111   7.689  0.2548 -0.1277 -0.4691
  543MOL0     C73205  -0.323   8.044   7.600  0.8793  0.9314  0.5678
  543MOL0     O73206  -0.427   8.131   7.551 -1.3333  0.6303 -0.3348
  543MOL0     C73207  -0.512   8.092   7.441 -0.7061 -0.2874 -0.0785
  543MOL0     C73208  -0.600   8.209   7.386 -0.3076  0.7973 -0.3924
  543MOL0     C73209  -0.716   8.176   7.298  0.5708 -0.3327 -0.0970
  543MOL0     C73210  -0.803   8.058   7.323  0.1144 -0.2772 -0.2802
  543MOL0     C73211  -0.938   8.062   7.242  0.2820 -0.0298 -0.2076
  543MOL0     C73212  -1.050   8.170   7.293 -0.0584  0.1783 -0.3998
  543MOL0     C73213  -1.182   8.159   7.218 -0.0600  0.0894  0.5663
  543MOL0     C73214  -1.291   8.260   7.252 -0.9722 -0.7704  0.2287
  543MOL0    Cl73215  -1.421   8.245   7.130  0.2274 -0.2981  0.0039
  543MOL0     C73216  -0.319   7.905   7.577 -1.0568  0.0681 -0.1536
  543MOL0     C73217  -0.211   7.836   7.643  0.2439 -0.4910  0.5178
  543MOL0     O73218  -0.120   7.666   7.908 -0.2168  0.4819 -0.3364
  543MOL0     C73219   0.106   7.528   7.957 -0.4389  0.5106  0.0790
  543MOL0     C73220   0.219   7.459   7.981 -0.5873  0.2913  0.3759
  543MOL0     N73221   0.811   7.379   8.458  0.4854  0.1361 -0.9912
  543MOL0     N73222   0.917   7.409   8.528 -0.5306  0.4698 -1.2855
  543MOL0     C73223   2.195   7.527   8.807  0.1732  0.3283 -0.9982
  543MOL0     C73224   2.325   7.567   8.792  0.5544 -0.4430 -0.3710
  543MOL0     C73225   2.672   7.855   8.822  0.5194  0.4652 -0.0391
  543MOL0     C73226   2.767   7.772   8.761 -0.3820  0.0379  0.1030
  543MOL0     C73227   2.904   7.803   8.778 -0.5212 -0.6565 -0.6097
  543MOL0     C73228   2.944   7.901   8.874  0.2874 -0.1855  0.2693
  543MOL0     O73229   3.071   7.943   8.905 -0.7777  0.0576 -0.4231
  543MOL0     C73230   3.176   7.894   8.817  0.9212 -0.7739 -0.5361
  543MOL0     C73231   3.310   7.975   8.825  0.5101  0.1888 -0.3216
  543MOL0     C73232   3.294   8.125   8.806 -0.0021 -0.0681  0.6560
  543MOL0     C73233   3.392   8.207   8.886 -1.1747 -0.5656 -0.2092
  543MOL0     C73234   3.528   8.209   8.826  0.9126  0.4798  0.3212
  543MOL0     C73235   3.641   8.211   8.795  0.4635  0.5773 -0.7568
  543MOL0     C73236   2.845   7.984   8.933  0.0904  0.7693 -0.2637
  543MOL0     C73237   2.709   7.958   8.908 -0.1318 -0.8230  0.0983
  543MOL0     H73238   2.273   7.840   8.600 -4.2540  1.6376  1.0388
  543MOL0     H73239   2.044   7.748   8.605  0.1297  1.9748  2.0028
  543MOL0     H73240   1.856   7.714   8.720 -0.4458  0.3725 -2.2773
  543MOL0     H73241   1.851   7.592   8.606  3.4676  0.1258  0.8718
  543MOL0     H73242   1.745   7.428   8.774 -0.6737 -0.4536  5.0677
  543MOL0     H73243   1.742   7.549   8.896 -1.3912 -1.6964  0.5434
  543MOL0     H73244   1.518   7.528   8.816 -2.9625  0.5532 -1.6866
  543MOL0     H73245   1.572   7.687   8.773 -1.8989  0.3932 -1.1092
  543MOL0     H73246   1.613   7.588   8.535  0.1933 -2.8921 -1.6394
  543MOL0     H73247   1.593   7.431   8.605  0.2773  0.1590  1.8471
  543MOL0     H73248   1.350   7.516   8.656 -2.4861  1.1876 -1.0498
  543MOL0     H73249   1.383   7.663   8.582 -3.6244 -1.2195  0.0978
  543MOL0     H73250   1.426   7.564   8.368  0.4829 -0.2268  0.9603
  543MOL0     H73251   1.417   7.397   8.419  2.9186  1.3526 -0.3079
  543MOL0     H73252   1.182   7.603   8.435 -1.8245 -0.5892  0.8788
  543MOL0     H73253   1.227   7.500   8.297  2.0165  0.3539  0.3508
  543MOL0     H73254   1.151   7.413   8.582 -0.9914  0.3558 -0.1701
  543MOL0     H73255   1.218   7.303   8.454 -0.7104  0.4419 -2.0369
  543MOL0     H73256   1.040   7.289   8.243 -0.1863 -2.6078  0.3196
  543MOL0     H73257   0.815   7.179   8.164 -0.1127 -0.7270  1.2967
  543MOL0     H73258   0.710   7.166   8.302  1.1207  1.6025  2.5062
  543MOL0     H73259   0.726   7.404   8.107  0.1243 -1.5724 -1.4870
  543MOL0     H73260   0.605   7.371   8.230  3.4044  2.8759  1.4926
  543MOL0     H73261   0.570   7.152   8.110 -2.4786  0.6455  0.7749
  543MOL0     H73262   0.622   7.246   7.963 -0.5212  0.3881  0.8853
  543MOL0     H73263   0.384   7.332   8.141 -0.7995  0.4053 -0.3747
  543MOL0     H73264   0.382   7.260   7.988 -0.0574  1.8523  0.2253
  543MOL0     H73265   0.453   7.639   7.822  0.5134 -0.1234  2.4137
  543MOL0     H73266   0.225   7.884   7.734 -1.5897 -0.0346 -1.5628
  543MOL0     H73267   0.344   7.768   7.668 -1.4988 -1.7435 -2.2305
  543MOL0     H73268   0.186   7.764   7.616  3.0404  1.7570 -3.0656
  543MOL0     H73269  -0.060   8.093   7.814 -0.0662 -2.4953  0.5196
  543MOL0     H73270  -0.243   8.217   7.711 -0.5929  0.0187 -1.4129
  543MOL0     H73271  -0.446   8.062   7.359  1.9685  3.5450  0.4063
  543MOL0     H73272  -0.581   8.015   7.479 -0.7985 -0.4335 -0.5391
  543MOL0     H73273  -0.642   8.251   7.478 -0.6134  0.8967 -0.5753
  543MOL0     H73274  -0.536   8.286   7.342 -1.1403  0.1521 -2.8916
  543MOL0     H73275  -0.667   8.158   7.202  0.3314 -2.0582  0.0676
  543MOL0     H73276  -0.781   8.264   7.298  0.7979 -0.0207  3.4542
  543MOL0     H73277  -0.755   7.963   7.302  1.1356  0.3901 -1.0633
  543MOL0     H73278  -0.835   8.056   7.428  1.5372  0.8516  0.2108
  543MOL0     H73279  -0.995   7.968   7.245  0.6515 -0.3283 -1.7936
  543MOL0     H73280  -0.904   8.070   7.139 -0.8567 -0.3623 -0.6303
  543MOL0     H73281  -1.075   8.129   7.391 -0.5602  0.2708 -0.4871
  543MOL0     H73282  -1.017   8.275   7.295 -0.0652  0.3422 -3.6472
  543MOL0     H73283  -1.224   8.060   7.240  0.2202 -0.0338  0.5657
  543MOL0     H73284  -1.158   8.169   7.111  2.8786  2.4428  1.3014
  543MOL0     H73285  -1.258   8.365   7.254 -4.6381  0.6109 -2.0674
  543MOL0     H73286  -1.330   8.244   7.353 -0.2494  1.4421  0.9165
  543MOL0     H73287  -0.398   7.857   7.520  0.2238 -1.1927 -0.9345
  543MOL0     H73288  -0.204   7.728   7.639 -1.7601 -0.6922  1.1123
  543MOL0     H73289   0.016   7.496   8.009 -0.2256 -1.4924 -0.7328
  543MOL0     H73290   0.198   7.382   8.055  2.4226  1.3622  2.5576
  543MOL0     H73291   2.165   7.448   8.876 -1.7330  2.2445  0.4966
  543MOL0     H73292   2.405   7.522   8.850  1.1537  1.9126  0.7641
  543MOL0     H73293   2.735   7.679   8.717  0.3926 -0.0864 -0.2035
  543MOL0     H73294   2.972   7.730   8.736 -2.9008 -2.7640 -1.0724
  543MOL0     H73295   3.193   7.792   8.850 -0.1390 -0.4474  1.1460
  543MOL0     H73296   3.148   7.895   8.711  0.1481  0.6296 -0.3498
  543MOL0     H73297   3.376   7.926   8.752 -1.1687 -2.4981 -0.1969
  543MOL0     H73298   3.350   7.954   8.925  0.3312 -2.0787 -0.6671
  543MOL0     H73299   3.193   8.153   8.838  0.4857  1.4331  0.9872
  543MOL0     H73300   3.310   8.150   8.701  1.3089 -0.5077  0.7328
  543MOL0     H73301   3.398   8.172   8.990 -0.6398  2.5571  0.8950
  543MOL0     H73302   3.350   8.308   8.880  1.8641  0.7120 -1.7580
  543MOL0     H73303   3.746   8.207   8.777  0.6177  1.4415 -0.0809
  543MOL0     H73304   2.882   8.071   8.986  2.6070 -0.5567  0.2713
  543MOL0     H73305   2.644   8.018   8.971  1.3975 -0.8172  1.7401
  544MOL0     O73306   4.758   6.976   7.285  0.2158 -0.4224 -0.3944
  544MOL0     C73307   4.830   6.924   7.365 -0.3256 -0.4307 -0.0369
  544MOL0     O73308   4.797   6.893   7.496  0.4374 -0.2364  0.7809
  544MOL0     C73309   4.675   6.912   7.551  1.1895  0.4079 -0.5187
  544MOL0     C73310   4.552   6.940   7.490 -0.1065 -0.1073  0.6488
  544MOL0     C73311   4.433   6.952   7.562 -0.2136 -0.2154  0.5172
  544MOL0     C73312   4.431   6.926   7.702  0.0423 -0.6600 -0.2280
  544MOL0     O73313   4.326   6.933   7.790  0.0130  0.3170 -0.3860
  544MOL0     C73314   4.196   6.893   7.742  0.0436 -0.5344 -0.7806
  544MOL0     C73315   4.084   6.911   7.849 -0.9192 -0.9226 -0.7317
  544MOL0     C73316   3.947   6.860   7.814 -0.7131  1.4908 -0.8555
  544MOL0     C73317   3.854   6.894   7.926 -0.2860  0.0616 -0.5154
  544MOL0     C73318   3.707   6.862   7.890 -0.3283  0.2893  0.4804
  544MOL0     C73319   3.656   6.971   7.799  0.4615  0.4697 -0.5957
  544MOL0     C73320   3.504   6.966   7.791 -0.2102 -1.1668  0.2691
  544MOL0     C73321   3.457   6.843   7.710  0.0724 -0.1093  0.2966
  544MOL0     N73322   3.309   6.838   7.699  0.5541 -1.2942  0.7645
  544MOL0     C73323   3.226   6.943   7.643 -0.5789  0.0062 -0.2760
  544MOL0     C73324   3.103   6.903   7.669 -0.3959  0.2206  0.1222
  544MOL0     C73325   2.992   6.979   7.605  0.5760  0.1485  1.5061
  544MOL0     C73326   2.856   6.967   7.684  0.1612 -0.2753  0.5742
  544MOL0     C73327   2.863   7.074   7.793 -0.9946 -0.0461  0.6822
  544MOL0     C73328   2.723   7.088   7.850  0.2663  0.1636 -0.0469
  544MOL0     O73329   2.635   7.131   7.749 -0.7858 -1.0735  0.3496
  544MOL0     C73330   2.505   7.140   7.785  0.1217  0.3730  0.1349
  544MOL0     C73331   2.450   7.112   7.908  0.4250  0.3570  0.0939
  544MOL0     C73332   2.310   7.136   7.941  0.4656  0.0877 -1.0039
  544MOL0     C73333   2.270   7.128   8.084  0.2383  0.2159 -0.4075
  544MOL0     C73334   2.229   7.186   7.841 -0.2967 -0.4528  0.0420
  544MOL0     C73335   2.079   7.200   7.860 -0.0662  0.0801 -0.4288
  544MOL0     O73336   2.009   7.269   7.754  0.0875 -0.2388  0.2731
  544MOL0     C73337   1.873   7.275   7.766 -0.6763  0.1762 -0.5308
  544MOL0     C73338   1.817   7.398   7.735 -0.4532  0.5902 -0.2808
  544MOL0     C73339   1.677   7.410   7.727 -0.4306  0.0171  0.7450
  544MOL0     C73340   1.600   7.296   7.756 -0.1431  0.2399  0.0917
  544MOL0     O73341   1.469   7.299   7.743  0.6106 -0.5187 -0.3545
  544MOL0     C73342   1.400   7.422   7.697  0.4074 -0.0573 -1.0434
  544MOL0     C73343   1.247   7.420   7.711 -0.7157 -0.2128  0.1925
  544MOL0     C73344   1.197   7.562   7.665  0.3732 -0.0747 -0.0396
  544MOL0     C73345   1.049   7.583   7.683  0.2059 -0.0018 -0.3080
  544MOL0     C73346   0.998   7.708   7.620 -0.4886 -0.9341  0.9159
  544MOL0     C73347   0.853   7.741   7.660  0.0347  0.3728  0.0458
  544MOL0     C73348   0.781   7.844   7.572  0.5496  0.3382  0.4996
  544MOL0     C73349   0.642   7.857   7.624 -0.2275 -0.0676 -0.0444
  544MOL0    Cl73350   0.560   7.972   7.520  0.1638  0.1772  0.2408
  544MOL0     C73351   1.664   7.177   7.782  0.3159  0.4439  0.0827
  544MOL0     C73352   1.794   7.161   7.785  0.4583 -0.0940  0.0076
  544MOL0     O73353   2.027   7.138   7.951  0.1522  0.1795  0.1577
  544MOL0     C73354   2.281   7.218   7.714 -0.1673  0.6232  0.7661
  544MOL0     C73355   2.414   7.199   7.686  0.0889  1.8041  0.1225
  544MOL0     N73356   3.101   6.786   7.744 -0.4874 -0.0257 -0.1207
  544MOL0     N73357   3.230   6.752   7.763 -0.1071 -0.3970  0.3988
  544MOL0     C73358   4.550   6.907   7.766  0.3342  0.1616 -0.1729
  544MOL0     C73359   4.668   6.898   7.695 -0.8842  0.3749 -0.0272
  544MOL0     C73360   4.965   6.894   7.329  0.1168  0.6964 -0.4194
  544MOL0     C73361   5.014   6.932   7.203 -0.0249 -0.4955  0.1907
  544MOL0     C73362   5.151   6.905   7.173 -0.3754  0.3126 -0.8389
  544MOL0     C73363   5.225   6.827   7.256 -0.4369  0.2229 -1.4653
  544MOL0     O73364   5.353   6.791   7.217  0.4393  0.7283  0.3319
  544MOL0     C73365   5.455   6.880   7.259 -0.4395 -0.0469 -0.2818
  544MOL0     C73366   5.584   6.874   7.178  0.0906 -0.1678  1.0730
  544MOL0     C73367   5.619   6.732   7.129  0.3786 -0.0814 -0.3300
  544MOL0     C73368   5.641   6.639   7.252  0.0108  0.3559  0.2920
  544MOL0     C73369   5.695   6.510   7.211 -0.5379  0.3834  0.9822
  544MOL0     C73370   5.738   6.402   7.163 -0.3298 -0.8391 -0.5680
  544MOL0     C73371   5.169   6.775   7.370 -0.0303 -0.1192 -0.1625
  544MOL0     C73372   5.044   6.811   7.413 -0.4073 -0.4900  1.0344
  544MOL0     H73373   4.553   6.944   7.381  0.3032 -2.6819  0.4953
  544MOL0     H73374   4.338   6.958   7.509 -0.1334  0.0053  0.3990
  544MOL0     H73375   4.174   6.958   7.658  3.4909  1.1743 -0.5317
  544MOL0     H73376   4.205   6.790   7.707  1.1698 -0.8578  0.3432
  544MOL0     H73377   4.119   6.846   7.930 -1.8535  0.7193  1.0562
  544MOL0     H73378   4.083   7.017   7.873 -0.5618 -1.3273  1.1994
  544MOL0     H73379   3.911   6.913   7.726  0.7741  0.5582 -2.0671
  544MOL0     H73380   3.949   6.751   7.806  0.9345  1.5438 -1.6470
  544MOL0     H73381   3.873   6.827   8.011  2.6787 -0.2020 -1.2581
  544MOL0     H73382   3.866   6.996   7.962  1.7857 -1.2492  3.0029
  544MOL0     H73383   3.703   6.763   7.844  0.3179 -0.4465  1.9358
  544MOL0     H73384   3.653   6.858   7.985  1.5149 -0.7304  1.5440
  544MOL0     H73385   3.689   7.068   7.838  2.8566 -0.9936  1.3285
  544MOL0     H73386   3.701   6.962   7.700  1.5229 -0.0299 -0.0793
  544MOL0     H73387   3.460   6.979   7.890 -0.1740 -0.9428  0.2560
  544MOL0     H73388   3.477   7.051   7.727  1.5526  0.0642  1.0748
  544MOL0     H73389   3.498   6.748   7.747  2.9675 -0.3676 -3.1170
  544MOL0     H73390   3.490   6.860   7.608  0.1214 -1.3220  0.0902
  544MOL0     H73391   3.254   7.036   7.595  1.1321 -0.7728 -0.8629
  544MOL0     H73392   3.021   7.083   7.593  0.0701 -0.0030 -2.5015
  544MOL0     H73393   2.978   6.943   7.503 -0.9091  1.6227  1.1504
  544MOL0     H73394   2.830   6.871   7.728 -1.8463  0.6751  1.6305
  544MOL0     H73395   2.771   6.992   7.620 -0.2775 -1.9002  0.4873
  544MOL0     H73396   2.903   7.167   7.751  1.3354 -0.5815  1.5551
  544MOL0     H73397   2.929   7.035   7.871 -1.2179 -0.6128  0.5890
  544MOL0     H73398   2.724   7.155   7.936 -1.3595 -0.5761  0.5834
  544MOL0     H73399   2.683   6.995   7.890 -0.3458  1.1244  1.6384
  544MOL0     H73400   2.522   7.083   7.985 -0.1692 -2.0412 -0.1590
  544MOL0     H73401   2.232   7.027   8.102 -0.6404  0.4233 -1.0075
  544MOL0     H73402   2.360   7.144   8.144 -0.4808  1.9293  0.2801
  544MOL0     H73403   2.193   7.193   8.126  1.9931  0.6178  2.4772
  544MOL0     H73404   1.886   7.481   7.725  1.8461 -1.1230  0.6831
  544MOL0     H73405   1.639   7.509   7.701  0.7643  0.2336 -0.2632
  544MOL0     H73406   1.430   7.511   7.753 -3.3508  1.3092 -0.9337
  544MOL0     H73407   1.433   7.439   7.594  1.6940  0.1067 -0.6225
  544MOL0     H73408   1.204   7.354   7.635  0.1350 -1.2074  0.5494
  544MOL0     H73409   1.218   7.383   7.810  0.8966  2.4801  1.7977
  544MOL0     H73410   1.225   7.577   7.560  2.8666  0.4318  0.6214
  544MOL0     H73411   1.240   7.642   7.727  0.2500 -0.8382  1.0537
  544MOL0     H73412   1.001   7.500   7.631 -0.7602  0.6846 -0.5368
  544MOL0     H73413   1.031   7.584   7.791  1.0995  1.3610 -0.1340
  544MOL0     H73414   1.017   7.697   7.512  1.1383  1.8337  0.8166
  544MOL0     H73415   1.056   7.794   7.653 -0.7075  0.3765 -1.7887
  544MOL0     H73416   0.795   7.648   7.662  1.0043 -0.3254  3.2900
  544MOL0     H73417   0.842   7.770   7.765 -2.5740 -0.2579  0.0264
  544MOL0     H73418   0.789   7.810   7.469  0.3139 -1.9647  1.1920
  544MOL0     H73419   0.839   7.937   7.577  0.9146  0.2247 -1.2423
  544MOL0     H73420   0.652   7.899   7.724  1.0001 -0.7054  0.1225
  544MOL0     H73421   0.593   7.759   7.625 -0.4088  0.0282  0.4605
  544MOL0     H73422   1.601   7.090   7.799 -1.3098  1.4108 -0.7595
  544MOL0     H73423   1.836   7.061   7.778 -2.9384 -1.5851 -1.3118
  544MOL0     H73424   2.225   7.251   7.628  1.6642  1.6080 -0.1168
  544MOL0     H73425   2.464   7.226   7.594  2.1896 -0.1274  0.6147
  544MOL0     H73426   4.554   6.889   7.873  0.0103 -0.9441 -0.3309
  544MOL0     H73427   4.764   6.892   7.744 -0.8696 -0.2814 -0.1311
  544MOL0     H73428   4.956   6.995   7.136  0.5889 -0.5018 -0.3556
  544MOL0     H73429   5.195   6.926   7.075  1.9966 -2.1105 -0.4389
  544MOL0     H73430   5.419   6.982   7.254  1.1244  0.5086 -1.1840
  544MOL0     H73431   5.481   6.871   7.365  0.0219  0.4897 -0.3424
  544MOL0     H73432   5.669   6.929   7.219  1.0903  1.0032 -2.2171
  544MOL0     H73433   5.564   6.933   7.087  0.0721 -0.8109  0.6507
  544MOL0     H73434   5.711   6.733   7.069  1.3913 -0.6106  1.1617
  544MOL0     H73435   5.535   6.697   7.068  3.1186 -3.5628 -2.5150
  544MOL0     H73436   5.543   6.624   7.299 -0.1088  0.9372  0.2294
  544MOL0     H73437   5.713   6.690   7.316 -1.7447  1.7299  1.2520
  544MOL0     H73438   5.775   6.312   7.117  0.2458 -0.2358 -1.3265
  544MOL0     H73439   5.232   6.708   7.429 -0.2395  0.6965  1.0136
  544MOL0     H73440   5.011   6.779   7.512 -1.6103 -0.6225  0.6015
  545MOL0     O73441   4.529   6.281   9.009  0.4579 -0.5881 -0.9881
  545MOL0     C73442   4.571   6.209   9.104 -0.6864 -0.6220  0.4739
  545MOL0     O73443   4.504   6.100   9.150 -0.2101 -0.0334 -0.1553
  545MOL0     C73444   4.363   6.105   9.159 -0.0237 -0.3978  0.4670
  545MOL0     C73445   4.308   5.981   9.176  0.3669  0.8463  0.8577
  545MOL0     C73446   4.167   5.969   9.179  0.2372  0.5034 -0.0354
  545MOL0     C73447   4.086   6.081   9.187  0.8886 -0.0885 -0.5605
  545MOL0     O73448   3.956   6.064   9.175 -0.4009 -0.8431  1.1376
  545MOL0     C73449   3.879   6.040   9.292  0.8797 -0.4976 -0.1685
  545MOL0     C73450   3.773   5.937   9.250  1.0645  0.7269  0.3155
  545MOL0     C73451   3.834   5.796   9.257  0.6179 -0.0486  0.2240
  545MOL0     C73452   3.729   5.685   9.239  0.4545 -0.7045  0.2692
  545MOL0     C73453   3.785   5.541   9.222  0.0346  0.0356 -0.5165
  545MOL0     C73454   3.686   5.442   9.174 -0.4948  0.0809  0.0872
  545MOL0     C73455   3.546   5.455   9.233 -0.5835 -0.4998 -0.0088
  545MOL0     C73456   3.471   5.321   9.228  0.3897  0.0048 -0.2068
  545MOL0     N73457   3.322   5.341   9.240 -0.6916  0.4254  0.4392
  545MOL0     C73458   3.229   5.261   9.176  0.1304  0.5461  0.2056
  545MOL0     C73459   3.108   5.303   9.211 -0.2717  0.0332 -0.0993
  545MOL0     C73460   2.981   5.266   9.144 -0.0204  0.4325  0.4463
  545MOL0     C73461   2.912   5.376   9.067  0.9944 -0.1334 -0.1447
  545MOL0     C73462   2.778   5.338   9.013 -0.0386  0.0699 -0.1714
  545MOL0     C73463   2.680   5.290   9.128 -1.0331  0.4639  0.1548
  545MOL0     O73464   2.544   5.289   9.088 -0.1566  0.4778  0.5255
  545MOL0     C73465   2.445   5.273   9.176  0.3102  0.5718 -0.0161
  545MOL0     C73466   2.452   5.247   9.316  0.1626  0.4372  0.1883
  545MOL0     C73467   2.331   5.250   9.392 -0.3046 -0.2467 -0.0632
  545MOL0     C73468   2.349   5.232   9.539 -0.4323 -0.0365  0.7479
  545MOL0     C73469   2.203   5.279   9.333 -0.5967 -0.3549 -1.0941
  545MOL0     C73470   2.071   5.289   9.401 -0.2528  0.4167  0.4881
  545MOL0     O73471   2.058   5.337   9.527 -0.0102 -0.0792  0.1407
  545MOL0     C73472   1.942   5.306   9.588  0.1023 -0.6952  0.0352
  545MOL0     C73473   1.917   5.187   9.661 -0.3035 -0.6164  0.5781
  545MOL0     C73474   1.803   5.161   9.719 -0.4289  0.3471  0.4222
  545MOL0     C73475   1.702   5.260   9.710  0.5618  0.6862  0.0271
  545MOL0     O73476   1.592   5.225   9.785 -0.1060 -0.0515 -0.4865
  545MOL0     C73477   1.468   5.296   9.766  0.2863  0.1706  0.1172
  545MOL0     C73478   1.381   5.264   9.884 -0.9568 -0.2711  0.0559
  545MOL0     C73479   1.245   5.199   9.856  0.6971 -0.0925 -0.2133
  545MOL0     C73480   1.162   5.170   9.982 -0.1034  0.2851 -0.0612
  545MOL0     C73481   1.031   5.092   9.962  0.2869 -0.3196 -0.4337
  545MOL0     C73482   0.950   5.055  10.093  0.2663 -0.4059 -0.0263
  545MOL0     C73483   0.807   5.009  10.053 -0.2720 -0.0678  0.2697
  545MOL0     C73484   0.723   4.981  10.172 -1.0062  0.2405 -0.2536
  545MOL0    Cl73485   0.559   4.986  10.120  0.0064  0.2927 -0.2941
  545MOL0     C73486   1.712   5.369   9.623 -0.1053 -0.4861 -0.2905
  545MOL0     C73487   1.834   5.397   9.562 -0.4676  0.1441  0.4350
  545MOL0     O73488   1.976   5.249   9.329 -0.0514  0.3127 -0.0846
  545MOL0     C73489   2.204   5.269   9.189  0.9301  0.2763 -0.6219
  545MOL0     C73490   2.320   5.266   9.119  0.5520  0.0436 -0.2214
  545MOL0     N73491   3.130   5.395   9.309  0.5381  0.1541 -0.5266
  545MOL0     N73492   3.253   5.415   9.330  0.7753  0.1854  0.1695
  545MOL0     C73493   4.141   6.210   9.173  0.0759  0.5155 -0.3414
  545MOL0     C73494   4.279   6.229   9.173 -1.0277  0.3093  0.0006
  545MOL0     C73495   4.713   6.234   9.148  0.0900  0.1707 -0.2141
  545MOL0     C73496   4.765   6.142   9.249  0.1470 -0.8748  0.3693
  545MOL0     C73497   4.898   6.156   9.297  0.0924 -0.2448  0.3876
  545MOL0     C73498   4.979   6.260   9.244  0.4813 -0.4681  0.0526
  545MOL0     O73499   5.107   6.264   9.288  0.5799 -0.3985 -0.0108
  545MOL0     C73500   5.179   6.379   9.251 -0.8497  0.0756  0.0096
  545MOL0     C73501   5.320   6.360   9.303  0.2189  0.7674 -0.5749
  545MOL0     C73502   5.328   6.346   9.458  0.0219 -0.2843 -0.5495
  545MOL0     C73503   5.435   6.433   9.528  0.4309  0.2225 -0.0731
  545MOL0     C73504   5.567   6.409   9.470 -0.0554  0.2768 -0.6040
  545MOL0     C73505   5.681   6.387   9.426 -0.3035  0.7735  0.3132
  545MOL0     C73506   4.921   6.348   9.144 -0.2306 -0.1791 -0.9230
  545MOL0     C73507   4.791   6.336   9.103 -0.2551 -1.1172 -0.1712
  545MOL0     H73508   4.371   5.893   9.177  2.4851  2.2413 -0.9443
  545MOL0     H73509   4.112   5.876   9.182 -1.1930  1.3105  2.9168
  545MOL0     H73510   3.944   6.005   9.373 -1.8537  0.3234  2.5898
  545MOL0     H73511   3.832   6.133   9.324 -1.7535 -1.3515 -1.2955
  545MOL0     H73512   3.695   5.949   9.326  1.6607  0.0759  1.0445
  545MOL0     H73513   3.725   5.955   9.153  1.1459 -0.0669  0.1184
  545MOL0     H73514   3.912   5.785   9.181  1.7968  0.7956  1.2797
  545MOL0     H73515   3.886   5.772   9.350  0.2947 -3.7216 -0.3729
  545MOL0     H73516   3.675   5.710   9.331 -1.2491  1.9375 -1.3030
  545MOL0     H73517   3.660   5.706   9.157  0.1978  0.1981  0.6974
  545MOL0     H73518   3.872   5.542   9.157 -1.3369 -2.9706 -2.6262
  545MOL0     H73519   3.822   5.520   9.323 -0.0081 -1.3233 -0.7698
  545MOL0     H73520   3.690   5.432   9.065  1.7358 -0.9644  0.2109
  545MOL0     H73521   3.727   5.349   9.215 -0.7298 -0.8982 -1.7963
  545MOL0     H73522   3.561   5.487   9.336  1.6978  0.9917 -0.7127
  545MOL0     H73523   3.493   5.531   9.175 -0.4096 -0.6527 -0.3707
  545MOL0     H73524   3.504   5.260   9.312  1.0122  0.0554 -0.4103
  545MOL0     H73525   3.491   5.274   9.131 -0.7713 -0.6242 -0.1650
  545MOL0     H73526   3.249   5.191   9.095 -3.2936  1.6941 -1.8833
  545MOL0     H73527   2.997   5.181   9.077  0.0717  1.1831 -0.5068
  545MOL0     H73528   2.929   5.227   9.232  0.2065 -0.8111  0.0533
  545MOL0     H73529   2.983   5.399   8.987  1.0517 -0.3596 -0.1617
  545MOL0     H73530   2.906   5.466   9.128 -0.3878 -0.8894  0.9059
  545MOL0     H73531   2.785   5.251   8.946 -1.0785  0.7423 -1.1849
  545MOL0     H73532   2.732   5.428   8.972  0.0819  1.0429  1.7515
  545MOL0     H73533   2.684   5.352   9.219 -2.0712 -1.2508  1.4334
  545MOL0     H73534   2.710   5.193   9.168  5.6064  3.1175  3.2124
  545MOL0     H73535   2.540   5.222   9.375 -0.7177 -0.8650  0.9808
  545MOL0     H73536   2.324   5.319   9.600 -2.4171  0.2862 -0.4537
  545MOL0     H73537   2.286   5.145   9.560  2.1810 -2.4672 -0.7216
  545MOL0     H73538   2.452   5.197   9.554 -0.3456 -1.1831 -1.8769
  545MOL0     H73539   1.994   5.111   9.672  1.0715  0.6029 -0.1638
  545MOL0     H73540   1.798   5.070   9.778  0.6923  1.0461  1.6432
  545MOL0     H73541   1.489   5.403   9.764 -0.9828  0.4304 -0.3639
  545MOL0     H73542   1.409   5.280   9.676 -3.7373 -1.2144  2.7170
  545MOL0     H73543   1.432   5.197   9.954  1.8762  2.4900  0.8340
  545MOL0     H73544   1.360   5.360   9.932  0.8388 -0.0765  0.5293
  545MOL0     H73545   1.243   5.104   9.801 -0.9398 -0.9019  1.1380
  545MOL0     H73546   1.189   5.274   9.800  0.6726 -1.4370 -2.0748
  545MOL0     H73547   1.219   5.110  10.054 -0.6515  1.3779  1.3386
  545MOL0     H73548   1.137   5.266  10.029  1.8907  1.0943 -0.5715
  545MOL0     H73549   1.052   4.993   9.920 -0.5962 -0.1071 -1.4247
  545MOL0     H73550   0.971   5.153   9.894 -0.7914  2.1910  2.5368
  545MOL0     H73551   0.997   4.972  10.146 -1.6848 -0.2422  2.1540
  545MOL0     H73552   0.941   5.138  10.164 -2.4391 -0.7778  0.1870
  545MOL0     H73553   0.806   4.913  10.001  1.2962 -0.4926  0.9717
  545MOL0     H73554   0.766   5.086   9.987 -1.2608 -1.0871 -0.3363
  545MOL0     H73555   0.742   5.057  10.249  0.8100  0.5747 -0.9941
  545MOL0     H73556   0.754   4.889  10.223 -0.9682  1.2914  1.7268
  545MOL0     H73557   1.625   5.433   9.608  0.0717 -0.3073 -0.5701
  545MOL0     H73558   1.854   5.483   9.499 -2.9042  1.5802  1.4326
  545MOL0     H73559   2.107   5.270   9.140 -0.4437 -0.0737  1.9026
  545MOL0     H73560   2.307   5.267   9.011  0.5331  2.8442 -0.2759
  545MOL0     H73561   4.066   6.289   9.180  0.1492  0.6273 -0.7737
  545MOL0     H73562   4.315   6.331   9.180 -1.2303  0.4212 -0.5990
  545MOL0     H73563   4.704   6.066   9.297  1.7766 -0.4747  3.3351
  545MOL0     H73564   4.940   6.094   9.376  2.1554  3.0242  2.0843
  545MOL0     H73565   5.184   6.394   9.143 -0.8052  0.7005  0.0969
  545MOL0     H73566   5.135   6.462   9.306 -1.0044  0.5519 -0.8119
  545MOL0     H73567   5.373   6.451   9.272 -0.3461  0.0065 -4.1661
  545MOL0     H73568   5.375   6.277   9.257  2.0038  1.7982 -0.4173
  545MOL0     H73569   5.348   6.244   9.492  1.1171 -0.0963 -0.5934
  545MOL0     H73570   5.234   6.373   9.508  0.4971 -0.7250  0.6328
  545MOL0     H73571   5.440   6.409   9.635 -0.7604 -0.9437 -0.2513
  545MOL0     H73572   5.407   6.539   9.522  0.4462  0.3921  2.1222
  545MOL0     H73573   5.775   6.362   9.381 -0.8817 -0.8732 -0.0644
  545MOL0     H73574   4.988   6.423   9.102  1.2066  0.6398  2.5409
  545MOL0     H73575   4.743   6.411   9.040  1.3418  1.5090  1.5621
  546MOL0     O73576   0.198   8.636   5.698  0.0907  0.0419 -0.2550
  546MOL0     C73577   0.276   8.566   5.639 -0.3445  0.0577 -0.1193
  546MOL0     O73578   0.263   8.529   5.516  0.8987  0.2807  0.2443
  546MOL0     C73579   0.154   8.569   5.441  0.7995 -0.0061 -0.5780
  546MOL0     C73580   0.019   8.558   5.489  0.5023  0.6832  0.0401
  546MOL0     C73581  -0.086   8.613   5.406  0.1691 -0.5783 -0.3314
  546MOL0     C73582  -0.052   8.697   5.300  0.3341 -0.7743 -0.0712
  546MOL0     O73583  -0.151   8.761   5.225  0.1423 -0.3733  0.2244
  546MOL0     C73584  -0.234   8.679   5.138 -1.0261  0.2519  0.0630
  546MOL0     C73585  -0.382   8.718   5.127  0.4673 -0.4853  0.8437
  546MOL0     C73586  -0.400   8.874   5.117 -0.3704  0.0094  0.5758
  546MOL0     C73587  -0.530   8.889   5.043 -0.5152 -0.6479  0.0097
  546MOL0     C73588  -0.570   9.033   5.010 -0.0392  0.0252  0.3302
  546MOL0     C73589  -0.708   9.035   4.942 -0.6618  0.5973 -1.1229
  546MOL0     C73590  -0.764   9.170   4.907  0.1224 -0.7864  0.4738
  546MOL0     C73591  -0.896   9.173   4.839 -0.1926  0.6965 -0.0117
  546MOL0     N73592  -0.941   9.309   4.845 -0.5323 -0.0574 -0.1586
  546MOL0     C73593  -1.049   9.348   4.924 -0.5366  0.1379 -0.5384
  546MOL0     C73594  -1.075   9.480   4.891 -0.1758 -0.1996 -0.5194
  546MOL0     C73595  -1.172   9.573   4.965  0.7176  0.2359  0.4385
  546MOL0     C73596  -1.311   9.517   4.987 -0.1253 -0.5234  0.4139
  546MOL0     C73597  -1.377   9.603   5.094  0.3997  0.1639 -0.5247
  546MOL0     C73598  -1.532   9.574   5.108 -0.5512 -0.6029 -0.4652
  546MOL0     O73599  -1.538   9.464   5.193  0.1723  0.0678  0.6955
  546MOL0     C73600  -1.655   9.461   5.264  0.1287 -0.0916  0.6359
  546MOL0     C73601  -1.651   9.463   5.402 -0.3209 -0.6879 -0.7787
  546MOL0     C73602  -1.763   9.463   5.487  0.9051  0.1512  0.7278
  546MOL0     C73603  -1.735   9.447   5.628  1.4423  0.5944  0.1598
  546MOL0     C73604  -1.892   9.474   5.429  0.2093 -1.0968 -0.5029
  546MOL0     C73605  -2.015   9.466   5.508 -0.2161  0.8492  0.8957
  546MOL0     O73606  -2.138   9.433   5.439 -1.0245  0.5254 -0.6226
  546MOL0     C73607  -2.254   9.398   5.508 -0.3534  0.6895  0.4338
  546MOL0     C73608  -2.270   9.341   5.632 -0.0148  0.4111 -0.8290
  546MOL0     C73609  -2.388   9.298   5.701 -0.3145 -0.1645  0.4804
  546MOL0     C73610  -2.504   9.335   5.632  0.3397 -0.1190  0.1308
  546MOL0     O73611  -2.630   9.307   5.685 -0.7796  0.1792 -0.6995
  546MOL0     C73612  -2.644   9.283   5.824  0.1445 -0.2832 -1.0702
  546MOL0     C73613  -2.792   9.284   5.865 -0.0050 -0.3363  0.3277
  546MOL0     C73614  -2.862   9.213   5.753  0.2062 -0.1398  0.0209
  546MOL0     C73615  -3.013   9.194   5.772  0.2782 -0.7488  0.5124
  546MOL0     C73616  -3.062   9.080   5.854 -0.2640  0.8162 -0.1303
  546MOL0     C73617  -3.218   9.084   5.848 -0.3698  0.2781 -0.4617
  546MOL0     C73618  -3.271   9.037   5.988 -0.2337 -0.3405  0.3166
  546MOL0     C73619  -3.426   9.036   5.974  0.5307 -0.2810 -0.5376
  546MOL0    Cl73620  -3.473   9.051   6.151  0.1516  0.1398  0.0245
  546MOL0     C73621  -2.505   9.389   5.499  0.1690 -0.5357 -0.5078
  546MOL0     C73622  -2.376   9.418   5.438  0.4910  0.3896 -0.2097
  546MOL0     O73623  -2.010   9.498   5.625  0.2528  0.2668 -0.2822
  546MOL0     C73624  -1.898   9.483   5.287 -0.0473  0.7070  0.7819
  546MOL0     C73625  -1.782   9.469   5.208 -0.0578 -0.0498 -0.0366
  546MOL0     N73626  -0.987   9.506   4.785 -0.7217 -0.1683 -0.0244
  546MOL0     N73627  -0.911   9.408   4.761 -0.2333 -0.3245  0.2424
  546MOL0     C73628   0.075   8.711   5.259 -0.5881  0.6247  0.1807
  546MOL0     C73629   0.184   8.643   5.323 -0.1865 -0.1465 -0.5612
  546MOL0     C73630   0.400   8.522   5.700  0.1124  0.4274  0.6011
  546MOL0     C73631   0.493   8.436   5.635 -0.2264 -0.3509  0.8123
  546MOL0     C73632   0.606   8.390   5.697  0.2740 -0.0919 -0.1115
  546MOL0     C73633   0.640   8.438   5.823 -0.1114  0.2497  0.1912
  546MOL0     O73634   0.759   8.404   5.884 -0.9981 -0.0167 -0.0898
  546MOL0     C73635   0.855   8.321   5.822 -0.4804 -0.2930 -0.1279
  546MOL0     C73636   0.988   8.297   5.904 -0.0944 -0.5996  0.3558
  546MOL0     C73637   0.964   8.184   6.011  0.5532  0.8520  0.0215
  546MOL0     C73638   0.893   8.238   6.135  0.3539 -0.1785 -0.0353
  546MOL0     C73639   0.865   8.134   6.232  0.8933 -0.7436 -0.2266
  546MOL0     C73640   0.842   8.050   6.310  0.0941 -0.8788 -0.0996
  546MOL0     C73641   0.548   8.513   5.895 -0.2433  0.5821 -0.0626
  546MOL0     C73642   0.428   8.554   5.833 -0.2067 -0.0083 -0.6247
  546MOL0     H73643  -0.002   8.506   5.582 -1.5199  3.0877  1.0348
  546MOL0     H73644  -0.192   8.601   5.422  0.5124 -0.7676  2.2463
  546MOL0     H73645  -0.196   8.694   5.037 -0.5378  2.1120  0.4729
  546MOL0     H73646  -0.233   8.572   5.159 -1.6371 -0.3653 -2.7472
  546MOL0     H73647  -0.406   8.663   5.035  3.8487  0.1834 -0.6001
  546MOL0     H73648  -0.442   8.678   5.209  0.1135 -1.0822  0.2992
  546MOL0     H73649  -0.400   8.916   5.218 -1.1353 -1.7506  1.3646
  546MOL0     H73650  -0.315   8.915   5.062 -0.2561  0.5267  1.1297
  546MOL0     H73651  -0.525   8.823   4.957  0.1889 -0.8181  0.1699
  546MOL0     H73652  -0.607   8.862   5.115 -0.4799 -0.8558 -0.0321
  546MOL0     H73653  -0.572   9.102   5.095 -1.9929  0.4821 -0.0467
  546MOL0     H73654  -0.499   9.077   4.940 -0.6310 -0.8200 -0.8447
  546MOL0     H73655  -0.706   8.973   4.851  0.7199 -0.3469 -0.4862
  546MOL0     H73656  -0.784   8.992   5.008 -0.0878 -1.8758 -1.9306
  546MOL0     H73657  -0.768   9.225   5.001  0.3795 -0.2420  0.1710
  546MOL0     H73658  -0.699   9.227   4.840 -2.3075  0.8328 -0.6699
  546MOL0     H73659  -0.963   9.106   4.894  0.1189 -1.4110 -2.0483
  546MOL0     H73660  -0.885   9.159   4.731  2.0109  1.1704  0.0994
  546MOL0     H73661  -1.096   9.287   5.001  2.8736 -0.8763  0.9538
  546MOL0     H73662  -1.126   9.593   5.062  1.1559 -2.9011  0.9912
  546MOL0     H73663  -1.188   9.668   4.914 -0.3052  0.0115  0.3275
  546MOL0     H73664  -1.304   9.416   5.028  2.1786 -0.4706  0.3213
  546MOL0     H73665  -1.364   9.518   4.892  0.9654 -2.3255 -0.2636
  546MOL0     H73666  -1.371   9.710   5.073 -1.1243  0.8451  2.0869
  546MOL0     H73667  -1.328   9.588   5.191  0.1181 -0.1186 -0.4249
  546MOL0     H73668  -1.588   9.559   5.015 -2.3878  1.4621  0.1943
  546MOL0     H73669  -1.584   9.661   5.151 -0.8461 -0.9378 -0.1287
  546MOL0     H73670  -1.556   9.476   5.452  0.9830 -0.5583 -3.1381
  546MOL0     H73671  -1.776   9.523   5.694 -2.2677  0.2000 -1.4327
  546MOL0     H73672  -1.787   9.360   5.669  2.5615  0.2666  0.9034
  546MOL0     H73673  -1.629   9.429   5.645  1.4737  2.1559  1.8189
  546MOL0     H73674  -2.184   9.306   5.688 -0.0683  3.4795  1.4144
  546MOL0     H73675  -2.382   9.248   5.797  0.0144 -1.8731 -0.3995
  546MOL0     H73676  -2.602   9.193   5.870 -3.5847 -0.9892  1.3174
  546MOL0     H73677  -2.599   9.373   5.866  0.3469 -0.9312  0.1308
  546MOL0     H73678  -2.807   9.237   5.962  1.4505 -2.5198 -0.4344
  546MOL0     H73679  -2.833   9.386   5.866 -2.1569 -1.1554  0.4322
  546MOL0     H73680  -2.823   9.112   5.737 -0.1099 -0.3824  0.7296
  546MOL0     H73681  -2.855   9.273   5.662  0.6898 -1.1590 -0.6320
  546MOL0     H73682  -3.046   9.287   5.820 -0.5322 -0.7570 -0.0101
  546MOL0     H73683  -3.049   9.183   5.670  1.0143  0.3454  0.1153
  546MOL0     H73684  -3.016   9.085   5.954  0.6706 -1.3663 -0.3999
  546MOL0     H73685  -3.038   8.984   5.809 -0.0731  1.1688 -0.7934
  546MOL0     H73686  -3.245   9.190   5.837  1.3529  0.7663 -0.2798
  546MOL0     H73687  -3.256   9.024   5.765  0.5076 -0.5124 -0.3015
  546MOL0     H73688  -3.238   9.101   6.070  1.1038 -0.0413 -0.4183
  546MOL0     H73689  -3.233   8.936   6.005 -1.3963 -0.9662 -0.6059
  546MOL0     H73690  -3.461   8.942   5.930 -1.1859 -1.0716  2.2828
  546MOL0     H73691  -3.471   9.115   5.913  1.4900 -1.4108 -2.8158
  546MOL0     H73692  -2.605   9.403   5.460 -1.0007 -2.4171  1.6030
  546MOL0     H73693  -2.377   9.462   5.339  0.9834  0.0746 -0.3616
  546MOL0     H73694  -1.995   9.509   5.244 -0.0784  0.6076  0.7907
  546MOL0     H73695  -1.791   9.476   5.100  0.9366 -1.1063 -0.2161
  546MOL0     H73696   0.090   8.774   5.172 -2.0375 -0.2437 -0.7297
  546MOL0     H73697   0.289   8.648   5.299  0.3662 -2.3491  1.0705
  546MOL0     H73698   0.475   8.402   5.534 -0.8806 -0.7920  1.0706
  546MOL0     H73699   0.677   8.330   5.641  0.9476 -1.4026  2.0347
  546MOL0     H73700   0.813   8.222   5.802  4.2634 -2.9308  1.3436
  546MOL0     H73701   0.887   8.374   5.732  2.6165  0.0461  1.0489
  546MOL0     H73702   1.018   8.393   5.947 -0.9123 -1.3902  2.8614
  546MOL0     H73703   1.064   8.251   5.841 -1.1405  0.1625 -1.5350
  546MOL0     H73704   1.061   8.142   6.037 -0.1909 -0.3839  0.9080
  546MOL0     H73705   0.911   8.095   5.978  0.3354 -0.0275  2.5173
  546MOL0     H73706   0.800   8.284   6.100  1.2272  1.9015  0.2128
  546MOL0     H73707   0.950   8.321   6.179 -2.8168  2.0560  0.1911
  546MOL0     H73708   0.814   7.972   6.378 -1.5095 -1.1987 -1.0825
  546MOL0     H73709   0.585   8.545   5.992 -3.0193  1.1255  0.8958
  546MOL0     H73710   0.357   8.628   5.869 -1.5364 -0.8547 -1.4355
  547MOL0     O73711   5.528   0.245   2.956  0.0972  0.4844  0.0571
  547MOL0     C73712   5.593   0.246   2.855  0.0127 -0.2313 -0.0256
  547MOL0     O73713   5.549   0.279   2.732  0.4008 -0.4635  0.0841
  547MOL0     C73714   5.426   0.344   2.720 -0.2806  0.4037  1.0107
  547MOL0     C73715   5.345   0.287   2.617  0.4355  0.0302  0.2708
  547MOL0     C73716   5.225   0.335   2.576  0.0133 -1.0936 -0.3642
  547MOL0     C73717   5.179   0.454   2.636 -0.4403 -0.6060  0.3469
  547MOL0     O73718   5.064   0.508   2.585 -0.7505 -0.1217 -0.8986
  547MOL0     C73719   5.015   0.631   2.632 -0.4387  0.7137 -0.3581
  547MOL0     C73720   4.881   0.650   2.578  0.7775  0.4958 -0.0091
  547MOL0     C73721   4.806   0.762   2.643 -0.3287 -0.4009 -0.0490
  547MOL0     C73722   4.677   0.776   2.566  0.4047 -0.0771 -0.0695
  547MOL0     C73723   4.596   0.901   2.617  0.0710  0.8957  0.0559
  547MOL0     C73724   4.485   0.947   2.516 -0.2447  0.1103  0.4106
  547MOL0     C73725   4.385   0.855   2.470 -0.0385  1.0591  0.5852
  547MOL0     C73726   4.291   0.796   2.576  0.2072 -1.1205 -0.0063
  547MOL0     N73727   4.166   0.733   2.523 -0.0594  0.0716 -0.8842
  547MOL0     C73728   4.059   0.800   2.457  0.0379  0.1401  0.0985
  547MOL0     C73729   3.971   0.709   2.410 -0.4175 -0.4629  0.5058
  547MOL0     C73730   3.857   0.741   2.316  0.3140 -0.7592 -0.9007
  547MOL0     C73731   3.721   0.742   2.388 -0.6613 -0.0035  0.3616
  547MOL0     C73732   3.687   0.889   2.436 -0.9557  0.0810 -0.2590
  547MOL0     C73733   3.643   0.983   2.326 -0.3355 -0.4456  0.3970
  547MOL0     O73734   3.533   0.927   2.246 -0.2972  0.0211  0.6327
  547MOL0     C73735   3.399   0.950   2.261  0.7015  0.1310  0.0337
  547MOL0     C73736   3.303   0.917   2.156 -0.9169  0.4462 -0.4302
  547MOL0     C73737   3.166   0.947   2.156 -0.4894 -1.2265  0.3542
  547MOL0     C73738   3.078   0.911   2.036  0.0855  0.0110  0.5885
  547MOL0     C73739   3.106   1.004   2.279 -0.5179  0.0682  0.0074
  547MOL0     C73740   2.959   1.049   2.299 -0.6754  1.2854  0.3400
  547MOL0     O73741   2.937   1.125   2.414 -0.0647  0.1472  0.0809
  547MOL0     C73742   2.805   1.168   2.439 -0.3056 -0.8791  0.1602
  547MOL0     C73743   2.764   1.175   2.571  0.0150  0.2616  0.4030
  547MOL0     C73744   2.637   1.210   2.609  0.9329  0.6035  0.3492
  547MOL0     C73745   2.541   1.243   2.510 -0.1112 -0.1714 -0.3811
  547MOL0     O73746   2.412   1.271   2.546  0.4691 -0.5380  0.3667
  547MOL0     C73747   2.361   1.228   2.678  0.3922 -0.4585 -0.2327
  547MOL0     C73748   2.208   1.244   2.681 -0.0361  0.2683  0.6527
  547MOL0     C73749   2.147   1.356   2.600 -0.2094 -0.5411  0.3722
  547MOL0     C73750   2.027   1.416   2.666 -0.5270 -0.3127  0.9517
  547MOL0     C73751   1.963   1.510   2.562 -0.7137  0.1753 -0.0182
  547MOL0     C73752   1.869   1.610   2.625 -0.1086  0.4877 -0.4567
  547MOL0     C73753   1.800   1.703   2.522  0.0347 -0.0487 -0.5639
  547MOL0     C73754   1.701   1.787   2.604 -0.7376  0.2682 -0.0707
  547MOL0    Cl73755   1.578   1.855   2.491  0.0342 -0.0044 -0.6933
  547MOL0     C73756   2.576   1.249   2.379  1.0167  0.5917  0.3194
  547MOL0     C73757   2.706   1.213   2.336  0.7904 -0.1848 -0.9544
  547MOL0     O73758   2.873   1.021   2.219 -0.3953  0.2776  0.3799
  547MOL0     C73759   3.197   1.036   2.382 -0.8017  0.3872  0.2505
  547MOL0     C73760   3.340   1.002   2.377 -0.0212 -0.4399 -0.5595
  547MOL0     N73761   4.019   0.586   2.456  0.0408 -0.1604 -1.0829
  547MOL0     N73762   4.133   0.601   2.530 -0.2962  0.5091  0.3236
  547MOL0     C73763   5.262   0.520   2.728  0.1928  1.0152 -0.5487
  547MOL0     C73764   5.383   0.470   2.774 -0.0686  0.6810  0.3365
  547MOL0     C73765   5.740   0.219   2.869 -0.1443  0.5879  0.2772
  547MOL0     C73766   5.821   0.200   2.760  0.0261 -0.2505  0.4244
  547MOL0     C73767   5.961   0.168   2.768 -0.1455 -0.5109  0.0795
  547MOL0     C73768   6.021   0.141   2.892  0.1070  0.2726 -0.1661
  547MOL0     O73769   6.156   0.103   2.889  0.1025  0.2218 -0.9643
  547MOL0     C73770   6.234   0.064   3.005  0.6926  0.2574  0.0361
  547MOL0     C73771   6.375   0.033   2.973 -0.2202  0.2230  0.7958
  547MOL0     C73772   6.444   0.158   2.928  0.5146 -0.1528 -0.6552
  547MOL0     C73773   6.588   0.145   2.858  1.0656 -0.6016  0.1208
  547MOL0     C73774   6.688   0.088   2.955 -0.4253  0.5713  0.2982
  547MOL0     C73775   6.780   0.045   3.023  0.3009  0.4208  0.3445
  547MOL0     C73776   5.937   0.151   3.003  0.6329  0.5595  0.6051
  547MOL0     C73777   5.803   0.188   2.995  0.5329  0.7071  0.1850
  547MOL0     H73778   5.383   0.204   2.558  0.0798 -1.3258  1.8898
  547MOL0     H73779   5.164   0.286   2.501 -0.7432  1.9337 -1.8846
  547MOL0     H73780   5.008   0.625   2.741 -2.4677  0.3123 -0.4683
  547MOL0     H73781   5.070   0.725   2.617 -0.2786  0.7783  0.5716
  547MOL0     H73782   4.892   0.665   2.470  4.1844  1.2641  0.3483
  547MOL0     H73783   4.831   0.555   2.600  1.5855  0.4087  1.5891
  547MOL0     H73784   4.800   0.744   2.751  0.2450  0.2068  0.0915
  547MOL0     H73785   4.862   0.855   2.633  1.9524 -1.4978  1.6054
  547MOL0     H73786   4.696   0.793   2.459 -1.4926  0.9758 -0.2725
  547MOL0     H73787   4.629   0.678   2.569  2.8244 -1.3225  2.4017
  547MOL0     H73788   4.547   0.864   2.708 -0.8745 -1.7902 -1.4461
  547MOL0     H73789   4.655   0.985   2.654  1.7458 -1.3707  3.0162
  547MOL0     H73790   4.434   1.027   2.570  0.6043  0.3502  0.8787
  547MOL0     H73791   4.546   0.995   2.439 -1.3364  1.3216  0.2759
  547MOL0     H73792   4.329   0.906   2.391  1.9169  0.9116 -0.9867
  547MOL0     H73793   4.440   0.768   2.434 -2.6649  0.4409 -2.3614
  547MOL0     H73794   4.258   0.877   2.642 -2.4951 -1.0962 -1.2777
  547MOL0     H73795   4.349   0.726   2.637  1.9374  0.3142  0.0861
  547MOL0     H73796   4.056   0.903   2.423 -0.9356  0.3821  0.8558
  547MOL0     H73797   3.872   0.835   2.263  0.9483 -0.4441 -0.1783
  547MOL0     H73798   3.855   0.661   2.241 -1.0680 -1.3483 -0.2856
  547MOL0     H73799   3.715   0.674   2.474 -1.9960  1.3430  1.3927
  547MOL0     H73800   3.649   0.704   2.315  0.6335  2.4091 -2.3388
  547MOL0     H73801   3.773   0.929   2.490 -2.1934  0.8178  1.2302
  547MOL0     H73802   3.608   0.892   2.511 -0.3139 -0.7012  0.4669
  547MOL0     H73803   3.731   1.014   2.268 -1.2105  0.2105 -0.6222
  547MOL0     H73804   3.607   1.081   2.360  0.0236 -0.3875  0.6128
  547MOL0     H73805   3.350   0.877   2.067  0.8657 -3.6171  2.0211
  547MOL0     H73806   3.137   0.885   1.947  2.1868  0.7333  1.6988
  547MOL0     H73807   3.017   0.829   2.073 -0.4733  0.7503  1.3367
  547MOL0     H73808   3.010   0.989   1.998  0.4014  0.1439  0.2871
  547MOL0     H73809   2.831   1.121   2.637 -1.2706 -2.6831 -0.5393
  547MOL0     H73810   2.617   1.190   2.713  2.2324  0.8894  0.6723
  547MOL0     H73811   2.386   1.126   2.709 -1.8023 -0.4681  1.7576
  547MOL0     H73812   2.416   1.290   2.748  0.3985 -0.6816 -0.0396
  547MOL0     H73813   2.186   1.147   2.635  4.4173 -1.9059  2.4682
  547MOL0     H73814   2.169   1.240   2.782 -0.0569  0.7620  0.6650
  547MOL0     H73815   2.113   1.312   2.506 -2.2992 -0.7948  1.1974
  547MOL0     H73816   2.222   1.431   2.573 -1.7676  1.0684  0.3415
  547MOL0     H73817   1.954   1.340   2.694 -2.1344 -0.0885 -2.1836
  547MOL0     H73818   2.045   1.478   2.754  0.3517 -0.5804  0.9751
  547MOL0     H73819   1.909   1.444   2.494  2.8715 -2.4029 -0.6896
  547MOL0     H73820   2.044   1.565   2.513  0.6893  0.9791  2.9522
  547MOL0     H73821   1.794   1.551   2.679  1.3173 -0.4554  0.5614
  547MOL0     H73822   1.919   1.672   2.700  0.4523 -0.7035  0.1760
  547MOL0     H73823   1.746   1.645   2.447  0.5917  0.1366 -1.1207
  547MOL0     H73824   1.873   1.766   2.470  0.6268 -1.2931 -1.2995
  547MOL0     H73825   1.750   1.865   2.663 -0.4198  0.2013 -0.2427
  547MOL0     H73826   1.653   1.732   2.685 -1.8257  1.2710 -0.0065
  547MOL0     H73827   2.494   1.272   2.311 -0.1821  0.2266  1.6068
  547MOL0     H73828   2.735   1.217   2.231  3.3677  0.4092 -0.3021
  547MOL0     H73829   3.164   1.090   2.470 -2.5655  0.3010 -0.3041
  547MOL0     H73830   3.396   1.024   2.467  1.0561  3.4711 -1.9925
  547MOL0     H73831   5.222   0.606   2.780 -0.8413  0.0476  0.3008
  547MOL0     H73832   5.446   0.522   2.845 -0.2070  1.6408 -0.2342
  547MOL0     H73833   5.776   0.216   2.662  0.8765  0.5022  0.1475
  547MOL0     H73834   6.017   0.144   2.677 -0.2114  0.2981 -0.1819
  547MOL0     H73835   6.230   0.138   3.086 -0.4109  0.7927 -0.4913
  547MOL0     H73836   6.185  -0.025   3.044 -0.1744  0.9803  0.6357
  547MOL0     H73837   6.395  -0.048   2.902  1.0098  0.9997  0.2072
  547MOL0     H73838   6.421  -0.000   3.066 -0.4783 -0.2985  0.7417
  547MOL0     H73839   6.466   0.214   3.019  2.2314 -2.1284  0.2428
  547MOL0     H73840   6.382   0.213   2.857  1.0754 -0.2121 -1.1976
  547MOL0     H73841   6.612   0.237   2.804  0.0924 -0.3813  0.0480
  547MOL0     H73842   6.572   0.068   2.782  2.3849 -0.6749 -0.1089
  547MOL0     H73843   6.866   0.004   3.073 -1.0575 -1.8701  0.9235
  547MOL0     H73844   5.981   0.124   3.099 -1.2717  0.2869  1.4503
  547MOL0     H73845   5.738   0.192   3.081  0.3275  1.7883 -0.0070
  548MOL0     O73846   2.208  11.193  10.484  0.3377 -0.0539 -0.5233
  548MOL0     C73847   2.245  11.110  10.402 -0.4898 -0.1704  0.2259
  548MOL0     O73848   2.169  11.065  10.291  0.6516 -0.1077  0.2298
  548MOL0     C73849   2.037  11.106  10.266  0.0020 -0.3383  0.3533
  548MOL0     C73850   1.946  11.164  10.361  0.0905 -0.4847 -0.6309
  548MOL0     C73851   1.807  11.188  10.317  0.0341 -0.2905 -0.3781
  548MOL0     C73852   1.763  11.154  10.189 -0.3408 -0.1102 -0.9439
  548MOL0     O73853   1.630  11.170  10.164  0.1527 -0.1260  0.2274
  548MOL0     C73854   1.569  11.121  10.045  0.4799 -0.6845  0.1919
  548MOL0     C73855   1.419  11.146  10.056 -0.8381  0.0273 -0.3462
  548MOL0     C73856   1.364  11.283  10.020  0.7405 -0.0608 -0.1551
  548MOL0     C73857   1.211  11.277  10.003  0.9402 -0.3096 -0.0392
  548MOL0     C73858   1.152  11.407   9.953 -0.4726  0.0933  0.4264
  548MOL0     C73859   1.129  11.515  10.065 -0.9191 -0.1860  0.0001
  548MOL0     C73860   1.051  11.630  10.002  0.0438  0.6143 -0.1740
  548MOL0     C73861   1.046  11.733  10.112 -0.0349 -0.4012  0.3029
  548MOL0     N73862   0.996  11.861  10.066  0.1593  0.5677 -0.1156
  548MOL0     C73863   0.864  11.893  10.067  0.1046 -0.3901 -0.4272
  548MOL0     C73864   0.866  12.019  10.014 -0.2747 -0.2669 -0.6017
  548MOL0     C73865   0.743  12.104   9.976  0.2385 -0.1217  1.4063
  548MOL0     C73866   0.769  12.258  10.004 -0.1322  0.2891  0.1635
  548MOL0     C73867   0.651  12.332   9.943 -0.1433  0.0907  0.0021
  548MOL0     C73868   0.665  12.326   9.782  0.2799 -0.2523 -0.5209
  548MOL0     O73869   0.585  12.437   9.727 -0.2618  0.8505 -0.2621
  548MOL0     C73870   0.453  12.442   9.707  0.4039  0.0031 -0.2257
  548MOL0     C73871   0.363  12.335   9.683  0.2782  0.5723 -0.0653
  548MOL0     C73872   0.229  12.358   9.639  0.2557 -0.4522  0.1355
  548MOL0     C73873   0.153  12.236   9.583 -0.0810  0.2429 -0.1160
  548MOL0     C73874   0.180  12.492   9.647 -0.2446  0.4953  0.3744
  548MOL0     C73875   0.050  12.537   9.603  0.3349 -0.4325 -0.0545
  548MOL0     O73876  -0.011  12.632   9.676  0.4907 -0.5277 -0.4974
  548MOL0     C73877  -0.142  12.666   9.660 -1.8000  0.0080  1.0404
  548MOL0     C73878  -0.235  12.574   9.624  0.0181  0.5338 -0.8307
  548MOL0     C73879  -0.371  12.618   9.614 -0.2208 -0.1034 -0.2188
  548MOL0     C73880  -0.411  12.748   9.636 -0.4838  0.4558  0.2831
  548MOL0     O73881  -0.544  12.774   9.616 -0.0319 -0.5453  0.0119
  548MOL0     C73882  -0.580  12.910   9.637 -0.3638 -0.7338 -0.5085
  548MOL0     C73883  -0.732  12.923   9.642  0.0759  0.2349 -0.2982
  548MOL0     C73884  -0.788  12.917   9.499 -0.2158  0.2545 -0.2201
  548MOL0     C73885  -0.938  12.930   9.513  0.3926  0.5583 -0.4418
  548MOL0     C73886  -1.007  12.945   9.372  0.3025  0.8174 -0.1792
  548MOL0     C73887  -1.157  12.983   9.381 -0.9887 -0.1280 -0.8487
  548MOL0     C73888  -1.212  13.037   9.251 -0.4383 -0.1313 -0.5055
  548MOL0     C73889  -1.163  13.184   9.223  0.3387  0.7401  0.2018
  548MOL0    Cl73890  -1.246  13.251   9.086 -0.1448 -0.0460  0.3721
  548MOL0     C73891  -0.314  12.838   9.680  0.7561 -0.5786 -0.5200
  548MOL0     C73892  -0.181  12.798   9.685  0.7788 -0.0995  0.8298
  548MOL0     O73893   0.009  12.494   9.495 -0.3851  0.1827 -0.1514
  548MOL0     C73894   0.270  12.595   9.679 -0.4072  0.3989  0.4828
  548MOL0     C73895   0.404  12.569   9.712 -0.3912 -0.0983  1.0054
  548MOL0     N73896   1.000  12.049   9.981 -0.0497 -0.5386  0.4002
  548MOL0     N73897   1.074  11.952  10.025 -0.3419  0.0668  0.1358
  548MOL0     C73898   1.853  11.095  10.101 -0.9574 -0.5392  0.2809
  548MOL0     C73899   1.989  11.071  10.134  0.5339 -0.6402  0.0084
  548MOL0     C73900   2.390  11.066  10.402 -0.3959 -0.5274 -0.4128
  548MOL0     C73901   2.468  11.085  10.515 -0.9770  0.0872 -0.5299
  548MOL0     C73902   2.608  11.050  10.514 -0.4268 -0.5242  0.3888
  548MOL0     C73903   2.664  10.981  10.407 -0.1218 -0.3995 -0.3089
  548MOL0     O73904   2.800  10.958  10.389 -0.3306 -0.2348 -0.2878
  548MOL0     C73905   2.899  11.005  10.485  0.5676 -0.0210  0.5974
  548MOL0     C73906   3.034  10.937  10.465  0.7269  0.7043 -0.5520
  548MOL0     C73907   3.093  10.983  10.335  0.9002  0.0139 -0.3827
  548MOL0     C73908   3.213  10.894  10.311 -0.0510 -0.3214  0.2176
  548MOL0     C73909   3.261  10.915  10.170 -0.6611  0.5423 -0.2315
  548MOL0     C73910   3.311  10.934  10.064 -0.6712  0.2346  0.4098
  548MOL0     C73911   2.577  10.949  10.300 -0.8233 -0.4904 -0.7521
  548MOL0     C73912   2.445  10.989  10.296 -0.2341 -0.8910  0.5668
  548MOL0     H73913   1.979  11.202  10.457 -0.3582  1.7190 -1.2848
  548MOL0     H73914   1.749  11.248  10.385 -0.0408 -1.5438  0.7112
  548MOL0     H73915   1.602  11.170   9.953 -2.5019  0.3957 -0.3873
  548MOL0     H73916   1.579  11.014  10.024  0.1252 -0.3356 -2.0358
  548MOL0     H73917   1.384  11.082   9.974  3.6236 -0.4788 -2.1525
  548MOL0     H73918   1.377  11.108  10.150 -1.8795  0.1223 -0.7635
  548MOL0     H73919   1.383  11.352  10.102 -1.8905 -0.4735  0.9156
  548MOL0     H73920   1.407  11.318   9.926  0.0523  1.2283 -0.0141
  548MOL0     H73921   1.176  11.191   9.946  0.9812 -1.1763  1.1958
  548MOL0     H73922   1.161  11.256  10.098 -1.3470  1.1474 -0.8556
  548MOL0     H73923   1.209  11.448   9.869  1.2178  0.1376  1.5454
  548MOL0     H73924   1.056  11.372   9.916 -0.8765  1.3384  0.2415
  548MOL0     H73925   1.066  11.474  10.145 -0.3101 -0.0687  0.5452
  548MOL0     H73926   1.225  11.549  10.104  0.0178 -1.8058 -0.8011
  548MOL0     H73927   1.105  11.663   9.913  2.4621 -0.2378  0.8799
  548MOL0     H73928   0.950  11.596   9.978 -0.4354  0.1011  2.2766
  548MOL0     H73929   1.146  11.748  10.155 -0.0213 -2.1314  0.9138
  548MOL0     H73930   0.987  11.698  10.197 -1.6966 -1.1079 -1.0894
  548MOL0     H73931   0.783  11.829  10.100 -1.2758  0.6844 -1.6069
  548MOL0     H73932   0.738  12.080   9.869  2.4654  0.6691  1.0645
  548MOL0     H73933   0.656  12.065  10.030 -0.5146 -1.2461 -0.5228
  548MOL0     H73934   0.865  12.291   9.964  0.6094 -1.0895  0.7057
  548MOL0     H73935   0.770  12.262  10.114  0.7463 -1.6402  0.2692
  548MOL0     H73936   0.658  12.438   9.966 -2.9893 -0.1609  2.8650
  548MOL0     H73937   0.550  12.299   9.972 -0.0619  0.5252  0.7920
  548MOL0     H73938   0.634  12.229   9.743 -3.2769  0.7010 -0.3855
  548MOL0     H73939   0.770  12.344   9.758  0.3063  0.2443 -0.0659
  548MOL0     H73940   0.397  12.234   9.659 -0.3238  0.2748  0.3050
  548MOL0     H73941   0.213  12.150   9.615  2.1455  1.9791  0.6129
  548MOL0     H73942   0.053  12.225   9.626 -0.5416 -1.7157 -1.5488
  548MOL0     H73943   0.151  12.236   9.474 -1.1592  0.1870 -0.1120
  548MOL0     H73944  -0.205  12.471   9.613  1.4747  0.6831  1.2311
  548MOL0     H73945  -0.447  12.546   9.583 -0.3736  0.7880 -2.0355
  548MOL0     H73946  -0.540  12.943   9.733  1.1780 -2.8918 -0.3317
  548MOL0     H73947  -0.544  12.958   9.545  0.9785 -1.0561 -0.1657
  548MOL0     H73948  -0.770  12.839   9.700  3.9519 -2.1717 -0.9259
  548MOL0     H73949  -0.762  13.017   9.689  1.1202  0.8735 -0.8576
  548MOL0     H73950  -0.779  12.818   9.453 -1.0626 -0.8059  1.7870
  548MOL0     H73951  -0.754  12.996   9.432 -0.4292 -0.8008 -1.6270
  548MOL0     H73952  -0.983  12.849   9.571 -1.4177  1.3593 -0.6573
  548MOL0     H73953  -0.953  13.025   9.566 -0.1065  0.3621 -0.2331
  548MOL0     H73954  -1.007  12.850   9.317  0.1513  1.0474 -0.5847
  548MOL0     H73955  -0.959  13.026   9.317 -1.4491  0.9165 -1.6685
  548MOL0     H73956  -1.221  12.901   9.415 -2.4190  0.4835 -1.9519
  548MOL0     H73957  -1.162  13.065   9.454  0.8718  1.3232 -2.2617
  548MOL0     H73958  -1.321  13.039   9.238 -0.6946  0.7266  1.4523
  548MOL0     H73959  -1.171  12.976   9.170 -0.9336 -0.9203 -0.1772
  548MOL0     H73960  -1.059  13.183   9.189 -0.0907 -0.9837 -1.2168
  548MOL0     H73961  -1.172  13.245   9.314  1.0179  0.6514  0.3390
  548MOL0     H73962  -0.332  12.944   9.701  2.9050  0.0779 -1.7235
  548MOL0     H73963  -0.109  12.875   9.712  0.6785  0.2621  0.0915
  548MOL0     H73964   0.223  12.692   9.669 -1.8448 -0.0830  2.1133
  548MOL0     H73965   0.476  12.648   9.731  2.6837 -1.5826 -2.9714
  548MOL0     H73966   1.830  11.079   9.996  0.5966  2.7656 -0.7008
  548MOL0     H73967   2.057  11.028  10.062 -1.1084 -0.8377 -1.4954
  548MOL0     H73968   2.441  11.135  10.607  3.1970  0.1470  0.8999
  548MOL0     H73969   2.679  11.072  10.593  0.0118  2.2093 -0.6725
  548MOL0     H73970   2.919  11.112  10.476  0.7885  0.0673  1.9386
  548MOL0     H73971   2.862  10.982  10.586  0.3753 -0.1380  0.4997
  548MOL0     H73972   3.009  10.831  10.480  0.0846  1.1949  2.4918
  548MOL0     H73973   3.101  10.961  10.548 -0.5762  0.1012  0.7425
  548MOL0     H73974   3.115  11.089  10.349  1.9313 -0.4258  1.8946
  548MOL0     H73975   3.021  10.959  10.256  1.1608 -1.5515 -0.1808
  548MOL0     H73976   3.193  10.786  10.321 -2.1759 -0.2311 -2.1928
  548MOL0     H73977   3.296  10.905  10.382  1.5270 -0.8119 -1.4657
  548MOL0     H73978   3.353  10.939   9.966  1.4593 -3.8901  0.8841
  548MOL0     H73979   2.612  10.882  10.222 -0.9219 -2.0324  0.4683
  548MOL0     H73980   2.382  10.958  10.213 -1.1032 -1.2302  1.3315
  549MOL0     O73981   3.183   5.319  10.443  0.2706 -0.5477  0.0802
  549MOL0     C73982   3.254   5.224  10.413  0.2942 -0.5868 -0.3124
  549MOL0     O73983   3.285   5.116  10.493  1.2949  0.0295 -0.2037
  549MOL0     C73984   3.223   5.090  10.611  0.6553 -0.0207 -0.5597
  549MOL0     C73985   3.291   5.007  10.706 -0.5345 -0.5976  0.3356
  549MOL0     C73986   3.232   4.962  10.829 -0.2136 -0.8881 -0.0237
  549MOL0     C73987   3.096   4.992  10.848  0.3852 -0.3033  0.0927
  549MOL0     O73988   3.036   4.959  10.962  0.4167 -0.0494 -0.5430
  549MOL0     C73989   3.077   4.843  11.041  0.3536 -0.4902 -0.1006
  549MOL0     C73990   2.970   4.735  11.043 -0.6345  0.5360 -0.4698
  549MOL0     C73991   2.821   4.772  11.038 -0.0688  0.3403 -0.2769
  549MOL0     C73992   2.788   4.847  11.175  0.3122 -0.0237 -0.4476
  549MOL0     C73993   2.654   4.919  11.159  1.2450 -0.4834  0.2106
  549MOL0     C73994   2.584   4.945  11.294 -0.0442 -0.2423  0.6912
  549MOL0     C73995   2.467   5.051  11.275 -0.6899 -0.2587  0.1759
  549MOL0     C73996   2.337   4.995  11.201 -0.4119 -0.1252  0.2887
  549MOL0     N73997   2.243   5.104  11.171 -0.3033 -0.3516  0.0948
  549MOL0     C73998   2.133   5.141  11.250 -0.4260 -0.2229  0.4904
  549MOL0     C73999   2.083   5.253  11.195 -0.3789  0.0269  0.4670
  549MOL0     C74000   1.959   5.315  11.255  0.4121  0.0030  0.2264
  549MOL0     C74001   1.833   5.285  11.176  0.1082  0.3979  0.3920
  549MOL0     C74002   1.704   5.332  11.256 -0.5871 -0.4958  0.2400
  549MOL0     C74003   1.572   5.300  11.181 -0.2223 -0.6504  0.4457
  549MOL0     O74004   1.459   5.347  11.247 -1.2496  0.1166  0.1082
  549MOL0     C74005   1.340   5.316  11.182 -0.2121  0.0565 -0.3586
  549MOL0     C74006   1.229   5.344  11.268 -0.3246  0.7427  0.7228
  549MOL0     C74007   1.095   5.319  11.226  0.1830 -0.0719  0.3810
  549MOL0     C74008   0.980   5.354  11.320 -0.4565  0.5010  0.3634
  549MOL0     C74009   1.077   5.268  11.092  0.1800 -0.1274 -0.0056
  549MOL0     C74010   0.944   5.241  11.023 -0.4858  0.4798  0.0425
  549MOL0     O74011   0.826   5.268  11.089  0.2411 -0.8355  0.4398
  549MOL0     C74012   0.716   5.285  11.011  0.2277  0.5114  0.1528
  549MOL0     C74013   0.613   5.195  11.016  0.3854 -0.4858  0.0847
  549MOL0     C74014   0.510   5.207  10.916  0.0326 -0.0006  0.3527
  549MOL0     C74015   0.507   5.317  10.829  0.5597  0.8095  0.1412
  549MOL0     O74016   0.412   5.325  10.735 -0.3778  0.3928 -0.2774
  549MOL0     C74017   0.274   5.318  10.778  0.6377  0.5243 -0.1687
  549MOL0     C74018   0.207   5.213  10.691 -0.8641  0.0695 -0.3417
  549MOL0     C74019   0.180   5.266  10.551 -1.1685  0.1474 -0.5068
  549MOL0     C74020   0.094   5.170  10.477 -0.8752 -0.1291  0.0977
  549MOL0     C74021  -0.051   5.180  10.520  0.1736  0.4322  0.0166
  549MOL0     C74022  -0.130   5.059  10.472 -0.1280 -0.4358  0.4284
  549MOL0     C74023  -0.284   5.062  10.517 -0.5512 -0.0541  0.3520
  549MOL0     C74024  -0.343   4.917  10.486  0.1903  0.3367 -0.3225
  549MOL0    Cl74025  -0.297   4.854  10.321  0.0064  0.5273 -0.1687
  549MOL0     C74026   0.604   5.414  10.840  0.1920  0.0038  0.2091
  549MOL0     C74027   0.708   5.399  10.933  0.0281  0.3404  0.8105
  549MOL0     O74028   0.949   5.209  10.907  0.0596  0.4183  0.1262
  549MOL0     C74029   1.191   5.240  11.008 -0.1294 -0.2492  0.3698
  549MOL0     C74030   1.318   5.260  11.060 -0.1401 -0.0756 -0.6761
  549MOL0     N74031   2.157   5.276  11.082  0.4391 -0.4887  0.3746
  549MOL0     N74032   2.257   5.199  11.070  0.2723 -0.0933  0.4580
  549MOL0     C74033   3.027   5.082  10.759 -0.2489 -0.7016 -0.4507
  549MOL0     C74034   3.091   5.131  10.643  0.1927  0.2307 -0.8189
  549MOL0     C74035   3.333   5.240  10.292  0.5258  0.7067  0.1077
  549MOL0     C74036   3.459   5.179  10.279 -0.1798  0.0895 -0.2725
  549MOL0     C74037   3.539   5.187  10.161  0.2496 -0.4230 -0.3557
  549MOL0     C74038   3.482   5.265  10.052 -0.2886 -0.7084  0.1635
  549MOL0     O74039   3.552   5.299   9.937  0.6372  0.6245 -0.3620
  549MOL0     C74040   3.677   5.232   9.907 -0.8127 -0.7026  0.4868
  549MOL0     C74041   3.726   5.258   9.770 -0.2480  0.2406  0.6783
  549MOL0     C74042   3.626   5.221   9.656  0.0523 -0.8032 -0.5331
  549MOL0     C74043   3.572   5.074   9.653 -0.2465 -0.0948 -0.3084
  549MOL0     C74044   3.473   5.064   9.543 -0.2093 -0.8117  0.5248
  549MOL0     C74045   3.391   5.047   9.457 -0.8914 -0.7155  0.3074
  549MOL0     C74046   3.356   5.324  10.062  0.3013  0.5457  0.2895
  549MOL0     C74047   3.283   5.300  10.175 -0.1809  0.4496  0.6909
  549MOL0     H74048   3.384   4.961  10.674 -0.7345 -1.8739  1.4834
  549MOL0     H74049   3.296   4.904  10.895  0.5981 -1.0268 -0.8986
  549MOL0     H74050   3.172   4.793  11.020 -0.0183 -1.8752  1.3172
  549MOL0     H74051   3.093   4.880  11.142  0.1652  0.0016 -0.2482
  549MOL0     H74052   2.987   4.659  10.966  1.9601  0.0089  0.5343
  549MOL0     H74053   2.996   4.678  11.133 -0.7578 -1.6025 -1.7149
  549MOL0     H74054   2.805   4.845  10.958  2.2954  0.9252 -0.2847
  549MOL0     H74055   2.760   4.681  11.031  0.5275 -0.2364  1.5834
  549MOL0     H74056   2.789   4.771  11.254  2.3504  0.4297  0.0235
  549MOL0     H74057   2.863   4.926  11.188 -1.5237  1.6309  0.4361
  549MOL0     H74058   2.666   5.014  11.106 -0.1324 -1.4282 -1.9179
  549MOL0     H74059   2.586   4.863  11.094 -0.4629  0.3487  1.2008
  549MOL0     H74060   2.546   4.847  11.327 -0.1518 -0.1255  0.9193
  549MOL0     H74061   2.647   4.984  11.375  0.7744  3.2152 -1.4189
  549MOL0     H74062   2.429   5.101  11.366  1.3617  3.1694 -0.6582
  549MOL0     H74063   2.510   5.135  11.220 -1.0086 -0.5555 -0.5253
  549MOL0     H74064   2.298   4.915  11.264 -0.3957 -0.2115  0.1894
  549MOL0     H74065   2.376   4.941  11.114  1.5744 -0.0673  1.0895
  549MOL0     H74066   2.106   5.093  11.344  0.7203  0.9987  1.4785
  549MOL0     H74067   1.942   5.272  11.355  0.3539 -1.8384 -0.5359
  549MOL0     H74068   1.964   5.424  11.261 -1.4426  0.1262  0.1911
  549MOL0     H74069   1.834   5.176  11.175 -1.4371  0.3582 -0.0114
  549MOL0     H74070   1.843   5.311  11.070  0.0401 -2.1040 -0.2857
  549MOL0     H74071   1.713   5.439  11.274  0.9400 -0.3600 -1.0697
  549MOL0     H74072   1.694   5.272  11.347 -1.1735  1.4447  1.5143
  549MOL0     H74073   1.570   5.192  11.163  1.1802 -0.2793 -2.3855
  549MOL0     H74074   1.579   5.340  11.080 -2.8637  0.9093  0.7852
  549MOL0     H74075   1.250   5.388  11.365  1.4202 -0.7122  1.0607
  549MOL0     H74076   0.919   5.432  11.274 -0.7307  0.4869  0.6941
  549MOL0     H74077   0.931   5.263  11.358  1.2465  0.1964  1.9747
  549MOL0     H74078   1.017   5.410  11.406  2.2930  1.1126 -1.1043
  549MOL0     H74079   0.623   5.112  11.085  1.3501  1.5765  2.6101
  549MOL0     H74080   0.438   5.125  10.916  0.5161 -0.4365  0.6487
  549MOL0     H74081   0.253   5.286  10.880 -1.0287  0.6707 -0.4426
  549MOL0     H74082   0.232   5.418  10.761  1.4311  1.0570  0.9123
  549MOL0     H74083   0.272   5.126  10.684  1.2726  1.5566  0.0919
  549MOL0     H74084   0.118   5.193  10.751 -1.8794  2.0511 -1.0777
  549MOL0     H74085   0.278   5.280  10.503 -0.5888  0.1171  0.6419
  549MOL0     H74086   0.131   5.363  10.562 -1.1452 -0.0011  1.0748
  549MOL0     H74087   0.095   5.205  10.373  3.4266  0.4417  0.1235
  549MOL0     H74088   0.139   5.070  10.481 -0.2245  0.1975  3.3013
  549MOL0     H74089  -0.096   5.274  10.485 -1.9186 -0.8146 -0.8918
  549MOL0     H74090  -0.061   5.181  10.629 -2.0515 -0.0201 -0.1265
  549MOL0     H74091  -0.127   5.064  10.363 -0.4216  1.1173  0.4653
  549MOL0     H74092  -0.078   4.973  10.514  1.1774  0.8360  1.5076
  549MOL0     H74093  -0.339   5.133  10.455 -1.3537 -0.4374  0.6180
  549MOL0     H74094  -0.292   5.079  10.625  2.6249  1.4322  0.4687
  549MOL0     H74095  -0.450   4.916  10.510  1.1137  0.1904  4.9407
  549MOL0     H74096  -0.317   4.841  10.560  2.0132  1.6335  0.4338
  549MOL0     H74097   0.610   5.497  10.771 -1.8899 -1.0122 -1.2912
  549MOL0     H74098   0.792   5.468  10.925  1.7420 -1.8452 -4.3801
  549MOL0     H74099   1.180   5.207  10.905 -1.6946  2.7660 -0.5454
  549MOL0     H74100   1.401   5.246  10.991  0.4260  3.1521 -0.8335
  549MOL0     H74101   2.930   5.122  10.786 -0.6827 -1.3976 -0.9431
  549MOL0     H74102   3.030   5.200  10.586  0.4560  0.2554 -1.0696
  549MOL0     H74103   3.501   5.126  10.364 -0.4020 -1.8627 -1.3224
  549MOL0     H74104   3.640   5.147  10.155 -0.0134 -1.1091 -0.2486
  549MOL0     H74105   3.755   5.254   9.980 -1.1624 -2.4405  1.4528
  549MOL0     H74106   3.664   5.124   9.919 -0.9575 -1.2900 -3.6220
  549MOL0     H74107   3.812   5.194   9.750  0.1632  1.0157 -0.0448
  549MOL0     H74108   3.756   5.363   9.770 -3.0075  1.1589  2.2271
  549MOL0     H74109   3.664   5.243   9.556  0.8367 -0.8419 -0.2502
  549MOL0     H74110   3.545   5.295   9.660  2.9324  2.6447 -1.2767
  549MOL0     H74111   3.528   5.055   9.752  0.5125 -1.5325 -0.2223
  549MOL0     H74112   3.655   5.005   9.635  0.6725  0.9620 -0.2571
  549MOL0     H74113   3.310   5.025   9.390 -0.4246 -0.0959 -0.4759
  549MOL0     H74114   3.314   5.383   9.980 -1.7761 -3.0939 -1.5072
  549MOL0     H74115   3.184   5.344  10.175 -0.3118  0.2129 -0.6622
  550MOL0     O74116   5.554   4.602   7.669  0.0674  0.2974  0.5062
  550MOL0     C74117   5.616   4.623   7.767  0.5548  0.3671 -0.1461
  550MOL0     O74118   5.573   4.664   7.887  0.8023 -0.2706  0.7400
  550MOL0     C74119   5.462   4.746   7.896 -0.8102  1.1016  0.0361
  550MOL0     C74120   5.375   4.714   7.996 -0.7256  0.3807 -0.3622
  550MOL0     C74121   5.260   4.788   8.019 -0.3959 -0.6762  0.6466
  550MOL0     C74122   5.223   4.888   7.924 -0.4281 -0.1785  0.2812
  550MOL0     O74123   5.107   4.953   7.911  0.1824 -0.7615 -0.6274
  550MOL0     C74124   4.996   4.893   7.984 -0.9181  0.1257  0.0764
  550MOL0     C74125   4.870   4.928   7.903  0.2167  0.0765 -0.1730
  550MOL0     C74126   4.752   4.829   7.937  0.0879  0.4400  0.0811
  550MOL0     C74127   4.676   4.869   8.065  0.2806 -0.3007  0.7559
  550MOL0     C74128   4.569   4.778   8.120 -0.7398 -0.0757 -0.6605
  550MOL0     C74129   4.475   4.726   8.015 -0.0953 -0.3059  0.5140
  550MOL0     C74130   4.369   4.629   8.064  0.1869 -1.0852  0.1413
  550MOL0     C74131   4.276   4.689   8.169  0.0400 -0.0554 -0.6088
  550MOL0     N74132   4.172   4.783   8.131 -0.6819 -1.0275 -0.1628
  550MOL0     C74133   4.072   4.769   8.041 -0.5400 -0.2521 -0.2380
  550MOL0     C74134   3.987   4.880   8.073 -0.0119  0.0966 -0.6181
  550MOL0     C74135   3.845   4.884   8.023 -0.3650  0.4738 -0.4163
  550MOL0     C74136   3.744   4.815   8.116  0.5166  0.4780  0.5662
  550MOL0     C74137   3.594   4.827   8.068 -0.5969 -0.1210 -0.0640
  550MOL0     C74138   3.501   4.715   8.118 -0.6074 -1.0604  0.1345
  550MOL0     O74139   3.371   4.751   8.075 -0.1238 -0.1348 -0.3224
  550MOL0     C74140   3.269   4.668   8.094 -0.3422  0.6377 -0.9335
  550MOL0     C74141   3.150   4.705   8.033 -0.0245  0.9343  0.3945
  550MOL0     C74142   3.033   4.631   8.049  0.2987 -0.7166  0.0691
  550MOL0     C74143   2.911   4.698   7.996  0.4477 -0.4500  1.0790
  550MOL0     C74144   3.034   4.514   8.130 -0.4659  1.0492  0.2282
  550MOL0     C74145   2.930   4.412   8.138  0.6419  0.3799 -0.2165
  550MOL0     O74146   2.812   4.445   8.080 -0.0321 -0.3817 -0.1821
  550MOL0     C74147   2.697   4.366   8.091 -0.2392 -0.1596 -0.6089
  550MOL0     C74148   2.575   4.432   8.128  0.1203  0.7040  0.1626
  550MOL0     C74149   2.459   4.351   8.133 -0.8186  0.1923 -0.6358
  550MOL0     C74150   2.461   4.214   8.106 -0.3460 -0.4496 -0.5986
  550MOL0     O74151   2.337   4.147   8.121  0.0224 -0.0719 -0.4950
  550MOL0     C74152   2.347   4.017   8.179 -0.2818  0.5925 -0.8941
  550MOL0     C74153   2.206   3.960   8.205 -0.3606  0.4335  0.4806
  550MOL0     C74154   2.210   3.804   8.227 -0.2138 -0.1748  0.6622
  550MOL0     C74155   2.065   3.756   8.248  0.2001 -0.0238 -0.8884
  550MOL0     C74156   2.070   3.628   8.337  0.1419  0.2511  0.3008
  550MOL0     C74157   1.932   3.561   8.350  0.6303  0.8973 -0.0720
  550MOL0     C74158   1.856   3.603   8.470 -0.4744  0.2378 -0.0613
  550MOL0     C74159   1.728   3.515   8.490  0.1319 -0.4224  0.1329
  550MOL0    Cl74160   1.602   3.536   8.356 -0.0983 -0.3215 -0.2373
  550MOL0     C74161   2.577   4.152   8.060 -1.0413  0.0913 -0.0666
  550MOL0     C74162   2.699   4.228   8.057 -0.6982  0.0427  0.4183
  550MOL0     O74163   2.947   4.309   8.206  0.4344  0.3407  0.1773
  550MOL0     C74164   3.157   4.487   8.200  0.4909  0.3604 -0.2248
  550MOL0     C74165   3.270   4.562   8.182  0.7707  0.5025 -0.2087
  550MOL0     N74166   4.048   4.962   8.164  0.6792  0.0110  0.9109
  550MOL0     N74167   4.160   4.904   8.198 -0.0116 -0.0145  0.4664
  550MOL0     C74168   5.309   4.924   7.826 -0.3806 -0.1539  0.2206
  550MOL0     C74169   5.427   4.856   7.814 -0.3819  0.8339 -0.3937
  550MOL0     C74170   5.760   4.584   7.756 -0.2666 -0.5288 -0.2690
  550MOL0     C74171   5.858   4.654   7.830  0.0673  0.5197  0.3486
  550MOL0     C74172   5.995   4.618   7.811 -0.2287 -0.0712  0.1994
  550MOL0     C74173   6.030   4.523   7.712 -0.3874 -0.0806  0.3724
  550MOL0     O74174   6.161   4.495   7.677 -0.1934  0.6600 -0.0004
  550MOL0     C74175   6.278   4.548   7.747  0.4332 -0.1553 -0.2538
  550MOL0     C74176   6.405   4.501   7.680  0.2933 -0.6715 -0.5712
  550MOL0     C74177   6.432   4.532   7.536  0.6847  0.2948  1.0814
  550MOL0     C74178   6.362   4.433   7.437  0.5541  0.3693 -0.6509
  550MOL0     C74179   6.449   4.320   7.415 -0.1319  0.3350 -0.2604
  550MOL0     C74180   6.544   4.234   7.409  1.2785 -0.9945 -0.2339
  550MOL0     C74181   5.932   4.461   7.636  0.4541 -0.5479  0.2023
  550MOL0     C74182   5.798   4.495   7.661  0.0167  0.1956  0.2835
  550MOL0     H74183   5.401   4.623   8.050 -0.3425  1.3910  1.2032
  550MOL0     H74184   5.187   4.761   8.094 -2.8274 -0.2338 -1.4034
  550MOL0     H74185   5.007   4.784   7.980 -1.9638 -0.4861  5.6448
  550MOL0     H74186   4.999   4.925   8.088  1.8735  2.1796 -0.5508
  550MOL0     H74187   4.832   5.025   7.934 -0.6311 -0.6578  1.1916
  550MOL0     H74188   4.899   4.937   7.798  1.7739  1.4727  0.3335
  550MOL0     H74189   4.681   4.840   7.854 -0.1395 -4.3182 -0.6270
  550MOL0     H74190   4.785   4.725   7.944  4.1848  1.4167 -1.6209
  550MOL0     H74191   4.738   4.896   8.151 -0.6073 -1.8393  1.9307
  550MOL0     H74192   4.623   4.960   8.036  0.8027 -0.6956 -1.6243
  550MOL0     H74193   4.607   4.688   8.169  0.0098  0.2068 -0.7238
  550MOL0     H74194   4.524   4.838   8.200  1.0017  0.8372 -0.3320
  550MOL0     H74195   4.415   4.811   7.981  0.7064 -0.0303 -0.2345
  550MOL0     H74196   4.525   4.686   7.927 -2.3105  2.5771 -2.2737
  550MOL0     H74197   4.302   4.598   7.983 -1.1857 -1.0832  1.2258
  550MOL0     H74198   4.422   4.543   8.105 -1.0409 -2.1158 -0.3702
  550MOL0     H74199   4.338   4.745   8.240 -1.0274  3.1962 -2.0627
  550MOL0     H74200   4.222   4.611   8.224 -2.0017  0.7169 -1.4115
  550MOL0     H74201   4.058   4.690   7.967  0.5940  0.3652 -1.1239
  550MOL0     H74202   3.820   4.991   8.021 -0.5231  0.4256 -1.2867
  550MOL0     H74203   3.827   4.847   7.922  0.3703  2.3865 -1.2942
  550MOL0     H74204   3.759   4.861   8.213 -2.5821  2.4745  0.2536
  550MOL0     H74205   3.780   4.712   8.123  0.5596  0.3931 -0.6140
  550MOL0     H74206   3.602   4.813   7.960 -1.3924  0.4546 -0.2059
  550MOL0     H74207   3.555   4.928   8.087  0.7030  1.0551 -3.0657
  550MOL0     H74208   3.510   4.722   8.227  2.1921 -0.2843 -0.0540
  550MOL0     H74209   3.535   4.624   8.069 -1.2287  0.3935 -3.2441
  550MOL0     H74210   3.146   4.799   7.977 -1.8493  0.4185 -0.4180
  550MOL0     H74211   2.818   4.696   8.054 -2.8699 -0.0327 -3.6171
  550MOL0     H74212   2.933   4.802   7.971 -1.3351 -0.1297  0.7343
  550MOL0     H74213   2.884   4.655   7.899  3.0540  0.4702 -0.1470
  550MOL0     H74214   2.581   4.533   8.167  1.9366 -0.2449  2.5963
  550MOL0     H74215   2.369   4.405   8.159 -2.2047 -1.7721 -1.1287
  550MOL0     H74216   2.402   3.944   8.119 -0.0923  0.0476 -0.0789
  550MOL0     H74217   2.400   4.017   8.274  0.7412  2.6889 -1.4020
  550MOL0     H74218   2.165   3.997   8.299 -0.9874  0.1135  0.3431
  550MOL0     H74219   2.145   3.985   8.117  1.8091 -0.7041 -1.4502
  550MOL0     H74220   2.267   3.780   8.317 -0.2876 -0.8664  0.5306
  550MOL0     H74221   2.253   3.758   8.138 -0.7379 -0.4702  0.5549
  550MOL0     H74222   2.020   3.834   8.310  3.5980  1.3485  0.1107
  550MOL0     H74223   2.013   3.732   8.155  2.0583 -0.0772 -1.9519
  550MOL0     H74224   2.101   3.647   8.440  2.6608  3.5437 -0.8949
  550MOL0     H74225   2.147   3.561   8.296  1.7115  1.1797  1.6200
  550MOL0     H74226   1.878   3.593   8.260  1.1479  0.5138 -0.5200
  550MOL0     H74227   1.945   3.452   8.357 -0.3202  0.8386  1.0300
  550MOL0     H74228   1.818   3.704   8.455  1.8808  1.2486  0.2798
  550MOL0     H74229   1.917   3.609   8.561 -0.6090  1.7125 -0.0522
  550MOL0     H74230   1.678   3.541   8.584 -2.5932 -0.3459 -1.2549
  550MOL0     H74231   1.761   3.410   8.490 -1.2190 -0.8819  1.3471
  550MOL0     H74232   2.573   4.049   8.026 -5.0096 -0.1207  0.5720
  550MOL0     H74233   2.785   4.180   8.012 -1.5831  0.3139 -1.7017
  550MOL0     H74234   3.163   4.399   8.264  0.8854 -1.2855 -2.4300
  550MOL0     H74235   3.354   4.534   8.246 -0.4319 -1.6143  0.5202
  550MOL0     H74236   5.287   4.991   7.744  2.9668 -1.8985 -2.3753
  550MOL0     H74237   5.490   4.876   7.727  0.6825  0.0892  0.1740
  550MOL0     H74238   5.836   4.729   7.905  0.2475  0.2568  0.6719
  550MOL0     H74239   6.074   4.666   7.869 -0.9081  2.7371 -1.0502
  550MOL0     H74240   6.273   4.657   7.749 -2.2380 -0.2144 -0.0158
  550MOL0     H74241   6.281   4.515   7.851  2.1135  1.3987  0.2563
  550MOL0     H74242   6.415   4.393   7.687  2.8409 -0.3764  2.1158
  550MOL0     H74243   6.483   4.536   7.749  1.0816  1.7687 -2.5188
  550MOL0     H74244   6.539   4.534   7.514  0.3648 -0.3441 -0.6828
  550MOL0     H74245   6.395   4.634   7.517 -1.4325 -0.6659 -0.3899
  550MOL0     H74246   6.343   4.480   7.340  1.4101  0.3307 -0.8393
  550MOL0     H74247   6.268   4.391   7.475  1.8058 -0.8702  1.2156
  550MOL0     H74248   6.634   4.179   7.393 -0.6690 -4.3332 -0.7224
  550MOL0     H74249   5.976   4.400   7.557 -0.2604 -2.4842  1.2414
  550MOL0     H74250   5.725   4.446   7.597 -2.3385  0.4974  2.5554
  551MOL0     O74251   6.231   2.135   2.262 -0.4764  0.9821 -0.2269
  551MOL0     C74252   6.179   2.048   2.205 -0.2697  0.4974  0.7759
  551MOL0     O74253   6.047   2.021   2.213 -0.1043  0.9003  0.3289
  551MOL0     C74254   5.974   2.116   2.282 -0.5453 -0.2097  0.6140
  551MOL0     C74255   5.963   2.101   2.423  0.4160  0.4144  0.0796
  551MOL0     C74256   5.865   2.190   2.488 -0.6265 -0.4480 -0.3859
  551MOL0     C74257   5.810   2.292   2.415 -0.0451  0.0132 -0.3733
  551MOL0     O74258   5.723   2.383   2.470 -0.2159 -0.1709  0.1486
  551MOL0     C74259   5.613   2.314   2.535 -0.4724 -0.9435  1.1026
  551MOL0     C74260   5.527   2.413   2.600 -0.0964 -0.8042  0.0398
  551MOL0     C74261   5.421   2.352   2.688 -0.5748 -0.5799  0.0611
  551MOL0     C74262   5.316   2.463   2.705 -0.0975 -0.4570 -0.0807
  551MOL0     C74263   5.228   2.437   2.823 -0.6249  0.0326 -0.2925
  551MOL0     C74264   5.139   2.561   2.859 -0.0613  0.0399  0.3143
  551MOL0     C74265   5.091   2.554   3.007 -0.3055 -0.3340  0.1814
  551MOL0     C74266   5.048   2.694   3.046 -0.2372  0.3619  0.0826
  551MOL0     N74267   4.955   2.707   3.157  0.4232  0.0739  0.3335
  551MOL0     C74268   4.965   2.661   3.284  0.0458 -0.4932 -1.0963
  551MOL0     C74269   4.845   2.675   3.344 -0.0723  0.3749  0.5639
  551MOL0     C74270   4.823   2.620   3.485 -0.8058  0.0064  0.2409
  551MOL0     C74271   4.708   2.518   3.474 -0.3475 -0.5473  0.8566
  551MOL0     C74272   4.686   2.446   3.602 -0.0269  0.6399 -0.3698
  551MOL0     C74273   4.585   2.334   3.587 -0.1071 -0.4978 -0.4540
  551MOL0     O74274   4.465   2.385   3.519  0.1611 -0.3692  0.0786
  551MOL0     C74275   4.348   2.315   3.530 -0.5207 -0.5973 -0.1159
  551MOL0     C74276   4.236   2.372   3.470  0.4066  0.5489  0.8999
  551MOL0     C74277   4.108   2.319   3.473  0.2505 -0.0094  0.3505
  551MOL0     C74278   3.993   2.409   3.440  0.6041 -0.2302  0.2645
  551MOL0     C74279   4.087   2.198   3.550 -0.6574  0.3031  0.3016
  551MOL0     C74280   3.957   2.145   3.575 -0.2616 -0.0584  0.4127
  551MOL0     O74281   3.941   2.084   3.695  0.5168 -0.0041 -0.3042
  551MOL0     C74282   3.813   2.077   3.745  0.3751  0.7207 -0.1718
  551MOL0     C74283   3.781   2.138   3.870 -0.1683  0.1621 -0.0311
  551MOL0     C74284   3.655   2.123   3.926 -1.1589  0.6409 -0.8284
  551MOL0     C74285   3.550   2.063   3.856 -0.2011 -0.1415 -0.2355
  551MOL0     O74286   3.423   2.052   3.908  0.1836  0.0714 -0.0414
  551MOL0     C74287   3.373   2.166   3.976  0.2830  0.2751  0.9771
  551MOL0     C74288   3.227   2.142   3.978  0.3993 -0.1298  0.8731
  551MOL0     C74289   3.158   2.266   4.034 -0.1763 -1.1601  0.4135
  551MOL0     C74290   3.027   2.231   4.101 -0.2725  0.1176  0.3347
  551MOL0     C74291   2.941   2.349   4.140 -0.7659 -0.0206 -0.1001
  551MOL0     C74292   2.796   2.320   4.180  1.0650  0.2827  0.3152
  551MOL0     C74293   2.725   2.446   4.242 -0.6497  0.7037 -0.6566
  551MOL0     C74294   2.574   2.424   4.279  0.3806  0.4107  0.1462
  551MOL0    Cl74295   2.481   2.578   4.260 -0.0432  0.1420  0.0128
  551MOL0     C74296   3.581   1.998   3.742  0.2414  1.0346  0.2879
  551MOL0     C74297   3.707   2.001   3.688 -0.6184 -0.1387 -0.1043
  551MOL0     O74298   3.874   2.144   3.484  0.0315 -0.1483  0.0058
  551MOL0     C74299   4.206   2.129   3.594  0.2204 -0.2422  0.6537
  551MOL0     C74300   4.334   2.192   3.584  0.4199  0.7018  0.8502
  551MOL0     N74301   4.759   2.735   3.250  0.8867  0.4841  0.4203
  551MOL0     N74302   4.828   2.749   3.138  0.5132 -0.4358  0.2636
  551MOL0     C74303   5.830   2.302   2.280 -0.0365 -0.5621 -0.6794
  551MOL0     C74304   5.908   2.208   2.208  0.3490 -0.3996 -0.5439
  551MOL0     C74305   6.256   1.947   2.129 -0.9920  0.5818  0.6458
  551MOL0     C74306   6.394   1.936   2.138 -0.2405 -0.0833 -0.2936
  551MOL0     C74307   6.459   1.836   2.061  0.0029 -0.2950 -0.8306
  551MOL0     C74308   6.390   1.750   1.977  0.4670  0.4542 -0.3838
  551MOL0     O74309   6.443   1.640   1.921  0.3930 -0.1255  0.7789
  551MOL0     C74310   6.584   1.619   1.917 -1.0183 -0.3616 -0.7853
  551MOL0     C74311   6.633   1.506   1.823 -0.6652 -0.0699  0.3527
  551MOL0     C74312   6.792   1.497   1.823  0.6333 -0.3342 -0.0045
  551MOL0     C74313   6.866   1.475   1.959 -0.5176  0.0055 -0.2777
  551MOL0     C74314   7.003   1.432   1.929  0.8843  0.4194  0.5825
  551MOL0     C74315   7.112   1.400   1.897 -0.5119  0.2745  0.0714
  551MOL0     C74316   6.248   1.755   1.976 -0.0976  0.3147 -0.1191
  551MOL0     C74317   6.186   1.861   2.035  0.5119 -0.0460 -0.2569
  551MOL0     H74318   6.020   2.022   2.472  0.5338  0.7441  0.4742
  551MOL0     H74319   5.865   2.175   2.596 -0.0934  0.4484 -0.2440
  551MOL0     H74320   5.554   2.259   2.460  0.4488  1.7283 -1.7915
  551MOL0     H74321   5.655   2.244   2.609  4.1705  0.1165 -0.1743
  551MOL0     H74322   5.595   2.480   2.653  2.4488 -1.9390 -1.5821
  551MOL0     H74323   5.486   2.472   2.518  1.8274  1.7087  0.7320
  551MOL0     H74324   5.364   2.267   2.648 -0.8225 -0.0926 -0.6393
  551MOL0     H74325   5.473   2.325   2.780 -1.0299  3.1913  1.5995
  551MOL0     H74326   5.370   2.559   2.709 -0.1762 -0.4319  0.6511
  551MOL0     H74327   5.256   2.453   2.615 -0.2062  0.3495 -0.1063
  551MOL0     H74328   5.171   2.349   2.790 -1.0770 -0.0301  0.6348
  551MOL0     H74329   5.292   2.424   2.910  2.4321 -0.7818 -2.4793
  551MOL0     H74330   5.193   2.656   2.846 -1.3922  0.5412 -2.0387
  551MOL0     H74331   5.056   2.576   2.790 -0.8140  2.5834  1.6532
  551MOL0     H74332   5.007   2.484   3.005 -1.3055  0.7380  1.8146
  551MOL0     H74333   5.165   2.518   3.078 -1.9425  0.6964  2.5539
  551MOL0     H74334   5.018   2.756   2.962  0.1291  0.5969  0.1226
  551MOL0     H74335   5.135   2.739   3.095 -0.3558  0.5477  0.1229
  551MOL0     H74336   5.043   2.600   3.329  0.8410  2.0871  1.3294
  551MOL0     H74337   4.912   2.582   3.536 -0.5781  2.1528  1.5769
  551MOL0     H74338   4.798   2.704   3.550 -0.3172  0.7561 -0.5086
  551MOL0     H74339   4.741   2.445   3.400  0.8861  1.2518 -0.4633
  551MOL0     H74340   4.619   2.573   3.443 -0.7415 -0.4769  2.0559
  551MOL0     H74341   4.641   2.515   3.674 -0.4241  1.2875 -1.2191
  551MOL0     H74342   4.780   2.402   3.637 -0.5383  0.3297  0.6464
  551MOL0     H74343   4.556   2.297   3.686 -1.9025  0.5604 -0.5354
  551MOL0     H74344   4.629   2.246   3.541  0.3198 -0.7688  0.4484
  551MOL0     H74345   4.251   2.471   3.427  2.1739 -0.7603 -1.7286
  551MOL0     H74346   3.946   2.371   3.349  0.8514 -2.3609  0.9689
  551MOL0     H74347   3.919   2.421   3.519  0.3897  0.1944  0.0032
  551MOL0     H74348   4.030   2.511   3.421  0.9902 -0.8458 -2.8636
  551MOL0     H74349   3.859   2.187   3.927  0.2265 -2.1498  1.5527
  551MOL0     H74350   3.628   2.164   4.023 -1.1017  0.5061 -0.7547
  551MOL0     H74351   3.415   2.166   4.078  0.3522  1.3122  0.9585
  551MOL0     H74352   3.396   2.260   3.926  0.3933  0.5039  1.4475
  551MOL0     H74353   3.183   2.130   3.878  0.6301  1.7081  0.5254
  551MOL0     H74354   3.187   2.054   4.030 -4.2963  0.4131 -1.2499
  551MOL0     H74355   3.143   2.336   3.952 -0.5154  0.6295  1.9376
  551MOL0     H74356   3.221   2.303   4.116  0.0473 -0.6643  0.0199
  551MOL0     H74357   2.980   2.167   4.025  1.0100  1.7990 -2.0034
  551MOL0     H74358   3.054   2.178   4.193 -1.0314  0.9212  1.0388
  551MOL0     H74359   2.935   2.418   4.056 -3.6277 -1.0228 -0.8544
  551MOL0     H74360   2.997   2.403   4.218  2.2047 -1.2709 -1.2083
  551MOL0     H74361   2.740   2.279   4.096  1.8778  0.2825 -0.2367
  551MOL0     H74362   2.796   2.231   4.244 -1.1361 -1.1399 -1.5294
  551MOL0     H74363   2.742   2.519   4.162  2.7785  0.3079 -0.4472
  551MOL0     H74364   2.770   2.485   4.334 -4.2828  1.9595  0.7517
  551MOL0     H74365   2.556   2.386   4.380 -3.3537  2.1020  0.2832
  551MOL0     H74366   2.536   2.345   4.214  3.4166 -0.8312 -0.2847
  551MOL0     H74367   3.502   1.948   3.687 -4.1302  2.1304  4.8230
  551MOL0     H74368   3.715   1.946   3.594  1.4359  0.4897 -0.3459
  551MOL0     H74369   4.209   2.028   3.635  1.6250 -1.3127 -1.8434
  551MOL0     H74370   4.421   2.133   3.613 -0.7717 -2.9595 -2.2144
  551MOL0     H74371   5.780   2.381   2.224  1.9872  0.8286 -0.6434
  551MOL0     H74372   5.908   2.213   2.100  1.0500  0.7925 -0.5042
  551MOL0     H74373   6.447   1.992   2.213 -1.5554 -3.4405  3.4811
  551MOL0     H74374   6.564   1.823   2.088 -0.5868 -0.4335  1.6806
  551MOL0     H74375   6.630   1.714   1.888 -0.2484  0.2175  2.0762
  551MOL0     H74376   6.619   1.605   2.020 -1.3322  0.9106 -0.4922
  551MOL0     H74377   6.587   1.525   1.726 -4.0144  2.0798  2.1302
  551MOL0     H74378   6.590   1.409   1.849  1.4895 -0.8163  1.4260
  551MOL0     H74379   6.838   1.591   1.790  0.4276 -0.4250 -0.5725
  551MOL0     H74380   6.823   1.421   1.751 -0.5677  0.7259 -1.7281
  551MOL0     H74381   6.805   1.395   2.003 -1.9653  0.6536 -1.0742
  551MOL0     H74382   6.873   1.562   2.024  0.5245 -0.9030  0.8816
  551MOL0     H74383   7.212   1.378   1.867 -0.3591 -0.3389  0.9892
  551MOL0     H74384   6.194   1.680   1.919  0.1294  0.2788 -0.2884
  551MOL0     H74385   6.078   1.862   2.033  0.5012 -0.4158  0.0936
  552MOL0     O74386  11.175   4.092   3.806 -0.1145  0.3714 -0.1922
  552MOL0     C74387  11.196   3.970   3.814 -0.2911 -0.1906 -0.2416
  552MOL0     O74388  11.318   3.915   3.871 -0.0136  0.0799 -0.2331
  552MOL0     C74389  11.391   4.008   3.939 -0.0706 -0.5523  0.8436
  552MOL0     C74390  11.345   4.059   4.058 -0.1843  0.5602  0.0255
  552MOL0     C74391  11.427   4.151   4.131  0.4335 -0.4014 -0.0549
  552MOL0     C74392  11.552   4.187   4.086  0.5515 -0.2311  1.0967
  552MOL0     O74393  11.627   4.284   4.142  0.0150  0.6063 -0.1110
  552MOL0     C74394  11.602   4.325   4.277  0.5915  0.6272  0.4541
  552MOL0     C74395  11.711   4.420   4.320 -0.2901 -0.3532  0.5829
  552MOL0     C74396  11.703   4.487   4.456 -0.0963  0.6817  0.6388
  552MOL0     C74397  11.831   4.559   4.496 -0.3733 -0.3732 -0.1558
  552MOL0     C74398  11.839   4.700   4.442  0.3250  0.4078  0.3107
  552MOL0     C74399  11.962   4.782   4.490 -0.1617  0.2689 -0.6140
  552MOL0     C74400  12.002   4.907   4.412  0.1906  0.4714  0.0407
  552MOL0     C74401  11.926   5.043   4.434  0.4030 -0.0571 -0.4780
  552MOL0     N74402  11.783   5.019   4.463  0.5175 -0.6181  0.0771
  552MOL0     C74403  11.674   5.058   4.394  0.9028  0.4387 -0.1341
  552MOL0     C74404  11.571   5.034   4.486  0.0105 -0.4401  0.0497
  552MOL0     C74405  11.431   5.080   4.480  0.3957 -0.5271 -1.1799
  552MOL0     C74406  11.344   4.982   4.405 -0.0266 -0.0963  0.3942
  552MOL0     C74407  11.372   4.952   4.254 -0.0971 -0.1579 -0.1707
  552MOL0     C74408  11.393   5.068   4.157 -0.4257 -0.7287 -0.3414
  552MOL0     O74409  11.286   5.173   4.164  0.4485  0.7420  0.5338
  552MOL0     C74410  11.158   5.146   4.115  0.9911 -0.1393 -0.0716
  552MOL0     C74411  11.125   5.038   4.038 -0.5826  0.2168  0.1780
  552MOL0     C74412  11.004   5.017   3.979 -0.4136  0.2377  0.6181
  552MOL0     C74413  10.996   4.899   3.883  0.6861  0.3608  0.1977
  552MOL0     C74414  10.899   5.105   3.999  0.4514 -0.3769 -1.0943
  552MOL0     C74415  10.759   5.091   3.939  0.9288  0.1923  0.4621
  552MOL0     O74416  10.700   5.203   3.909 -0.0766 -0.7320  0.2833
  552MOL0     C74417  10.564   5.220   3.902 -0.3512  0.7436 -0.1531
  552MOL0     C74418  10.509   5.294   3.804  0.3646 -0.0194  0.2629
  552MOL0     C74419  10.370   5.316   3.798  0.0237 -0.4328  0.3051
  552MOL0     C74420  10.282   5.252   3.878  0.5822  0.0433  0.1251
  552MOL0     O74421  10.150   5.295   3.890  0.5047  0.1948 -0.2065
  552MOL0     C74422  10.080   5.329   3.768 -0.6189 -0.6701  1.0562
  552MOL0     C74423   9.943   5.252   3.791 -1.0624 -0.1159  0.3712
  552MOL0     C74424   9.874   5.235   3.655  0.1356  0.0181 -0.7533
  552MOL0     C74425   9.730   5.191   3.684  0.0790  0.8263  0.8564
  552MOL0     C74426   9.617   5.227   3.575 -1.3545  0.9241 -0.2615
  552MOL0     C74427   9.603   5.378   3.557  0.2954  0.2458  0.6003
  552MOL0     C74428   9.459   5.410   3.509  0.2626 -0.2677  1.0999
  552MOL0     C74429   9.427   5.558   3.493  0.4484  0.7363  0.4514
  552MOL0    Cl74430   9.465   5.654   3.639  0.2324  0.5404  0.5926
  552MOL0     C74431  10.332   5.156   3.964  0.6163 -0.5552 -0.7587
  552MOL0     C74432  10.469   5.145   3.987 -0.5024  0.2803 -0.4220
  552MOL0     O74433  10.706   4.984   3.941  0.0324  0.5594  0.4268
  552MOL0     C74434  10.929   5.216   4.086  0.1235 -0.1637  0.7225
  552MOL0     C74435  11.058   5.238   4.137 -0.0405 -0.0027  0.5704
  552MOL0     N74436  11.622   4.979   4.600  0.1039 -0.0659 -0.2993
  552MOL0     N74437  11.748   4.983   4.587 -0.2210 -0.1495  0.5822
  552MOL0     C74438  11.593   4.134   3.964 -0.3870 -0.8793  0.6702
  552MOL0     C74439  11.515   4.043   3.891  0.4483  1.1110 -0.2419
  552MOL0     C74440  11.094   3.868   3.778  0.5970 -0.7156  0.1911
  552MOL0     C74441  11.112   3.734   3.801 -0.4356  0.0863 -0.4096
  552MOL0     C74442  11.010   3.633   3.790  0.7510  0.3981  0.3226
  552MOL0     C74443  10.879   3.680   3.758 -0.8095  0.6498 -0.3536
  552MOL0     O74444  10.769   3.608   3.744  0.1049 -0.0264 -0.0891
  552MOL0     C74445  10.768   3.462   3.747 -0.5781 -1.0934  0.3271
  552MOL0     C74446  10.630   3.414   3.694 -1.1458 -0.5889 -0.3093
  552MOL0     C74447  10.519   3.446   3.795 -0.0750  0.1480  0.4058
  552MOL0     C74448  10.520   3.346   3.907  0.0970 -0.5981  0.4363
  552MOL0     C74449  10.427   3.238   3.877  0.7096  0.3219  0.2880
  552MOL0     C74450  10.360   3.141   3.833  0.6787 -0.6997  0.2346
  552MOL0     C74451  10.863   3.816   3.720 -0.3030 -0.5225  0.4847
  552MOL0     C74452  10.966   3.906   3.734 -0.7469  0.0194 -0.4554
  552MOL0     H74453  11.242   4.034   4.082 -0.0437 -0.2075 -0.1498
  552MOL0     H74454  11.383   4.183   4.225 -0.8802 -1.5768 -0.2282
  552MOL0     H74455  11.507   4.379   4.289  1.4942  1.7059  4.0045
  552MOL0     H74456  11.604   4.234   4.338  0.1941  1.0640  1.1240
  552MOL0     H74457  11.809   4.371   4.312  0.8065  1.6022  1.2231
  552MOL0     H74458  11.709   4.503   4.248  0.9030  0.6239  1.6205
  552MOL0     H74459  11.612   4.547   4.452 -0.1398  0.5567 -1.6335
  552MOL0     H74460  11.696   4.396   4.515  1.2495 -1.1415 -1.8371
  552MOL0     H74461  11.838   4.564   4.605  0.5448  0.8081 -0.2495
  552MOL0     H74462  11.923   4.502   4.478  2.0388  3.0699  0.2835
  552MOL0     H74463  11.850   4.697   4.333 -0.6697 -0.0583  0.2191
  552MOL0     H74464  11.751   4.760   4.463  1.6897  2.1164  1.4412
  552MOL0     H74465  11.941   4.812   4.593 -1.8377 -2.2050 -0.1515
  552MOL0     H74466  12.051   4.718   4.483  0.7631  1.5481 -1.1272
  552MOL0     H74467  12.105   4.933   4.439  0.5289  0.7182 -1.3656
  552MOL0     H74468  11.989   4.883   4.306 -1.9253 -0.5209  0.4740
  552MOL0     H74469  11.937   5.121   4.358  0.3796  1.0503  0.6221
  552MOL0     H74470  11.965   5.073   4.531 -2.0641  0.7988  0.3258
  552MOL0     H74471  11.666   5.112   4.300  1.3548 -2.0142 -1.6763
  552MOL0     H74472  11.400   5.096   4.583  0.6245 -3.1161 -0.6499
  552MOL0     H74473  11.434   5.173   4.422  1.4246  1.8971  2.4395
  552MOL0     H74474  11.247   5.032   4.398  1.2694  2.7613  1.2638
  552MOL0     H74475  11.336   4.890   4.465 -3.0883 -0.0755  0.2075
  552MOL0     H74476  11.286   4.895   4.218  0.3903 -2.4887  2.0479
  552MOL0     H74477  11.463   4.890   4.256  0.0691 -0.3771  6.3511
  552MOL0     H74478  11.409   5.038   4.053  1.1787  2.7868 -1.2405
  552MOL0     H74479  11.486   5.119   4.185 -1.7821  1.3046  0.7041
  552MOL0     H74480  11.201   4.967   4.008 -0.2082  0.8659 -0.4359
  552MOL0     H74481  10.911   4.836   3.911  1.1789 -0.9691 -1.1478
  552MOL0     H74482  10.990   4.939   3.782  2.0767 -1.3094 -0.6093
  552MOL0     H74483  11.083   4.833   3.879 -0.5350 -1.2802 -0.7268
  552MOL0     H74484  10.572   5.350   3.736 -0.5810  0.3205 -0.3671
  552MOL0     H74485  10.340   5.391   3.726  0.2236 -2.4211 -1.9772
  552MOL0     H74486  10.053   5.435   3.758 -1.4295 -1.0400 -1.3927
  552MOL0     H74487  10.138   5.288   3.684 -2.1929 -3.6147  1.2722
  552MOL0     H74488   9.968   5.152   3.827 -1.0497 -0.9515 -1.7871
  552MOL0     H74489   9.886   5.313   3.861  2.0195  3.1981  0.2576
  552MOL0     H74490   9.928   5.161   3.595 -0.4060 -3.0754  2.2765
  552MOL0     H74491   9.867   5.332   3.603 -2.0805 -1.5669 -3.7012
  552MOL0     H74492   9.737   5.082   3.680  0.3087  0.8517  0.5211
  552MOL0     H74493   9.689   5.234   3.776 -0.3216  0.2713  0.9436
  552MOL0     H74494   9.524   5.184   3.613 -1.8199  1.9049 -0.2527
  552MOL0     H74495   9.632   5.181   3.476 -0.7744 -0.3451  0.3974
  552MOL0     H74496   9.620   5.431   3.651 -0.9980  0.4465  0.7277
  552MOL0     H74497   9.682   5.419   3.494  0.6725  0.1374  0.9905
  552MOL0     H74498   9.381   5.360   3.568  1.3447 -0.2723  2.5914
  552MOL0     H74499   9.457   5.367   3.409  1.0630 -2.6590  2.0371
  552MOL0     H74500   9.321   5.575   3.473  0.7660  0.7535 -1.4332
  552MOL0     H74501   9.477   5.600   3.405  1.2235  0.4199  0.7250
  552MOL0     H74502  10.266   5.102   4.031  0.8290 -1.3365 -1.1684
  552MOL0     H74503  10.492   5.077   4.069  1.1030 -1.1677 -1.9936
  552MOL0     H74504  10.859   5.298   4.094  1.0304  0.6315  0.6476
  552MOL0     H74505  11.074   5.329   4.193  1.0536 -0.1331  0.4912
  552MOL0     H74506  11.692   4.155   3.925 -0.8393 -3.8722 -2.5984
  552MOL0     H74507  11.561   3.989   3.808  0.5218  1.7063 -0.5950
  552MOL0     H74508  11.214   3.711   3.829 -0.5120  0.1589 -0.0721
  552MOL0     H74509  11.017   3.529   3.820 -0.9951  0.7512  2.1914
  552MOL0     H74510  10.844   3.423   3.679 -1.6192  0.1340 -1.5987
  552MOL0     H74511  10.789   3.429   3.850 -1.3614 -0.0074  0.8528
  552MOL0     H74512  10.640   3.306   3.681 -0.3879 -0.3960 -1.4328
  552MOL0     H74513  10.608   3.459   3.597 -0.9989 -4.3510 -2.2750
  552MOL0     H74514  10.426   3.439   3.739 -0.7822  3.6005  0.8763
  552MOL0     H74515  10.532   3.547   3.837  0.1187  0.0676  0.5429
  552MOL0     H74516  10.486   3.390   4.002 -2.4104  1.6337 -1.3077
  552MOL0     H74517  10.622   3.312   3.925  0.3669 -0.2683 -0.4336
  552MOL0     H74518  10.324   3.046   3.799  2.1968 -1.6824  1.2594
  552MOL0     H74519  10.763   3.850   3.693  1.1984  1.5845 -3.2206
  552MOL0     H74520  10.953   4.012   3.716  0.1476  0.4071  0.9687
  553MOL0     O74521   6.162   5.208   5.336 -0.5101 -0.5431 -0.0082
  553MOL0     C74522   6.179   5.191   5.216  0.1657 -0.5337 -0.0609
  553MOL0     O74523   6.159   5.278   5.120 -0.4122  0.1025  0.1828
  553MOL0     C74524   6.121   5.401   5.151  0.4536  0.2694  0.0912
  553MOL0     C74525   5.989   5.452   5.145 -0.4472  0.8172 -0.0467
  553MOL0     C74526   5.968   5.585   5.183  0.9033  0.3999  0.1061
  553MOL0     C74527   6.072   5.671   5.229 -0.5542 -0.0741  0.2320
  553MOL0     O74528   6.028   5.791   5.264 -0.0659 -0.5005 -0.6248
  553MOL0     C74529   6.121   5.878   5.331 -0.5082  0.0220 -0.1778
  553MOL0     C74530   6.069   6.020   5.308 -0.0371  0.5952 -0.3558
  553MOL0     C74531   5.925   6.039   5.375 -0.6969 -0.4054  0.1818
  553MOL0     C74532   5.887   6.182   5.360  0.1970 -0.4303 -0.5589
  553MOL0     C74533   5.784   6.224   5.459  0.0129 -0.1790 -0.3663
  553MOL0     C74534   5.760   6.374   5.461  0.9019  0.3074  0.4867
  553MOL0     C74535   5.646   6.415   5.563  0.7212  0.3058  1.0058
  553MOL0     C74536   5.603   6.566   5.552  0.1072  0.4449 -0.0421
  553MOL0     N74537   5.501   6.595   5.653 -0.4409 -0.0482 -0.0870
  553MOL0     C74538   5.524   6.643   5.778  0.6263  0.2412 -0.2096
  553MOL0     C74539   5.409   6.627   5.856 -0.0845  0.3541  1.0554
  553MOL0     C74540   5.387   6.634   6.002  1.2508 -0.1299  0.4279
  553MOL0     C74541   5.234   6.624   6.038 -0.3075  0.2088  0.4610
  553MOL0     C74542   5.192   6.616   6.188  0.3193  0.5473 -0.5088
  553MOL0     C74543   5.038   6.621   6.211  0.1709  0.7422  0.2574
  553MOL0     O74544   5.016   6.641   6.354  0.8489 -0.3474 -0.3694
  553MOL0     C74545   4.994   6.535   6.433  0.2971  0.8343  0.8695
  553MOL0     C74546   5.047   6.408   6.403 -1.0625 -0.2020 -0.4887
  553MOL0     C74547   5.012   6.296   6.475 -0.4037  1.1328  0.4333
  553MOL0     C74548   5.073   6.162   6.423  0.4035  0.0737 -0.8417
  553MOL0     C74549   4.919   6.305   6.584 -0.4567 -0.0424  0.8785
  553MOL0     C74550   4.877   6.201   6.671 -0.2150  0.1369 -1.2539
  553MOL0     O74551   4.757   6.209   6.745  0.4017 -0.2752 -0.4064
  553MOL0     C74552   4.721   6.101   6.820 -0.1575 -0.1412  0.1314
  553MOL0     C74553   4.711   5.971   6.761 -0.2321 -0.6462 -0.2725
  553MOL0     C74554   4.674   5.863   6.842  0.1955 -0.4122 -0.3746
  553MOL0     C74555   4.656   5.882   6.982 -0.7192 -0.0461  0.1568
  553MOL0     O74556   4.619   5.777   7.059  0.3376  0.2706 -0.3162
  553MOL0     C74557   4.715   5.745   7.169 -0.2142 -1.0774  0.6084
  553MOL0     C74558   4.865   5.743   7.128 -0.5846  0.7960  0.0320
  553MOL0     C74559   4.955   5.703   7.239 -0.0903  0.8701  0.3284
  553MOL0     C74560   5.099   5.684   7.180 -0.0563  0.4647 -0.7872
  553MOL0     C74561   5.199   5.712   7.294  0.3582  0.0340  0.6132
  553MOL0     C74562   5.339   5.694   7.242 -0.1379  0.3779 -0.7066
  553MOL0     C74563   5.443   5.718   7.349 -0.5376 -0.4701 -0.3140
  553MOL0     C74564   5.581   5.706   7.297  0.7670  0.2160 -1.2724
  553MOL0    Cl74565   5.617   5.526   7.293  0.1264 -0.2772  0.0652
  553MOL0     C74566   4.680   6.008   7.041 -0.2105  0.0737  0.3041
  553MOL0     C74567   4.711   6.116   6.964 -0.2322  0.1522  0.2124
  553MOL0     O74568   4.965   6.122   6.687 -0.7862 -0.1723  0.0920
  553MOL0     C74569   4.875   6.439   6.613 -0.4388  0.4999  0.2094
  553MOL0     C74570   4.913   6.547   6.543  0.2783 -0.1066 -0.0567
  553MOL0     N74571   5.310   6.582   5.764  0.1116  0.4100  0.1718
  553MOL0     N74572   5.370   6.556   5.651  0.1816 -1.2230 -0.2557
  553MOL0     C74573   6.203   5.614   5.234 -0.0193 -0.6035 -0.7303
  553MOL0     C74574   6.224   5.481   5.193 -0.6121  0.5209 -0.0424
  553MOL0     C74575   6.218   5.052   5.171  0.2556 -0.0104  0.4409
  553MOL0     C74576   6.279   5.033   5.046 -0.3766  0.5713  0.0325
  553MOL0     C74577   6.316   4.894   5.007  1.2128 -0.4812 -0.3835
  553MOL0     C74578   6.286   4.780   5.091 -0.0465 -0.4737  0.2682
  553MOL0     O74579   6.312   4.644   5.064 -0.5567 -0.2026 -0.5885
  553MOL0     C74580   6.373   4.601   4.941 -0.0362  0.5744  0.5380
  553MOL0     C74581   6.421   4.454   4.950  0.1796 -1.5039 -0.9441
  553MOL0     C74582   6.308   4.351   5.000 -0.5079 -0.5793  0.4857
  553MOL0     C74583   6.377   4.218   5.026 -0.0450 -0.5156 -0.4122
  553MOL0     C74584   6.275   4.130   5.079  0.0819 -0.0191 -0.2819
  553MOL0     C74585   6.185   4.064   5.126 -0.2137 -0.2166 -0.3606
  553MOL0     C74586   6.229   4.803   5.216 -0.7449 -0.1011  0.2377
  553MOL0     C74587   6.192   4.934   5.249 -0.7856  0.2618 -0.6095
  553MOL0     H74588   5.910   5.394   5.098  0.3804  1.8326 -2.8944
  553MOL0     H74589   5.871   5.632   5.174  0.1623 -0.6171  2.0062
  553MOL0     H74590   6.147   5.848   5.433 -0.8270 -0.5105 -0.2493
  553MOL0     H74591   6.214   5.870   5.274  1.1803 -1.6333  2.5563
  553MOL0     H74592   6.139   6.100   5.333  2.1111 -1.3091  0.1666
  553MOL0     H74593   6.068   6.036   5.200 -0.0026  2.6754 -0.0760
  553MOL0     H74594   5.855   5.970   5.327 -0.0119 -0.5999 -0.5723
  553MOL0     H74595   5.938   6.015   5.481 -0.0598 -1.5281 -0.1388
  553MOL0     H74596   5.973   6.249   5.363  0.0282 -0.0435 -2.6948
  553MOL0     H74597   5.845   6.205   5.262  0.9649  0.4993 -0.6872
  553MOL0     H74598   5.691   6.178   5.426 -0.4908 -0.0335  0.8021
  553MOL0     H74599   5.817   6.198   5.560 -0.3925  0.4213 -0.0756
  553MOL0     H74600   5.843   6.440   5.491  1.1600 -0.6397  1.9416
  553MOL0     H74601   5.745   6.400   5.356  2.2573 -0.1427  0.1610
  553MOL0     H74602   5.554   6.357   5.552 -0.1805  1.6238  1.2986
  553MOL0     H74603   5.699   6.404   5.658  2.8183  0.3645 -0.0982
  553MOL0     H74604   5.561   6.576   5.452 -1.8235 -0.0305  0.6676
  553MOL0     H74605   5.693   6.625   5.566  0.0021  0.1467  2.4176
  553MOL0     H74606   5.623   6.661   5.820  0.7207 -0.3155 -0.1785
  553MOL0     H74607   5.434   6.547   6.047  3.1237  0.3102 -0.6088
  553MOL0     H74608   5.425   6.720   6.059 -0.0480  1.2473 -0.7009
  553MOL0     H74609   5.191   6.538   5.985  0.9656  0.5906 -1.2845
  553MOL0     H74610   5.192   6.717   5.998  0.5836  0.4904  0.1732
  553MOL0     H74611   5.236   6.700   6.241  1.2515  0.7664 -1.5906
  553MOL0     H74612   5.228   6.523   6.232 -2.3104  0.8161  2.6166
  553MOL0     H74613   4.995   6.528   6.171  0.6667  1.9366 -3.4097
  553MOL0     H74614   4.992   6.703   6.156 -2.3095 -0.8513 -0.1995
  553MOL0     H74615   5.121   6.388   6.327  0.3464  0.7961  0.5610
  553MOL0     H74616   5.156   6.135   6.489  0.8128 -0.5313 -1.5954
  553MOL0     H74617   5.000   6.080   6.420 -2.6256  2.5137  0.3797
  553MOL0     H74618   5.112   6.173   6.322  1.0802  1.1254 -0.4776
  553MOL0     H74619   4.726   5.960   6.654  0.9369  1.5196 -0.3992
  553MOL0     H74620   4.652   5.767   6.797  2.0485 -0.2277 -1.7593
  553MOL0     H74621   4.708   5.824   7.245 -4.6192  0.5245 -1.1154
  553MOL0     H74622   4.692   5.646   7.210  0.2677 -1.2102  0.5661
  553MOL0     H74623   4.864   5.671   7.046 -1.3072 -0.5048  1.1404
  553MOL0     H74624   4.895   5.839   7.084  2.4737 -0.0146  0.0795
  553MOL0     H74625   4.927   5.605   7.279  0.8446  0.6507  0.4705
  553MOL0     H74626   4.956   5.773   7.323  3.2137 -0.3444  1.4431
  553MOL0     H74627   5.117   5.580   7.153  1.5265  0.4030  0.3124
  553MOL0     H74628   5.106   5.742   7.088 -1.7577 -1.0784 -1.9493
  553MOL0     H74629   5.187   5.632   7.368 -0.8977 -0.5096 -0.1405
  553MOL0     H74630   5.180   5.810   7.339 -0.3383  1.5357 -2.6566
  553MOL0     H74631   5.353   5.594   7.201  0.6882  0.5643 -0.9000
  553MOL0     H74632   5.350   5.762   7.156 -0.4442  1.8268  0.3599
  553MOL0     H74633   5.438   5.648   7.433  1.8937 -0.3808 -0.0174
  553MOL0     H74634   5.439   5.819   7.390  0.0921 -1.4149  2.2933
  553MOL0     H74635   5.650   5.762   7.361 -1.9811  3.5215 -0.9249
  553MOL0     H74636   5.582   5.757   7.200 -0.3039  1.4053 -0.6976
  553MOL0     H74637   4.670   6.027   7.147  3.4533  1.2260  0.5735
  553MOL0     H74638   4.736   6.211   7.008  1.5361  0.2101 -0.8098
  553MOL0     H74639   4.814   6.469   6.698 -2.9526  1.1990 -1.6990
  553MOL0     H74640   4.869   6.643   6.566  1.9838  0.3437  1.5420
  553MOL0     H74641   6.289   5.665   5.274  0.1805 -1.8220  0.4924
  553MOL0     H74642   6.324   5.439   5.196 -1.5016 -1.9371 -1.5581
  553MOL0     H74643   6.305   5.122   4.989 -1.1840  0.9817  0.2893
  553MOL0     H74644   6.362   4.878   4.910 -1.7815  0.4352 -2.1034
  553MOL0     H74645   6.294   4.606   4.865 -1.3793 -1.5831  1.6827
  553MOL0     H74646   6.456   4.666   4.912  0.5553 -0.1553  0.5827
  553MOL0     H74647   6.511   4.445   5.012  1.3682  0.5265 -2.2493
  553MOL0     H74648   6.460   4.437   4.849  2.2571  0.0885 -0.4990
  553MOL0     H74649   6.230   4.346   4.922  0.0544  1.2441 -0.2695
  553MOL0     H74650   6.269   4.383   5.097 -0.0290  1.1132  0.1646
  553MOL0     H74651   6.461   4.230   5.094 -0.6511  2.2939 -0.0055
  553MOL0     H74652   6.416   4.186   4.929 -1.3338  1.2108 -1.5756
  553MOL0     H74653   6.102   4.011   5.168  0.0384  1.0832  1.9610
  553MOL0     H74654   6.209   4.719   5.281  0.0849  0.9952  1.9672
  553MOL0     H74655   6.159   4.966   5.347  0.9640  3.0522 -0.7977
  554MOL0     O74656   8.367   9.206   2.329  0.1350 -0.1465 -0.2199
  554MOL0     C74657   8.394   9.188   2.210 -0.4658 -0.2418  0.5209
  554MOL0     O74658   8.303   9.166   2.115  0.2741 -0.0155 -0.6463
  554MOL0     C74659   8.168   9.181   2.137  0.2757  0.0005 -0.7748
  554MOL0     C74660   8.109   9.294   2.086 -0.4265 -0.5788  0.5244
  554MOL0     C74661   7.973   9.312   2.106 -0.1271 -0.2066 -0.0412
  554MOL0     C74662   7.892   9.226   2.176  0.6546 -0.0068 -0.1173
  554MOL0     O74663   7.757   9.243   2.200  0.6115 -0.2005  0.2742
  554MOL0     C74664   7.699   9.365   2.224 -0.5757  0.8903  0.2208
  554MOL0     C74665   7.543   9.345   2.201  0.2331  0.4309 -0.6814
  554MOL0     C74666   7.466   9.415   2.322  0.4363 -0.0116 -0.8695
  554MOL0     C74667   7.331   9.353   2.353 -0.6545 -0.4026 -0.1505
  554MOL0     C74668   7.243   9.445   2.440  0.3752  1.1872 -0.4252
  554MOL0     C74669   7.101   9.399   2.429 -0.3184  0.1937  0.2065
  554MOL0     C74670   7.090   9.278   2.525 -0.2361  0.0844  0.5346
  554MOL0     C74671   6.954   9.214   2.526  0.0548 -0.6574  0.2010
  554MOL0     N74672   6.852   9.300   2.592  0.3532 -0.1531 -0.0673
  554MOL0     C74673   6.749   9.368   2.525  0.4289  0.2601  0.2750
  554MOL0     C74674   6.661   9.409   2.615  0.2481 -0.8367 -1.1318
  554MOL0     C74675   6.532   9.488   2.605 -0.3499 -0.1147 -0.5155
  554MOL0     C74676   6.434   9.394   2.527  0.7642 -0.6591 -0.7676
  554MOL0     C74677   6.294   9.438   2.551 -0.4933 -0.2417  0.3168
  554MOL0     C74678   6.260   9.405   2.691  0.8435 -0.0308  0.2024
  554MOL0     O74679   6.120   9.441   2.695  0.2487 -0.6031  0.1121
  554MOL0     C74680   6.010   9.379   2.639 -0.5824  0.1341 -0.9418
  554MOL0     C74681   6.013   9.238   2.603 -0.3629  0.6009 -0.2436
  554MOL0     C74682   5.897   9.178   2.542  0.7056  0.3427  0.1391
  554MOL0     C74683   5.908   9.035   2.506 -0.0315  0.2828  0.2076
  554MOL0     C74684   5.787   9.257   2.520 -0.0997 -0.9316 -0.2428
  554MOL0     C74685   5.662   9.205   2.458  0.2685 -0.4291 -0.1989
  554MOL0     O74686   5.580   9.285   2.381 -0.3871 -0.4797  0.0838
  554MOL0     C74687   5.487   9.217   2.300 -0.4150 -0.1629 -0.2352
  554MOL0     C74688   5.521   9.165   2.174 -0.3951 -0.2808  0.0207
  554MOL0     C74689   5.427   9.102   2.094  0.2643 -0.0307  0.8088
  554MOL0     C74690   5.297   9.100   2.135 -0.0178 -0.3073  0.2021
  554MOL0     O74691   5.203   9.070   2.030  0.0029  0.6468 -0.2292
  554MOL0     C74692   5.078   9.019   2.083 -0.0769 -0.4767  0.3043
  554MOL0     C74693   4.977   8.986   1.967  0.6020  0.2184  0.9749
  554MOL0     C74694   4.947   9.114   1.886  0.2086 -0.4010  0.7236
  554MOL0     C74695   4.888   9.094   1.744  0.0837  0.0767 -0.5961
  554MOL0     C74696   4.992   9.056   1.638 -0.0662  0.8037 -0.1930
  554MOL0     C74697   4.918   9.029   1.512  0.0625 -0.2712  0.6688
  554MOL0     C74698   5.017   8.996   1.404  0.3868  0.5085 -0.2809
  554MOL0     C74699   5.090   9.116   1.350  0.2201 -0.9106 -0.5111
  554MOL0    Cl74700   5.174   9.061   1.200 -0.1788  0.2820  0.1690
  554MOL0     C74701   5.254   9.151   2.257  0.6084 -0.9761 -0.5849
  554MOL0     C74702   5.353   9.205   2.340  0.4592 -0.2560 -0.1070
  554MOL0     O74703   5.638   9.086   2.466  0.2630 -0.0077 -0.9433
  554MOL0     C74704   5.790   9.391   2.555 -0.1066 -0.0507 -0.6166
  554MOL0     C74705   5.897   9.446   2.628 -0.5588 -0.5215 -0.2436
  554MOL0     N74706   6.705   9.371   2.743  0.0824  0.4520  0.4094
  554MOL0     N74707   6.816   9.305   2.725  0.1439 -0.6083 -0.3866
  554MOL0     C74708   7.955   9.109   2.228 -0.0711  1.2316 -0.1004
  554MOL0     C74709   8.095   9.088   2.207 -0.2975 -0.2295 -0.2758
  554MOL0     C74710   8.530   9.200   2.174 -0.6432  0.2121  0.8660
  554MOL0     C74711   8.571   9.226   2.045 -0.2645 -0.2140  0.6616
  554MOL0     C74712   8.707   9.220   2.013  0.0522  0.8722 -0.0024
  554MOL0     C74713   8.808   9.213   2.105 -0.0691  0.3799 -0.4143
  554MOL0     O74714   8.940   9.229   2.063 -0.0445  0.0231  0.3646
  554MOL0     C74715   8.993   9.113   2.000  0.1148 -0.3922 -0.1664
  554MOL0     C74716   9.143   9.131   2.001 -0.8615  0.4143  0.0007
  554MOL0     C74717   9.199   9.247   1.929  0.6315 -0.5858  0.0533
  554MOL0     C74718   9.351   9.238   1.903  0.3407  0.0328  0.6870
  554MOL0     C74719   9.378   9.352   1.814 -0.9964 -0.7723 -0.4245
  554MOL0     C74720   9.419   9.454   1.755  0.2067  0.2512 -0.1722
  554MOL0     C74721   8.771   9.188   2.238  0.2387  0.0565  0.1780
  554MOL0     C74722   8.635   9.182   2.273  0.2787 -0.0398 -0.1167
  554MOL0     H74723   8.162   9.374   2.036  0.1548 -0.6143  1.0614
  554MOL0     H74724   7.924   9.398   2.060 -0.3064 -0.3676 -0.1533
  554MOL0     H74725   7.718   9.408   2.323  1.4698 -1.9464  1.1824
  554MOL0     H74726   7.732   9.447   2.159 -0.0566  0.0955 -0.5456
  554MOL0     H74727   7.508   9.379   2.104  0.1504 -1.2416 -1.2736
  554MOL0     H74728   7.525   9.238   2.216 -0.5591  0.7649  1.0390
  554MOL0     H74729   7.524   9.396   2.412 -1.3162 -0.9179  0.1210
  554MOL0     H74730   7.450   9.521   2.300 -0.3212  0.3357  1.1346
  554MOL0     H74731   7.283   9.316   2.262 -1.0850  0.4041 -0.2604
  554MOL0     H74732   7.345   9.265   2.417  0.4616  1.4550  2.2826
  554MOL0     H74733   7.280   9.464   2.541  1.8728 -0.7808 -0.5394
  554MOL0     H74734   7.249   9.550   2.409  1.6963  0.9784 -0.9410
  554MOL0     H74735   7.034   9.477   2.468 -0.3275  0.7560 -0.9193
  554MOL0     H74736   7.080   9.374   2.325 -2.5645  0.2185  0.5922
  554MOL0     H74737   7.155   9.199   2.486  0.5478  0.7715  0.4159
  554MOL0     H74738   7.131   9.316   2.619 -1.2646 -1.4848  1.6677
  554MOL0     H74739   6.971   9.127   2.591 -0.4345 -0.8396  0.0960
  554MOL0     H74740   6.931   9.185   2.423  2.4658 -3.0702  0.2229
  554MOL0     H74741   6.726   9.370   2.419 -0.6192  0.0219  0.4851
  554MOL0     H74742   6.513   9.523   2.707 -0.0833  1.5692 -0.9998
  554MOL0     H74743   6.540   9.582   2.549  1.2586  1.1477  1.6954
  554MOL0     H74744   6.443   9.292   2.566 -1.3586  0.2318  2.5054
  554MOL0     H74745   6.471   9.393   2.424  0.5575 -1.4895 -0.8466
  554MOL0     H74746   6.227   9.387   2.481 -0.2251  0.8201 -0.7464
  554MOL0     H74747   6.295   9.545   2.531  3.8800 -0.7280 -3.5909
  554MOL0     H74748   6.320   9.466   2.759 -0.0158  0.3669  0.6238
  554MOL0     H74749   6.258   9.300   2.720 -1.7675 -0.3958 -1.0084
  554MOL0     H74750   6.104   9.182   2.621 -1.8390 -3.2407 -3.3285
  554MOL0     H74751   5.885   9.023   2.400  0.7835  2.0646 -0.2027
  554MOL0     H74752   6.009   8.993   2.505  0.1120  0.5202  1.7649
  554MOL0     H74753   5.843   8.973   2.569  0.2896  0.7841  1.0550
  554MOL0     H74754   5.624   9.165   2.143 -0.4080  2.0606 -0.2256
  554MOL0     H74755   5.445   9.052   1.999 -1.4614 -1.6337  1.2690
  554MOL0     H74756   5.097   8.924   2.132 -0.1667 -0.1593  0.9641
  554MOL0     H74757   5.020   9.078   2.154  0.5240 -1.4159  1.5987
  554MOL0     H74758   5.024   8.912   1.901 -0.2705  1.1378 -0.7660
  554MOL0     H74759   4.887   8.944   2.011  0.8799 -3.0722 -1.2580
  554MOL0     H74760   5.036   9.175   1.867  1.0716 -2.7274 -4.8659
  554MOL0     H74761   4.873   9.165   1.948  1.9325  1.5967  1.2524
  554MOL0     H74762   4.810   9.018   1.734 -0.1924  0.3668 -0.6357
  554MOL0     H74763   4.845   9.188   1.711  0.9341  0.7797  0.2254
  554MOL0     H74764   5.056   8.973   1.670 -1.5985 -0.4554 -0.3114
  554MOL0     H74765   5.062   9.138   1.622 -0.3814  1.0407 -0.3693
  554MOL0     H74766   4.849   8.945   1.526 -2.6823  1.6683 -0.2767
  554MOL0     H74767   4.862   9.112   1.469  0.8799 -1.0194 -2.0175
  554MOL0     H74768   4.966   8.965   1.312  0.1932 -0.5128  0.1558
  554MOL0     H74769   5.069   8.906   1.439  1.2686  1.3650  0.6497
  554MOL0     H74770   5.168   9.152   1.419 -0.2059  0.7504 -0.8456
  554MOL0     H74771   5.023   9.196   1.317  1.4557 -0.3524 -1.8063
  554MOL0     H74772   5.152   9.172   2.288  1.4897  2.1483  0.6329
  554MOL0     H74773   5.327   9.252   2.434 -0.1199  0.6274 -0.7041
  554MOL0     H74774   5.711   9.462   2.533 -1.6617 -1.3119  0.6373
  554MOL0     H74775   5.898   9.546   2.669 -2.4132 -0.1208 -1.0493
  554MOL0     H74776   7.886   9.043   2.279 -0.2867  2.0103  0.6464
  554MOL0     H74777   8.132   8.988   2.226  1.4971  0.5240  0.4436
  554MOL0     H74778   8.499   9.234   1.964  0.2629  0.1031  0.2190
  554MOL0     H74779   8.735   9.224   1.908 -1.9075  1.8231 -0.5363
  554MOL0     H74780   8.955   9.023   2.049 -0.2475 -1.1848 -1.8224
  554MOL0     H74781   8.966   9.113   1.894 -0.5130 -2.2300 -0.0346
  554MOL0     H74782   9.184   9.042   1.952  1.5921  0.5098  1.6788
  554MOL0     H74783   9.173   9.127   2.106 -0.3560 -3.6681 -0.1224
  554MOL0     H74784   9.190   9.339   1.987  2.3620  0.5654 -1.4006
  554MOL0     H74785   9.157   9.254   1.828  0.2481 -0.7263  0.2027
  554MOL0     H74786   9.379   9.143   1.856 -0.6761 -0.6628  1.4356
  554MOL0     H74787   9.401   9.252   1.999 -1.9303  1.5916  1.7117
  554MOL0     H74788   9.463   9.537   1.703  1.7254 -0.0813  0.5176
  554MOL0     H74789   8.840   9.188   2.322  0.4334  0.7295  0.0250
  554MOL0     H74790   8.611   9.148   2.373  0.3507  1.1158  0.3142
  555MOL0     O74791   7.454   8.252   0.934 -0.0493  0.9647  0.5744
  555MOL0     C74792   7.488   8.370   0.930  1.4398 -0.7869  0.1218
  555MOL0     O74793   7.415   8.478   0.985 -0.4727  0.1713 -1.0039
  555MOL0     C74794   7.340   8.450   1.090 -0.9582 -0.4240 -0.1649
  555MOL0     C74795   7.237   8.366   1.088 -0.2908 -0.1142  0.4835
  555MOL0     C74796   7.159   8.346   1.203 -0.0902  0.4232  1.0879
  555MOL0     C74797   7.167   8.424   1.309 -0.3902 -0.8311 -0.9485
  555MOL0     O74798   7.092   8.408   1.424  0.7131 -0.2822 -0.1581
  555MOL0     C74799   6.973   8.337   1.430  0.0269 -0.0992  0.3800
  555MOL0     C74800   6.912   8.349   1.567 -0.7777 -0.3153 -0.1393
  555MOL0     C74801   6.782   8.258   1.572  0.7370  0.1654 -0.5277
  555MOL0     C74802   6.658   8.329   1.527  0.0725  0.6284 -0.1016
  555MOL0     C74803   6.540   8.233   1.524  0.9534  0.0770  0.2880
  555MOL0     C74804   6.412   8.313   1.522  0.6202 -0.4942 -0.4202
  555MOL0     C74805   6.296   8.211   1.493  0.3661 -0.9752  0.3196
  555MOL0     C74806   6.164   8.278   1.522 -0.8944 -0.1236 -0.3202
  555MOL0     N74807   6.056   8.180   1.531 -0.3204  0.4903 -0.0732
  555MOL0     C74808   5.964   8.158   1.430  0.5232  0.6935  0.4019
  555MOL0     C74809   5.881   8.068   1.478  0.0924 -0.6739 -0.2932
  555MOL0     C74810   5.761   8.019   1.404 -0.0770  0.1680  0.0539
  555MOL0     C74811   5.641   7.992   1.499  0.1288  0.6813  1.0749
  555MOL0     C74812   5.584   8.118   1.574 -0.2267  0.4366  0.5670
  555MOL0     C74813   5.454   8.090   1.648  0.1379 -0.4866  0.7284
  555MOL0     O74814   5.342   8.054   1.568  0.2211  0.1307  0.5656
  555MOL0     C74815   5.313   8.150   1.469  0.4626  0.4359  0.8096
  555MOL0     C74816   5.310   8.111   1.335 -0.2179 -0.0631  1.0401
  555MOL0     C74817   5.273   8.188   1.229 -0.0168  0.1563 -0.2705
  555MOL0     C74818   5.262   8.104   1.095  0.1710 -0.5826 -0.5603
  555MOL0     C74819   5.240   8.321   1.255 -0.1042 -0.1521  0.2617
  555MOL0     C74820   5.176   8.408   1.161  0.1939  1.1058 -0.9993
  555MOL0     O74821   5.108   8.509   1.216 -0.2106  0.3147 -0.3210
  555MOL0     C74822   5.035   8.598   1.128 -0.0617 -0.2406 -0.3279
  555MOL0     C74823   5.064   8.731   1.118 -0.1847 -0.0673 -0.2463
  555MOL0     C74824   4.974   8.804   1.038  0.0235 -0.2063 -0.1034
  555MOL0     C74825   4.859   8.754   0.979  0.5749  0.1554 -0.5465
  555MOL0     O74826   4.776   8.837   0.903 -0.4777  0.1550  0.5311
  555MOL0     C74827   4.656   8.784   0.850  0.3785 -0.5389 -0.4438
  555MOL0     C74828   4.587   8.897   0.775  0.6769 -0.0922 -0.3669
  555MOL0     C74829   4.442   8.870   0.731 -0.1520  0.2086  0.0413
  555MOL0     C74830   4.365   9.003   0.723 -0.0646  0.0503  0.2812
  555MOL0     C74831   4.240   8.992   0.640  0.2827  1.0812 -0.2959
  555MOL0     C74832   4.128   8.911   0.717 -0.4917 -0.0727  0.0836
  555MOL0     C74833   4.006   8.874   0.633 -0.2565  0.0371  0.4549
  555MOL0     C74834   3.886   8.962   0.664  0.3839 -0.8636 -0.1241
  555MOL0    Cl74835   3.765   8.927   0.548  0.2197  0.5121  0.1817
  555MOL0     C74836   4.830   8.619   1.002  0.3904 -0.3049  1.9771
  555MOL0     C74837   4.911   8.546   1.080 -0.9301  0.1618  0.2375
  555MOL0     O74838   5.181   8.380   1.045 -0.0425  0.0818 -0.5641
  555MOL0     C74839   5.235   8.359   1.386 -0.2745 -0.3865 -0.0217
  555MOL0     C74840   5.272   8.276   1.491 -0.2368  0.1479 -0.1935
  555MOL0     N74841   5.926   8.032   1.609  0.3747  0.0565  0.4259
  555MOL0     N74842   6.033   8.101   1.641  0.2627 -0.7399  0.9121
  555MOL0     C74843   7.273   8.520   1.313  0.0509  0.1303  0.2241
  555MOL0     C74844   7.351   8.546   1.195 -0.1888  0.2180 -0.6665
  555MOL0     C74845   7.586   8.402   0.834 -0.2088  0.4850  0.6016
  555MOL0     C74846   7.667   8.303   0.773  0.2078 -0.1101 -0.4663
  555MOL0     C74847   7.774   8.344   0.690  0.3320  0.1069  0.2932
  555MOL0     C74848   7.806   8.475   0.661  0.3844  0.6747  0.1402
  555MOL0     O74849   7.914   8.494   0.581 -0.5233  0.4729  0.1290
  555MOL0     C74850   7.947   8.626   0.544 -0.8146 -0.4510 -0.0728
  555MOL0     C74851   8.011   8.629   0.400 -1.0640  0.1286  0.6765
  555MOL0     C74852   7.902   8.590   0.294  0.4025 -0.1281  0.0669
  555MOL0     C74853   7.976   8.525   0.180  0.2862 -0.5993 -0.4815
  555MOL0     C74854   7.882   8.423   0.126  0.9605 -0.0493 -0.9329
  555MOL0     C74855   7.805   8.344   0.082  1.1300 -0.5410 -0.0047
  555MOL0     C74856   7.725   8.569   0.724  0.2932  0.4005  0.1665
  555MOL0     C74857   7.620   8.530   0.805 -0.0774 -0.7780  0.5708
  555MOL0     H74858   7.220   8.318   0.992  1.4839 -1.7378  0.9124
  555MOL0     H74859   7.074   8.280   1.189  1.9459 -2.1588  0.2016
  555MOL0     H74860   6.898   8.388   1.368  1.5743  1.3835 -0.3439
  555MOL0     H74861   6.980   8.230   1.407 -2.9696 -0.4092  0.5436
  555MOL0     H74862   6.983   8.310   1.642 -0.5592  4.1455  2.3028
  555MOL0     H74863   6.895   8.453   1.596 -2.7659 -0.4966 -0.5353
  555MOL0     H74864   6.791   8.164   1.516 -5.7425 -0.5675 -1.1094
  555MOL0     H74865   6.761   8.229   1.676 -1.9430 -0.5336 -1.1721
  555MOL0     H74866   6.639   8.417   1.589  0.9500 -0.6759  2.1181
  555MOL0     H74867   6.682   8.352   1.423  1.2400 -1.4018 -0.3412
  555MOL0     H74868   6.542   8.162   1.441  4.0799 -0.4591  0.7085
  555MOL0     H74869   6.537   8.175   1.617  0.3241  0.4372  0.5013
  555MOL0     H74870   6.409   8.363   1.620 -2.1234 -0.7614 -0.2927
  555MOL0     H74871   6.410   8.381   1.436 -2.6220  0.5863  0.3664
  555MOL0     H74872   6.299   8.190   1.386 -3.1262 -0.2961 -0.0409
  555MOL0     H74873   6.319   8.126   1.557  1.1394 -1.4079 -0.5111
  555MOL0     H74874   6.134   8.351   1.445 -0.1309  0.3358 -0.1949
  555MOL0     H74875   6.175   8.334   1.615  0.3144  1.2429 -1.2374
  555MOL0     H74876   5.951   8.192   1.327  0.4446  0.9372  0.4919
  555MOL0     H74877   5.738   8.095   1.330  2.6934  1.1028  0.0441
  555MOL0     H74878   5.792   7.932   1.344  1.1454  1.5193 -1.3553
  555MOL0     H74879   5.669   7.920   1.577 -4.1283 -1.5239  0.8337
  555MOL0     H74880   5.558   7.949   1.443  1.6174 -2.2100  0.8542
  555MOL0     H74881   5.552   8.186   1.494 -4.6130  2.0515  3.2955
  555MOL0     H74882   5.660   8.152   1.645  0.7529 -3.3340  1.5506
  555MOL0     H74883   5.432   8.179   1.707 -0.6024  1.7875 -2.6839
  555MOL0     H74884   5.464   8.005   1.716 -1.4784 -2.5475 -1.4261
  555MOL0     H74885   5.325   8.004   1.324  1.7237  0.3500 -1.0023
  555MOL0     H74886   5.324   8.014   1.099  0.8105 -0.1051  1.1507
  555MOL0     H74887   5.157   8.075   1.084  0.2705 -1.1484 -0.0778
  555MOL0     H74888   5.293   8.150   1.001  3.6231 -2.0897 -0.2989
  555MOL0     H74889   5.140   8.774   1.182 -2.9648  3.1391  1.2177
  555MOL0     H74890   4.990   8.911   1.032  0.4017 -0.1506  1.4036
  555MOL0     H74891   4.670   8.708   0.773 -0.7516  0.0750 -1.2940
  555MOL0     H74892   4.594   8.740   0.928 -0.7133  0.9231 -0.4480
  555MOL0     H74893   4.590   8.980   0.846  0.3039 -0.2167 -0.2024
  555MOL0     H74894   4.648   8.919   0.687  1.4484 -0.9560 -0.0673
  555MOL0     H74895   4.388   8.805   0.801  0.0850  0.3142  0.3253
  555MOL0     H74896   4.443   8.817   0.636 -4.2791  0.5644 -0.3635
  555MOL0     H74897   4.352   9.035   0.827  0.3780  0.8292  0.1014
  555MOL0     H74898   4.430   9.080   0.681  0.0923  0.8902  1.9720
  555MOL0     H74899   4.265   8.950   0.542 -0.4678  0.0253 -0.0592
  555MOL0     H74900   4.214   9.095   0.615 -1.1631  0.5390 -1.1071
  555MOL0     H74901   4.164   8.822   0.769 -2.3867 -2.0951 -1.8309
  555MOL0     H74902   4.106   8.975   0.802  1.8751  0.3786  0.4393
  555MOL0     H74903   3.976   8.774   0.666  2.2265 -1.6900 -2.1432
  555MOL0     H74904   4.025   8.877   0.525 -0.0606  1.6214  0.5172
  555MOL0     H74905   3.914   9.068   0.668 -0.5860 -0.5736 -0.6916
  555MOL0     H74906   3.843   8.945   0.763  0.9487  2.4210  0.8057
  555MOL0     H74907   4.747   8.574   0.949  1.1694 -0.2980  0.7137
  555MOL0     H74908   4.872   8.445   1.089 -0.8827  0.2994  2.4642
  555MOL0     H74909   5.216   8.458   1.426  1.3317  0.2072 -0.6593
  555MOL0     H74910   5.264   8.308   1.594  0.4117  1.7239 -0.5936
  555MOL0     H74911   7.282   8.582   1.401 -2.0661  2.1584 -0.8846
  555MOL0     H74912   7.420   8.630   1.186  0.5503 -0.4097 -0.9285
  555MOL0     H74913   7.632   8.200   0.780 -0.1780  0.1126  1.4485
  555MOL0     H74914   7.831   8.262   0.648  1.4248  1.5385 -1.1264
  555MOL0     H74915   7.863   8.693   0.529  0.1257  1.1051  1.2860
  555MOL0     H74916   8.007   8.680   0.617 -4.1048  0.5054  2.1491
  555MOL0     H74917   8.099   8.565   0.410 -0.5401  0.8084  0.5149
  555MOL0     H74918   8.045   8.730   0.374 -0.7872 -0.3509 -0.9568
  555MOL0     H74919   7.839   8.675   0.263  0.1065 -0.8280 -1.3372
  555MOL0     H74920   7.830   8.518   0.333 -2.8128  1.6051 -2.1407
  555MOL0     H74921   8.073   8.482   0.205  0.4599 -1.5217 -2.5322
  555MOL0     H74922   7.999   8.602   0.105  0.1796  0.6122  0.6924
  555MOL0     H74923   7.735   8.269   0.052  0.6286  0.8430 -2.6349
  555MOL0     H74924   7.733   8.675   0.703  0.3047  0.9158  2.5206
  555MOL0     H74925   7.567   8.616   0.846  0.1798 -0.8410  1.0373
  556MOL0     O74926   7.471  11.263   5.077  0.7548 -0.2835 -0.6738
  556MOL0     C74927   7.581  11.212   5.098 -0.0982 -0.2721 -0.0091
  556MOL0     O74928   7.602  11.108   5.186  0.0500 -0.6272  0.0897
  556MOL0     C74929   7.511  11.074   5.279  0.4206 -0.6167 -0.3454
  556MOL0     C74930   7.378  11.025   5.242  0.0344 -0.2318  0.1304
  556MOL0     C74931   7.278  10.998   5.340 -0.0101  0.5611  0.7170
  556MOL0     C74932   7.317  11.024   5.469 -0.8392  0.5733 -0.1402
  556MOL0     O74933   7.235  11.007   5.576  0.0642 -0.1065  0.2299
  556MOL0     C74934   7.093  11.039   5.564  0.7382  0.2910  0.3941
  556MOL0     C74935   7.064  11.183   5.539 -0.2848  0.3261 -0.3755
  556MOL0     C74936   6.920  11.211   5.550  0.2268  0.7854 -0.6309
  556MOL0     C74937   6.871  11.230   5.695  0.9707 -0.3241  0.2179
  556MOL0     C74938   6.728  11.274   5.714  0.2051 -0.4497  0.0595
  556MOL0     C74939   6.718  11.370   5.839 -0.3809 -0.1814 -0.7290
  556MOL0     C74940   6.573  11.392   5.889 -0.9680  0.2301 -0.1626
  556MOL0     C74941   6.470  11.455   5.784 -0.0286  0.1768  0.3222
  556MOL0     N74942   6.329  11.449   5.824 -0.5962  0.6639  0.8032
  556MOL0     C74943   6.239  11.547   5.793  0.3166 -1.0269  0.1924
  556MOL0     C74944   6.117  11.503   5.839 -0.1352 -0.3259  0.4336
  556MOL0     C74945   5.989  11.581   5.828 -0.2867  0.2449 -0.5311
  556MOL0     C74946   5.854  11.514   5.866 -0.6772  0.3631  0.0039
  556MOL0     C74947   5.743  11.617   5.897  0.7940 -0.8352  0.3484
  556MOL0     C74948   5.607  11.561   5.883 -0.0864 -0.4601 -0.8882
  556MOL0     O74949   5.577  11.522   5.753 -0.0680 -0.1153 -1.0555
  556MOL0     C74950   5.459  11.456   5.737 -0.2567 -0.3902  0.0459
  556MOL0     C74951   5.437  11.404   5.612 -0.5881 -0.4094  0.2028
  556MOL0     C74952   5.331  11.329   5.569  0.1521 -1.1391  1.5067
  556MOL0     C74953   5.321  11.282   5.422  0.7427 -0.1088 -0.3583
  556MOL0     C74954   5.234  11.307   5.673  0.8628  0.2040 -0.2808
  556MOL0     C74955   5.102  11.237   5.651  0.1240  1.0101 -0.0769
  556MOL0     O74956   5.014  11.231   5.758 -0.9253  0.7489 -0.2121
  556MOL0     C74957   4.886  11.194   5.734  0.0042  0.2845  0.8268
  556MOL0     C74958   4.776  11.281   5.704 -0.5184  0.8548  0.1681
  556MOL0     C74959   4.650  11.234   5.672  0.7637  0.2054 -0.0010
  556MOL0     C74960   4.624  11.097   5.672  0.3931 -0.1179  0.4007
  556MOL0     O74961   4.490  11.054   5.680  0.3296 -0.5293 -0.7486
  556MOL0     C74962   4.443  10.958   5.573 -0.1929  0.5602  0.5882
  556MOL0     C74963   4.293  10.931   5.585  0.2405  0.0692 -0.2072
  556MOL0     C74964   4.232  10.850   5.472 -0.7711  0.0429  0.4750
  556MOL0     C74965   4.084  10.848   5.469 -0.0070  0.6568 -0.1986
  556MOL0     C74966   4.028  10.755   5.362  0.6828 -0.3903  0.0223
  556MOL0     C74967   3.875  10.743   5.384 -0.8370  0.8986  0.6804
  556MOL0     C74968   3.782  10.861   5.361  0.3390 -0.2784  0.7111
  556MOL0     C74969   3.646  10.821   5.416 -1.0580 -0.4427 -0.1227
  556MOL0    Cl74970   3.558  10.964   5.451  0.4009  0.4067 -0.2504
  556MOL0     C74971   4.723  11.005   5.702 -0.2081 -0.1773  0.5945
  556MOL0     C74972   4.853  11.060   5.731  0.4432 -0.5562  0.0390
  556MOL0     O74973   5.075  11.190   5.538  0.1301  0.3161 -0.0953
  556MOL0     C74974   5.248  11.362   5.807 -0.6375 -0.3255 -0.8742
  556MOL0     C74975   5.365  11.431   5.836  0.3154 -0.7294  0.1800
  556MOL0     N74976   6.140  11.382   5.903 -0.6974 -0.2310  0.4110
  556MOL0     N74977   6.267  11.349   5.900  0.1987 -0.6359  0.0190
  556MOL0     C74978   7.451  11.053   5.504 -0.5246 -0.2242 -0.0842
  556MOL0     C74979   7.551  11.071   5.407 -1.0135  0.0321 -0.2578
  556MOL0     C74980   7.695  11.288   5.050  0.6615 -0.3729 -0.8809
  556MOL0     C74981   7.684  11.399   4.961 -0.0340 -0.0077 -0.0779
  556MOL0     C74982   7.797  11.452   4.902  0.0185  0.1730  0.6571
  556MOL0     C74983   7.925  11.399   4.939  0.1478 -0.1729 -0.1140
  556MOL0     O74984   8.038  11.445   4.876 -0.3170 -0.3294  0.2806
  556MOL0     C74985   8.034  11.501   4.737  0.4380  0.2441  0.2080
  556MOL0     C74986   8.179  11.494   4.688 -0.3494  0.1302 -0.4038
  556MOL0     C74987   8.220  11.356   4.643  0.4038 -0.6212 -0.0094
  556MOL0     C74988   8.347  11.355   4.568  0.5721  0.3002  0.2228
  556MOL0     C74989   8.459  11.351   4.660  0.1167 -0.7711  0.3149
  556MOL0     C74990   8.545  11.344   4.747 -0.0412 -0.2672  0.3430
  556MOL0     C74991   7.937  11.299   5.040  1.0055  0.0283  1.1743
  556MOL0     C74992   7.817  11.239   5.085 -0.0523  0.1864 -0.2628
  556MOL0     H74993   7.357  11.013   5.136  2.8322  0.6586 -0.6193
  556MOL0     H74994   7.177  10.962   5.321 -0.0665  0.7273  0.7054
  556MOL0     H74995   7.048  10.971   5.491  0.1619  0.5937  0.4654
  556MOL0     H74996   7.052  11.011   5.662 -0.3401  0.4829  0.0096
  556MOL0     H74997   7.113  11.256   5.605 -0.4847 -0.3174  0.5055
  556MOL0     H74998   7.101  11.205   5.438 -0.8204  0.5581 -0.5267
  556MOL0     H74999   6.908  11.300   5.488 -2.2253  0.8239 -0.2120
  556MOL0     H75000   6.855  11.132   5.509 -0.8881  0.9683  0.7032
  556MOL0     H75001   6.897  11.143   5.755 -2.5841 -3.3381 -2.1263
  556MOL0     H75002   6.928  11.316   5.733  0.0169  0.4479 -0.0680
  556MOL0     H75003   6.700  11.329   5.623  1.6008  1.8932  0.9628
  556MOL0     H75004   6.670  11.185   5.739 -0.3376  0.0065  0.4235
  556MOL0     H75005   6.776  11.330   5.922 -0.4648  1.9091  0.4012
  556MOL0     H75006   6.765  11.464   5.810 -0.1336  0.0299  0.3295
  556MOL0     H75007   6.542  11.292   5.922 -2.5890  0.5770 -0.5424
  556MOL0     H75008   6.573  11.456   5.977  1.3366  1.1670 -0.7755
  556MOL0     H75009   6.479  11.405   5.687  1.7270 -0.9641  1.0190
  556MOL0     H75010   6.503  11.557   5.764  3.9431 -0.8045  1.0560
  556MOL0     H75011   6.255  11.644   5.747 -0.8122 -1.6853 -1.7201
  556MOL0     H75012   5.995  11.668   5.894 -1.8038 -0.6757  0.9003
  556MOL0     H75013   5.973  11.613   5.725 -1.3154  0.8017 -0.2154
  556MOL0     H75014   5.882  11.459   5.956 -0.3745  0.4890 -0.0100
  556MOL0     H75015   5.827  11.445   5.785 -0.4535  1.5368 -1.1142
  556MOL0     H75016   5.749  11.709   5.838 -2.4748 -1.2335 -0.8395
  556MOL0     H75017   5.744  11.650   6.001 -3.8904  2.1225 -0.2234
  556MOL0     H75018   5.536  11.636   5.919  1.8083  0.3866  1.3596
  556MOL0     H75019   5.604  11.476   5.952  0.3344 -0.0989 -0.4212
  556MOL0     H75020   5.516  11.437   5.545 -1.3535  1.3444  0.1246
  556MOL0     H75021   5.418  11.291   5.373  0.7542 -0.0844 -0.3317
  556MOL0     H75022   5.279  11.182   5.409 -0.5222  0.3604 -0.0760
  556MOL0     H75023   5.257  11.359   5.376  1.4490  2.9265  3.2369
  556MOL0     H75024   4.796  11.384   5.675  0.2181  0.8224  0.5143
  556MOL0     H75025   4.566  11.300   5.653 -0.9156 -1.4221  1.4084
  556MOL0     H75026   4.470  10.999   5.475  1.9470 -0.8489  0.5235
  556MOL0     H75027   4.503  10.868   5.586  0.6250  1.1098  0.7125
  556MOL0     H75028   4.274  10.875   5.677  2.1540  0.0179  0.1991
  556MOL0     H75029   4.238  11.025   5.589  1.2229  0.6387  0.4842
  556MOL0     H75030   4.262  10.745   5.479 -1.9369 -0.3867 -0.4999
  556MOL0     H75031   4.266  10.882   5.373 -3.7967  2.0464 -0.0460
  556MOL0     H75032   4.059  10.821   5.572 -1.5000  0.5033 -0.5755
  556MOL0     H75033   4.049  10.951   5.454 -0.9782  0.6036  1.4891
  556MOL0     H75034   4.066  10.653   5.371 -2.3272 -1.4707  2.0654
  556MOL0     H75035   4.049  10.791   5.261 -0.7055 -2.3565 -1.0584
  556MOL0     H75036   3.839  10.673   5.308  0.6441  0.4241  0.3790
  556MOL0     H75037   3.867  10.708   5.487  1.8580 -2.1047  0.0245
  556MOL0     H75038   3.768  10.882   5.255  2.5724 -0.5701  0.2987
  556MOL0     H75039   3.830  10.941   5.418  1.6256 -1.0632  0.7713
  556MOL0     H75040   3.650  10.770   5.513 -0.1924  1.2515  0.7866
  556MOL0     H75041   3.596  10.762   5.339  0.6211 -0.6456 -1.1043
  556MOL0     H75042   4.693  10.904   5.730 -2.7650  0.9569  2.3420
  556MOL0     H75043   4.925  10.984   5.762 -2.1594 -3.6529 -1.0120
  556MOL0     H75044   5.167  11.345   5.877  0.2869 -0.5850  0.1599
  556MOL0     H75045   5.379  11.479   5.933 -0.9177 -1.5201  0.7776
  556MOL0     H75046   7.480  11.060   5.609 -1.8484 -2.3202  0.4891
  556MOL0     H75047   7.656  11.074   5.434 -1.3301 -1.3311  1.3368
  556MOL0     H75048   7.591  11.455   4.953 -1.0769 -1.9570 -3.1518
  556MOL0     H75049   7.775  11.525   4.824 -3.2184 -1.2204  0.0849
  556MOL0     H75050   7.968  11.439   4.675 -2.7620  0.5135  3.0369
  556MOL0     H75051   7.988  11.600   4.739 -0.0678  0.0694 -1.2879
  556MOL0     H75052   8.233  11.530   4.775 -2.4221 -0.3279  1.1545
  556MOL0     H75053   8.193  11.553   4.597 -0.4402 -2.5394 -2.2621
  556MOL0     H75054   8.145  11.322   4.570  0.1400 -1.4625  0.6330
  556MOL0     H75055   8.220  11.291   4.731  2.5866 -0.3943  0.2050
  556MOL0     H75056   8.346  11.442   4.501 -2.1799  3.0527  3.4251
  556MOL0     H75057   8.360  11.267   4.505  0.6542  0.5791 -0.1582
  556MOL0     H75058   8.604  11.345   4.836 -1.9727  1.8476  1.6965
  556MOL0     H75059   8.037  11.276   5.076  1.0822 -2.5586 -0.4598
  556MOL0     H75060   7.836  11.148   5.140  0.1349 -0.8685 -1.9931
  557MOL0     O75061   5.149   7.318   9.522 -0.0535 -0.5154 -0.9113
  557MOL0     C75062   5.184   7.397   9.436 -0.4024 -0.2030 -0.3581
  557MOL0     O75063   5.095   7.466   9.357  0.3784 -0.1015 -0.1313
  557MOL0     C75064   4.957   7.437   9.374 -0.2101 -0.5400  0.1800
  557MOL0     C75065   4.877   7.548   9.405 -0.6639 -0.2894 -0.3772
  557MOL0     C75066   4.748   7.539   9.428  1.5483  0.4559 -0.1847
  557MOL0     C75067   4.676   7.421   9.413 -0.9278 -0.1968 -0.8806
  557MOL0     O75068   4.543   7.415   9.448  0.1110  0.0819  0.5256
  557MOL0     C75069   4.473   7.287   9.445 -0.3727 -0.1431 -0.2803
  557MOL0     C75070   4.334   7.288   9.507 -0.0747 -0.8293  0.8585
  557MOL0     C75071   4.269   7.154   9.471  0.1445  0.5733 -0.2868
  557MOL0     C75072   4.163   7.134   9.580  0.3110 -0.6482 -0.5106
  557MOL0     C75073   4.098   6.999   9.557 -0.6161  0.0126 -1.0366
  557MOL0     C75074   4.001   6.970   9.676  0.3295  0.3375  0.1013
  557MOL0     C75075   3.935   6.833   9.663 -0.6717 -0.3972 -0.4738
  557MOL0     C75076   3.858   6.799   9.532 -0.1357 -0.6030 -1.0075
  557MOL0     N75077   3.717   6.824   9.557  0.1085  0.4865  0.0419
  557MOL0     C75078   3.616   6.729   9.541 -0.4252 -1.1882  0.0269
  557MOL0     C75079   3.502   6.798   9.561 -1.2206 -0.2650 -0.6594
  557MOL0     C75080   3.374   6.733   9.570  0.0774 -0.3885  0.2702
  557MOL0     C75081   3.272   6.793   9.664 -0.3978  0.4898 -0.0175
  557MOL0     C75082   3.142   6.732   9.629  1.3177  0.5889  0.1549
  557MOL0     C75083   3.025   6.799   9.696  0.0025 -0.8259  0.6700
  557MOL0     O75084   2.903   6.748   9.646  0.1630  0.3685  0.0163
  557MOL0     C75085   2.797   6.792   9.713  0.2909 -0.6526 -0.1400
  557MOL0     C75086   2.734   6.917   9.686  0.0485  0.0746 -0.7189
  557MOL0     C75087   2.611   6.942   9.749  0.3329 -0.7654 -0.6109
  557MOL0     C75088   2.555   7.082   9.729  0.2730  0.2151 -0.1536
  557MOL0     C75089   2.543   6.840   9.825  0.4706 -0.0403 -0.9586
  557MOL0     C75090   2.399   6.856   9.876 -0.9724  0.0554  0.1918
  557MOL0     O75091   2.311   6.912   9.787  0.8906  0.4790  0.4948
  557MOL0     C75092   2.179   6.934   9.829 -0.8670  0.2199  0.1918
  557MOL0     C75093   2.139   7.002   9.946  0.0539  0.1483 -0.0164
  557MOL0     C75094   2.004   7.023   9.973  0.2255 -0.2321 -1.1358
  557MOL0     C75095   1.906   6.977   9.890  0.5214 -0.2834 -1.5333
  557MOL0     O75096   1.776   6.988   9.940 -0.0486 -0.5290  0.1495
  557MOL0     C75097   1.679   6.880   9.911  0.4728 -0.3638  0.6474
  557MOL0     C75098   1.557   6.897  10.001 -0.4353  0.3621  0.1259
  557MOL0     C75099   1.485   7.033   9.979 -0.1188 -0.2871 -0.0116
  557MOL0     C75100   1.377   7.016   9.870  0.8927  0.3214 -0.4205
  557MOL0     C75101   1.300   7.145   9.842 -0.0756  0.0291 -0.3592
  557MOL0     C75102   1.200   7.108   9.731  0.7271  0.2405  0.6274
  557MOL0     C75103   1.132   7.238   9.666  0.4524 -0.4388 -0.0388
  557MOL0     C75104   1.054   7.186   9.541 -0.3346 -0.0952  0.5390
  557MOL0    Cl75105   1.024   7.317   9.419 -1.0001 -0.1331  0.0739
  557MOL0     C75106   1.944   6.916   9.771 -0.0096 -0.5476  0.0679
  557MOL0     C75107   2.077   6.897   9.744 -0.5393  0.6642 -0.6627
  557MOL0     O75108   2.372   6.803   9.980  0.0953 -0.1989 -0.2257
  557MOL0     C75109   2.600   6.714   9.842  0.5640 -0.5829  0.3936
  557MOL0     C75110   2.719   6.696   9.773  0.7339 -0.5569  0.0178
  557MOL0     N75111   3.532   6.928   9.593  0.2427 -0.1087  0.2100
  557MOL0     N75112   3.660   6.948   9.592  0.5210  0.6919 -0.0985
  557MOL0     C75113   4.749   7.306   9.368  0.3649  0.4763 -0.4244
  557MOL0     C75114   4.891   7.314   9.352 -0.6213 -0.1799 -0.4329
  557MOL0     C75115   5.323   7.419   9.420 -0.8709 -0.9694  0.1129
  557MOL0     C75116   5.419   7.325   9.448 -0.5845  0.2985 -0.4446
  557MOL0     C75117   5.550   7.350   9.425  0.1355 -0.6447  0.3495
  557MOL0     C75118   5.594   7.477   9.387 -0.5091  1.3162 -0.1068
  557MOL0     O75119   5.728   7.506   9.368  0.6036  0.1544  0.0841
  557MOL0     C75120   5.819   7.426   9.444 -0.4949 -0.6987 -0.1817
  557MOL0     C75121   5.938   7.515   9.451 -0.5121  0.0596 -0.3963
  557MOL0     C75122   6.017   7.514   9.318  0.2077 -0.7539 -0.0814
  557MOL0     C75123   6.095   7.647   9.290  0.4236  0.7240 -0.2021
  557MOL0     C75124   6.168   7.694   9.407 -0.5942 -0.3187  0.3480
  557MOL0     C75125   6.251   7.727   9.485  0.1644 -0.8404 -0.3969
  557MOL0     C75126   5.497   7.574   9.362 -0.8589 -0.1125 -0.1854
  557MOL0     C75127   5.360   7.547   9.368  0.0014 -0.2323 -0.1950
  557MOL0     H75128   4.925   7.644   9.422 -1.3407 -0.4506  3.1843
  557MOL0     H75129   4.701   7.628   9.470  0.6391 -1.3274  2.8851
  557MOL0     H75130   4.468   7.252   9.342 -0.4584 -1.9659  0.3177
  557MOL0     H75131   4.535   7.216   9.501  2.9059  0.4795 -2.8064
  557MOL0     H75132   4.342   7.309   9.614 -1.0957  2.5187  0.3950
  557MOL0     H75133   4.288   7.378   9.467  2.8850  0.3071 -0.2776
  557MOL0     H75134   4.224   7.140   9.372 -1.6265 -0.5968  0.6313
  557MOL0     H75135   4.340   7.071   9.475 -0.7599 -0.1767  0.8801
  557MOL0     H75136   4.208   7.128   9.679 -0.3124 -2.2622 -0.2942
  557MOL0     H75137   4.095   7.217   9.562 -0.4612 -1.6749 -2.7295
  557MOL0     H75138   4.049   6.988   9.460  0.8558 -2.1459 -1.6179
  557MOL0     H75139   4.176   6.922   9.555 -1.6348 -1.1430  0.7773
  557MOL0     H75140   4.066   6.973   9.764 -1.4236  3.8306  1.4782
  557MOL0     H75141   3.927   7.050   9.683  0.0450  0.6340 -3.8443
  557MOL0     H75142   4.006   6.750   9.667 -1.8599 -1.3882  1.0651
  557MOL0     H75143   3.870   6.820   9.750  1.9373 -2.0304  1.3795
  557MOL0     H75144   3.873   6.693   9.514  0.6408 -1.7320  4.5834
  557MOL0     H75145   3.894   6.864   9.451  2.0131  0.9267  1.0530
  557MOL0     H75146   3.624   6.626   9.506  0.7635 -0.6948 -1.2836
  557MOL0     H75147   3.330   6.738   9.470 -1.2845 -1.6158  0.7783
  557MOL0     H75148   3.389   6.628   9.597 -1.0179 -0.2874  1.3730
  557MOL0     H75149   3.271   6.902   9.662  2.2697  0.5846 -1.7830
  557MOL0     H75150   3.301   6.757   9.763  0.1838 -0.8026 -0.6169
  557MOL0     H75151   3.153   6.627   9.657  1.6287 -0.0261 -2.0981
  557MOL0     H75152   3.127   6.728   9.521  1.8057  1.6319  0.0356
  557MOL0     H75153   3.028   6.907   9.679  2.8025 -0.8937  0.3687
  557MOL0     H75154   3.027   6.790   9.805 -1.7995 -0.3442  0.7835
  557MOL0     H75155   2.784   6.984   9.617  1.6926 -0.7909 -0.4217
  557MOL0     H75156   2.468   7.072   9.664  0.0750  2.4862 -0.3109
  557MOL0     H75157   2.520   7.126   9.823 -0.4290  1.2909 -0.8992
  557MOL0     H75158   2.623   7.157   9.687 -1.4127 -0.3349 -4.3623
  557MOL0     H75159   2.215   7.039  10.014 -2.5531  1.1310  2.5302
  557MOL0     H75160   1.970   7.077  10.061 -3.7946 -0.6142 -2.2751
  557MOL0     H75161   1.648   6.872   9.807  0.3432  0.0862  0.6515
  557MOL0     H75162   1.733   6.786   9.930  0.5093 -0.4664  0.0503
  557MOL0     H75163   1.486   6.818   9.977  0.0948  0.2984 -1.2555
  557MOL0     H75164   1.583   6.886  10.107  0.8484  2.8916  0.1414
  557MOL0     H75165   1.558   7.113   9.958  2.3084 -2.7481 -1.6661
  557MOL0     H75166   1.439   7.050  10.076 -0.3416 -3.6392  0.5686
  557MOL0     H75167   1.419   6.975   9.777  2.2204  2.7905 -0.9901
  557MOL0     H75168   1.299   6.950   9.910 -1.2336  2.5113 -0.7275
  557MOL0     H75169   1.364   7.228   9.809 -0.5153  1.8662  2.9553
  557MOL0     H75170   1.250   7.188   9.930 -0.8922 -0.1512 -0.7290
  557MOL0     H75171   1.247   7.047   9.654 -1.2167 -2.9310  1.7801
  557MOL0     H75172   1.118   7.052   9.776 -1.0849  1.8280 -0.5171
  557MOL0     H75173   1.211   7.304   9.631 -1.8942  2.7299  0.1834
  557MOL0     H75174   1.065   7.288   9.737 -0.9494 -0.6488 -1.1451
  557MOL0     H75175   0.956   7.141   9.559  0.1319 -1.2451  0.3116
  557MOL0     H75176   1.106   7.104   9.490  0.8775  0.8959  0.1315
  557MOL0     H75177   1.865   6.887   9.703  0.8277 -0.9137 -0.7693
  557MOL0     H75178   2.103   6.842   9.654 -1.7416  0.9029 -1.1679
  557MOL0     H75179   2.550   6.634   9.895 -0.1395 -0.3921  0.0338
  557MOL0     H75180   2.755   6.594   9.784  2.5979  0.0042 -0.4447
  557MOL0     H75181   4.695   7.213   9.357 -0.5495  0.7367  1.4621
  557MOL0     H75182   4.955   7.229   9.330  1.4396  0.8197  1.3299
  557MOL0     H75183   5.394   7.221   9.469 -3.1432  0.5213 -1.8731
  557MOL0     H75184   5.632   7.280   9.437  3.2669  2.8082  1.1833
  557MOL0     H75185   5.781   7.415   9.546  1.7629  0.1398  0.8222
  557MOL0     H75186   5.837   7.324   9.409  0.2413 -0.9916  0.9764
  557MOL0     H75187   6.004   7.498   9.536  1.6666  3.4796 -1.2151
  557MOL0     H75188   5.899   7.617   9.457 -1.3146 -0.1713 -1.4745
  557MOL0     H75189   5.944   7.501   9.238  0.5610 -1.1499 -0.3463
  557MOL0     H75190   6.092   7.433   9.314  2.1461  0.7714  2.3176
  557MOL0     H75191   6.015   7.715   9.257 -0.8315  0.3386  1.8861
  557MOL0     H75192   6.154   7.621   9.201 -0.3840  2.4980 -1.3218
  557MOL0     H75193   6.330   7.753   9.552  2.3480 -2.8844 -2.0114
  557MOL0     H75194   5.526   7.674   9.332 -3.5058  1.0084  0.6740
  557MOL0     H75195   5.279   7.617   9.347 -0.3379 -0.5377  0.0940
  558MOL0     O75196   2.152   3.314  11.000  0.1919 -1.3990  0.7700
  558MOL0     C75197   2.123   3.210  11.059 -0.3761  0.1614  0.5928
  558MOL0     O75198   2.001   3.174  11.093 -0.0507  0.3877 -0.6513
  558MOL0     C75199   1.886   3.248  11.062  0.5755  0.1155 -0.8481
  558MOL0     C75200   1.768   3.197  11.119  0.3291 -0.2796 -0.1114
  558MOL0     C75201   1.641   3.265  11.116 -0.2960  1.9161  0.4508
  558MOL0     C75202   1.630   3.378  11.042  0.5762  0.1377 -1.3951
  558MOL0     O75203   1.510   3.453  11.061 -0.0739  0.4110  1.0529
  558MOL0     C75204   1.504   3.575  10.976  0.1938  0.3869 -0.5417
  558MOL0     C75205   1.373   3.640  10.990  0.6740 -0.0206 -0.0360
  558MOL0     C75206   1.355   3.751  10.885  0.5281 -0.2386  0.1911
  558MOL0     C75207   1.225   3.824  10.914  0.4003  0.9005 -0.1141
  558MOL0     C75208   1.220   3.956  10.836  0.2296  0.6749  0.6407
  558MOL0     C75209   1.102   4.046  10.877 -0.5218  0.3969  0.2141
  558MOL0     C75210   0.965   3.978  10.885  0.0067 -0.4443  0.2910
  558MOL0     C75211   0.914   3.925  10.753 -0.4647 -0.5215  0.1689
  558MOL0     N75212   0.792   3.857  10.759  0.7317  0.1447 -0.4151
  558MOL0     C75213   0.671   3.892  10.808 -0.4880 -0.8152  0.0408
  558MOL0     C75214   0.594   3.784  10.796  0.2062 -0.1915 -0.5678
  558MOL0     C75215   0.450   3.768  10.857 -0.2690 -0.0914  0.4998
  558MOL0     C75216   0.362   3.709  10.739  0.1507 -0.5124 -0.4914
  558MOL0     C75217   0.212   3.703  10.764 -0.3423  0.2190 -0.5686
  558MOL0     C75218   0.139   3.641  10.646 -0.1495  0.2611  1.0978
  558MOL0     O75219  -0.012   3.638  10.660 -0.6318  0.0304  0.0139
  558MOL0     C75220  -0.082   3.612  10.557 -0.3939 -0.3409 -0.0486
  558MOL0     C75221  -0.049   3.602  10.417  0.5864  0.7325  0.5043
  558MOL0     C75222  -0.140   3.556  10.320 -0.4251  0.9972 -0.2359
  558MOL0     C75223  -0.084   3.528  10.181 -0.3824  0.0456  0.2611
  558MOL0     C75224  -0.280   3.548  10.359  1.1646  0.1825  0.3124
  558MOL0     C75225  -0.394   3.521  10.264  0.2692  0.1405  1.0301
  558MOL0     O75226  -0.517   3.511  10.318  0.4004  0.4345  0.1035
  558MOL0     C75227  -0.627   3.480  10.245  0.2881 -0.4381  1.0486
  558MOL0     C75228  -0.715   3.377  10.267 -0.9571  0.1787 -0.0131
  558MOL0     C75229  -0.820   3.349  10.188  0.6901  0.0844  0.1113
  558MOL0     C75230  -0.849   3.434  10.079  0.1666 -0.1262 -0.4303
  558MOL0     O75231  -0.953   3.395   9.994 -0.5559 -0.4132  0.0893
  558MOL0     C75232  -1.073   3.354  10.045  0.2129 -0.0951  0.0881
  558MOL0     C75233  -1.197   3.404   9.957 -0.7657 -0.2892 -0.3278
  558MOL0     C75234  -1.324   3.355  10.019 -0.5389 -0.1784 -0.4469
  558MOL0     C75235  -1.387   3.238   9.945 -0.1439  0.3150 -0.0846
  558MOL0     C75236  -1.518   3.209  10.026  0.0417  0.1623  0.0486
  558MOL0     C75237  -1.640   3.296   9.998 -0.4228 -0.1891 -0.2578
  558MOL0     C75238  -1.767   3.248  10.069 -0.1051 -0.4816  0.9124
  558MOL0     C75239  -1.881   3.338  10.044  0.1427  0.1992  0.1164
  558MOL0    Cl75240  -1.937   3.343   9.872 -0.3265 -0.0126 -0.0495
  558MOL0     C75241  -0.762   3.532  10.044 -0.6761 -0.1696  0.2113
  558MOL0     C75242  -0.655   3.561  10.129  0.1481 -0.2008 -0.1360
  558MOL0     O75243  -0.372   3.491  10.146  0.5870 -0.0641 -0.4696
  558MOL0     C75244  -0.315   3.573  10.490 -0.0629 -0.8987 -0.0551
  558MOL0     C75245  -0.220   3.600  10.588 -0.7332 -0.4436 -0.6203
  558MOL0     N75246   0.669   3.680  10.747 -0.4058  0.1454  0.5186
  558MOL0     N75247   0.790   3.729  10.725 -0.0781  0.0880  0.2992
  558MOL0     C75248   1.745   3.440  10.986 -0.7288  0.5669 -0.4614
  558MOL0     C75249   1.867   3.367  10.988 -0.3344 -0.5040  0.5998
  558MOL0     C75250   2.232   3.123  11.098 -0.2507  0.1501 -0.4170
  558MOL0     C75251   2.224   2.982  11.091  0.0304 -0.8133 -0.2153
  558MOL0     C75252   2.326   2.897  11.126 -0.3725  0.5631  0.0278
  558MOL0     C75253   2.451   2.951  11.174  0.8177 -0.2330 -0.0255
  558MOL0     O75254   2.556   2.884  11.222 -0.3970 -0.0660 -0.5233
  558MOL0     C75255   2.524   2.752  11.265 -0.5123  0.3065  0.3464
  558MOL0     C75256   2.649   2.685  11.310 -0.4229  0.8010  0.1198
  558MOL0     C75257   2.723   2.752  11.429  0.2936 -0.2764  0.1992
  558MOL0     C75258   2.627   2.768  11.542 -0.5398  0.0044  0.4801
  558MOL0     C75259   2.554   2.641  11.574  0.0696  0.3368  0.2661
  558MOL0     C75260   2.506   2.533  11.595  0.2304  0.4580 -0.3545
  558MOL0     C75261   2.458   3.088  11.181  0.1503 -0.4408 -0.6094
  558MOL0     C75262   2.350   3.168  11.149  0.2667 -0.7863 -0.4738
  558MOL0     H75263   1.776   3.103  11.172 -0.6578  0.5219  1.5263
  558MOL0     H75264   1.551   3.232  11.168 -1.6448  2.1591 -1.5906
  558MOL0     H75265   1.579   3.648  11.005 -1.5697  2.2913 -0.5799
  558MOL0     H75266   1.528   3.543  10.874  1.0722  0.5524 -0.3981
  558MOL0     H75267   1.299   3.561  10.973  2.6055 -2.5280  2.2773
  558MOL0     H75268   1.356   3.690  11.086  0.3321  3.3902 -1.7141
  558MOL0     H75269   1.439   3.819  10.902 -0.3016  0.7082  0.5838
  558MOL0     H75270   1.363   3.716  10.782  4.2069 -0.6581  0.4904
  558MOL0     H75271   1.130   3.771  10.905 -1.1933  3.3644  1.0565
  558MOL0     H75272   1.230   3.853  11.020  0.8100  0.6392 -0.0578
  558MOL0     H75273   1.314   4.011  10.849  0.0446  0.4603  3.4487
  558MOL0     H75274   1.200   3.934  10.730  0.3413  2.0775  0.3147
  558MOL0     H75275   1.121   4.079  10.979  3.2825  0.9234 -0.5110
  558MOL0     H75276   1.104   4.134  10.812  0.6087 -0.4084 -0.9033
  558MOL0     H75277   0.974   3.894  10.955  0.1560  0.0919  0.9156
  558MOL0     H75278   0.889   4.043  10.928 -0.3914 -0.6920 -0.0324
  558MOL0     H75279   0.991   3.859  10.713  0.8887  1.7214 -1.1189
  558MOL0     H75280   0.900   4.009  10.685  2.5271  0.3822  0.5656
  558MOL0     H75281   0.650   3.987  10.857  2.0477 -1.5459  2.8834
  558MOL0     H75282   0.458   3.702  10.944  0.6440 -2.1188 -1.0400
  558MOL0     H75283   0.418   3.869  10.882  2.1261  0.6857  0.6815
  558MOL0     H75284   0.389   3.608  10.708  0.4386 -0.2444 -1.1345
  558MOL0     H75285   0.381   3.770  10.651 -0.6326 -0.0126 -0.3286
  558MOL0     H75286   0.186   3.806  10.789  1.2361  1.2814 -2.9225
  558MOL0     H75287   0.180   3.654  10.856  0.2595  3.1779  1.3559
  558MOL0     H75288   0.167   3.536  10.632  0.2850  0.1656  2.5556
  558MOL0     H75289   0.164   3.705  10.561 -1.3739 -0.1895  0.3742
  558MOL0     H75290   0.050   3.629  10.385  0.0488  0.9712 -1.0086
  558MOL0     H75291  -0.095   3.422  10.158 -0.7514 -0.0556  0.8819
  558MOL0     H75292  -0.151   3.579  10.111  0.0192 -2.4836 -2.1194
  558MOL0     H75293   0.024   3.543  10.175 -0.2662 -0.1219  1.6369
  558MOL0     H75294  -0.702   3.309  10.350  2.1487  1.2632  0.5109
  558MOL0     H75295  -0.886   3.266  10.211  0.1887  0.9223  1.8790
  558MOL0     H75296  -1.069   3.245  10.057 -1.7712 -0.5924 -2.7820
  558MOL0     H75297  -1.078   3.397  10.145 -2.7179  0.3173 -0.1525
  558MOL0     H75298  -1.184   3.512   9.947  1.9736 -0.3298  1.6459
  558MOL0     H75299  -1.191   3.358   9.858  0.4994 -0.5913 -0.1262
  558MOL0     H75300  -1.393   3.439  10.012  1.8354  1.7680 -1.8838
  558MOL0     H75301  -1.301   3.330  10.122 -0.3630 -0.1477 -0.4790
  558MOL0     H75302  -1.411   3.262   9.841  1.0273  1.0935 -0.1937
  558MOL0     H75303  -1.326   3.148   9.936 -1.1363 -0.1579 -3.7952
  558MOL0     H75304  -1.500   3.213  10.134  0.6192 -2.7899  0.1235
  558MOL0     H75305  -1.540   3.106  10.000  4.0300 -0.8126 -0.0916
  558MOL0     H75306  -1.614   3.398  10.029  2.2502 -1.0002  0.4915
  558MOL0     H75307  -1.660   3.300   9.890  1.9702  0.1683 -0.7480
  558MOL0     H75308  -1.752   3.242  10.178 -2.1480 -0.7210  1.2190
  558MOL0     H75309  -1.796   3.148  10.037  3.1219 -0.6503 -2.1389
  558MOL0     H75310  -1.868   3.443  10.073 -1.6907  0.3426  0.5882
  558MOL0     H75311  -1.959   3.298  10.109  1.6240 -2.2572  0.4841
  558MOL0     H75312  -0.775   3.592   9.954  1.6139 -1.1112 -0.8261
  558MOL0     H75313  -0.601   3.648  10.093  0.9963 -0.5856  0.1667
  558MOL0     H75314  -0.418   3.564  10.522 -0.4549  1.6196 -0.4364
  558MOL0     H75315  -0.256   3.600  10.690  0.3724 -0.0765 -0.2144
  558MOL0     H75316   1.742   3.537  10.937  1.5446  0.6284 -0.6223
  558MOL0     H75317   1.951   3.420  10.944 -2.1044  0.1836 -2.1361
  558MOL0     H75318   2.140   2.945  11.034  0.2633 -0.5011 -0.7745
  558MOL0     H75319   2.307   2.791  11.110  0.3460  0.1064  1.8706
  558MOL0     H75320   2.455   2.759  11.350  0.8609 -0.7296  1.6054
  558MOL0     H75321   2.494   2.685  11.184  1.6406  0.0771 -0.3118
  558MOL0     H75322   2.717   2.693  11.225  1.3474 -2.8249  0.9545
  558MOL0     H75323   2.630   2.578  11.322  0.6865  0.5630 -0.0922
  558MOL0     H75324   2.753   2.850  11.390 -0.9576 -0.4242 -1.2424
  558MOL0     H75325   2.802   2.687  11.467 -2.0422 -1.7407  2.9284
  558MOL0     H75326   2.551   2.842  11.516 -1.7021 -1.7227 -1.3581
  558MOL0     H75327   2.680   2.799  11.633 -2.3691 -2.7142  2.6508
  558MOL0     H75328   2.462   2.437  11.611  1.5838 -0.8442 -3.5754
  558MOL0     H75329   2.550   3.139  11.208  0.8662  0.5680 -4.3173
  558MOL0     H75330   2.349   3.274  11.173 -2.6641 -0.5361 -1.3735
  559MOL0     O75331   2.208   8.547   3.171 -0.9537 -0.9321  0.1262
  559MOL0     C75332   2.253   8.650   3.226 -0.5750 -0.0361  0.2417
  559MOL0     O75333   2.184   8.767   3.258 -0.6589 -0.1035 -0.0448
  559MOL0     C75334   2.048   8.763   3.243  0.5926 -0.1738 -0.6989
  559MOL0     C75335   1.964   8.675   3.322  0.1525 -0.4958  0.0108
  559MOL0     C75336   1.827   8.671   3.300 -0.5143  0.2868 -0.3200
  559MOL0     C75337   1.766   8.761   3.211  0.1269  0.1329 -0.2861
  559MOL0     O75338   1.634   8.759   3.179  0.1729 -0.0925 -0.3250
  559MOL0     C75339   1.554   8.673   3.263  0.9356 -0.1763  0.4160
  559MOL0     C75340   1.405   8.679   3.218  1.0842  0.9710 -0.7938
  559MOL0     C75341   1.325   8.575   3.305  0.5039  0.2706 -0.7390
  559MOL0     C75342   1.207   8.530   3.224 -0.1499 -0.0662  0.6515
  559MOL0     C75343   1.128   8.418   3.290 -0.2897 -0.3574  0.2172
  559MOL0     C75344   1.003   8.396   3.207  0.1314  0.0545  1.1830
  559MOL0     C75345   0.931   8.263   3.250  0.2416 -0.0063  0.1633
  559MOL0     C75346   0.795   8.238   3.174 -0.2908  0.6097 -0.5465
  559MOL0     N75347   0.734   8.106   3.197 -0.0196 -0.3528 -0.8446
  559MOL0     C75348   0.634   8.073   3.290 -0.2565 -0.6635  0.3674
  559MOL0     C75349   0.615   7.944   3.265 -0.1533  0.2735  0.4564
  559MOL0     C75350   0.541   7.842   3.346 -0.9023 -0.2721  0.2812
  559MOL0     C75351   0.418   7.792   3.275  0.4707  1.0374 -0.6293
  559MOL0     C75352   0.456   7.688   3.166 -0.6447 -0.9159  0.5489
  559MOL0     C75353   0.332   7.642   3.100 -0.7390 -0.0756  0.0345
  559MOL0     O75354   0.257   7.744   3.035  0.1431  0.2497 -0.1404
  559MOL0     C75355   0.118   7.730   3.015 -0.1155 -0.1660 -0.8017
  559MOL0     C75356   0.050   7.846   2.979 -0.2495  0.8424 -0.7344
  559MOL0     C75357  -0.090   7.843   2.974  0.0413 -0.3444  0.4306
  559MOL0     C75358  -0.160   7.978   2.957  0.3210  0.3903  0.8102
  559MOL0     C75359  -0.165   7.725   2.974 -0.4500  0.0283  0.0373
  559MOL0     C75360  -0.309   7.715   2.956  0.3120  0.2306  0.0489
  559MOL0     O75361  -0.370   7.610   3.023 -0.1653 -0.6263  0.1944
  559MOL0     C75362  -0.503   7.593   2.995 -0.4366 -0.4873  0.7532
  559MOL0     C75363  -0.549   7.536   2.880  0.1355  0.3900  0.8945
  559MOL0     C75364  -0.682   7.515   2.870 -0.0579 -0.1685  0.2392
  559MOL0     C75365  -0.780   7.547   2.956 -0.4421 -0.4052  0.1700
  559MOL0     O75366  -0.909   7.522   2.927  0.3903  0.4461  0.1287
  559MOL0     C75367  -1.007   7.527   3.034  0.6979 -0.7711  1.0025
  559MOL0     C75368  -1.137   7.450   2.999 -1.1913 -0.4792  0.2360
  559MOL0     C75369  -1.240   7.455   3.111 -1.2981 -0.9041  0.1933
  559MOL0     C75370  -1.371   7.401   3.063 -0.0627 -0.5911 -0.4553
  559MOL0     C75371  -1.470   7.381   3.183 -0.6830  0.4115 -0.7348
  559MOL0     C75372  -1.509   7.512   3.259 -0.5679  0.1272  0.2841
  559MOL0     C75373  -1.647   7.502   3.320  0.4015  0.0619 -0.6385
  559MOL0     C75374  -1.753   7.560   3.231 -0.2144  0.9531 -0.6810
  559MOL0    Cl75375  -1.900   7.549   3.328 -0.3668 -0.7779  0.3455
  559MOL0     C75376  -0.735   7.620   3.072  0.5775 -0.0802 -0.3589
  559MOL0     C75377  -0.599   7.645   3.090 -0.1330 -0.3306  0.0868
  559MOL0     O75378  -0.346   7.780   2.863  0.0115  0.2715  0.3717
  559MOL0     C75379  -0.092   7.602   2.998  0.1596 -0.3712 -0.2430
  559MOL0     C75380   0.054   7.603   3.025 -0.2426  0.2781  0.5173
  559MOL0     N75381   0.683   7.905   3.153 -0.0523 -0.0645  0.3048
  559MOL0     N75382   0.756   8.002   3.112  0.3576  0.5629  0.6743
  559MOL0     C75383   1.846   8.852   3.145  1.1840  0.0723  0.5373
  559MOL0     C75384   1.980   8.858   3.171 -0.0249 -0.4626 -0.5345
  559MOL0     C75385   2.390   8.639   3.281 -0.8556  0.4244  0.6965
  559MOL0     C75386   2.475   8.745   3.256  0.8458  0.1793 -0.0063
  559MOL0     C75387   2.609   8.729   3.286  0.3649 -0.1696 -0.5774
  559MOL0     C75388   2.662   8.612   3.339  0.1918  0.5144 -0.1479
  559MOL0     O75389   2.809   8.612   3.346 -0.0858 -0.0772 -0.5244
  559MOL0     C75390   2.873   8.488   3.370  0.6802  0.4321  0.8254
  559MOL0     C75391   2.882   8.482   3.514 -0.5181  0.4920  0.0213
  559MOL0     C75392   2.956   8.350   3.554 -0.3515  0.2883  0.2490
  559MOL0     C75393   3.103   8.345   3.501  0.0346 -0.8000 -0.4712
  559MOL0     C75394   3.178   8.467   3.535  0.3921 -0.1337  0.1557
  559MOL0     C75395   3.231   8.573   3.558 -0.2208  0.1072  0.2603
  559MOL0     C75396   2.573   8.509   3.368  0.1965 -0.0710 -0.6027
  559MOL0     C75397   2.442   8.519   3.336  0.0352  0.0273 -0.1745
  559MOL0     H75398   2.020   8.605   3.382 -0.3687  0.0077  1.1061
  559MOL0     H75399   1.779   8.596   3.362  0.1594 -0.2400 -0.4295
  559MOL0     H75400   1.595   8.572   3.267  3.2371  0.3939 -3.2394
  559MOL0     H75401   1.563   8.704   3.367 -2.7232 -0.4369  0.9456
  559MOL0     H75402   1.380   8.785   3.228  1.3168  0.8913  0.9397
  559MOL0     H75403   1.388   8.655   3.112 -1.2771 -1.7688  0.0425
  559MOL0     H75404   1.382   8.484   3.325 -2.7392 -2.2755 -2.1095
  559MOL0     H75405   1.296   8.621   3.401 -1.2688 -1.7193 -0.2568
  559MOL0     H75406   1.146   8.620   3.215  0.2011  0.1645  0.5710
  559MOL0     H75407   1.233   8.496   3.124 -0.9664  0.8094  0.1281
  559MOL0     H75408   1.183   8.324   3.286 -0.6883 -0.6678  1.4122
  559MOL0     H75409   1.101   8.426   3.396 -3.3185  1.3714 -0.5584
  559MOL0     H75410   0.935   8.480   3.217  1.7696  1.8173 -1.1033
  559MOL0     H75411   1.020   8.392   3.098  1.1164 -0.5242  1.3435
  559MOL0     H75412   1.006   8.185   3.231 -1.1520 -1.4182  0.2812
  559MOL0     H75413   0.917   8.269   3.358  0.2862  3.4557  0.1043
  559MOL0     H75414   0.809   8.252   3.067 -0.8276 -0.3352 -0.7554
  559MOL0     H75415   0.733   8.313   3.224  1.8790  1.4683  1.0000
  559MOL0     H75416   0.602   8.129   3.377 -0.4073 -3.1535  2.0323
  559MOL0     H75417   0.614   7.765   3.372  1.4774  1.6988 -0.1558
  559MOL0     H75418   0.513   7.887   3.442  1.0396  2.6639 -0.3740
  559MOL0     H75419   0.368   7.874   3.222  1.4551  0.7922 -2.0059
  559MOL0     H75420   0.352   7.743   3.347  0.5635 -1.1558 -1.9370
  559MOL0     H75421   0.498   7.597   3.209  1.1429 -0.6323 -0.5069
  559MOL0     H75422   0.516   7.727   3.083 -0.8763 -1.5927  0.0615
  559MOL0     H75423   0.264   7.610   3.180 -0.8393  1.0200  0.3983
  559MOL0     H75424   0.344   7.555   3.035 -0.7777  1.9671 -2.8694
  559MOL0     H75425   0.097   7.944   2.986 -0.6467  1.1543 -2.1370
  559MOL0     H75426  -0.150   7.999   2.850 -2.5668 -0.4977  0.2948
  559MOL0     H75427  -0.264   7.968   2.987 -0.8955  0.6077 -2.8125
  559MOL0     H75428  -0.113   8.060   3.013  1.1425 -1.2836  2.6730
  559MOL0     H75429  -0.472   7.508   2.809 -1.0141 -2.2718  0.5750
  559MOL0     H75430  -0.709   7.468   2.776  0.2163  2.8879 -1.4803
  559MOL0     H75431  -0.962   7.495   3.128  1.4692 -0.5096  0.7282
  559MOL0     H75432  -1.027   7.632   3.052 -2.5697 -0.9561 -0.7729
  559MOL0     H75433  -1.177   7.493   2.907  0.8870  1.9895  0.3406
  559MOL0     H75434  -1.108   7.345   2.986 -0.0712 -0.4287  1.9565
  559MOL0     H75435  -1.251   7.558   3.145 -0.0915  0.4538 -3.1529
  559MOL0     H75436  -1.212   7.391   3.196 -2.0930 -1.4884  0.0283
  559MOL0     H75437  -1.422   7.461   2.987 -1.1340 -0.5338  0.3041
  559MOL0     H75438  -1.365   7.305   3.010 -0.6519 -0.2347 -1.1915
  559MOL0     H75439  -1.418   7.309   3.248 -1.2235  1.5701  1.0469
  559MOL0     H75440  -1.555   7.323   3.145 -0.8588  0.0481  0.1855
  559MOL0     H75441  -1.428   7.523   3.332 -0.2473 -3.1451  0.5786
  559MOL0     H75442  -1.508   7.597   3.190 -4.9278  0.3030  0.1526
  559MOL0     H75443  -1.635   7.553   3.417  0.8223 -0.3256 -0.4816
  559MOL0     H75444  -1.660   7.394   3.328  0.1145 -0.0898 -2.7821
  559MOL0     H75445  -1.754   7.499   3.140  2.9085  1.2178 -1.0102
  559MOL0     H75446  -1.733   7.664   3.204 -1.4614  1.3053 -0.3061
  559MOL0     H75447  -0.811   7.649   3.143  0.6305 -1.6539  0.3872
  559MOL0     H75448  -0.573   7.709   3.174 -2.1632 -1.2505  1.4839
  559MOL0     H75449  -0.144   7.507   3.000 -0.6590  0.0821  0.9213
  559MOL0     H75450   0.102   7.510   3.055  0.3101  0.4091  0.0515
  559MOL0     H75451   1.805   8.933   3.085  0.2162 -0.9501 -0.2339
  559MOL0     H75452   2.038   8.934   3.121 -0.3728 -0.2865 -0.6725
  559MOL0     H75453   2.448   8.838   3.208 -2.5066 -0.5409  0.1936
  559MOL0     H75454   2.667   8.818   3.266  0.7799 -0.3877 -0.3693
  559MOL0     H75455   2.806   8.408   3.338 -0.2560  1.0532  1.1891
  559MOL0     H75456   2.972   8.490   3.323  1.6980 -0.1316  2.8099
  559MOL0     H75457   2.781   8.487   3.555  0.3265 -0.2330  2.3195
  559MOL0     H75458   2.939   8.568   3.550  0.8606  0.2428 -1.4374
  559MOL0     H75459   2.899   8.261   3.526 -0.4675  0.7404 -0.9902
  559MOL0     H75460   2.964   8.342   3.663  0.0589 -3.2404  0.0688
  559MOL0     H75461   3.119   8.320   3.396  0.1764 -2.4696 -0.0788
  559MOL0     H75462   3.150   8.261   3.552 -1.4092 -0.5942  1.2929
  559MOL0     H75463   3.283   8.666   3.573  1.2563 -0.0266 -3.1316
  559MOL0     H75464   2.607   8.419   3.419 -1.8733  0.1792  1.3641
  559MOL0     H75465   2.382   8.429   3.346  2.5382 -2.1207 -2.7431
  560MOL0     O75466   9.679   6.440   8.312 -0.4504  0.0111  0.3198
  560MOL0     C75467   9.670   6.428   8.437 -1.1445 -0.4296  0.6796
  560MOL0     O75468   9.553   6.427   8.511  0.1589  0.1551  0.2607
  560MOL0     C75469   9.426   6.453   8.456  0.8051  0.1764 -0.1516
  560MOL0     C75470   9.377   6.591   8.456 -0.0386  0.5158 -0.4075
  560MOL0     C75471   9.253   6.622   8.401  0.5225  0.4075 -0.0772
  560MOL0     C75472   9.168   6.524   8.358  0.5289  0.4576 -0.0846
  560MOL0     O75473   9.037   6.558   8.333  0.3696 -0.0933  0.0594
  560MOL0     C75474   8.991   6.506   8.203  0.6046  0.0755 -0.1647
  560MOL0     C75475   8.839   6.457   8.214 -0.2283  0.2036 -0.5446
  560MOL0     C75476   8.838   6.313   8.282 -0.2034 -0.4239  0.1722
  560MOL0     C75477   8.698   6.285   8.334  0.3894 -0.0036 -0.4702
  560MOL0     C75478   8.587   6.284   8.221 -0.6657 -0.4808  0.3578
  560MOL0     C75479   8.614   6.191   8.099  0.1533  0.9060  0.1748
  560MOL0     C75480   8.624   6.049   8.162  0.5644  0.0733  0.3765
  560MOL0     C75481   8.593   5.935   8.059  0.1099  0.4715  0.0993
  560MOL0     N75482   8.456   5.934   8.014  0.1774 -0.5284  0.1147
  560MOL0     C75483   8.404   5.958   7.890  0.3382 -0.1524  0.0021
  560MOL0     C75484   8.280   5.910   7.895 -0.6398  0.0397 -0.0624
  560MOL0     C75485   8.172   5.899   7.783 -0.0817  0.1504 -0.1817
  560MOL0     C75486   8.103   6.026   7.745  0.2418  0.0134  0.3565
  560MOL0     C75487   8.030   6.025   7.605 -0.1071 -0.3352  0.4522
  560MOL0     C75488   7.917   5.924   7.604 -0.1586 -0.8384 -0.9501
  560MOL0     O75489   7.847   5.915   7.479 -0.3080  0.6808 -0.6537
  560MOL0     C75490   7.740   5.840   7.461 -0.6184 -0.0558 -0.2833
  560MOL0     C75491   7.671   5.851   7.342 -0.2349 -0.2988 -0.1535
  560MOL0     C75492   7.548   5.785   7.315 -0.8706 -0.3774  0.9903
  560MOL0     C75493   7.488   5.807   7.172  0.6615  0.5186  0.0872
  560MOL0     C75494   7.482   5.705   7.412 -0.4449 -0.1019  0.3211
  560MOL0     C75495   7.347   5.634   7.407  0.0801 -0.1592 -0.0026
  560MOL0     O75496   7.289   5.635   7.288  0.7879  0.5830  0.6753
  560MOL0     C75497   7.178   5.566   7.252  0.6359  0.1167  0.7045
  560MOL0     C75498   7.072   5.507   7.328 -0.1175 -0.1793 -0.5101
  560MOL0     C75499   6.965   5.438   7.272 -0.4886 -0.4831 -0.4997
  560MOL0     C75500   6.961   5.420   7.133  0.1978  0.2056  0.1193
  560MOL0     O75501   6.863   5.346   7.072  0.3657 -0.0985 -0.2259
  560MOL0     C75502   6.777   5.265   7.158 -1.0832  0.3441  0.8679
  560MOL0     C75503   6.652   5.335   7.207 -0.1183 -0.1897  0.9232
  560MOL0     C75504   6.530   5.243   7.177  0.2873 -0.8923 -0.0644
  560MOL0     C75505   6.393   5.324   7.206 -1.0027  0.0088  1.0111
  560MOL0     C75506   6.275   5.231   7.191 -0.4339 -0.3664 -0.6199
  560MOL0     C75507   6.150   5.300   7.249 -0.7820  0.5149  0.0556
  560MOL0     C75508   6.031   5.201   7.222  0.2353  0.5768 -0.3712
  560MOL0     C75509   5.896   5.260   7.265 -0.2473  0.2365  0.0842
  560MOL0    Cl75510   5.764   5.187   7.160 -0.1063  0.0117  0.0883
  560MOL0     C75511   7.055   5.483   7.056 -0.6443  0.0057  0.6422
  560MOL0     C75512   7.162   5.560   7.115  0.0709 -0.4067  0.8812
  560MOL0     O75513   7.303   5.579   7.502  0.4300  0.5455  0.4227
  560MOL0     C75514   7.550   5.694   7.534 -0.0480  1.2407 -0.2369
  560MOL0     C75515   7.670   5.769   7.563 -0.5486  0.4007  0.5615
  560MOL0     N75516   8.257   5.859   8.026  0.3885  0.1449  1.5356
  560MOL0     N75517   8.364   5.876   8.092  0.1702 -0.1678  0.3015
  560MOL0     C75518   9.216   6.386   8.348  0.7605 -0.2807 -0.0504
  560MOL0     C75519   9.350   6.353   8.381 -0.4231 -0.1954 -0.7839
  560MOL0     C75520   9.799   6.415   8.509 -0.0595  0.3552  0.4100
  560MOL0     C75521   9.801   6.373   8.641 -1.0839 -0.3291 -0.4445
  560MOL0     C75522   9.928   6.373   8.710 -0.4506  1.2272  0.0032
  560MOL0     C75523  10.048   6.393   8.641  0.8451  0.3951 -0.1404
  560MOL0     O75524  10.163   6.369   8.703  0.2289 -0.1656  0.2636
  560MOL0     C75525  10.267   6.304   8.632 -1.2671  0.0676 -0.0071
  560MOL0     C75526  10.376   6.253   8.729 -0.5422  0.1045 -0.2802
  560MOL0     C75527  10.397   6.359   8.841  0.4497 -0.3329  0.2419
  560MOL0     C75528  10.550   6.354   8.893 -0.2859 -0.5480  0.2138
  560MOL0     C75529  10.595   6.223   8.927 -0.6272 -0.7972  0.7695
  560MOL0     C75530  10.640   6.118   8.950 -0.4985 -0.5805 -0.5303
  560MOL0     C75531  10.038   6.424   8.506  0.3813 -0.6722  0.5377
  560MOL0     C75532   9.914   6.449   8.443 -0.5325  0.3096  0.5446
  560MOL0     H75533   9.424   6.673   8.508 -1.2517  0.8440  0.2025
  560MOL0     H75534   9.200   6.714   8.421 -0.1503 -0.3486  1.8741
  560MOL0     H75535   8.980   6.584   8.127 -0.6527 -2.1886 -2.4718
  560MOL0     H75536   9.048   6.427   8.153  0.7441  0.2915 -0.3542
  560MOL0     H75537   8.780   6.528   8.272 -0.2734 -0.7479  0.6172
  560MOL0     H75538   8.792   6.452   8.115 -3.2906 -1.2447  0.8628
  560MOL0     H75539   8.876   6.246   8.205 -0.5380 -0.4068 -0.0079
  560MOL0     H75540   8.912   6.305   8.363  0.8895  4.2217 -0.0848
  560MOL0     H75541   8.688   6.187   8.381 -0.3935 -0.6508 -1.9372
  560MOL0     H75542   8.666   6.355   8.413  2.1419 -1.4556  1.6356
  560MOL0     H75543   8.488   6.273   8.267 -0.4356 -3.6836  0.2583
  560MOL0     H75544   8.585   6.382   8.173  1.9697 -0.7991 -0.5288
  560MOL0     H75545   8.522   6.196   8.041 -1.1860 -0.7201  2.0044
  560MOL0     H75546   8.703   6.215   8.040 -0.6845  4.8934  0.2551
  560MOL0     H75547   8.727   6.034   8.195  0.4894 -2.8954 -0.5057
  560MOL0     H75548   8.553   6.033   8.244  0.3118 -1.3482 -0.1089
  560MOL0     H75549   8.619   5.839   8.104  1.7021  1.1688  0.7676
  560MOL0     H75550   8.647   5.950   7.965 -0.7048 -0.3826 -0.5073
  560MOL0     H75551   8.452   6.014   7.810  2.3238 -0.0462  1.1839
  560MOL0     H75552   8.222   5.874   7.689 -1.3689  0.5641 -0.9965
  560MOL0     H75553   8.098   5.821   7.803 -3.6969  3.5646  1.1712
  560MOL0     H75554   8.187   6.094   7.732  1.5617 -1.2037  2.0668
  560MOL0     H75555   8.036   6.051   7.828 -1.4876 -2.2538 -0.2513
  560MOL0     H75556   8.102   6.013   7.522 -1.6857  1.6619 -1.3099
  560MOL0     H75557   7.990   6.126   7.593 -3.5633 -1.6026  0.1552
  560MOL0     H75558   7.842   5.941   7.682 -0.1694 -2.2803 -0.6104
  560MOL0     H75559   7.961   5.829   7.636  2.5640  0.6483  0.0350
  560MOL0     H75560   7.735   5.893   7.264  3.3193 -0.5046  2.4243
  560MOL0     H75561   7.395   5.863   7.182  0.4634  0.1379  0.3762
  560MOL0     H75562   7.561   5.859   7.110 -0.2354  0.8634 -0.7121
  560MOL0     H75563   7.472   5.708   7.127  0.5216 -0.8025  2.8822
  560MOL0     H75564   7.074   5.518   7.436 -1.0631 -1.7852 -0.2917
  560MOL0     H75565   6.892   5.397   7.340 -1.0476 -1.0245 -1.4052
  560MOL0     H75566   6.765   5.176   7.096  1.6488  0.2975  0.2871
  560MOL0     H75567   6.844   5.227   7.235 -0.6929  1.8714  1.3083
  560MOL0     H75568   6.647   5.363   7.313 -0.5928  2.7335  0.2031
  560MOL0     H75569   6.650   5.422   7.141 -2.8440 -0.6191  0.3063
  560MOL0     H75570   6.529   5.152   7.237 -0.4266  0.3636  1.9102
  560MOL0     H75571   6.535   5.224   7.069 -0.2316 -1.3071 -0.0158
  560MOL0     H75572   6.390   5.365   7.307 -1.0254 -0.0583  1.0378
  560MOL0     H75573   6.388   5.395   7.123 -2.3980 -2.2849 -1.0332
  560MOL0     H75574   6.281   5.136   7.243 -1.4727 -0.5958 -0.9007
  560MOL0     H75575   6.258   5.210   7.085 -0.2470 -3.2608 -0.1469
  560MOL0     H75576   6.170   5.314   7.355 -4.7010  3.8877  0.6217
  560MOL0     H75577   6.132   5.399   7.206  1.3116  0.5071 -0.9916
  560MOL0     H75578   6.032   5.106   7.276  0.8850  1.4600  1.2102
  560MOL0     H75579   6.034   5.183   7.114  0.3954  3.8608 -1.0281
  560MOL0     H75580   5.898   5.367   7.241 -0.7364  0.8239  2.3712
  560MOL0     H75581   5.872   5.237   7.369  1.6932 -1.0635  0.2990
  560MOL0     H75582   7.048   5.495   6.949  2.5155  4.1796  0.6352
  560MOL0     H75583   7.237   5.606   7.052  1.0295 -0.4860  1.9232
  560MOL0     H75584   7.505   5.641   7.617  2.3971  1.4599  1.3541
  560MOL0     H75585   7.710   5.751   7.663 -3.0512 -0.4226  1.4765
  560MOL0     H75586   9.150   6.303   8.327  0.1532 -0.1406  1.2076
  560MOL0     H75587   9.396   6.255   8.370  0.7369 -0.2528  3.0837
  560MOL0     H75588   9.706   6.354   8.689  0.2341 -1.0945  2.0515
  560MOL0     H75589   9.916   6.333   8.810 -0.9378  1.0866 -0.1071
  560MOL0     H75590  10.231   6.217   8.575 -2.7538 -0.7290  2.0434
  560MOL0     H75591  10.311   6.375   8.561 -0.4179  0.8985  1.3193
  560MOL0     H75592  10.468   6.242   8.672 -1.1241  0.9379 -1.4203
  560MOL0     H75593  10.341   6.163   8.780 -0.3723  0.1449 -0.0891
  560MOL0     H75594  10.339   6.337   8.931  1.3860 -2.0569  0.4568
  560MOL0     H75595  10.384   6.467   8.828  0.4003 -0.4713 -0.9599
  560MOL0     H75596  10.548   6.414   8.984  0.7537  2.2326 -1.4815
  560MOL0     H75597  10.625   6.407   8.834 -0.8748  1.6987  1.3924
  560MOL0     H75598  10.676   6.025   8.987 -1.6204 -0.6046  0.5688
  560MOL0     H75599  10.124   6.426   8.440  1.0300  2.2266  1.3164
  560MOL0     H75600   9.910   6.487   8.341 -2.6873  1.8748  1.1464
  561MOL0     O75601   3.675   1.937   6.477 -0.0955 -0.3260 -0.0752
  561MOL0     C75602   3.714   1.966   6.364  0.0115  0.2245  0.5073
  561MOL0     O75603   3.643   2.021   6.256  0.1359 -0.2472  0.7273
  561MOL0     C75604   3.512   2.046   6.284  0.0748  0.1360  0.4067
  561MOL0     C75605   3.470   2.146   6.364  0.4742  0.5973 -0.6865
  561MOL0     C75606   3.330   2.158   6.394  0.5955  0.4378  0.8983
  561MOL0     C75607   3.231   2.094   6.322  0.2465  0.4860  0.6979
  561MOL0     O75608   3.101   2.142   6.342 -0.0388 -0.1842  0.3836
  561MOL0     C75609   2.993   2.099   6.259  0.5380 -0.0324  0.3667
  561MOL0     C75610   2.854   2.151   6.319  0.0222  1.1811 -0.6609
  561MOL0     C75611   2.741   2.065   6.242  0.1273 -0.3537 -0.1281
  561MOL0     C75612   2.601   2.137   6.262 -0.6518 -0.8633  0.2831
  561MOL0     C75613   2.487   2.056   6.208 -0.0667 -0.3110  0.2277
  561MOL0     C75614   2.360   2.141   6.222 -0.2563  0.5015 -0.0471
  561MOL0     C75615   2.232   2.075   6.175  0.2258  0.9795  0.2802
  561MOL0     C75616   2.106   2.178   6.166  0.1181 -0.0413  0.5529
  561MOL0     N75617   2.060   2.233   6.291 -0.1253 -0.3519 -0.1573
  561MOL0     C75618   1.939   2.203   6.345 -0.4674 -0.0433  0.2198
  561MOL0     C75619   1.932   2.283   6.445 -0.1315 -0.4225 -0.1263
  561MOL0     C75620   1.818   2.288   6.544 -0.3250  0.2611 -0.3267
  561MOL0     C75621   1.721   2.404   6.511 -0.4530  0.0448  0.5564
  561MOL0     C75622   1.635   2.376   6.382 -0.5321 -0.3001 -0.4595
  561MOL0     C75623   1.512   2.463   6.387 -0.8468 -0.3625 -0.4423
  561MOL0     O75624   1.421   2.420   6.487  0.3536 -0.9802 -0.5463
  561MOL0     C75625   1.284   2.439   6.466  0.6700 -0.1892 -0.7649
  561MOL0     C75626   1.186   2.355   6.534 -0.1596 -0.3994  0.9292
  561MOL0     C75627   1.043   2.361   6.509  0.1461  0.6925  1.2359
  561MOL0     C75628   0.960   2.251   6.568  1.0051  0.0378  0.2944
  561MOL0     C75629   0.997   2.455   6.419 -0.7109  0.7812 -0.2976
  561MOL0     C75630   0.857   2.464   6.373  0.4188 -0.4338 -0.6847
  561MOL0     O75631   0.792   2.349   6.343  0.3854 -0.0884 -0.2607
  561MOL0     C75632   0.661   2.361   6.301  0.3447  0.0513  0.5273
  561MOL0     C75633   0.636   2.305   6.174  0.4315  0.3798  0.3883
  561MOL0     C75634   0.501   2.285   6.136 -0.2278 -0.9929  0.6637
  561MOL0     C75635   0.396   2.351   6.206  0.7394  0.4701  0.9248
  561MOL0     O75636   0.276   2.344   6.144 -0.5013  0.0300  0.2444
  561MOL0     C75637   0.163   2.403   6.198 -0.5355  0.1920  0.3212
  561MOL0     C75638   0.041   2.379   6.113  0.3511 -0.0914 -0.0494
  561MOL0     C75639  -0.085   2.452   6.172  0.7597  0.9512 -0.4247
  561MOL0     C75640  -0.207   2.427   6.077  0.2765  0.0994  0.2298
  561MOL0     C75641  -0.330   2.502   6.133 -0.4097  0.0048 -0.7586
  561MOL0     C75642  -0.391   2.417   6.250 -0.6617 -0.0250 -0.9094
  561MOL0     C75643  -0.526   2.465   6.304 -0.2901 -0.3720  0.4356
  561MOL0     C75644  -0.640   2.463   6.200 -0.6833 -0.0349 -0.2854
  561MOL0    Cl75645  -0.780   2.544   6.275 -0.0105  0.2651  0.0164
  561MOL0     C75646   0.428   2.416   6.331  0.4345 -0.5013 -0.0103
  561MOL0     C75647   0.562   2.420   6.381 -0.3808 -0.0794  1.1288
  561MOL0     O75648   0.810   2.580   6.364  0.0158  0.0535 -0.1211
  561MOL0     C75649   1.089   2.549   6.364 -1.3913  0.1114 -0.0523
  561MOL0     C75650   1.228   2.542   6.384 -0.2876 -0.2496  0.1099
  561MOL0     N75651   2.046   2.372   6.449  0.4591  0.0131 -0.5608
  561MOL0     N75652   2.118   2.343   6.351  0.4513  0.6334 -0.4116
  561MOL0     C75653   3.275   1.995   6.227 -0.3195 -0.0969  0.5969
  561MOL0     C75654   3.415   1.973   6.220 -0.3345  0.3295  0.3871
  561MOL0     C75655   3.851   1.940   6.329  0.5360  0.3773 -0.9774
  561MOL0     C75656   3.950   1.925   6.430 -0.0271 -0.8649  0.0064
  561MOL0     C75657   4.082   1.901   6.402  0.6734  0.2403 -0.2435
  561MOL0     C75658   4.128   1.892   6.274 -0.1159 -0.2940  1.3704
  561MOL0     O75659   4.260   1.872   6.265 -0.2504 -0.4008 -0.1101
  561MOL0     C75660   4.305   1.817   6.141 -0.4087 -0.5019 -0.1039
  561MOL0     C75661   4.443   1.765   6.169 -0.2471 -0.6599  0.1250
  561MOL0     C75662   4.537   1.874   6.214 -0.8900 -0.5013 -0.3440
  561MOL0     C75663   4.656   1.818   6.292  0.1885 -0.7019 -0.2886
  561MOL0     C75664   4.606   1.753   6.416 -0.0183  0.7375 -0.1271
  561MOL0     C75665   4.569   1.691   6.515 -0.2504 -0.3694  0.1585
  561MOL0     C75666   4.033   1.909   6.168 -0.3602  0.3849  0.7875
  561MOL0     C75667   3.892   1.928   6.202 -0.1084  0.0688 -0.8819
  561MOL0     H75668   3.543   2.216   6.403 -1.5403  1.4817  1.7549
  561MOL0     H75669   3.294   2.218   6.476 -2.0420 -1.1274  0.9886
  561MOL0     H75670   3.013   2.130   6.156 -2.7387 -1.2955 -0.7901
  561MOL0     H75671   2.988   1.989   6.254  1.9807 -0.1593  1.2411
  561MOL0     H75672   2.846   2.117   6.423  0.8888  0.0658 -0.9375
  561MOL0     H75673   2.843   2.259   6.308 -1.1956  0.9577 -2.0333
  561MOL0     H75674   2.770   2.073   6.136 -2.1431 -1.5396 -0.9095
  561MOL0     H75675   2.733   1.963   6.280  0.3134 -0.6630 -0.8829
  561MOL0     H75676   2.581   2.167   6.365 -0.6313  1.5228 -0.3536
  561MOL0     H75677   2.602   2.235   6.215  0.5530 -0.6340  0.7592
  561MOL0     H75678   2.514   2.042   6.103  4.5483  0.8092  1.0393
  561MOL0     H75679   2.469   1.959   6.255 -2.7896  0.4327  0.9603
  561MOL0     H75680   2.346   2.164   6.329 -3.9329  1.6794 -0.6180
  561MOL0     H75681   2.370   2.236   6.169  3.0583  0.2428 -0.0749
  561MOL0     H75682   2.250   2.024   6.080 -0.3124  0.4904  0.4340
  561MOL0     H75683   2.206   1.992   6.242 -0.0327  1.8293  1.2599
  561MOL0     H75684   2.023   2.125   6.119  0.7141  2.1647 -3.4132
  561MOL0     H75685   2.130   2.259   6.097  0.4954 -0.7097 -0.1242
  561MOL0     H75686   1.864   2.130   6.316  0.6175 -1.2995  0.5035
  561MOL0     H75687   1.755   2.199   6.529 -1.7158  0.9608  1.1073
  561MOL0     H75688   1.855   2.297   6.646  1.1402 -0.3544 -0.7791
  561MOL0     H75689   1.771   2.500   6.496 -1.1447  0.1474 -1.4950
  561MOL0     H75690   1.664   2.400   6.605  0.8920 -1.9356  1.3440
  561MOL0     H75691   1.602   2.272   6.372  1.2804 -0.9601 -0.0072
  561MOL0     H75692   1.690   2.404   6.292 -1.9711  1.2619 -0.8951
  561MOL0     H75693   1.459   2.453   6.291  0.9466 -0.7880 -1.4407
  561MOL0     H75694   1.546   2.567   6.381  2.2090 -1.3122 -1.5940
  561MOL0     H75695   1.231   2.283   6.601 -2.5500 -2.2367  0.6686
  561MOL0     H75696   0.873   2.305   6.605  1.6663  3.6155 -2.6992
  561MOL0     H75697   0.933   2.180   6.488  3.2183 -0.6214  0.0373
  561MOL0     H75698   1.007   2.199   6.652 -0.8897 -0.9742  0.7705
  561MOL0     H75699   0.725   2.261   6.129  1.0366  0.5760  1.3432
  561MOL0     H75700   0.478   2.241   6.040  2.1045 -0.1558 -0.3595
  561MOL0     H75701   0.147   2.352   6.294  1.3744 -0.5718  0.2783
  561MOL0     H75702   0.182   2.509   6.218 -3.1357  0.3590  2.4893
  561MOL0     H75703   0.071   2.408   6.012 -1.0143 -2.0120 -1.0623
  561MOL0     H75704   0.014   2.273   6.123 -1.7835  0.3602 -0.3701
  561MOL0     H75705  -0.059   2.559   6.168 -0.4998  1.2476 -0.9530
  561MOL0     H75706  -0.101   2.417   6.275 -0.3914  2.1549 -0.1688
  561MOL0     H75707  -0.175   2.465   5.980 -0.2968  2.0608  0.7674
  561MOL0     H75708  -0.229   2.321   6.058  0.9717  0.2122 -1.3132
  561MOL0     H75709  -0.408   2.492   6.058  0.4021 -2.1583 -1.3916
  561MOL0     H75710  -0.304   2.602   6.171  3.3582 -0.8509 -0.7201
  561MOL0     H75711  -0.411   2.316   6.213 -0.7617  0.4322 -2.1864
  561MOL0     H75712  -0.322   2.413   6.334 -1.6629  0.5353 -0.0345
  561MOL0     H75713  -0.517   2.566   6.343 -2.9307  0.1672 -0.1178
  561MOL0     H75714  -0.544   2.396   6.387  3.0216 -0.9465  0.7966
  561MOL0     H75715  -0.671   2.359   6.189 -2.3927 -0.0823  3.4830
  561MOL0     H75716  -0.606   2.509   6.107 -0.1839 -0.0470 -0.1143
  561MOL0     H75717   0.355   2.467   6.393  0.8069 -0.5710  0.4928
  561MOL0     H75718   0.583   2.468   6.476 -1.2288 -0.7815  1.6726
  561MOL0     H75719   1.050   2.619   6.290  0.5343  0.4105 -0.8555
  561MOL0     H75720   1.294   2.606   6.327  1.4654 -1.6902  0.4198
  561MOL0     H75721   3.205   1.944   6.161  2.3345 -0.4158 -2.1954
  561MOL0     H75722   3.444   1.894   6.152 -3.8435  0.3771 -1.3878
  561MOL0     H75723   3.934   1.932   6.537 -0.3371  2.6282 -0.1597
  561MOL0     H75724   4.150   1.888   6.485  1.1247  0.3555 -0.5923
  561MOL0     H75725   4.245   1.732   6.108 -0.0367 -1.2428  1.0831
  561MOL0     H75726   4.323   1.894   6.064 -2.1493  0.3855  0.3202
  561MOL0     H75727   4.462   1.708   6.078 -1.4357  0.8213 -1.1114
  561MOL0     H75728   4.447   1.688   6.247  0.6084  1.5504  2.3968
  561MOL0     H75729   4.501   1.955   6.279 -0.6101 -0.0594 -0.7283
  561MOL0     H75730   4.572   1.933   6.128 -0.1535  3.1276  2.1878
  561MOL0     H75731   4.725   1.899   6.314  0.5040 -0.2130 -2.7907
  561MOL0     H75732   4.699   1.738   6.231 -0.0149  0.4752 -2.0517
  561MOL0     H75733   4.547   1.647   6.610  1.0488 -1.0767  0.1642
  561MOL0     H75734   4.065   1.905   6.065 -0.8456 -1.5062  0.6693
  561MOL0     H75735   3.825   1.934   6.117 -0.4776  1.1273 -0.5305
  562MOL0     O75736   1.642   9.566   3.873  0.2921  0.1140 -0.3331
  562MOL0     C75737   1.699   9.604   3.773 -0.3360  0.5717  0.7748
  562MOL0     O75738   1.643   9.692   3.683  0.1011  0.7368 -0.0221
  562MOL0     C75739   1.506   9.723   3.698 -0.4070  0.0046  0.2275
  562MOL0     C75740   1.458   9.758   3.819 -0.0482 -0.4592  0.5472
  562MOL0     C75741   1.325   9.799   3.832 -0.5796  0.0646 -0.6263
  562MOL0     C75742   1.243   9.804   3.722  0.6012 -0.0379  0.1602
  562MOL0     O75743   1.112   9.853   3.736  0.6401  0.0446  0.1114
  562MOL0     C75744   1.020   9.808   3.636  0.1754  0.0406 -0.1783
  562MOL0     C75745   0.875   9.798   3.683  0.0307  0.1594 -0.7905
  562MOL0     C75746   0.774   9.726   3.595  1.0484  0.1279  0.6672
  562MOL0     C75747   0.743   9.796   3.459 -0.5339  0.6210  0.3610
  562MOL0     C75748   0.650   9.714   3.367 -0.0669  0.1495  0.4407
  562MOL0     C75749   0.590   9.792   3.247 -0.4163  0.1229  0.0737
  562MOL0     C75750   0.489   9.722   3.151  0.8380 -0.3906  0.4192
  562MOL0     C75751   0.540   9.595   3.079  0.7367 -1.0101  0.0790
  562MOL0     N75752   0.436   9.510   3.015 -0.0493 -0.0377 -0.5769
  562MOL0     C75753   0.345   9.541   2.918  0.2592  0.1842  0.1485
  562MOL0     C75754   0.274   9.429   2.898  0.2508  0.2601  1.2825
  562MOL0     C75755   0.166   9.404   2.792 -0.0568 -0.3224  0.1471
  562MOL0     C75756   0.050   9.493   2.802  0.3376  0.3840 -0.0213
  562MOL0     C75757  -0.052   9.489   2.693 -1.2625  0.0380  0.0075
  562MOL0     C75758  -0.106   9.354   2.666 -0.4354  0.0164 -0.4526
  562MOL0     O75759  -0.142   9.284   2.792 -0.1077  0.1737 -0.2393
  562MOL0     C75760  -0.271   9.283   2.828  0.4240 -0.7240 -0.0756
  562MOL0     C75761  -0.369   9.378   2.786  0.3728 -0.7618  0.6971
  562MOL0     C75762  -0.503   9.355   2.809  0.4788 -0.1074 -0.1867
  562MOL0     C75763  -0.597   9.465   2.759 -0.0272 -0.1460 -0.2919
  562MOL0     C75764  -0.547   9.245   2.893 -0.4771 -0.5142 -0.1734
  562MOL0     C75765  -0.688   9.195   2.914 -0.5965  0.7679  0.2012
  562MOL0     O75766  -0.703   9.110   3.025  0.6107 -0.2437 -0.2767
  562MOL0     C75767  -0.826   9.046   3.028 -0.2845 -0.5067  1.1683
  562MOL0     C75768  -0.864   8.942   2.944 -1.6896  0.0554  0.2660
  562MOL0     C75769  -0.989   8.896   2.952  0.0071  0.1476 -0.0843
  562MOL0     C75770  -1.082   8.936   3.049 -0.0243  0.0665 -0.1205
  562MOL0     O75771  -1.203   8.874   3.039  0.0630  0.4372 -0.0683
  562MOL0     C75772  -1.276   8.846   3.157 -0.0096 -0.8886 -0.0982
  562MOL0     C75773  -1.287   8.690   3.174  0.0318  0.0120 -0.3260
  562MOL0     C75774  -1.371   8.665   3.303  0.1017  0.9234 -0.3974
  562MOL0     C75775  -1.442   8.527   3.302 -1.0064  0.2320  0.6829
  562MOL0     C75776  -1.502   8.506   3.437 -0.3994  0.5096 -0.3658
  562MOL0     C75777  -1.538   8.358   3.462 -0.2280  0.1381 -0.5406
  562MOL0     C75778  -1.606   8.342   3.598 -0.2239 -0.8333 -0.2351
  562MOL0     C75779  -1.626   8.190   3.616  0.6504  0.3292 -0.2298
  562MOL0    Cl75780  -1.466   8.113   3.663 -0.0204  0.2910 -0.0449
  562MOL0     C75781  -1.047   9.034   3.136 -0.2692 -0.5713 -0.6685
  562MOL0     C75782  -0.914   9.089   3.125 -0.1032  1.4131 -0.6402
  562MOL0     O75783  -0.776   9.245   2.849  0.0349  0.4383  0.5287
  562MOL0     C75784  -0.442   9.163   2.938  0.3395  0.1640 -0.4128
  562MOL0     C75785  -0.311   9.182   2.900  0.4350  1.1953 -0.2663
  562MOL0     N75786   0.331   9.326   2.969  0.0940 -0.0048 -0.2876
  562MOL0     N75787   0.428   9.375   3.040 -0.2206 -0.4809 -0.9504
  562MOL0     C75788   1.295   9.783   3.594  0.0911 -0.3503 -0.7276
  562MOL0     C75789   1.424   9.745   3.582  0.3584  0.2745 -0.5817
  562MOL0     C75790   1.841   9.565   3.762  0.4307  0.4613  0.8368
  562MOL0     C75791   1.905   9.488   3.872 -0.6927 -0.9039  0.5082
  562MOL0     C75792   2.037   9.459   3.860 -0.3262 -0.4617 -0.1800
  562MOL0     C75793   2.104   9.488   3.740  1.0760  0.2021 -0.4220
  562MOL0     O75794   2.236   9.461   3.721  0.1263  0.4828 -0.5085
  562MOL0     C75795   2.282   9.336   3.770 -0.8924  0.4352 -0.2759
  562MOL0     C75796   2.434   9.358   3.753  0.2586  0.8681 -0.9044
  562MOL0     C75797   2.489   9.466   3.849 -0.2300  0.2896 -0.0149
  562MOL0     C75798   2.638   9.501   3.834 -0.8210  0.4300  0.4552
  562MOL0     C75799   2.723   9.383   3.838  0.6035 -0.1519  0.5594
  562MOL0     C75800   2.800   9.297   3.852  1.0325  0.2330 -0.2331
  562MOL0     C75801   2.046   9.581   3.647 -0.6517 -0.0762  0.1513
  562MOL0     C75802   1.909   9.609   3.658 -0.2104  0.1658  0.2675
  562MOL0     H75803   1.519   9.758   3.908 -0.3660  0.1840  0.7719
  562MOL0     H75804   1.283   9.829   3.928  1.3057  1.4536 -0.1661
  562MOL0     H75805   1.032   9.866   3.545  0.5994  2.6183  1.4077
  562MOL0     H75806   1.050   9.704   3.618  0.5590  0.3043 -1.0796
  562MOL0     H75807   0.888   9.745   3.779  3.5607  1.0540 -0.6489
  562MOL0     H75808   0.836   9.898   3.704 -0.7060 -0.3798  0.5563
  562MOL0     H75809   0.822   9.631   3.569  3.0482  1.3852 -0.4515
  562MOL0     H75810   0.680   9.711   3.650 -0.8041  0.1963 -2.2774
  562MOL0     H75811   0.703   9.893   3.488  0.4760  0.9106  0.8292
  562MOL0     H75812   0.838   9.799   3.406 -1.2904 -0.8533 -1.2080
  562MOL0     H75813   0.710   9.631   3.330  1.4755  1.4515 -0.0819
  562MOL0     H75814   0.561   9.682   3.422 -1.7871  1.5739 -1.3683
  562MOL0     H75815   0.545   9.879   3.295 -0.2544 -0.2459  0.9190
  562MOL0     H75816   0.674   9.821   3.184  0.0676 -1.3990 -0.0238
  562MOL0     H75817   0.405   9.693   3.214 -0.1984 -0.4948 -0.9666
  562MOL0     H75818   0.451   9.794   3.078 -1.8451  0.2302  2.2742
  562MOL0     H75819   0.594   9.529   3.147  0.4847 -1.8105 -0.4750
  562MOL0     H75820   0.620   9.618   3.007  2.2383 -3.4328  0.8469
  562MOL0     H75821   0.340   9.626   2.851 -0.7541  0.2179  0.2561
  562MOL0     H75822   0.222   9.421   2.701  1.3663 -2.9623  0.4446
  562MOL0     H75823   0.134   9.299   2.787 -4.2829  0.7577  0.5590
  562MOL0     H75824   0.072   9.600   2.804 -1.7772  0.9006 -1.3569
  562MOL0     H75825  -0.002   9.478   2.897  0.8932  1.8341  0.5459
  562MOL0     H75826  -0.000   9.520   2.602  1.4391 -0.4026  1.2848
  562MOL0     H75827  -0.132   9.559   2.715 -0.9634  0.0767  1.0235
  562MOL0     H75828  -0.034   9.287   2.618 -1.4223 -1.5961  0.2345
  562MOL0     H75829  -0.185   9.345   2.592  1.6417  2.0350 -3.1243
  562MOL0     H75830  -0.347   9.465   2.725 -2.4902 -0.0262  0.5372
  562MOL0     H75831  -0.681   9.465   2.829  1.7723 -2.8365  2.1030
  562MOL0     H75832  -0.555   9.566   2.755  2.3469 -1.0838 -2.0843
  562MOL0     H75833  -0.622   9.441   2.655  1.4625  0.6034 -0.8527
  562MOL0     H75834  -0.789   8.916   2.870  1.2422 -1.7961  3.5500
  562MOL0     H75835  -1.024   8.819   2.883  0.3274  0.9365 -1.1617
  562MOL0     H75836  -1.235   8.899   3.244  0.8493  1.9073 -2.0854
  562MOL0     H75837  -1.373   8.892   3.140  0.4085 -0.9108 -2.9488
  562MOL0     H75838  -1.333   8.654   3.082 -0.0217 -2.8825  0.7184
  562MOL0     H75839  -1.193   8.638   3.195 -0.4914 -0.4597  0.9517
  562MOL0     H75840  -1.452   8.735   3.324  0.2446  0.2991  2.9415
  562MOL0     H75841  -1.301   8.666   3.387 -0.9404 -1.0335  0.5800
  562MOL0     H75842  -1.520   8.515   3.226  2.2213  0.8162 -2.9865
  562MOL0     H75843  -1.368   8.449   3.283  1.4468  2.5050  0.4359
  562MOL0     H75844  -1.590   8.570   3.448  1.3628  3.5586 -2.5761
  562MOL0     H75845  -1.430   8.536   3.514 -1.2793 -0.2810  0.8161
  562MOL0     H75846  -1.612   8.328   3.386 -2.1001  1.0751  0.8292
  562MOL0     H75847  -1.453   8.289   3.454  0.9238  1.2423  1.4738
  562MOL0     H75848  -1.702   8.392   3.604 -0.6063 -1.7201  2.1633
  562MOL0     H75849  -1.541   8.386   3.675  2.1072 -1.9586 -1.4426
  562MOL0     H75850  -1.666   8.148   3.523  0.1421  1.5239 -0.5804
  562MOL0     H75851  -1.700   8.169   3.693  1.1449 -1.3286 -0.1677
  562MOL0     H75852  -1.111   9.086   3.206 -0.7203 -0.7209 -0.9702
  562MOL0     H75853  -0.879   9.160   3.198 -1.9027  0.9107  0.7819
  562MOL0     H75854  -0.453   9.081   3.009  2.0014  0.9452  0.7960
  562MOL0     H75855  -0.241   9.105   2.930 -1.8552 -0.4439  1.1931
  562MOL0     H75856   1.238   9.785   3.502 -0.7318 -0.3691 -0.2380
  562MOL0     H75857   1.461   9.720   3.483  0.4782  0.5828 -0.6149
  562MOL0     H75858   1.841   9.466   3.957  1.1809 -0.4188  2.1075
  562MOL0     H75859   2.079   9.409   3.947 -3.7360 -2.2496  0.5971
  562MOL0     H75860   2.265   9.320   3.876  0.8613 -0.7307 -0.1223
  562MOL0     H75861   2.242   9.252   3.713 -0.9782  1.4152 -1.7306
  562MOL0     H75862   2.463   9.380   3.650 -0.1075  1.2382 -0.9293
  562MOL0     H75863   2.476   9.259   3.775 -0.2961  0.7534 -0.3450
  562MOL0     H75864   2.469   9.442   3.954  1.4971 -1.3421  0.0023
  562MOL0     H75865   2.444   9.565   3.837  0.0462  0.2972 -1.1443
  562MOL0     H75866   2.667   9.580   3.904 -4.1897  1.8150  0.4767
  562MOL0     H75867   2.658   9.535   3.732 -0.3295 -0.9564  0.0649
  562MOL0     H75868   2.870   9.222   3.883 -0.5167 -1.3231 -0.3703
  562MOL0     H75869   2.115   9.620   3.573 -0.5487 -0.5704 -0.0207
  562MOL0     H75870   1.873   9.677   3.581  2.2789 -0.0871 -1.2503
  563MOL0     O75871  11.233  10.230   2.978  0.1793  1.0602 -0.8119
  563MOL0     C75872  11.347  10.219   2.974 -1.1042  0.2776  0.8446
  563MOL0     O75873  11.415  10.107   2.991  0.2169 -0.1616 -0.2447
  563MOL0     C75874  11.374  10.003   3.066  0.3724  0.2814  0.5017
  563MOL0     C75875  11.438   9.883   3.043  0.4408 -0.8489  0.6761
  563MOL0     C75876  11.381   9.772   3.098 -0.9447  0.1231  0.4727
  563MOL0     C75877  11.284   9.769   3.196  0.6663  0.1211  0.5058
  563MOL0     O75878  11.241   9.656   3.261  0.9844  0.1944  0.1708
  563MOL0     C75879  11.205   9.543   3.171 -0.2809  0.1840  0.1196
  563MOL0     C75880  11.060   9.563   3.109 -0.0025  0.1195  0.6081
  563MOL0     C75881  10.956   9.563   3.214 -0.1840 -0.6159 -0.1897
  563MOL0     C75882  10.815   9.593   3.150  0.2419  0.2324  0.2650
  563MOL0     C75883  10.697   9.607   3.260 -0.0502  0.5813  0.1159
  563MOL0     C75884  10.646   9.467   3.301  0.0420  0.1181  1.0628
  563MOL0     C75885  10.524   9.483   3.394  0.6850 -0.0253  0.2157
  563MOL0     C75886  10.478   9.352   3.452 -0.2638  0.5676  0.0500
  563MOL0     N75887  10.347   9.341   3.511  0.4782  0.4187  0.8280
  563MOL0     C75888  10.328   9.363   3.644  0.3635 -0.3221  0.2819
  563MOL0     C75889  10.194   9.349   3.656  0.3555 -0.0224 -0.8989
  563MOL0     C75890  10.116   9.351   3.784  0.2495  0.2256 -0.3299
  563MOL0     C75891  10.092   9.205   3.847 -0.0360 -0.5492 -0.3862
  563MOL0     C75892   9.988   9.213   3.959  0.2204  0.7183  0.1654
  563MOL0     C75893   9.960   9.073   4.022  0.1562 -0.3171  0.7252
  563MOL0     O75894   9.862   9.070   4.136  0.0399 -0.1574 -0.4152
  563MOL0     C75895   9.730   9.085   4.110  0.2374  0.1433  0.9244
  563MOL0     C75896   9.648   9.060   4.216  0.8215  0.5139  1.1227
  563MOL0     C75897   9.506   9.062   4.213 -0.1133 -0.4242  0.2963
  563MOL0     C75898   9.426   9.040   4.344  1.4715  0.1193 -1.0111
  563MOL0     C75899   9.438   9.093   4.082 -0.8177 -0.5271  0.2281
  563MOL0     C75900   9.290   9.086   4.069 -0.2444  0.2582  0.3586
  563MOL0     O75901   9.207   9.061   4.172  0.5914 -0.1715 -0.9416
  563MOL0     C75902   9.075   9.098   4.181 -0.1071  0.0454 -0.5234
  563MOL0     C75903   8.983   9.057   4.085  0.5293 -0.0733  0.5725
  563MOL0     C75904   8.848   9.092   4.077 -0.2740  0.2975  0.8062
  563MOL0     C75905   8.808   9.180   4.184 -0.5979 -0.4178 -0.3822
  563MOL0     O75906   8.681   9.230   4.199 -0.3698  0.6493 -0.3847
  563MOL0     C75907   8.603   9.225   4.083 -0.0666  0.5543  0.4416
  563MOL0     C75908   8.468   9.283   4.131 -0.5005 -0.0314  0.4577
  563MOL0     C75909   8.381   9.313   4.014 -0.1116 -0.1836  0.4087
  563MOL0     C75910   8.258   9.393   4.066  0.2783 -0.0359  0.1348
  563MOL0     C75911   8.162   9.435   3.953  0.1665  0.2819  0.2834
  563MOL0     C75912   8.222   9.545   3.868  0.7241  0.0463  0.4660
  563MOL0     C75913   8.118   9.612   3.779  0.4656 -0.1801  1.0970
  563MOL0     C75914   8.166   9.732   3.688  0.3408  0.0926 -0.3910
  563MOL0    Cl75915   8.250   9.670   3.536  0.1585  0.1153 -0.4026
  563MOL0     C75916   8.896   9.214   4.289  0.1861  0.1856 -0.4200
  563MOL0     C75917   9.029   9.175   4.285  0.5955  0.3687  0.0135
  563MOL0     O75918   9.251   9.129   3.957  0.5354  0.5744 -0.3145
  563MOL0     C75919   9.526   9.129   3.972 -0.5621  0.0789 -0.2106
  563MOL0     C75920   9.666   9.122   3.986  0.4275 -0.1874 -0.1329
  563MOL0     N75921  10.144   9.319   3.529  0.4256 -0.4619 -0.0972
  563MOL0     N75922  10.236   9.314   3.440  0.3299  0.0900  0.1549
  563MOL0     C75923  11.229   9.891   3.223 -0.6140  0.5379 -0.8478
  563MOL0     C75924  11.274  10.007   3.166  0.3657 -0.3990  0.0941
  563MOL0     C75925  11.432  10.323   2.911 -0.0805  0.0491 -0.9573
  563MOL0     C75926  11.572  10.325   2.931  0.2865  0.1054 -0.6445
  563MOL0     C75927  11.646  10.432   2.882  0.1540  0.0071 -0.2336
  563MOL0     C75928  11.588  10.535   2.812  0.9434  0.4998  0.8355
  563MOL0     O75929  11.649  10.645   2.757  0.0295  0.0317  0.4930
  563MOL0     C75930  11.792  10.658   2.762 -0.4533 -0.5334 -0.8258
  563MOL0     C75931  11.841  10.762   2.655  0.2675  0.4821  0.0662
  563MOL0     C75932  11.851  10.915   2.707 -0.0646  0.3155  0.2907
  563MOL0     C75933  11.903  11.001   2.592 -0.9075  0.0021 -0.2346
  563MOL0     C75934  11.795  11.042   2.506  0.3804  0.1556  0.2139
  563MOL0     C75935  11.705  11.083   2.436  0.4409  0.6448 -0.5316
  563MOL0     C75936  11.449  10.530   2.791  0.4767  0.2332 -0.3234
  563MOL0     C75937  11.372  10.429   2.836 -0.2791  0.1219 -0.0522
  563MOL0     H75938  11.516   9.868   2.969  1.0651  0.8720  0.9554
  563MOL0     H75939  11.430   9.676   3.092 -2.0508 -0.5558  1.8370
  563MOL0     H75940  11.271   9.516   3.087  0.2566  1.4156  0.1313
  563MOL0     H75941  11.197   9.451   3.229  0.7916  1.3254  2.1702
  563MOL0     H75942  11.059   9.655   3.050  2.0814 -0.0706  0.1638
  563MOL0     H75943  11.033   9.481   3.042  3.8473  0.4461 -1.6928
  563MOL0     H75944  10.951   9.469   3.270 -3.8210 -0.6947 -0.4133
  563MOL0     H75945  10.983   9.642   3.284  1.5611 -2.3995  1.2747
  563MOL0     H75946  10.813   9.691   3.101 -0.3548  1.0973  1.9525
  563MOL0     H75947  10.789   9.511   3.082  0.8016 -1.4818  2.0114
  563MOL0     H75948  10.744   9.654   3.347  2.3442 -4.7207  2.0871
  563MOL0     H75949  10.614   9.664   3.219 -0.2922 -0.2736 -0.6078
  563MOL0     H75950  10.621   9.411   3.211  0.3757 -0.3885  1.2815
  563MOL0     H75951  10.714   9.405   3.359 -0.1310 -0.1505  0.9780
  563MOL0     H75952  10.560   9.548   3.473  1.0329 -0.8784  0.7782
  563MOL0     H75953  10.448   9.540   3.340  1.8107  3.3056  1.9118
  563MOL0     H75954  10.560   9.330   3.521 -0.3824  1.3004  0.4327
  563MOL0     H75955  10.483   9.272   3.377  1.2549 -2.9203  3.5056
  563MOL0     H75956  10.399   9.375   3.725  1.6610 -1.8334 -0.5811
  563MOL0     H75957  10.163   9.406   3.867  1.6316 -2.4628  0.7925
  563MOL0     H75958  10.015   9.389   3.767 -1.3723 -3.0831  0.9271
  563MOL0     H75959  10.186   9.182   3.900 -1.3884 -2.9914  1.1547
  563MOL0     H75960  10.073   9.134   3.766  0.1716 -0.5560 -0.4298
  563MOL0     H75961   9.899   9.251   3.909 -0.2249 -1.6651 -0.9890
  563MOL0     H75962  10.021   9.286   4.034 -1.6731  2.6110 -0.7195
  563MOL0     H75963  10.057   9.031   4.048 -0.0507 -0.5998  1.0508
  563MOL0     H75964   9.919   9.001   3.950 -1.7080  0.1441  1.2752
  563MOL0     H75965   9.697   9.033   4.310  2.1252 -3.2088 -0.4208
  563MOL0     H75966   9.355   8.959   4.322 -0.7956  1.7840 -0.1700
  563MOL0     H75967   9.479   9.010   4.435 -0.5165 -0.7345 -0.0974
  563MOL0     H75968   9.373   9.132   4.371  1.2782 -0.4776  0.7738
  563MOL0     H75969   9.017   8.991   4.006 -2.3810  0.0021 -0.8522
  563MOL0     H75970   8.780   9.066   3.996 -2.6521  0.3872  2.6513
  563MOL0     H75971   8.657   9.270   3.999  1.8323 -2.4385 -0.0906
  563MOL0     H75972   8.581   9.123   4.053 -3.0098  0.8604  1.2288
  563MOL0     H75973   8.415   9.218   4.202  0.3851  1.2578  2.3757
  563MOL0     H75974   8.497   9.372   4.187  1.9447 -0.8086  0.5431
  563MOL0     H75975   8.343   9.219   3.973  0.0266 -0.0861  0.0476
  563MOL0     H75976   8.431   9.367   3.934  0.2509 -0.1814  0.6375
  563MOL0     H75977   8.208   9.335   4.144  0.7172  1.1960  1.3813
  563MOL0     H75978   8.284   9.485   4.120 -1.7166  0.7017 -0.0799
  563MOL0     H75979   8.076   9.475   4.009  1.9343  3.6793  0.8579
  563MOL0     H75980   8.118   9.355   3.893  0.5202 -0.0667  0.4808
  563MOL0     H75981   8.256   9.620   3.940  0.4634  0.6739 -0.0543
  563MOL0     H75982   8.305   9.501   3.813  1.3577  1.7461 -0.0001
  563MOL0     H75983   8.028   9.642   3.834  0.7234 -0.5481  1.7321
  563MOL0     H75984   8.091   9.536   3.705  1.4445  1.2320 -0.8077
  563MOL0     H75985   8.225   9.802   3.748  0.4575 -1.0750  0.9196
  563MOL0     H75986   8.080   9.791   3.654  0.3913  0.2682 -0.2154
  563MOL0     H75987   8.864   9.268   4.377  1.4242  1.1336 -0.5232
  563MOL0     H75988   9.083   9.224   4.365 -0.3147  1.6678 -0.1284
  563MOL0     H75989   9.470   9.163   3.885 -4.3870 -3.1579  0.7146
  563MOL0     H75990   9.722   9.134   3.894 -0.8944  0.3768 -0.8937
  563MOL0     H75991  11.153   9.888   3.300  0.5410  1.7219  0.3841
  563MOL0     H75992  11.223  10.097   3.199  1.6868  0.2208  0.4747
  563MOL0     H75993  11.612  10.246   2.994 -4.6663 -0.6936  1.9506
  563MOL0     H75994  11.751  10.434   2.909  0.1240 -1.3915  0.0756
  563MOL0     H75995  11.820  10.685   2.864  1.0979  0.0913 -1.3832
  563MOL0     H75996  11.842  10.563   2.737 -1.9755 -0.9416 -2.5385
  563MOL0     H75997  11.770  10.751   2.573 -0.9106 -0.2987  1.1406
  563MOL0     H75998  11.940  10.737   2.618  0.6234  3.1237 -1.0368
  563MOL0     H75999  11.927  10.933   2.783  1.2416 -0.5441 -0.7595
  563MOL0     H76000  11.754  10.951   2.742 -0.7189  1.2151 -2.2026
  563MOL0     H76001  11.976  10.944   2.534 -0.9686  0.5194 -0.8382
  563MOL0     H76002  11.955  11.088   2.635  1.3544 -2.0972  1.5479
  563MOL0     H76003  11.624  11.136   2.391 -2.8106  0.3579  4.2278
  563MOL0     H76004  11.397  10.616   2.750  0.6267  2.1222  3.0819
  563MOL0     H76005  11.264  10.423   2.823 -0.2389 -0.3498 -0.1930
  564MOL0     O76006   3.279   6.492   2.905  0.4111 -0.2633  0.1361
  564MOL0     C76007   3.328   6.391   2.954  0.4883  0.5118 -0.8498
  564MOL0     O76008   3.262   6.294   3.035 -0.0080 -0.1107 -0.2356
  564MOL0     C76009   3.128   6.297   3.058 -0.3027 -0.0328  0.5791
  564MOL0     C76010   3.035   6.328   2.965  0.8614 -0.6041  0.6031
  564MOL0     C76011   2.898   6.333   3.004  0.0142  0.6548 -0.6342
  564MOL0     C76012   2.854   6.291   3.132  0.2445 -0.1860 -0.3632
  564MOL0     O76013   2.725   6.293   3.181 -0.4619 -0.7036 -0.2395
  564MOL0     C76014   2.640   6.204   3.113 -0.1861 -0.0225  0.2769
  564MOL0     C76015   2.628   6.091   3.219 -0.2068  0.3004 -0.8011
  564MOL0     C76016   2.531   5.990   3.173  0.5671  0.2256  0.0691
  564MOL0     C76017   2.436   5.953   3.282  0.3210  0.0449 -0.2680
  564MOL0     C76018   2.329   5.845   3.259 -0.3285  0.5024 -0.3278
  564MOL0     C76019   2.248   5.881   3.138  0.0391 -0.1401 -0.2983
  564MOL0     C76020   2.116   5.812   3.125 -0.5663 -0.0279 -0.5037
  564MOL0     C76021   2.006   5.871   3.204 -0.3449  0.4102 -0.5527
  564MOL0     N76022   1.873   5.823   3.168 -0.1682  0.6310 -0.2584
  564MOL0     C76023   1.822   5.798   3.045 -0.1360  1.0415  0.9714
  564MOL0     C76024   1.717   5.717   3.062  0.1370 -0.1079  0.9382
  564MOL0     C76025   1.627   5.665   2.959 -0.5307 -0.3951  0.3237
  564MOL0     C76026   1.519   5.561   3.007 -0.5351 -0.0609  0.2332
  564MOL0     C76027   1.435   5.519   2.884 -0.2358  0.4889 -0.7304
  564MOL0     C76028   1.302   5.469   2.938 -0.0155  0.6220  0.4774
  564MOL0     O76029   1.205   5.447   2.836  0.4519  0.7929 -0.5599
  564MOL0     C76030   1.072   5.426   2.868 -0.5806 -0.5318 -0.0564
  564MOL0     C76031   0.988   5.452   2.770 -0.0047 -0.0048  0.2825
  564MOL0     C76032   0.848   5.443   2.768 -0.7637  0.8219  0.7001
  564MOL0     C76033   0.779   5.456   2.632  0.2893  0.1060 -0.1415
  564MOL0     C76034   0.785   5.414   2.893 -0.0850  0.7255 -0.0068
  564MOL0     C76035   0.642   5.391   2.925  0.5843 -0.1789  0.5537
  564MOL0     O76036   0.602   5.432   3.052 -0.2792 -0.8952  0.3068
  564MOL0     C76037   0.473   5.420   3.085 -0.2521 -0.3815 -0.0050
  564MOL0     C76038   0.413   5.311   3.142  0.3045  0.2640 -0.0307
  564MOL0     C76039   0.270   5.306   3.136 -0.0786  1.0230  0.9341
  564MOL0     C76040   0.194   5.416   3.091  0.5474 -0.1395  0.4124
  564MOL0     O76041   0.055   5.398   3.097 -0.9185  0.4009  0.1855
  564MOL0     C76042  -0.016   5.469   2.999 -0.3803  0.0099 -0.2164
  564MOL0     C76043  -0.156   5.413   2.978  0.0616 -0.5490  0.3489
  564MOL0     C76044  -0.245   5.515   2.910 -1.4874 -0.3281  0.4433
  564MOL0     C76045  -0.389   5.477   2.896 -0.0018 -0.1090  0.2844
  564MOL0     C76046  -0.482   5.588   2.836 -0.6674  0.7228  0.0760
  564MOL0     C76047  -0.492   5.713   2.918  0.1637  0.5263 -0.7144
  564MOL0     C76048  -0.597   5.804   2.852 -0.0548  0.1677 -1.1836
  564MOL0     C76049  -0.638   5.926   2.934 -1.2773  1.1226  0.0863
  564MOL0    Cl76050  -0.787   5.998   2.856  0.3071 -0.1093 -0.5071
  564MOL0     C76051   0.260   5.540   3.065  0.4720  0.4460  0.7084
  564MOL0     C76052   0.396   5.538   3.053 -0.1481  0.5397 -0.1490
  564MOL0     O76053   0.567   5.332   2.844  0.7834  0.7079  0.0762
  564MOL0     C76054   0.875   5.383   3.000  1.0811  0.9116 -0.4834
  564MOL0     C76055   1.014   5.385   2.988  0.0460 -0.6167  0.2213
  564MOL0     N76056   1.695   5.702   3.196 -0.8271 -0.0103  0.4200
  564MOL0     N76057   1.786   5.767   3.256  0.4597  0.4156  0.4604
  564MOL0     C76058   2.956   6.262   3.221  0.1414  0.5689  0.5033
  564MOL0     C76059   3.091   6.267   3.192  0.2012  0.1048  1.0306
  564MOL0     C76060   3.476   6.371   2.935 -0.7067 -0.5877  0.0818
  564MOL0     C76061   3.527   6.246   2.944 -0.0692  0.7403 -0.1928
  564MOL0     C76062   3.666   6.220   2.934  0.1188 -0.1890  0.1723
  564MOL0     C76063   3.759   6.328   2.918  0.1146 -1.8008 -0.7343
  564MOL0     O76064   3.884   6.292   2.941  0.3973  0.1869  0.2871
  564MOL0     C76065   3.977   6.400   2.942 -0.0957  1.1147 -0.8091
  564MOL0     C76066   4.115   6.341   2.945  0.9075  0.7916 -0.2119
  564MOL0     C76067   4.137   6.247   2.823 -0.3501  0.1301  0.0127
  564MOL0     C76068   4.283   6.197   2.813  0.3211  0.0800  0.3241
  564MOL0     C76069   4.300   6.132   2.684 -0.0533 -0.1691 -0.1445
  564MOL0     C76070   4.326   6.062   2.580 -0.2105 -1.2058  0.1185
  564MOL0     C76071   3.709   6.460   2.914 -0.0071 -0.3742 -0.4541
  564MOL0     C76072   3.571   6.482   2.929  0.3720 -0.1061  0.2456
  564MOL0     H76073   3.057   6.356   2.863 -0.0685 -3.6642 -0.5472
  564MOL0     H76074   2.822   6.360   2.931  0.7560  1.8404 -1.0036
  564MOL0     H76075   2.549   6.261   3.090 -0.4186 -0.2660  0.5843
  564MOL0     H76076   2.676   6.166   3.016  0.0143 -1.4440  0.8791
  564MOL0     H76077   2.729   6.052   3.236 -0.4484 -0.2624 -0.6382
  564MOL0     H76078   2.579   6.123   3.311 -2.0974 -0.3255 -1.5230
  564MOL0     H76079   2.492   6.019   3.075 -1.2533 -1.0971  0.3606
  564MOL0     H76080   2.586   5.899   3.146 -1.9038 -1.4632  0.3708
  564MOL0     H76081   2.490   5.931   3.375  0.6007  3.4876  0.5053
  564MOL0     H76082   2.379   6.044   3.304  0.1755 -0.1328  0.1052
  564MOL0     H76083   2.384   5.750   3.251 -0.8880  0.1696 -0.3234
  564MOL0     H76084   2.274   5.854   3.354 -0.0511  0.6597 -0.1824
  564MOL0     H76085   2.225   5.988   3.139  1.2643  0.1433  0.4820
  564MOL0     H76086   2.309   5.857   3.051 -1.6521 -2.1391 -1.0189
  564MOL0     H76087   2.087   5.811   3.020  1.0609  2.5397 -1.0788
  564MOL0     H76088   2.134   5.706   3.146  2.1377  0.2705 -0.9512
  564MOL0     H76089   2.001   5.979   3.193 -0.5009  0.7927  2.4145
  564MOL0     H76090   2.025   5.843   3.309 -0.4782 -0.3989 -0.7354
  564MOL0     H76091   1.858   5.826   2.946  0.1908 -2.5751 -0.0798
  564MOL0     H76092   1.573   5.749   2.915  1.4032 -0.4794 -2.5241
  564MOL0     H76093   1.679   5.625   2.871  0.4714  0.3554  0.5575
  564MOL0     H76094   1.456   5.598   3.088  0.3918 -2.2606  2.0803
  564MOL0     H76095   1.579   5.477   3.043  0.8553  0.3373 -1.0591
  564MOL0     H76096   1.485   5.453   2.813  1.1314 -0.4484  1.0252
  564MOL0     H76097   1.414   5.608   2.824 -2.3113 -1.5257 -3.2636
  564MOL0     H76098   1.258   5.536   3.013  0.8346  0.5720  1.0360
  564MOL0     H76099   1.332   5.379   2.993  4.9932  1.7553  0.0433
  564MOL0     H76100   1.036   5.482   2.678  2.6193  0.7344  1.7597
  564MOL0     H76101   0.826   5.545   2.588  2.9798 -0.1819  1.8772
  564MOL0     H76102   0.797   5.369   2.567 -0.8001 -1.8456  2.0174
  564MOL0     H76103   0.670   5.469   2.635  0.3275  0.5354 -0.5690
  564MOL0     H76104   0.488   5.234   3.158  2.9587  2.9510  1.4960
  564MOL0     H76105   0.230   5.217   3.181  1.7113 -0.1340  0.3585
  564MOL0     H76106  -0.026   5.574   3.029 -1.6720 -0.0079 -0.5065
  564MOL0     H76107   0.038   5.462   2.904  1.7594  3.2570  0.5873
  564MOL0     H76108  -0.162   5.324   2.914 -2.4081  2.6585 -4.5091
  564MOL0     H76109  -0.184   5.391   3.081  3.8026  2.6067  2.3192
  564MOL0     H76110  -0.197   5.537   2.814  0.5782 -0.4662  1.3708
  564MOL0     H76111  -0.234   5.609   2.965 -0.0621 -1.4203  2.1593
  564MOL0     H76112  -0.400   5.387   2.835  0.4236  0.1009 -0.1082
  564MOL0     H76113  -0.423   5.444   2.995  3.1706 -2.7420  0.6494
  564MOL0     H76114  -0.581   5.543   2.824 -0.5732  0.2710  0.9504
  564MOL0     H76115  -0.447   5.620   2.737 -2.0876  2.9087  0.2100
  564MOL0     H76116  -0.517   5.686   3.021  1.7391  0.6383 -0.2786
  564MOL0     H76117  -0.391   5.755   2.923  0.7868 -0.9517 -0.2982
  564MOL0     H76118  -0.688   5.745   2.832 -1.8137  3.2812 -3.1282
  564MOL0     H76119  -0.552   5.842   2.760  1.8361  0.1018 -0.3161
  564MOL0     H76120  -0.554   5.996   2.930  0.3539 -0.8047 -1.1100
  564MOL0     H76121  -0.669   5.905   3.037  0.1042 -1.9049 -0.0141
  564MOL0     H76122   0.206   5.632   3.044 -0.3265 -0.2728 -0.5115
  564MOL0     H76123   0.456   5.623   3.022  2.2184 -1.3626 -1.1727
  564MOL0     H76124   0.838   5.355   3.098  1.4608 -0.9198 -0.8261
  564MOL0     H76125   1.079   5.360   3.072 -0.5684 -2.2833  0.2371
  564MOL0     H76126   2.933   6.228   3.321 -0.8356 -0.2249  0.0258
  564MOL0     H76127   3.165   6.250   3.270  1.1626  1.3331  0.4469
  564MOL0     H76128   3.447   6.172   2.947 -0.9661  1.7003  0.1405
  564MOL0     H76129   3.714   6.123   2.941  2.3872  0.9811  3.4193
  564MOL0     H76130   3.975   6.458   2.849  1.2042  1.6812 -0.5040
  564MOL0     H76131   3.966   6.455   3.036  4.3603 -3.3171  2.9252
  564MOL0     H76132   4.117   6.275   3.033  1.3645 -0.6878 -1.2795
  564MOL0     H76133   4.196   6.413   2.958  3.3610 -1.9159  0.8904
  564MOL0     H76134   4.103   6.301   2.734  0.6818  2.2814  0.8593
  564MOL0     H76135   4.064   6.166   2.825  0.1199 -0.3082  2.0810
  564MOL0     H76136   4.286   6.123   2.894 -2.8417 -2.1615 -1.3750
  564MOL0     H76137   4.354   6.280   2.812  1.1118 -0.5049  2.4270
  564MOL0     H76138   4.365   6.002   2.500  3.0672  2.8017 -1.6642
  564MOL0     H76139   3.776   6.545   2.908 -0.7340  0.1583 -1.3962
  564MOL0     H76140   3.539   6.584   2.947  1.0999 -0.1944  2.2186
  565MOL0     O76141   1.411   3.185   7.908 -0.0899  0.2886  0.1207
  565MOL0     C76142   1.476   3.276   7.955 -0.2636  0.2850  0.7327
  565MOL0     O76143   1.436   3.388   8.021 -0.2746 -0.6323 -0.5168
  565MOL0     C76144   1.299   3.418   8.026 -0.4249 -0.0015 -0.0638
  565MOL0     C76145   1.206   3.319   8.070 -1.5109 -0.2691 -0.2412
  565MOL0     C76146   1.072   3.346   8.074 -0.7399 -0.1628 -0.1854
  565MOL0     C76147   1.023   3.470   8.038  0.6204 -0.6321  0.2044
  565MOL0     O76148   0.889   3.483   8.027  0.0489  0.7171 -0.1662
  565MOL0     C76149   0.846   3.616   8.008 -0.1424  0.0230 -0.1093
  565MOL0     C76150   0.691   3.605   8.011 -0.2557  0.3594  0.6659
  565MOL0     C76151   0.623   3.743   8.002 -0.3545  0.1892 -0.8160
  565MOL0     C76152   0.648   3.831   8.128 -0.2072  0.7280  0.2292
  565MOL0     C76153   0.571   3.969   8.105 -0.6659 -0.1980 -0.1458
  565MOL0     C76154   0.419   3.971   8.127  0.5894  0.2265  1.5269
  565MOL0     C76155   0.349   4.106   8.117 -0.2650  0.5041  0.1654
  565MOL0     C76156   0.205   4.096   8.065  0.8799 -0.1431  0.0033
  565MOL0     N76157   0.142   4.227   8.080 -1.0642 -0.2240  0.0282
  565MOL0     C76158   0.095   4.286   8.197 -0.3194  0.1011 -0.1227
  565MOL0     C76159   0.040   4.402   8.166 -0.2661  0.4152  0.3113
  565MOL0     C76160  -0.003   4.494   8.271 -0.4631  0.5850  0.1514
  565MOL0     C76161  -0.149   4.514   8.249  0.2533 -0.7960 -0.2264
  565MOL0     C76162  -0.234   4.395   8.287 -0.1587 -0.2464 -0.0608
  565MOL0     C76163  -0.330   4.430   8.403  0.4222  0.4798 -0.1042
  565MOL0     O76164  -0.433   4.517   8.365 -0.0640 -0.0700  0.4450
  565MOL0     C76165  -0.533   4.477   8.282 -0.0605  0.7887  0.7916
  565MOL0     C76166  -0.615   4.581   8.228  1.0064  0.0336  0.4416
  565MOL0     C76167  -0.715   4.561   8.130 -0.2292  0.2209  0.0466
  565MOL0     C76168  -0.774   4.682   8.074 -0.3525  0.6667  0.9545
  565MOL0     C76169  -0.745   4.425   8.090  0.3466 -0.8078 -0.0426
  565MOL0     C76170  -0.854   4.386   7.998 -1.0716  0.0180 -0.5572
  565MOL0     O76171  -0.935   4.480   7.948 -0.1854 -0.1712 -0.2127
  565MOL0     C76172  -1.051   4.447   7.877  0.1414  0.3927  0.1126
  565MOL0     C76173  -1.150   4.540   7.873  0.9057 -0.3495 -0.5445
  565MOL0     C76174  -1.265   4.529   7.793  0.2824 -0.5107  0.4234
  565MOL0     C76175  -1.280   4.417   7.711  0.2535  0.5724 -0.3100
  565MOL0     O76176  -1.391   4.391   7.636 -0.1842  0.3478  0.0274
  565MOL0     C76177  -1.503   4.476   7.666  0.2188  0.8952 -0.0674
  565MOL0     C76178  -1.632   4.436   7.594 -0.9072  0.7909  0.1366
  565MOL0     C76179  -1.746   4.506   7.668 -0.5407  0.0776 -0.6517
  565MOL0     C76180  -1.873   4.474   7.591 -0.1580  0.2204  0.0426
  565MOL0     C76181  -1.989   4.556   7.649  1.0079 -0.2188  0.4666
  565MOL0     C76182  -2.119   4.528   7.560 -0.1698  0.3482 -0.5818
  565MOL0     C76183  -2.225   4.637   7.569  0.1129  1.0882  0.1325
  565MOL0     C76184  -2.360   4.574   7.546  1.0501  0.7757 -0.6681
  565MOL0    Cl76185  -2.479   4.702   7.569 -0.0254  0.2215 -0.1347
  565MOL0     C76186  -1.179   4.318   7.715 -0.6542 -0.6321 -0.1466
  565MOL0     C76187  -1.068   4.336   7.798  0.5886 -0.5487  0.0160
  565MOL0     O76188  -0.868   4.265   7.992  0.5961  0.4355  0.5318
  565MOL0     C76189  -0.663   4.322   8.144  0.1217  0.4193  0.3655
  565MOL0     C76190  -0.563   4.341   8.231  0.0475 -0.5762 -0.7947
  565MOL0     N76191   0.057   4.422   8.027  0.0417 -1.1589 -0.7374
  565MOL0     N76192   0.118   4.321   7.987  0.0063 -0.3460 -0.5304
  565MOL0     C76193   1.116   3.569   7.986 -0.0728 -0.5072 -0.3988
  565MOL0     C76194   1.255   3.541   7.985  0.4107  0.0333 -0.9821
  565MOL0     C76195   1.620   3.257   7.958  0.0881  0.4021  0.2849
  565MOL0     C76196   1.691   3.197   7.846 -0.5092  0.8181  0.1431
  565MOL0     C76197   1.827   3.169   7.856 -0.1191  0.8668 -0.1295
  565MOL0     C76198   1.894   3.209   7.974  0.3624 -0.0501 -0.1089
  565MOL0     O76199   2.029   3.176   8.002 -0.5431 -0.1476 -0.7002
  565MOL0     C76200   2.097   3.084   7.905  0.0739  0.4093 -0.1356
  565MOL0     C76201   2.218   3.006   7.964  0.1274  0.4550 -0.4201
  565MOL0     C76202   2.302   2.951   7.844  0.5282 -0.3512  0.0020
  565MOL0     C76203   2.377   3.063   7.763  1.1013  0.0200 -0.1448
  565MOL0     C76204   2.484   3.009   7.681 -0.0278 -0.2179  0.9912
  565MOL0     C76205   2.565   2.955   7.614  0.3225 -0.1003  0.7446
  565MOL0     C76206   1.830   3.275   8.075  0.4069 -0.6941 -0.9710
  565MOL0     C76207   1.692   3.294   8.074 -0.6838  0.1237  0.0696
  565MOL0     H76208   1.238   3.225   8.114 -1.5836 -0.3600 -0.3795
  565MOL0     H76209   1.004   3.271   8.113 -2.3852  1.5035  0.2901
  565MOL0     H76210   0.886   3.683   8.085  1.0449  0.1588 -0.8229
  565MOL0     H76211   0.875   3.654   7.910  2.5007 -1.0348  0.1744
  565MOL0     H76212   0.663   3.548   7.921  1.5950  2.4892 -1.4108
  565MOL0     H76213   0.655   3.553   8.099 -0.5119 -0.7618 -0.0827
  565MOL0     H76214   0.641   3.805   7.914 -2.0907  2.9205  0.5974
  565MOL0     H76215   0.515   3.727   7.993 -0.7405  0.1842  2.5702
  565MOL0     H76216   0.610   3.794   8.223  1.2673  0.3858  0.7004
  565MOL0     H76217   0.756   3.846   8.139 -0.2187 -0.3768  2.1436
  565MOL0     H76218   0.619   4.035   8.178 -0.0821 -2.9589  2.1866
  565MOL0     H76219   0.598   4.007   8.006  0.8838 -1.6550 -0.3323
  565MOL0     H76220   0.374   3.906   8.052  0.6837 -0.2654  1.8838
  565MOL0     H76221   0.379   3.930   8.220 -2.2605 -2.7244 -0.7626
  565MOL0     H76222   0.361   4.154   8.214  0.3347 -1.2760  0.9927
  565MOL0     H76223   0.404   4.166   8.043  0.3652 -2.0051 -1.5257
  565MOL0     H76224   0.159   4.033   8.141  1.2635 -0.6844 -0.2067
  565MOL0     H76225   0.189   4.065   7.962  1.7342  1.2308 -0.5734
  565MOL0     H76226   0.100   4.253   8.300 -3.1759  0.9208  0.3797
  565MOL0     H76227   0.020   4.444   8.365 -2.0653  2.4789  1.6287
  565MOL0     H76228   0.042   4.593   8.262 -1.2380  1.0457  1.2549
  565MOL0     H76229  -0.169   4.547   8.146  0.3674  1.5270  0.4197
  565MOL0     H76230  -0.189   4.600   8.304 -0.8387 -2.0185  0.9492
  565MOL0     H76231  -0.169   4.314   8.321  1.9598  1.6495  0.6086
  565MOL0     H76232  -0.286   4.362   8.196  1.6687 -0.0928 -1.2173
  565MOL0     H76233  -0.291   4.500   8.478  1.1101  0.7050 -0.6669
  565MOL0     H76234  -0.369   4.346   8.462  0.1560  0.0564 -0.8663
  565MOL0     H76235  -0.602   4.681   8.268  0.3698 -0.2421  1.3792
  565MOL0     H76236  -0.765   4.662   7.967 -0.7191 -0.0572  1.0568
  565MOL0     H76237  -0.879   4.697   8.099 -1.0946  0.4523 -1.8079
  565MOL0     H76238  -0.725   4.778   8.098  0.8152 -0.0246  1.4429
  565MOL0     H76239  -1.133   4.626   7.938 -0.4042  0.9248 -1.7893
  565MOL0     H76240  -1.333   4.613   7.802 -1.2267 -1.2100 -2.9153
  565MOL0     H76241  -1.517   4.483   7.774  1.3309  0.5723  0.1079
  565MOL0     H76242  -1.474   4.572   7.622  1.1198  0.6893  0.0626
  565MOL0     H76243  -1.622   4.452   7.486  0.9886 -1.5077 -0.1003
  565MOL0     H76244  -1.650   4.328   7.598 -0.8679  0.8351  2.0106
  565MOL0     H76245  -1.734   4.614   7.662 -1.1180  0.0693 -2.5113
  565MOL0     H76246  -1.757   4.467   7.769 -4.2504 -3.2103 -2.0419
  565MOL0     H76247  -1.850   4.500   7.487 -0.0233 -1.1866 -0.2955
  565MOL0     H76248  -1.895   4.368   7.605 -1.9037  0.4840 -0.4115
  565MOL0     H76249  -1.971   4.664   7.650  0.0569 -0.0485  0.4855
  565MOL0     H76250  -2.001   4.534   7.755  1.5806 -1.1614  0.3452
  565MOL0     H76251  -2.093   4.534   7.454 -0.6851  5.1830 -0.6608
  565MOL0     H76252  -2.159   4.427   7.566 -0.1588  0.2777 -1.5490
  565MOL0     H76253  -2.221   4.713   7.491  1.7269  0.2411 -0.6528
  565MOL0     H76254  -2.230   4.683   7.668  0.6718 -1.3950  1.4143
  565MOL0     H76255  -2.387   4.498   7.619  0.9119  0.7672 -0.7274
  565MOL0     H76256  -2.367   4.541   7.442  0.3248 -0.4704 -0.2410
  565MOL0     H76257  -1.167   4.230   7.652  3.6540  0.1161 -0.6501
  565MOL0     H76258  -0.992   4.259   7.800  1.5633  0.3972  0.4441
  565MOL0     H76259  -0.682   4.219   8.115 -2.1554  0.7206  0.5833
  565MOL0     H76260  -0.511   4.253   8.267 -0.4960  0.0113  1.5442
  565MOL0     H76261   1.092   3.662   7.936 -0.0934 -1.8101 -2.9338
  565MOL0     H76262   1.335   3.601   7.943  0.5506  0.3077 -0.3407
  565MOL0     H76263   1.633   3.167   7.759  0.0685  1.6781 -0.5466
  565MOL0     H76264   1.868   3.100   7.782  0.6638  0.3937  0.7258
  565MOL0     H76265   2.032   3.004   7.865 -1.8443  0.9826  1.6571
  565MOL0     H76266   2.138   3.146   7.825 -0.5957  1.2477  0.1521
  565MOL0     H76267   2.194   2.917   8.024 -5.6467  3.2475  2.2158
  565MOL0     H76268   2.274   3.074   8.028  1.4715 -0.1518 -0.9210
  565MOL0     H76269   2.241   2.905   7.765  0.1292  1.5957 -0.8957
  565MOL0     H76270   2.365   2.868   7.876 -2.8454 -3.8367 -1.6224
  565MOL0     H76271   2.412   3.135   7.837 -0.6434 -1.5320  2.3841
  565MOL0     H76272   2.307   3.119   7.701 -0.1998 -2.9046 -1.4836
  565MOL0     H76273   2.637   2.895   7.562 -0.4267  1.3030 -2.1317
  565MOL0     H76274   1.893   3.312   8.154 -3.4031 -2.4183  3.3187
  565MOL0     H76275   1.648   3.347   8.158 -3.7589 -0.3143 -1.1178
  566MOL0     O76276   2.852   1.159   1.777  0.0819 -0.1646 -0.5974
  566MOL0     C76277   2.891   1.220   1.881  0.9047 -0.3255 -0.6051
  566MOL0     O76278   2.808   1.272   1.980 -0.5219  1.0815  0.0830
  566MOL0     C76279   2.674   1.272   1.954  0.1441 -0.9415 -0.0818
  566MOL0     C76280   2.611   1.393   1.980 -0.0993 -0.0634  0.0746
  566MOL0     C76281   2.468   1.401   1.987 -0.4686 -0.0424  0.5220
  566MOL0     C76282   2.393   1.286   1.955  1.0351 -0.4583 -0.0121
  566MOL0     O76283   2.254   1.274   1.950  0.5885  0.6966 -0.2218
  566MOL0     C76284   2.176   1.383   1.896  0.2217  0.0730  0.1399
  566MOL0     C76285   2.027   1.377   1.948 -1.0718  0.5531 -1.0584
  566MOL0     C76286   1.923   1.463   1.870  0.0985 -0.2287 -0.0845
  566MOL0     C76287   1.789   1.463   1.932  0.8901  0.1823 -0.1220
  566MOL0     C76288   1.681   1.516   1.824 -0.9170  1.0505 -0.6178
  566MOL0     C76289   1.704   1.654   1.767 -0.0112 -0.8199  0.5040
  566MOL0     C76290   1.717   1.773   1.867 -0.1080  0.3148  0.4830
  566MOL0     C76291   1.721   1.918   1.809 -0.5048  0.0404  0.2878
  566MOL0     N76292   1.592   1.957   1.755 -0.3805 -0.1275 -0.0339
  566MOL0     C76293   1.490   2.020   1.828 -0.9723  0.5284  0.1665
  566MOL0     C76294   1.383   2.010   1.742 -0.2179 -0.8192 -0.1140
  566MOL0     C76295   1.249   2.067   1.779  1.0036 -0.4604  0.2582
  566MOL0     C76296   1.139   1.958   1.745  0.9309 -0.7866  0.0400
  566MOL0     C76297   1.102   1.954   1.596 -0.9970  0.4802 -0.3959
  566MOL0     C76298   0.983   1.878   1.549 -0.8294  0.2618  0.0940
  566MOL0     O76299   0.964   1.758   1.633 -0.3105  0.2755  1.2433
  566MOL0     C76300   0.839   1.727   1.672  0.7089  0.3792 -0.1101
  566MOL0     C76301   0.823   1.699   1.805 -0.7943 -0.6528  0.0235
  566MOL0     C76302   0.706   1.674   1.867 -0.3715 -0.0561  0.0764
  566MOL0     C76303   0.712   1.645   2.015 -0.3937 -0.6496  0.0594
  566MOL0     C76304   0.583   1.691   1.784 -0.4723  0.0481 -1.0273
  566MOL0     C76305   0.450   1.700   1.837 -0.3602  0.0032  0.0385
  566MOL0     O76306   0.346   1.643   1.762 -0.0420  0.1238  0.0226
  566MOL0     C76307   0.211   1.674   1.775  0.7687 -0.5484 -0.9030
  566MOL0     C76308   0.161   1.768   1.872 -0.1892 -0.6623 -0.0312
  566MOL0     C76309   0.024   1.788   1.883  0.0320  0.1731  0.4245
  566MOL0     C76310  -0.066   1.720   1.795  0.6669  0.3643 -0.1148
  566MOL0     O76311  -0.202   1.742   1.812 -0.2612  0.2937 -0.0239
  566MOL0     C76312  -0.286   1.762   1.699  0.0341  0.2061 -0.5839
  566MOL0     C76313  -0.431   1.777   1.747  0.6903  0.1037 -0.6676
  566MOL0     C76314  -0.511   1.864   1.653 -0.8424 -0.0100 -0.5448
  566MOL0     C76315  -0.561   1.784   1.533  0.4098  0.3483  0.0724
  566MOL0     C76316  -0.623   1.876   1.416 -0.4130  0.5580  0.6974
  566MOL0     C76317  -0.731   1.979   1.450 -0.1832  0.0134  0.1163
  566MOL0     C76318  -0.774   2.043   1.316  0.1117  0.2860 -0.1426
  566MOL0     C76319  -0.859   2.167   1.335 -0.5107  0.1750  0.2462
  566MOL0    Cl76320  -0.914   2.233   1.179  0.0414  0.3179 -0.0223
  566MOL0     C76321  -0.013   1.620   1.711 -0.2966  0.0692 -0.1256
  566MOL0     C76322   0.124   1.601   1.701 -0.0092  0.8163  0.3880
  566MOL0     O76323   0.443   1.738   1.947  0.6390  0.0300 -0.3704
  566MOL0     C76324   0.605   1.707   1.640 -0.0231  0.1389 -0.4604
  566MOL0     C76325   0.734   1.719   1.590 -0.0367 -0.0853 -0.7423
  566MOL0     N76326   1.419   1.948   1.629  0.3327  0.0476 -0.1135
  566MOL0     N76327   1.545   1.912   1.635 -0.0265  0.3336 -0.0014
  566MOL0     C76328   2.458   1.165   1.917  0.1783 -0.1998  0.5523
  566MOL0     C76329   2.597   1.154   1.926 -0.1625 -0.2585  0.0452
  566MOL0     C76330   3.041   1.244   1.882  1.3596  0.2201 -0.0303
  566MOL0     C76331   3.091   1.273   2.009  0.1903  0.0609 -0.2309
  566MOL0     C76332   3.224   1.255   2.035 -0.6863 -0.9069  0.6095
  566MOL0     C76333   3.305   1.219   1.923 -0.9237 -0.1941  0.0631
  566MOL0     O76334   3.435   1.192   1.960  0.1055 -0.1585  1.1921
  566MOL0     C76335   3.528   1.134   1.860 -0.3933 -0.1846  0.4463
  566MOL0     C76336   3.665   1.118   1.929 -0.0244  1.0076  0.2170
  566MOL0     C76337   3.780   1.059   1.846  0.3168  0.3608  1.1335
  566MOL0     C76338   3.748   0.911   1.795  0.0163 -0.2430 -0.9298
  566MOL0     C76339   3.873   0.853   1.739  0.7102  0.5698 -0.3330
  566MOL0     C76340   3.977   0.801   1.709  0.7794  0.3870  0.1050
  566MOL0     C76341   3.257   1.208   1.793  1.1286 -0.0058  0.0322
  566MOL0     C76342   3.120   1.208   1.775  0.0187 -0.2574  0.6136
  566MOL0     H76343   2.662   1.487   2.000  0.2262 -0.4386  1.0758
  566MOL0     H76344   2.426   1.490   2.032  0.5134  0.2452  0.8849
  566MOL0     H76345   2.209   1.478   1.940 -0.8072 -1.0755  3.7577
  566MOL0     H76346   2.184   1.384   1.787  1.2554 -0.1050  0.2114
  566MOL0     H76347   1.986   1.276   1.950 -0.8516  0.4654 -0.8849
  566MOL0     H76348   2.022   1.408   2.053 -0.5129  0.7860 -1.0954
  566MOL0     H76349   1.956   1.567   1.856 -1.9027  0.2245 -1.9575
  566MOL0     H76350   1.934   1.425   1.768  1.1752  2.7120 -1.1718
  566MOL0     H76351   1.775   1.364   1.976  1.8667  0.8350  1.7651
  566MOL0     H76352   1.799   1.531   2.017  2.2435  0.6427 -0.6141
  566MOL0     H76353   1.682   1.446   1.740 -2.1960 -0.3856  0.4886
  566MOL0     H76354   1.584   1.514   1.875 -0.3787  2.2206  0.5150
  566MOL0     H76355   1.791   1.658   1.702  0.2931 -0.6454  0.9207
  566MOL0     H76356   1.610   1.680   1.715  1.1885 -0.5386 -1.6428
  566MOL0     H76357   1.648   1.759   1.951 -1.1742  3.6960  0.3071
  566MOL0     H76358   1.816   1.757   1.911 -0.6539  0.9087  1.9782
  566MOL0     H76359   1.798   1.926   1.731  1.4918 -1.5334  1.9625
  566MOL0     H76360   1.752   1.990   1.885 -1.3987  0.0535  0.6456
  566MOL0     H76361   1.506   2.057   1.929  0.6057 -2.4334  1.0968
  566MOL0     H76362   1.248   2.087   1.886  0.8625  3.2605 -0.2885
  566MOL0     H76363   1.232   2.159   1.722  0.8975 -1.0398 -0.6622
  566MOL0     H76364   1.046   1.985   1.795  0.6882  0.2121 -0.9158
  566MOL0     H76365   1.177   1.861   1.778  2.3540 -0.1239  0.4775
  566MOL0     H76366   1.182   1.897   1.547 -2.1447 -2.7283  1.1489
  566MOL0     H76367   1.100   2.057   1.558 -1.0203  1.8272  2.9390
  566MOL0     H76368   1.003   1.847   1.446  0.4996 -0.8199  0.6393
  566MOL0     H76369   0.900   1.949   1.554 -0.6647  0.6578 -1.8639
  566MOL0     H76370   0.910   1.704   1.869 -2.5623 -0.3191  2.5463
  566MOL0     H76371   0.658   1.551   2.028  0.9939 -1.3952  0.5928
  566MOL0     H76372   0.816   1.650   2.050  0.3687  4.8343 -1.9795
  566MOL0     H76373   0.653   1.717   2.071  0.7635  0.4475 -0.0714
  566MOL0     H76374   0.224   1.834   1.931 -1.3637  0.8513 -0.4120
  566MOL0     H76375  -0.008   1.853   1.964  1.0831  1.0438  0.1612
  566MOL0     H76376  -0.249   1.850   1.647  1.2533 -0.3590 -0.7097
  566MOL0     H76377  -0.274   1.673   1.635  1.5504 -0.9949  1.2421
  566MOL0     H76378  -0.485   1.682   1.753  0.3770  0.2913 -0.4765
  566MOL0     H76379  -0.436   1.825   1.846 -0.9480  1.2347 -1.2608
  566MOL0     H76380  -0.457   1.951   1.616 -1.7532 -0.5157 -3.3123
  566MOL0     H76381  -0.604   1.895   1.701 -0.2957  0.2649  0.3451
  566MOL0     H76382  -0.491   1.717   1.483 -1.8372 -0.5165 -2.1351
  566MOL0     H76383  -0.638   1.714   1.565  0.6277 -0.5532 -1.2981
  566MOL0     H76384  -0.665   1.815   1.335  1.8471  3.3482 -2.9037
  566MOL0     H76385  -0.541   1.930   1.368  0.3596 -0.4829  0.8153
  566MOL0     H76386  -0.812   1.931   1.506 -0.0050  0.4958  0.8048
  566MOL0     H76387  -0.682   2.056   1.510  0.1939 -0.8700  0.9890
  566MOL0     H76388  -0.830   1.963   1.266  0.3163 -0.2343  0.4497
  566MOL0     H76389  -0.686   2.080   1.262 -0.8272  2.6621 -0.1696
  566MOL0     H76390  -0.811   2.240   1.400  0.0646  0.3537 -0.3783
  566MOL0     H76391  -0.947   2.126   1.386  0.6146 -1.3817  1.0268
  566MOL0     H76392  -0.083   1.559   1.656 -4.0281  3.1524  0.7826
  566MOL0     H76393   0.165   1.528   1.632  1.0197  0.8061  1.0051
  566MOL0     H76394   0.516   1.717   1.578 -0.7845  1.9337  0.8204
  566MOL0     H76395   0.734   1.730   1.482  0.1965 -3.3844 -1.1836
  566MOL0     H76396   2.391   1.082   1.897 -1.1232  0.4739  1.9200
  566MOL0     H76397   2.649   1.060   1.910 -0.3930  0.0764 -3.4312
  566MOL0     H76398   3.029   1.294   2.096  0.6057  2.4966 -0.4319
  566MOL0     H76399   3.265   1.280   2.132 -1.7199 -0.0336  0.8448
  566MOL0     H76400   3.481   1.047   1.812  2.7909 -1.4414 -0.6153
  566MOL0     H76401   3.546   1.197   1.773  0.5332  0.2307  0.9278
  566MOL0     H76402   3.654   1.046   2.010 -0.7767 -1.3067 -1.7950
  566MOL0     H76403   3.705   1.207   1.978  3.7811 -0.5779  0.3072
  566MOL0     H76404   3.869   1.051   1.908  0.2346 -1.0843  1.0924
  566MOL0     H76405   3.799   1.109   1.750 -1.9684 -2.8558 -1.2321
  566MOL0     H76406   3.673   0.914   1.716 -0.1766  3.3185 -0.7906
  566MOL0     H76407   3.710   0.852   1.879  0.4626  0.5611 -0.1404
  566MOL0     H76408   4.077   0.772   1.687  0.7888 -0.6629  1.3858
  566MOL0     H76409   3.311   1.197   1.699  0.8009 -2.5138  0.0539
  566MOL0     H76410   3.077   1.191   1.677 -1.8775  1.0327  1.1560
  567MOL0     O76411   6.401   3.688  10.726  0.2986 -0.5581  0.1303
  567MOL0     C76412   6.472   3.638  10.805 -0.5707 -0.4099  0.6909
  567MOL0     O76413   6.442   3.596  10.930 -0.2935  0.4090 -0.0343
  567MOL0     C76414   6.319   3.615  10.986  0.6327  0.0976 -0.2157
  567MOL0     C76415   6.313   3.649  11.129  0.3594 -0.6617  0.5916
  567MOL0     C76416   6.196   3.645  11.209 -1.0697 -0.1917  0.4977
  567MOL0     C76417   6.075   3.612  11.140 -0.4008  1.2122  0.0410
  567MOL0     O76418   5.952   3.610  11.199  0.0592  0.8422  0.5260
  567MOL0     C76419   5.922   3.698  11.312  0.3463 -0.9133 -0.2941
  567MOL0     C76420   5.875   3.816  11.231 -0.0322 -0.1643 -0.0311
  567MOL0     C76421   5.863   3.939  11.325  0.2369 -0.3528 -0.1327
  567MOL0     C76422   5.858   4.070  11.242  0.3934  0.5128  0.3381
  567MOL0     C76423   5.730   4.079  11.155 -0.0924  0.2131  0.1674
  567MOL0     C76424   5.606   4.092  11.239  0.2198  0.1997  0.1100
  567MOL0     C76425   5.496   4.133  11.142 -0.5695 -0.0042  0.1252
  567MOL0     C76426   5.362   4.128  11.211  0.0136 -0.0412 -0.4010
  567MOL0     N76427   5.258   4.207  11.154  0.3362  0.0155 -0.5671
  567MOL0     C76428   5.260   4.274  11.038 -0.1379  0.1421  0.1247
  567MOL0     C76429   5.143   4.347  11.041  0.2349 -0.7236  0.0077
  567MOL0     C76430   5.083   4.412  10.918 -0.4402  0.4590  0.2205
  567MOL0     C76431   5.025   4.545  10.960 -0.0404  0.0173  0.4135
  567MOL0     C76432   4.917   4.578  10.860 -1.2852 -0.5166  0.0188
  567MOL0     C76433   4.824   4.698  10.901 -0.0139  0.6512 -0.5521
  567MOL0     O76434   4.701   4.698  10.832  0.1304 -0.3665 -0.0295
  567MOL0     C76435   4.688   4.736  10.701  0.0520 -0.1488 -0.1247
  567MOL0     C76436   4.570   4.702  10.642  0.4020 -0.2691  0.0208
  567MOL0     C76437   4.536   4.737  10.508 -0.1402 -0.0844 -0.0709
  567MOL0     C76438   4.393   4.712  10.459  0.1021  0.1671 -0.0851
  567MOL0     C76439   4.636   4.791  10.422 -0.3171 -0.2639 -0.6345
  567MOL0     C76440   4.621   4.804  10.275 -0.9788 -0.3600  0.3690
  567MOL0     O76441   4.704   4.898  10.212 -0.2083 -0.2229  0.7105
  567MOL0     C76442   4.727   4.897  10.076 -1.0828  0.3069 -0.6084
  567MOL0     C76443   4.852   4.844  10.031  0.7741 -0.3857  0.4760
  567MOL0     C76444   4.884   4.845   9.892 -0.3406  0.0740  0.4762
  567MOL0     C76445   4.786   4.883   9.800  0.4264  0.9783 -0.3956
  567MOL0     O76446   4.786   4.872   9.657  0.0895 -0.7875  0.8031
  567MOL0     C76447   4.904   4.915   9.590 -0.1199  0.3380 -0.7209
  567MOL0     C76448   4.879   4.978   9.453  0.6358  0.4446  0.0934
  567MOL0     C76449   4.769   5.093   9.470  0.2069  0.5936  0.5752
  567MOL0     C76450   4.628   5.046   9.428 -0.0751  0.2824  0.5515
  567MOL0     C76451   4.530   5.154   9.473  0.3753  0.4712  0.0214
  567MOL0     C76452   4.386   5.105   9.443 -0.7810  1.1453 -0.2967
  567MOL0     C76453   4.273   5.202   9.488 -0.6345 -0.3413  0.7962
  567MOL0     C76454   4.157   5.177   9.397 -0.1531 -0.0812  0.3723
  567MOL0    Cl76455   4.015   5.276   9.438 -0.1004 -0.0821  0.0196
  567MOL0     C76456   4.661   4.921   9.849  0.2211 -0.2833 -0.9658
  567MOL0     C76457   4.630   4.926   9.986  0.3367 -0.7348  0.0474
  567MOL0     O76458   4.557   4.717  10.216  0.3638  0.4572  0.0782
  567MOL0     C76459   4.757   4.829  10.486  0.3196 -0.0823  0.2611
  567MOL0     C76460   4.783   4.802  10.618 -0.5076  0.5066 -0.2172
  567MOL0     N76461   5.074   4.333  11.164 -0.3074  0.0730  0.1545
  567MOL0     N76462   5.140   4.242  11.223 -0.0908 -0.4875  0.1982
  567MOL0     C76463   6.075   3.591  10.993  0.1282 -0.1022 -0.2409
  567MOL0     C76464   6.191   3.596  10.922 -0.1590  0.0640 -0.0524
  567MOL0     C76465   6.604   3.631  10.740 -0.7913  0.3285 -0.6285
  567MOL0     C76466   6.613   3.651  10.598  0.8972  0.3887  0.0728
  567MOL0     C76467   6.732   3.644  10.530  0.1772 -0.0774  0.5938
  567MOL0     C76468   6.845   3.626  10.608 -0.6821 -0.1079 -0.5717
  567MOL0     O76469   6.969   3.620  10.548  0.3472  0.1037  0.0987
  567MOL0     C76470   6.991   3.592  10.411  0.2011 -0.4878 -0.2077
  567MOL0     C76471   7.142   3.617  10.407  0.0301 -0.0353 -0.1583
  567MOL0     C76472   7.204   3.612  10.269 -0.4269  1.2031 -0.1280
  567MOL0     C76473   7.354   3.653  10.271  0.0090  0.8329  0.1201
  567MOL0     C76474   7.430   3.543  10.331 -0.1909  1.3119 -0.1493
  567MOL0     C76475   7.500   3.460  10.377  0.4831  0.7353 -0.6337
  567MOL0     C76476   6.845   3.605  10.745  0.5623  0.4248 -0.7244
  567MOL0     C76477   6.723   3.612  10.809  0.1476 -0.4484 -0.3303
  567MOL0     H76478   6.410   3.656  11.179  0.1650 -1.0918  1.0358
  567MOL0     H76479   6.203   3.663  11.316 -0.6361 -0.4032  0.5056
  567MOL0     H76480   5.848   3.660  11.383  1.6333 -1.3859  0.8249
  567MOL0     H76481   6.012   3.720  11.370  1.0510  0.3723 -1.8058
  567MOL0     H76482   5.955   3.843  11.161  0.4461  2.3496  1.3429
  567MOL0     H76483   5.777   3.797  11.186 -0.2934  0.1309  0.4025
  567MOL0     H76484   5.773   3.942  11.387 -1.3625 -1.9729 -2.2198
  567MOL0     H76485   5.949   3.929  11.391 -0.7214 -3.6572  0.8420
  567MOL0     H76486   5.856   4.157  11.308  0.0332  1.8944 -1.4136
  567MOL0     H76487   5.952   4.084  11.188  0.3049  2.1277  0.5509
  567MOL0     H76488   5.730   4.171  11.097 -3.0688  0.5352  0.5617
  567MOL0     H76489   5.723   3.993  11.087 -1.5429  0.3086  0.1667
  567MOL0     H76490   5.579   4.000  11.291  1.7642 -0.2318  0.2048
  567MOL0     H76491   5.622   4.165  11.319 -1.4565 -1.0162  1.6360
  567MOL0     H76492   5.508   4.234  11.102 -1.2895  0.7552  1.7215
  567MOL0     H76493   5.502   4.062  11.059  5.0812  0.5466 -0.3291
  567MOL0     H76494   5.372   4.159  11.316  2.0218  0.8863 -0.8332
  567MOL0     H76495   5.322   4.026  11.222  1.7011 -0.5403  2.0963
  567MOL0     H76496   5.335   4.257  10.961 -1.4893 -0.3841 -1.1369
  567MOL0     H76497   5.156   4.431  10.839 -0.5208  0.1633  0.0732
  567MOL0     H76498   5.001   4.346  10.887 -1.9314  2.5095 -0.3945
  567MOL0     H76499   5.104   4.621  10.958  3.0231 -2.9225 -1.5853
  567MOL0     H76500   4.974   4.542  11.057 -0.5270  3.3691  0.3925
  567MOL0     H76501   4.851   4.496  10.831 -2.2578  1.3259 -3.5264
  567MOL0     H76502   4.963   4.607  10.765 -0.8169 -0.1791  0.3404
  567MOL0     H76503   4.870   4.795  10.879 -0.5002  0.4202 -2.8718
  567MOL0     H76504   4.800   4.698  11.007  1.0105 -0.9072 -0.2904
  567MOL0     H76505   4.500   4.652  10.708  0.7473  1.5715  1.8967
  567MOL0     H76506   4.380   4.605  10.440  1.8743 -0.8390  3.4051
  567MOL0     H76507   4.323   4.726  10.542 -1.1130 -1.0861 -0.8799
  567MOL0     H76508   4.360   4.783  10.383  2.1146  0.2133 -0.9761
  567MOL0     H76509   4.924   4.826  10.110 -2.0958  0.0431  3.4254
  567MOL0     H76510   4.974   4.800   9.851 -1.1851 -0.5153 -0.7995
  567MOL0     H76511   4.957   4.990   9.649  1.0917 -0.9377 -0.1073
  567MOL0     H76512   4.972   4.829   9.588  0.8170  0.9007  2.2631
  567MOL0     H76513   4.970   5.016   9.405 -1.7265  2.2953 -3.3893
  567MOL0     H76514   4.847   4.897   9.387 -2.0234  0.6624  0.9879
  567MOL0     H76515   4.789   5.170   9.395  2.5851 -0.2830  0.2286
  567MOL0     H76516   4.787   5.136   9.569  0.8149 -0.8152  1.1035
  567MOL0     H76517   4.618   5.014   9.324  2.7457 -1.3759  0.6972
  567MOL0     H76518   4.598   4.955   9.481 -0.1926 -0.3080 -0.5098
  567MOL0     H76519   4.551   5.245   9.415  0.5063  0.7158  0.4479
  567MOL0     H76520   4.534   5.178   9.580  0.7561 -2.4145  0.7185
  567MOL0     H76521   4.375   5.076   9.339 -0.9507 -1.9114  0.4675
  567MOL0     H76522   4.373   5.010   9.495  0.0656  1.6977  1.0075
  567MOL0     H76523   4.316   5.302   9.476  2.2027 -1.5164  0.4705
  567MOL0     H76524   4.255   5.176   9.593 -0.5689 -3.1477  0.1793
  567MOL0     H76525   4.130   5.071   9.401  2.2140 -0.7209  1.2245
  567MOL0     H76526   4.192   5.196   9.295  3.6103 -1.1400  1.2756
  567MOL0     H76527   4.579   4.939   9.781  0.0324 -1.5499 -1.0907
  567MOL0     H76528   4.533   4.953  10.027  0.5438 -1.4259  1.0377
  567MOL0     H76529   4.838   4.882  10.436 -0.2678  3.2562  2.5134
  567MOL0     H76530   4.882   4.822  10.657  0.3818 -2.9807 -0.3426
  567MOL0     H76531   5.980   3.585  10.942  0.0399  1.2930 -0.2756
  567MOL0     H76532   6.183   3.583  10.814 -0.2774 -3.1348  0.2463
  567MOL0     H76533   6.523   3.663  10.539  1.5394  3.3037 -0.4600
  567MOL0     H76534   6.735   3.654  10.422 -1.6689  0.8040  0.5963
  567MOL0     H76535   6.969   3.492  10.373  0.7386  0.1642 -2.3838
  567MOL0     H76536   6.944   3.663  10.341  0.6758 -1.1609 -1.2374
  567MOL0     H76537   7.177   3.533  10.468  0.1515 -0.6432 -1.0483
  567MOL0     H76538   7.166   3.711  10.458 -2.5918  0.3546  0.5176
  567MOL0     H76539   7.155   3.690  10.210 -0.3295  0.9693 -0.5215
  567MOL0     H76540   7.179   3.520  10.216 -1.4657  0.1343  2.0694
  567MOL0     H76541   7.369   3.737  10.339 -0.6884  0.0189  1.3059
  567MOL0     H76542   7.374   3.682  10.167 -0.9120  2.4497  0.3661
  567MOL0     H76543   7.554   3.374  10.413  2.8845  0.8505 -3.6390
  567MOL0     H76544   6.935   3.596  10.805  0.2146 -2.3651 -0.4678
  567MOL0     H76545   6.704   3.593  10.915 -1.3169 -1.8382 -0.7987
  568MOL0     O76546   0.875   7.422   3.470  0.4441 -0.3981 -0.1598
  568MOL0     C76547   0.958   7.495   3.425  0.2682  0.3519  0.0244
  568MOL0     O76548   0.949   7.549   3.294 -0.6141 -0.3713  0.7801
  568MOL0     C76549   0.854   7.520   3.196 -0.5749  0.1993 -0.6062
  568MOL0     C76550   0.836   7.626   3.105  0.4180  0.0644 -0.8320
  568MOL0     C76551   0.733   7.609   3.012  0.2986 -0.5011  0.2634
  568MOL0     C76552   0.667   7.482   2.991 -1.3258 -0.6217  0.0261
  568MOL0     O76553   0.580   7.466   2.885 -0.5663 -0.2173 -0.9915
  568MOL0     C76554   0.581   7.549   2.772  0.2410 -0.2148 -0.4097
  568MOL0     C76555   0.487   7.501   2.668  0.2922 -1.0600  0.0781
  568MOL0     C76556   0.337   7.521   2.717 -0.6143  0.5037 -0.0582
  568MOL0     C76557   0.261   7.588   2.598 -0.8368 -0.3296 -0.4358
  568MOL0     C76558   0.116   7.604   2.618  0.8191 -0.6720  0.4951
  568MOL0     C76559   0.045   7.705   2.520 -0.8326  0.2457 -0.0013
  568MOL0     C76560  -0.099   7.716   2.559  0.2508  0.0550  0.4571
  568MOL0     C76561  -0.165   7.811   2.462 -0.3144 -0.0321 -0.4867
  568MOL0     N76562  -0.309   7.843   2.479 -0.0249 -0.2198 -0.8760
  568MOL0     C76563  -0.360   7.905   2.590 -0.1638 -0.0755  0.8878
  568MOL0     C76564  -0.489   7.932   2.554 -0.4003 -0.3060 -0.1588
  568MOL0     C76565  -0.597   8.006   2.634 -0.6260 -0.4537 -0.2596
  568MOL0     C76566  -0.735   7.939   2.620  0.2857  1.0493  1.0687
  568MOL0     C76567  -0.748   7.808   2.704 -0.4178  0.4506  0.2561
  568MOL0     C76568  -0.877   7.742   2.674 -0.8919 -0.4028  0.7787
  568MOL0     O76569  -0.986   7.832   2.697 -0.2041 -0.3659 -0.0728
  568MOL0     C76570  -1.112   7.792   2.720  0.4442  0.2236  0.0489
  568MOL0     C76571  -1.212   7.886   2.756 -0.3394 -0.2483  0.2646
  568MOL0     C76572  -1.344   7.848   2.765  0.4928  0.0524  0.4683
  568MOL0     C76573  -1.431   7.965   2.799 -0.1783 -0.3163 -0.2287
  568MOL0     C76574  -1.388   7.715   2.728 -0.0117 -0.4969  0.6404
  568MOL0     C76575  -1.533   7.671   2.732 -0.2954  0.5038 -0.1477
  568MOL0     O76576  -1.564   7.540   2.721  0.6495 -0.6133  0.4153
  568MOL0     C76577  -1.696   7.498   2.725  0.4696  0.5212  0.2684
  568MOL0     C76578  -1.762   7.449   2.834  0.1538  0.0298 -0.5710
  568MOL0     C76579  -1.899   7.418   2.824 -0.1302 -0.3795 -0.2969
  568MOL0     C76580  -1.973   7.444   2.705  0.1372 -0.2128 -0.5603
  568MOL0     O76581  -2.113   7.422   2.722  0.3798  0.5244  0.2327
  568MOL0     C76582  -2.193   7.454   2.609  0.3907 -0.4050 -0.3782
  568MOL0     C76583  -2.333   7.381   2.630  1.0148  0.4375 -0.3397
  568MOL0     C76584  -2.424   7.436   2.736 -0.4342 -0.3481  0.0521
  568MOL0     C76585  -2.531   7.338   2.780 -0.5255 -0.1264  0.0318
  568MOL0     C76586  -2.650   7.399   2.857  0.6081  0.4614  0.2012
  568MOL0     C76587  -2.706   7.294   2.962  0.3779  0.3666  0.2027
  568MOL0     C76588  -2.775   7.343   3.091 -0.0449  0.0316  0.5883
  568MOL0     C76589  -2.928   7.322   3.078  0.1531  0.6826  0.4004
  568MOL0    Cl76590  -2.982   7.148   3.077 -0.0804  0.0216 -0.0575
  568MOL0     C76591  -1.906   7.499   2.596  0.2014  0.0898  0.1956
  568MOL0     C76592  -1.768   7.523   2.608  1.1949 -0.3400  0.8502
  568MOL0     O76593  -1.615   7.760   2.742  0.1083 -0.0225  0.2448
  568MOL0     C76594  -1.282   7.622   2.688 -0.1288 -0.5994  0.6911
  568MOL0     C76595  -1.148   7.663   2.683 -0.6553 -0.6481  0.9330
  568MOL0     N76596  -0.509   7.888   2.424  1.1793 -0.6452  0.4987
  568MOL0     N76597  -0.403   7.828   2.381  0.3080  0.7362  0.4389
  568MOL0     C76598   0.690   7.381   3.078 -0.5852 -0.8755 -0.6502
  568MOL0     C76599   0.788   7.397   3.181  0.2505  0.7569  0.4336
  568MOL0     C76600   1.082   7.518   3.504 -0.9489 -0.7628 -0.1747
  568MOL0     C76601   1.104   7.450   3.629  0.1854 -0.0537 -0.3228
  568MOL0     C76602   1.230   7.468   3.703 -0.1714  0.6475 -0.5821
  568MOL0     C76603   1.331   7.553   3.655 -0.2001 -0.8653 -0.0560
  568MOL0     O76604   1.443   7.590   3.718  0.0939  0.3255  0.3610
  568MOL0     C76605   1.442   7.570   3.863 -0.8885 -0.0292  0.4006
  568MOL0     C76606   1.570   7.642   3.922  0.2767 -0.0918 -0.2024
  568MOL0     C76607   1.571   7.799   3.904  0.8630  0.2467  0.5322
  568MOL0     C76608   1.700   7.873   3.939 -1.1809 -0.3499  0.0664
  568MOL0     C76609   1.701   7.999   3.857  0.9847 -0.3303  0.2059
  568MOL0     C76610   1.713   8.105   3.804 -0.6142 -0.4125 -0.6909
  568MOL0     C76611   1.309   7.623   3.535  0.5690  0.2794  0.1426
  568MOL0     C76612   1.182   7.615   3.466  0.3071  0.3993  0.6847
  568MOL0     H76613   0.886   7.722   3.116 -1.0564  0.7284  0.4907
  568MOL0     H76614   0.711   7.689   2.943 -0.6836  1.0739  2.3166
  568MOL0     H76615   0.570   7.654   2.798  1.7416 -0.7086  2.6979
  568MOL0     H76616   0.683   7.546   2.732  1.0035  2.0365  1.1903
  568MOL0     H76617   0.502   7.552   2.573 -1.1754 -0.0293  0.3577
  568MOL0     H76618   0.495   7.393   2.654 -1.7490 -1.0358 -1.7846
  568MOL0     H76619   0.300   7.422   2.747 -1.1862  0.6562 -0.2597
  568MOL0     H76620   0.329   7.594   2.798 -1.3255 -1.6514  1.9348
  568MOL0     H76621   0.302   7.690   2.595 -1.6579  0.0211 -0.0579
  568MOL0     H76622   0.276   7.538   2.502  0.8914  1.0008 -0.9244
  568MOL0     H76623   0.072   7.503   2.618  0.3035 -0.4528  0.8634
  568MOL0     H76624   0.110   7.648   2.717 -1.6977  0.8629 -0.2439
  568MOL0     H76625   0.094   7.802   2.536  2.4832 -0.7712 -2.7790
  568MOL0     H76626   0.057   7.672   2.417 -0.7709  3.0795 -0.9808
  568MOL0     H76627  -0.141   7.615   2.555  0.2665  0.0690 -0.0452
  568MOL0     H76628  -0.103   7.754   2.661  0.0115 -0.6714  0.7315
  568MOL0     H76629  -0.148   7.773   2.361 -4.2361  1.1088 -1.7505
  568MOL0     H76630  -0.114   7.907   2.461 -0.8755  0.4217  3.1121
  568MOL0     H76631  -0.308   7.920   2.684  1.2754  0.3782  0.0481
  568MOL0     H76632  -0.574   8.002   2.741 -0.0288  1.8873 -0.2621
  568MOL0     H76633  -0.595   8.103   2.585  3.3008 -1.1402 -1.8360
  568MOL0     H76634  -0.757   7.915   2.516  0.5799 -1.1682  1.4584
  568MOL0     H76635  -0.811   8.011   2.649 -0.5363  0.9632 -0.7601
  568MOL0     H76636  -0.737   7.830   2.811  1.7145 -1.1035  0.4410
  568MOL0     H76637  -0.666   7.738   2.682 -0.5978  0.3022  0.0525
  568MOL0     H76638  -0.874   7.654   2.738  0.9473  1.1917  3.0480
  568MOL0     H76639  -0.875   7.709   2.570  1.0375  1.7566  0.0318
  568MOL0     H76640  -1.185   7.988   2.782  1.0730 -0.0573 -1.7194
  568MOL0     H76641  -1.476   7.996   2.704  0.3833  0.6540 -0.1840
  568MOL0     H76642  -1.502   7.940   2.878 -0.0241 -2.9757 -0.8386
  568MOL0     H76643  -1.383   8.050   2.849  0.0902  1.3971 -3.1450
  568MOL0     H76644  -1.713   7.432   2.929  0.4827 -0.5113 -0.8334
  568MOL0     H76645  -1.961   7.369   2.897 -0.1379 -1.6761 -1.1492
  568MOL0     H76646  -2.209   7.562   2.616 -0.9650 -0.6961  2.6729
  568MOL0     H76647  -2.147   7.428   2.513  4.2689  0.3805  1.1162
  568MOL0     H76648  -2.390   7.373   2.537  0.2788 -0.1686  0.1542
  568MOL0     H76649  -2.305   7.278   2.655 -3.7902 -0.8390  0.8216
  568MOL0     H76650  -2.458   7.534   2.703  4.1728  2.1196  1.6185
  568MOL0     H76651  -2.374   7.467   2.829 -0.7899  0.8143 -0.1360
  568MOL0     H76652  -2.572   7.292   2.690 -0.3704  1.8479 -1.1165
  568MOL0     H76653  -2.485   7.267   2.849 -0.6484  0.2069  0.4624
  568MOL0     H76654  -2.719   7.426   2.777  1.7795 -1.6421 -1.6513
  568MOL0     H76655  -2.619   7.489   2.912  1.2894  0.3482  0.0164
  568MOL0     H76656  -2.759   7.217   2.906  2.1979 -0.7798 -0.0119
  568MOL0     H76657  -2.621   7.229   2.984  0.9412 -0.7015 -4.2464
  568MOL0     H76658  -2.758   7.451   3.085  0.4480 -0.1084 -3.3051
  568MOL0     H76659  -2.732   7.302   3.183  2.0128  3.0515  1.1231
  568MOL0     H76660  -2.974   7.378   2.996 -1.6001 -1.8134 -0.4433
  568MOL0     H76661  -2.974   7.372   3.164  0.7621  0.9361  0.5849
  568MOL0     H76662  -1.956   7.535   2.507  0.4736  0.0302  0.0175
  568MOL0     H76663  -1.730   7.581   2.524 -1.1268  1.3843  0.9214
  568MOL0     H76664  -1.300   7.520   2.652  1.0624  0.0780 -2.1150
  568MOL0     H76665  -1.074   7.601   2.632 -0.9143  0.7966 -1.3515
  568MOL0     H76666   0.637   7.286   3.072  1.2365 -2.1490  1.6313
  568MOL0     H76667   0.800   7.322   3.258 -1.9179  1.9512  2.0740
  568MOL0     H76668   1.040   7.367   3.655  0.9496 -0.6970 -0.4812
  568MOL0     H76669   1.241   7.410   3.794 -1.7895 -0.8779 -1.3072
  568MOL0     H76670   1.357   7.602   3.925 -0.6072 -0.0851  0.8219
  568MOL0     H76671   1.456   7.462   3.875 -1.8938 -0.1684  0.4460
  568MOL0     H76672   1.664   7.608   3.876  0.4533  0.5155 -0.2956
  568MOL0     H76673   1.585   7.622   4.028 -0.5164 -0.9932 -0.2412
  568MOL0     H76674   1.481   7.841   3.950 -1.2107 -3.2075  0.0219
  568MOL0     H76675   1.550   7.807   3.797  3.4075 -2.8678 -0.3744
  568MOL0     H76676   1.792   7.823   3.909 -0.3503  1.4135 -0.4864
  568MOL0     H76677   1.695   7.894   4.047 -3.8962  0.1448 -0.0843
  568MOL0     H76678   1.719   8.208   3.774 -0.8309  0.1124  0.9608
  568MOL0     H76679   1.374   7.702   3.499  1.4150 -1.4819 -2.5425
  568MOL0     H76680   1.167   7.673   3.376  0.7757 -0.5265 -0.0185
  569MOL0     O76681   3.764   1.314   5.168  0.4119 -0.6839  1.1155
  569MOL0     C76682   3.825   1.274   5.068 -0.0696 -0.5798  0.9018
  569MOL0     O76683   3.769   1.195   4.973  0.7432 -0.0858 -0.2160
  569MOL0     C76684   3.642   1.151   4.988  0.6552 -0.2422 -0.2754
  569MOL0     C76685   3.547   1.181   4.894 -1.0556 -0.7714 -0.0763
  569MOL0     C76686   3.425   1.115   4.899  0.0463  0.1776  0.3888
  569MOL0     C76687   3.386   1.037   5.008  0.5335 -0.5239 -0.2702
  569MOL0     O76688   3.259   0.986   5.022 -0.3024  0.1353  0.0720
  569MOL0     C76689   3.180   1.028   5.136  0.3700  0.4481 -0.2847
  569MOL0     C76690   3.031   0.990   5.121  0.5784  0.1452 -0.5543
  569MOL0     C76691   2.966   0.960   4.982 -0.3367  0.1997  0.1712
  569MOL0     C76692   2.822   0.926   4.973  0.1216 -0.6861  0.0639
  569MOL0     C76693   2.732   1.029   5.044 -0.0262 -0.1077 -0.2808
  569MOL0     C76694   2.585   1.035   5.003 -0.1816 -0.2136 -0.3446
  569MOL0     C76695   2.516   0.903   5.029  0.1316 -0.3119 -0.3562
  569MOL0     C76696   2.367   0.925   5.062  0.9419  0.3826  0.1060
  569MOL0     N76697   2.288   1.016   4.974 -0.0309 -0.5662 -0.5571
  569MOL0     C76698   2.236   0.991   4.855 -1.0256 -0.4414  0.0764
  569MOL0     C76699   2.156   1.103   4.835 -0.2111  0.6018 -0.2369
  569MOL0     C76700   2.058   1.112   4.722 -0.7741  0.6255 -0.2184
  569MOL0     C76701   2.042   0.986   4.639 -0.0763  0.2346  0.3761
  569MOL0     C76702   1.930   0.998   4.537 -0.0534  0.8854  0.5420
  569MOL0     C76703   1.790   0.991   4.603  0.0651  0.1620 -0.3635
  569MOL0     O76704   1.765   0.860   4.647 -0.0924  0.0444 -0.4995
  569MOL0     C76705   1.637   0.826   4.681  0.4226 -0.9035  0.2348
  569MOL0     C76706   1.618   0.699   4.718 -0.8302  0.4439 -0.1455
  569MOL0     C76707   1.496   0.640   4.734 -0.0701 -0.2468 -0.2006
  569MOL0     C76708   1.495   0.490   4.747 -0.4405 -0.5042  0.6050
  569MOL0     C76709   1.377   0.720   4.723 -0.2539 -0.0467 -0.7623
  569MOL0     C76710   1.231   0.660   4.741  0.5739  0.7577 -0.3711
  569MOL0     O76711   1.127   0.743   4.723 -1.0573  0.6412  0.2663
  569MOL0     C76712   0.999   0.691   4.736  0.2591 -0.5311  0.1275
  569MOL0     C76713   0.960   0.563   4.703  0.1388  0.8614 -1.2444
  569MOL0     C76714   0.826   0.529   4.723  0.3481  0.2595  0.1237
  569MOL0     C76715   0.730   0.617   4.765  0.7780  0.4136 -0.5800
  569MOL0     O76716   0.594   0.599   4.772  0.1904  0.0009 -0.2719
  569MOL0     C76717   0.539   0.468   4.763  0.3503  0.8885  0.0006
  569MOL0     C76718   0.386   0.484   4.760  0.3475 -0.3794 -0.2723
  569MOL0     C76719   0.322   0.354   4.721  0.7505  0.3130  0.1552
  569MOL0     C76720   0.167   0.367   4.707  0.4548 -0.1520  0.6169
  569MOL0     C76721   0.110   0.258   4.619 -0.3557 -0.4002  0.5215
  569MOL0     C76722  -0.011   0.281   4.541 -0.4634  0.1428  0.7291
  569MOL0     C76723  -0.029   0.172   4.443  0.4844 -0.6562 -0.1193
  569MOL0     C76724  -0.149   0.202   4.353 -0.1255  0.5437 -0.1930
  569MOL0    Cl76725  -0.151   0.065   4.234 -0.5308 -0.1762 -0.3135
  569MOL0     C76726   0.770   0.745   4.789 -0.4290  0.8063 -0.2986
  569MOL0     C76727   0.908   0.788   4.777  0.0183  0.5392 -0.5874
  569MOL0     O76728   1.226   0.551   4.794 -0.4451 -0.0164  0.4449
  569MOL0     C76729   1.395   0.851   4.699 -0.5798 -0.3719  0.6949
  569MOL0     C76730   1.522   0.910   4.680 -0.2364 -0.6907 -0.5818
  569MOL0     N76731   2.180   1.195   4.933  0.0428  0.2409 -0.0382
  569MOL0     N76732   2.255   1.144   5.021 -0.1579  1.1947  0.4266
  569MOL0     C76733   3.483   1.007   5.103  0.1067  0.0367  0.3013
  569MOL0     C76734   3.610   1.064   5.092  0.3128  0.2625 -0.3774
  569MOL0     C76735   3.969   1.293   5.067 -0.4099 -0.4599 -0.1539
  569MOL0     C76736   4.055   1.235   4.973  1.0623 -0.1462  0.3914
  569MOL0     C76737   4.195   1.252   4.982  0.4194  0.8137  0.2928
  569MOL0     C76738   4.252   1.326   5.086 -0.5632  0.1224 -0.3558
  569MOL0     O76739   4.389   1.347   5.112 -0.2575  0.2984  0.0800
  569MOL0     C76740   4.475   1.273   5.031  1.0621  0.2381 -0.6952
  569MOL0     C76741   4.615   1.308   5.074 -0.0529 -0.3963 -0.6042
  569MOL0     C76742   4.652   1.432   5.002 -0.9973  0.0070 -0.3618
  569MOL0     C76743   4.793   1.498   5.056  0.9003  0.8230 -0.2095
  569MOL0     C76744   4.916   1.452   5.003 -0.3465  0.6849 -0.9491
  569MOL0     C76745   5.019   1.410   4.952 -0.5126 -0.1579  0.6589
  569MOL0     C76746   4.163   1.388   5.178  0.4295  0.4545  1.0205
  569MOL0     C76747   4.025   1.365   5.169 -0.1494  1.1381 -0.4949
  569MOL0     H76748   3.585   1.241   4.812  0.1649 -0.3704  0.7542
  569MOL0     H76749   3.360   1.131   4.814  2.5031  0.6259 -1.5285
  569MOL0     H76750   3.237   0.978   5.215  1.3726  1.2449 -0.4842
  569MOL0     H76751   3.186   1.133   5.164 -0.7502 -0.2111  2.9037
  569MOL0     H76752   3.003   0.917   5.197  3.0482 -0.8044 -0.4694
  569MOL0     H76753   2.981   1.083   5.150  1.8483  1.1477 -1.4679
  569MOL0     H76754   2.993   1.046   4.920  0.5786 -0.1115  0.1241
  569MOL0     H76755   3.020   0.879   4.932 -0.7248  0.0203  0.0427
  569MOL0     H76756   2.793   0.922   4.868 -1.0203 -1.0073  0.3732
  569MOL0     H76757   2.804   0.828   5.017 -1.3245 -0.5612 -0.2244
  569MOL0     H76758   2.742   1.009   5.152 -2.0398  0.3613  0.0353
  569MOL0     H76759   2.771   1.129   5.023  2.0581 -0.7687  0.1255
  569MOL0     H76760   2.546   1.111   5.071  0.7026  1.7258 -1.8973
  569MOL0     H76761   2.575   1.065   4.898  2.4472 -3.4593 -1.6786
  569MOL0     H76762   2.525   0.832   4.945 -1.5314 -0.1207 -0.7260
  569MOL0     H76763   2.557   0.861   5.121 -4.5726  0.7059  2.5041
  569MOL0     H76764   2.359   0.966   5.163  0.6872 -1.2682  0.7934
  569MOL0     H76765   2.316   0.828   5.069 -1.9291  1.8140  0.6009
  569MOL0     H76766   2.250   0.901   4.795 -1.8702 -1.4346  1.3369
  569MOL0     H76767   1.961   1.139   4.766 -0.6228 -0.7031  1.0004
  569MOL0     H76768   2.084   1.205   4.669  0.3713  0.1836 -0.4691
  569MOL0     H76769   2.029   0.899   4.704 -1.8500  0.9657  1.0806
  569MOL0     H76770   2.140   0.981   4.592 -0.7055  3.6542 -1.5844
  569MOL0     H76771   1.929   0.913   4.468 -2.7640  0.3729  1.0958
  569MOL0     H76772   1.940   1.090   4.479  2.9188  1.4382  1.7733
  569MOL0     H76773   1.715   1.026   4.531 -1.1856  0.7826  1.1751
  569MOL0     H76774   1.784   1.063   4.685  0.4182  0.5690 -0.6908
  569MOL0     H76775   1.706   0.639   4.739 -1.0225  0.3010  0.2503
  569MOL0     H76776   1.493   0.461   4.853 -0.8981  0.2512  0.8118
  569MOL0     H76777   1.411   0.434   4.703  1.0125 -2.1744 -0.1658
  569MOL0     H76778   1.584   0.434   4.717 -1.2273 -1.3500 -0.2286
  569MOL0     H76779   1.029   0.492   4.658  1.1695  0.4738  0.7937
  569MOL0     H76780   0.792   0.431   4.693 -2.4379  0.1273  3.1273
  569MOL0     H76781   0.574   0.425   4.668  2.6896 -1.4291  1.7369
  569MOL0     H76782   0.580   0.400   4.839  3.8985  2.5043 -0.2749
  569MOL0     H76783   0.356   0.525   4.857 -1.5361  0.8544 -1.3144
  569MOL0     H76784   0.366   0.557   4.681 -0.6666 -0.9707 -0.5763
  569MOL0     H76785   0.334   0.268   4.787 -2.5986  0.8723  1.7234
  569MOL0     H76786   0.369   0.327   4.626  2.9069 -3.8258  2.1419
  569MOL0     H76787   0.117   0.373   4.804 -1.8332  2.2056 -0.6068
  569MOL0     H76788   0.143   0.461   4.657 -1.3255 -0.8286  0.1525
  569MOL0     H76789   0.094   0.168   4.679  0.3746 -2.2115 -1.8682
  569MOL0     H76790   0.184   0.225   4.546 -3.6255 -4.7618 -1.2629
  569MOL0     H76791  -0.093   0.288   4.613  0.1314 -1.1263  1.5438
  569MOL0     H76792  -0.009   0.381   4.496  0.8761  0.4449  1.4154
  569MOL0     H76793  -0.030   0.071   4.485  2.0707 -0.4746  0.4074
  569MOL0     H76794   0.059   0.164   4.379 -0.7154 -2.0669 -1.7163
  569MOL0     H76795  -0.147   0.294   4.293  1.5167 -0.6042 -2.0104
  569MOL0     H76796  -0.243   0.202   4.409 -1.2159 -0.4771 -1.8858
  569MOL0     H76797   0.704   0.819   4.833  1.6868  1.8233  1.3308
  569MOL0     H76798   0.960   0.881   4.798  1.7009 -0.8374  1.8438
  569MOL0     H76799   1.311   0.918   4.685 -0.7581 -0.0831  2.8421
  569MOL0     H76800   1.508   1.016   4.660 -0.2074 -0.2444  1.5434
  569MOL0     H76801   3.466   0.948   5.192 -1.7750  0.0197 -0.0389
  569MOL0     H76802   3.681   1.051   5.173 -2.4381 -1.8994  1.8952
  569MOL0     H76803   4.013   1.172   4.896  0.2062  0.1559  0.6012
  569MOL0     H76804   4.240   1.210   4.893 -2.7106  1.3294 -1.7065
  569MOL0     H76805   4.450   1.169   5.049 -1.6374  0.4194 -2.7417
  569MOL0     H76806   4.465   1.301   4.925 -0.1369 -3.3523 -1.6644
  569MOL0     H76807   4.689   1.233   5.046 -1.3444 -1.8673 -0.2615
  569MOL0     H76808   4.617   1.310   5.183 -0.0375 -0.7902 -0.5956
  569MOL0     H76809   4.576   1.512   5.007  0.3801  1.3432 -0.0976
  569MOL0     H76810   4.668   1.401   4.898  0.7194 -0.7641  0.1170
  569MOL0     H76811   4.786   1.478   5.163 -2.9301  0.8682 -0.3236
  569MOL0     H76812   4.790   1.605   5.033  1.4039  0.8670 -0.0853
  569MOL0     H76813   5.109   1.391   4.898  1.4296 -1.6794  4.0655
  569MOL0     H76814   4.205   1.449   5.257 -0.0486  2.6036 -0.3177
  569MOL0     H76815   3.960   1.412   5.242 -0.0620  0.7027 -0.1346
  570MOL0     O76816   5.323  10.722   6.077 -0.4315  0.6560  0.8000
  570MOL0     C76817   5.383  10.634   6.008  0.2392 -0.4643 -0.1492
  570MOL0     O76818   5.347  10.503   5.998 -0.1173 -0.5203 -0.0966
  570MOL0     C76819   5.222  10.460   6.046  0.1028  0.8867  0.4090
  570MOL0     C76820   5.105  10.524   6.003 -0.4362 -0.2365  0.4970
  570MOL0     C76821   4.983  10.479   6.046  0.1241 -0.2743 -0.3918
  570MOL0     C76822   4.967  10.374   6.142 -0.1334 -0.0043 -0.5966
  570MOL0     O76823   4.849  10.328   6.186  0.7556  0.4605  0.1335
  570MOL0     C76824   4.729  10.409   6.157 -0.0585  0.6369 -0.1717
  570MOL0     C76825   4.611  10.324   6.216  0.6781 -0.1101  0.9775
  570MOL0     C76826   4.477  10.336   6.152 -0.0500 -0.2040 -0.1871
  570MOL0     C76827   4.379  10.251   6.217  0.0131  0.6993 -0.7875
  570MOL0     C76828   4.241  10.287   6.163  0.1645  0.2488 -0.7224
  570MOL0     C76829   4.136  10.193   6.234 -0.0416 -0.7476 -0.6765
  570MOL0     C76830   4.004  10.193   6.155  0.2866 -0.6601  0.0146
  570MOL0     C76831   3.895  10.105   6.219 -0.3913  0.5216  0.5293
  570MOL0     N76832   3.772  10.089   6.137  0.0430  0.0434 -0.0442
  570MOL0     C76833   3.767  10.063   5.999  0.0935  0.1169  0.5346
  570MOL0     C76834   3.633  10.064   5.960  0.1641 -0.1334 -1.1897
  570MOL0     C76835   3.576  10.046   5.818 -0.9061  0.4685 -0.3348
  570MOL0     C76836   3.422  10.072   5.815 -0.2928 -0.1703  0.0008
  570MOL0     C76837   3.366  10.095   5.674 -0.3551 -0.6940 -0.3233
  570MOL0     C76838   3.213  10.117   5.674  0.4980  0.1370  0.2409
  570MOL0     O76839   3.187  10.245   5.738  0.4791  0.4301 -0.2198
  570MOL0     C76840   3.062  10.285   5.763  0.8382 -0.4582 -0.1497
  570MOL0     C76841   2.948  10.215   5.721 -0.3137 -0.5914  0.5973
  570MOL0     C76842   2.824  10.271   5.723  0.0588 -0.8818 -0.2843
  570MOL0     C76843   2.706  10.189   5.684 -0.3157  0.7166 -0.0885
  570MOL0     C76844   2.806  10.409   5.772  0.4817  0.1576 -0.5997
  570MOL0     C76845   2.678  10.481   5.788  0.2132 -0.2607  0.1361
  570MOL0     O76846   2.688  10.623   5.775 -0.4287  0.1073 -0.0253
  570MOL0     C76847   2.591  10.715   5.824  0.0037  0.0895 -0.6655
  570MOL0     C76848   2.461  10.693   5.861  0.5516 -0.6938 -0.8494
  570MOL0     C76849   2.384  10.804   5.905  0.2000  0.5336  0.8329
  570MOL0     C76850   2.434  10.936   5.912 -0.2420  0.3799  0.8072
  570MOL0     O76851   2.345  11.030   5.951  1.0122 -0.3626  0.5918
  570MOL0     C76852   2.387  11.166   5.944 -0.4073  0.1387  0.5047
  570MOL0     C76853   2.271  11.256   5.978 -0.4330 -0.7970 -0.4248
  570MOL0     C76854   2.144  11.262   5.884 -0.8243 -0.4154 -0.3018
  570MOL0     C76855   2.044  11.153   5.904  0.4587  0.5832  0.0687
  570MOL0     C76856   1.932  11.165   5.793 -0.3899  0.7425  0.5090
  570MOL0     C76857   1.790  11.119   5.820 -0.4241 -0.9961 -0.5795
  570MOL0     C76858   1.714  11.210   5.918 -0.2489  0.4717 -1.1877
  570MOL0     C76859   1.562  11.201   5.902  0.2114  0.2839  0.5585
  570MOL0    Cl76860   1.499  11.349   5.965 -0.1193 -0.7413  0.4218
  570MOL0     C76861   2.570  10.951   5.887 -1.3777  0.5725  0.1704
  570MOL0     C76862   2.648  10.841   5.849  0.7150 -0.1696  0.5630
  570MOL0     O76863   2.577  10.421   5.811 -0.2855  0.5546 -0.0467
  570MOL0     C76864   2.914  10.476   5.822  0.1644 -0.6943  0.7096
  570MOL0     C76865   3.038  10.420   5.807  0.1367  0.2624  0.0184
  570MOL0     N76866   3.563  10.061   6.082  0.0210  0.0884 -0.3539
  570MOL0     N76867   3.648  10.082   6.186  0.7584 -0.8638  0.6340
  570MOL0     C76868   5.084  10.317   6.193 -0.8532 -0.0146 -0.8491
  570MOL0     C76869   5.210  10.359   6.147 -0.5335  0.4458 -0.2101
  570MOL0     C76870   5.511  10.668   5.957  0.1966  0.0663 -0.7169
  570MOL0     C76871   5.577  10.573   5.877  0.2735 -0.8354  0.3896
  570MOL0     C76872   5.692  10.610   5.827 -0.9044  0.0882  0.9714
  570MOL0     C76873   5.760  10.732   5.848  0.5363 -0.5674  0.2421
  570MOL0     O76874   5.880  10.756   5.779 -0.5016  0.0990  0.2297
  570MOL0     C76875   5.964  10.860   5.832  0.0541 -0.6482  0.2253
  570MOL0     C76876   6.100  10.884   5.758 -0.4051 -0.0925 -0.7047
  570MOL0     C76877   6.169  11.008   5.817  0.1282  0.4804 -0.2385
  570MOL0     C76878   6.299  11.045   5.741  0.4172  0.3805  0.4319
  570MOL0     C76879   6.271  11.074   5.604  0.9398  0.2379  0.5728
  570MOL0     C76880   6.258  11.092   5.483  0.2712  0.8170  0.6608
  570MOL0     C76881   5.703  10.818   5.945  0.4228 -0.4942 -0.0883
  570MOL0     C76882   5.573  10.787   5.999 -0.1136 -0.3296 -0.3466
  570MOL0     H76883   5.098  10.599   5.924  1.6301  1.9970  2.2652
  570MOL0     H76884   4.904  10.534   5.995 -0.4350  0.1454  0.8901
  570MOL0     H76885   4.735  10.507   6.206  0.6770  0.0788  0.8885
  570MOL0     H76886   4.725  10.424   6.049  0.4153  1.8181 -0.0373
  570MOL0     H76887   4.633  10.222   6.186 -3.2143  0.2394 -4.5891
  570MOL0     H76888   4.601  10.347   6.323 -3.8613 -0.0722  0.7566
  570MOL0     H76889   4.442  10.440   6.159 -0.2238 -0.0847 -2.2366
  570MOL0     H76890   4.489  10.329   6.044  0.7972 -0.2069 -0.1020
  570MOL0     H76891   4.408  10.146   6.205  0.4275  0.6486  0.5639
  570MOL0     H76892   4.380  10.257   6.326  1.9585 -2.0719 -0.5368
  570MOL0     H76893   4.216  10.393   6.158 -0.4857  0.2963  1.8242
  570MOL0     H76894   4.239  10.260   6.057  1.5739  0.0133 -0.7188
  570MOL0     H76895   4.160  10.087   6.229 -2.0192 -1.1985 -1.6627
  570MOL0     H76896   4.126  10.225   6.338 -1.5351  2.0471 -1.5870
  570MOL0     H76897   3.957  10.292   6.147 -1.9967 -1.5822  1.1102
  570MOL0     H76898   4.013  10.153   6.053 -1.8432 -0.8050 -0.1766
  570MOL0     H76899   3.854  10.152   6.310  0.1467  5.1346 -1.3475
  570MOL0     H76900   3.939  10.011   6.251 -0.7491  0.7630  1.8135
  570MOL0     H76901   3.848  10.055   5.927  1.0709  2.6080  1.2605
  570MOL0     H76902   3.616  10.113   5.742  0.9424 -1.3492 -1.0688
  570MOL0     H76903   3.606   9.955   5.767 -0.3707  1.9264 -2.7556
  570MOL0     H76904   3.405  10.157   5.882  0.5226 -0.1605  0.2119
  570MOL0     H76905   3.370   9.984   5.854 -1.3641  0.1861 -0.6038
  570MOL0     H76906   3.391  10.008   5.612 -1.1961 -0.7646 -0.5756
  570MOL0     H76907   3.416  10.183   5.631 -1.2534  1.2392  2.3205
  570MOL0     H76908   3.164  10.038   5.731 -0.1483  0.6376  0.3976
  570MOL0     H76909   3.185  10.103   5.569 -3.3840 -0.2788  1.1724
  570MOL0     H76910   2.946  10.114   5.682 -1.1404 -1.6644  3.2242
  570MOL0     H76911   2.635  10.235   5.614  0.0925 -0.6273 -1.4443
  570MOL0     H76912   2.734  10.086   5.659  0.0868  0.6524  0.6128
  570MOL0     H76913   2.649  10.173   5.776  1.7682 -0.1660  1.1191
  570MOL0     H76914   2.415  10.595   5.863 -1.9924  0.3905  1.8386
  570MOL0     H76915   2.280  10.786   5.930  0.2447 -1.3557 -0.1633
  570MOL0     H76916   2.467  11.165   6.018  1.0705 -0.8327 -1.0166
  570MOL0     H76917   2.419  11.182   5.840 -2.1207  3.2916  0.3500
  570MOL0     H76918   2.250  11.234   6.084 -1.2595  1.2658 -0.1007
  570MOL0     H76919   2.324  11.351   5.968 -2.9652  0.7163 -0.3618
  570MOL0     H76920   2.173  11.261   5.779 -1.0720  1.2486 -0.4051
  570MOL0     H76921   2.081  11.351   5.896  0.9380  0.8955 -0.3724
  570MOL0     H76922   2.084  11.053   5.886  2.7571  1.4214  0.2381
  570MOL0     H76923   2.007  11.146   6.006 -1.5104  1.3128 -0.5502
  570MOL0     H76924   1.962  11.096   5.714 -0.1799  1.2738  0.1132
  570MOL0     H76925   1.928  11.266   5.751 -0.0144  0.5853  0.0889
  570MOL0     H76926   1.738  11.123   5.724  1.6517  0.5768 -1.7379
  570MOL0     H76927   1.806  11.020   5.862 -1.3352  0.7310  4.4433
  570MOL0     H76928   1.742  11.316   5.912  1.3693  0.0844 -0.9331
  570MOL0     H76929   1.741  11.185   6.020  0.2558  1.5046 -1.0473
  570MOL0     H76930   1.529  11.118   5.965  2.7835 -0.2374  1.3259
  570MOL0     H76931   1.535  11.196   5.796  0.8222 -0.6778  0.4367
  570MOL0     H76932   2.615  11.050   5.888  1.6841 -0.7172  0.0608
  570MOL0     H76933   2.752  10.859   5.823  0.2063 -0.1353 -1.5743
  570MOL0     H76934   2.913  10.575   5.867 -1.0165  0.2056 -1.1854
  570MOL0     H76935   3.129  10.477   5.825  1.6611 -0.8590 -3.3493
  570MOL0     H76936   5.089  10.233   6.262  0.5870  1.2963  0.7263
  570MOL0     H76937   5.301  10.309   6.177 -0.7195 -0.5971 -1.3186
  570MOL0     H76938   5.536  10.477   5.849 -0.6828  0.1366 -1.7644
  570MOL0     H76939   5.738  10.539   5.759 -2.7478  0.1633 -0.4381
  570MOL0     H76940   5.915  10.958   5.830 -0.3149 -0.8472 -0.5873
  570MOL0     H76941   5.996  10.833   5.933  1.2079 -2.9275 -0.6775
  570MOL0     H76942   6.075  10.895   5.652 -2.9587 -2.5895 -0.4747
  570MOL0     H76943   6.169  10.800   5.770 -1.7245 -1.0564  0.4280
  570MOL0     H76944   6.181  10.977   5.922  0.0604  0.3404 -0.2714
  570MOL0     H76945   6.096  11.089   5.820 -2.3348 -1.6118 -0.1917
  570MOL0     H76946   6.372  10.964   5.740 -0.0661 -0.0697  1.0734
  570MOL0     H76947   6.340  11.133   5.792 -0.2105  1.6156 -1.1342
  570MOL0     H76948   6.234  11.101   5.378  2.5275 -3.0645 -0.3868
  570MOL0     H76949   5.745  10.912   5.979  2.2666 -1.7817  1.3862
  570MOL0     H76950   5.531  10.856   6.071  2.3517  1.1237 -0.2196
  571MOL0     O76951   6.694   0.030   5.229  0.4979  0.5582 -0.0571
  571MOL0     C76952   6.797  -0.030   5.187  0.3836 -0.4736 -0.4755
  571MOL0     O76953   6.828  -0.159   5.207  0.8179 -0.2402  0.1802
  571MOL0     C76954   6.752  -0.253   5.293 -0.3250  0.1731  0.3564
  571MOL0     C76955   6.805  -0.383   5.286 -0.0965 -0.3387 -1.1884
  571MOL0     C76956   6.737  -0.485   5.346  0.0466  0.1567  0.1526
  571MOL0     C76957   6.624  -0.464   5.425 -0.0161 -0.0540  0.3105
  571MOL0     O76958   6.598  -0.578   5.496  0.3416 -0.4685  0.1865
  571MOL0     C76959   6.477  -0.588   5.561  0.2153 -0.0495  0.2098
  571MOL0     C76960   6.380  -0.632   5.446 -0.0121  0.7485 -0.2350
  571MOL0     C76961   6.232  -0.628   5.482 -0.5321 -0.5791 -0.2630
  571MOL0     C76962   6.145  -0.734   5.417  0.4591 -0.1940  0.1276
  571MOL0     C76963   6.002  -0.735   5.470  0.2200  0.4962  0.1515
  571MOL0     C76964   5.911  -0.639   5.396  0.1222  0.5786 -1.1499
  571MOL0     C76965   5.766  -0.647   5.441  0.5543  0.8897  0.8945
  571MOL0     C76966   5.696  -0.788   5.421 -1.3622  0.3732  0.6952
  571MOL0     N76967   5.562  -0.786   5.476 -0.6334 -0.0508 -0.7752
  571MOL0     C76968   5.459  -0.691   5.470  0.7577  0.1009  0.9297
  571MOL0     C76969   5.378  -0.721   5.569  0.2563  0.9124  0.2308
  571MOL0     C76970   5.261  -0.635   5.596 -0.2078 -0.1371 -0.0510
  571MOL0     C76971   5.125  -0.675   5.531 -0.0193 -0.2354 -0.9010
  571MOL0     C76972   5.067  -0.797   5.602  0.2606  0.6977 -0.2533
  571MOL0     C76973   4.917  -0.813   5.595  1.2318 -0.4238  0.5603
  571MOL0     O76974   4.849  -0.736   5.699 -0.3868 -0.2649 -0.5454
  571MOL0     C76975   4.714  -0.737   5.698 -0.2690 -0.3898  0.5931
  571MOL0     C76976   4.650  -0.643   5.781  0.4472  0.9533  0.4388
  571MOL0     C76977   4.511  -0.645   5.791 -0.6976 -0.7144  0.6737
  571MOL0     C76978   4.451  -0.548   5.885 -0.9775  0.6046 -0.3706
  571MOL0     C76979   4.432  -0.740   5.722  0.2961 -0.2053 -0.3156
  571MOL0     C76980   4.275  -0.755   5.732 -0.4999 -0.0880  1.0550
  571MOL0     O76981   4.218  -0.876   5.702 -0.5121  0.2114  0.1435
  571MOL0     C76982   4.086  -0.883   5.691 -0.5122  0.5505 -0.3277
  571MOL0     C76983   4.010  -0.925   5.804  0.5902  0.3658  0.6899
  571MOL0     C76984   3.869  -0.931   5.796 -0.4734 -0.0183  0.1204
  571MOL0     C76985   3.804  -0.896   5.675  0.3839  0.0586  0.8416
  571MOL0     O76986   3.670  -0.913   5.671  0.2029 -0.1130  0.3059
  571MOL0     C76987   3.585  -0.824   5.755  0.3909  0.4160 -0.2170
  571MOL0     C76988   3.434  -0.798   5.712 -1.2976  0.6783 -0.2922
  571MOL0     C76989   3.426  -0.703   5.590  0.3453 -0.5746  0.5352
  571MOL0     C76990   3.281  -0.666   5.558 -0.1921 -0.7421  0.9641
  571MOL0     C76991   3.276  -0.549   5.454 -0.6914  0.4092 -0.5906
  571MOL0     C76992   3.288  -0.596   5.312 -0.8087 -0.1235  0.2097
  571MOL0     C76993   3.268  -0.472   5.223  0.0086 -0.3804 -0.4955
  571MOL0     C76994   3.346  -0.479   5.088  0.2011 -0.4042 -0.2615
  571MOL0    Cl76995   3.317  -0.633   4.998  0.2105 -0.2609  0.1459
  571MOL0     C76996   3.881  -0.863   5.563 -0.0618 -0.2586  0.0346
  571MOL0     C76997   4.028  -0.855   5.570  0.4259  1.1919  0.3592
  571MOL0     O76998   4.213  -0.656   5.755 -0.5807 -0.1850  0.4340
  571MOL0     C76999   4.492  -0.824   5.626 -0.6598 -0.1329 -0.0222
  571MOL0     C77000   4.630  -0.812   5.614 -0.4606 -0.1255  0.0474
  571MOL0     N77001   5.436  -0.828   5.638  0.9284 -0.2647 -0.3458
  571MOL0     N77002   5.539  -0.867   5.584 -0.6887 -0.5082 -0.1517
  571MOL0     C77003   6.568  -0.331   5.433 -0.4310 -0.0843  0.3541
  571MOL0     C77004   6.637  -0.224   5.370  0.6173 -0.8960  0.6732
  571MOL0     C77005   6.899   0.053   5.123 -0.0346 -0.6979 -0.4853
  571MOL0     C77006   6.886   0.195   5.095 -0.0049  0.3012  0.3138
  571MOL0     C77007   6.990   0.270   5.047 -0.0458  0.3578  0.2645
  571MOL0     C77008   7.119   0.203   5.025 -0.4197 -1.0479 -0.1298
  571MOL0     O77009   7.222   0.282   4.975  0.0784 -0.0561 -0.2900
  571MOL0     C77010   7.242   0.290   4.834  0.0283 -0.5411  0.1526
  571MOL0     C77011   7.310   0.422   4.795  0.4474 -0.1582 -0.1591
  571MOL0     C77012   7.456   0.417   4.827  0.4699 -0.3112  0.1303
  571MOL0     C77013   7.533   0.550   4.789  0.1313 -0.2768 -0.2586
  571MOL0     C77014   7.653   0.556   4.876 -0.4311  0.2355 -0.2457
  571MOL0     C77015   7.744   0.579   4.952 -0.4953  0.8761  0.4734
  571MOL0     C77016   7.131   0.066   5.047 -0.5195 -0.5258 -0.3517
  571MOL0     C77017   7.026  -0.009   5.096 -0.2744 -0.1429  0.2355
  571MOL0     H77018   6.899  -0.415   5.241  0.0096 -0.1936 -1.0707
  571MOL0     H77019   6.791  -0.579   5.349 -0.8464 -0.3592  0.8740
  571MOL0     H77020   6.484  -0.660   5.643  2.2722 -0.5439 -0.3382
  571MOL0     H77021   6.446  -0.502   5.620  0.4795 -1.2656  2.2271
  571MOL0     H77022   6.384  -0.568   5.357  0.3409  3.0941  1.3705
  571MOL0     H77023   6.401  -0.736   5.418 -2.6760  0.6219 -2.1592
  571MOL0     H77024   6.221  -0.629   5.591 -1.5531 -4.9722 -0.1961
  571MOL0     H77025   6.189  -0.531   5.456  0.9029  0.0730 -0.2558
  571MOL0     H77026   6.153  -0.727   5.308  2.1474 -2.1602  0.0713
  571MOL0     H77027   6.194  -0.826   5.452  1.2700 -0.0829 -0.6777
  571MOL0     H77028   5.969  -0.839   5.459  0.7986  0.4097 -0.9304
  571MOL0     H77029   5.992  -0.707   5.575 -1.0340  0.3454  0.0805
  571MOL0     H77030   5.951  -0.542   5.423  0.9706  0.4028 -1.7514
  571MOL0     H77031   5.923  -0.661   5.289  1.8698 -1.6448 -0.5764
  571MOL0     H77032   5.755  -0.607   5.542 -1.7031 -1.6938  1.8033
  571MOL0     H77033   5.709  -0.576   5.379  1.8795  1.0402 -0.1956
  571MOL0     H77034   5.771  -0.857   5.461  1.1882  2.5016 -0.0676
  571MOL0     H77035   5.682  -0.809   5.314  1.4702 -2.3806  0.7256
  571MOL0     H77036   5.455  -0.604   5.406  0.9118  0.1496  0.9850
  571MOL0     H77037   5.247  -0.631   5.705 -1.1789  1.1330 -0.1865
  571MOL0     H77038   5.292  -0.536   5.562  0.7454 -0.9515 -1.6445
  571MOL0     H77039   5.141  -0.690   5.424 -0.3929 -0.4906 -0.9220
  571MOL0     H77040   5.046  -0.600   5.540  0.5518  0.1357  2.1047
  571MOL0     H77041   5.096  -0.804   5.708 -0.2573 -0.6064 -0.1783
  571MOL0     H77042   5.106  -0.885   5.551 -3.0152 -1.0142 -0.0795
  571MOL0     H77043   4.888  -0.918   5.610 -2.8827  0.6140  1.0151
  571MOL0     H77044   4.886  -0.784   5.495 -1.6579 -0.0295  1.4796
  571MOL0     H77045   4.717  -0.586   5.845  3.0481 -1.0529 -0.3319
  571MOL0     H77046   4.529  -0.499   5.944 -1.4463  1.8473 -0.7607
  571MOL0     H77047   4.411  -0.461   5.832 -1.2821  1.0348  0.5483
  571MOL0     H77048   4.378  -0.596   5.951  1.9765 -0.5075  2.3658
  571MOL0     H77049   4.062  -0.954   5.895 -0.6360 -1.7842  0.7754
  571MOL0     H77050   3.809  -0.977   5.875 -0.4410 -1.2391 -0.5303
  571MOL0     H77051   3.586  -0.868   5.856  2.0473 -0.2388 -0.4909
  571MOL0     H77052   3.639  -0.730   5.771 -0.4711  1.0511 -0.9744
  571MOL0     H77053   3.393  -0.897   5.687 -0.6231  0.3703 -0.2124
  571MOL0     H77054   3.373  -0.750   5.789 -0.6776 -2.6574  2.5727
  571MOL0     H77055   3.469  -0.759   5.506 -1.0734 -3.3088  1.4928
  571MOL0     H77056   3.490  -0.615   5.599 -0.3425  0.2034 -1.6479
  571MOL0     H77057   3.220  -0.750   5.525  1.5286 -1.2524 -1.1247
  571MOL0     H77058   3.232  -0.643   5.653  0.7894  2.0257  0.8838
  571MOL0     H77059   3.349  -0.468   5.465 -1.1813  1.0249 -1.7810
  571MOL0     H77060   3.180  -0.501   5.475  0.3028  2.4035 -0.3204
  571MOL0     H77061   3.386  -0.640   5.294 -0.2469  1.2503 -0.2679
  571MOL0     H77062   3.205  -0.664   5.294  0.4645 -2.0344  1.2566
  571MOL0     H77063   3.293  -0.378   5.273  0.2493  0.2944 -1.8263
  571MOL0     H77064   3.162  -0.470   5.197  0.0630 -1.9393 -0.9172
  571MOL0     H77065   3.453  -0.470   5.109  0.0916  0.1687  0.0845
  571MOL0     H77066   3.315  -0.389   5.033  0.1493 -1.0530 -1.3104
  571MOL0     H77067   3.834  -0.850   5.466 -1.4572 -2.2370  0.3805
  571MOL0     H77068   4.087  -0.822   5.485 -0.2488  0.4118 -0.4312
  571MOL0     H77069   4.442  -0.898   5.564 -0.0355 -0.2095 -0.4375
  571MOL0     H77070   4.666  -0.875   5.533 -1.3552 -2.4292  1.3735
  571MOL0     H77071   6.470  -0.330   5.481 -0.1449  2.0190  1.0126
  571MOL0     H77072   6.588  -0.127   5.372 -1.9096 -1.9295 -2.3666
  571MOL0     H77073   6.790   0.241   5.116 -0.2162  0.2394 -0.4722
  571MOL0     H77074   6.969   0.372   5.016  0.5645  0.3174 -0.2866
  571MOL0     H77075   7.310   0.208   4.810  1.2261  0.4405  0.1010
  571MOL0     H77076   7.148   0.289   4.777 -1.8783 -1.1614  3.1236
  571MOL0     H77077   7.259   0.501   4.851  0.0134 -0.6854  0.2104
  571MOL0     H77078   7.296   0.435   4.688  0.2752  2.6639  0.1278
  571MOL0     H77079   7.498   0.327   4.779 -0.5609  0.0861 -1.6069
  571MOL0     H77080   7.471   0.396   4.933  0.0200 -0.9459  0.0735
  571MOL0     H77081   7.466   0.636   4.795  1.8653  1.4804 -3.1303
  571MOL0     H77082   7.547   0.557   4.680 -1.1319  0.3906 -0.3968
  571MOL0     H77083   7.834   0.601   5.006 -0.4194  2.5988 -0.2960
  571MOL0     H77084   7.223   0.014   5.021 -0.5913  0.1751 -2.2115
  571MOL0     H77085   7.044  -0.114   5.112  0.0989  0.1833  2.1872
  572MOL0     O77086   3.900   4.280   3.593 -0.4725  0.0429 -0.3847
  572MOL0     C77087   3.995   4.299   3.668  0.8510  0.5719 -0.3981
  572MOL0     O77088   3.985   4.336   3.794  0.0062 -0.2558 -0.7495
  572MOL0     C77089   3.863   4.319   3.861 -0.4017 -0.7768  0.1594
  572MOL0     C77090   3.845   4.203   3.947 -0.1255  0.0587 -0.7313
  572MOL0     C77091   3.730   4.184   4.021 -0.5339  0.4154  0.1486
  572MOL0     C77092   3.621   4.266   4.002  1.1501  0.2400 -0.6689
  572MOL0     O77093   3.497   4.247   4.065  0.4181  0.5168 -0.0381
  572MOL0     C77094   3.489   4.120   4.133  0.0815  0.4003  0.2282
  572MOL0     C77095   3.342   4.086   4.171 -0.0013  0.4764 -0.1017
  572MOL0     C77096   3.281   4.198   4.256  0.3923 -0.3683 -0.3575
  572MOL0     C77097   3.138   4.167   4.302  0.4970 -0.0473 -0.1297
  572MOL0     C77098   3.084   4.276   4.392 -0.0325 -0.1231  0.5970
  572MOL0     C77099   2.939   4.267   4.445  0.5029  0.5307  0.0396
  572MOL0     C77100   2.918   4.137   4.519  0.1203  0.0842  0.7183
  572MOL0     C77101   3.007   4.131   4.645  0.1690 -2.0108 -0.1118
  572MOL0     N77102   2.960   4.237   4.746 -0.5061 -0.5408  0.2218
  572MOL0     C77103   2.837   4.244   4.808 -0.1398 -0.1579  0.6867
  572MOL0     C77104   2.854   4.361   4.882 -0.0739  0.4712 -0.0918
  572MOL0     C77105   2.757   4.431   4.978  0.1635 -0.0524 -0.4078
  572MOL0     C77106   2.615   4.442   4.921 -0.9204  0.4264  0.0950
  572MOL0     C77107   2.531   4.532   5.007 -0.7951 -0.4935 -0.0682
  572MOL0     C77108   2.390   4.526   4.954  0.5880 -0.5321  0.3812
  572MOL0     O77109   2.313   4.613   5.038 -0.3290 -0.2931 -0.4046
  572MOL0     C77110   2.191   4.632   4.982  0.3863  0.9931  0.5212
  572MOL0     C77111   2.164   4.738   4.895  0.3767  0.0049  0.1734
  572MOL0     C77112   2.042   4.755   4.828 -0.6514 -0.2538  0.1255
  572MOL0     C77113   2.031   4.858   4.718 -0.7137  0.9017 -0.2858
  572MOL0     C77114   1.938   4.669   4.865  0.4317  0.2965 -0.4598
  572MOL0     C77115   1.795   4.682   4.807 -0.8478  0.1548  0.6746
  572MOL0     O77116   1.755   4.794   4.734  0.2894  0.1065  0.5497
  572MOL0     C77117   1.622   4.794   4.696  0.7678 -0.3253  0.0922
  572MOL0     C77118   1.517   4.793   4.789 -0.4415  0.1119 -0.8523
  572MOL0     C77119   1.387   4.778   4.745  0.7000 -0.3949 -0.1090
  572MOL0     C77120   1.352   4.772   4.607 -0.0700  1.1793 -0.4510
  572MOL0     O77121   1.223   4.768   4.562 -0.4848 -0.0348 -0.1563
  572MOL0     C77122   1.130   4.680   4.624 -0.4897  0.0296 -0.3427
  572MOL0     C77123   1.111   4.567   4.524  0.3260  0.9086  0.0245
  572MOL0     C77124   1.012   4.458   4.585  0.4143 -0.4985 -0.2752
  572MOL0     C77125   0.920   4.402   4.470 -0.1146 -0.2032  0.4939
  572MOL0     C77126   0.830   4.275   4.518  0.4396 -0.0714  0.1479
  572MOL0     C77127   0.776   4.212   4.390  0.2496 -0.5842  1.3429
  572MOL0     C77128   0.677   4.104   4.408  0.3007  0.1392  0.2955
  572MOL0     C77129   0.620   4.056   4.274  0.8790  0.8238 -0.1965
  572MOL0    Cl77130   0.493   3.926   4.306 -0.0569 -0.0959  0.0051
  572MOL0     C77131   1.452   4.773   4.510 -0.5414 -0.2662 -0.6514
  572MOL0     C77132   1.584   4.781   4.560 -0.6297 -0.9587 -1.7390
  572MOL0     O77133   1.727   4.584   4.832  0.5244  0.1290  0.2616
  572MOL0     C77134   1.956   4.578   4.969 -0.1052  0.1465 -0.8593
  572MOL0     C77135   2.081   4.554   5.020 -0.2846  0.0184  0.6981
  572MOL0     N77136   2.979   4.419   4.859 -0.0371  0.2205 -0.1252
  572MOL0     N77137   3.046   4.331   4.787  0.3868  0.0205  0.4222
  572MOL0     C77138   3.629   4.374   3.914 -0.6613  0.0730  0.9469
  572MOL0     C77139   3.752   4.398   3.849  0.1510 -0.9401  0.8674
  572MOL0     C77140   4.128   4.328   3.614 -0.5733 -0.4925  0.2806
  572MOL0     C77141   4.235   4.371   3.700 -0.2971  0.3962  0.4723
  572MOL0     C77142   4.356   4.401   3.643 -0.2792  0.5773  0.5725
  572MOL0     C77143   4.381   4.388   3.509  0.0268 -0.0886 -0.3951
  572MOL0     O77144   4.516   4.416   3.476  0.2769  0.6587  0.5143
  572MOL0     C77145   4.561   4.395   3.346  0.7748  0.3143  0.4800
  572MOL0     C77146   4.682   4.488   3.329 -0.1000 -0.4251 -0.1691
  572MOL0     C77147   4.778   4.428   3.233 -0.3125  0.1655  0.1926
  572MOL0     C77148   4.898   4.526   3.227  0.1700 -0.6616 -0.1326
  572MOL0     C77149   4.861   4.641   3.140 -0.0266  0.3679 -0.6791
  572MOL0     C77150   4.841   4.741   3.084 -0.0702  0.0027  0.2852
  572MOL0     C77151   4.279   4.351   3.421  0.3332 -0.0185 -0.0616
  572MOL0     C77152   4.156   4.318   3.469 -0.2822 -0.3938 -0.1873
  572MOL0     H77153   3.932   4.141   3.963 -0.8173 -0.4039  1.6383
  572MOL0     H77154   3.730   4.111   4.102 -0.5900  1.8592  1.4932
  572MOL0     H77155   3.516   4.030   4.076  0.9093  0.9207 -0.2239
  572MOL0     H77156   3.557   4.123   4.218  1.2373  2.0279 -0.7017
  572MOL0     H77157   3.282   4.066   4.082  1.0191 -1.7776 -0.3547
  572MOL0     H77158   3.347   3.995   4.231  2.8419  1.7161  1.7585
  572MOL0     H77159   3.351   4.205   4.340  0.7318 -0.0463 -0.6661
  572MOL0     H77160   3.280   4.287   4.193  0.4275 -1.3888 -1.8498
  572MOL0     H77161   3.071   4.148   4.218 -0.8657 -2.1743  1.3351
  572MOL0     H77162   3.135   4.072   4.356 -0.0421  0.9302  1.6499
  572MOL0     H77163   3.148   4.297   4.478  0.1594  0.9822  0.1910
  572MOL0     H77164   3.094   4.365   4.330  2.0982 -2.3805 -2.6488
  572MOL0     H77165   2.926   4.347   4.520  1.0708  0.1827  0.5214
  572MOL0     H77166   2.865   4.276   4.366  0.4705 -2.5964 -0.3863
  572MOL0     H77167   2.811   4.141   4.541 -0.2747  0.8908 -1.1569
  572MOL0     H77168   2.927   4.041   4.467 -2.1827  0.4986 -0.5716
  572MOL0     H77169   3.113   4.137   4.621  0.2338 -2.8999 -0.0646
  572MOL0     H77170   2.992   4.036   4.698 -2.4928 -0.4495  2.2147
  572MOL0     H77171   2.761   4.167   4.820 -0.3374  0.0015  0.4619
  572MOL0     H77172   2.736   4.365   5.063 -0.5061 -1.8733 -1.9128
  572MOL0     H77173   2.793   4.529   5.008 -0.2595  0.2388 -0.8360
  572MOL0     H77174   2.571   4.342   4.922  1.5400 -0.7099  1.0740
  572MOL0     H77175   2.618   4.466   4.814  1.5024  0.6213  0.1606
  572MOL0     H77176   2.574   4.632   5.004  4.3291 -2.2795  2.0057
  572MOL0     H77177   2.537   4.495   5.110  2.6446  1.6233  0.6412
  572MOL0     H77178   2.366   4.420   4.972  2.8826 -0.8884  1.7734
  572MOL0     H77179   2.376   4.553   4.850 -1.7147  1.3188  1.0850
  572MOL0     H77180   2.251   4.800   4.878  1.6164 -2.1541 -1.9791
  572MOL0     H77181   1.982   4.810   4.633 -0.9091 -0.5831  0.6390
  572MOL0     H77182   1.979   4.945   4.760 -1.1025  0.1956  0.7304
  572MOL0     H77183   2.131   4.882   4.680 -1.4081  0.5378 -2.4529
  572MOL0     H77184   1.535   4.819   4.893  2.8233 -0.4474 -1.1643
  572MOL0     H77185   1.303   4.786   4.813  1.3843 -0.8744  0.8164
  572MOL0     H77186   1.169   4.631   4.714 -2.4850 -0.1926  0.4583
  572MOL0     H77187   1.039   4.734   4.650  1.0429  1.9321  1.4403
  572MOL0     H77188   1.064   4.610   4.435  0.0465 -1.6344 -1.1750
  572MOL0     H77189   1.202   4.519   4.486 -0.0901  1.2820 -1.5370
  572MOL0     H77190   0.944   4.504   4.657 -1.0956 -2.4439 -0.3735
  572MOL0     H77191   1.079   4.387   4.634 -0.2559  1.1054  3.2362
  572MOL0     H77192   0.859   4.484   4.430  2.1251  0.8043 -1.0462
  572MOL0     H77193   0.984   4.371   4.387 -0.7082 -2.8153  0.9033
  572MOL0     H77194   0.752   4.299   4.591 -1.5447 -1.2522 -1.4588
  572MOL0     H77195   0.898   4.198   4.555  1.3131  0.2888 -0.6622
  572MOL0     H77196   0.726   4.299   4.345 -2.4281 -1.3971  2.5663
  572MOL0     H77197   0.864   4.188   4.329 -0.5906  3.2371 -1.8835
  572MOL0     H77198   0.597   4.147   4.469 -2.5653 -0.9508 -2.4643
  572MOL0     H77199   0.717   4.023   4.468  2.0409 -0.1651 -1.1930
  572MOL0     H77200   0.691   3.994   4.219 -0.6386  0.7504 -2.2001
  572MOL0     H77201   0.580   4.134   4.208  2.4490  0.6743 -1.3661
  572MOL0     H77202   1.425   4.762   4.406 -1.6825 -4.0563 -0.0941
  572MOL0     H77203   1.665   4.777   4.487  1.3898 -0.0615  0.3431
  572MOL0     H77204   1.880   4.519   5.019  0.0811  2.1306  2.0020
  572MOL0     H77205   2.108   4.478   5.093  0.2380 -1.3668 -0.8500
  572MOL0     H77206   3.546   4.440   3.891 -1.4232 -1.3107 -0.5374
  572MOL0     H77207   3.758   4.471   3.768 -2.5302 -0.3179  1.1279
  572MOL0     H77208   4.232   4.383   3.807  4.0958  2.0020  0.6116
  572MOL0     H77209   4.436   4.442   3.704  1.5047 -1.6181 -0.1697
  572MOL0     H77210   4.593   4.291   3.330 -0.6559 -0.4342  2.0996
  572MOL0     H77211   4.493   4.432   3.269  2.0915  0.9584 -0.3956
  572MOL0     H77212   4.731   4.483   3.427  0.6220  0.7247 -0.4551
  572MOL0     H77213   4.645   4.588   3.305  0.1656  0.0927  1.4917
  572MOL0     H77214   4.738   4.395   3.136 -0.2611 -2.0549  0.8602
  572MOL0     H77215   4.820   4.338   3.278  1.1020 -0.5336 -2.3039
  572MOL0     H77216   4.977   4.466   3.183  2.2361  0.7849  1.4206
  572MOL0     H77217   4.928   4.560   3.327 -0.3081 -1.5554  0.3250
  572MOL0     H77218   4.824   4.830   3.027  0.5295  0.0221  0.1281
  572MOL0     H77219   4.300   4.335   3.316  0.1216 -2.8637  0.2657
  572MOL0     H77220   4.073   4.297   3.401 -1.5619  2.0097  0.5345
  573MOL0     O77221   0.700   2.185   6.897 -0.4856 -0.1879  0.3816
  573MOL0     C77222   0.773   2.137   6.985 -0.1180 -0.0329  0.6103
  573MOL0     O77223   0.734   2.053   7.078  0.3879  0.0594  0.0758
  573MOL0     C77224   0.609   2.016   7.116 -0.6053  0.6036 -0.6785
  573MOL0     C77225   0.510   1.983   7.023  0.4828  0.7775 -0.5259
  573MOL0     C77226   0.379   1.953   7.070 -0.5359 -0.4612  0.4454
  573MOL0     C77227   0.356   1.941   7.208  0.7172 -0.4698  0.7016
  573MOL0     O77228   0.231   1.896   7.239 -0.0917 -0.2421 -0.3150
  573MOL0     C77229   0.178   1.931   7.369 -0.6242 -0.3515 -0.8773
  573MOL0     C77230   0.051   1.850   7.389 -0.7830  0.0681  0.1105
  573MOL0     C77231   0.062   1.696   7.389  0.3072 -0.3575 -0.5100
  573MOL0     C77232  -0.074   1.638   7.377  0.1412  0.3673 -0.1657
  573MOL0     C77233  -0.060   1.486   7.392  0.2251 -0.2017 -0.0138
  573MOL0     C77234  -0.197   1.416   7.398 -0.1898  0.1142 -0.6551
  573MOL0     C77235  -0.183   1.276   7.467 -0.3788 -0.4387 -0.7069
  573MOL0     C77236  -0.301   1.186   7.444 -0.1069 -0.4486  0.8019
  573MOL0     N77237  -0.322   1.157   7.301  0.2478 -0.0959 -0.8161
  573MOL0     C77238  -0.437   1.179   7.229 -0.7832 -0.3790  0.3539
  573MOL0     C77239  -0.409   1.161   7.099  0.1560 -0.8480 -0.7198
  573MOL0     C77240  -0.505   1.156   6.983 -0.6996 -0.2784 -0.5459
  573MOL0     C77241  -0.651   1.171   7.018 -0.5952 -1.0240  0.4792
  573MOL0     C77242  -0.710   1.042   7.079 -0.3893  0.7167 -0.8904
  573MOL0     C77243  -0.849   1.011   7.033  0.5626  0.3689  1.1391
  573MOL0     O77244  -0.939   1.106   7.099  0.1262  0.0486  0.7331
  573MOL0     C77245  -1.064   1.088   7.055  0.3001 -0.1758  0.4842
  573MOL0     C77246  -1.160   1.178   7.095  0.7155 -0.1707  0.1177
  573MOL0     C77247  -1.291   1.184   7.041  0.1468 -0.3658  1.3899
  573MOL0     C77248  -1.386   1.296   7.063 -0.5500 -0.8212 -0.5737
  573MOL0     C77249  -1.329   1.078   6.946  0.4276  0.1184 -0.4683
  573MOL0     C77250  -1.454   1.080   6.865  0.0916  0.4550 -0.3370
  573MOL0     O77251  -1.427   1.039   6.748  0.7289 -0.1632  0.0791
  573MOL0     C77252  -1.532   1.017   6.656 -0.3032  0.0636 -0.1310
  573MOL0     C77253  -1.596   1.123   6.590 -0.1093 -0.2713 -0.0242
  573MOL0     C77254  -1.679   1.101   6.478 -0.2144  0.4711  0.1095
  573MOL0     C77255  -1.717   0.969   6.454 -0.3403  0.5914  0.1950
  573MOL0     O77256  -1.806   0.953   6.347  0.2049  0.5230 -0.2589
  573MOL0     C77257  -1.879   0.822   6.337  0.5348 -0.1502  0.7154
  573MOL0     C77258  -1.980   0.852   6.216  0.2089 -0.2448  0.1136
  573MOL0     C77259  -2.095   0.753   6.206 -0.6066 -0.8273 -0.2493
  573MOL0     C77260  -2.188   0.755   6.325 -0.0464 -0.2897 -0.3163
  573MOL0     C77261  -2.298   0.648   6.314  0.2403  0.1388 -0.2131
  573MOL0     C77262  -2.390   0.650   6.442  0.1785  0.2474  0.5325
  573MOL0     C77263  -2.506   0.541   6.434  0.0425 -0.4878 -0.0057
  573MOL0     C77264  -2.567   0.516   6.572  0.9306 -0.4935  0.8603
  573MOL0    Cl77265  -2.459   0.437   6.692 -0.1713 -0.3590 -0.1725
  573MOL0     C77266  -1.659   0.865   6.535 -0.7672  0.4779 -0.2704
  573MOL0     C77267  -1.560   0.889   6.629 -0.8054  0.1595  0.3322
  573MOL0     O77268  -1.569   1.108   6.912  0.2179  0.7441 -0.1148
  573MOL0     C77269  -1.231   0.984   6.910  0.1833  0.2930 -0.1119
  573MOL0     C77270  -1.106   0.983   6.968 -0.2271 -0.1957 -0.2015
  573MOL0     N77271  -0.275   1.125   7.099 -0.0845  0.0481 -0.0895
  573MOL0     N77272  -0.224   1.118   7.216 -0.6212 -0.3962  0.2218
  573MOL0     C77273   0.450   1.977   7.296  0.2803  0.4271  0.2260
  573MOL0     C77274   0.576   2.000   7.252  0.0566 -0.0459  0.0904
  573MOL0     C77275   0.923   2.149   6.966 -0.1823 -0.4076  0.6164
  573MOL0     C77276   1.009   2.075   7.043  0.0354  0.6245 -0.2868
  573MOL0     C77277   1.147   2.087   7.029 -0.4359 -0.2316 -1.3532
  573MOL0     C77278   1.206   2.189   6.948  0.2839  0.0713 -0.2266
  573MOL0     O77279   1.344   2.207   6.958  0.2077 -0.0817 -0.1692
  573MOL0     C77280   1.405   2.337   6.919  0.7570 -0.1307  0.5866
  573MOL0     C77281   1.557   2.323   6.954 -0.6068  0.3243  0.0176
  573MOL0     C77282   1.597   2.405   7.083  0.1843 -0.4365 -0.5274
  573MOL0     C77283   1.551   2.329   7.209  1.0431 -0.2372  0.2370
  573MOL0     C77284   1.608   2.398   7.329 -0.6585  0.6527 -0.2548
  573MOL0     C77285   1.663   2.432   7.431  0.3218 -0.4182 -0.0556
  573MOL0     C77286   1.116   2.272   6.880 -0.0718  0.5666  0.3865
  573MOL0     C77287   0.978   2.252   6.890 -0.2925 -0.4105 -0.6431
  573MOL0     H77288   0.536   1.971   6.918  1.3305 -1.2543 -0.1309
  573MOL0     H77289   0.303   1.920   7.000  0.1989 -1.6996  0.2038
  573MOL0     H77290   0.245   1.913   7.454 -0.9448  1.9825 -0.0746
  573MOL0     H77291   0.144   2.034   7.381  0.4595 -0.1653  1.0409
  573MOL0     H77292  -0.005   1.884   7.477 -0.6284  2.8027 -0.7261
  573MOL0     H77293  -0.006   1.880   7.300  0.5222 -1.3939 -1.2637
  573MOL0     H77294   0.130   1.659   7.312 -0.3996 -2.2487 -0.2592
  573MOL0     H77295   0.104   1.664   7.485  0.4761 -4.6421 -1.8435
  573MOL0     H77296  -0.146   1.683   7.447 -0.1968  1.2336 -1.0456
  573MOL0     H77297  -0.106   1.663   7.276 -1.9695 -1.9694 -0.1552
  573MOL0     H77298  -0.002   1.448   7.307 -0.0298  2.1169 -1.2974
  573MOL0     H77299  -0.007   1.472   7.486  0.7708  3.3505  0.3151
  573MOL0     H77300  -0.254   1.484   7.462  2.1165  0.2641  1.3784
  573MOL0     H77301  -0.254   1.403   7.305 -1.3530  0.0937  0.0531
  573MOL0     H77302  -0.103   1.214   7.427 -1.8662 -1.5920 -2.0251
  573MOL0     H77303  -0.171   1.288   7.575 -1.7090  0.6657 -0.6392
  573MOL0     H77304  -0.391   1.228   7.490 -0.6512  0.3845 -0.9042
  573MOL0     H77305  -0.276   1.092   7.493 -0.5847 -0.5791  0.7903
  573MOL0     H77306  -0.529   1.203   7.281 -0.6649  2.2378 -0.4941
  573MOL0     H77307  -0.470   1.231   6.911  1.1723  0.4532  1.0231
  573MOL0     H77308  -0.484   1.064   6.927  0.3916  0.3511 -1.2233
  573MOL0     H77309  -0.692   1.189   6.918  1.5155  1.2449 -0.0770
  573MOL0     H77310  -0.662   1.259   7.081  0.2618 -0.7746  0.2952
  573MOL0     H77311  -0.691   1.039   7.186  4.4007 -1.7271 -1.5489
  573MOL0     H77312  -0.648   0.959   7.043  0.1049  0.8320 -0.3183
  573MOL0     H77313  -0.881   0.912   7.066  0.6907  0.1281  0.5572
  573MOL0     H77314  -0.854   1.010   6.924  0.8642 -1.8206  1.1048
  573MOL0     H77315  -1.126   1.255   7.164 -1.3312  1.1361 -0.2487
  573MOL0     H77316  -1.379   1.369   6.982  2.4328  0.5847  0.7745
  573MOL0     H77317  -1.490   1.264   7.076 -0.2641 -1.6272 -0.1937
  573MOL0     H77318  -1.346   1.344   7.153  0.8955 -2.4831 -0.2655
  573MOL0     H77319  -1.583   1.225   6.626  2.7542 -0.7905  0.6912
  573MOL0     H77320  -1.732   1.184   6.432 -0.7625  1.2309  2.0142
  573MOL0     H77321  -1.815   0.738   6.306  0.8155  0.5206 -0.5888
  573MOL0     H77322  -1.929   0.800   6.431 -0.9365 -2.1906 -0.4489
  573MOL0     H77323  -2.012   0.956   6.229  2.8696  0.5727  0.6839
  573MOL0     H77324  -1.928   0.849   6.120 -1.8546 -1.1165 -1.0498
  573MOL0     H77325  -2.049   0.655   6.190 -0.0610 -0.5886 -0.1673
  573MOL0     H77326  -2.153   0.786   6.120  0.5795 -0.6406 -1.0023
  573MOL0     H77327  -2.136   0.728   6.417  2.8090  1.3197 -1.3326
  573MOL0     H77328  -2.237   0.852   6.333 -3.5948 -1.8835 -0.5569
  573MOL0     H77329  -2.249   0.552   6.300 -0.4477  0.0354 -2.3048
  573MOL0     H77330  -2.365   0.672   6.231 -1.6549 -3.1336  0.1698
  573MOL0     H77331  -2.319   0.631   6.523  2.7586 -2.5569 -2.0967
  573MOL0     H77332  -2.439   0.747   6.453 -1.4329 -0.4368 -0.2680
  573MOL0     H77333  -2.469   0.452   6.381  3.0989  1.9328 -2.2814
  573MOL0     H77334  -2.592   0.575   6.375 -0.4993  0.4872  1.2945
  573MOL0     H77335  -2.654   0.452   6.560 -1.7086  2.3203  3.2631
  573MOL0     H77336  -2.604   0.612   6.608  3.8754  0.7349  0.9331
  573MOL0     H77337  -1.692   0.764   6.511  1.5179 -0.8712  1.7930
  573MOL0     H77338  -1.518   0.805   6.682 -0.5441 -0.3262 -0.6211
  573MOL0     H77339  -1.255   0.895   6.853 -0.3013 -1.7300  2.9929
  573MOL0     H77340  -1.043   0.909   6.920  0.6914  1.5997 -1.8898
  573MOL0     H77341   0.433   1.955   7.401  3.4332 -2.0641  0.3704
  573MOL0     H77342   0.661   2.013   7.318  2.3709 -1.3482 -2.4317
  573MOL0     H77343   0.986   2.002   7.121  1.5101  0.5762  0.1451
  573MOL0     H77344   1.200   2.017   7.092 -2.0213  0.3173  0.7424
  573MOL0     H77345   1.382   2.362   6.815  0.6561  1.3017  0.9313
  573MOL0     H77346   1.360   2.416   6.980  0.5551 -0.1131  0.4164
  573MOL0     H77347   1.617   2.364   6.871 -0.0915  0.1243  0.2845
  573MOL0     H77348   1.588   2.219   6.969 -1.1527  0.2452  0.6373
  573MOL0     H77349   1.548   2.503   7.080 -0.1366 -0.5948 -0.5916
  573MOL0     H77350   1.703   2.429   7.078  0.0799 -0.2654 -2.5228
  573MOL0     H77351   1.584   2.226   7.195 -1.4843 -1.2007  0.8431
  573MOL0     H77352   1.442   2.325   7.218  0.9953 -2.1399 -0.6827
  573MOL0     H77353   1.693   2.461   7.529 -2.0361 -2.7306  1.4807
  573MOL0     H77354   1.162   2.349   6.819 -0.8843  0.1021 -0.8455
  573MOL0     H77355   0.916   2.321   6.833  0.2701  3.2403  2.7156
  574MOL0     O77356   7.197   8.310   3.737  0.0350 -0.0124 -0.2035
  574MOL0     C77357   7.180   8.351   3.853 -0.4990  0.2005 -0.2454
  574MOL0     O77358   7.078   8.314   3.936  0.2011 -0.8960  0.3870
  574MOL0     C77359   6.986   8.245   3.873  0.3983  0.2402 -0.2215
  574MOL0     C77360   6.858   8.286   3.861  0.4014  0.1159  0.0510
  574MOL0     C77361   6.754   8.212   3.801 -0.1070 -0.3303  0.1026
  574MOL0     C77362   6.779   8.080   3.761  0.0006  0.4677 -0.9828
  574MOL0     O77363   6.689   7.993   3.708  0.7590 -0.2960 -0.3114
  574MOL0     C77364   6.552   8.026   3.714 -0.7218 -0.0321 -0.4010
  574MOL0     C77365   6.456   7.925   3.646 -0.6031  0.8198 -0.1189
  574MOL0     C77366   6.306   7.958   3.676 -0.9057  0.5655 -0.6107
  574MOL0     C77367   6.208   7.849   3.625  0.2605  0.0155  0.0192
  574MOL0     C77368   6.067   7.842   3.682  1.6620 -0.5712  0.2005
  574MOL0     C77369   5.972   7.894   3.572 -1.7386  0.0772 -0.6808
  574MOL0     C77370   5.825   7.905   3.609 -0.4745 -0.1847 -0.1788
  574MOL0     C77371   5.793   8.040   3.666 -0.5135 -0.6489 -0.1688
  574MOL0     N77372   5.782   8.141   3.555 -0.4369  0.3348  0.5410
  574MOL0     C77373   5.668   8.179   3.487 -0.6069  0.4486 -0.6189
  574MOL0     C77374   5.714   8.268   3.399 -0.0661  0.9377  0.5569
  574MOL0     C77375   5.643   8.369   3.305  0.4506 -0.4779  0.1016
  574MOL0     C77376   5.506   8.410   3.373 -0.7752 -0.7557  0.8333
  574MOL0     C77377   5.466   8.544   3.311  0.4003  0.1254  0.2821
  574MOL0     C77378   5.324   8.595   3.348  0.0658  0.5578  0.1083
  574MOL0     O77379   5.287   8.699   3.253 -0.0063 -0.4210 -0.2344
  574MOL0     C77380   5.156   8.747   3.247  0.5074  0.9274  0.8607
  574MOL0     C77381   5.049   8.689   3.327  0.0011  0.5131  0.6692
  574MOL0     C77382   4.920   8.736   3.296  0.0232 -0.0392 -0.4658
  574MOL0     C77383   4.809   8.665   3.364  0.6522  0.8524  0.9624
  574MOL0     C77384   4.895   8.849   3.216  0.0571 -0.2370 -0.0454
  574MOL0     C77385   4.763   8.907   3.192  0.0643  0.0726  0.0172
  574MOL0     O77386   4.662   8.896   3.287  0.2603 -0.3467 -0.1090
  574MOL0     C77387   4.534   8.934   3.253  0.5131  0.9819 -0.3657
  574MOL0     C77388   4.494   9.066   3.222  0.5460 -0.0423 -0.1865
  574MOL0     C77389   4.366   9.098   3.171 -0.0194 -0.1600  0.0352
  574MOL0     C77390   4.269   8.997   3.161 -0.2345 -0.1928 -0.1241
  574MOL0     O77391   4.139   9.017   3.137  0.4731  0.6555 -0.9372
  574MOL0     C77392   4.106   9.133   3.065 -0.7751 -0.1090  0.6590
  574MOL0     C77393   3.970   9.102   2.996  0.0680 -0.4520 -0.0508
  574MOL0     C77394   3.866   9.198   3.055  0.1173 -0.2773 -0.2300
  574MOL0     C77395   3.816   9.295   2.956 -0.7217  0.8161  0.0803
  574MOL0     C77396   3.704   9.393   3.009  0.0918 -0.1907  0.2790
  574MOL0     C77397   3.668   9.506   2.911  0.0015  0.5674  0.2692
  574MOL0     C77398   3.550   9.588   2.946 -0.4502  0.1548 -0.6866
  574MOL0     C77399   3.548   9.704   2.851 -0.5617  0.3239  0.4790
  574MOL0    Cl77400   3.411   9.806   2.876 -0.4272 -0.4967 -0.3010
  574MOL0     C77401   4.310   8.866   3.191  0.1440  0.3220 -0.0465
  574MOL0     C77402   4.438   8.836   3.237  0.4843 -0.5598 -0.4250
  574MOL0     O77403   4.747   8.959   3.084 -0.1111 -0.2898 -0.1190
  574MOL0     C77404   5.006   8.906   3.151 -0.1497  0.3117 -0.0751
  574MOL0     C77405   5.134   8.857   3.164 -0.4069  0.0989 -0.6413
  574MOL0     N77406   5.850   8.287   3.416  0.2369 -0.8946  0.4750
  574MOL0     N77407   5.892   8.203   3.500 -0.2180  0.3104 -0.2778
  574MOL0     C77408   6.917   8.033   3.773  0.0753 -0.4515  0.3103
  574MOL0     C77409   7.019   8.115   3.829  0.2920 -0.6141  1.3867
  574MOL0     C77410   7.277   8.444   3.913 -0.2728 -0.3032 -0.4712
  574MOL0     C77411   7.393   8.491   3.843  0.1852 -0.0827  0.2085
  574MOL0     C77412   7.476   8.591   3.901  0.4872 -0.0450  0.0893
  574MOL0     C77413   7.468   8.636   4.032  0.3152  0.0852 -1.1147
  574MOL0     O77414   7.561   8.714   4.098  0.5998 -0.2247 -0.0638
  574MOL0     C77415   7.668   8.763   4.019 -1.1778  0.0320 -0.4444
  574MOL0     C77416   7.767   8.846   4.103 -0.2865  0.2953  0.0014
  574MOL0     C77417   7.811   8.762   4.226 -0.4568 -0.8683 -0.2309
  574MOL0     C77418   7.932   8.825   4.288  0.3920 -0.2363  0.5596
  574MOL0     C77419   8.053   8.811   4.208 -0.3034  0.0099 -0.0904
  574MOL0     C77420   8.165   8.791   4.169 -1.1177  0.8853 -0.2036
  574MOL0     C77421   7.360   8.573   4.104 -0.4784 -0.8182  0.0691
  574MOL0     C77422   7.263   8.489   4.043  0.6905  0.0436 -0.7831
  574MOL0     H77423   6.830   8.382   3.905 -0.8132 -0.6512  1.0104
  574MOL0     H77424   6.662   8.268   3.790  0.6598  1.2475  1.3685
  574MOL0     H77425   6.512   8.031   3.816 -1.3580 -1.8213 -0.5269
  574MOL0     H77426   6.532   8.125   3.670 -1.1311  0.0255 -0.0940
  574MOL0     H77427   6.467   7.926   3.537 -1.1326  1.3742 -0.1734
  574MOL0     H77428   6.476   7.823   3.678 -1.4166 -0.1378 -2.4437
  574MOL0     H77429   6.299   7.962   3.785  0.4562 -1.7023 -0.3672
  574MOL0     H77430   6.288   8.057   3.633  1.4828  2.2436  1.9129
  574MOL0     H77431   6.195   7.856   3.516 -1.9278 -1.0943  0.1520
  574MOL0     H77432   6.241   7.746   3.636  0.0840  0.2041  3.2608
  574MOL0     H77433   6.045   7.736   3.703  5.7220 -1.3386  1.4912
  574MOL0     H77434   6.058   7.900   3.774 -2.8603 -1.0344  0.2547
  574MOL0     H77435   6.007   7.996   3.555  1.4501 -0.6797  0.6151
  574MOL0     H77436   5.979   7.826   3.487 -2.2115 -0.0923 -0.5868
  574MOL0     H77437   5.767   7.873   3.522 -1.5424 -0.6342  0.6755
  574MOL0     H77438   5.808   7.833   3.690  0.0301 -1.5998 -1.2755
  574MOL0     H77439   5.874   8.067   3.734 -1.6927 -0.0565  1.0325
  574MOL0     H77440   5.702   8.041   3.727 -0.4849  3.1340  0.0376
  574MOL0     H77441   5.565   8.163   3.516 -0.0533  2.3737  2.9648
  574MOL0     H77442   5.708   8.455   3.291 -0.6842  0.6903  1.6404
  574MOL0     H77443   5.621   8.327   3.206  0.7134  0.9516 -0.5853
  574MOL0     H77444   5.525   8.434   3.478  3.3085  1.9794 -0.3002
  574MOL0     H77445   5.431   8.332   3.357  1.2856 -2.2183 -3.0529
  574MOL0     H77446   5.468   8.531   3.203  1.9783  1.9397  0.0266
  574MOL0     H77447   5.542   8.621   3.329 -0.0455  0.4831  0.6690
  574MOL0     H77448   5.318   8.624   3.453  0.2808 -2.0373  0.9119
  574MOL0     H77449   5.256   8.510   3.337  0.1056  0.2083  2.1559
  574MOL0     H77450   5.063   8.608   3.398 -2.0942 -0.6533 -0.1636
  574MOL0     H77451   4.757   8.739   3.426  0.8936  1.6234  0.2508
  574MOL0     H77452   4.741   8.621   3.291 -0.1475  1.6255  1.2251
  574MOL0     H77453   4.852   8.584   3.425  2.4810  0.0071 -1.3302
  574MOL0     H77454   4.556   9.154   3.239  0.0540 -0.1137  2.3414
  574MOL0     H77455   4.340   9.203   3.159 -0.4677 -0.4764 -2.3303
  574MOL0     H77456   4.108   9.227   3.121  2.3888  0.0503  0.4714
  574MOL0     H77457   4.180   9.148   2.985  2.4663 -2.6459  2.8929
  574MOL0     H77458   3.978   9.118   2.888 -2.5770  0.0992 -0.2503
  574MOL0     H77459   3.946   8.997   3.016 -0.5464 -0.0770  1.3302
  574MOL0     H77460   3.906   9.239   3.148  0.2176 -1.1134  0.1078
  574MOL0     H77461   3.787   9.128   3.085 -1.1071  0.5386 -1.4563
  574MOL0     H77462   3.904   9.351   2.921 -0.2063 -0.2475 -0.3570
  574MOL0     H77463   3.768   9.248   2.870 -1.7977  1.1428  0.4949
  574MOL0     H77464   3.729   9.450   3.099 -1.1617  2.5068 -0.9525
  574MOL0     H77465   3.613   9.335   3.028  0.3417  0.1173  2.6193
  574MOL0     H77466   3.752   9.577   2.905 -2.1220  3.1559 -2.5331
  574MOL0     H77467   3.661   9.469   2.808 -0.5569  1.5113 -0.0441
  574MOL0     H77468   3.559   9.621   3.050  0.6501 -0.8496 -0.4417
  574MOL0     H77469   3.454   9.534   2.942  1.0574 -2.8981  0.7860
  574MOL0     H77470   3.550   9.656   2.752 -0.9094  0.6204  0.3250
  574MOL0     H77471   3.637   9.767   2.864 -0.8705  0.6359  1.1157
  574MOL0     H77472   4.238   8.784   3.190 -0.0945  0.5252  0.3421
  574MOL0     H77473   4.453   8.738   3.280  0.8946  0.3443  1.6220
  574MOL0     H77474   4.993   8.998   3.094  0.5359  2.0398  2.4156
  574MOL0     H77475   5.217   8.902   3.111 -1.0592  2.0432 -0.1025
  574MOL0     H77476   6.943   7.937   3.729  1.1500  1.1418 -2.8827
  574MOL0     H77477   7.121   8.080   3.818  0.0155 -0.8097 -0.9124
  574MOL0     H77478   7.427   8.465   3.743 -0.8328  1.6127 -0.6078
  574MOL0     H77479   7.554   8.626   3.834 -1.6784  1.2431 -1.9457
  574MOL0     H77480   7.727   8.679   3.982  3.2711  0.8780  3.6367
  574MOL0     H77481   7.634   8.831   3.940 -0.8829  2.2982  1.2705
  574MOL0     H77482   7.715   8.937   4.134 -0.1051  0.5783 -0.5224
  574MOL0     H77483   7.852   8.863   4.036  2.3798 -0.1191  3.0500
  574MOL0     H77484   7.822   8.658   4.194 -3.8776 -1.5711  0.4138
  574MOL0     H77485   7.728   8.765   4.297 -0.3524 -0.1206 -0.1332
  574MOL0     H77486   7.947   8.784   4.389  0.9330  2.4784  1.6616
  574MOL0     H77487   7.915   8.932   4.303 -1.7729 -0.5030  0.3615
  574MOL0     H77488   8.262   8.751   4.146 -0.3603  1.0200  2.3929
  574MOL0     H77489   7.367   8.583   4.212 -1.7146  3.4587 -0.0815
  574MOL0     H77490   7.177   8.459   4.103 -1.1088  1.2318 -2.6272
  575MOL0     O77491   6.457   5.930   4.075 -0.0543  0.2723  0.6065
  575MOL0     C77492   6.378   5.892   3.983 -1.1985 -0.3635  0.0398
  575MOL0     O77493   6.422   5.799   3.887 -0.2399 -0.3456 -0.1134
  575MOL0     C77494   6.547   5.746   3.900  0.6125  0.6223 -0.1829
  575MOL0     C77495   6.582   5.668   4.010  0.0900  0.7584  0.0471
  575MOL0     C77496   6.713   5.628   4.031  0.3501 -0.0247 -0.9427
  575MOL0     C77497   6.816   5.664   3.936 -0.0818 -0.2633 -0.0431
  575MOL0     O77498   6.948   5.618   3.953 -0.3976  0.1342 -0.3351
  575MOL0     C77499   7.051   5.694   3.882 -0.2785  0.4320  0.2407
  575MOL0     C77500   7.188   5.631   3.918 -0.5565  0.9971  0.4384
  575MOL0     C77501   7.259   5.683   4.040  0.4066 -0.0676  0.2968
  575MOL0     C77502   7.366   5.775   3.994  0.0294 -0.0400  0.0911
  575MOL0     C77503   7.443   5.839   4.105 -0.1282 -0.2769  0.5314
  575MOL0     C77504   7.376   5.957   4.174  0.2217  0.4727  0.6497
  575MOL0     C77505   7.473   6.014   4.284 -0.3578 -0.5220 -0.0152
  575MOL0     C77506   7.414   6.137   4.355  0.1196 -0.0574  0.1118
  575MOL0     N77507   7.317   6.101   4.460 -0.0820 -0.4438  0.4273
  575MOL0     C77508   7.319   6.004   4.556 -0.5874  0.5185 -0.3552
  575MOL0     C77509   7.197   6.021   4.619  0.1553  0.8868 -0.5470
  575MOL0     C77510   7.153   5.952   4.752 -0.0635 -0.4674  0.8676
  575MOL0     C77511   7.012   5.901   4.735 -0.6201 -0.3145 -0.6036
  575MOL0     C77512   6.942   5.855   4.862  0.0722 -0.4950 -0.0199
  575MOL0     C77513   6.927   5.960   4.978 -0.1182 -0.4101  0.3165
  575MOL0     O77514   6.880   6.088   4.933 -0.1469  0.2278  0.2824
  575MOL0     C77515   6.759   6.119   4.983 -0.0408 -0.3004  1.1683
  575MOL0     C77516   6.648   6.034   5.000 -0.7052 -0.7572  0.3981
  575MOL0     C77517   6.533   6.076   5.055 -0.8090  0.0859  0.5920
  575MOL0     C77518   6.430   5.965   5.085  0.0797 -0.0583  1.1060
  575MOL0     C77519   6.516   6.215   5.080 -0.2162  0.2050  0.2804
  575MOL0     C77520   6.401   6.280   5.146 -0.1204 -0.2474 -0.0796
  575MOL0     O77521   6.411   6.396   5.204  0.1968 -0.1214  0.1131
  575MOL0     C77522   6.310   6.444   5.294  0.2051  0.6541  0.5743
  575MOL0     C77523   6.174   6.451   5.257  0.9714  0.7164  1.0514
  575MOL0     C77524   6.081   6.502   5.346 -0.4422 -0.3756 -0.4879
  575MOL0     C77525   6.125   6.537   5.476 -0.3490  0.1423 -0.5903
  575MOL0     O77526   6.032   6.572   5.571 -0.0600  0.1112 -0.0256
  575MOL0     C77527   6.074   6.636   5.698 -0.8449  0.6726 -0.4388
  575MOL0     C77528   5.940   6.646   5.773 -0.7888  0.3431  0.4597
  575MOL0     C77529   5.965   6.665   5.919  0.4642 -0.6564  0.6490
  575MOL0     C77530   5.986   6.522   5.971  0.3161  1.1380  0.6054
  575MOL0     C77531   5.854   6.471   6.025  0.1393  0.1045  0.0617
  575MOL0     C77532   5.883   6.330   6.076  0.2796  1.4479 -0.0068
  575MOL0     C77533   5.756   6.285   6.155 -0.8174 -0.1033  0.5399
  575MOL0     C77534   5.707   6.373   6.270 -0.4343  0.1586  0.1668
  575MOL0    Cl77535   5.837   6.393   6.396  0.1636  0.2217  0.1858
  575MOL0     C77536   6.259   6.531   5.515  0.6732 -0.4328  0.4550
  575MOL0     C77537   6.349   6.479   5.424 -0.6333 -0.0360 -0.1255
  575MOL0     O77538   6.296   6.211   5.143 -0.7035 -0.2383 -0.8710
  575MOL0     C77539   6.618   6.292   5.057 -0.5947 -0.2233  0.3821
  575MOL0     C77540   6.742   6.250   5.005 -0.4987 -0.3306 -1.5743
  575MOL0     N77541   7.121   6.116   4.551 -0.5562 -0.5661  0.1240
  575MOL0     N77542   7.199   6.171   4.463  0.1344 -0.8251  0.5762
  575MOL0     C77543   6.775   5.744   3.823  0.7102  0.3236 -0.4074
  575MOL0     C77544   6.642   5.772   3.806  0.2983  0.7400 -0.0402
  575MOL0     C77545   6.241   5.952   3.994  0.1197  0.6708 -0.9800
  575MOL0     C77546   6.134   5.919   3.910 -0.0777  0.0781 -1.4597
  575MOL0     C77547   6.007   5.984   3.916  0.7269  0.9442 -0.0902
  575MOL0     C77548   5.990   6.093   4.002 -0.7567 -0.0251 -0.3518
  575MOL0     O77549   5.869   6.158   4.014 -0.5287  0.0852  0.2944
  575MOL0     C77550   5.762   6.123   3.924  0.2808 -0.0701  0.2916
  575MOL0     C77551   5.632   6.172   3.987  0.0859  0.6574  0.4627
  575MOL0     C77552   5.514   6.189   3.888  0.1532  0.4885 -0.4295
  575MOL0     C77553   5.469   6.060   3.818 -0.4816  1.0530 -0.0608
  575MOL0     C77554   5.387   5.955   3.893 -0.1476 -0.7024  1.2835
  575MOL0     C77555   5.326   5.880   3.964  0.6739  0.3779  0.5794
  575MOL0     C77556   6.088   6.123   4.095 -0.1005 -0.0156  0.9996
  575MOL0     C77557   6.207   6.051   4.093 -0.1971 -0.0005  0.1849
  575MOL0     H77558   6.514   5.646   4.091  1.6712  1.7523  1.7170
  575MOL0     H77559   6.739   5.573   4.121  0.9683 -1.1788 -1.8080
  575MOL0     H77560   7.031   5.689   3.775  2.9362 -1.7885 -0.4088
  575MOL0     H77561   7.055   5.799   3.910 -0.9103  0.0445  1.9399
  575MOL0     H77562   7.178   5.524   3.936 -1.6756  1.3063  1.8849
  575MOL0     H77563   7.260   5.626   3.836 -0.6195 -0.5158  0.4555
  575MOL0     H77564   7.192   5.738   4.108  0.1639  0.4302 -0.3376
  575MOL0     H77565   7.299   5.597   4.094 -1.1207 -0.7145  0.4395
  575MOL0     H77566   7.437   5.720   3.930  1.6009  1.1669  0.7222
  575MOL0     H77567   7.316   5.848   3.929 -1.4650 -0.5873  0.5960
  575MOL0     H77568   7.470   5.768   4.185  1.4891  0.7690  0.9589
  575MOL0     H77569   7.539   5.871   4.065 -0.2308  2.4544  2.1853
  575MOL0     H77570   7.352   6.028   4.094 -2.2840  0.4555  1.3094
  575MOL0     H77571   7.281   5.924   4.219 -0.8937 -1.2077 -2.5824
  575MOL0     H77572   7.516   5.944   4.357 -1.3353  0.5310  1.6329
  575MOL0     H77573   7.565   6.048   4.234  0.7216 -2.1632  0.7525
  575MOL0     H77574   7.373   6.209   4.284 -1.4771 -1.1106 -0.0842
  575MOL0     H77575   7.492   6.187   4.414 -0.8828  0.9242  0.6441
  575MOL0     H77576   7.401   5.935   4.574  0.2637  1.3667 -0.8845
  575MOL0     H77577   7.221   5.871   4.778  0.0745 -0.5203  0.3409
  575MOL0     H77578   7.145   6.029   4.828 -0.2348  1.4259 -0.9871
  575MOL0     H77579   7.025   5.833   4.651  0.3440  1.5282 -2.0252
  575MOL0     H77580   6.943   5.975   4.694  2.1494  1.6951 -2.0015
  575MOL0     H77581   7.001   5.765   4.884 -0.0105 -0.2191  1.4294
  575MOL0     H77582   6.848   5.805   4.833 -0.1774  0.0656 -0.1907
  575MOL0     H77583   7.025   5.972   5.024 -0.9150 -0.8373  2.2426
  575MOL0     H77584   6.867   5.927   5.063 -2.5752 -0.5712 -1.3746
  575MOL0     H77585   6.660   5.926   4.988 -1.1422 -1.0419  2.2272
  575MOL0     H77586   6.395   5.962   5.188 -1.2659  1.2151  0.7100
  575MOL0     H77587   6.344   5.979   5.019 -0.2359 -3.4647  0.5854
  575MOL0     H77588   6.476   5.869   5.058  0.7317  0.3813  0.6112
  575MOL0     H77589   6.133   6.427   5.160 -0.5492  2.1108  1.2955
  575MOL0     H77590   5.975   6.510   5.322 -1.0966  0.2962  2.2612
  575MOL0     H77591   6.142   6.572   5.756 -0.5037  1.0013 -0.4729
  575MOL0     H77592   6.130   6.727   5.675 -1.5670  1.0916 -0.5332
  575MOL0     H77593   5.885   6.736   5.745 -0.0531  1.4574  2.3902
  575MOL0     H77594   5.877   6.559   5.751 -1.0659  0.9225 -1.1701
  575MOL0     H77595   5.879   6.707   5.972  2.0700  0.5802  2.4303
  575MOL0     H77596   6.046   6.734   5.942  0.7480 -0.7256 -0.1435
  575MOL0     H77597   6.025   6.456   5.892 -0.6495  1.8014 -0.4443
  575MOL0     H77598   6.062   6.513   6.049 -1.9898  0.2067  2.8496
  575MOL0     H77599   5.780   6.476   5.945  1.5677 -1.1661 -1.4057
  575MOL0     H77600   5.830   6.539   6.108 -1.2553  1.5140 -1.4327
  575MOL0     H77601   5.886   6.257   5.995 -0.2408  1.0159  0.3547
  575MOL0     H77602   5.984   6.321   6.117  0.7495  0.8749 -1.2536
  575MOL0     H77603   5.784   6.194   6.209 -2.3778 -0.6282  0.5191
  575MOL0     H77604   5.674   6.257   6.088 -1.4788  3.1502 -0.1987
  575MOL0     H77605   5.628   6.315   6.317  1.7866 -3.6924 -0.4440
  575MOL0     H77606   5.671   6.469   6.232 -3.2187 -1.6917 -2.2574
  575MOL0     H77607   6.294   6.567   5.612 -1.3295  0.7990  0.7779
  575MOL0     H77608   6.451   6.458   5.453  0.4291  0.7087 -2.9888
  575MOL0     H77609   6.613   6.399   5.075  1.2562  0.4454 -2.4401
  575MOL0     H77610   6.825   6.320   5.012 -2.6487  2.2141  1.3336
  575MOL0     H77611   6.830   5.789   3.741 -1.4374 -0.5810 -2.4420
  575MOL0     H77612   6.617   5.827   3.716  3.9999  2.2324 -0.3383
  575MOL0     H77613   6.149   5.842   3.835  1.6217 -3.2791  2.0372
  575MOL0     H77614   5.928   5.951   3.849 -0.6308  0.5632  1.6127
  575MOL0     H77615   5.768   6.174   3.827  1.7093 -1.5971 -0.4690
  575MOL0     H77616   5.757   6.016   3.902 -0.3250 -0.1520  0.8036
  575MOL0     H77617   5.643   6.263   4.046 -1.1409  0.7224  0.6243
  575MOL0     H77618   5.599   6.097   4.060  1.0854 -0.0537  0.2064
  575MOL0     H77619   5.554   6.268   3.823 -1.1018  1.9180  0.4824
  575MOL0     H77620   5.430   6.236   3.940  0.8127 -1.3438  2.4464
  575MOL0     H77621   5.562   6.012   3.785 -0.6334 -1.6909  2.9575
  575MOL0     H77622   5.404   6.089   3.735 -1.1107 -0.3315 -0.0810
  575MOL0     H77623   5.266   5.826   4.034 -2.0866  1.5648 -0.6984
  575MOL0     H77624   6.070   6.200   4.169 -1.6807 -0.6399  1.3042
  575MOL0     H77625   6.283   6.079   4.166 -1.5908  1.2634  1.2095
  576MOL0     O77626   0.253   2.883   5.813  0.4653  0.0593 -0.0919
  576MOL0     C77627   0.277   2.772   5.857 -0.3099  0.5463 -0.3717
  576MOL0     O77628   0.187   2.689   5.920  0.4327  0.2138  0.0831
  576MOL0     C77629   0.057   2.723   5.923 -0.3361 -0.1427 -0.5896
  576MOL0     C77630  -0.026   2.694   5.814 -0.4600 -0.1285  0.6411
  576MOL0     C77631  -0.153   2.740   5.804  0.2248  0.1656 -0.6775
  576MOL0     C77632  -0.210   2.814   5.909  0.0939 -0.0845 -0.1100
  576MOL0     O77633  -0.340   2.856   5.916 -0.3559 -0.3800 -0.1783
  576MOL0     C77634  -0.420   2.834   5.794 -0.1043  0.2645  0.2538
  576MOL0     C77635  -0.564   2.868   5.821 -0.0075 -0.0321  0.0322
  576MOL0     C77636  -0.615   2.751   5.910 -0.6418 -0.0221 -0.6875
  576MOL0     C77637  -0.766   2.763   5.942 -0.0794  0.5067 -0.5083
  576MOL0     C77638  -0.851   2.690   5.839 -0.6403  1.1041  1.3040
  576MOL0     C77639  -0.998   2.704   5.859  0.0759  0.2788 -0.0227
  576MOL0     C77640  -1.074   2.597   5.771 -0.3774 -0.5112 -0.9008
  576MOL0     C77641  -1.064   2.647   5.625 -0.0894 -0.0054 -0.2502
  576MOL0     N77642  -1.155   2.580   5.536 -0.3245 -1.1007 -0.4427
  576MOL0     C77643  -1.292   2.596   5.541 -0.8408  0.1778  0.5241
  576MOL0     C77644  -1.331   2.520   5.442  0.2969  0.2176  0.5930
  576MOL0     C77645  -1.478   2.496   5.401  0.0310  0.5647 -0.5037
  576MOL0     C77646  -1.528   2.370   5.478  0.7372  0.3002  0.7364
  576MOL0     C77647  -1.665   2.381   5.529 -0.4578 -0.4953 -0.0138
  576MOL0     C77648  -1.713   2.253   5.582 -0.4100 -0.3005  0.4427
  576MOL0     O77649  -1.757   2.176   5.466 -0.7600  0.0333  0.3667
  576MOL0     C77650  -1.879   2.193   5.402  0.2494 -1.0650  0.3281
  576MOL0     C77651  -1.902   2.132   5.279 -0.5477 -0.2498 -0.5860
  576MOL0     C77652  -2.031   2.138   5.216  0.1139  1.2120  0.6873
  576MOL0     C77653  -2.031   2.065   5.083 -0.6186 -0.1055 -0.1086
  576MOL0     C77654  -2.142   2.201   5.274 -0.1207 -0.0433  0.4591
  576MOL0     C77655  -2.278   2.216   5.213 -0.6489 -0.4323 -0.4609
  576MOL0     O77656  -2.354   2.317   5.270  0.4749  0.1153  0.5394
  576MOL0     C77657  -2.487   2.308   5.227  0.1872  0.4650 -0.3930
  576MOL0     C77658  -2.576   2.212   5.275  0.0535 -0.1048  0.8884
  576MOL0     C77659  -2.712   2.219   5.241 -0.6488  0.2499  0.7945
  576MOL0     C77660  -2.761   2.318   5.159 -0.4945 -0.8012  0.1733
  576MOL0     O77661  -2.892   2.316   5.120 -0.5196  0.0302  0.6851
  576MOL0     C77662  -2.923   2.216   5.021  0.0500  0.0564 -0.3834
  576MOL0     C77663  -3.069   2.218   4.988  0.5777  1.2477  0.5503
  576MOL0     C77664  -3.117   2.346   4.917  0.2661 -0.1130 -0.2747
  576MOL0     C77665  -3.268   2.335   4.878  0.6303 -0.1701 -0.6384
  576MOL0     C77666  -3.314   2.464   4.806 -0.3338 -0.3197 -1.2867
  576MOL0     C77667  -3.466   2.460   4.791  0.9014 -0.2683 -0.9709
  576MOL0     C77668  -3.495   2.548   4.668 -0.8878 -0.1910 -0.1929
  576MOL0     C77669  -3.643   2.561   4.649  0.1857  0.2862  0.1586
  576MOL0    Cl77670  -3.742   2.397   4.646 -0.3465  0.4398  0.1390
  576MOL0     C77671  -2.667   2.402   5.092 -0.0159 -0.5012  0.6851
  576MOL0     C77672  -2.529   2.392   5.121 -0.0285  0.0247 -0.9717
  576MOL0     O77673  -2.310   2.128   5.128 -0.9060 -0.8326 -0.4252
  576MOL0     C77674  -2.120   2.264   5.399  0.6713 -0.0090 -0.1142
  576MOL0     C77675  -1.993   2.259   5.465 -0.3114  1.1334  0.2376
  576MOL0     N77676  -1.223   2.452   5.390  0.2750  0.2877 -0.2692
  576MOL0     N77677  -1.115   2.494   5.444 -0.2618  0.2159 -0.6269
  576MOL0     C77678  -0.135   2.849   6.015 -0.6557  0.4859 -0.2006
  576MOL0     C77679   0.001   2.803   6.020 -0.3825  0.0341  0.3026
  576MOL0     C77680   0.424   2.735   5.876  0.8922 -0.3202 -0.2162
  576MOL0     C77681   0.519   2.821   5.834  0.1988 -0.0717 -0.0825
  576MOL0     C77682   0.650   2.788   5.850  0.2864  0.1935 -0.2752
  576MOL0     C77683   0.692   2.676   5.914 -0.2340 -0.1138  0.1997
  576MOL0     O77684   0.823   2.673   5.948 -0.3801  0.6208 -0.0393
  576MOL0     C77685   0.870   2.544   5.994  0.0777 -0.0383  0.6902
  576MOL0     C77686   1.028   2.539   5.993 -0.2874 -0.7306 -0.4329
  576MOL0     C77687   1.090   2.580   5.851 -0.2186 -0.0992 -0.6504
  576MOL0     C77688   1.237   2.570   5.851 -0.0977  0.4060 -0.2132
  576MOL0     C77689   1.295   2.635   5.736  0.2427  0.0321 -1.7650
  576MOL0     C77690   1.331   2.705   5.644 -0.4322 -0.5566  0.3299
  576MOL0     C77691   0.596   2.588   5.962 -0.2863 -0.2577 -0.6304
  576MOL0     C77692   0.466   2.618   5.944 -0.5580 -0.3801  0.0467
  576MOL0     H77693   0.009   2.640   5.727 -0.3443 -0.2662  0.7736
  576MOL0     H77694  -0.208   2.699   5.719 -2.6163  0.5809  0.8425
  576MOL0     H77695  -0.384   2.892   5.709  0.7778  0.1255  0.5194
  576MOL0     H77696  -0.424   2.729   5.764  1.4647  0.6128 -1.3300
  576MOL0     H77697  -0.579   2.965   5.871  0.1803  0.4552 -0.8465
  576MOL0     H77698  -0.623   2.872   5.730  1.9910  2.5865 -1.2989
  576MOL0     H77699  -0.585   2.659   5.859  0.8236  0.6035 -1.0141
  576MOL0     H77700  -0.570   2.749   6.009 -0.3150  0.7913 -0.8126
  576MOL0     H77701  -0.784   2.722   6.042  1.5260  0.8036 -0.0704
  576MOL0     H77702  -0.789   2.870   5.939  2.5746  1.1231 -4.0187
  576MOL0     H77703  -0.823   2.718   5.737 -0.1944 -1.0354  0.7901
  576MOL0     H77704  -0.824   2.584   5.850 -1.4516  0.9162  1.5680
  576MOL0     H77705  -1.016   2.691   5.966  0.3523  0.7683  0.0887
  576MOL0     H77706  -1.023   2.807   5.831  1.4452  0.6673  0.0795
  576MOL0     H77707  -1.030   2.498   5.787 -1.1323 -1.3568 -3.5681
  576MOL0     H77708  -1.177   2.580   5.801 -0.0440 -2.9530 -0.8638
  576MOL0     H77709  -0.962   2.631   5.588  1.2272  1.0132  2.6277
  576MOL0     H77710  -1.083   2.754   5.621 -3.9279 -0.5851 -1.4042
  576MOL0     H77711  -1.353   2.660   5.603 -1.6679 -0.5352  0.4645
  576MOL0     H77712  -1.543   2.578   5.432 -2.2066 -0.1293 -3.0018
  576MOL0     H77713  -1.487   2.485   5.293 -0.4122  0.6748 -0.4786
  576MOL0     H77714  -1.458   2.353   5.561  1.6176  0.8892  0.1290
  576MOL0     H77715  -1.519   2.288   5.406  0.9402  1.8908 -1.1093
  576MOL0     H77716  -1.725   2.412   5.443  1.7683  3.0245 -0.4761
  576MOL0     H77717  -1.676   2.447   5.616 -2.4034 -0.8535  0.0672
  576MOL0     H77718  -1.792   2.254   5.657 -0.1782  0.2553  0.6893
  576MOL0     H77719  -1.634   2.196   5.631 -1.9081 -0.3087  3.0062
  576MOL0     H77720  -1.818   2.085   5.229  0.6990  2.1620 -0.9469
  576MOL0     H77721  -1.944   1.998   5.082 -0.2659  0.3330  0.5778
  576MOL0     H77722  -2.119   2.005   5.058 -0.7677  0.5050 -1.1084
  576MOL0     H77723  -2.026   2.140   5.004 -1.0742  1.4547  1.2859
  576MOL0     H77724  -2.536   2.146   5.352 -0.3722  2.8354  3.8404
  576MOL0     H77725  -2.776   2.143   5.285 -1.2848  0.5558  0.3978
  576MOL0     H77726  -2.859   2.217   4.932  0.4122 -3.1887 -0.2708
  576MOL0     H77727  -2.894   2.120   5.064  1.4952  0.8053  0.3653
  576MOL0     H77728  -3.093   2.135   4.921 -3.2077  2.3417  0.3114
  576MOL0     H77729  -3.130   2.206   5.078 -0.7122 -1.8690 -0.5836
  576MOL0     H77730  -3.057   2.353   4.825  1.2099 -0.4520  0.3084
  576MOL0     H77731  -3.116   2.428   4.989 -4.4162  0.3729 -0.4339
  576MOL0     H77732  -3.285   2.245   4.818  0.0437  0.7081 -1.8525
  576MOL0     H77733  -3.327   2.324   4.969  0.2723  4.1999 -0.0876
  576MOL0     H77734  -3.261   2.470   4.710  0.0940  0.5023 -1.0024
  576MOL0     H77735  -3.301   2.553   4.868 -1.0359  1.7735 -3.9408
  576MOL0     H77736  -3.493   2.358   4.763  0.0085 -0.1099 -0.7015
  576MOL0     H77737  -3.524   2.490   4.879 -3.1081 -1.9734 -2.8017
  576MOL0     H77738  -3.457   2.499   4.578 -2.9910 -1.1829 -0.5935
  576MOL0     H77739  -3.445   2.645   4.674 -1.2509  0.0231 -0.5562
  576MOL0     H77740  -3.667   2.593   4.547 -2.6380  0.6892  0.8575
  576MOL0     H77741  -3.697   2.628   4.717 -1.5079 -0.5304 -0.3153
  576MOL0     H77742  -2.696   2.477   5.019 -0.4128 -0.3191  1.0232
  576MOL0     H77743  -2.462   2.466   5.079 -1.0435  1.7752  0.3623
  576MOL0     H77744  -2.208   2.313   5.441 -0.0283  0.2261 -1.7562
  576MOL0     H77745  -1.974   2.290   5.567  0.2688 -0.3320  0.6007
  576MOL0     H77746  -0.173   2.920   6.088  0.6570  0.1833  0.8254
  576MOL0     H77747   0.069   2.849   6.091 -0.4444 -0.9668  1.0320
  576MOL0     H77748   0.482   2.911   5.785 -1.1718 -1.0897 -0.9917
  576MOL0     H77749   0.719   2.865   5.818  0.2580 -0.0878 -1.0411
  576MOL0     H77750   0.839   2.521   6.096 -1.0423 -3.1879 -0.2318
  576MOL0     H77751   0.838   2.466   5.923  0.0126  1.4093 -0.9475
  576MOL0     H77752   1.059   2.438   6.021  0.7120  0.1271  1.8225
  576MOL0     H77753   1.072   2.594   6.077  0.9450 -0.6031 -1.1444
  576MOL0     H77754   1.061   2.678   5.813 -3.9940 -1.2386 -1.0926
  576MOL0     H77755   1.057   2.505   5.778  0.6949 -3.1399  1.8367
  576MOL0     H77756   1.270   2.466   5.858  1.6666  1.0447  1.9748
  576MOL0     H77757   1.278   2.627   5.935  3.4870 -0.7434 -1.0159
  576MOL0     H77758   1.377   2.769   5.571 -0.6500 -2.0170 -1.1232
  576MOL0     H77759   0.632   2.506   6.024 -0.8205  0.6935  0.9900
  576MOL0     H77760   0.390   2.546   5.974 -1.5625  0.8520  0.5719
  577MOL0     O77761   3.923   6.059   4.831 -0.7171 -0.2542  0.1581
  577MOL0     C77762   3.973   5.952   4.786  0.2586 -0.4093  0.1072
  577MOL0     O77763   3.934   5.823   4.808  0.5461  0.5800 -0.2758
  577MOL0     C77764   3.835   5.821   4.902 -0.7691 -0.4468  0.8590
  577MOL0     C77765   3.706   5.817   4.865  1.8225 -0.0101 -0.8319
  577MOL0     C77766   3.601   5.800   4.961 -0.0596 -0.4263  0.3202
  577MOL0     C77767   3.641   5.801   5.097  0.2480  1.1724  0.3048
  577MOL0     O77768   3.544   5.773   5.182 -0.1084  0.4811 -0.0156
  577MOL0     C77769   3.552   5.813   5.321  0.7667 -0.0422 -1.3262
  577MOL0     C77770   3.439   5.895   5.373 -0.5493  0.8063 -0.2120
  577MOL0     C77771   3.301   5.827   5.361  0.4133 -1.0624 -0.1761
  577MOL0     C77772   3.191   5.926   5.406  0.7901  0.1346  0.2802
  577MOL0     C77773   3.050   5.866   5.406  0.1870 -0.3298 -0.1977
  577MOL0     C77774   3.000   5.831   5.261 -0.4593 -0.4584 -0.1907
  577MOL0     C77775   2.874   5.748   5.267  0.8610 -0.7191  1.0942
  577MOL0     C77776   2.819   5.740   5.117  0.5374 -0.4992  0.2653
  577MOL0     N77777   2.700   5.653   5.104 -0.2634  0.3669  0.7700
  577MOL0     C77778   2.702   5.516   5.077 -0.5775  1.1052  0.1470
  577MOL0     C77779   2.572   5.478   5.052  0.9814 -0.0694 -0.3479
  577MOL0     C77780   2.525   5.345   5.003 -0.2143  0.8093 -0.3259
  577MOL0     C77781   2.390   5.348   4.931 -0.8731  0.7604  0.2319
  577MOL0     C77782   2.267   5.370   5.016  0.3678  0.3991  0.7970
  577MOL0     C77783   2.137   5.304   4.958 -0.2807 -0.2993 -0.5322
  577MOL0     O77784   2.027   5.328   5.049  0.8414  0.7952  0.2662
  577MOL0     C77785   1.903   5.267   5.019 -0.0967 -0.1305  0.4037
  577MOL0     C77786   1.789   5.293   5.101 -0.1203  0.7907 -1.0586
  577MOL0     C77787   1.656   5.244   5.072 -0.1164 -0.8869 -0.4162
  577MOL0     C77788   1.544   5.297   5.157  0.4620 -0.5229 -1.1698
  577MOL0     C77789   1.644   5.171   4.954  0.3589 -0.5974 -0.6547
  577MOL0     C77790   1.508   5.146   4.894  0.8228 -0.5358 -0.0290
  577MOL0     O77791   1.405   5.103   4.985 -0.3289 -0.5387  0.5196
  577MOL0     C77792   1.280   5.074   4.936  0.6190  0.0107 -0.1783
  577MOL0     C77793   1.190   5.063   5.044  0.7031 -0.1071  1.2074
  577MOL0     C77794   1.052   5.027   5.021 -0.2766  1.0339  0.3042
  577MOL0     C77795   1.007   4.998   4.887  0.7538 -0.1223 -0.5323
  577MOL0     O77796   0.879   4.961   4.871  1.0020  0.5074 -0.2204
  577MOL0     C77797   0.793   5.069   4.854  0.6794 -0.5370 -0.0510
  577MOL0     C77798   0.656   5.030   4.908 -0.4134 -0.5858  0.2852
  577MOL0     C77799   0.567   5.152   4.904  0.2709 -0.7859 -0.0099
  577MOL0     C77800   0.417   5.125   4.926 -1.0464 -0.1347  0.3313
  577MOL0     C77801   0.329   5.248   4.959  0.3197 -0.0660 -0.7680
  577MOL0     C77802   0.329   5.366   4.864 -0.6032  0.0811  0.2169
  577MOL0     C77803   0.313   5.344   4.715  0.5930  0.2692  0.3840
  577MOL0     C77804   0.360   5.461   4.631  0.1186  0.1826 -0.4143
  577MOL0    Cl77805   0.297   5.434   4.466 -0.2739  0.4813 -0.5285
  577MOL0     C77806   1.098   5.008   4.780  0.1790  0.2944  0.5449
  577MOL0     C77807   1.232   5.050   4.804 -0.7113 -1.3111 -0.0535
  577MOL0     O77808   1.490   5.170   4.773  0.2482 -0.1516 -0.4055
  577MOL0     C77809   1.753   5.141   4.876 -0.5541 -0.1530 -0.2149
  577MOL0     C77810   1.885   5.191   4.903  0.5724 -0.2267  0.4036
  577MOL0     N77811   2.494   5.590   5.084  0.5414  0.0236  0.5505
  577MOL0     N77812   2.564   5.694   5.116 -0.5099 -0.4213  0.6976
  577MOL0     C77813   3.774   5.814   5.134  0.0113  0.3953  0.3537
  577MOL0     C77814   3.872   5.822   5.036 -0.4665  0.5581 -0.0399
  577MOL0     C77815   4.099   5.970   4.711 -0.1896 -0.7673  0.4053
  577MOL0     C77816   4.147   5.853   4.648 -0.5648  0.6705 -0.5289
  577MOL0     C77817   4.263   5.859   4.558  0.6227  0.4173  0.1267
  577MOL0     C77818   4.326   5.974   4.536  0.0352 -0.4861  0.2659
  577MOL0     O77819   4.439   5.963   4.455  0.1597 -0.0244  0.2739
  577MOL0     C77820   4.484   6.088   4.402 -0.3330  0.5142  0.1207
  577MOL0     C77821   4.558   6.068   4.272  0.0595 -0.1848  0.1011
  577MOL0     C77822   4.468   6.015   4.161 -0.5228 -0.5444 -0.1340
  577MOL0     C77823   4.542   6.034   4.028 -0.1863 -0.2685 -0.5490
  577MOL0     C77824   4.462   6.007   3.914 -0.4988  0.2666 -0.6173
  577MOL0     C77825   4.387   5.973   3.824  0.6671  0.6988  0.4625
  577MOL0     C77826   4.278   6.088   4.605 -0.0040  0.1278  0.0807
  577MOL0     C77827   4.163   6.091   4.685  0.0210 -0.0429  0.3836
  577MOL0     H77828   3.680   5.816   4.759  0.5215  1.2947 -0.5591
  577MOL0     H77829   3.496   5.794   4.934  0.6230  1.3506 -3.4675
  577MOL0     H77830   3.553   5.727   5.389  4.2195  1.1159  0.3069
  577MOL0     H77831   3.639   5.872   5.352 -0.8344  1.0257  1.6079
  577MOL0     H77832   3.459   5.917   5.479 -0.0388 -1.9204  0.3156
  577MOL0     H77833   3.430   5.993   5.324  0.3838  1.8788  1.6272
  577MOL0     H77834   3.285   5.795   5.258 -1.3668 -1.2382  0.1094
  577MOL0     H77835   3.295   5.747   5.436  1.2443 -0.6219  0.3735
  577MOL0     H77836   3.218   5.965   5.505  1.2068 -1.7580  0.9522
  577MOL0     H77837   3.180   6.011   5.338 -1.0482  2.2040  2.9272
  577MOL0     H77838   3.052   5.777   5.470  0.4812 -0.9147 -1.0035
  577MOL0     H77839   2.988   5.941   5.456  0.8725 -1.4658  2.5397
  577MOL0     H77840   2.975   5.922   5.206  1.7942  1.5272  1.8399
  577MOL0     H77841   3.073   5.779   5.198 -0.4475  1.5165 -1.9090
  577MOL0     H77842   2.893   5.647   5.304 -1.7677 -1.4844  0.5719
  577MOL0     H77843   2.812   5.811   5.331 -1.8579  0.0055 -1.9664
  577MOL0     H77844   2.893   5.696   5.049 -0.9186 -2.3421 -0.1892
  577MOL0     H77845   2.806   5.842   5.080 -0.1595 -1.5196 -2.5605
  577MOL0     H77846   2.786   5.448   5.070 -1.0417  0.5295  0.1239
  577MOL0     H77847   2.604   5.308   4.937  0.1297 -0.2172  0.6260
  577MOL0     H77848   2.518   5.273   5.085  0.8554 -0.1926 -1.0824
  577MOL0     H77849   2.384   5.248   4.889  1.5495 -0.5959  2.7945
  577MOL0     H77850   2.403   5.424   4.853  1.2045 -1.9153 -2.2245
  577MOL0     H77851   2.251   5.478   5.030  0.1406  0.3443  0.9767
  577MOL0     H77852   2.280   5.326   5.116  0.1169  2.0049  1.5735
  577MOL0     H77853   2.147   5.196   4.946 -2.5157 -0.5313 -0.7769
  577MOL0     H77854   2.107   5.348   4.862 -1.6031  1.6907  0.7050
  577MOL0     H77855   1.797   5.363   5.183 -0.6386  0.7148 -0.9410
  577MOL0     H77856   1.585   5.361   5.236 -0.7403 -0.5996 -0.4633
  577MOL0     H77857   1.473   5.359   5.101  1.0430  1.6136  0.3525
  577MOL0     H77858   1.488   5.211   5.194 -2.3907  0.5950 -2.6123
  577MOL0     H77859   1.226   5.096   5.141  0.5913  2.4343  0.4398
  577MOL0     H77860   0.979   5.013   5.099 -0.9544 -0.5172 -0.5698
  577MOL0     H77861   0.828   5.161   4.901 -2.0405 -0.7379  2.6888
  577MOL0     H77862   0.778   5.085   4.747 -1.6604 -0.2183  0.2687
  577MOL0     H77863   0.609   4.946   4.856  3.0213 -1.4987 -1.7060
  577MOL0     H77864   0.670   5.014   5.015 -1.0109 -0.8991  0.3182
  577MOL0     H77865   0.572   5.199   4.805 -0.8306 -0.8041 -0.0887
  577MOL0     H77866   0.608   5.225   4.973 -0.1348 -0.6686  0.1102
  577MOL0     H77867   0.394   5.074   4.832  5.0733 -0.3599 -1.4618
  577MOL0     H77868   0.404   5.060   5.012 -1.2653 -0.1182  0.3096
  577MOL0     H77869   0.356   5.288   5.058 -0.5482 -2.2715  0.4117
  577MOL0     H77870   0.228   5.210   4.971  1.4271 -2.4909  2.1057
  577MOL0     H77871   0.246   5.426   4.902 -0.4573  1.5396 -1.6083
  577MOL0     H77872   0.424   5.417   4.883  1.5555 -3.6803  0.5774
  577MOL0     H77873   0.207   5.319   4.699  0.4391 -0.3389  2.0904
  577MOL0     H77874   0.366   5.252   4.687  0.3725 -0.4425  2.1826
  577MOL0     H77875   0.470   5.459   4.630  0.1289  0.1908 -1.8178
  577MOL0     H77876   0.333   5.562   4.664  1.7242  0.7730 -0.8018
  577MOL0     H77877   1.065   4.979   4.681 -0.3788  0.9794  0.5268
  577MOL0     H77878   1.292   5.054   4.714 -3.4143 -0.4170 -1.9523
  577MOL0     H77879   1.741   5.073   4.793 -1.1827  1.3565 -1.4132
  577MOL0     H77880   1.962   5.151   4.837 -1.4460 -0.3831 -2.0136
  577MOL0     H77881   3.802   5.801   5.238 -1.7240  1.0367  0.9403
  577MOL0     H77882   3.974   5.835   5.071 -0.5117 -1.1309  0.8195
  577MOL0     H77883   4.100   5.756   4.665  1.3405 -0.1518  0.4153
  577MOL0     H77884   4.305   5.771   4.511  1.3589  1.6638 -1.6530
  577MOL0     H77885   4.402   6.158   4.381 -0.6997  0.2353  0.6102
  577MOL0     H77886   4.547   6.138   4.477 -0.6807  0.0804  0.7098
  577MOL0     H77887   4.651   6.010   4.284  0.7574  0.7114 -0.8223
  577MOL0     H77888   4.569   6.172   4.242 -1.2286 -0.2859 -0.8183
  577MOL0     H77889   4.372   6.066   4.153 -1.1934 -1.5200  1.3032
  577MOL0     H77890   4.445   5.909   4.172 -3.4192 -0.0783 -0.8778
  577MOL0     H77891   4.629   5.968   4.037  1.1734  1.6155  0.9156
  577MOL0     H77892   4.582   6.135   4.019 -1.1003  0.2222  0.5065
  577MOL0     H77893   4.330   5.930   3.744  1.6652  0.5255 -0.1812
  577MOL0     H77894   4.342   6.176   4.596  0.1596 -0.1290 -1.6904
  577MOL0     H77895   4.123   6.173   4.744  0.1681 -0.2067  0.7179
  578MOL0     O77896   2.220   1.411   7.212 -0.2548 -0.3631 -0.2593
  578MOL0     C77897   2.219   1.322   7.292  0.3758 -0.7398 -0.2685
  578MOL0     O77898   2.117   1.228   7.305  0.2004  0.1215 -0.3714
  578MOL0     C77899   1.992   1.258   7.251  0.3361  0.6019  0.1498
  578MOL0     C77900   1.967   1.211   7.119 -0.2351  0.4565 -0.1703
  578MOL0     C77901   1.853   1.241   7.043 -0.1222  0.2121 -0.2065
  578MOL0     C77902   1.755   1.322   7.097  0.7975  0.3109 -0.0322
  578MOL0     O77903   1.642   1.342   7.018  0.0972  0.0298  0.0088
  578MOL0     C77904   1.515   1.344   7.094  0.3560  0.4714  0.2674
  578MOL0     C77905   1.402   1.308   6.994  0.1814 -0.7183  0.1875
  578MOL0     C77906   1.265   1.290   7.053  0.3391  0.0101  0.3076
  578MOL0     C77907   1.172   1.260   6.939  0.3289  0.1817  0.8742
  578MOL0     C77908   1.016   1.278   6.968  0.2849 -0.1563 -0.6183
  578MOL0     C77909   0.919   1.249   6.857  0.5375 -0.0368 -0.2066
  578MOL0     C77910   0.920   1.100   6.816  0.0370  0.2563  0.3724
  578MOL0     C77911   0.829   1.059   6.703  0.4259  0.6253 -0.3098
  578MOL0     N77912   0.682   1.059   6.728 -0.4899  0.1962 -0.1718
  578MOL0     C77913   0.608   1.029   6.843  0.4782  0.0925  0.0462
  578MOL0     C77914   0.479   1.031   6.807  0.0620 -0.5025  0.0767
  578MOL0     C77915   0.345   1.022   6.877 -0.0979  0.4076  0.6489
  578MOL0     C77916   0.305   1.159   6.940  0.1230 -0.0698  0.6439
  578MOL0     C77917   0.197   1.145   7.054 -0.0330  0.7745  0.0360
  578MOL0     C77918   0.199   1.268   7.151  0.4821 -0.6061 -0.6909
  578MOL0     O77919   0.202   1.395   7.085 -0.0938  0.2104  0.3654
  578MOL0     C77920   0.081   1.434   7.027 -0.3398 -0.6174 -0.2873
  578MOL0     C77921   0.084   1.545   6.944  0.2404 -0.1021  0.3791
  578MOL0     C77922  -0.027   1.599   6.880  0.5332 -0.5932 -0.6858
  578MOL0     C77923  -0.022   1.713   6.785 -0.6741  0.2481 -0.1241
  578MOL0     C77924  -0.152   1.531   6.894  0.1389 -0.0188  0.1464
  578MOL0     C77925  -0.278   1.575   6.829 -0.5050 -1.0401 -0.0038
  578MOL0     O77926  -0.305   1.709   6.823  0.0891 -0.4441  0.0897
  578MOL0     C77927  -0.402   1.755   6.745  0.4428  0.4924  0.8199
  578MOL0     C77928  -0.422   1.709   6.617  0.1917 -0.1810  0.2186
  578MOL0     C77929  -0.534   1.740   6.541 -0.1185 -0.2039 -0.5071
  578MOL0     C77930  -0.624   1.832   6.583  0.2587 -0.9043 -0.1073
  578MOL0     O77931  -0.731   1.860   6.499  0.6037 -0.0243 -0.4553
  578MOL0     C77932  -0.789   1.991   6.534 -0.4716 -0.0779 -0.6613
  578MOL0     C77933  -0.907   2.024   6.447 -0.3516 -0.0900  0.6092
  578MOL0     C77934  -1.015   1.915   6.474 -0.4762  0.3650  0.4979
  578MOL0     C77935  -1.129   1.940   6.381  0.1593 -0.0663  0.5399
  578MOL0     C77936  -1.212   1.821   6.339 -0.6782 -0.1081  0.3466
  578MOL0     C77937  -1.323   1.852   6.242 -0.3314  0.2552 -0.2701
  578MOL0     C77938  -1.414   1.731   6.217 -0.1348 -0.2375 -0.1415
  578MOL0     C77939  -1.426   1.704   6.068 -0.0971  0.5139  0.2449
  578MOL0    Cl77940  -1.531   1.567   6.043  0.3736  0.0335 -0.2633
  578MOL0     C77941  -0.600   1.892   6.707 -1.0536 -0.4326 -0.2155
  578MOL0     C77942  -0.489   1.856   6.787 -0.0408  0.7457  0.1632
  578MOL0     O77943  -0.353   1.494   6.781 -0.0633 -0.3120 -0.4721
  578MOL0     C77944  -0.157   1.418   6.969 -0.3222  0.0024 -0.3608
  578MOL0     C77945  -0.040   1.369   7.036 -0.1888 -0.4577  0.7981
  578MOL0     N77946   0.470   1.066   6.676  0.1404 -0.8204  0.7077
  578MOL0     N77947   0.592   1.076   6.630  0.0742 -0.2596  0.9223
  578MOL0     C77948   1.772   1.373   7.232  1.1590 -0.2643 -0.7438
  578MOL0     C77949   1.890   1.339   7.303  0.2297 -0.2861  0.3787
  578MOL0     C77950   2.337   1.307   7.382 -0.1346 -1.2572  0.5153
  578MOL0     C77951   2.349   1.201   7.480  0.5828 -0.0769 -0.1146
  578MOL0     C77952   2.457   1.205   7.571 -0.1004 -0.4661  0.3172
  578MOL0     C77953   2.557   1.299   7.566 -0.7729  0.8490  1.1152
  578MOL0     O77954   2.659   1.314   7.654  0.1392  0.9781  0.6244
  578MOL0     C77955   2.724   1.192   7.684  0.6452  0.1255 -0.0291
  578MOL0     C77956   2.805   1.216   7.805 -0.4415 -0.1957  0.8607
  578MOL0     C77957   2.947   1.240   7.776  0.1441  0.4906 -0.5356
  578MOL0     C77958   3.027   1.288   7.903  0.8509  0.4694  0.6853
  578MOL0     C77959   3.167   1.305   7.866 -0.0105  0.5632 -0.1404
  578MOL0     C77960   3.281   1.301   7.835  0.0705  0.7460 -0.1226
  578MOL0     C77961   2.545   1.402   7.476 -0.0899  0.7484  0.5914
  578MOL0     C77962   2.449   1.403   7.384 -0.0963  0.2820  1.3854
  578MOL0     H77963   2.032   1.147   7.060 -0.6675  0.6052 -0.8241
  578MOL0     H77964   1.843   1.215   6.939 -2.5125  0.3114 -0.0546
  578MOL0     H77965   1.510   1.266   7.170  0.3167  1.2039  1.0356
  578MOL0     H77966   1.497   1.436   7.151 -2.5377  0.5739 -0.6486
  578MOL0     H77967   1.404   1.396   6.929  2.2358 -2.5745 -2.4717
  578MOL0     H77968   1.424   1.239   6.913 -0.0159 -0.5520 -0.0098
  578MOL0     H77969   1.275   1.213   7.130  0.9158  0.2768  0.5072
  578MOL0     H77970   1.244   1.389   7.094  1.3662  0.9920 -1.4168
  578MOL0     H77971   1.200   1.330   6.860 -0.3610 -0.0383  0.4254
  578MOL0     H77972   1.188   1.161   6.895 -1.6119 -0.8163  2.2507
  578MOL0     H77973   0.995   1.219   7.058  1.7274 -0.6620 -0.5752
  578MOL0     H77974   0.998   1.383   6.993  1.5614 -0.1819  0.5420
  578MOL0     H77975   0.818   1.265   6.895 -1.0665 -3.6690 -2.3723
  578MOL0     H77976   0.939   1.316   6.772  0.8608  0.8362  0.5476
  578MOL0     H77977   1.021   1.072   6.784  0.3246  1.4294  0.1929
  578MOL0     H77978   0.898   1.040   6.905  3.4142 -0.1290  1.0673
  578MOL0     H77979   0.851   0.956   6.676  1.0362  0.3927  0.9962
  578MOL0     H77980   0.847   1.119   6.613  0.3006 -0.1917 -0.8887
  578MOL0     H77981   0.650   1.007   6.940 -1.7198 -0.6540  0.9109
  578MOL0     H77982   0.267   0.992   6.807  1.5083  2.4927 -2.2605
  578MOL0     H77983   0.352   0.946   6.955 -0.2932 -0.3191 -0.0297
  578MOL0     H77984   0.256   1.216   6.861 -0.0964 -0.8107  0.2414
  578MOL0     H77985   0.395   1.215   6.967  1.9558 -1.0018 -2.9559
  578MOL0     H77986   0.216   1.056   7.115  1.9785 -0.0795 -1.7162
  578MOL0     H77987   0.099   1.124   7.008  0.5233  1.2629 -1.4320
  578MOL0     H77988   0.284   1.259   7.220 -0.9036 -0.6634  1.0898
  578MOL0     H77989   0.111   1.257   7.216  0.5633 -0.6432 -0.5855
  578MOL0     H77990   0.178   1.600   6.943 -0.3343  0.8938 -0.4989
  578MOL0     H77991  -0.080   1.711   6.693 -0.1526 -1.1292 -0.4404
  578MOL0     H77992  -0.063   1.796   6.844 -1.5190 -0.0363 -0.3050
  578MOL0     H77993   0.079   1.748   6.761  0.1949  1.2916  4.1267
  578MOL0     H77994  -0.347   1.639   6.581 -0.7809 -0.9314 -0.3940
  578MOL0     H77995  -0.549   1.702   6.440 -2.5641 -2.6048  0.6283
  578MOL0     H77996  -0.826   2.006   6.636 -3.2213 -2.1411 -1.2417
  578MOL0     H77997  -0.714   2.068   6.512 -1.0708  0.4814 -0.7782
  578MOL0     H77998  -0.947   2.120   6.480  0.9320  0.4399  0.6714
  578MOL0     H77999  -0.870   2.029   6.344  3.3592  0.5020  1.8301
  578MOL0     H78000  -1.053   1.929   6.576  0.7461  0.2188  0.9841
  578MOL0     H78001  -0.968   1.818   6.456  3.1376  2.0480 -0.0203
  578MOL0     H78002  -1.203   2.014   6.414 -0.7791  0.0532 -1.6632
  578MOL0     H78003  -1.087   1.985   6.291  0.2061  0.0135  0.6020
  578MOL0     H78004  -1.255   1.777   6.430 -2.8830  0.6238 -0.2778
  578MOL0     H78005  -1.140   1.751   6.294 -0.5528 -1.1428  2.0339
  578MOL0     H78006  -1.389   1.928   6.286 -1.3328 -1.2159  0.8408
  578MOL0     H78007  -1.275   1.887   6.150 -0.2590 -0.9309 -0.6964
  578MOL0     H78008  -1.511   1.751   6.263 -0.8264 -0.6713 -1.3691
  578MOL0     H78009  -1.381   1.633   6.253 -0.2102 -1.5927 -3.4577
  578MOL0     H78010  -1.330   1.693   6.017 -0.7849 -0.3994 -0.9048
  578MOL0     H78011  -1.474   1.786   6.014 -1.3183 -0.2814  0.0805
  578MOL0     H78012  -0.669   1.963   6.751 -1.2562 -0.4156 -0.5595
  578MOL0     H78013  -0.481   1.906   6.883 -1.8147  0.2057  0.6331
  578MOL0     H78014  -0.246   1.356   6.978  1.0623 -2.2093 -1.0376
  578MOL0     H78015  -0.061   1.280   7.094 -0.6141  0.2256  1.7109
  578MOL0     H78016   1.702   1.435   7.286  2.5700 -1.6791  3.0270
  578MOL0     H78017   1.896   1.384   7.401  1.9449  0.6599 -0.1377
  578MOL0     H78018   2.277   1.119   7.485 -0.7414  1.0168 -0.4883
  578MOL0     H78019   2.471   1.123   7.640  0.9840 -2.6133 -2.2402
  578MOL0     H78020   2.648   1.118   7.709  1.4991 -0.3567  1.2364
  578MOL0     H78021   2.789   1.157   7.603  2.1772  2.1923  0.2300
  578MOL0     H78022   2.803   1.123   7.863  0.0044 -0.4757  0.4357
  578MOL0     H78023   2.768   1.305   7.857  0.7008  0.8506 -0.0594
  578MOL0     H78024   2.949   1.316   7.698 -3.0655  0.1687 -1.0576
  578MOL0     H78025   2.977   1.145   7.731  1.0708 -0.3148  1.6337
  578MOL0     H78026   3.003   1.229   7.992  0.0348  1.3910  1.0940
  578MOL0     H78027   2.985   1.385   7.931 -0.7111 -0.3008  1.1520
  578MOL0     H78028   3.379   1.296   7.792  0.3720  2.2651  0.3277
  578MOL0     H78029   2.614   1.486   7.476 -1.7996  2.3521 -2.9457
  578MOL0     H78030   2.447   1.480   7.308 -2.7641 -0.0508  1.0232
  579MOL0     O78031   3.726   0.083   6.273 -0.2117 -0.7903 -0.3274
  579MOL0     C78032   3.730   0.121   6.155 -0.1409 -0.1302  0.3269
  579MOL0     O78033   3.622   0.111   6.067  0.3144 -0.3464  0.5889
  579MOL0     C78034   3.514   0.060   6.130 -0.0048  0.5464  0.2358
  579MOL0     C78035   3.465  -0.063   6.084  0.8799  0.0500 -0.2392
  579MOL0     C78036   3.358  -0.129   6.135  0.2979 -0.3291 -0.1742
  579MOL0     C78037   3.288  -0.062   6.238  0.4023  0.5346  0.0515
  579MOL0     O78038   3.180  -0.113   6.296  0.1049  0.3478 -0.1641
  579MOL0     C78039   3.111  -0.210   6.219  1.5423  0.9665  0.1568
  579MOL0     C78040   2.967  -0.216   6.268 -0.4896 -0.1864 -0.5709
  579MOL0     C78041   2.885  -0.303   6.180 -0.0723  0.4958 -0.2092
  579MOL0     C78042   2.742  -0.343   6.232 -0.3228  0.4995 -0.2869
  579MOL0     C78043   2.656  -0.219   6.272 -0.3297 -0.3507 -0.0356
  579MOL0     C78044   2.547  -0.267   6.358  0.1699 -0.0180  0.6243
  579MOL0     C78045   2.429  -0.327   6.276  0.4067  1.7299  0.8206
  579MOL0     C78046   2.303  -0.367   6.355  0.4578  0.0745  0.2648
  579MOL0     N78047   2.222  -0.244   6.391  0.4736  0.0592  0.1658
  579MOL0     C78048   2.203  -0.180   6.512  0.0911 -0.5745 -0.4417
  579MOL0     C78049   2.103  -0.088   6.485 -0.6799  1.0235 -0.9494
  579MOL0     C78050   2.045   0.016   6.581  0.3845 -0.2151  0.8207
  579MOL0     C78051   1.997  -0.049   6.722  0.0900  0.2686 -0.3216
  579MOL0     C78052   1.910  -0.178   6.713  0.0023  0.1398 -0.1661
  579MOL0     C78053   1.766  -0.170   6.652  0.3373 -0.2434  0.1797
  579MOL0     O78054   1.681  -0.100   6.745 -0.7556 -0.3328 -0.1699
  579MOL0     C78055   1.554  -0.080   6.710 -0.2234  0.2697  0.3645
  579MOL0     C78056   1.486  -0.144   6.604 -0.3859 -0.4479  0.9324
  579MOL0     C78057   1.347  -0.124   6.577 -0.4311 -0.1740  0.6739
  579MOL0     C78058   1.290  -0.221   6.474 -0.5579 -0.0189  0.7145
  579MOL0     C78059   1.280  -0.024   6.655  0.2684 -0.2722  0.3945
  579MOL0     C78060   1.130   0.005   6.635  0.3357 -0.0995 -0.4315
  579MOL0     O78061   1.049  -0.057   6.540  0.0209  1.2530 -0.1691
  579MOL0     C78062   0.916  -0.028   6.547 -0.5199  0.3305 -0.1931
  579MOL0     C78063   0.827  -0.109   6.624  0.0218  0.4481 -0.3233
  579MOL0     C78064   0.693  -0.082   6.620  0.1054  0.6040 -0.4761
  579MOL0     C78065   0.640   0.018   6.530  0.7396 -0.2527  0.5748
  579MOL0     O78066   0.507   0.038   6.498  0.6019  0.4627  0.0421
  579MOL0     C78067   0.420  -0.075   6.529  0.1614  0.1935  0.3275
  579MOL0     C78068   0.290  -0.048   6.443  0.0061 -0.0242 -0.0040
  579MOL0     C78069   0.163  -0.113   6.505  0.3351  0.3230  0.0297
  579MOL0     C78070   0.037  -0.095   6.416  0.2916  0.5936 -0.4770
  579MOL0     C78071  -0.098  -0.129   6.488 -0.1806 -0.5953  0.7035
  579MOL0     C78072  -0.197  -0.046   6.404 -0.6396  0.4884  1.0789
  579MOL0     C78073  -0.333  -0.096   6.442 -0.6681  0.3695 -0.4765
  579MOL0     C78074  -0.392  -0.197   6.327  0.6597  0.0303 -0.6267
  579MOL0    Cl78075  -0.531  -0.294   6.389  0.0922 -0.3079 -0.4057
  579MOL0     C78076   0.735   0.099   6.460 -0.3902  0.2251 -0.0184
  579MOL0     C78077   0.870   0.077   6.468 -0.1369  0.3770  0.2824
  579MOL0     O78078   1.092   0.101   6.706  0.2233  0.5579  0.4574
  579MOL0     C78079   1.355   0.051   6.747 -0.4958 -0.0336  0.3027
  579MOL0     C78080   1.486   0.019   6.783 -0.5613  0.3177  0.4345
  579MOL0     N78081   2.059  -0.102   6.351 -0.1912  0.0107  0.0810
  579MOL0     N78082   2.127  -0.202   6.302 -0.0512  0.8486  0.4254
  579MOL0     C78083   3.347   0.049   6.301  0.0164  0.2516  0.1888
  579MOL0     C78084   3.458   0.110   6.247 -0.0459  0.7138 -0.4954
  579MOL0     C78085   3.865   0.161   6.108  0.7882  0.6465 -0.2768
  579MOL0     C78086   3.897   0.196   5.979  0.2895  0.0830  0.5114
  579MOL0     C78087   4.026   0.238   5.937 -0.9924  0.4157  0.3738
  579MOL0     C78088   4.125   0.257   6.030  1.1411 -0.4151 -0.1027
  579MOL0     O78089   4.236   0.328   5.998 -0.6764 -0.3256 -0.4255
  579MOL0     C78090   4.347   0.253   5.960 -0.9595  0.0806  0.6232
  579MOL0     C78091   4.341   0.205   5.812  0.3885 -0.1592  0.5072
  579MOL0     C78092   4.373   0.314   5.705  0.1219 -0.8270  0.5635
  579MOL0     C78093   4.413   0.262   5.570  0.4149 -0.3006  0.5708
  579MOL0     C78094   4.306   0.178   5.515  0.1738  0.2093  0.7816
  579MOL0     C78095   4.223   0.103   5.456  0.7349 -1.4255 -0.7790
  579MOL0     C78096   4.095   0.230   6.159  0.2197  0.1458  0.4565
  579MOL0     C78097   3.974   0.179   6.202 -0.2297 -0.1374  0.9394
  579MOL0     H78098   3.510  -0.123   6.005  1.2497  2.8404 -2.2842
  579MOL0     H78099   3.336  -0.226   6.093 -0.2398 -0.4070  0.2815
  579MOL0     H78100   3.116  -0.184   6.113 -0.8379 -1.0263 -0.5154
  579MOL0     H78101   3.161  -0.307   6.226 -0.0648 -0.0173 -1.3173
  579MOL0     H78102   2.962  -0.248   6.373 -3.3151  2.7598  0.3599
  579MOL0     H78103   2.922  -0.117   6.255 -0.4507 -0.2108 -0.8982
  579MOL0     H78104   2.875  -0.247   6.086 -1.3015  2.5186  1.0417
  579MOL0     H78105   2.932  -0.398   6.155 -1.2502 -0.4202  0.9675
  579MOL0     H78106   2.690  -0.395   6.151  0.3377  0.4305 -0.6699
  579MOL0     H78107   2.758  -0.418   6.311 -2.6706 -1.5626 -1.6283
  579MOL0     H78108   2.711  -0.151   6.338  0.2511 -1.0387  0.2022
  579MOL0     H78109   2.621  -0.166   6.183  1.8350 -1.4459 -1.6193
  579MOL0     H78110   2.579  -0.356   6.412 -0.8930 -0.2640  0.8741
  579MOL0     H78111   2.500  -0.193   6.424 -2.4514 -0.5213 -0.5397
  579MOL0     H78112   2.397  -0.260   6.196 -0.6108 -0.8560 -1.0589
  579MOL0     H78113   2.459  -0.424   6.238  1.2602  0.4804  4.3009
  579MOL0     H78114   2.328  -0.436   6.436 -0.6286 -1.2918 -0.5112
  579MOL0     H78115   2.249  -0.419   6.276  2.3333  0.4198 -1.3225
  579MOL0     H78116   2.266  -0.190   6.600 -2.6643 -0.3977  1.6718
  579MOL0     H78117   2.130   0.083   6.601 -0.2763  0.3562  1.8047
  579MOL0     H78118   1.971   0.082   6.536 -0.0982  1.0516  3.3079
  579MOL0     H78119   1.933   0.027   6.768  0.1320  0.5756 -0.7625
  579MOL0     H78120   2.090  -0.066   6.776  0.2854  2.8092  0.2612
  579MOL0     H78121   1.895  -0.200   6.819  1.4504  0.2306  0.0739
  579MOL0     H78122   1.966  -0.259   6.664 -1.2855 -0.0296 -1.4321
  579MOL0     H78123   1.733  -0.274   6.647  2.2697 -0.9921  1.8750
  579MOL0     H78124   1.768  -0.122   6.554  3.4861 -2.6717 -1.0984
  579MOL0     H78125   1.539  -0.230   6.562  1.0732 -0.3443  2.4715
  579MOL0     H78126   1.349  -0.313   6.483  0.3405  0.5071  0.2388
  579MOL0     H78127   1.187  -0.249   6.498 -0.7592  0.1534  0.0634
  579MOL0     H78128   1.297  -0.177   6.375  2.6609  0.3790  1.0131
  579MOL0     H78129   0.862  -0.193   6.683  0.6181  1.4238  0.7273
  579MOL0     H78130   0.631  -0.150   6.677  1.3544  0.4887  0.7878
  579MOL0     H78131   0.463  -0.166   6.487  0.8536  1.8716 -2.9004
  579MOL0     H78132   0.401  -0.079   6.637 -1.2217  2.1720  0.2196
  579MOL0     H78133   0.267   0.059   6.447 -1.9900 -0.3170 -1.5982
  579MOL0     H78134   0.304  -0.083   6.340 -2.7689  1.4431 -1.0018
  579MOL0     H78135   0.142  -0.073   6.605  0.2024 -2.7056  1.3259
  579MOL0     H78136   0.175  -0.220   6.527 -0.3784  0.1877 -0.1958
  579MOL0     H78137   0.028   0.008   6.382  1.4033  0.7415 -0.3494
  579MOL0     H78138   0.054  -0.151   6.323 -0.8093  1.3151 -1.1308
  579MOL0     H78139  -0.094  -0.095   6.592  2.6254  0.0531  0.4537
  579MOL0     H78140  -0.112  -0.237   6.480 -2.3815 -0.2354 -2.6556
  579MOL0     H78141  -0.184   0.059   6.432  3.3156  0.8481 -1.4866
  579MOL0     H78142  -0.172  -0.058   6.298  3.1384 -1.3307  2.0081
  579MOL0     H78143  -0.398  -0.008   6.441 -0.8916  0.2265  0.5295
  579MOL0     H78144  -0.331  -0.143   6.540  3.6151 -0.1184 -0.6180
  579MOL0     H78145  -0.316  -0.261   6.282  1.7109 -0.6024  1.8395
  579MOL0     H78146  -0.434  -0.136   6.247 -0.9777  1.7459  1.4231
  579MOL0     H78147   0.699   0.185   6.404 -1.7347  1.3044  2.3705
  579MOL0     H78148   0.946   0.131   6.413  0.4211 -1.4986 -0.8730
  579MOL0     H78149   1.315   0.128   6.812  2.2330 -0.3804  2.6464
  579MOL0     H78150   1.538   0.060   6.868 -1.2030  3.6894 -0.6328
  579MOL0     H78151   3.288   0.088   6.383  0.9497  2.9220 -0.3254
  579MOL0     H78152   3.491   0.201   6.297 -3.0723  1.9674 -0.5177
  579MOL0     H78153   3.820   0.189   5.902 -1.0905 -0.8463  1.9006
  579MOL0     H78154   4.037   0.265   5.832 -1.7349 -0.1980  0.1333
  579MOL0     H78155   4.437   0.317   5.962  2.1604 -3.8015 -1.6067
  579MOL0     H78156   4.369   0.166   6.023  1.1978  1.3312  1.7407
  579MOL0     H78157   4.240   0.167   5.790  0.6990 -0.4389 -0.4637
  579MOL0     H78158   4.400   0.114   5.797 -2.8772 -2.5346  0.8088
  579MOL0     H78159   4.456   0.377   5.739 -0.0806 -1.2497  1.8967
  579MOL0     H78160   4.287   0.381   5.695  1.0865  0.4912  0.7122
  579MOL0     H78161   4.510   0.211   5.560  0.6182  0.5476 -3.8641
  579MOL0     H78162   4.422   0.345   5.499 -1.8184 -1.4751 -1.2149
  579MOL0     H78163   4.154   0.045   5.398 -0.5940 -0.6412 -0.0244
  579MOL0     H78164   4.173   0.251   6.232 -0.1992 -0.6430  1.1611
  579MOL0     H78165   3.960   0.161   6.308 -4.4916 -0.5409  0.5025
  580MOL0     O78166   5.347   9.717   3.613  0.0158  0.0758 -0.9586
  580MOL0     C78167   5.248   9.699   3.551  0.8029 -0.0202 -0.6241
  580MOL0     O78168   5.202   9.779   3.451 -0.2412  0.6290 -0.4731
  580MOL0     C78169   5.217   9.912   3.432  1.1781  0.4970 -0.3869
  580MOL0     C78170   5.212   9.961   3.305 -0.4270  0.1874 -0.3708
  580MOL0     C78171   5.191  10.100   3.286 -0.6234  0.9401 -0.7888
  580MOL0     C78172   5.186  10.190   3.391  0.7234  0.0388 -0.9494
  580MOL0     O78173   5.165  10.325   3.382 -0.1705 -0.4818 -0.5473
  580MOL0     C78174   5.176  10.377   3.248  0.3489 -0.0866  0.0213
  580MOL0     C78175   5.153  10.527   3.234 -0.1507  0.3989 -0.5535
  580MOL0     C78176   5.230  10.613   3.318 -0.6424 -0.7049  0.4759
  580MOL0     C78177   5.210  10.764   3.273  0.6728 -0.3159  1.4004
  580MOL0     C78178   5.302  10.856   3.345 -1.2037 -0.0341 -0.6432
  580MOL0     C78179   5.328  10.992   3.277  0.1237  0.4970 -0.3040
  580MOL0     C78180   5.436  11.062   3.358 -0.3841 -0.0033 -0.5141
  580MOL0     C78181   5.430  11.075   3.512  0.6767  0.3484  1.2230
  580MOL0     N78182   5.312  11.152   3.563 -0.2485  0.6241 -0.1607
  580MOL0     C78183   5.281  11.284   3.550 -0.1743 -0.8120  0.1463
  580MOL0     C78184   5.151  11.295   3.577  0.3951  0.4744  0.1626
  580MOL0     C78185   5.077  11.423   3.567  0.2835  0.2669  0.0161
  580MOL0     C78186   5.011  11.446   3.425  0.8209  0.0862 -0.4100
  580MOL0     C78187   4.896  11.358   3.397 -0.2312  0.1135 -0.7537
  580MOL0     C78188   4.779  11.361   3.493  0.0866 -0.2479  0.6435
  580MOL0     O78189   4.672  11.301   3.420 -0.2856 -0.3269 -0.0583
  580MOL0     C78190   4.584  11.229   3.489  0.3347 -0.4032 -0.4931
  580MOL0     C78191   4.515  11.290   3.598  0.1463 -0.1184  0.3039
  580MOL0     C78192   4.417  11.223   3.669 -0.5833 -0.2303 -0.0119
  580MOL0     C78193   4.328  11.304   3.757  0.3382  0.0364  0.0711
  580MOL0     C78194   4.397  11.088   3.644 -0.4493 -0.5224 -0.0968
  580MOL0     C78195   4.291  11.012   3.699  0.8786  0.6482 -0.4448
  580MOL0     O78196   4.290  11.011   3.832 -0.9139  0.4464 -0.4073
  580MOL0     C78197   4.177  10.967   3.897 -0.4750 -0.1881 -0.6102
  580MOL0     C78198   4.069  11.056   3.914  0.1813  0.2031 -0.0019
  580MOL0     C78199   3.947  10.995   3.953 -0.8547 -0.1709 -1.0029
  580MOL0     C78200   3.937  10.869   3.999 -0.0796 -0.1091  0.2359
  580MOL0     O78201   3.815  10.824   4.040  0.2231  0.4526  0.3366
  580MOL0     C78202   3.792  10.684   4.070 -0.9802 -0.7557  0.6383
  580MOL0     C78203   3.653  10.688   4.123  1.1142  0.1913 -0.5642
  580MOL0     C78204   3.579  10.544   4.125 -0.4354  0.0665  0.0887
  580MOL0     C78205   3.444  10.555   4.053 -0.0899  2.0361  0.8309
  580MOL0     C78206   3.375  10.419   4.049  0.8091 -0.4512 -0.3543
  580MOL0     C78207   3.223  10.438   4.015 -0.2111 -0.2032  0.3513
  580MOL0     C78208   3.148  10.311   4.003  0.3377 -0.1138  0.3824
  580MOL0     C78209   2.996  10.325   3.999 -0.1377  1.0055  0.1971
  580MOL0    Cl78210   2.926  10.159   3.990  0.2000 -0.5473 -0.1448
  580MOL0     C78211   4.050  10.787   3.993  0.3648  0.0302 -0.1668
  580MOL0     C78212   4.166  10.830   3.937 -0.1224 -0.3185  0.2540
  580MOL0     O78213   4.205  10.963   3.626  0.0238 -0.4176 -0.0458
  580MOL0     C78214   4.465  11.021   3.541  0.2427 -2.0885  0.6022
  580MOL0     C78215   4.570  11.095   3.470  0.7831  0.1994  0.4539
  580MOL0     N78216   5.110  11.168   3.604  0.6032 -0.4874 -0.7640
  580MOL0     N78217   5.206  11.084   3.604 -0.3411  0.6585  0.6606
  580MOL0     C78218   5.196  10.135   3.517 -0.4439  0.0863  0.4657
  580MOL0     C78219   5.212  10.002   3.535  0.0191  0.0629 -0.8339
  580MOL0     C78220   5.161   9.579   3.574  0.6691  0.9284  0.7743
  580MOL0     C78221   5.028   9.579   3.512 -0.2805  0.4126  0.1302
  580MOL0     C78222   4.934   9.478   3.535 -0.0087 -0.5000 -0.3245
  580MOL0     C78223   4.971   9.377   3.617 -0.5039  0.0358 -0.2113
  580MOL0     O78224   4.885   9.269   3.649 -0.0393  0.0398 -0.1126
  580MOL0     C78225   4.747   9.263   3.604  0.1160  0.9908  0.0301
  580MOL0     C78226   4.686   9.138   3.663  0.0874  1.0843  0.4320
  580MOL0     C78227   4.540   9.135   3.670  0.7990 -0.0790  0.1578
  580MOL0     C78228   4.487   8.996   3.719 -0.2786  0.2859  0.0784
  580MOL0     C78229   4.500   8.870   3.635  0.3648  0.2195  0.1600
  580MOL0     C78230   4.524   8.773   3.559 -0.0740 -0.3935  0.2627
  580MOL0     C78231   5.102   9.374   3.674  0.7381  0.3190 -0.3658
  580MOL0     C78232   5.189   9.483   3.663 -0.2461  0.5447  0.4768
  580MOL0     H78233   5.219   9.900   3.215  0.4281 -0.5735  0.1947
  580MOL0     H78234   5.193  10.128   3.181 -0.5650 -2.8794 -1.9483
  580MOL0     H78235   5.273  10.361   3.200  0.8946  0.9285  0.7668
  580MOL0     H78236   5.102  10.329   3.183  1.7021 -0.3345 -1.4127
  580MOL0     H78237   5.174  10.554   3.131 -1.1182  0.7659 -0.6655
  580MOL0     H78238   5.047  10.536   3.261  0.4177  0.5125  1.8894
  580MOL0     H78239   5.195  10.609   3.422 -0.4322  0.2614  0.6014
  580MOL0     H78240   5.332  10.579   3.303 -0.8913 -0.6874 -1.5300
  580MOL0     H78241   5.220  10.773   3.165 -2.5090  1.0638  1.1171
  580MOL0     H78242   5.109  10.795   3.302  1.1352  2.0321  0.6522
  580MOL0     H78243   5.262  10.880   3.444  1.0932  0.3288  0.2512
  580MOL0     H78244   5.403  10.813   3.347 -0.9082  0.4910 -2.4470
  580MOL0     H78245   5.356  10.986   3.171 -0.6758 -1.1216 -0.4625
  580MOL0     H78246   5.231  11.043   3.286 -0.2164 -0.1225 -0.4366
  580MOL0     H78247   5.528  11.022   3.316  0.7621  0.9294  1.0300
  580MOL0     H78248   5.431  11.168   3.332 -0.4080  0.1113 -0.0580
  580MOL0     H78249   5.529  11.115   3.538  1.4265 -0.2739 -0.5548
  580MOL0     H78250   5.420  10.976   3.558 -0.4756 -0.5485 -0.8436
  580MOL0     H78251   5.351  11.358   3.514  1.8851 -3.3153 -1.3951
  580MOL0     H78252   4.998  11.427   3.642 -1.9135  0.4878 -2.1728
  580MOL0     H78253   5.152  11.500   3.589  1.1052 -0.7737  0.9476
  580MOL0     H78254   5.089  11.430   3.350  1.8233  0.6148  0.4751
  580MOL0     H78255   4.964  11.545   3.419 -1.0578 -0.8554 -2.2974
  580MOL0     H78256   4.936  11.258   3.377  1.6494  1.0856 -2.2240
  580MOL0     H78257   4.869  11.397   3.299  0.8891  3.7861  0.2257
  580MOL0     H78258   4.753  11.463   3.525 -6.8393 -2.3553  3.5095
  580MOL0     H78259   4.808  11.301   3.579  1.1784  0.3450  0.7062
  580MOL0     H78260   4.517  11.398   3.601  1.1860 -0.0306 -1.8499
  580MOL0     H78261   4.223  11.282   3.737  0.1393  0.3646  0.7307
  580MOL0     H78262   4.346  11.282   3.863 -0.7274 -1.7912 -0.0745
  580MOL0     H78263   4.335  11.412   3.739  2.1809 -0.0798 -0.1263
  580MOL0     H78264   4.074  11.159   3.879 -0.7266 -0.6850 -3.0803
  580MOL0     H78265   3.854  11.050   3.963  0.1865  1.3609  0.9151
  580MOL0     H78266   3.804  10.625   3.979 -0.4525  0.9579 -0.4529
  580MOL0     H78267   3.859  10.642   4.146  0.6726  2.1476  0.9413
  580MOL0     H78268   3.664  10.720   4.227  0.0557  1.9748 -0.9514
  580MOL0     H78269   3.582  10.754   4.071 -0.7734  0.6706  2.3795
  580MOL0     H78270   3.563  10.503   4.226  3.8422 -2.4000  0.0075
  580MOL0     H78271   3.652  10.479   4.076  0.8387  1.9934 -0.6661
  580MOL0     H78272   3.375  10.621   4.106 -2.9842 -0.0589 -0.0672
  580MOL0     H78273   3.456  10.591   3.951 -2.3557 -1.8100 -1.0228
  580MOL0     H78274   3.385  10.367   4.145 -1.2470  1.5808  1.0390
  580MOL0     H78275   3.421  10.353   3.974 -1.3972 -0.2163 -2.0042
  580MOL0     H78276   3.180  10.508   4.086  1.1773  1.4308 -0.3528
  580MOL0     H78277   3.213  10.484   3.916 -3.9048 -0.1228  0.6218
  580MOL0     H78278   3.171  10.251   4.091  0.7142  0.4543  0.6780
  580MOL0     H78279   3.177  10.265   3.908 -0.0608 -0.7872  0.5864
  580MOL0     H78280   2.972  10.385   3.910  2.8830  2.4019  0.2102
  580MOL0     H78281   2.958  10.386   4.081 -0.9329  1.7670 -0.7115
  580MOL0     H78282   4.043  10.681   4.017  2.2531 -0.4035 -1.3159
  580MOL0     H78283   4.246  10.758   3.928  0.2283  0.2187 -1.1337
  580MOL0     H78284   4.464  10.917   3.509  4.5902 -2.0072 -0.4400
  580MOL0     H78285   4.622  11.031   3.400  1.7022  1.0857  0.3022
  580MOL0     H78286   5.189  10.200   3.603  3.1106  0.2017  0.8318
  580MOL0     H78287   5.205   9.965   3.636  0.8289  0.1022 -0.7604
  580MOL0     H78288   4.996   9.662   3.450  0.2221  0.2074 -0.4070
  580MOL0     H78289   4.834   9.478   3.495 -1.2677 -3.4196  2.3511
  580MOL0     H78290   4.689   9.344   3.649  1.1649  1.9247 -0.2622
  580MOL0     H78291   4.751   9.245   3.496 -0.1558  1.1000  0.0008
  580MOL0     H78292   4.720   9.125   3.766 -1.3789 -3.1599  0.5703
  580MOL0     H78293   4.733   9.060   3.603  0.4559  4.0687 -3.5912
  580MOL0     H78294   4.504   9.154   3.569 -1.8422 -2.4954  0.5057
  580MOL0     H78295   4.498   9.214   3.733  0.6367  0.5955 -0.7849
  580MOL0     H78296   4.379   9.003   3.733 -0.4442 -0.9485 -0.4110
  580MOL0     H78297   4.517   8.969   3.820  1.8135  0.9279 -0.3202
  580MOL0     H78298   4.533   8.683   3.503 -1.3292  1.0292 -2.4002
  580MOL0     H78299   5.131   9.300   3.748  0.5271 -0.0708 -0.6712
  580MOL0     H78300   5.281   9.489   3.720  0.5061 -0.0066 -0.6281
  581MOL0     O78301  10.300   7.879   9.056 -0.2601  0.4699  0.2784
  581MOL0     C78302  10.316   7.860   9.174  0.0459 -0.2638 -0.4536
  581MOL0     O78303  10.222   7.809   9.258 -0.7188  0.0290  0.6842
  581MOL0     C78304  10.101   7.800   9.202 -0.5938  0.3051 -0.7748
  581MOL0     C78305  10.060   7.686   9.130 -0.0798  0.6620 -0.3296
  581MOL0     C78306   9.933   7.684   9.070 -0.5761 -0.4990  0.3216
  581MOL0     C78307   9.853   7.795   9.075  0.1202  0.1785  0.3497
  581MOL0     O78308   9.733   7.788   9.003  0.1375 -0.6498  0.3241
  581MOL0     C78309   9.653   7.906   8.987  0.7254  0.4702 -0.4179
  581MOL0     C78310   9.550   7.874   8.879  0.1611  0.3271  0.4592
  581MOL0     C78311   9.441   7.976   8.875  0.5994 -0.1131  0.7630
  581MOL0     C78312   9.332   7.940   8.771 -0.4139  0.5682 -0.0247
  581MOL0     C78313   9.227   8.050   8.781 -0.4304 -0.2087  0.9704
  581MOL0     C78314   9.115   8.026   8.674 -0.0468 -0.2562  0.2261
  581MOL0     C78315   9.043   8.153   8.645  0.3776 -0.5294  0.1527
  581MOL0     C78316   8.917   8.127   8.568 -0.4972 -0.2422  0.5685
  581MOL0     N78317   8.841   8.256   8.546  0.5177 -0.8253 -0.3093
  581MOL0     C78318   8.706   8.272   8.507  0.1570 -0.0432  0.5388
  581MOL0     C78319   8.691   8.405   8.482 -0.9232 -0.6957 -0.4609
  581MOL0     C78320   8.565   8.488   8.488 -0.1683 -0.3115  0.5770
  581MOL0     C78321   8.527   8.519   8.337  0.2129  0.2404 -0.0987
  581MOL0     C78322   8.490   8.405   8.244 -0.2340 -0.1780  0.4312
  581MOL0     C78323   8.353   8.336   8.272 -0.5107  0.2891 -0.2809
  581MOL0     O78324   8.354   8.259   8.394  0.0011  0.1535 -0.0609
  581MOL0     C78325   8.232   8.203   8.431  0.6981 -0.2120  0.9644
  581MOL0     C78326   8.229   8.139   8.551 -0.5336 -0.2998  0.1925
  581MOL0     C78327   8.119   8.074   8.604  0.6431  0.2966  0.2052
  581MOL0     C78328   8.140   7.988   8.722  0.3129 -0.1911  0.5087
  581MOL0     C78329   7.993   8.080   8.534 -1.4339  0.1205 -0.4040
  581MOL0     C78330   7.868   8.020   8.581  0.4171  0.6848 -0.0228
  581MOL0     O78331   7.755   8.070   8.528 -0.2420  0.1548 -0.1043
  581MOL0     C78332   7.635   8.021   8.572 -0.3731  0.2463 -0.1794
  581MOL0     C78333   7.599   8.015   8.708 -0.2180  0.8398  0.8481
  581MOL0     C78334   7.479   7.968   8.746  0.9720  0.6557  0.1173
  581MOL0     C78335   7.396   7.918   8.644  0.4210 -0.2808  0.3095
  581MOL0     O78336   7.272   7.867   8.655 -0.1448 -0.1843  0.6708
  581MOL0     C78337   7.223   7.823   8.784 -0.8803  0.2562  0.1709
  581MOL0     C78338   7.077   7.776   8.773  0.4280  0.5430  0.5299
  581MOL0     C78339   7.017   7.720   8.903  0.6172  0.5879 -0.6717
  581MOL0     C78340   6.860   7.713   8.890  0.1950 -0.2966 -0.8838
  581MOL0     C78341   6.798   7.662   9.023 -0.0828  0.1312  0.7544
  581MOL0     C78342   6.651   7.644   9.015 -0.1280 -0.9743  0.0091
  581MOL0     C78343   6.583   7.583   9.141  0.6048  0.3354  0.3930
  581MOL0     C78344   6.436   7.595   9.140  0.1256 -0.7820 -0.0823
  581MOL0    Cl78345   6.363   7.761   9.126 -0.1136  0.0780  0.0119
  581MOL0     C78346   7.425   7.928   8.509 -0.0192 -0.2480 -0.0677
  581MOL0     C78347   7.551   7.985   8.476  0.6252  0.1678  0.5112
  581MOL0     O78348   7.871   7.917   8.645  0.7475 -0.1518  0.4187
  581MOL0     C78349   7.993   8.151   8.413 -0.7209 -0.3803  0.4293
  581MOL0     C78350   8.113   8.204   8.361  0.4660 -0.5779  0.2109
  581MOL0     N78351   8.819   8.459   8.497  0.6550 -0.5099 -0.2270
  581MOL0     N78352   8.901   8.380   8.554  0.8240  0.5491  0.2328
  581MOL0     C78353   9.896   7.908   9.150 -0.1830 -1.1771  0.0854
  581MOL0     C78354  10.019   7.911   9.213 -0.2705 -0.6168 -0.2062
  581MOL0     C78355  10.450   7.883   9.224  0.5423  0.2854 -0.0590
  581MOL0     C78356  10.476   7.901   9.361 -0.2688 -0.0012 -0.4038
  581MOL0     C78357  10.614   7.920   9.395  0.6207 -0.3903  0.0098
  581MOL0     C78358  10.717   7.924   9.303 -0.1032 -0.2256  0.1351
  581MOL0     O78359  10.839   7.933   9.359 -0.0842 -0.2564  0.2692
  581MOL0     C78360  10.964   7.893   9.297 -0.0080 -0.7784  0.0527
  581MOL0     C78361  11.040   7.823   9.413 -0.5315 -0.3340  0.5179
  581MOL0     C78362  11.136   7.731   9.353 -0.1208  0.5038  0.4952
  581MOL0     C78363  11.200   7.633   9.447 -0.0332 -0.4755  0.2591
  581MOL0     C78364  11.274   7.700   9.552 -0.1711 -0.8200 -0.6306
  581MOL0     C78365  11.342   7.730   9.654  0.4956  0.7671 -0.1192
  581MOL0     C78366  10.688   7.907   9.165  0.0774  0.3473 -0.4461
  581MOL0     C78367  10.555   7.889   9.133 -0.0636  0.1543  0.6508
  581MOL0     H78368  10.128   7.603   9.114 -0.8966 -0.3405  1.1691
  581MOL0     H78369   9.888   7.606   9.009 -1.9876 -0.3528  1.1424
  581MOL0     H78370   9.592   7.925   9.076 -0.4100 -0.0206 -1.0655
  581MOL0     H78371   9.698   8.003   8.964  0.9190  0.1671 -1.3392
  581MOL0     H78372   9.607   7.878   8.785  0.2363  1.2367  0.5423
  581MOL0     H78373   9.506   7.776   8.899  0.4485 -0.1106 -0.9483
  581MOL0     H78374   9.395   7.977   8.974  0.9486  1.0720  0.9184
  581MOL0     H78375   9.470   8.078   8.850  1.2531 -0.0743  1.6547
  581MOL0     H78376   9.377   7.943   8.671 -2.4157  0.3362 -0.9930
  581MOL0     H78377   9.287   7.843   8.792  0.1798  0.1734 -0.5534
  581MOL0     H78378   9.172   8.059   8.875 -0.6917  0.4537  0.7583
  581MOL0     H78379   9.274   8.145   8.756  3.2104 -2.0749  0.1167
  581MOL0     H78380   9.157   7.992   8.579 -0.1393  1.6770 -0.5648
  581MOL0     H78381   9.054   7.941   8.704 -0.1569 -0.3407 -0.2205
  581MOL0     H78382   9.010   8.190   8.743 -1.5988 -0.0706 -0.6391
  581MOL0     H78383   9.112   8.227   8.602 -0.3670 -0.3314 -0.7266
  581MOL0     H78384   8.859   8.062   8.635 -0.4473 -0.8539  0.0280
  581MOL0     H78385   8.952   8.078   8.477  1.1104 -0.1789  1.1274
  581MOL0     H78386   8.624   8.201   8.496 -1.9121  2.3606 -0.9072
  581MOL0     H78387   8.486   8.438   8.545 -0.6569  1.0704  1.1584
  581MOL0     H78388   8.591   8.574   8.550 -2.0595  0.8865 -0.1879
  581MOL0     H78389   8.598   8.585   8.288  0.0728 -0.3803 -1.1678
  581MOL0     H78390   8.439   8.580   8.360  0.8202  0.4878  1.7824
  581MOL0     H78391   8.569   8.333   8.224  0.3636  1.2445 -2.9149
  581MOL0     H78392   8.475   8.460   8.151 -0.8704  0.9089  1.1489
  581MOL0     H78393   8.317   8.270   8.192 -1.2093 -1.0324  1.0654
  581MOL0     H78394   8.276   8.412   8.289 -1.4461 -0.5267 -0.7329
  581MOL0     H78395   8.322   8.136   8.606  0.0280 -2.4906 -0.7824
  581MOL0     H78396   8.065   8.023   8.795 -0.1564 -1.1715  0.5139
  581MOL0     H78397   8.132   7.881   8.699  2.0392 -0.6341  1.7512
  581MOL0     H78398   8.241   7.990   8.764  0.2472  1.6695  0.6470
  581MOL0     H78399   7.669   8.061   8.777  0.8472  4.6476 -2.3897
  581MOL0     H78400   7.449   7.959   8.850  2.9530 -3.4142  0.5331
  581MOL0     H78401   7.297   7.752   8.823  1.8652  2.4733 -0.6992
  581MOL0     H78402   7.224   7.908   8.853  1.9265  0.2047  0.2919
  581MOL0     H78403   7.014   7.864   8.756 -0.1850  0.0233  0.0158
  581MOL0     H78404   7.060   7.708   8.688 -0.7903 -1.0604  1.9801
  581MOL0     H78405   7.046   7.781   8.989 -0.1575  3.4449 -2.3139
  581MOL0     H78406   7.053   7.617   8.911  1.9113  0.9500 -1.6157
  581MOL0     H78407   6.834   7.816   8.862  1.1970 -0.3658 -2.1640
  581MOL0     H78408   6.835   7.645   8.808  0.5308 -0.2591 -1.0192
  581MOL0     H78409   6.820   7.739   9.098  0.0660  2.5640 -1.6311
  581MOL0     H78410   6.835   7.562   9.049 -0.6562 -0.3184 -0.1206
  581MOL0     H78411   6.611   7.742   8.990  1.2011  0.4225  2.8825
  581MOL0     H78412   6.638   7.570   8.935  0.5181 -0.5367 -0.5091
  581MOL0     H78413   6.625   7.628   9.232  0.5056 -0.6301  0.9240
  581MOL0     H78414   6.614   7.478   9.140 -0.8785 -0.1991  2.6580
  581MOL0     H78415   6.405   7.554   9.236 -0.9991  0.2861  0.0369
  581MOL0     H78416   6.383   7.541   9.061  0.0114  2.0634 -2.1010
  581MOL0     H78417   7.352   7.909   8.432 -0.2272 -0.2492  0.1292
  581MOL0     H78418   7.588   7.997   8.375 -0.5850 -0.7935 -0.0555
  581MOL0     H78419   7.906   8.158   8.348  0.6406 -1.1967 -1.5790
  581MOL0     H78420   8.116   8.252   8.263  0.4671 -2.6693 -0.8823
  581MOL0     H78421   9.834   7.997   9.148  1.8838  0.3728  0.7290
  581MOL0     H78422  10.053   8.003   9.260  2.5049 -2.0238  0.8210
  581MOL0     H78423  10.405   7.906   9.443  0.2830 -1.3264  0.1853
  581MOL0     H78424  10.635   7.938   9.500 -0.9126  0.2867  0.2266
  581MOL0     H78425  10.947   7.830   9.209  0.7404 -0.6354 -0.2026
  581MOL0     H78426  11.023   7.974   9.252 -2.5230  0.4121 -1.2957
  581MOL0     H78427  10.971   7.776   9.485 -1.2317 -0.0449  0.0455
  581MOL0     H78428  11.097   7.893   9.475 -0.7489  0.1548  0.1673
  581MOL0     H78429  11.213   7.797   9.312  0.3077  0.1243  0.6780
  581MOL0     H78430  11.081   7.679   9.274 -1.5884 -1.3695  2.6160
  581MOL0     H78431  11.261   7.564   9.388  0.2454 -0.6367  0.7315
  581MOL0     H78432  11.124   7.568   9.491  0.1873 -0.4061  0.7489
  581MOL0     H78433  11.396   7.752   9.744  1.6712  3.2661 -1.3512
  581MOL0     H78434  10.769   7.920   9.094  0.4156  0.4232 -0.0527
  581MOL0     H78435  10.532   7.891   9.027  0.7066  3.9477  0.4254
  582MOL0     O78436   3.125  10.254   9.258 -0.0422  0.1449  0.4330
  582MOL0     C78437   3.225  10.322   9.257 -0.0264  0.5196 -0.7295
  582MOL0     O78438   3.224  10.454   9.286 -0.4395  0.2474  0.1165
  582MOL0     C78439   3.120  10.539   9.311  0.2395 -0.3412  0.6682
  582MOL0     C78440   2.983  10.518   9.297 -1.2304  0.6583 -0.0870
  582MOL0     C78441   2.888  10.615   9.326  0.0750  0.1430 -0.4658
  582MOL0     C78442   2.927  10.742   9.379  0.7369  0.2686  0.3104
  582MOL0     O78443   2.844  10.842   9.415 -0.3194 -0.1826 -0.4675
  582MOL0     C78444   2.703  10.818   9.434  0.2196  0.4098  0.5409
  582MOL0     C78445   2.648  10.943   9.504 -0.0928  0.2839  0.1118
  582MOL0     C78446   2.484  10.929   9.526  0.0991 -0.2363  0.5277
  582MOL0     C78447   2.449  10.906   9.679  0.1300 -0.5959  0.3555
  582MOL0     C78448   2.307  10.849   9.684  0.6311  0.2050 -0.5305
  582MOL0     C78449   2.204  10.945   9.609  0.5371  0.6285 -0.4337
  582MOL0     C78450   2.061  10.919   9.664  0.0006 -0.5805 -0.3945
  582MOL0     C78451   1.963  11.022   9.602 -0.1847 -0.2273  0.4385
  582MOL0     N78452   1.821  10.991   9.628 -0.6815 -0.1360 -0.2529
  582MOL0     C78453   1.751  10.870   9.632  0.1479 -0.3174 -0.5308
  582MOL0     C78454   1.624  10.908   9.672 -0.4038 -1.0855  0.5994
  582MOL0     C78455   1.523  10.811   9.704  0.2426  0.8535  0.1318
  582MOL0     C78456   1.375  10.844   9.691  0.2907  0.1940  0.4979
  582MOL0     C78457   1.328  10.849   9.541  0.3472  0.2016 -0.4439
  582MOL0     C78458   1.189  10.917   9.550  0.2237  0.5552  0.3413
  582MOL0     O78459   1.095  10.825   9.597 -0.4573  0.2058  0.4639
  582MOL0     C78460   0.964  10.862   9.601 -0.6257 -0.7368 -0.1144
  582MOL0     C78461   0.875  10.775   9.671 -0.1991 -0.1526  0.4739
  582MOL0     C78462   0.741  10.803   9.697  0.6084 -0.0959  0.6180
  582MOL0     C78463   0.651  10.696   9.756  0.7982  0.6144  0.2027
  582MOL0     C78464   0.691  10.929   9.663 -0.2816 -1.2954 -0.4547
  582MOL0     C78465   0.555  10.985   9.692 -0.1045  0.5482  0.2030
  582MOL0     O78466   0.545  11.117   9.664  0.4660  0.2250 -0.0571
  582MOL0     C78467   0.420  11.170   9.670 -0.3203 -0.7597  0.0541
  582MOL0     C78468   0.410  11.302   9.726  0.1600  0.5025 -0.4326
  582MOL0     C78469   0.285  11.358   9.740  0.0335  0.5003 -0.1269
  582MOL0     C78470   0.168  11.293   9.692 -0.1570 -0.7894 -0.1908
  582MOL0     O78471   0.043  11.355   9.689 -0.1579 -0.0366  0.3350
  582MOL0     C78472   0.038  11.495   9.715  0.0405  0.4607 -0.7389
  582MOL0     C78473  -0.105  11.545   9.697  0.6243 -0.1223 -0.3438
  582MOL0     C78474  -0.114  11.698   9.723  0.0907 -0.1792 -0.1561
  582MOL0     C78475  -0.253  11.749   9.698 -1.0074  0.2420 -0.1952
  582MOL0     C78476  -0.290  11.879   9.773  0.4145  0.2448  0.6338
  582MOL0     C78477  -0.209  12.004   9.723 -0.8167 -0.8081 -0.1173
  582MOL0     C78478  -0.297  12.133   9.691  0.6508  0.3366  0.2443
  582MOL0     C78479  -0.390  12.118   9.571 -0.1069  0.9174  0.2826
  582MOL0    Cl78480  -0.433  12.271   9.529 -0.0978 -0.1794 -0.0462
  582MOL0     C78481   0.179  11.177   9.624 -0.2455  0.7111  0.4502
  582MOL0     C78482   0.303  11.115   9.613  0.0529  0.4672  0.1049
  582MOL0     O78483   0.468  10.914   9.744  0.7242 -0.3694 -0.9109
  582MOL0     C78484   0.778  11.012   9.591  0.3916 -0.4811 -0.0013
  582MOL0     C78485   0.909  10.983   9.564 -0.2468 -0.3682 -0.4656
  582MOL0     N78486   1.612  11.049   9.686  0.1650 -0.1968 -0.7615
  582MOL0     N78487   1.729  11.091   9.649  0.3018 -0.7063 -0.0232
  582MOL0     C78488   3.066  10.772   9.373  1.1455  0.1163 -0.3543
  582MOL0     C78489   3.165  10.667   9.346  0.5329 -0.0707  0.4731
  582MOL0     C78490   3.362  10.260   9.221  0.1310 -0.8610 -0.3922
  582MOL0     C78491   3.392  10.118   9.208  0.3724 -0.4259  0.7192
  582MOL0     C78492   3.514  10.064   9.178 -0.0217 -1.0538 -0.0993
  582MOL0     C78493   3.623  10.156   9.177 -0.4050 -0.1755  0.0366
  582MOL0     O78494   3.750  10.105   9.172  0.2155  0.8115  0.4237
  582MOL0     C78495   3.862  10.185   9.136  0.7352 -0.2853  0.6762
  582MOL0     C78496   3.859  10.204   8.985 -0.4372 -0.4988 -0.2863
  582MOL0     C78497   3.851  10.081   8.905  0.0084  0.7734 -0.2151
  582MOL0     C78498   3.865  10.103   8.756 -0.9262 -0.2790 -0.1028
  582MOL0     C78499   4.000  10.141   8.721 -0.4817  0.6411 -0.0933
  582MOL0     C78500   4.119  10.158   8.708  0.4625 -0.2230  0.1800
  582MOL0     C78501   3.595  10.289   9.181 -0.3143 -0.6913  0.5721
  582MOL0     C78502   3.468  10.344   9.197 -0.7618 -0.3922  0.3719
  582MOL0     H78503   2.951  10.416   9.276  1.7343 -0.4458  0.3190
  582MOL0     H78504   2.784  10.586   9.325 -0.1649  0.9587 -0.1649
  582MOL0     H78505   2.657  10.802   9.336  0.4635  0.3898  0.4282
  582MOL0     H78506   2.680  10.732   9.498 -2.5741 -1.5800 -2.8005
  582MOL0     H78507   2.693  10.937   9.603 -0.7330  0.8832  0.4538
  582MOL0     H78508   2.691  11.034   9.463  0.5872 -0.3035 -0.4821
  582MOL0     H78509   2.448  11.027   9.494  0.3815 -0.6406 -1.1006
  582MOL0     H78510   2.442  10.843   9.473 -1.8638 -0.9720  3.0656
  582MOL0     H78511   2.522  10.843   9.730  0.9489 -0.0061 -0.0685
  582MOL0     H78512   2.458  11.008   9.718  1.9340 -0.2164 -0.9347
  582MOL0     H78513   2.298  10.745   9.651  1.0318 -0.5448  1.5832
  582MOL0     H78514   2.276  10.848   9.789  1.9190 -1.7324 -0.1129
  582MOL0     H78515   2.232  11.051   9.616 -0.6980  1.1450 -2.5404
  582MOL0     H78516   2.222  10.918   9.505 -0.0779 -0.8533 -0.1679
  582MOL0     H78517   2.026  10.816   9.653  0.4691 -1.2022  2.7662
  582MOL0     H78518   2.065  10.942   9.771  0.4724  0.8625 -0.6952
  582MOL0     H78519   1.969  11.025   9.493 -0.8299 -0.4397  0.3933
  582MOL0     H78520   1.982  11.118   9.651 -0.8163 -0.1668  0.5724
  582MOL0     H78521   1.789  10.769   9.624  1.8790  0.2513  0.0519
  582MOL0     H78522   1.542  10.724   9.641 -1.5313  1.4615 -1.3232
  582MOL0     H78523   1.549  10.776   9.805 -1.8327  0.1813  0.4836
  582MOL0     H78524   1.362  10.938   9.745  0.3476  0.7270 -0.4011
  582MOL0     H78525   1.321  10.761   9.738 -2.4553  3.2189  3.1164
  582MOL0     H78526   1.335  10.745   9.510  1.1580 -0.3939  1.5864
  582MOL0     H78527   1.380  10.913   9.469 -0.5057  0.9771 -0.4057
  582MOL0     H78528   1.153  10.941   9.449  0.5639  2.3203  0.5982
  582MOL0     H78529   1.193  11.014   9.601 -0.7305  1.6167 -1.4701
  582MOL0     H78530   0.904  10.674   9.699 -1.7832 -1.4558 -2.1700
  582MOL0     H78531   0.614  10.734   9.852  0.6537  0.0541  0.3750
  582MOL0     H78532   0.559  10.687   9.699  0.1090  0.8243  1.2461
  582MOL0     H78533   0.691  10.595   9.774 -2.9414 -1.1166 -0.3529
  582MOL0     H78534   0.494  11.347   9.778  0.1757 -1.1133  1.0447
  582MOL0     H78535   0.283  11.450   9.797 -0.3323  2.2894 -2.8034
  582MOL0     H78536   0.068  11.509   9.820 -1.8838 -3.6969  0.5871
  582MOL0     H78537   0.105  11.538   9.641 -0.0050 -1.0308 -1.6816
  582MOL0     H78538  -0.130  11.520   9.594 -2.1401 -2.9300  0.8251
  582MOL0     H78539  -0.164  11.484   9.766  0.8349  0.8000  0.6851
  582MOL0     H78540  -0.044  11.745   9.653  1.3645  0.6386  1.6030
  582MOL0     H78541  -0.092  11.731   9.825 -0.2754 -1.7547  0.4523
  582MOL0     H78542  -0.270  11.758   9.590 -2.0628 -1.4432 -0.1964
  582MOL0     H78543  -0.325  11.674   9.731 -1.9009  2.5584  3.7329
  582MOL0     H78544  -0.272  11.876   9.881  1.9091 -0.1639  0.3933
  582MOL0     H78545  -0.397  11.883   9.751  0.0427 -1.1949  2.0044
  582MOL0     H78546  -0.129  12.036   9.791 -0.1993 -0.6380 -0.9098
  582MOL0     H78547  -0.158  11.977   9.630 -0.1087  0.1378 -0.0115
  582MOL0     H78548  -0.225  12.212   9.667  1.2995 -0.7229 -1.4979
  582MOL0     H78549  -0.355  12.158   9.780 -0.6460 -3.0379  0.4983
  582MOL0     H78550  -0.482  12.061   9.584 -0.7804  1.9709  0.2652
  582MOL0     H78551  -0.338  12.069   9.488 -2.5414 -1.1099 -0.1519
  582MOL0     H78552   0.093  11.140   9.568  0.5473 -0.1925 -0.1923
  582MOL0     H78553   0.314  11.027   9.550  0.1878  1.6903 -1.6574
  582MOL0     H78554   0.743  11.104   9.547 -0.8971 -1.4623 -1.0826
  582MOL0     H78555   0.972  11.049   9.505 -1.6457 -0.2629 -1.8821
  582MOL0     H78556   3.107  10.870   9.396 -0.3792  0.3052  1.9204
  582MOL0     H78557   3.273  10.684   9.347  1.4834 -4.5558 -1.3335
  582MOL0     H78558   3.317  10.045   9.235  0.3511 -1.4444 -1.8574
  582MOL0     H78559   3.543   9.960   9.169  2.4881 -0.8181  3.3546
  582MOL0     H78560   3.862  10.283   9.184 -1.7046  0.2922 -0.3289
  582MOL0     H78561   3.947  10.125   9.169  0.8952 -0.7727 -0.5463
  582MOL0     H78562   3.949  10.262   8.963 -1.3278  1.7103  1.4839
  582MOL0     H78563   3.777  10.270   8.954 -0.8092 -1.7402 -2.1209
  582MOL0     H78564   3.760  10.021   8.914  1.2749 -0.9692  2.2127
  582MOL0     H78565   3.922  10.005   8.939 -1.4167 -0.1996  0.7386
  582MOL0     H78566   3.790  10.170   8.711  1.1627  1.5674 -1.0108
  582MOL0     H78567   3.839  10.005   8.714 -3.5798  0.2123  0.2087
  582MOL0     H78568   4.222  10.180   8.692  0.0133  2.2944  0.1772
  582MOL0     H78569   3.671  10.366   9.173  0.3842 -1.5157 -1.7127
  582MOL0     H78570   3.468  10.453   9.196  0.2296 -0.3565  1.4981
  583MOL0     O78571   2.534  10.988   4.085 -0.4876 -0.5529 -0.0681
  583MOL0     C78572   2.517  11.036   4.193 -0.6420 -0.4970 -0.0421
  583MOL0     O78573   2.405  11.023   4.273 -0.5231  0.1888 -0.2987
  583MOL0     C78574   2.293  10.959   4.230 -0.7469  0.3454 -0.1584
  583MOL0     C78575   2.233  10.876   4.323  0.0063  0.0327  0.5375
  583MOL0     C78576   2.111  10.809   4.291 -0.8374 -0.3643 -0.2060
  583MOL0     C78577   2.063  10.808   4.164  0.7666 -0.4164 -0.9987
  583MOL0     O78578   1.949  10.740   4.135 -0.5943  0.1640 -0.0252
  583MOL0     C78579   1.887  10.759   4.003 -0.5536  0.1595  0.3581
  583MOL0     C78580   1.743  10.722   4.004 -0.6798  1.0271 -0.1329
  583MOL0     C78581   1.702  10.721   3.860 -0.4800 -0.8863 -0.4065
  583MOL0     C78582   1.550  10.723   3.857 -0.2747 -0.0297 -0.1431
  583MOL0     C78583   1.494  10.743   3.710  0.7556  0.3456 -0.3707
  583MOL0     C78584   1.341  10.701   3.712 -0.2990  0.1707  0.3144
  583MOL0     C78585   1.295  10.703   3.569  0.0418 -0.4042 -0.2668
  583MOL0     C78586   1.145  10.714   3.566  0.4468 -0.2863  0.7270
  583MOL0     N78587   1.096  10.748   3.425  1.2593 -0.9587  0.3423
  583MOL0     C78588   1.072  10.879   3.378 -0.2625  0.6486  0.3858
  583MOL0     C78589   0.993  10.855   3.270 -0.8038 -0.6344  0.0772
  583MOL0     C78590   0.945  10.956   3.169 -0.6244 -0.8934  0.5180
  583MOL0     C78591   1.063  11.012   3.074  0.3902  0.2571 -0.0580
  583MOL0     C78592   1.004  11.038   2.930  0.0314 -0.0694 -0.5509
  583MOL0     C78593   0.879  11.130   2.922  0.8111  0.1932  0.8237
  583MOL0     O78594   0.898  11.271   2.940  0.0496 -0.2347 -0.2285
  583MOL0     C78595   0.790  11.351   2.944 -0.8986 -0.5383  0.7525
  583MOL0     C78596   0.808  11.481   2.886 -0.5305  0.1219 -0.1959
  583MOL0     C78597   0.720  11.579   2.879 -0.5111 -0.0508  0.2130
  583MOL0     C78598   0.771  11.701   2.819  0.0285 -0.1029 -0.1026
  583MOL0     C78599   0.590  11.545   2.927  0.2867  0.0627 -0.1509
  583MOL0     C78600   0.475  11.639   2.932 -0.3740  0.4273  0.1429
  583MOL0     O78601   0.347  11.589   2.915  0.1645 -0.2004  0.2504
  583MOL0     C78602   0.246  11.684   2.905  0.4272 -0.0465  0.0340
  583MOL0     C78603   0.126  11.648   2.967 -0.0880  0.5290  0.0002
  583MOL0     C78604   0.005  11.716   2.940  0.8029 -0.6411 -0.2420
  583MOL0     C78605   0.006  11.834   2.865  0.2164 -0.3796 -0.0429
  583MOL0     O78606  -0.106  11.914   2.843 -0.3792  0.7225 -0.4164
  583MOL0     C78607  -0.237  11.871   2.886 -0.3132  0.0823 -0.2663
  583MOL0     C78608  -0.255  11.916   3.028  0.2182 -0.1974  1.0857
  583MOL0     C78609  -0.376  11.856   3.101 -0.4290  0.2814  0.4362
  583MOL0     C78610  -0.518  11.887   3.040 -0.1361 -0.9258  0.1100
  583MOL0     C78611  -0.643  11.907   3.126  0.4371  0.5098  0.0527
  583MOL0     C78612  -0.780  11.853   3.071 -0.4154 -0.3895  0.5060
  583MOL0     C78613  -0.810  11.916   2.938 -0.1374  0.5651 -0.2546
  583MOL0     C78614  -0.811  12.069   2.934  0.3830 -0.2138  0.3599
  583MOL0    Cl78615  -0.905  12.131   3.067  0.0928  0.1817 -0.1288
  583MOL0     C78616   0.123  11.875   2.804 -0.0637 -0.6483  0.5116
  583MOL0     C78617   0.248  11.802   2.826 -0.8787 -0.3607  0.9111
  583MOL0     O78618   0.498  11.760   2.948 -0.0916 -0.0884  0.2207
  583MOL0     C78619   0.570  11.423   2.988  0.3833  0.0245  0.3340
  583MOL0     C78620   0.662  11.321   2.984  0.4507 -0.0931 -0.2195
  583MOL0     N78621   0.976  10.720   3.251  0.2505 -0.2403 -0.5537
  583MOL0     N78622   1.038  10.653   3.343 -0.7995  0.6340  0.2239
  583MOL0     C78623   2.119  10.901   4.070  0.4013 -0.6752 -0.6137
  583MOL0     C78624   2.239  10.968   4.108  1.3595 -0.3632  0.4542
  583MOL0     C78625   2.635  11.106   4.259 -0.2012 -0.0900 -0.2302
  583MOL0     C78626   2.628  11.138   4.395  0.3033  0.6927 -0.3018
  583MOL0     C78627   2.744  11.195   4.452  0.8114  0.3957  0.8568
  583MOL0     C78628   2.860  11.220   4.378  0.5291 -0.9220 -0.0104
  583MOL0     O78629   2.983  11.262   4.423 -0.6208  0.1474  0.3820
  583MOL0     C78630   2.989  11.327   4.553  0.3548 -0.1985 -0.5085
  583MOL0     C78631   3.125  11.382   4.594 -0.7016  0.0579 -0.0650
  583MOL0     C78632   3.169  11.502   4.509 -0.0432  0.2761 -0.1454
  583MOL0     C78633   3.300  11.555   4.550 -0.3096  0.5286  0.0900
  583MOL0     C78634   3.346  11.654   4.456  0.6492  0.5616  0.1427
  583MOL0     C78635   3.374  11.749   4.389  1.1341  1.2013  0.0695
  583MOL0     C78636   2.860  11.188   4.242  0.5069 -0.1346 -0.1632
  583MOL0     C78637   2.749  11.126   4.186  0.3813 -0.0550  0.0120
  583MOL0     H78638   2.266  10.879   4.427 -3.9864 -0.4043  1.9909
  583MOL0     H78639   2.060  10.749   4.365  0.3185  2.0961  2.8143
  583MOL0     H78640   1.882  10.863   3.968 -0.1196 -0.0065 -0.2153
  583MOL0     H78641   1.945  10.700   3.931  1.4594  1.7830  0.5430
  583MOL0     H78642   1.719  10.624   4.047 -0.7025  1.3807  0.6800
  583MOL0     H78643   1.687  10.794   4.064 -2.4198  1.2727 -1.9666
  583MOL0     H78644   1.742  10.809   3.809 -1.1620 -1.4910 -2.0766
  583MOL0     H78645   1.743  10.634   3.808  0.0134  0.2910 -2.0965
  583MOL0     H78646   1.512  10.628   3.896  0.0650 -0.1116 -0.0013
  583MOL0     H78647   1.512  10.805   3.919  1.0621 -0.3843  1.2013
  583MOL0     H78648   1.510  10.847   3.680  0.9941 -0.0930 -1.8097
  583MOL0     H78649   1.545  10.672   3.646  1.3071 -0.4937  0.9657
  583MOL0     H78650   1.330  10.599   3.749  1.2218 -0.4486 -0.8160
  583MOL0     H78651   1.283  10.771   3.772 -0.2686  3.2725 -2.8927
  583MOL0     H78652   1.343  10.787   3.519  2.9235 -2.4274 -1.1569
  583MOL0     H78653   1.330  10.614   3.515 -0.9448 -0.7611 -0.3529
  583MOL0     H78654   1.114  10.791   3.636  0.1517 -0.8734  1.2506
  583MOL0     H78655   1.110  10.613   3.591  0.7371 -0.8844 -1.1022
  583MOL0     H78656   1.104  10.975   3.420  0.6074 -0.0965  1.4934
  583MOL0     H78657   0.869  10.912   3.103 -1.0031  0.2684  0.1380
  583MOL0     H78658   0.892  11.037   3.220  0.6675  1.3260 -1.4638
  583MOL0     H78659   1.148  10.944   3.079  1.1635  1.0762 -1.3539
  583MOL0     H78660   1.094  11.110   3.110 -1.9201  0.9295  0.2801
  583MOL0     H78661   0.985  10.939   2.889 -2.1468 -0.1969  0.6467
  583MOL0     H78662   1.089  11.077   2.872  0.7182 -0.6744  0.0332
  583MOL0     H78663   0.804  11.091   2.992  1.4681 -1.1577  0.7984
  583MOL0     H78664   0.842  11.121   2.820 -2.8017  0.8694  1.9269
  583MOL0     H78665   0.908  11.499   2.849  0.4698  0.1292  2.3065
  583MOL0     H78666   0.683  11.739   2.767 -1.1602 -2.1446  0.3179
  583MOL0     H78667   0.795  11.769   2.901 -0.7723  2.0015 -1.5429
  583MOL0     H78668   0.859  11.696   2.753  1.3409 -2.7314  1.6347
  583MOL0     H78669   0.133  11.550   3.014  2.5307  1.3171  1.3985
  583MOL0     H78670  -0.088  11.677   2.979  0.9949 -1.2225 -0.3642
  583MOL0     H78671  -0.317  11.927   2.837  0.7826  1.3425 -0.6836
  583MOL0     H78672  -0.263  11.766   2.868  0.5362 -0.3277  0.8082
  583MOL0     H78673  -0.168  11.890   3.090  0.3796 -2.9103 -0.1405
  583MOL0     H78674  -0.267  12.024   3.017 -2.1260 -0.5501 -0.5472
  583MOL0     H78675  -0.377  11.899   3.201 -1.8682  1.1261  0.0965
  583MOL0     H78676  -0.363  11.748   3.109  3.4179  0.4810 -1.1238
  583MOL0     H78677  -0.501  11.969   2.969  0.4772 -2.2983 -1.3773
  583MOL0     H78678  -0.531  11.801   2.974  1.5724 -1.0724 -0.0857
  583MOL0     H78679  -0.653  12.013   3.153 -1.4712 -0.4507  3.8924
  583MOL0     H78680  -0.617  11.857   3.220  0.3918 -3.3386 -1.7894
  583MOL0     H78681  -0.773  11.744   3.068 -0.1350 -0.3629 -0.9072
  583MOL0     H78682  -0.866  11.859   3.138  1.3333 -0.8433  2.9220
  583MOL0     H78683  -0.900  11.869   2.898  1.0614  0.3899 -2.9446
  583MOL0     H78684  -0.741  11.879   2.861 -0.4753  1.4826 -1.0126
  583MOL0     H78685  -0.853  12.099   2.837  0.7288  0.9915  0.5631
  583MOL0     H78686  -0.710  12.111   2.923  1.4133 -3.1577 -3.5689
  583MOL0     H78687   0.123  11.958   2.734 -1.1170 -1.1089 -0.0486
  583MOL0     H78688   0.340  11.818   2.771  0.1501 -4.6332  1.0650
  583MOL0     H78689   0.471  11.402   3.026 -1.0533  2.3881 -1.7865
  583MOL0     H78690   0.638  11.220   3.018  0.6574  0.1822  0.7908
  583MOL0     H78691   2.084  10.917   3.968  2.4228 -1.3200 -1.4595
  583MOL0     H78692   2.285  11.029   4.031 -2.1930 -1.1098 -2.5693
  583MOL0     H78693   2.546  11.117   4.463  0.5235  0.7594 -0.0153
  583MOL0     H78694   2.734  11.214   4.558  0.1914  3.9642  0.2818
  583MOL0     H78695   2.915  11.407   4.562 -0.1073 -0.7111  0.4848
  583MOL0     H78696   2.949  11.263   4.633 -1.5712 -0.7595 -1.8527
  583MOL0     H78697   3.196  11.299   4.584  0.3598  1.0247 -0.8098
  583MOL0     H78698   3.118  11.404   4.701  0.7111 -0.5506  0.1693
  583MOL0     H78699   3.099  11.584   4.527  0.4536  0.8030 -0.5924
  583MOL0     H78700   3.177  11.474   4.403 -0.5932  0.7917 -0.3287
  583MOL0     H78701   3.372  11.474   4.561  0.6453  1.5064  1.3709
  583MOL0     H78702   3.281  11.592   4.652 -1.3704 -1.2311  0.5603
  583MOL0     H78703   3.369  11.829   4.318  0.6008  0.8486 -0.2985
  583MOL0     H78704   2.952  11.195   4.184  0.2951  0.7642 -0.4054
  583MOL0     H78705   2.753  11.085   4.085 -0.8052  0.4911 -0.2742
  584MOL0     O78706   0.967   1.586   7.918 -0.0213 -0.1545  0.2578
  584MOL0     C78707   0.996   1.543   8.033 -0.4347 -0.5479 -0.7059
  584MOL0     O78708   0.918   1.520   8.134  0.5176  0.3235 -0.1572
  584MOL0     C78709   0.784   1.532   8.121 -0.4050 -0.3383  0.0238
  584MOL0     C78710   0.704   1.434   8.192 -0.6461 -0.3956  0.5325
  584MOL0     C78711   0.566   1.442   8.193  0.3792 -0.4053  0.5345
  584MOL0     C78712   0.499   1.551   8.125 -0.7206 -0.8021  0.0291
  584MOL0     O78713   0.362   1.557   8.133 -0.0101  1.1990 -0.4180
  584MOL0     C78714   0.297   1.486   8.026 -0.0289 -1.2978  0.5147
  584MOL0     C78715   0.145   1.506   8.044 -0.2910  0.8432 -0.2503
  584MOL0     C78716   0.055   1.472   7.917  0.3144  0.3828 -0.1342
  584MOL0     C78717  -0.095   1.477   7.960  0.9803  0.1897 -0.2782
  584MOL0     C78718  -0.187   1.437   7.845  0.1175 -0.7941  0.1418
  584MOL0     C78719  -0.330   1.418   7.895 -0.4938 -0.2741 -0.2157
  584MOL0     C78720  -0.414   1.385   7.776 -0.1325  0.0773 -0.1241
  584MOL0     C78721  -0.561   1.407   7.807  0.9215 -1.0008  0.3096
  584MOL0     N78722  -0.641   1.356   7.692 -0.6401  0.0837 -0.5450
  584MOL0     C78723  -0.756   1.407   7.641 -0.2926  0.2968 -0.9808
  584MOL0     C78724  -0.784   1.332   7.528  0.3154 -0.7826  0.8628
  584MOL0     C78725  -0.873   1.353   7.418 -0.2911 -0.0612  0.4857
  584MOL0     C78726  -1.017   1.311   7.438  0.1621  0.2226 -0.7650
  584MOL0     C78727  -1.038   1.150   7.432  0.8320  0.0617 -0.0623
  584MOL0     C78728  -1.179   1.108   7.431  0.2773  0.4907  0.4490
  584MOL0     O78729  -1.254   1.117   7.553  0.0495 -0.7395  0.1459
  584MOL0     C78730  -1.393   1.104   7.546 -0.2786  0.0093 -0.3107
  584MOL0     C78731  -1.467   1.062   7.433  0.4663 -0.3372  0.1808
  584MOL0     C78732  -1.609   1.052   7.434  0.1374  0.5051  0.3501
  584MOL0     C78733  -1.673   0.991   7.313  0.0338  0.2942  0.4577
  584MOL0     C78734  -1.679   1.087   7.546  0.1360 -0.5442  1.0074
  584MOL0     C78735  -1.826   1.096   7.544  0.4739 -0.4436  1.3568
  584MOL0     O78736  -1.886   1.100   7.421  0.2325  0.6418  0.3145
  584MOL0     C78737  -2.019   1.109   7.393 -0.1096 -0.1945  0.0028
  584MOL0     C78738  -2.055   1.056   7.267  0.2458 -0.3646  1.3530
  584MOL0     C78739  -2.184   1.060   7.217 -0.0415 -0.2732  0.4097
  584MOL0     C78740  -2.285   1.125   7.293  0.3451 -0.2010  0.3728
  584MOL0     O78741  -2.412   1.151   7.236  0.3124  0.6403 -0.4383
  584MOL0     C78742  -2.431   1.147   7.099  0.6985  0.5649 -0.5273
  584MOL0     C78743  -2.560   1.198   7.055 -0.2742 -0.3603  0.3764
  584MOL0     C78744  -2.670   1.128   7.127  0.1054 -0.6998 -0.3226
  584MOL0     C78745  -2.802   1.153   7.061 -0.2915  0.0747  0.2846
  584MOL0     C78746  -2.910   1.056   7.092  0.9294  0.4208 -0.2963
  584MOL0     C78747  -3.037   1.081   7.006 -0.2337 -0.6808  1.0118
  584MOL0     C78748  -3.119   1.198   7.053  0.3034 -0.5437 -0.0278
  584MOL0     C78749  -3.270   1.168   7.037  0.0003 -0.1541 -0.3241
  584MOL0    Cl78750  -3.344   1.313   7.104  0.2178  0.4274  0.0034
  584MOL0     C78751  -2.252   1.175   7.420  0.8367  0.1701  0.4889
  584MOL0     C78752  -2.120   1.169   7.472 -0.3668  0.5404  0.0503
  584MOL0     O78753  -1.886   1.108   7.648  0.5421 -0.0930  0.3998
  584MOL0     C78754  -1.604   1.117   7.660 -0.1649 -0.0341  0.0451
  584MOL0     C78755  -1.464   1.133   7.659 -0.6355  0.1590 -0.1696
  584MOL0     N78756  -0.670   1.250   7.501  0.8181  0.3515  0.9962
  584MOL0     N78757  -0.595   1.260   7.601 -0.2360  0.3482 -0.4911
  584MOL0     C78758   0.581   1.649   8.061 -0.4701 -0.2892 -0.4206
  584MOL0     C78759   0.717   1.643   8.061  0.1298  0.0883 -0.1323
  584MOL0     C78760   1.131   1.479   8.039  1.0964  0.2091 -0.0850
  584MOL0     C78761   1.164   1.385   8.140  0.0270  0.2404 -0.5946
  584MOL0     C78762   1.283   1.327   8.143  0.1833 -0.2841 -0.1835
  584MOL0     C78763   1.385   1.354   8.052  0.0094 -1.0293 -0.3270
  584MOL0     O78764   1.491   1.266   8.052 -0.6051  0.2117 -0.0811
  584MOL0     C78765   1.611   1.280   7.960  1.2153 -0.1364 -0.6778
  584MOL0     C78766   1.710   1.172   8.006  0.2348  0.2056  0.2384
  584MOL0     C78767   1.833   1.205   7.925  0.0037 -0.0927 -0.0081
  584MOL0     C78768   1.952   1.118   7.960  0.3620 -0.3736 -0.4065
  584MOL0     C78769   2.016   1.152   8.088  0.6271  0.8153 -0.1046
  584MOL0     C78770   2.082   1.179   8.184  0.4440 -0.2033 -0.3796
  584MOL0     C78771   1.349   1.428   7.937 -0.6288 -0.0501  0.8960
  584MOL0     C78772   1.227   1.500   7.936  0.0716  0.5895 -0.3993
  584MOL0     H78773   0.752   1.345   8.232 -2.0722 -2.1634 -1.4956
  584MOL0     H78774   0.495   1.375   8.241 -1.4291  0.7718 -0.3893
  584MOL0     H78775   0.319   1.541   7.934 -2.5327 -0.7971  0.1347
  584MOL0     H78776   0.335   1.384   8.016  2.0011 -0.8877  3.1251
  584MOL0     H78777   0.123   1.450   8.135  2.6206  2.6537  1.7299
  584MOL0     H78778   0.128   1.613   8.062  1.4149  0.7179  2.5563
  584MOL0     H78779   0.087   1.530   7.830 -0.9050  0.0177 -0.8436
  584MOL0     H78780   0.086   1.370   7.893 -0.2795 -0.0873  1.0254
  584MOL0     H78781  -0.104   1.407   8.043 -0.5845  2.4387  1.6100
  584MOL0     H78782  -0.124   1.576   7.997  0.6980 -0.0555  0.1644
  584MOL0     H78783  -0.183   1.525   7.780  0.3737 -0.4212  0.6563
  584MOL0     H78784  -0.150   1.354   7.783  2.4935 -1.6968  2.5893
  584MOL0     H78785  -0.323   1.324   7.951  1.1955 -0.4463 -0.6538
  584MOL0     H78786  -0.349   1.502   7.963  0.5928  1.1681 -1.6065
  584MOL0     H78787  -0.389   1.448   7.689  0.5335 -0.5403 -0.3895
  584MOL0     H78788  -0.402   1.280   7.749  1.1010 -0.2257  1.4798
  584MOL0     H78789  -0.567   1.516   7.816  0.7862 -0.5901 -3.3695
  584MOL0     H78790  -0.585   1.355   7.901  2.1365  0.2045  1.3419
  584MOL0     H78791  -0.816   1.485   7.686  0.4068  0.3002 -0.0314
  584MOL0     H78792  -0.877   1.462   7.410 -0.2458 -0.2032 -2.7268
  584MOL0     H78793  -0.834   1.310   7.325  0.2712  1.9090 -0.2497
  584MOL0     H78794  -1.074   1.365   7.361 -1.0100  2.5596  1.6038
  584MOL0     H78795  -1.045   1.359   7.532  0.1330 -0.5453 -0.3741
  584MOL0     H78796  -0.988   1.106   7.519 -1.8313 -0.3915  1.3250
  584MOL0     H78797  -0.981   1.108   7.348 -0.2265 -0.0212 -0.7558
  584MOL0     H78798  -1.174   1.005   7.396  2.7383  1.1530 -1.3558
  584MOL0     H78799  -1.223   1.165   7.349  0.0230 -0.6505 -0.2310
  584MOL0     H78800  -1.405   1.025   7.352  1.8227 -1.6637  1.7417
  584MOL0     H78801  -1.752   0.918   7.332  1.1830 -1.6667 -1.8134
  584MOL0     H78802  -1.709   1.077   7.256 -3.2769 -0.5214  1.1229
  584MOL0     H78803  -1.606   0.933   7.249  0.7546  2.3684 -0.7740
  584MOL0     H78804  -1.969   1.015   7.214  0.0125  0.4907  0.2842
  584MOL0     H78805  -2.207   1.015   7.121 -3.1954  1.3642  0.2778
  584MOL0     H78806  -2.361   1.207   7.041  2.4053  0.7254  1.5811
  584MOL0     H78807  -2.408   1.049   7.055 -2.8222 -0.9763  0.6853
  584MOL0     H78808  -2.560   1.299   7.097 -0.7425 -1.3073  2.8611
  584MOL0     H78809  -2.562   1.185   6.947  0.8578 -4.4424  0.6825
  584MOL0     H78810  -2.667   1.151   7.234  2.1158  2.6041 -0.9365
  584MOL0     H78811  -2.656   1.020   7.122 -1.4645 -1.2419  3.5390
  584MOL0     H78812  -2.835   1.254   7.089 -1.9307 -0.3714  0.0437
  584MOL0     H78813  -2.784   1.156   6.953 -1.9344  1.7209 -0.0032
  584MOL0     H78814  -2.931   1.057   7.199  3.2308 -0.1473  0.1998
  584MOL0     H78815  -2.866   0.958   7.070 -0.2229 -0.7276  2.0745
  584MOL0     H78816  -3.010   1.105   6.903  1.4344  1.4938  1.8847
  584MOL0     H78817  -3.094   0.988   7.009 -3.6300  1.1322 -0.7115
  584MOL0     H78818  -3.087   1.291   7.006  0.9298 -1.7448 -2.0674
  584MOL0     H78819  -3.106   1.203   7.162  1.1617 -1.3596 -0.0826
  584MOL0     H78820  -3.287   1.075   7.091 -1.1886 -0.4099 -1.1210
  584MOL0     H78821  -3.301   1.152   6.933 -1.9214  0.7261  0.0773
  584MOL0     H78822  -2.317   1.240   7.477  0.5990  1.4218 -1.1505
  584MOL0     H78823  -2.094   1.201   7.573  2.9301 -2.6516  0.4159
  584MOL0     H78824  -1.671   1.146   7.741 -2.0311  1.6140 -1.9653
  584MOL0     H78825  -1.416   1.169   7.750  0.7756 -0.7831 -0.5134
  584MOL0     H78826   0.538   1.731   8.004 -0.1707 -1.6030 -2.6564
  584MOL0     H78827   0.768   1.729   8.019  0.1328 -0.2294 -0.7910
  584MOL0     H78828   1.081   1.367   8.208 -0.7496  0.8549 -1.3519
  584MOL0     H78829   1.302   1.260   8.227  1.9694  1.2285  0.6846
  584MOL0     H78830   1.582   1.266   7.855 -0.4473  1.2712 -0.4416
  584MOL0     H78831   1.648   1.382   7.972 -0.8518  0.3595  2.9250
  584MOL0     H78832   1.662   1.079   7.974 -2.0559  0.5429  2.3732
  584MOL0     H78833   1.722   1.176   8.115 -0.1151 -0.7904  0.3210
  584MOL0     H78834   1.873   1.305   7.941 -0.4339  0.0403  0.2549
  584MOL0     H78835   1.815   1.191   7.818  0.5531 -0.9992  0.0083
  584MOL0     H78836   2.029   1.124   7.882 -0.1821 -0.3213 -0.9491
  584MOL0     H78837   1.911   1.017   7.955  0.1011 -0.2179 -3.2979
  584MOL0     H78838   2.140   1.230   8.258 -0.9792  0.2287  0.4610
  584MOL0     H78839   1.425   1.438   7.860 -0.5169 -2.3212  0.6502
  584MOL0     H78840   1.200   1.575   7.862 -3.2139  2.5411  2.4722
  585MOL0     O78841  11.076  10.347   6.396 -0.4619  0.1567  0.3255
  585MOL0     C78842  11.098  10.267   6.303  1.1289 -0.0202 -0.9477
  585MOL0     O78843  11.004  10.223   6.227 -0.5779  0.1841  0.3705
  585MOL0     C78844  10.880  10.270   6.228 -0.3273  0.4800 -0.1432
  585MOL0     C78845  10.801  10.260   6.339 -0.1633 -0.5223 -0.9143
  585MOL0     C78846  10.664  10.296   6.339 -0.1544 -0.4110 -0.0025
  585MOL0     C78847  10.595  10.337   6.222 -0.7814 -0.2459  0.3587
  585MOL0     O78848  10.463  10.376   6.210 -0.6758  0.8405  0.4256
  585MOL0     C78849  10.421  10.463   6.313 -0.0293 -0.1572  0.2948
  585MOL0     C78850  10.468  10.608   6.295 -0.9082  0.9187 -0.2768
  585MOL0     C78851  10.380  10.705   6.380  0.3341 -0.2992 -0.4974
  585MOL0     C78852  10.443  10.843   6.381  0.4019 -0.6565  0.3612
  585MOL0     C78853  10.453  10.909   6.238  0.2333 -1.2655  0.3632
  585MOL0     C78854  10.326  10.939   6.154 -0.2400 -0.0606 -0.1162
  585MOL0     C78855  10.261  11.071   6.184 -0.8423  0.4131  0.3913
  585MOL0     C78856  10.187  11.072   6.312 -0.3047  0.6120  0.1039
  585MOL0     N78857  10.091  10.963   6.328  0.3253 -0.4413  0.4035
  585MOL0     C78858   9.976  10.952   6.253 -0.0998  0.2253 -0.0425
  585MOL0     C78859   9.895  10.873   6.332 -0.2488 -1.0033  0.2605
  585MOL0     C78860   9.749  10.834   6.301 -0.3672  0.0181  0.6222
  585MOL0     C78861   9.753  10.724   6.194 -0.6719 -0.0384 -0.0517
  585MOL0     C78862   9.608  10.662   6.175  0.3957 -0.3002 -0.3375
  585MOL0     C78863   9.594  10.569   6.056  0.3835  0.3885 -0.1745
  585MOL0     O78864   9.543  10.645   5.943  0.2349  0.2773 -0.0306
  585MOL0     C78865   9.409  10.626   5.914 -0.5775  0.0763  0.5721
  585MOL0     C78866   9.355  10.639   5.783  0.4838  0.3770 -0.1641
  585MOL0     C78867   9.218  10.637   5.746  0.0507 -0.7125  0.4659
  585MOL0     C78868   9.186  10.652   5.606  0.0645  0.3067 -0.1347
  585MOL0     C78869   9.127  10.610   5.853 -1.4520 -0.3674 -0.2505
  585MOL0     C78870   8.980  10.613   5.844 -0.1906  2.0261  0.0831
  585MOL0     O78871   8.923  10.568   5.957 -0.6623  0.6304  0.1183
  585MOL0     C78872   8.791  10.534   5.942  0.5572 -0.3125 -0.1803
  585MOL0     C78873   8.768  10.398   5.937  0.3315  0.0331 -0.1035
  585MOL0     C78874   8.632  10.354   5.947 -0.7584 -0.1684 -0.2240
  585MOL0     C78875   8.524  10.447   5.945  0.5746 -0.3519  0.2900
  585MOL0     O78876   8.389  10.405   5.946 -0.7031  0.4463 -0.9227
  585MOL0     C78877   8.351  10.271   5.992 -0.6774 -0.9329  0.1983
  585MOL0     C78878   8.203  10.274   6.024  0.2342 -0.6031  0.4302
  585MOL0     C78879   8.174  10.341   6.156 -0.2483  0.5914  0.3996
  585MOL0     C78880   8.036  10.416   6.162 -0.2649  0.5156 -0.5489
  585MOL0     C78881   7.926  10.317   6.181  0.2612 -0.5971  0.4314
  585MOL0     C78882   7.796  10.392   6.167  0.9708  0.7440 -0.4295
  585MOL0     C78883   7.671  10.301   6.181  0.4153  0.7269  0.5261
  585MOL0     C78884   7.528  10.378   6.188 -0.2134  0.0923 -0.9647
  585MOL0    Cl78885   7.391  10.265   6.190  0.2545 -0.0737  0.1000
  585MOL0     C78886   8.554  10.589   5.951 -0.3646  0.3850  0.6254
  585MOL0     C78887   8.686  10.627   5.942  0.6869  0.2656 -0.0037
  585MOL0     O78888   8.923  10.631   5.737  0.2817  0.0263  0.2294
  585MOL0     C78889   9.182  10.595   5.980 -0.0283  0.5708  0.2683
  585MOL0     C78890   9.317  10.595   6.008 -0.0332  0.1217  0.1283
  585MOL0     N78891   9.963  10.828   6.446 -0.1198  0.2404  0.1530
  585MOL0     N78892  10.080  10.886   6.441  0.0797  0.1099  0.3615
  585MOL0     C78893  10.681  10.344   6.107 -0.1757 -0.4924 -0.0858
  585MOL0     C78894  10.818  10.313   6.113  0.4919 -0.3769 -0.9615
  585MOL0     C78895  11.241  10.230   6.273 -0.1389  0.5976  0.5244
  585MOL0     C78896  11.288  10.153   6.170  0.4772  0.4303 -1.0274
  585MOL0     C78897  11.419  10.109   6.157  0.1857  0.3742 -0.6939
  585MOL0     C78898  11.522  10.155   6.238 -0.5119  0.3278 -0.0898
  585MOL0     O78899  11.655  10.134   6.216 -0.0375 -0.0511  0.1265
  585MOL0     C78900  11.698  10.041   6.126 -0.0423  0.6278  0.1571
  585MOL0     C78901  11.842  10.015   6.154 -0.3022  0.5016  0.0796
  585MOL0     C78902  11.949  10.101   6.079  0.0521 -0.4683  0.2497
  585MOL0     C78903  12.100  10.074   6.101  0.2751  0.6421  0.0477
  585MOL0     C78904  12.133   9.948   6.036 -0.5328  0.0475  0.5057
  585MOL0     C78905  12.174   9.836   6.005  0.5302  1.0867  0.1156
  585MOL0     C78906  11.482  10.226   6.350  0.1340 -0.6139 -0.0891
  585MOL0     C78907  11.342  10.259   6.368  0.2108  0.1227 -0.5312
  585MOL0     H78908  10.846  10.216   6.427  0.1055  0.3398 -0.6219
  585MOL0     H78909  10.616  10.290   6.436  3.1042 -0.8994  1.7256
  585MOL0     H78910  10.312  10.457   6.317 -0.0859  0.7212  0.1518
  585MOL0     H78911  10.457  10.416   6.405  1.3605 -0.4661 -0.3815
  585MOL0     H78912  10.571  10.616   6.331 -1.1402 -1.2998  1.0873
  585MOL0     H78913  10.449  10.629   6.190 -3.6578  1.2817  0.1986
  585MOL0     H78914  10.280  10.710   6.337  1.0470  1.3238 -2.0772
  585MOL0     H78915  10.374  10.672   6.484  3.4185  2.4537  0.7270
  585MOL0     H78916  10.373  10.899   6.444  0.2707 -0.6116  0.1746
  585MOL0     H78917  10.543  10.836   6.425  0.7015 -1.9719 -0.4866
  585MOL0     H78918  10.496  11.007   6.261 -0.4522 -0.9770  0.4482
  585MOL0     H78919  10.521  10.860   6.168 -0.8362  2.4632 -3.7115
  585MOL0     H78920  10.367  10.952   6.054  3.1481  0.3121  1.1635
  585MOL0     H78921  10.260  10.852   6.162 -1.2962  0.5404 -1.9805
  585MOL0     H78922  10.328  11.157   6.189 -1.7239  1.1020  0.8627
  585MOL0     H78923  10.194  11.092   6.099 -2.1039 -0.2757  1.1775
  585MOL0     H78924  10.139  11.170   6.313 -2.4852 -0.3809 -0.4255
  585MOL0     H78925  10.260  11.062   6.393  0.1505 -0.8818 -0.4429
  585MOL0     H78926   9.951  11.011   6.166 -0.4743 -0.2221 -0.2420
  585MOL0     H78927   9.713  10.813   6.403 -0.0801 -0.4450  0.6322
  585MOL0     H78928   9.689  10.915   6.259  0.3663 -0.0987 -0.6874
  585MOL0     H78929   9.826  10.645   6.214  0.2513  0.5623 -0.9840
  585MOL0     H78930   9.782  10.760   6.095 -2.6106  0.5926 -0.4375
  585MOL0     H78931   9.529  10.737   6.164  0.8134  1.2761  4.9283
  585MOL0     H78932   9.583  10.611   6.268 -0.5021 -1.8369 -1.3704
  585MOL0     H78933   9.533  10.485   6.091  3.1490 -1.0994  1.4336
  585MOL0     H78934   9.686  10.516   6.031  2.5350  2.9110  1.8226
  585MOL0     H78935   9.424  10.671   5.707 -0.7315 -1.6907 -2.2638
  585MOL0     H78936   9.109  10.578   5.580 -0.3215  0.3023  0.9679
  585MOL0     H78937   9.127  10.743   5.593 -0.2053  0.2212  0.4726
  585MOL0     H78938   9.274  10.645   5.542 -0.6634  0.0976 -1.1317
  585MOL0     H78939   8.850  10.328   5.928 -0.6366 -1.2362  0.5105
  585MOL0     H78940   8.603  10.249   5.942  2.2446 -1.1483  0.7433
  585MOL0     H78941   8.363  10.196   5.913 -0.5576 -3.5308  2.5081
  585MOL0     H78942   8.394  10.241   6.088 -1.5659  2.0011  1.6217
  585MOL0     H78943   8.151  10.318   5.938 -2.1423 -0.6430  1.7882
  585MOL0     H78944   8.162  10.173   6.023 -0.4312 -0.3499  1.5718
  585MOL0     H78945   8.260  10.409   6.168  1.6261 -1.4111 -0.9806
  585MOL0     H78946   8.189  10.267   6.236 -2.7604 -0.1046  0.3147
  585MOL0     H78947   8.038  10.478   6.251 -0.2433  3.1763 -2.2947
  585MOL0     H78948   8.023  10.486   6.079  0.1161  0.1678 -0.9069
  585MOL0     H78949   7.926  10.256   6.272 -1.1702 -1.1249  0.1151
  585MOL0     H78950   7.933  10.241   6.103  1.8175 -0.5576  0.5135
  585MOL0     H78951   7.797  10.470   6.243 -0.4882 -0.6726  1.1340
  585MOL0     H78952   7.793  10.441   6.070 -1.1229  1.0816 -0.2436
  585MOL0     H78953   7.688  10.247   6.275  1.1955  1.3967  0.7740
  585MOL0     H78954   7.678  10.225   6.102 -1.2262  0.8372  0.2244
  585MOL0     H78955   7.516  10.445   6.103 -0.9865  2.5203  0.9622
  585MOL0     H78956   7.537  10.431   6.283  4.4711 -0.1095 -1.0403
  585MOL0     H78957   8.484  10.671   5.966  1.6230  1.8765  2.2844
  585MOL0     H78958   8.714  10.732   5.939 -2.8288  1.2916 -0.2788
  585MOL0     H78959   9.124  10.577   6.070  1.2629 -1.7165  0.7559
  585MOL0     H78960   9.344  10.578   6.112  1.5153  0.9520 -0.1030
  585MOL0     H78961  10.643  10.390   6.016  1.8169  1.7417  0.1236
  585MOL0     H78962  10.874  10.318   6.020  1.1613 -1.6069 -0.6550
  585MOL0     H78963  11.213  10.136   6.093 -1.7794  2.0634  0.6679
  585MOL0     H78964  11.442  10.056   6.064 -5.7485  0.9280 -2.8965
  585MOL0     H78965  11.639   9.949   6.136 -0.4454  0.7785 -0.7024
  585MOL0     H78966  11.685  10.075   6.023 -0.2171  1.3544  0.4174
  585MOL0     H78967  11.857   9.915   6.113 -3.1628  0.3538 -0.8192
  585MOL0     H78968  11.861  10.036   6.260 -0.7541  2.3434 -0.1616
  585MOL0     H78969  11.926  10.207   6.094  0.8921 -0.1387 -0.6309
  585MOL0     H78970  11.925  10.088   5.973  2.3396  1.6928 -0.6465
  585MOL0     H78971  12.122  10.067   6.208  3.7766 -2.6463 -0.6558
  585MOL0     H78972  12.166  10.152   6.060  0.6613 -0.7816 -2.2076
  585MOL0     H78973  12.212   9.740   5.976 -2.1839 -0.6774  1.8417
  585MOL0     H78974  11.552  10.245   6.431  0.0629 -0.5287 -0.0485
  585MOL0     H78975  11.322  10.307   6.463  1.5238 -0.3584  0.0236
  586MOL0     O78976   6.487   9.139   6.880 -0.0773  1.0816  0.2449
  586MOL0     C78977   6.567   9.130   6.787  0.1719 -1.0398  0.3040
  586MOL0     O78978   6.537   9.094   6.660 -0.1411 -0.2295  0.1354
  586MOL0     C78979   6.408   9.057   6.627 -0.3223 -0.6062 -0.1146
  586MOL0     C78980   6.329   9.130   6.525 -0.3688  0.8494 -0.5870
  586MOL0     C78981   6.199   9.086   6.486  0.9265  0.8890 -0.4205
  586MOL0     C78982   6.142   8.972   6.551  0.9432  1.0793 -0.1026
  586MOL0     O78983   6.016   8.931   6.518 -0.6285  0.1701 -0.0254
  586MOL0     C78984   5.914   9.027   6.476 -0.2768  0.0421 -0.3168
  586MOL0     C78985   5.840   9.058   6.601  0.1187 -0.0973 -0.1362
  586MOL0     C78986   5.690   9.087   6.579  0.0611 -1.1491  0.3186
  586MOL0     C78987   5.622   8.953   6.559  0.3076  1.1073 -0.0387
  586MOL0     C78988   5.471   8.967   6.529 -0.6227 -0.1274 -0.3194
  586MOL0     C78989   5.387   9.010   6.655  0.5963 -0.5600 -0.3055
  586MOL0     C78990   5.234   9.003   6.618 -0.4643  0.4543 -0.0252
  586MOL0     C78991   5.180   9.119   6.537 -0.5790  0.0203 -0.0869
  586MOL0     N78992   5.042   9.097   6.502  0.7140  0.5310 -0.2996
  586MOL0     C78993   4.938   9.147   6.577  0.5012 -0.0591  1.2911
  586MOL0     C78994   4.833   9.072   6.524 -0.0806 -0.0893  0.6910
  586MOL0     C78995   4.689   9.078   6.579 -0.1241  0.0959 -1.0085
  586MOL0     C78996   4.680   9.063   6.735 -0.5614 -0.9779  0.9206
  586MOL0     C78997   4.649   9.193   6.807 -0.4181 -0.7942  0.2220
  586MOL0     C78998   4.511   9.253   6.762 -0.6281  0.1939 -0.1688
  586MOL0     O78999   4.471   9.336   6.869  0.9749 -0.6584 -0.0120
  586MOL0     C79000   4.330   9.355   6.877 -0.0532 -0.2430  0.3924
  586MOL0     C79001   4.239   9.350   6.765 -0.0089  0.4861 -0.9355
  586MOL0     C79002   4.106   9.379   6.780  0.2914 -1.3738 -0.5480
  586MOL0     C79003   4.017   9.382   6.659 -0.5442 -0.3840 -0.9528
  586MOL0     C79004   4.059   9.411   6.911 -0.0806  0.1184 -0.3070
  586MOL0     C79005   3.915   9.434   6.943 -0.5090  0.4400 -0.1459
  586MOL0     O79006   3.832   9.334   6.992 -0.0109  0.3885  0.7466
  586MOL0     C79007   3.718   9.360   7.056  0.8080 -0.5167 -0.7979
  586MOL0     C79008   3.612   9.399   6.975 -0.3337 -0.4993  0.7282
  586MOL0     C79009   3.477   9.415   7.021 -0.5624 -0.1779 -1.0205
  586MOL0     C79010   3.450   9.419   7.160 -0.3492  0.7590 -0.1980
  586MOL0     O79011   3.325   9.459   7.201 -0.3378 -0.4037  0.3392
  586MOL0     C79012   3.324   9.522   7.331  0.2695  0.0652 -0.5476
  586MOL0     C79013   3.184   9.592   7.354  0.1622  0.5394  0.0204
  586MOL0     C79014   3.083   9.473   7.358  0.3669  0.1178  0.2581
  586MOL0     C79015   2.957   9.533   7.417 -0.4694 -0.1127 -0.0814
  586MOL0     C79016   2.840   9.448   7.380 -0.2750  0.8089 -0.1813
  586MOL0     C79017   2.728   9.489   7.467  0.7434 -0.1059  0.2145
  586MOL0     C79018   2.594   9.409   7.437 -0.1379 -0.3956 -0.3727
  586MOL0     C79019   2.488   9.456   7.526 -0.4585 -0.0531  0.8986
  586MOL0    Cl79020   2.445   9.630   7.505 -0.3686 -0.2493 -0.4697
  586MOL0     C79021   3.552   9.374   7.243  0.7751  0.5390 -0.0188
  586MOL0     C79022   3.682   9.343   7.195  0.1173  0.1153  0.2872
  586MOL0     O79023   3.889   9.556   6.933 -0.5942  0.1528  0.4255
  586MOL0     C79024   4.147   9.416   7.019  0.1897  0.2092  0.1170
  586MOL0     C79025   4.286   9.393   7.003  0.8808 -0.3232  0.0902
  586MOL0     N79026   4.884   8.993   6.419  0.2376 -0.6161 -0.0120
  586MOL0     N79027   5.006   9.014   6.407  0.3096  0.1506 -0.1562
  586MOL0     C79028   6.217   8.904   6.649 -0.9199 -0.2284  1.0360
  586MOL0     C79029   6.350   8.943   6.679  0.2619  0.3630  0.3486
  586MOL0     C79030   6.699   9.184   6.806 -0.8670 -0.7627  0.7619
  586MOL0     C79031   6.774   9.212   6.690  0.1626  0.0110 -0.2384
  586MOL0     C79032   6.899   9.275   6.707 -0.4886  1.0119  1.4886
  586MOL0     C79033   6.958   9.291   6.836 -0.3866  0.1061 -0.4224
  586MOL0     O79034   7.077   9.354   6.865 -0.1040  0.5687  0.3959
  586MOL0     C79035   7.181   9.336   6.770 -0.0571  0.2834  0.0799
  586MOL0     C79036   7.333   9.372   6.820  0.3386 -0.3173  1.0817
  586MOL0     C79037   7.437   9.374   6.703  0.4378 -0.7399 -0.0547
  586MOL0     C79038   7.581   9.392   6.735 -0.1055 -0.8324 -0.7364
  586MOL0     C79039   7.664   9.371   6.616  0.1569  0.1797 -0.0728
  586MOL0     C79040   7.727   9.348   6.512 -0.1873  0.6032 -0.4957
  586MOL0     C79041   6.875   9.264   6.941  0.3955  0.7692 -0.7583
  586MOL0     C79042   6.746   9.207   6.934 -0.3970  0.7636 -0.0496
  586MOL0     H79043   6.375   9.215   6.477 -1.6738  0.9288 -1.7592
  586MOL0     H79044   6.141   9.144   6.414  1.4470  0.5323 -1.1309
  586MOL0     H79045   5.950   9.115   6.422  0.4138  0.2281  0.4364
  586MOL0     H79046   5.849   8.971   6.408 -1.6559  3.1622 -1.7833
  586MOL0     H79047   5.850   8.970   6.666  0.7692 -1.4094 -1.9501
  586MOL0     H79048   5.887   9.147   6.645 -2.1880  2.4312 -2.4816
  586MOL0     H79049   5.656   9.153   6.660 -0.0620  0.3909 -0.9576
  586MOL0     H79050   5.690   9.153   6.492  1.2692 -1.0164  0.4079
  586MOL0     H79051   5.669   8.897   6.478 -0.6904 -0.5810  0.5055
  586MOL0     H79052   5.617   8.900   6.654  2.4737  0.2852 -0.3434
  586MOL0     H79053   5.453   9.040   6.450 -1.0707 -1.5770 -1.6025
  586MOL0     H79054   5.435   8.873   6.486 -0.7019 -0.0095 -0.5103
  586MOL0     H79055   5.423   8.949   6.738  0.7819 -0.6667 -0.4653
  586MOL0     H79056   5.407   9.113   6.687 -0.8182  0.7574 -3.3072
  586MOL0     H79057   5.230   8.906   6.569  3.6260  0.2765 -0.3018
  586MOL0     H79058   5.167   9.004   6.705 -2.4152 -0.8163 -1.4160
  586MOL0     H79059   5.220   9.131   6.435 -0.0504 -0.8816  0.0091
  586MOL0     H79060   5.201   9.211   6.593 -0.4681 -1.1665  1.8804
  586MOL0     H79061   4.942   9.221   6.656  0.4029 -1.2230  2.4072
  586MOL0     H79062   4.650   9.174   6.542 -0.6965  1.3643  2.4516
  586MOL0     H79063   4.626   9.002   6.532 -0.4593  0.4910 -1.2060
  586MOL0     H79064   4.781   9.027   6.760  0.3841 -0.1281 -1.3417
  586MOL0     H79065   4.609   8.985   6.764 -3.2265  0.6833 -0.7720
  586MOL0     H79066   4.727   9.270   6.800 -2.2572  1.3258  1.5497
  586MOL0     H79067   4.652   9.180   6.916 -0.1817  1.8153  0.5983
  586MOL0     H79068   4.446   9.170   6.733 -0.6834 -0.0195  0.5369
  586MOL0     H79069   4.536   9.305   6.669  0.7084 -2.3664 -1.3249
  586MOL0     H79070   4.289   9.341   6.669  2.6214  1.5306  0.2498
  586MOL0     H79071   3.963   9.287   6.645 -1.0067 -1.1036  3.9339
  586MOL0     H79072   3.947   9.462   6.684 -1.1130 -1.6508  2.0484
  586MOL0     H79073   4.078   9.409   6.573  2.0017 -2.5768  0.0196
  586MOL0     H79074   3.624   9.400   6.867 -0.0564 -0.2444  0.7595
  586MOL0     H79075   3.395   9.433   6.954  0.0723  0.2541 -1.7001
  586MOL0     H79076   3.335   9.457   7.418  0.9562  1.9102  0.7913
  586MOL0     H79077   3.392   9.606   7.316 -1.3269  1.2124 -1.7413
  586MOL0     H79078   3.172   9.626   7.457 -0.1772 -2.7811  1.2250
  586MOL0     H79079   3.154   9.673   7.288  2.3170  3.6308  2.5223
  586MOL0     H79080   3.115   9.393   7.426  0.6409  1.3872  1.6725
  586MOL0     H79081   3.078   9.442   7.253 -0.6995  0.8912  0.0624
  586MOL0     H79082   2.969   9.537   7.526  1.4513 -0.5036 -0.2555
  586MOL0     H79083   2.946   9.636   7.381  3.6062  0.8116  0.7721
  586MOL0     H79084   2.859   9.341   7.397  2.0645  1.3207  0.7697
  586MOL0     H79085   2.804   9.466   7.278 -1.7228  0.5440  0.2599
  586MOL0     H79086   2.742   9.496   7.575  0.4779  4.8968  0.1533
  586MOL0     H79087   2.708   9.595   7.448 -1.9048 -0.7540 -1.1629
  586MOL0     H79088   2.608   9.301   7.442  0.6234 -0.3597 -1.3009
  586MOL0     H79089   2.560   9.428   7.335 -1.2074  0.1862  0.0786
  586MOL0     H79090   2.512   9.437   7.631  0.7933 -0.5761  0.5348
  586MOL0     H79091   2.398   9.395   7.512 -2.0808  2.2716  0.5180
  586MOL0     H79092   3.538   9.355   7.349  3.1343  0.9129  0.4275
  586MOL0     H79093   3.759   9.319   7.266  1.6522  0.8414 -1.0621
  586MOL0     H79094   4.111   9.448   7.116  2.9828 -1.2715  1.7842
  586MOL0     H79095   4.362   9.404   7.080  0.3837 -0.4245  0.6046
  586MOL0     H79096   6.174   8.823   6.707  0.1821 -1.3025  0.4065
  586MOL0     H79097   6.414   8.889   6.749 -2.6087 -2.6576  0.8734
  586MOL0     H79098   6.729   9.197   6.593 -0.8153 -2.1915  0.5049
  586MOL0     H79099   6.940   9.298   6.610 -4.5318 -1.2514 -1.0286
  586MOL0     H79100   7.188   9.231   6.740  2.0720 -0.3168  2.3021
  586MOL0     H79101   7.148   9.396   6.684 -0.6850  2.0488  1.4896
  586MOL0     H79102   7.366   9.301   6.897  5.1686  2.3468  1.9145
  586MOL0     H79103   7.328   9.467   6.874 -4.6026  0.2326  0.0744
  586MOL0     H79104   7.403   9.449   6.631  1.6943 -0.3231 -0.2363
  586MOL0     H79105   7.412   9.286   6.643 -0.7008  1.1833 -2.5670
  586MOL0     H79106   7.615   9.329   6.818 -1.7389 -1.0068 -0.1605
  586MOL0     H79107   7.594   9.493   6.774  2.6529 -0.2838 -2.8312
  586MOL0     H79108   7.779   9.348   6.419 -3.3428  2.1831 -2.4225
  586MOL0     H79109   6.920   9.262   7.039 -0.7877 -3.4174 -0.0814
  586MOL0     H79110   6.686   9.189   7.023 -2.0719  2.5603 -0.7496
  587MOL0     O79111   1.518   5.791   8.664  0.4345 -0.4867  0.3105
  587MOL0     C79112   1.589   5.698   8.640  1.2025 -0.9898 -0.2670
  587MOL0     O79113   1.552   5.565   8.666 -0.7494 -0.4772  0.7439
  587MOL0     C79114   1.434   5.543   8.725  0.7536  0.0117 -0.0831
  587MOL0     C79115   1.432   5.474   8.845 -0.9526  0.5214 -0.5090
  587MOL0     C79116   1.310   5.439   8.906  0.0412  0.8480  0.0924
  587MOL0     C79117   1.185   5.462   8.844 -0.8137 -0.5774 -0.2607
  587MOL0     O79118   1.076   5.410   8.910 -0.4002  0.0028  0.2263
  587MOL0     C79119   0.955   5.395   8.827 -0.4100 -0.0912 -0.1733
  587MOL0     C79120   0.842   5.375   8.922  0.8139  0.0549 -0.3517
  587MOL0     C79121   0.701   5.362   8.861  0.2159 -0.1680  0.3918
  587MOL0     C79122   0.588   5.341   8.967  0.1301  0.4361 -0.0878
  587MOL0     C79123   0.449   5.323   8.905  0.4880 -0.0694 -0.6739
  587MOL0     C79124   0.353   5.291   9.015 -0.7229 -1.0488 -0.3738
  587MOL0     C79125   0.225   5.230   8.962 -0.1997  0.1516  0.4224
  587MOL0     C79126   0.143   5.317   8.854 -0.2001  0.4674 -0.4664
  587MOL0     N79127   0.000   5.317   8.879  0.6368  0.4424  0.4403
  587MOL0     C79128  -0.086   5.384   8.795 -0.2268  0.3429  0.3926
  587MOL0     C79129  -0.200   5.407   8.865  0.6704  0.6336  0.1032
  587MOL0     C79130  -0.328   5.465   8.805 -0.3826  0.2492 -0.0020
  587MOL0     C79131  -0.419   5.353   8.749 -1.0172  0.2336  0.3442
  587MOL0     C79132  -0.502   5.308   8.871 -0.4652 -0.2175 -0.2449
  587MOL0     C79133  -0.572   5.177   8.827  1.0403 -0.9387  0.0680
  587MOL0     O79134  -0.683   5.200   8.739 -0.1277  0.2698  0.3397
  587MOL0     C79135  -0.802   5.261   8.782 -0.0003 -0.0679 -0.7500
  587MOL0     C79136  -0.832   5.306   8.911 -0.7179 -0.4489  1.1853
  587MOL0     C79137  -0.949   5.366   8.937  0.5112 -0.3260  0.2710
  587MOL0     C79138  -0.964   5.414   9.079 -0.5644 -0.2022  0.4735
  587MOL0     C79139  -1.051   5.377   8.840 -1.2516  0.0294 -0.2914
  587MOL0     C79140  -1.190   5.426   8.868  0.0702 -0.5038  0.0285
  587MOL0     O79141  -1.279   5.391   8.771  0.4380 -0.2756 -0.4301
  587MOL0     C79142  -1.402   5.455   8.774 -0.9770  0.2453 -0.2229
  587MOL0     C79143  -1.518   5.388   8.747  0.4321 -0.3969  0.2016
  587MOL0     C79144  -1.643   5.455   8.735 -0.5506  0.0718  0.1755
  587MOL0     C79145  -1.650   5.597   8.733  0.3804  0.5509  0.5608
  587MOL0     O79146  -1.765   5.665   8.739  0.2032  0.2402  0.2229
  587MOL0     C79147  -1.880   5.595   8.711  0.5644 -0.5137  0.0794
  587MOL0     C79148  -2.006   5.685   8.702 -0.1549 -0.4969 -0.2636
  587MOL0     C79149  -2.142   5.609   8.715 -0.0698  0.1664 -0.0496
  587MOL0     C79150  -2.232   5.693   8.790 -0.4819 -1.0223 -0.0946
  587MOL0     C79151  -2.373   5.636   8.784  0.4150  0.3154 -0.3181
  587MOL0     C79152  -2.474   5.745   8.831  0.0132 -0.0471  0.1905
  587MOL0     C79153  -2.620   5.697   8.811  0.2079  0.0010  0.0456
  587MOL0     C79154  -2.724   5.787   8.893  0.2747  0.3919 -0.3552
  587MOL0    Cl79155  -2.697   5.769   9.067 -0.4504 -0.3353  0.1425
  587MOL0     C79156  -1.529   5.666   8.745 -0.0399  1.1602 -0.0405
  587MOL0     C79157  -1.407   5.594   8.773  1.0553 -0.4912  0.9642
  587MOL0     O79158  -1.212   5.495   8.964  0.4664  0.0671 -0.2920
  587MOL0     C79159  -1.025   5.332   8.712 -0.8435 -0.2988  0.0856
  587MOL0     C79160  -0.907   5.267   8.680 -1.5371  0.1581  0.8855
  587MOL0     N79161  -0.178   5.357   8.993 -0.4162 -0.4269  0.7248
  587MOL0     N79162  -0.059   5.315   8.998  0.2828 -0.3215  0.0989
  587MOL0     C79163   1.190   5.532   8.727  0.4549  0.7617 -0.0643
  587MOL0     C79164   1.311   5.564   8.660  0.6182  0.2080  0.0814
  587MOL0     C79165   1.728   5.736   8.590 -0.2842  1.0282 -0.1068
  587MOL0     C79166   1.823   5.639   8.588  0.0854 -0.2893  0.0546
  587MOL0     C79167   1.953   5.677   8.552  0.1728 -0.7248 -0.0658
  587MOL0     C79168   1.986   5.800   8.510 -0.0256  0.3515  0.2841
  587MOL0     O79169   2.107   5.848   8.463 -0.1167  0.6958  0.6480
  587MOL0     C79170   2.226   5.766   8.471  0.2293  0.0661 -0.5983
  587MOL0     C79171   2.333   5.829   8.384 -0.5474 -0.0717 -0.1353
  587MOL0     C79172   2.467   5.776   8.420  0.2098 -0.4119 -0.0494
  587MOL0     C79173   2.568   5.883   8.379 -0.1007  0.5290  0.2499
  587MOL0     C79174   2.706   5.831   8.412 -0.1258  1.2524 -0.2611
  587MOL0     C79175   2.820   5.793   8.444 -0.3036  0.1493  0.3958
  587MOL0     C79176   1.889   5.902   8.517  0.5200 -0.0490 -0.6866
  587MOL0     C79177   1.763   5.864   8.562  0.1056 -0.8436 -0.1171
  587MOL0     H79178   1.527   5.474   8.898 -0.2099  1.8146 -1.7556
  587MOL0     H79179   1.314   5.390   9.003  1.8532  0.8453  0.0640
  587MOL0     H79180   0.940   5.482   8.763 -0.6617 -0.1599 -0.2128
  587MOL0     H79181   0.965   5.308   8.761  1.8848 -0.4436  0.5678
  587MOL0     H79182   0.874   5.278   8.961  2.9910 -0.1993 -2.5353
  587MOL0     H79183   0.847   5.441   9.009 -1.5502 -0.2951  0.1280
  587MOL0     H79184   0.687   5.462   8.817  4.1181 -0.4423 -1.8680
  587MOL0     H79185   0.697   5.290   8.779  2.3511  1.2933 -1.0821
  587MOL0     H79186   0.619   5.256   9.029  2.0624 -0.5346 -2.1894
  587MOL0     H79187   0.586   5.420   9.043 -1.0805 -1.5101  2.0206
  587MOL0     H79188   0.430   5.420   8.857  3.9919  1.7524  1.1774
  587MOL0     H79189   0.447   5.241   8.833 -2.8055 -0.3154 -0.4413
  587MOL0     H79190   0.397   5.218   9.083 -0.9643 -1.8392 -1.0427
  587MOL0     H79191   0.324   5.377   9.076 -0.0710 -2.3444  1.8891
  587MOL0     H79192   0.248   5.138   8.906  1.0853  0.6205  0.1361
  587MOL0     H79193   0.156   5.200   9.041  0.3206  0.2822  0.9354
  587MOL0     H79194   0.173   5.275   8.757  0.9124 -3.2418  1.3027
  587MOL0     H79195   0.167   5.423   8.853 -0.3555  0.5652  1.6773
  587MOL0     H79196  -0.063   5.395   8.690  1.4128 -2.4362  0.3634
  587MOL0     H79197  -0.374   5.509   8.894  0.1821 -1.6121  1.2737
  587MOL0     H79198  -0.312   5.546   8.734 -0.9784 -0.0683 -0.5158
  587MOL0     H79199  -0.366   5.266   8.710 -2.4491 -0.1237 -0.8932
  587MOL0     H79200  -0.479   5.387   8.664 -2.4403  1.0600  1.6427
  587MOL0     H79201  -0.570   5.389   8.898  1.0402  0.3060  2.2924
  587MOL0     H79202  -0.443   5.286   8.960 -0.3837 -0.3952 -0.3419
  587MOL0     H79203  -0.613   5.130   8.917  0.4238  0.3896  0.5113
  587MOL0     H79204  -0.500   5.105   8.788  2.9393 -0.1420  1.9069
  587MOL0     H79205  -0.758   5.297   8.991  1.2048 -0.8065 -0.5471
  587MOL0     H79206  -0.985   5.521   9.080  0.8971  0.1749 -1.9465
  587MOL0     H79207  -1.050   5.365   9.126 -0.0835  0.4250  2.0523
  587MOL0     H79208  -0.872   5.394   9.135  0.8298 -2.2382 -2.2680
  587MOL0     H79209  -1.520   5.279   8.740 -1.6991 -0.3787 -0.0722
  587MOL0     H79210  -1.732   5.393   8.734 -1.0219  0.3625  4.5942
  587MOL0     H79211  -1.872   5.552   8.611 -2.1391 -1.3983  0.1604
  587MOL0     H79212  -1.902   5.526   8.792 -0.3159  1.9565  2.0963
  587MOL0     H79213  -1.989   5.759   8.781  0.0493  2.7495 -3.1021
  587MOL0     H79214  -2.013   5.754   8.618  1.0097  1.4555  1.1511
  587MOL0     H79215  -2.111   5.521   8.772  0.1216  1.2721  1.5938
  587MOL0     H79216  -2.189   5.571   8.623 -2.0005  1.0258  0.5335
  587MOL0     H79217  -2.196   5.704   8.893  2.2404  1.3920 -1.1696
  587MOL0     H79218  -2.228   5.793   8.747 -0.1102 -1.3483 -0.8404
  587MOL0     H79219  -2.381   5.555   8.857 -0.8061 -0.9826 -1.8145
  587MOL0     H79220  -2.410   5.592   8.691 -1.1301  2.1525 -0.6455
  587MOL0     H79221  -2.448   5.766   8.935 -0.8082 -1.5468  0.7248
  587MOL0     H79222  -2.456   5.835   8.771 -0.6341 -0.6702 -0.9797
  587MOL0     H79223  -2.624   5.593   8.844  1.4673 -0.8136 -2.1507
  587MOL0     H79224  -2.641   5.707   8.704 -0.4932  4.5906  0.4036
  587MOL0     H79225  -2.826   5.757   8.867 -0.1321  0.9753  0.4860
  587MOL0     H79226  -2.708   5.891   8.863  0.8244  0.3022 -0.3904
  587MOL0     H79227  -1.542   5.773   8.730  2.9718  1.3695 -2.1530
  587MOL0     H79228  -1.319   5.657   8.778  0.5308  0.5860 -1.6962
  587MOL0     H79229  -1.091   5.337   8.626 -0.0007  1.0058 -0.5162
  587MOL0     H79230  -0.881   5.230   8.582 -1.5909 -0.4440  1.0934
  587MOL0     H79231   1.094   5.561   8.685 -0.8553 -2.0912  0.7355
  587MOL0     H79232   1.307   5.612   8.563  2.6734  0.5448  0.1151
  587MOL0     H79233   1.812   5.539   8.629  1.4308 -0.6439 -0.3939
  587MOL0     H79234   2.031   5.602   8.556  1.0592  0.0959 -1.3307
  587MOL0     H79235   2.275   5.767   8.569  2.0235  0.3000 -1.4447
  587MOL0     H79236   2.219   5.662   8.437  3.5103  0.2229 -2.1688
  587MOL0     H79237   2.331   5.938   8.398  1.7386  0.0284 -0.1376
  587MOL0     H79238   2.311   5.813   8.278  4.1489  0.3601 -1.4352
  587MOL0     H79239   2.472   5.687   8.357  1.5250 -1.2156  1.1502
  587MOL0     H79240   2.479   5.762   8.528 -4.0867  2.3725  1.0311
  587MOL0     H79241   2.556   5.974   8.439 -0.0047  0.6248  0.1248
  587MOL0     H79242   2.565   5.905   8.272 -2.0051  2.0426  0.5659
  587MOL0     H79243   2.914   5.765   8.488 -2.5511 -3.3309  3.6686
  587MOL0     H79244   1.918   6.006   8.499 -1.4214  1.2830  2.8954
  587MOL0     H79245   1.683   5.936   8.579  0.1660 -0.7428 -0.2576
  588MOL0     O79246   3.635   5.097   8.689  0.3716 -0.3549 -0.8182
  588MOL0     C79247   3.658   5.146   8.798 -0.3938  0.8788 -0.8784
  588MOL0     O79248   3.567   5.207   8.879 -0.6328 -0.6327  0.4041
  588MOL0     C79249   3.437   5.189   8.850  0.1865 -0.0582 -0.2642
  588MOL0     C79250   3.374   5.065   8.880  0.5908  0.7164  0.1969
  588MOL0     C79251   3.234   5.049   8.867 -1.0669  0.1962  0.2473
  588MOL0     C79252   3.161   5.159   8.833  0.4015 -0.2675  0.7863
  588MOL0     O79253   3.025   5.167   8.832  0.3801 -0.3140  0.1512
  588MOL0     C79254   2.939   5.061   8.827  0.6257 -0.3207  0.2299
  588MOL0     C79255   2.840   5.081   8.721  0.0887 -0.3159  0.4901
  588MOL0     C79256   2.728   4.967   8.725  0.4809 -0.3504 -0.5030
  588MOL0     C79257   2.586   5.024   8.687  0.4408  0.0745 -0.0418
  588MOL0     C79258   2.475   4.919   8.726 -0.2671 -0.1787 -0.1079
  588MOL0     C79259   2.417   4.962   8.859  0.0128  0.7309 -0.1973
  588MOL0     C79260   2.349   4.844   8.935 -0.2295  0.3716  0.6542
  588MOL0     C79261   2.230   4.771   8.858  0.0296  0.6121  0.4325
  588MOL0     N79262   2.120   4.860   8.804  0.5568  0.4453  0.2789
  588MOL0     C79263   2.014   4.901   8.875 -0.1720 -0.6385 -0.7347
  588MOL0     C79264   1.954   5.005   8.805  0.5341  0.0807  0.6574
  588MOL0     C79265   1.848   5.099   8.852 -0.1782 -0.0458 -0.3163
  588MOL0     C79266   1.767   5.169   8.746  0.0586 -0.2465 -0.1769
  588MOL0     C79267   1.671   5.062   8.680 -0.5172  0.4156  0.1963
  588MOL0     C79268   1.592   5.127   8.569 -0.4917 -0.1984  0.1407
  588MOL0     O79269   1.492   5.042   8.519 -0.1331 -0.3777  0.5324
  588MOL0     C79270   1.378   5.013   8.593 -0.0462 -0.1339 -0.0893
  588MOL0     C79271   1.321   4.892   8.570 -0.2984 -0.4094 -0.6332
  588MOL0     C79272   1.199   4.846   8.628 -0.5748  0.6539 -0.5931
  588MOL0     C79273   1.177   4.693   8.609  1.2094  0.2291  0.1747
  588MOL0     C79274   1.124   4.940   8.708  0.4442  0.8583  0.5651
  588MOL0     C79275   0.990   4.900   8.772 -0.1316 -0.1915  0.1089
  588MOL0     O79276   0.933   5.003   8.833  0.5278  0.1726 -0.1849
  588MOL0     C79277   0.807   4.978   8.888 -0.0226 -0.3771  0.3572
  588MOL0     C79278   0.812   4.930   9.018 -1.3339 -0.0923 -0.2448
  588MOL0     C79279   0.691   4.906   9.079 -0.9099 -0.8352 -0.7249
  588MOL0     C79280   0.571   4.925   9.010 -0.3621  0.8538  0.3752
  588MOL0     O79281   0.443   4.904   9.050  0.3766 -0.0785 -0.5472
  588MOL0     C79282   0.418   4.882   9.191  0.0669  0.8176  0.2043
  588MOL0     C79283   0.273   4.885   9.219 -0.2084  1.3790  0.4438
  588MOL0     C79284   0.214   4.758   9.156 -0.0406  0.1192 -0.6446
  588MOL0     C79285   0.088   4.710   9.227 -0.9733 -0.6479 -0.3757
  588MOL0     C79286   0.024   4.582   9.178 -0.3615 -0.3106  0.2943
  588MOL0     C79287  -0.026   4.585   9.037 -0.2349 -0.1785 -0.0309
  588MOL0     C79288  -0.105   4.458   9.001 -0.9919 -0.6521 -0.1268
  588MOL0     C79289  -0.165   4.483   8.862 -0.0873 -0.1059  0.3276
  588MOL0    Cl79290  -0.040   4.480   8.728  0.2919  0.2136  0.4124
  588MOL0     C79291   0.573   4.959   8.876 -0.5080 -0.3130 -0.2144
  588MOL0     C79292   0.692   5.000   8.819  0.1389 -0.5168  0.4327
  588MOL0     O79293   0.948   4.786   8.772  0.0707  0.4214  0.7839
  588MOL0     C79294   1.172   5.073   8.718  0.2892 -0.0498  0.0163
  588MOL0     C79295   1.300   5.105   8.667  0.2230  0.0636 -0.7516
  588MOL0     N79296   2.017   4.994   8.681 -0.4200  0.0204  0.2949
  588MOL0     N79297   2.113   4.906   8.680 -0.2522  0.0264  0.3265
  588MOL0     C79298   3.229   5.280   8.788 -0.0188  0.1592  0.5417
  588MOL0     C79299   3.367   5.289   8.790 -0.0818  0.4564  0.0082
  588MOL0     C79300   3.798   5.136   8.843  0.1470  0.1586 -0.2350
  588MOL0     C79301   3.892   5.091   8.749 -0.0062  0.4393  0.2754
  588MOL0     C79302   4.026   5.060   8.791 -0.0727  0.2179  0.5389
  588MOL0     C79303   4.050   5.078   8.929  0.1580  0.1786  0.7854
  588MOL0     O79304   4.159   5.024   8.988 -0.0409  0.2644  0.5997
  588MOL0     C79305   4.294   5.034   8.944  0.7422 -1.0552 -0.4334
  588MOL0     C79306   4.355   4.895   8.921  0.1413 -1.2917 -0.2140
  588MOL0     C79307   4.292   4.815   8.803 -0.1317  0.0069  0.0630
  588MOL0     C79308   4.335   4.877   8.668  0.3256  0.0281 -1.2256
  588MOL0     C79309   4.469   4.839   8.634 -0.1565  0.0109  0.4418
  588MOL0     C79310   4.583   4.809   8.590  0.5889 -0.8632 -0.3244
  588MOL0     C79311   3.961   5.127   9.014  0.1810 -0.4218 -0.3996
  588MOL0     C79312   3.832   5.164   8.976 -0.2712 -0.3559 -0.1822
  588MOL0     H79313   3.435   4.987   8.923  1.0426  0.8495 -0.1946
  588MOL0     H79314   3.188   4.956   8.897  2.2237 -1.5991  0.1654
  588MOL0     H79315   2.993   4.967   8.811  1.3390 -0.4233  2.7914
  588MOL0     H79316   2.888   5.057   8.924  0.1761 -0.5276 -0.0094
  588MOL0     H79317   2.781   5.172   8.730 -0.4603 -0.6761  0.6232
  588MOL0     H79318   2.884   5.083   8.622 -0.6329 -1.2869  0.1279
  588MOL0     H79319   2.746   4.902   8.638 -1.6248  1.0153 -2.0482
  588MOL0     H79320   2.714   4.914   8.820 -0.6370 -3.0839 -2.0500
  588MOL0     H79321   2.572   5.120   8.738 -0.1454 -1.7033  3.4751
  588MOL0     H79322   2.596   5.032   8.579  3.9263 -0.7417  0.0812
  588MOL0     H79323   2.393   4.922   8.654 -1.2228 -1.3055  0.8759
  588MOL0     H79324   2.515   4.818   8.729 -0.3890 -0.2375 -0.4615
  588MOL0     H79325   2.496   4.996   8.926  3.0506 -2.9791 -1.5347
  588MOL0     H79326   2.350   5.044   8.831  1.6547  1.7455 -1.2702
  588MOL0     H79327   2.427   4.771   8.956  0.4964 -0.1373 -3.1048
  588MOL0     H79328   2.303   4.878   9.028  0.5066  1.4782  0.6318
  588MOL0     H79329   2.184   4.697   8.924  1.0992  0.1288  0.6708
  588MOL0     H79330   2.285   4.721   8.778  1.2695 -0.7663  2.0661
  588MOL0     H79331   1.997   4.871   8.978 -1.8579 -1.2208 -1.1573
  588MOL0     H79332   1.783   5.049   8.925  2.2127 -0.0301  1.9591
  588MOL0     H79333   1.898   5.178   8.908  0.5897 -1.8981  1.7456
  588MOL0     H79334   1.827   5.213   8.666 -2.2095 -2.3232 -3.2542
  588MOL0     H79335   1.712   5.245   8.802  4.1600  0.8624  2.8820
  588MOL0     H79336   1.594   5.034   8.752  0.5840 -0.0976  1.1886
  588MOL0     H79337   1.721   4.970   8.648  2.3158  1.7589  0.4595
  588MOL0     H79338   1.654   5.149   8.482 -2.0034  0.3980 -0.8415
  588MOL0     H79339   1.555   5.224   8.606 -0.0583  0.0349 -0.0278
  588MOL0     H79340   1.377   4.820   8.512 -1.7298 -0.7747 -1.6087
  588MOL0     H79341   1.229   4.666   8.516  0.7403 -1.1612  0.2924
  588MOL0     H79342   1.213   4.630   8.690 -0.2811 -0.6685  0.1840
  588MOL0     H79343   1.073   4.668   8.586  0.5499  3.8474 -1.5365
  588MOL0     H79344   0.900   4.932   9.081 -0.5329  2.6726 -1.2914
  588MOL0     H79345   0.708   4.862   9.177  2.4770 -1.1014 -1.3199
  588MOL0     H79346   0.468   4.791   9.226 -1.7782 -0.3074  0.0545
  588MOL0     H79347   0.466   4.961   9.249 -1.6080  1.7181  0.4387
  588MOL0     H79348   0.266   4.896   9.327  0.1703  1.8998  0.4188
  588MOL0     H79349   0.235   4.976   9.172  0.4970  1.5780  0.2468
  588MOL0     H79350   0.285   4.675   9.145 -1.6516 -1.6426  1.5934
  588MOL0     H79351   0.186   4.785   9.053 -2.7600  1.0905  0.2656
  588MOL0     H79352   0.119   4.689   9.329 -0.4144  1.4852 -0.0583
  588MOL0     H79353   0.015   4.791   9.239  0.0181  0.1692  0.2413
  588MOL0     H79354  -0.056   4.542   9.240 -0.1008 -2.0143 -0.4033
  588MOL0     H79355   0.101   4.506   9.196  0.3710  0.8127  2.1563
  588MOL0     H79356  -0.104   4.662   9.036 -1.6342 -1.4602  2.0013
  588MOL0     H79357   0.054   4.605   8.964 -2.8443 -0.5830 -3.2382
  588MOL0     H79358  -0.197   4.451   9.059 -0.3349  0.1605  1.0498
  588MOL0     H79359  -0.042   4.370   9.016 -1.6429 -1.2351 -0.7315
  588MOL0     H79360  -0.230   4.571   8.861 -0.2278 -0.1383 -3.1082
  588MOL0     H79361  -0.234   4.402   8.836  1.6849 -1.0580 -1.7315
  588MOL0     H79362   0.478   4.982   8.827 -1.3655 -0.0910  1.4672
  588MOL0     H79363   0.705   5.036   8.717 -0.6403  0.3460  0.6195
  588MOL0     H79364   1.107   5.154   8.751  1.4486  0.8349  0.1960
  588MOL0     H79365   1.341   5.204   8.690 -1.8227  0.7180  0.3488
  588MOL0     H79366   3.169   5.366   8.761  0.1149 -0.4060 -1.7730
  588MOL0     H79367   3.422   5.374   8.751  0.4581  0.3734  0.5778
  588MOL0     H79368   3.870   5.081   8.643  2.8459  0.3613 -0.3926
  588MOL0     H79369   4.104   5.014   8.731  2.0183  0.8446  2.6235
  588MOL0     H79370   4.313   5.107   8.865  1.0184  0.5762  1.0706
  588MOL0     H79371   4.338   5.080   9.033  2.0397  2.3703 -2.6418
  588MOL0     H79372   4.335   4.838   9.013  0.6491 -1.5288 -0.2486
  588MOL0     H79373   4.463   4.906   8.910  0.3922 -1.7218  1.5270
  588MOL0     H79374   4.183   4.826   8.803 -0.2744 -0.7756  2.3513
  588MOL0     H79375   4.323   4.710   8.798 -0.7343 -0.1149 -2.6659
  588MOL0     H79376   4.335   4.986   8.677 -0.5924 -0.0788  0.5701
  588MOL0     H79377   4.261   4.849   8.592 -0.4969  1.0573 -0.8310
  588MOL0     H79378   4.681   4.801   8.548  0.7227  2.9234 -1.0842
  588MOL0     H79379   3.986   5.154   9.116 -2.9688  0.2449  0.3004
  588MOL0     H79380   3.760   5.203   9.047  0.6270 -3.4163  2.6512
  589MOL0     O79381   4.407   6.869   5.007 -0.7077 -0.6752 -0.1398
  589MOL0     C79382   4.450   6.779   4.939 -0.4230 -0.3056  0.4836
  589MOL0     O79383   4.379   6.681   4.879 -0.4239  0.0214 -0.1203
  589MOL0     C79384   4.245   6.683   4.872 -0.3830 -0.4034 -0.1599
  589MOL0     C79385   4.188   6.557   4.868  0.5754  0.8271 -0.9761
  589MOL0     C79386   4.047   6.528   4.874  0.4617 -1.1789  0.1865
  589MOL0     C79387   3.960   6.643   4.864 -0.2141 -0.7874  0.0436
  589MOL0     O79388   3.828   6.611   4.856 -0.3010 -0.2841 -0.2674
  589MOL0     C79389   3.737   6.716   4.820  0.0623 -0.4854 -0.6777
  589MOL0     C79390   3.596   6.668   4.820  0.1312 -0.1598 -0.1471
  589MOL0     C79391   3.513   6.779   4.884 -0.3856 -0.6298  0.5027
  589MOL0     C79392   3.364   6.727   4.875 -1.1706 -0.1807  0.1771
  589MOL0     C79393   3.255   6.818   4.927  0.0345 -0.6828  0.3120
  589MOL0     C79394   3.237   6.940   4.834 -0.5317 -0.5668  0.6845
  589MOL0     C79395   3.138   7.039   4.906  0.4255 -0.2802  0.0139
  589MOL0     C79396   3.161   7.184   4.861  0.2849 -0.3403 -0.3611
  589MOL0     N79397   3.063   7.235   4.757  0.8620  0.7304  0.0561
  589MOL0     C79398   2.947   7.300   4.772  0.7308  0.2346  0.4781
  589MOL0     C79399   2.874   7.297   4.654 -0.1641 -0.7830 -0.0296
  589MOL0     C79400   2.742   7.355   4.615  0.3720 -0.2597  0.4312
  589MOL0     C79401   2.672   7.275   4.502  0.2486  0.1011 -0.1562
  589MOL0     C79402   2.681   7.355   4.374  0.0002  0.3490 -0.2554
  589MOL0     C79403   2.603   7.293   4.261  0.6081  0.4989 -0.0493
  589MOL0     O79404   2.467   7.350   4.259  0.3091 -0.1124  0.1365
  589MOL0     C79405   2.443   7.477   4.192  0.1870  0.6305  0.0343
  589MOL0     C79406   2.535   7.545   4.114 -0.2263  0.2666  0.6434
  589MOL0     C79407   2.489   7.669   4.049  0.2628 -1.0023 -0.4017
  589MOL0     C79408   2.593   7.743   3.970  0.4639 -0.5698  0.6018
  589MOL0     C79409   2.360   7.710   4.058  0.7187  0.0032  0.2577
  589MOL0     C79410   2.293   7.830   3.988  0.6782  0.5654 -0.6981
  589MOL0     O79411   2.200   7.890   4.063  0.4614  0.0631  0.9912
  589MOL0     C79412   2.156   8.014   4.025  0.1751 -0.0573 -0.0982
  589MOL0     C79413   2.026   8.050   4.079  0.3328 -0.5200  0.5904
  589MOL0     C79414   1.964   8.179   4.068 -0.1811  0.4892  0.0835
  589MOL0     C79415   2.040   8.272   4.012 -1.0446 -0.0311 -1.1054
  589MOL0     O79416   1.975   8.389   4.008 -0.8953 -0.2861 -0.2429
  589MOL0     C79417   2.020   8.478   3.903  0.7327  1.0384 -0.3532
  589MOL0     C79418   1.911   8.573   3.863 -0.5026 -0.5304 -0.4854
  589MOL0     C79419   1.786   8.505   3.806 -0.4242 -0.2356 -0.2048
  589MOL0     C79420   1.665   8.596   3.799  1.0539  0.0370 -0.3448
  589MOL0     C79421   1.550   8.514   3.762 -0.3401 -0.0560 -0.1463
  589MOL0     C79422   1.428   8.606   3.750  0.5863 -0.4437 -0.1148
  589MOL0     C79423   1.300   8.526   3.719  0.9575  0.4115  0.0269
  589MOL0     C79424   1.176   8.618   3.738 -0.4439 -0.3457 -0.0626
  589MOL0    Cl79425   1.038   8.546   3.656 -0.1287 -0.1839  0.6693
  589MOL0     C79426   2.174   8.250   3.972  1.0236  0.8159 -0.3791
  589MOL0     C79427   2.231   8.121   3.977  0.2376  0.5032 -0.3544
  589MOL0     O79428   2.327   7.861   3.876  0.5284  0.5996  0.3376
  589MOL0     C79429   2.277   7.640   4.150 -0.2385  0.6893  0.6718
  589MOL0     C79430   2.315   7.521   4.210 -0.2916  0.2102  0.0392
  589MOL0     N79431   2.959   7.229   4.565  0.1766  0.5485 -0.0162
  589MOL0     N79432   3.068   7.193   4.625 -0.6491 -0.4566 -0.6003
  589MOL0     C79433   4.016   6.775   4.860 -0.2158  0.5262 -0.6807
  589MOL0     C79434   4.159   6.797   4.863 -0.3684 -0.1992  0.7889
  589MOL0     C79435   4.598   6.779   4.922 -0.0950 -0.1228  0.1136
  589MOL0     C79436   4.658   6.666   4.863  0.4123 -0.2466  0.0620
  589MOL0     C79437   4.798   6.661   4.841 -0.0086  0.6837 -0.3185
  589MOL0     C79438   4.881   6.777   4.862 -0.0745 -0.4389 -0.1875
  589MOL0     O79439   5.016   6.782   4.839 -0.3183  0.6127  0.2216
  589MOL0     C79440   5.091   6.664   4.800  0.1336 -0.3896 -0.7680
  589MOL0     C79441   5.237   6.702   4.748 -0.0615 -0.0137 -0.4531
  589MOL0     C79442   5.223   6.839   4.668 -0.4673  0.7713 -0.2539
  589MOL0     C79443   5.305   6.836   4.540  0.1475 -0.0950 -0.0069
  589MOL0     C79444   5.448   6.802   4.551  1.1555 -0.2166 -0.2029
  589MOL0     C79445   5.564   6.773   4.556 -1.3545 -0.0135 -0.3453
  589MOL0     C79446   4.816   6.892   4.914  0.6762 -0.0444 -0.8550
  589MOL0     C79447   4.680   6.889   4.938 -0.2882 -0.7441  0.8177
  589MOL0     H79448   4.251   6.469   4.869 -0.9023 -0.3433 -3.1354
  589MOL0     H79449   4.011   6.426   4.879  1.5646 -1.6373 -0.7580
  589MOL0     H79450   3.745   6.803   4.885 -3.7954 -0.7721  0.3980
  589MOL0     H79451   3.771   6.756   4.724 -1.9898  1.0565 -0.8167
  589MOL0     H79452   3.571   6.655   4.715  0.0783  1.5147 -0.3586
  589MOL0     H79453   3.592   6.572   4.874 -1.1184  0.1743  0.3758
  589MOL0     H79454   3.543   6.794   4.988  1.0760  1.1207 -0.1124
  589MOL0     H79455   3.529   6.872   4.828 -1.7416 -1.5327 -1.4792
  589MOL0     H79456   3.344   6.704   4.769 -2.8489  1.9029 -0.0183
  589MOL0     H79457   3.363   6.638   4.938  1.5339  0.4277  1.2120
  589MOL0     H79458   3.159   6.765   4.935 -0.9813  1.1506  0.6328
  589MOL0     H79459   3.289   6.840   5.028 -0.4976 -0.5115  0.4555
  589MOL0     H79460   3.337   6.980   4.815 -1.1981  2.8110  3.3589
  589MOL0     H79461   3.198   6.917   4.734 -0.5925  3.6995 -0.4674
  589MOL0     H79462   3.036   7.000   4.900  0.3918 -0.4110  1.2323
  589MOL0     H79463   3.175   7.045   5.008 -1.3635  1.3173  0.6342
  589MOL0     H79464   3.263   7.193   4.823 -0.2316  0.4407 -1.6194
  589MOL0     H79465   3.156   7.257   4.942 -1.9693  0.1596 -0.8703
  589MOL0     H79466   2.923   7.340   4.870  1.7420  0.0294  0.8344
  589MOL0     H79467   2.682   7.360   4.707 -2.2006  2.3363 -1.2071
  589MOL0     H79468   2.749   7.457   4.577  0.7653 -0.5489 -0.2994
  589MOL0     H79469   2.565   7.263   4.525  0.0159  0.0770 -1.1870
  589MOL0     H79470   2.713   7.175   4.483  0.7565  0.6547 -2.2198
  589MOL0     H79471   2.787   7.360   4.346  0.0959 -2.3791 -0.6637
  589MOL0     H79472   2.658   7.460   4.390  0.5681  0.7712 -2.0020
  589MOL0     H79473   2.602   7.184   4.270  2.4499  0.4783  0.1924
  589MOL0     H79474   2.654   7.315   4.167  0.4635  0.0138 -0.2436
  589MOL0     H79475   2.641   7.524   4.118 -0.4333 -0.6988  1.8700
  589MOL0     H79476   2.697   7.720   3.996  1.0027  0.3478 -0.6462
  589MOL0     H79477   2.565   7.719   3.866 -0.5063  0.1077  0.6986
  589MOL0     H79478   2.583   7.850   3.988 -0.4692 -0.3648 -0.9528
  589MOL0     H79479   1.972   7.969   4.126  1.7234 -1.2318  1.0048
  589MOL0     H79480   1.864   8.193   4.109 -0.9501 -1.8765 -0.8554
  589MOL0     H79481   2.110   8.528   3.941 -0.7134  2.3476  1.5073
  589MOL0     H79482   2.059   8.416   3.822  0.1361 -3.5605  2.5375
  589MOL0     H79483   1.891   8.634   3.952 -0.7048 -1.1991 -0.0661
  589MOL0     H79484   1.952   8.646   3.793 -0.1267  0.6343  0.8973
  589MOL0     H79485   1.763   8.419   3.870  0.1917  0.4393  0.9615
  589MOL0     H79486   1.807   8.465   3.706  1.4221 -1.3859  0.5809
  589MOL0     H79487   1.650   8.641   3.898  1.5358 -1.4358  0.4195
  589MOL0     H79488   1.682   8.673   3.723  1.3561 -0.6992 -1.0343
  589MOL0     H79489   1.530   8.438   3.838  1.0688 -1.4522 -1.1032
  589MOL0     H79490   1.571   8.461   3.669 -1.5094 -0.7400 -0.0410
  589MOL0     H79491   1.421   8.644   3.852 -3.5135  0.2096 -0.4843
  589MOL0     H79492   1.443   8.688   3.679 -0.1509  0.9741  1.3180
  589MOL0     H79493   1.283   8.437   3.779 -1.0238  0.6940 -0.0491
  589MOL0     H79494   1.309   8.509   3.611 -1.5721  3.5296 -0.8438
  589MOL0     H79495   1.195   8.716   3.695 -0.8535 -0.0408  0.4475
  589MOL0     H79496   1.151   8.630   3.843 -0.2942 -1.5426  0.1301
  589MOL0     H79497   2.234   8.326   3.922  2.6223 -0.1440  0.0276
  589MOL0     H79498   2.328   8.097   3.934 -0.6004 -0.8871 -1.5549
  589MOL0     H79499   2.176   7.678   4.160 -0.2650  0.7023  0.3727
  589MOL0     H79500   2.241   7.463   4.266  0.2071  0.4020  0.9220
  589MOL0     H79501   3.951   6.862   4.858  1.5315  1.8990 -0.3338
  589MOL0     H79502   4.193   6.900   4.860  0.1013 -0.3253  1.3621
  589MOL0     H79503   4.607   6.571   4.850 -1.9606  0.9400  0.2697
  589MOL0     H79504   4.839   6.569   4.800  2.0879 -0.1121  3.1255
  589MOL0     H79505   5.102   6.594   4.882 -1.3518  0.3406  0.0956
  589MOL0     H79506   5.044   6.607   4.719  0.2201 -0.2072 -0.9480
  589MOL0     H79507   5.267   6.614   4.689 -1.0035 -0.4426 -0.3222
  589MOL0     H79508   5.288   6.717   4.843 -2.7655  1.7723  0.8502
  589MOL0     H79509   5.256   6.923   4.730  2.4034 -0.9489  0.7509
  589MOL0     H79510   5.119   6.851   4.637 -0.0082  0.5192 -1.9961
  589MOL0     H79511   5.310   6.936   4.497  0.0939  1.0285  2.4433
  589MOL0     H79512   5.253   6.769   4.472 -0.2563  0.2660 -0.0567
  589MOL0     H79513   5.669   6.759   4.573 -1.8637 -0.2820  3.4144
  589MOL0     H79514   4.870   6.984   4.934 -0.5952  0.7575 -1.0370
  589MOL0     H79515   4.636   6.986   4.958  2.4871  1.0472 -1.0267
  590MOL0     O79516   9.641   0.132   9.457 -0.6637 -0.1699  0.3838
  590MOL0     C79517   9.693   0.033   9.505 -0.7156  0.2095 -0.7927
  590MOL0     O79518   9.637  -0.081   9.540 -0.5663  0.2899 -0.2780
  590MOL0     C79519   9.577  -0.139   9.433  0.0789 -0.8724 -0.5762
  590MOL0     C79520   9.445  -0.124   9.400  0.3866  0.2717  0.3095
  590MOL0     C79521   9.388  -0.215   9.311  0.1544  0.3218  0.6162
  590MOL0     C79522   9.465  -0.300   9.232 -0.0888 -0.3811  0.5265
  590MOL0     O79523   9.417  -0.379   9.138  0.1902  0.1420 -0.1655
  590MOL0     C79524   9.325  -0.475   9.201 -0.6698 -0.2878 -0.1237
  590MOL0     C79525   9.306  -0.600   9.109 -0.1068 -0.8676 -0.2448
  590MOL0     C79526   9.195  -0.695   9.148 -0.0821  0.1568  0.5597
  590MOL0     C79527   9.064  -0.651   9.083 -0.3936 -0.5764 -0.3646
  590MOL0     C79528   8.959  -0.664   9.186  0.6165  0.0101 -0.0726
  590MOL0     C79529   8.821  -0.643   9.127 -0.4614 -0.2014 -0.4197
  590MOL0     C79530   8.723  -0.691   9.233 -0.4041  0.8652 -0.5225
  590MOL0     C79531   8.586  -0.627   9.209 -0.1031 -0.1548  0.0846
  590MOL0     N79532   8.475  -0.673   9.300 -0.2109  0.6078 -0.1655
  590MOL0     C79533   8.401  -0.792   9.274 -0.5666  0.0472 -0.5496
  590MOL0     C79534   8.309  -0.801   9.373 -0.8246  0.6837 -0.6601
  590MOL0     C79535   8.206  -0.904   9.404 -0.0142  0.6698 -0.5654
  590MOL0     C79536   8.077  -0.834   9.440  0.5057  0.6405 -0.0745
  590MOL0     C79537   7.974  -0.946   9.484 -0.2668 -0.8850 -0.2403
  590MOL0     C79538   7.838  -0.887   9.534  0.0532  0.4878 -0.1194
  590MOL0     O79539   7.779  -1.002   9.597 -0.6023 -0.5091 -0.3060
  590MOL0     C79540   7.642  -1.016   9.586 -1.5776 -0.2465 -0.3739
  590MOL0     C79541   7.592  -1.146   9.577 -0.0191  0.0186  0.0231
  590MOL0     C79542   7.452  -1.182   9.562 -0.2995 -0.7152 -0.2343
  590MOL0     C79543   7.421  -1.332   9.549 -0.7017  0.3483 -0.3511
  590MOL0     C79544   7.354  -1.078   9.557 -0.8872  0.2778 -0.2264
  590MOL0     C79545   7.207  -1.106   9.543  0.2079 -0.5461  0.1807
  590MOL0     O79546   7.170  -1.236   9.526  1.0300 -0.1268 -0.9022
  590MOL0     C79547   7.039  -1.281   9.513  0.6657 -0.1854  0.3168
  590MOL0     C79548   6.928  -1.225   9.579  0.5774 -0.3357  1.1544
  590MOL0     C79549   6.798  -1.280   9.563  0.2029 -0.2599  0.5677
  590MOL0     C79550   6.783  -1.401   9.497 -1.1431 -0.1187 -0.3388
  590MOL0     O79551   6.663  -1.455   9.497  0.6260 -0.9738  0.4420
  590MOL0     C79552   6.654  -1.587   9.555  0.4739 -0.2600  0.0393
  590MOL0     C79553   6.539  -1.617   9.638 -0.7879 -0.0635 -0.2920
  590MOL0     C79554   6.403  -1.580   9.582 -0.1415 -0.2522 -0.2357
  590MOL0     C79555   6.292  -1.643   9.661 -0.3400 -0.1845 -0.4031
  590MOL0     C79556   6.165  -1.603   9.603  0.1383  0.7042  0.8614
  590MOL0     C79557   6.052  -1.694   9.661  0.5721  0.9439 -0.4334
  590MOL0     C79558   5.932  -1.672   9.590 -1.3373 -0.8553  0.4110
  590MOL0     C79559   5.808  -1.765   9.619 -0.3802 -0.6106  0.2348
  590MOL0    Cl79560   5.836  -1.928   9.598  0.2540  0.2733  0.0901
  590MOL0     C79561   6.891  -1.462   9.435  0.0266  0.9895 -0.0581
  590MOL0     C79562   7.018  -1.397   9.445  0.0132  0.4177 -0.4593
  590MOL0     O79563   7.126  -1.011   9.553 -0.3149 -0.2520 -0.1976
  590MOL0     C79564   7.405  -0.950   9.585 -0.2130  0.2297  1.1783
  590MOL0     C79565   7.542  -0.917   9.592  0.3982 -0.5723  0.3426
  590MOL0     N79566   8.329  -0.688   9.449  0.4557  0.2736  0.2102
  590MOL0     N79567   8.427  -0.610   9.407  0.2198 -0.4669 -0.5488
  590MOL0     C79568   9.602  -0.306   9.249  0.1043  0.4045 -0.2952
  590MOL0     C79569   9.650  -0.233   9.362  0.5312 -0.1267 -0.3451
  590MOL0     C79570   9.840   0.059   9.555  0.5336  1.0215 -0.7534
  590MOL0     C79571   9.897   0.185   9.535 -0.3015  0.4153  0.1529
  590MOL0     C79572  10.028   0.212   9.572 -0.4728 -1.0487 -0.1339
  590MOL0     C79573  10.106   0.115   9.625  0.2874  0.2786  0.1285
  590MOL0     O79574  10.238   0.133   9.636 -0.1524  0.2872 -0.1328
  590MOL0     C79575  10.291   0.260   9.680  0.0443  0.3198 -0.2544
  590MOL0     C79576  10.418   0.218   9.749 -0.3301 -0.4524 -0.0353
  590MOL0     C79577  10.526   0.170   9.650  1.0942  0.0516  0.3534
  590MOL0     C79578  10.657   0.144   9.726 -0.9762  0.5552 -0.0907
  590MOL0     C79579  10.777   0.137   9.644  1.0908  0.8042 -0.2929
  590MOL0     C79580  10.870   0.130   9.573 -0.4472 -0.6551 -0.5355
  590MOL0     C79581  10.054  -0.014   9.645 -0.1365  0.1589 -0.6613
  590MOL0     C79582   9.922  -0.043   9.612 -0.4214  0.3900 -0.2213
  590MOL0     H79583   9.382  -0.058   9.459 -1.7260  0.5964 -2.1255
  590MOL0     H79584   9.281  -0.206   9.297  0.3905  1.7726 -0.4313
  590MOL0     H79585   9.336  -0.498   9.307 -0.4825 -1.1610 -0.3215
  590MOL0     H79586   9.223  -0.435   9.196 -0.9575 -0.9579  0.2534
  590MOL0     H79587   9.265  -0.547   9.023 -1.3415  2.0009  1.9449
  590MOL0     H79588   9.402  -0.645   9.083  0.8757  1.4215 -0.8277
  590MOL0     H79589   9.219  -0.794   9.110  1.0426  1.1759 -1.5559
  590MOL0     H79590   9.190  -0.699   9.258  1.8981  0.2773  0.6886
  590MOL0     H79591   9.071  -0.549   9.043  1.9524 -1.1289 -1.5804
  590MOL0     H79592   9.040  -0.715   8.997  0.0696 -0.6395 -0.4468
  590MOL0     H79593   8.954  -0.757   9.244 -0.9370  0.3223  0.3422
  590MOL0     H79594   8.982  -0.589   9.262 -2.8126  0.3626  0.7893
  590MOL0     H79595   8.803  -0.540   9.094  0.1154 -0.1177 -0.4701
  590MOL0     H79596   8.817  -0.700   9.034  1.6810  0.6812 -1.1244
  590MOL0     H79597   8.713  -0.800   9.230  0.8992  0.6764  0.7430
  590MOL0     H79598   8.765  -0.669   9.332  2.9280  1.2422 -1.8686
  590MOL0     H79599   8.546  -0.640   9.108  0.3467  2.1853 -0.4578
  590MOL0     H79600   8.601  -0.520   9.224  0.1285 -0.1909  0.1063
  590MOL0     H79601   8.416  -0.871   9.201 -1.4475  0.3981 -1.1210
  590MOL0     H79602   8.208  -0.974   9.320 -1.2068  2.1865 -1.9193
  590MOL0     H79603   8.229  -0.955   9.498 -1.6525  1.0746  0.0758
  590MOL0     H79604   8.034  -0.775   9.359  2.3758  1.6840 -0.3514
  590MOL0     H79605   8.093  -0.764   9.523  1.4966 -0.0212  0.3182
  590MOL0     H79606   8.014  -1.002   9.569 -0.8382 -3.4765 -1.5906
  590MOL0     H79607   7.958  -1.020   9.406 -1.0158 -1.7525  0.7051
  590MOL0     H79608   7.778  -0.847   9.452  2.4390  5.7357  0.3029
  590MOL0     H79609   7.854  -0.808   9.608 -1.6360 -0.3521  1.2265
  590MOL0     H79610   7.660  -1.230   9.584 -1.6542 -1.4337 -0.6078
  590MOL0     H79611   7.375  -1.360   9.454 -1.2600  2.0335 -0.6252
  590MOL0     H79612   7.513  -1.389   9.561  0.1288  1.5867 -0.5702
  590MOL0     H79613   7.360  -1.369   9.631  1.5577  0.7021  1.5750
  590MOL0     H79614   6.947  -1.131   9.629  2.3203 -0.4642  0.7743
  590MOL0     H79615   6.723  -1.217   9.611  1.7700  2.0652  0.1048
  590MOL0     H79616   6.642  -1.651   9.467  1.7047 -2.7893  1.6010
  590MOL0     H79617   6.748  -1.612   9.606  3.1562  3.2959 -2.6442
  590MOL0     H79618   6.548  -1.725   9.654 -1.4231 -0.2947 -1.3954
  590MOL0     H79619   6.549  -1.558   9.729 -0.7943 -1.3371  0.5699
  590MOL0     H79620   6.392  -1.618   9.480 -0.7288  0.5158 -0.4595
  590MOL0     H79621   6.391  -1.472   9.589  0.3038 -0.2593  0.7772
  590MOL0     H79622   6.302  -1.752   9.664 -0.1535 -0.1570  0.1873
  590MOL0     H79623   6.298  -1.601   9.762 -1.7161 -0.5497 -0.1529
  590MOL0     H79624   6.177  -1.633   9.498 -2.1803  3.7980 -0.4673
  590MOL0     H79625   6.134  -1.498   9.614 -0.9712  0.3227  1.5240
  590MOL0     H79626   6.079  -1.800   9.664 -3.6612 -0.4249 -2.8531
  590MOL0     H79627   6.027  -1.663   9.763 -4.8827  0.1115 -1.2306
  590MOL0     H79628   5.961  -1.685   9.485  0.8817 -1.4767  1.0534
  590MOL0     H79629   5.900  -1.568   9.597 -0.2602 -0.4285 -0.6008
  590MOL0     H79630   5.733  -1.755   9.541  0.7834  0.6033 -0.7869
  590MOL0     H79631   5.778  -1.738   9.721  1.1690 -2.1027  1.1568
  590MOL0     H79632   6.887  -1.561   9.390  0.0942  0.0889  1.8453
  590MOL0     H79633   7.110  -1.439   9.407 -0.4709  0.2774 -1.4984
  590MOL0     H79634   7.326  -0.876   9.589 -0.3119  0.1331  1.0037
  590MOL0     H79635   7.585  -0.820   9.613  0.1555 -0.4577  0.3121
  590MOL0     H79636   9.673  -0.360   9.187  0.5358  0.2879  0.2905
  590MOL0     H79637   9.752  -0.251   9.393  0.6769  1.9608  0.5957
  590MOL0     H79638   9.837   0.253   9.476  0.4024 -0.9631 -2.3375
  590MOL0     H79639  10.059   0.314   9.555 -2.2156 -0.4537  0.0155
  590MOL0     H79640  10.305   0.332   9.599  1.8686  0.4873  0.1799
  590MOL0     H79641  10.215   0.300   9.748  0.3694 -0.6044  0.6957
  590MOL0     H79642  10.394   0.144   9.826 -0.8632 -0.4389 -0.1874
  590MOL0     H79643  10.456   0.310   9.795 -1.3344  0.6257 -1.2738
  590MOL0     H79644  10.543   0.244   9.572 -0.6547  0.0972 -0.0431
  590MOL0     H79645  10.494   0.079   9.599  1.3948  0.7209 -1.0990
  590MOL0     H79646  10.651   0.044   9.770 -1.2781  0.2026 -0.9219
  590MOL0     H79647  10.674   0.226   9.797 -2.2707 -0.2505  1.2121
  590MOL0     H79648  10.952   0.118   9.505 -0.0464 -1.7542  0.1002
  590MOL0     H79649  10.113  -0.090   9.694 -2.6755 -2.6364 -1.6536
  590MOL0     H79650   9.876  -0.141   9.621  3.3142 -1.5538 -0.7533
  591MOL0     O79651   6.219   2.194   7.029  0.2465 -0.0761  1.0274
  591MOL0     C79652   6.276   2.103   6.960  0.9634 -0.1831 -0.2004
  591MOL0     O79653   6.241   2.044   6.840  0.1021 -0.3273  0.4942
  591MOL0     C79654   6.110   2.048   6.811 -0.0478 -0.0076 -1.5115
  591MOL0     C79655   6.003   1.997   6.892  0.2302  0.0385  0.3497
  591MOL0     C79656   5.871   2.013   6.848 -0.1537  0.2276  0.5165
  591MOL0     C79657   5.842   2.076   6.730 -0.3357 -0.4558  0.2804
  591MOL0     O79658   5.713   2.102   6.685  0.2771 -0.0265 -0.6446
  591MOL0     C79659   5.629   1.989   6.677  0.1210  0.2981 -0.1079
  591MOL0     C79660   5.538   2.017   6.562 -0.2291  0.4729  0.0764
  591MOL0     C79661   5.398   2.064   6.605 -0.2155  0.0780 -0.8998
  591MOL0     C79662   5.364   2.197   6.537  0.7361 -0.3784  1.2784
  591MOL0     C79663   5.242   2.281   6.585  0.1774  0.4420  0.2138
  591MOL0     C79664   5.281   2.369   6.705  0.2294  0.5559  0.3634
  591MOL0     C79665   5.155   2.450   6.741  0.3147  0.3294  0.1260
  591MOL0     C79666   5.172   2.503   6.885 -0.3322 -1.1021  0.2392
  591MOL0     N79667   5.067   2.589   6.927  0.6401 -0.2374  0.0461
  591MOL0     C79668   5.018   2.596   7.058 -0.5610 -0.2166 -0.3519
  591MOL0     C79669   4.931   2.703   7.052 -0.1630 -0.2069  0.2097
  591MOL0     C79670   4.866   2.769   7.172 -0.1390  0.2127 -0.0620
  591MOL0     C79671   4.722   2.717   7.174 -0.5344  0.0575  0.1849
  591MOL0     C79672   4.651   2.789   7.283  0.3555  0.5749 -0.8709
  591MOL0     C79673   4.502   2.752   7.276 -0.4990  0.0044  0.1603
  591MOL0     O79674   4.448   2.793   7.147  0.0207  0.2834 -0.1466
  591MOL0     C79675   4.311   2.772   7.127 -0.0491 -0.4225 -0.6649
  591MOL0     C79676   4.253   2.809   7.003  0.0073  0.6090 -0.4867
  591MOL0     C79677   4.113   2.791   6.976  0.0482 -0.7083  0.2767
  591MOL0     C79678   4.050   2.883   6.872 -0.1144 -0.5592 -0.1556
  591MOL0     C79679   4.028   2.727   7.071 -0.2883  0.2427 -0.1954
  591MOL0     C79680   3.881   2.730   7.059  0.0652 -0.8891  0.0865
  591MOL0     O79681   3.817   2.709   6.943 -0.2720  0.4178  0.5530
  591MOL0     C79682   3.685   2.694   6.949  0.1659  0.4138  0.4044
  591MOL0     C79683   3.617   2.602   7.034  0.3407 -0.7201  0.4189
  591MOL0     C79684   3.481   2.581   7.024  0.4853  0.3182 -0.1433
  591MOL0     C79685   3.406   2.651   6.929  0.5038  0.1275 -0.5304
  591MOL0     O79686   3.273   2.623   6.899 -0.5742  0.2563 -0.2279
  591MOL0     C79687   3.172   2.727   6.872 -0.0182  1.0384 -0.4131
  591MOL0     C79688   3.070   2.736   6.988 -0.4036  0.3676  0.3490
  591MOL0     C79689   3.010   2.600   7.008  0.7568 -0.2312 -0.1956
  591MOL0     C79690   2.889   2.610   7.106  0.6445 -0.8361 -0.0450
  591MOL0     C79691   2.827   2.479   7.150 -0.0210  0.5983  0.6983
  591MOL0     C79692   2.734   2.410   7.035  0.1621  0.0299  0.2844
  591MOL0     C79693   2.621   2.494   6.980  0.7432 -0.1354 -0.0467
  591MOL0     C79694   2.516   2.527   7.079 -0.9100 -0.5063 -0.1183
  591MOL0    Cl79695   2.451   2.382   7.161 -0.5811  0.3158  0.0125
  591MOL0     C79696   3.480   2.743   6.852 -0.1252  0.4014 -0.4037
  591MOL0     C79697   3.613   2.765   6.854  0.5009  0.1162  0.1925
  591MOL0     O79698   3.828   2.761   7.166  0.4446  0.5897  0.5859
  591MOL0     C79699   4.088   2.680   7.186  1.1775 -0.4401 -0.4914
  591MOL0     C79700   4.225   2.701   7.215 -0.6317  0.3986  0.1763
  591MOL0     N79701   4.921   2.750   6.923 -0.1055  0.5940  0.2460
  591MOL0     N79702   5.002   2.673   6.842 -0.4796 -0.1113 -0.6708
  591MOL0     C79703   5.944   2.134   6.650 -0.7685  0.0114  0.4046
  591MOL0     C79704   6.077   2.123   6.693 -0.6186  0.5433 -0.0067
  591MOL0     C79705   6.406   2.050   7.009 -0.3971  0.7256  0.8039
  591MOL0     C79706   6.493   1.972   6.934  0.0396  0.1265 -0.1015
  591MOL0     C79707   6.620   1.956   6.970 -1.0280 -0.6280 -0.8695
  591MOL0     C79708   6.677   2.009   7.092  0.8220  0.5315 -0.5129
  591MOL0     O79709   6.802   1.993   7.137 -0.4337  0.3617 -0.7804
  591MOL0     C79710   6.897   1.941   7.040 -1.0589  0.1535 -0.4479
  591MOL0     C79711   7.038   1.971   7.089 -0.0430 -0.2113  0.3821
  591MOL0     C79712   7.066   2.122   7.094  0.7737  0.3442 -0.6847
  591MOL0     C79713   7.196   2.162   7.158  0.6903 -1.2742 -0.7015
  591MOL0     C79714   7.308   2.147   7.068  0.2168 -0.2572 -0.2564
  591MOL0     C79715   7.401   2.157   6.990 -0.0332  0.2348  0.0375
  591MOL0     C79716   6.590   2.082   7.168  0.0996  0.3220  0.4637
  591MOL0     C79717   6.455   2.111   7.130 -0.5801  0.8485 -0.4314
  591MOL0     H79718   6.019   1.942   6.985 -3.7760  0.3303  1.4100
  591MOL0     H79719   5.788   1.960   6.894 -1.9477  1.9803 -0.5561
  591MOL0     H79720   5.698   1.908   6.649 -1.2635 -0.9442 -0.0260
  591MOL0     H79721   5.573   1.957   6.765 -0.0229  1.5532  0.2739
  591MOL0     H79722   5.585   2.086   6.490 -2.2378  1.3720 -0.4429
  591MOL0     H79723   5.532   1.919   6.512  0.0784  0.0452  0.8669
  591MOL0     H79724   5.323   1.987   6.585  0.4226 -0.3747 -1.5981
  591MOL0     H79725   5.403   2.083   6.712 -1.0383  0.8927 -1.0000
  591MOL0     H79726   5.456   2.256   6.537  2.0419 -2.2060 -1.2644
  591MOL0     H79727   5.341   2.174   6.432  4.6747  0.4081  0.0628
  591MOL0     H79728   5.204   2.334   6.497  0.7860  0.2203 -0.1925
  591MOL0     H79729   5.169   2.205   6.616 -0.9347  2.0783  1.8198
  591MOL0     H79730   5.306   2.301   6.788  1.1045 -0.1413 -0.4581
  591MOL0     H79731   5.360   2.444   6.697 -0.3592  1.2336  0.7958
  591MOL0     H79732   5.152   2.535   6.672  4.3073 -0.3272 -1.1051
  591MOL0     H79733   5.060   2.397   6.730  1.5591 -1.6594 -1.8050
  591MOL0     H79734   5.268   2.555   6.886  1.0213 -3.2647 -2.2103
  591MOL0     H79735   5.183   2.415   6.950  3.4362 -2.0519 -1.4215
  591MOL0     H79736   5.051   2.547   7.148  0.4011  0.2906 -0.4137
  591MOL0     H79737   4.917   2.744   7.266 -0.6529 -0.2222  0.1078
  591MOL0     H79738   4.863   2.876   7.154 -4.1054 -0.0319 -1.7710
  591MOL0     H79739   4.729   2.612   7.204 -0.8163  0.0378  0.1842
  591MOL0     H79740   4.675   2.721   7.075 -1.2030 -0.5215  0.4677
  591MOL0     H79741   4.659   2.898   7.273 -0.9271  0.9613  1.6904
  591MOL0     H79742   4.698   2.751   7.374 -0.3946 -0.1262 -0.7749
  591MOL0     H79743   4.443   2.799   7.355 -0.2973 -0.4048  0.5615
  591MOL0     H79744   4.500   2.643   7.289  0.4941  0.2862  3.5374
  591MOL0     H79745   4.327   2.861   6.943 -0.5431  2.8864  0.6730
  591MOL0     H79746   3.987   2.960   6.918  0.8222 -1.2036  2.3793
  591MOL0     H79747   4.127   2.941   6.822 -2.5467  0.7382 -2.6496
  591MOL0     H79748   3.990   2.825   6.801 -2.7663  0.1583  1.3457
  591MOL0     H79749   3.674   2.548   7.109 -0.5616  0.2266  1.8500
  591MOL0     H79750   3.428   2.524   7.100 -1.9706  1.9835 -0.4819
  591MOL0     H79751   3.212   2.826   6.848 -0.9050  1.0453 -1.9883
  591MOL0     H79752   3.116   2.706   6.781 -0.1463 -1.7440  0.2306
  591MOL0     H79753   3.123   2.770   7.078  0.8470  2.8811 -1.2066
  591MOL0     H79754   2.988   2.798   6.953  0.1959  1.2104  0.4199
  591MOL0     H79755   3.091   2.543   7.056  0.5373 -0.2708  0.1350
  591MOL0     H79756   2.980   2.540   6.922 -0.8232 -0.3417  0.3929
  591MOL0     H79757   2.930   2.653   7.198 -0.2988  1.6225 -0.7165
  591MOL0     H79758   2.821   2.683   7.063  3.3162  0.6483 -2.0552
  591MOL0     H79759   2.759   2.500   7.233  0.1908  2.0033  0.5465
  591MOL0     H79760   2.902   2.407   7.185  1.1132  2.0505  1.3538
  591MOL0     H79761   2.799   2.382   6.952 -1.4244  2.1712 -1.8412
  591MOL0     H79762   2.697   2.315   7.072  0.6558 -0.1693  0.2711
  591MOL0     H79763   2.572   2.439   6.899 -3.3248  2.7989  0.1108
  591MOL0     H79764   2.657   2.589   6.940  0.5375  1.3555  3.0146
  591MOL0     H79765   2.441   2.579   7.019  0.4619  1.8861  0.1435
  591MOL0     H79766   2.552   2.594   7.157 -0.8623  0.3052 -0.8299
  591MOL0     H79767   3.438   2.792   6.765  0.7570 -0.3681 -1.2807
  591MOL0     H79768   3.658   2.827   6.778 -1.1351  1.7573  0.4784
  591MOL0     H79769   4.023   2.636   7.262  0.0846  1.0322 -0.5360
  591MOL0     H79770   4.280   2.679   7.306  1.6340  3.1398 -0.3779
  591MOL0     H79771   5.910   2.175   6.555 -0.3216 -2.7482 -1.0317
  591MOL0     H79772   6.150   2.173   6.631  2.3276 -0.2163  2.5751
  591MOL0     H79773   6.462   1.937   6.836 -0.2105 -1.1371  0.4060
  591MOL0     H79774   6.684   1.902   6.900 -0.3827  0.6755 -1.3100
  591MOL0     H79775   6.894   1.832   7.028  2.1988  0.0832 -1.7295
  591MOL0     H79776   6.875   1.992   6.946  0.7940  0.4419 -0.7493
  591MOL0     H79777   7.108   1.925   7.019  0.1090  3.3279 -2.0861
  591MOL0     H79778   7.052   1.932   7.190  0.3848  1.6772  1.1058
  591MOL0     H79779   6.989   2.167   7.157  1.4932 -1.4949  1.6512
  591MOL0     H79780   7.052   2.153   6.990 -0.8457  1.5165 -0.1571
  591MOL0     H79781   7.209   2.110   7.254  2.8995  2.1603  1.0746
  591MOL0     H79782   7.188   2.269   7.177  0.2124 -1.6304  1.4722
  591MOL0     H79783   7.488   2.172   6.928 -0.2062  2.8634  0.3222
  591MOL0     H79784   6.628   2.119   7.263 -0.2713  2.3558 -0.1286
  591MOL0     H79785   6.389   2.168   7.194  0.1306  0.3858  0.7431
  592MOL0     O79786   4.025   4.464   2.002  0.1911 -0.1993 -0.0707
  592MOL0     C79787   4.033   4.355   2.053  0.6407  0.0205 -0.4023
  592MOL0     O79788   3.943   4.308   2.146 -0.1532 -0.1693 -0.0300
  592MOL0     C79789   3.840   4.393   2.181 -0.3935  0.2684  0.5989
  592MOL0     C79790   3.713   4.351   2.164 -0.4398  0.1570 -0.1101
  592MOL0     C79791   3.612   4.445   2.184 -0.6149  0.1327 -1.0216
  592MOL0     C79792   3.633   4.572   2.241 -0.1004  0.2599 -0.1374
  592MOL0     O79793   3.533   4.663   2.258 -0.5240 -0.6681 -0.2079
  592MOL0     C79794   3.408   4.614   2.323  0.6778  0.0351  0.8176
  592MOL0     C79795   3.291   4.707   2.275  1.0931  0.2826 -0.8663
  592MOL0     C79796   3.160   4.660   2.346  0.0156  0.0196  0.9015
  592MOL0     C79797   3.047   4.761   2.320  0.6086  0.2717  0.4223
  592MOL0     C79798   2.918   4.702   2.367  0.2277 -0.0871 -0.7988
  592MOL0     C79799   2.795   4.780   2.344  0.4953  0.3597  0.1900
  592MOL0     C79800   2.667   4.698   2.373  0.2338 -1.6179  0.5103
  592MOL0     C79801   2.551   4.798   2.387 -0.6786 -0.9774 -0.2347
  592MOL0     N79802   2.427   4.727   2.400  0.7518 -0.7273 -0.2295
  592MOL0     C79803   2.393   4.654   2.505  0.0423  0.1500  0.5389
  592MOL0     C79804   2.268   4.614   2.475 -0.7510 -0.0277  0.4476
  592MOL0     C79805   2.183   4.528   2.562  0.1735  0.8730  0.4450
  592MOL0     C79806   2.114   4.616   2.658  0.1526 -0.2882  0.0227
  592MOL0     C79807   2.001   4.698   2.585  0.0954 -0.2478 -0.4967
  592MOL0     C79808   1.905   4.782   2.670 -0.6812 -0.4050 -0.2698
  592MOL0     O79809   1.824   4.694   2.751  0.3952 -0.5140  0.7176
  592MOL0     C79810   1.688   4.686   2.722 -0.9494  0.8096  0.0655
  592MOL0     C79811   1.628   4.703   2.599  0.0101  0.3749 -0.2605
  592MOL0     C79812   1.488   4.692   2.581  0.4414 -0.1359  0.0173
  592MOL0     C79813   1.438   4.717   2.439 -0.5394 -0.1183 -0.0688
  592MOL0     C79814   1.408   4.644   2.688 -0.4011 -0.1030 -0.0087
  592MOL0     C79815   1.257   4.619   2.686 -0.7895  0.6807  0.0665
  592MOL0     O79816   1.193   4.614   2.805  0.3497  0.4415 -0.4881
  592MOL0     C79817   1.056   4.588   2.803 -0.0502 -0.6307  0.2858
  592MOL0     C79818   1.002   4.459   2.818 -0.2956  0.4161 -0.2434
  592MOL0     C79819   0.862   4.443   2.804  0.2405  0.2878 -0.4555
  592MOL0     C79820   0.780   4.559   2.781  0.1173 -0.5022 -0.3591
  592MOL0     O79821   0.642   4.554   2.756  0.0373  0.5103 -0.0940
  592MOL0     C79822   0.579   4.422   2.757  0.3563  0.6436  1.2955
  592MOL0     C79823   0.425   4.436   2.751  0.2289  0.8216  0.5009
  592MOL0     C79824   0.391   4.507   2.619  0.7237  0.4568 -0.3013
  592MOL0     C79825   0.361   4.413   2.503 -0.4860 -0.7401  1.0478
  592MOL0     C79826   0.329   4.495   2.380  0.4068 -0.3593  1.1396
  592MOL0     C79827   0.389   4.432   2.247  0.1254 -0.9637 -0.8302
  592MOL0     C79828   0.355   4.510   2.123  0.3796 -0.2872 -0.0282
  592MOL0     C79829   0.469   4.504   2.012 -0.5403 -0.0837  0.0006
  592MOL0    Cl79830   0.462   4.341   1.921 -0.1563  0.5320 -0.3463
  592MOL0     C79831   0.841   4.682   2.768  0.1533 -0.2110 -0.9592
  592MOL0     C79832   0.970   4.696   2.777  0.1195  0.1869  0.1322
  592MOL0     O79833   1.203   4.609   2.573  0.3575  0.0240 -0.2914
  592MOL0     C79834   1.470   4.616   2.809 -0.0942 -0.1266  0.1934
  592MOL0     C79835   1.610   4.639   2.826  0.0397 -0.5638  0.9968
  592MOL0     N79836   2.225   4.657   2.350 -0.7539  0.2827  0.0574
  592MOL0     N79837   2.329   4.722   2.300 -0.2413  0.7509  0.9353
  592MOL0     C79838   3.766   4.599   2.280  0.2457 -0.1612 -0.5438
  592MOL0     C79839   3.871   4.520   2.247 -0.0990  0.3426  0.3684
  592MOL0     C79840   4.147   4.274   2.020 -0.0873 -0.9918 -0.3769
  592MOL0     C79841   4.238   4.315   1.925  0.0585  0.2375 -0.0939
  592MOL0     C79842   4.352   4.244   1.898 -0.4861 -0.7047  0.0356
  592MOL0     C79843   4.383   4.125   1.952 -0.0263 -0.1010  0.1509
  592MOL0     O79844   4.502   4.056   1.914  0.0575  0.3639 -0.0171
  592MOL0     C79845   4.584   3.978   2.006 -0.0831 -0.3868 -0.3934
  592MOL0     C79846   4.640   4.040   2.129 -0.2068  0.0195 -0.0890
  592MOL0     C79847   4.741   3.949   2.194 -0.0946  0.1357 -0.1426
  592MOL0     C79848   4.804   4.008   2.320  0.1004 -0.4051 -0.3487
  592MOL0     C79849   4.714   4.074   2.413  0.5193  0.2775 -0.1830
  592MOL0     C79850   4.628   4.134   2.474 -0.4444  0.6608  0.2288
  592MOL0     C79851   4.294   4.076   2.041 -0.0805  0.1367 -0.3222
  592MOL0     C79852   4.177   4.152   2.081 -0.2051 -0.8183  0.0371
  592MOL0     H79853   3.688   4.250   2.132  0.4463 -0.4643  1.1080
  592MOL0     H79854   3.510   4.417   2.160 -1.2648  1.2244  0.3298
  592MOL0     H79855   3.380   4.514   2.289 -1.7737  1.1740 -0.7995
  592MOL0     H79856   3.415   4.618   2.432 -1.8111  2.6847  0.9984
  592MOL0     H79857   3.317   4.811   2.298  0.6523  0.0913  0.5787
  592MOL0     H79858   3.277   4.696   2.167 -0.2894  0.7828 -0.7568
  592MOL0     H79859   3.128   4.566   2.302  0.4107  1.9068 -4.1063
  592MOL0     H79860   3.177   4.652   2.453 -0.0996  0.5657  0.9656
  592MOL0     H79861   3.063   4.858   2.368  2.8114 -0.2405  0.8236
  592MOL0     H79862   3.039   4.785   2.214 -0.1385  4.4840  1.2656
  592MOL0     H79863   2.900   4.602   2.327 -0.8668  0.3621 -1.4794
  592MOL0     H79864   2.938   4.700   2.474  3.3223  2.3867 -1.1563
  592MOL0     H79865   2.795   4.865   2.413 -1.8833 -0.4980  1.3644
  592MOL0     H79866   2.789   4.824   2.244  0.0028  0.2765  0.1827
  592MOL0     H79867   2.664   4.629   2.289  4.3010  0.4306 -1.5967
  592MOL0     H79868   2.672   4.645   2.469 -1.5044  1.5438  2.5325
  592MOL0     H79869   2.544   4.858   2.296 -0.1607 -1.9677 -0.9531
  592MOL0     H79870   2.561   4.873   2.467  1.5938 -1.1712 -0.2693
  592MOL0     H79871   2.459   4.641   2.590  1.6868 -2.3227 -0.9822
  592MOL0     H79872   2.106   4.475   2.505 -0.2701 -2.1185  3.4791
  592MOL0     H79873   2.239   4.446   2.609  0.8122  1.1832  0.2340
  592MOL0     H79874   2.190   4.685   2.695  1.3581 -0.2387 -2.3439
  592MOL0     H79875   2.072   4.554   2.738  0.8024  0.4028  0.9267
  592MOL0     H79876   1.946   4.636   2.514 -0.3894  0.4492 -0.7377
  592MOL0     H79877   2.049   4.783   2.536 -0.1142  0.2317  0.1310
  592MOL0     H79878   1.842   4.851   2.614  0.6932  1.7510  0.7408
  592MOL0     H79879   1.964   4.847   2.735 -0.0527 -1.2708  0.0509
  592MOL0     H79880   1.689   4.717   2.511  0.7048  0.6590  0.2605
  592MOL0     H79881   1.375   4.634   2.408 -2.3661  0.9110  0.7081
  592MOL0     H79882   1.392   4.815   2.424 -0.7153 -0.1689  0.1351
  592MOL0     H79883   1.522   4.701   2.370 -2.0552  2.7900 -2.8573
  592MOL0     H79884   1.064   4.370   2.822 -2.1132 -0.8357  2.8569
  592MOL0     H79885   0.822   4.343   2.817 -1.5151  1.2804  3.1697
  592MOL0     H79886   0.603   4.355   2.674 -0.3509  1.7259  0.1866
  592MOL0     H79887   0.602   4.372   2.852  2.6468 -1.5265 -0.2711
  592MOL0     H79888   0.388   4.334   2.758  3.4616 -0.4307  1.2114
  592MOL0     H79889   0.392   4.498   2.835  0.9787  1.8665  0.0593
  592MOL0     H79890   0.477   4.572   2.596  1.5528 -0.1463  0.9566
  592MOL0     H79891   0.312   4.579   2.640  0.3399 -0.2805  0.8568
  592MOL0     H79892   0.459   4.366   2.490  0.7426  1.3191  2.1736
  592MOL0     H79893   0.287   4.335   2.525  0.3345 -0.5857  4.8999
  592MOL0     H79894   0.362   4.599   2.393  3.2237 -1.2633  2.0274
  592MOL0     H79895   0.221   4.509   2.376  0.5333  0.3796 -1.5363
  592MOL0     H79896   0.497   4.423   2.266 -0.3928 -2.2979  1.9943
  592MOL0     H79897   0.343   4.334   2.234 -2.7220  0.2362 -0.4241
  592MOL0     H79898   0.347   4.617   2.144 -0.4878  0.5420 -3.9145
  592MOL0     H79899   0.256   4.481   2.085 -0.2652 -0.5115  1.7349
  592MOL0     H79900   0.564   4.508   2.066 -0.7686 -0.8559  0.4706
  592MOL0     H79901   0.466   4.591   1.945  0.7223  0.0506  0.0909
  592MOL0     H79902   0.783   4.773   2.757  0.5043  0.0428 -0.7225
  592MOL0     H79903   1.004   4.794   2.748  1.6203 -0.2601  0.3079
  592MOL0     H79904   1.411   4.597   2.899  0.7870 -0.7012  0.6589
  592MOL0     H79905   1.648   4.620   2.926  1.9028  1.2071  0.6874
  592MOL0     H79906   3.780   4.698   2.322 -2.5846  0.8051 -1.6412
  592MOL0     H79907   3.973   4.554   2.261 -0.6608  2.1575  0.2302
  592MOL0     H79908   4.221   4.415   1.887  0.5134  0.6476  0.7398
  592MOL0     H79909   4.428   4.286   1.832  2.5102 -2.8709  1.8499
  592MOL0     H79910   4.525   3.892   2.038  1.6122 -1.9777 -1.4078
  592MOL0     H79911   4.658   3.939   1.936  0.1881  1.1891 -1.0400
  592MOL0     H79912   4.555   4.061   2.196 -1.6296 -1.7891 -1.2360
  592MOL0     H79913   4.689   4.136   2.108 -0.4277 -0.0250 -0.8279
  592MOL0     H79914   4.816   3.945   2.115 -1.3002 -1.0025 -1.2615
  592MOL0     H79915   4.686   3.855   2.201 -1.3736  0.3824 -4.1909
  592MOL0     H79916   4.884   4.076   2.290 -0.7003  0.7740  0.1072
  592MOL0     H79917   4.848   3.927   2.379  2.8751  1.3158  0.1033
  592MOL0     H79918   4.554   4.190   2.529 -0.6379  0.7934 -0.1651
  592MOL0     H79919   4.300   3.974   2.078  0.2441  0.1074 -0.4540
  592MOL0     H79920   4.107   4.099   2.145  1.1140 -2.9709 -0.2160
  593MOL0     O79921   9.501   6.336   9.203  0.2473  0.0811 -0.2224
  593MOL0     C79922   9.566   6.389   9.116  0.2410  0.0059  1.0977
  593MOL0     O79923   9.515   6.442   8.997  0.1601 -0.2131  0.4966
  593MOL0     C79924   9.385   6.421   8.968 -0.3459  0.3030 -0.3253
  593MOL0     C79925   9.280   6.451   9.064  0.5300 -0.3200 -0.3683
  593MOL0     C79926   9.143   6.444   9.017 -0.2857  0.1424  0.0858
  593MOL0     C79927   9.114   6.402   8.887  0.4150 -0.1851  0.6047
  593MOL0     O79928   8.988   6.385   8.847 -0.7172 -0.3718  0.0205
  593MOL0     C79929   8.930   6.515   8.836  0.5747 -0.9045 -0.3311
  593MOL0     C79930   8.803   6.508   8.751 -0.5876  0.1163  0.2676
  593MOL0     C79931   8.739   6.644   8.724  0.4956 -0.3151  0.6051
  593MOL0     C79932   8.649   6.637   8.597 -0.1183  0.4055 -0.2804
  593MOL0     C79933   8.513   6.593   8.638  0.1723  0.4712  0.0436
  593MOL0     C79934   8.432   6.586   8.515  0.8090  0.1280  0.0106
  593MOL0     C79935   8.297   6.509   8.534 -0.2852 -0.4787  0.7286
  593MOL0     C79936   8.190   6.602   8.596  0.1155 -0.2655 -0.2470
  593MOL0     N79937   8.058   6.561   8.543 -0.3767  0.0985 -0.1016
  593MOL0     C79938   8.017   6.579   8.417 -0.0771  0.1948 -0.3652
  593MOL0     C79939   7.892   6.520   8.413  0.3405 -0.1813 -0.0279
  593MOL0     C79940   7.803   6.516   8.291 -0.6170  0.4725 -1.0930
  593MOL0     C79941   7.697   6.623   8.303  0.3064 -0.0970 -0.8526
  593MOL0     C79942   7.558   6.589   8.352 -0.0119 -0.2344  0.3206
  593MOL0     C79943   7.493   6.511   8.241 -0.2510  0.0602 -0.7811
  593MOL0     O79944   7.351   6.476   8.280 -0.1698 -0.5840  0.7346
  593MOL0     C79945   7.267   6.413   8.186 -0.5775 -0.2348 -0.8347
  593MOL0     C79946   7.291   6.395   8.049  0.6014  0.2334 -0.6105
  593MOL0     C79947   7.195   6.342   7.964  0.4156  0.1004  0.3215
  593MOL0     C79948   7.247   6.324   7.825  0.4656  0.3044 -0.4069
  593MOL0     C79949   7.061   6.317   8.011 -0.6370 -0.1431 -0.2173
  593MOL0     C79950   6.949   6.268   7.924  0.5191 -0.8095 -1.1119
  593MOL0     O79951   6.992   6.214   7.800 -0.2191  0.0874 -0.9430
  593MOL0     C79952   6.899   6.184   7.716  0.9022  0.6251  0.3271
  593MOL0     C79953   6.788   6.094   7.737 -0.3619  0.0096  0.5778
  593MOL0     C79954   6.699   6.062   7.629 -0.1116  0.2495 -0.1967
  593MOL0     C79955   6.725   6.115   7.506  0.6414  0.4838 -0.3042
  593MOL0     O79956   6.636   6.066   7.414 -0.4916 -0.6534  0.3087
  593MOL0     C79957   6.566   6.166   7.349 -0.3291  0.4163 -0.0739
  593MOL0     C79958   6.455   6.111   7.257 -0.2539  0.2819  0.9112
  593MOL0     C79959   6.355   6.220   7.217 -0.7673  0.2324 -0.4448
  593MOL0     C79960   6.286   6.191   7.079  0.0386  0.5743  0.2889
  593MOL0     C79961   6.186   6.298   7.037  0.4197  0.0628 -0.1052
  593MOL0     C79962   6.117   6.247   6.909  0.4320  0.0683  0.0791
  593MOL0     C79963   6.035   6.369   6.859 -0.1686 -0.3432  0.7089
  593MOL0     C79964   5.961   6.337   6.733  0.0696  0.5207 -0.5558
  593MOL0    Cl79965   6.053   6.307   6.588  0.2670 -0.0894  0.0963
  593MOL0     C79966   6.841   6.187   7.479 -1.6456 -0.2678  0.2105
  593MOL0     C79967   6.918   6.224   7.585 -0.5667 -0.3783  0.6766
  593MOL0     O79968   6.834   6.268   7.973 -0.9096  0.0215 -0.3199
  593MOL0     C79969   7.035   6.349   8.148 -0.5000 -1.1552  0.0803
  593MOL0     C79970   7.134   6.393   8.238 -0.4376 -0.1554  0.2095
  593MOL0     N79971   7.866   6.463   8.532  0.7024  0.3636 -0.7833
  593MOL0     N79972   7.973   6.477   8.609 -0.3321 -0.8669 -1.0781
  593MOL0     C79973   9.221   6.369   8.800 -0.5603  0.1299 -0.2649
  593MOL0     C79974   9.351   6.386   8.836 -1.0282  0.8521 -1.0565
  593MOL0     C79975   9.713   6.400   9.137  0.0246  0.3934  0.5744
  593MOL0     C79976   9.795   6.457   9.035  0.1119  0.3697 -0.0833
  593MOL0     C79977   9.930   6.462   9.054 -0.2315  1.1651 -0.7552
  593MOL0     C79978   9.985   6.415   9.178 -0.5285  0.7100  0.4324
  593MOL0     O79979  10.115   6.436   9.208 -0.4016  0.9696 -0.3102
  593MOL0     C79980  10.195   6.534   9.138 -0.0124 -0.1441  0.0566
  593MOL0     C79981  10.329   6.516   9.206 -1.0782  0.1285 -0.2482
  593MOL0     C79982  10.434   6.628   9.188  0.3903  0.0278  0.1992
  593MOL0     C79983  10.552   6.604   9.281 -0.2898 -0.1750 -0.4434
  593MOL0     C79984  10.526   6.629   9.424  0.1650  0.4870 -0.3196
  593MOL0     C79985  10.501   6.647   9.546 -1.0991 -0.3293 -0.2523
  593MOL0     C79986   9.904   6.359   9.278 -0.1746  0.4698  0.4515
  593MOL0     C79987   9.768   6.346   9.251 -0.0792 -0.3991  0.1505
  593MOL0     H79988   9.302   6.480   9.166 -1.0875 -1.5104  0.3538
  593MOL0     H79989   9.063   6.471   9.084  0.8567  0.2145  1.4624
  593MOL0     H79990   8.906   6.539   8.940 -1.1299 -2.3341 -0.3394
  593MOL0     H79991   9.008   6.586   8.805  1.2800 -1.0383  1.0528
  593MOL0     H79992   8.830   6.459   8.656  2.6138  0.4489  0.9149
  593MOL0     H79993   8.732   6.432   8.785 -0.2225 -0.5614 -0.4350
  593MOL0     H79994   8.687   6.679   8.814  0.4855  1.5187 -0.0733
  593MOL0     H79995   8.818   6.714   8.697 -0.1747 -0.0512 -0.6987
  593MOL0     H79996   8.641   6.740   8.560 -1.2038  0.5795  0.3861
  593MOL0     H79997   8.701   6.581   8.518 -0.4880 -0.6196  0.1786
  593MOL0     H79998   8.517   6.490   8.676 -0.7899 -0.0761 -1.2527
  593MOL0     H79999   8.465   6.654   8.715  3.6395  0.9490  2.0244
  593MOL0     H80000   8.416   6.690   8.485 -1.2199 -0.2295 -0.2441
  593MOL0     H80001   8.488   6.536   8.435  1.4666 -1.1721  1.2326
  593MOL0     H80002   8.261   6.466   8.441 -0.6712 -1.3477  1.2664
  593MOL0     H80003   8.304   6.416   8.591  2.8532 -2.8679 -3.1038
  593MOL0     H80004   8.202   6.707   8.570 -1.7205  0.2250  0.6705
  593MOL0     H80005   8.196   6.608   8.706 -0.2259  0.2965 -0.2555
  593MOL0     H80006   8.071   6.629   8.337  0.0168  1.4510  0.4456
  593MOL0     H80007   7.868   6.535   8.205  1.1113 -1.8299 -0.3869
  593MOL0     H80008   7.756   6.418   8.289 -0.9157  0.5786  0.3413
  593MOL0     H80009   7.688   6.670   8.205  2.7543 -0.0955 -1.1510
  593MOL0     H80010   7.739   6.700   8.368 -2.4898  1.9466 -1.2912
  593MOL0     H80011   7.504   6.684   8.363  0.6782  0.5007 -1.9222
  593MOL0     H80012   7.568   6.531   8.444  0.1586 -0.3724  0.2148
  593MOL0     H80013   7.545   6.417   8.224 -0.1117 -0.0200  0.0283
  593MOL0     H80014   7.490   6.577   8.154  1.0391 -1.7919 -2.3145
  593MOL0     H80015   7.388   6.420   8.009  1.3825  0.0630  1.1011
  593MOL0     H80016   7.335   6.383   7.796 -0.5373  1.8885 -0.3834
  593MOL0     H80017   7.264   6.217   7.814 -2.0350 -0.3206  1.0253
  593MOL0     H80018   7.179   6.356   7.746 -0.3845 -3.3646 -1.3301
  593MOL0     H80019   6.747   6.058   7.831 -2.1063 -1.9188 -0.8206
  593MOL0     H80020   6.612   6.003   7.656  0.0466 -1.2986 -2.6939
  593MOL0     H80021   6.509   6.217   7.427  0.6546  4.3376 -1.7071
  593MOL0     H80022   6.632   6.241   7.305 -0.1914  1.6342  2.0694
  593MOL0     H80023   6.506   6.071   7.169 -0.7533  0.1712  0.6734
  593MOL0     H80024   6.400   6.033   7.309 -0.8877 -0.6854 -1.1155
  593MOL0     H80025   6.404   6.316   7.197 -1.8502  0.4636 -2.1689
  593MOL0     H80026   6.277   6.229   7.294 -2.5589  1.5119 -2.2980
  593MOL0     H80027   6.366   6.193   7.005 -0.2865 -1.3035 -0.1581
  593MOL0     H80028   6.238   6.093   7.080 -0.0328  0.5007  3.9636
  593MOL0     H80029   6.225   6.396   7.007 -1.4448  1.6289  2.1809
  593MOL0     H80030   6.107   6.317   7.110 -0.8547 -3.0672 -0.5238
  593MOL0     H80031   6.193   6.219   6.834  0.9039  0.2247  0.4928
  593MOL0     H80032   6.055   6.160   6.932  2.3504 -1.3278  0.2254
  593MOL0     H80033   6.099   6.454   6.834 -0.3151 -0.5483 -0.4263
  593MOL0     H80034   5.963   6.401   6.933 -2.1550 -3.2897  0.2431
  593MOL0     H80035   5.897   6.423   6.710  2.5506  2.1009 -2.0024
  593MOL0     H80036   5.898   6.252   6.759  0.8899  0.3037  0.8195
  593MOL0     H80037   6.880   6.211   7.380 -0.5742  0.5644  0.8218
  593MOL0     H80038   7.011   6.273   7.558 -0.5329 -1.1957 -0.8024
  593MOL0     H80039   6.944   6.329   8.203 -1.0361 -0.9903 -0.7386
  593MOL0     H80040   7.114   6.423   8.340  0.1582  0.5779  0.1218
  593MOL0     H80041   9.197   6.327   8.703 -0.4322 -1.6453  0.4387
  593MOL0     H80042   9.434   6.367   8.769 -0.2455 -0.2026  0.1782
  593MOL0     H80043   9.748   6.485   8.942 -3.4219 -2.5866  0.5676
  593MOL0     H80044   9.984   6.503   8.969  1.2214  0.1249 -0.3724
  593MOL0     H80045  10.195   6.519   9.030 -0.3976  0.6639 -0.0617
  593MOL0     H80046  10.158   6.636   9.150  1.1429  0.1210  1.6952
  593MOL0     H80047  10.369   6.422   9.167 -0.6856 -0.0959  0.6761
  593MOL0     H80048  10.300   6.491   9.309  0.0255  0.2743  0.1085
  593MOL0     H80049  10.378   6.717   9.219  1.8477  1.0490 -0.0331
  593MOL0     H80050  10.468   6.636   9.084  0.9226  0.1149  0.3795
  593MOL0     H80051  10.637   6.663   9.245 -2.0379  0.3586 -4.1139
  593MOL0     H80052  10.583   6.500   9.272 -2.2099 -0.9094  1.0088
  593MOL0     H80053  10.482   6.669   9.649 -0.1851  0.9919 -0.3394
  593MOL0     H80054   9.956   6.333   9.370 -0.2502 -0.1779  0.3173
  593MOL0     H80055   9.704   6.301   9.326  2.1773  0.0418  2.4662
  594MOL0     O80056   7.900   4.299  10.398 -0.1401  0.1860 -0.3672
  594MOL0     C80057   7.934   4.413  10.375  0.3203  0.1708 -0.3695
  594MOL0     O80058   7.850   4.520  10.391 -0.4417  0.3689 -0.0363
  594MOL0     C80059   7.718   4.534  10.423 -0.0283 -0.5578 -0.1856
  594MOL0     C80060   7.624   4.428  10.444 -1.0325 -0.1373 -0.3321
  594MOL0     C80061   7.494   4.442  10.469  0.8378 -0.0768 -0.0571
  594MOL0     C80062   7.439   4.571  10.470  0.0163  0.1238  0.0283
  594MOL0     O80063   7.316   4.610  10.495  0.3335 -0.3852  0.0182
  594MOL0     C80064   7.214   4.515  10.500 -0.0887  1.1153 -0.0916
  594MOL0     C80065   7.089   4.591  10.541 -0.3089 -1.1319 -0.5209
  594MOL0     C80066   7.035   4.687  10.434  0.0201 -0.1666 -0.0713
  594MOL0     C80067   6.900   4.754  10.474 -0.0027  1.1738  0.8057
  594MOL0     C80068   6.844   4.832  10.360 -0.1522  0.3508 -0.3076
  594MOL0     C80069   6.708   4.886  10.393  0.5481  0.3547  0.2241
  594MOL0     C80070   6.709   4.998  10.500 -0.6455 -0.7209  0.3237
  594MOL0     C80071   6.572   5.075  10.513 -0.3548  0.0583 -0.2074
  594MOL0     N80072   6.452   4.982  10.517  0.5537 -0.5698  0.3599
  594MOL0     C80073   6.393   4.909  10.616  0.0723  0.2244  0.2241
  594MOL0     C80074   6.310   4.831  10.553 -0.5387  0.9436 -0.1279
  594MOL0     C80075   6.205   4.741  10.612  0.0331 -0.7582 -0.2320
  594MOL0     C80076   6.076   4.803  10.559 -0.5468 -0.4028 -0.5101
  594MOL0     C80077   5.949   4.730  10.610  0.1623 -0.4368 -0.2451
  594MOL0     C80078   5.826   4.800  10.566  0.3451 -0.4541  0.7266
  594MOL0     O80079   5.706   4.768  10.636  0.4341  0.2380 -0.7217
  594MOL0     C80080   5.592   4.813  10.581 -1.1249  0.1889  0.1693
  594MOL0     C80081   5.481   4.768  10.645 -0.0259 -0.2634 -0.9729
  594MOL0     C80082   5.345   4.812  10.622  0.3126 -0.9103  0.0252
  594MOL0     C80083   5.245   4.760  10.722 -0.4404 -0.0565 -0.2785
  594MOL0     C80084   5.329   4.902  10.512 -0.2494 -0.1896  0.2680
  594MOL0     C80085   5.199   4.957  10.471  0.0371  0.1029  0.5591
  594MOL0     O80086   5.204   5.074  10.403  0.5091  0.3401  0.0732
  594MOL0     C80087   5.083   5.118  10.371  0.2419  1.1218 -0.1425
  594MOL0     C80088   5.035   5.213  10.456 -0.1154 -0.0053 -0.4025
  594MOL0     C80089   4.909   5.268  10.437 -0.1300  0.5996  0.9312
  594MOL0     C80090   4.843   5.243  10.310 -1.0865  0.4251  0.9858
  594MOL0     O80091   4.724   5.307  10.296  0.1403 -0.4251 -0.0951
  594MOL0     C80092   4.633   5.249  10.214  0.1893  0.9739  0.1365
  594MOL0     C80093   4.500   5.317  10.242 -0.4592  0.2983  0.9679
  594MOL0     C80094   4.414   5.320  10.106  0.2563  0.0450  0.3642
  594MOL0     C80095   4.347   5.186  10.076  0.9233  0.5450  0.0627
  594MOL0     C80096   4.316   5.159   9.923  0.1809 -0.4130 -0.4200
  594MOL0     C80097   4.251   5.020   9.889 -0.1987  0.0528 -0.5096
  594MOL0     C80098   4.104   5.014   9.937  0.1772  0.1819  0.0027
  594MOL0     C80099   4.025   4.901   9.873 -0.1155 -0.8377  0.3312
  594MOL0    Cl80100   3.862   4.894   9.954  0.0818  0.0624  0.0305
  594MOL0     C80101   4.900   5.148  10.224  1.1824  0.0126 -0.7730
  594MOL0     C80102   5.024   5.090  10.249 -0.2735  1.3134 -0.0381
  594MOL0     O80103   5.092   4.900  10.503 -0.4593 -0.0799  0.4264
  594MOL0     C80104   5.448   4.947  10.446  0.8978 -0.8508  0.7204
  594MOL0     C80105   5.578   4.912  10.482 -0.8526  0.4943 -0.3592
  594MOL0     N80106   6.322   4.850  10.420 -0.7701 -0.5264 -0.1711
  594MOL0     N80107   6.404   4.945  10.395 -0.2064 -0.2774 -0.0840
  594MOL0     C80108   7.519   4.681  10.450  0.3784 -0.2686  0.2002
  594MOL0     C80109   7.653   4.663  10.415 -1.1474  0.0362  0.0887
  594MOL0     C80110   8.073   4.435  10.314  1.0293 -0.0129  0.4563
  594MOL0     C80111   8.086   4.529  10.207 -0.6019  0.7669 -0.6035
  594MOL0     C80112   8.216   4.561  10.175  0.8393 -0.2495  0.1688
  594MOL0     C80113   8.328   4.507  10.230  0.2279 -0.7739 -0.6210
  594MOL0     O80114   8.452   4.560  10.187  0.1105  0.0486 -0.0534
  594MOL0     C80115   8.528   4.622  10.294  0.6463 -0.1557 -0.5307
  594MOL0     C80116   8.650   4.682  10.228  0.0839 -0.2037  0.5452
  594MOL0     C80117   8.772   4.662  10.326  0.0621  0.1074 -0.1430
  594MOL0     C80118   8.899   4.733  10.268  0.3506  0.1511  0.2284
  594MOL0     C80119   8.925   4.677  10.128  0.1873  0.4758  0.3227
  594MOL0     C80120   8.950   4.625  10.021  0.3761 -0.1798  0.4586
  594MOL0     C80121   8.314   4.405  10.330 -0.3220  0.5378  0.3291
  594MOL0     C80122   8.183   4.365  10.358 -0.7719  0.4375  0.0445
  594MOL0     H80123   7.661   4.328  10.424  0.9324  0.8721 -2.1949
  594MOL0     H80124   7.427   4.357  10.482 -3.3236  2.8658 -0.2473
  594MOL0     H80125   7.207   4.453  10.410  0.7234  1.4617 -0.3948
  594MOL0     H80126   7.242   4.441  10.576 -1.2954 -0.4213 -1.0751
  594MOL0     H80127   7.009   4.518  10.557 -1.2898 -0.1969 -1.0013
  594MOL0     H80128   7.105   4.645  10.634 -1.0480 -1.8275  0.0323
  594MOL0     H80129   7.109   4.766  10.420  1.1306 -0.8807  1.3900
  594MOL0     H80130   7.010   4.635  10.341 -4.4585 -2.3183  2.0031
  594MOL0     H80131   6.828   4.681  10.510  1.6914 -1.6594 -1.1363
  594MOL0     H80132   6.906   4.821  10.560 -1.2369  3.0601 -0.5095
  594MOL0     H80133   6.900   4.918  10.321 -3.3818  1.5223 -2.8082
  594MOL0     H80134   6.828   4.765  10.275 -0.9502 -0.0896  0.1776
  594MOL0     H80135   6.652   4.926  10.308 -2.0915 -2.7311  0.2949
  594MOL0     H80136   6.647   4.807  10.439 -0.7310  1.2685  0.1601
  594MOL0     H80137   6.749   4.969  10.597  3.0995  1.8847 -0.2385
  594MOL0     H80138   6.779   5.077  10.472 -0.6368 -1.3106 -1.4587
  594MOL0     H80139   6.557   5.151  10.436 -0.4683  0.3892  0.1438
  594MOL0     H80140   6.572   5.136  10.603  0.5284  0.9448 -0.8002
  594MOL0     H80141   6.397   4.921  10.723 -2.5861 -0.2291  0.4338
  594MOL0     H80142   6.226   4.640  10.574  2.5627 -0.3345 -0.1363
  594MOL0     H80143   6.202   4.741  10.721  3.3333 -1.1172 -0.0359
  594MOL0     H80144   6.081   4.790  10.451  0.4325 -0.8874 -0.4131
  594MOL0     H80145   6.071   4.909  10.584 -2.9305 -1.0197  2.1588
  594MOL0     H80146   5.948   4.752  10.717  0.2957  0.9347 -0.5107
  594MOL0     H80147   5.944   4.625  10.578  2.3161 -0.6839  0.0796
  594MOL0     H80148   5.804   4.762  10.466 -1.8688 -1.8420  1.6640
  594MOL0     H80149   5.843   4.908  10.573  0.8972 -0.5330  0.6783
  594MOL0     H80150   5.491   4.692  10.723  1.8987 -0.4849 -1.4058
  594MOL0     H80151   5.208   4.668  10.677  1.5008 -0.5171 -1.0257
  594MOL0     H80152   5.289   4.738  10.820 -2.2469  0.1177  0.6286
  594MOL0     H80153   5.161   4.828  10.741  0.2725  0.8489 -0.2693
  594MOL0     H80154   5.084   5.234  10.551 -0.4266 -1.1327  0.0294
  594MOL0     H80155   4.864   5.337  10.507 -0.4483  0.7165  0.6138
  594MOL0     H80156   4.663   5.259  10.109 -0.5933  0.5919 -0.1310
  594MOL0     H80157   4.628   5.142  10.235  3.3974  0.7715  0.3062
  594MOL0     H80158   4.448   5.261  10.321 -0.7531  1.5030  1.6420
  594MOL0     H80159   4.523   5.418  10.275  0.2437  0.0013  1.4188
  594MOL0     H80160   4.476   5.340  10.018 -0.2373  0.7733  0.1705
  594MOL0     H80161   4.334   5.394  10.117 -0.5792 -0.8346  0.3701
  594MOL0     H80162   4.405   5.100  10.109  0.1828  0.3861  1.0173
  594MOL0     H80163   4.252   5.185  10.130  0.1134  6.6980 -0.5101
  594MOL0     H80164   4.406   5.168   9.861  1.1647  0.1512  1.0244
  594MOL0     H80165   4.255   5.246   9.897 -0.1811 -0.6390 -0.3350
  594MOL0     H80166   4.247   5.024   9.780 -0.0947 -0.8906 -0.5576
  594MOL0     H80167   4.316   4.936   9.916 -2.1712 -0.2634  4.3398
  594MOL0     H80168   4.051   5.105   9.909 -2.6576 -0.8734  1.5561
  594MOL0     H80169   4.105   5.003  10.046 -0.4965 -0.9811 -0.0962
  594MOL0     H80170   4.072   4.807   9.904  1.0890  1.1711  5.5987
  594MOL0     H80171   4.015   4.903   9.764 -0.6312 -1.8942  0.3436
  594MOL0     H80172   4.853   5.125  10.129  0.5755 -0.2345 -0.4193
  594MOL0     H80173   5.073   5.032  10.171 -1.2752  1.8960 -1.1256
  594MOL0     H80174   5.446   5.012  10.359 -0.5848 -1.0297  0.5958
  594MOL0     H80175   5.649   4.980  10.435 -0.9424  0.4870 -0.5072
  594MOL0     H80176   7.467   4.777  10.447 -2.4585 -1.6860  0.8716
  594MOL0     H80177   7.715   4.748  10.389 -0.1804 -0.4219  0.8333
  594MOL0     H80178   7.996   4.573  10.165 -3.0658 -1.0775  2.2875
  594MOL0     H80179   8.232   4.653  10.118 -0.5068  0.9406  1.6284
  594MOL0     H80180   8.470   4.703  10.339  1.5922  0.8785 -1.1225
  594MOL0     H80181   8.556   4.553  10.374  3.1415  1.2533 -0.0848
  594MOL0     H80182   8.636   4.790  10.217  1.3458  0.0883  1.4761
  594MOL0     H80183   8.663   4.640  10.128 -4.1605 -0.8260  0.0650
  594MOL0     H80184   8.790   4.556  10.347  0.4733 -0.1429 -1.6697
  594MOL0     H80185   8.746   4.711  10.420  0.5828 -0.3349  0.2389
  594MOL0     H80186   8.977   4.703  10.339 -0.3532 -1.2295  0.4686
  594MOL0     H80187   8.882   4.841  10.266  1.3300  0.3300  1.0116
  594MOL0     H80188   8.986   4.588   9.928 -2.5601 -2.9249  0.2358
  594MOL0     H80189   8.405   4.356  10.362 -2.4233 -4.1138  0.0529
  594MOL0     H80190   8.158   4.278  10.418  1.0234  1.7053  2.8307
  595MOL0     O80191   4.896   1.321   6.449  0.0543  0.1408 -0.1127
  595MOL0     C80192   4.796   1.386   6.415 -0.7056 -0.2332 -0.1187
  595MOL0     O80193   4.683   1.417   6.494 -0.4091  0.7263 -0.7126
  595MOL0     C80194   4.668   1.375   6.628 -0.3100  0.5168  0.5697
  595MOL0     C80195   4.532   1.354   6.659  0.5096 -0.0961 -0.2479
  595MOL0     C80196   4.493   1.319   6.789 -0.0008 -0.1777  0.0944
  595MOL0     C80197   4.595   1.303   6.886 -0.3700  0.0262  0.1651
  595MOL0     O80198   4.567   1.267   7.016 -0.3550  0.4990 -0.2862
  595MOL0     C80199   4.440   1.215   7.057 -0.9407 -0.0254  0.2200
  595MOL0     C80200   4.442   1.168   7.198  0.8140 -0.6592  0.3744
  595MOL0     C80201   4.310   1.091   7.232 -0.0327 -0.2229 -0.9567
  595MOL0     C80202   4.187   1.175   7.266 -0.4125  0.1128  0.0976
  595MOL0     C80203   4.061   1.089   7.258  0.5198 -0.4426  0.5305
  595MOL0     C80204   3.935   1.166   7.287 -0.2854  0.6600  0.3126
  595MOL0     C80205   3.809   1.079   7.305  0.3578 -0.3459 -0.5175
  595MOL0     C80206   3.683   1.149   7.364  0.5598  0.0025  0.0817
  595MOL0     N80207   3.660   1.122   7.503 -0.5953 -0.0860 -0.2592
  595MOL0     C80208   3.743   1.143   7.611  0.6361  0.0534 -0.6948
  595MOL0     C80209   3.673   1.107   7.725 -0.8375  0.9360 -0.2185
  595MOL0     C80210   3.718   1.142   7.860 -1.1141  0.6174 -0.5573
  595MOL0     C80211   3.607   1.232   7.922  0.1242 -0.2679  0.8727
  595MOL0     C80212   3.661   1.267   8.059 -0.7451  0.1977 -0.2693
  595MOL0     C80213   3.549   1.338   8.139  0.8670  0.2293  0.2867
  595MOL0     O80214   3.472   1.240   8.207 -0.3661 -0.3636 -0.4203
  595MOL0     C80215   3.341   1.272   8.245 -0.2439  0.2182 -0.0942
  595MOL0     C80216   3.245   1.166   8.254  0.6856 -0.0595  0.6120
  595MOL0     C80217   3.106   1.190   8.276 -0.2074  0.2632 -0.2275
  595MOL0     C80218   3.014   1.068   8.278  0.0905  0.3869 -0.5744
  595MOL0     C80219   3.065   1.326   8.296 -0.1566  0.2597 -0.5984
  595MOL0     C80220   2.918   1.373   8.316 -0.4923 -0.1341 -0.0918
  595MOL0     O80221   2.895   1.497   8.363  0.3368  0.1452 -0.0220
  595MOL0     C80222   2.765   1.540   8.363 -0.3539 -0.4749  1.1950
  595MOL0     C80223   2.706   1.593   8.242  0.0295 -0.1758  0.0978
  595MOL0     C80224   2.581   1.641   8.247  0.5727  0.3510 -0.0327
  595MOL0     C80225   2.496   1.644   8.364 -0.9257 -0.4559 -0.3093
  595MOL0     O80226   2.364   1.690   8.362 -0.2942  0.1380 -0.0515
  595MOL0     C80227   2.303   1.729   8.240  0.6511  0.6022  0.3765
  595MOL0     C80228   2.169   1.794   8.260 -0.5346 -0.0574  0.1376
  595MOL0     C80229   2.059   1.694   8.280 -0.3456  0.2803 -0.1659
  595MOL0     C80230   1.932   1.777   8.282 -0.5103  0.0535  0.1978
  595MOL0     C80231   1.802   1.693   8.321 -0.2201  0.7484 -0.0896
  595MOL0     C80232   1.747   1.594   8.219 -0.1453  0.1390  0.0422
  595MOL0     C80233   1.607   1.546   8.255 -0.3517 -0.6372 -0.4042
  595MOL0     C80234   1.599   1.471   8.390 -0.1172  0.2089  0.1582
  595MOL0    Cl80235   1.659   1.300   8.361  0.3658 -0.2639  0.1442
  595MOL0     C80236   2.551   1.581   8.486 -0.3601  0.3622  0.2234
  595MOL0     C80237   2.688   1.534   8.481  0.3697  0.1447  0.2137
  595MOL0     O80238   2.826   1.293   8.288 -0.6975  0.2400  0.0324
  595MOL0     C80239   3.162   1.431   8.303 -0.0430 -0.1938  0.2696
  595MOL0     C80240   3.295   1.404   8.270  0.1992  0.6268 -0.7574
  595MOL0     N80241   3.556   1.062   7.677 -0.8325 -0.4640  0.2424
  595MOL0     N80242   3.537   1.075   7.548 -0.2270  0.3815 -0.2886
  595MOL0     C80243   4.728   1.310   6.852 -0.2881 -0.3480  0.7301
  595MOL0     C80244   4.767   1.341   6.726 -0.0178  0.5589  0.3705
  595MOL0     C80245   4.776   1.423   6.278  0.0866  0.3460 -0.4051
  595MOL0     C80246   4.878   1.422   6.187 -0.6260  0.1151 -0.2828
  595MOL0     C80247   4.867   1.462   6.052 -0.0574  0.2743  0.1892
  595MOL0     C80248   4.742   1.499   6.005  0.8667  0.0128 -0.3190
  595MOL0     O80249   4.719   1.549   5.878 -0.2274  0.5417 -0.4867
  595MOL0     C80250   4.804   1.511   5.770  0.4748  0.5312 -0.9350
  595MOL0     C80251   4.732   1.542   5.639 -0.1922  0.6661 -0.5131
  595MOL0     C80252   4.639   1.428   5.604  0.2542  0.4247 -0.3950
  595MOL0     C80253   4.562   1.448   5.477 -0.8016  0.1661  0.1047
  595MOL0     C80254   4.431   1.375   5.484 -0.4798 -0.1264  0.3060
  595MOL0     C80255   4.323   1.325   5.492  0.2048  0.1350 -1.1231
  595MOL0     C80256   4.633   1.488   6.089  0.4613  0.1776 -0.0637
  595MOL0     C80257   4.644   1.446   6.226 -0.0844 -0.6263  0.4266
  595MOL0     H80258   4.444   1.368   6.596 -0.4870 -0.6515  0.9633
  595MOL0     H80259   4.389   1.305   6.814  0.6142 -1.6228  2.2576
  595MOL0     H80260   4.378   1.304   7.042  0.1322  0.1872 -4.7372
  595MOL0     H80261   4.398   1.135   6.996 -2.9519 -1.3237  3.1001
  595MOL0     H80262   4.526   1.098   7.194 -0.7798 -2.6091 -2.4997
  595MOL0     H80263   4.459   1.252   7.266  2.6665 -1.3053  0.7643
  595MOL0     H80264   4.283   1.032   7.144 -0.1890 -0.5476 -0.6930
  595MOL0     H80265   4.319   1.016   7.312 -0.8751  0.7450  0.0776
  595MOL0     H80266   4.188   1.209   7.370 -0.4337 -0.8736  0.4301
  595MOL0     H80267   4.183   1.261   7.199  0.7572 -1.9866 -2.9233
  595MOL0     H80268   4.056   1.043   7.159  1.0641 -1.1133  0.8036
  595MOL0     H80269   4.065   1.006   7.330 -0.5985 -1.1751 -0.2214
  595MOL0     H80270   3.951   1.221   7.379 -0.0497  3.4221 -1.2807
  595MOL0     H80271   3.922   1.240   7.208  0.9879  1.9707  1.2882
  595MOL0     H80272   3.780   1.053   7.202  0.5851  0.1822 -0.7190
  595MOL0     H80273   3.828   0.984   7.355  1.3601 -0.6629 -1.4553
  595MOL0     H80274   3.590   1.114   7.317  0.6115 -2.6517  1.7396
  595MOL0     H80275   3.694   1.258   7.357  0.2914  0.0511  0.3630
  595MOL0     H80276   3.845   1.180   7.612  0.5037  0.5487  2.0832
  595MOL0     H80277   3.748   1.059   7.925  1.7323  2.3857  0.5941
  595MOL0     H80278   3.808   1.203   7.844 -1.9389  2.0135 -0.0867
  595MOL0     H80279   3.512   1.179   7.932  0.9761 -1.6529  1.8987
  595MOL0     H80280   3.589   1.321   7.861 -2.3048  0.0781  1.9891
  595MOL0     H80281   3.740   1.340   8.037 -0.2300 -0.8364 -2.0461
  595MOL0     H80282   3.690   1.177   8.113 -0.9835 -0.2307 -0.8387
  595MOL0     H80283   3.497   1.409   8.074  0.5365  0.8748  1.2321
  595MOL0     H80284   3.604   1.404   8.207  2.5204  0.5362 -1.2702
  595MOL0     H80285   3.276   1.062   8.251 -2.5434 -1.1334 -0.0869
  595MOL0     H80286   2.926   1.080   8.215  0.0220  0.4614 -0.4644
  595MOL0     H80287   3.060   0.978   8.236  1.3634  1.4006 -1.4569
  595MOL0     H80288   2.992   1.046   8.383  1.0849 -3.4222 -0.9989
  595MOL0     H80289   2.762   1.601   8.150  0.4170  1.7752  0.4618
  595MOL0     H80290   2.547   1.658   8.145  1.2270 -0.8347 -0.4701
  595MOL0     H80291   2.373   1.804   8.202  0.8185 -0.8107 -2.3863
  595MOL0     H80292   2.300   1.651   8.163 -1.9696 -0.1208  1.0867
  595MOL0     H80293   2.168   1.871   8.338 -2.0836  0.2881 -0.1805
  595MOL0     H80294   2.168   1.846   8.163 -2.1982 -1.3066 -0.5498
  595MOL0     H80295   2.077   1.648   8.377 -1.2144  4.7184  2.3737
  595MOL0     H80296   2.048   1.628   8.193  2.0846 -1.8148  0.9957
  595MOL0     H80297   1.936   1.869   8.341  0.3580 -0.0297  0.2927
  595MOL0     H80298   1.905   1.806   8.180 -1.5737 -1.0333  0.1494
  595MOL0     H80299   1.721   1.764   8.339 -1.2372 -0.4210  0.0010
  595MOL0     H80300   1.820   1.635   8.412  4.1384 -0.7902 -1.6655
  595MOL0     H80301   1.722   1.649   8.128 -0.2214 -0.3296 -0.2265
  595MOL0     H80302   1.816   1.514   8.192 -0.1904 -0.3699  1.3630
  595MOL0     H80303   1.561   1.488   8.174 -2.2334 -1.1911  0.9998
  595MOL0     H80304   1.536   1.627   8.274 -0.6270 -1.0744  0.4575
  595MOL0     H80305   1.493   1.468   8.416  0.0601  0.8994  1.0273
  595MOL0     H80306   1.655   1.513   8.474  0.2784 -3.8169  2.1282
  595MOL0     H80307   2.500   1.595   8.581  1.3209  1.1312  1.0666
  595MOL0     H80308   2.732   1.490   8.569  0.0582 -2.0675 -0.6870
  595MOL0     H80309   3.122   1.531   8.310  0.4937  0.0149  0.4575
  595MOL0     H80310   3.358   1.492   8.274 -0.2798  0.9270  0.9457
  595MOL0     H80311   4.810   1.292   6.921  0.8174 -0.0043 -0.4512
  595MOL0     H80312   4.873   1.345   6.702 -0.3866  1.9483 -1.2388
  595MOL0     H80313   4.975   1.385   6.219  0.1196  3.6923  2.1700
  595MOL0     H80314   4.947   1.484   5.982 -0.4096  2.2636  0.3422
  595MOL0     H80315   4.902   1.559   5.780  0.9072 -0.6580  0.9303
  595MOL0     H80316   4.825   1.404   5.781  1.7787  0.5728 -2.6005
  595MOL0     H80317   4.807   1.545   5.559  1.0281  1.4034  0.6133
  595MOL0     H80318   4.675   1.636   5.633 -2.1204 -0.4721 -0.8506
  595MOL0     H80319   4.557   1.426   5.676 -0.3819  1.6489 -1.0422
  595MOL0     H80320   4.692   1.333   5.593 -0.1567  0.1310  0.1470
  595MOL0     H80321   4.615   1.407   5.391 -1.2026  1.1372 -0.6313
  595MOL0     H80322   4.544   1.554   5.457 -0.2346  0.1248 -0.6371
  595MOL0     H80323   4.231   1.276   5.514 -0.7139  2.3233  0.2675
  595MOL0     H80324   4.541   1.509   6.037 -0.0800  0.8728  1.1356
  595MOL0     H80325   4.549   1.430   6.275  1.1461 -3.8017  2.0452
  596MOL0     O80326   3.665  10.437   9.468  0.4593  0.1162 -1.0651
  596MOL0     C80327   3.676  10.325   9.519  1.3013  1.0146  0.8293
  596MOL0     O80328   3.573  10.252   9.570 -0.6249 -0.2149  0.2059
  596MOL0     C80329   3.458  10.313   9.605 -0.0602 -0.4227 -0.2602
  596MOL0     C80330   3.455  10.433   9.677  0.4614 -0.0523 -0.4805
  596MOL0     C80331   3.332  10.484   9.714  0.0299  0.1561  0.2680
  596MOL0     C80332   3.217  10.420   9.685 -0.4003  0.5196 -0.5649
  596MOL0     O80333   3.095  10.468   9.723 -0.1391 -0.0554 -0.9449
  596MOL0     C80334   3.068  10.602   9.699 -0.3800 -1.1662 -0.0980
  596MOL0     C80335   2.962  10.645   9.801 -0.2742  1.6428  0.6840
  596MOL0     C80336   2.919  10.787   9.789 -0.5259 -0.2708 -0.5389
  596MOL0     C80337   2.861  10.848   9.919  0.4939  0.1845 -0.5679
  596MOL0     C80338   2.838  11.002   9.914  0.6793 -0.8825 -0.2874
  596MOL0     C80339   2.760  11.052  10.040 -0.5658  0.1311 -0.1528
  596MOL0     C80340   2.711  11.199  10.025  1.0226  0.6183  0.3220
  596MOL0     C80341   2.820  11.292  10.065 -0.1154  0.2306 -0.3085
  596MOL0     N80342   2.766  11.428  10.062 -0.1595 -0.1301 -0.4470
  596MOL0     C80343   2.834  11.532  10.010 -0.0496  0.2059  0.3887
  596MOL0     C80344   2.758  11.635  10.039 -0.0269 -0.2247 -0.0491
  596MOL0     C80345   2.768  11.772   9.994  0.4151  0.0913  0.0883
  596MOL0     C80346   2.728  11.802   9.849 -0.5461  0.8271 -0.5068
  596MOL0     C80347   2.597  11.721   9.815 -0.1719  0.4142 -0.7936
  596MOL0     C80348   2.574  11.748   9.669 -0.8118  0.0889 -0.6526
  596MOL0     O80349   2.439  11.727   9.628  0.0455 -0.2273 -0.4707
  596MOL0     C80350   2.397  11.778   9.505 -0.4306  0.7208  0.7113
  596MOL0     C80351   2.485  11.837   9.414 -0.3174  0.4790  0.2966
  596MOL0     C80352   2.447  11.876   9.284  0.2230 -0.0758  0.0690
  596MOL0     C80353   2.558  11.930   9.196 -0.5600 -0.3365  0.2565
  596MOL0     C80354   2.310  11.877   9.248 -0.1356  0.3155 -0.3446
  596MOL0     C80355   2.247  11.921   9.107  0.0448  0.3769 -0.1274
  596MOL0     O80356   2.112  11.934   9.106  0.1255 -0.2140  0.6559
  596MOL0     C80357   2.042  11.978   8.996 -0.1934  0.7984  0.5758
  596MOL0     C80358   2.089  12.054   8.893 -0.3372 -0.3440  0.6374
  596MOL0     C80359   2.000  12.094   8.793  0.6132 -0.7427  0.8453
  596MOL0     C80360   1.858  12.068   8.798  0.1439 -0.2182 -0.5457
  596MOL0     O80361   1.758  12.110   8.706  0.2068  0.2488 -1.2504
  596MOL0     C80362   1.782  12.227   8.636 -0.3497 -0.0908  0.3672
  596MOL0     C80363   1.658  12.275   8.578  1.1598  0.3032 -0.8302
  596MOL0     C80364   1.536  12.255   8.674 -0.1201 -0.5528 -0.0217
  596MOL0     C80365   1.418  12.339   8.621  0.0403 -0.5474  0.7242
  596MOL0     C80366   1.284  12.304   8.677 -0.1457  0.2876  0.2667
  596MOL0     C80367   1.176  12.376   8.605  1.0465  0.4843  0.3083
  596MOL0     C80368   1.205  12.525   8.584  0.4708  0.1821 -0.5619
  596MOL0     C80369   1.070  12.596   8.566 -0.0331  0.1124 -0.2526
  596MOL0    Cl80370   0.954  12.529   8.439  0.2808 -0.5074  0.0450
  596MOL0     C80371   1.812  11.993   8.904 -0.5202 -0.3572 -0.4498
  596MOL0     C80372   1.906  11.950   9.001  0.5079  0.2960 -0.5506
  596MOL0     O80373   2.322  11.946   9.018  0.0973  0.1522 -0.3206
  596MOL0     C80374   2.223  11.824   9.344  0.8887  0.1178 -0.0091
  596MOL0     C80375   2.266  11.761   9.464 -0.0815  0.7705 -0.1829
  596MOL0     N80376   2.642  11.607  10.109 -0.1916  0.0655  0.4463
  596MOL0     N80377   2.650  11.482  10.129  0.0888 -0.0514 -0.0752
  596MOL0     C80378   3.216  10.293   9.630 -0.1063 -0.1576 -0.1979
  596MOL0     C80379   3.336  10.247   9.577  0.4478  0.2813  0.4174
  596MOL0     C80380   3.809  10.258   9.508  0.8361  0.7167  0.3211
  596MOL0     C80381   3.924  10.325   9.495  0.4453 -0.1559  0.1939
  596MOL0     C80382   4.048  10.264   9.504 -0.5884  0.1286 -0.0145
  596MOL0     C80383   4.058  10.128   9.520  0.0969 -1.3044  0.5805
  596MOL0     O80384   4.173  10.057   9.527  0.7051  0.5155 -0.0991
  596MOL0     C80385   4.290  10.121   9.477 -0.3988  0.3433  0.2288
  596MOL0     C80386   4.405  10.020   9.469  0.2245 -1.3736 -0.1439
  596MOL0     C80387   4.531  10.094   9.429 -0.1559 -0.0471  0.0953
  596MOL0     C80388   4.647  10.003   9.398 -0.6030 -0.1234 -0.1853
  596MOL0     C80389   4.782  10.072   9.369  0.8458 -0.6508  0.0391
  596MOL0     C80390   4.889  10.115   9.346 -0.1427  0.8975  0.3402
  596MOL0     C80391   3.940  10.055   9.532  0.1187 -0.0146 -0.6615
  596MOL0     C80392   3.818  10.120   9.524  0.1095  0.8435 -0.5579
  596MOL0     H80393   3.544  10.484   9.714  0.8929  1.2284 -3.0203
  596MOL0     H80394   3.321  10.576   9.770  1.7574  0.0748  0.7892
  596MOL0     H80395   3.149  10.673   9.719 -3.0453  2.0833  0.2119
  596MOL0     H80396   3.026  10.618   9.599 -0.6498  2.0513  0.4245
  596MOL0     H80397   2.884  10.570   9.785  2.5093 -1.0816 -1.1572
  596MOL0     H80398   3.016  10.619   9.892  0.7446 -1.2107 -0.6392
  596MOL0     H80399   3.015  10.831   9.759 -0.0364 -1.1781 -0.3479
  596MOL0     H80400   2.844  10.780   9.709 -0.0853 -2.4891 -0.8391
  596MOL0     H80401   2.768  10.795   9.940  0.0934  0.9937 -0.2420
  596MOL0     H80402   2.933  10.817   9.994  0.8423 -0.4524 -1.1534
  596MOL0     H80403   2.933  11.053   9.899 -0.2035  0.5211 -1.2734
  596MOL0     H80404   2.777  11.012   9.824 -3.6450 -1.9400  2.2329
  596MOL0     H80405   2.679  10.979  10.041 -1.0063  0.5646 -1.3742
  596MOL0     H80406   2.819  11.046  10.132  1.9953  0.3920 -1.6688
  596MOL0     H80407   2.674  11.214   9.923 -0.2741 -0.8483  0.5535
  596MOL0     H80408   2.625  11.216  10.090 -0.0751 -1.1217 -0.6138
  596MOL0     H80409   2.898  11.285   9.989 -0.8398 -1.0327 -0.9848
  596MOL0     H80410   2.866  11.270  10.162 -0.1332  0.7774 -0.1759
  596MOL0     H80411   2.915  11.542   9.939 -1.5884 -0.6100 -1.5990
  596MOL0     H80412   2.711  11.838  10.059  1.8919 -0.0125  1.5500
  596MOL0     H80413   2.870  11.808  10.008  0.8917 -1.7497  1.7306
  596MOL0     H80414   2.810  11.777   9.781 -1.2406 -0.6375 -0.8382
  596MOL0     H80415   2.704  11.909   9.841  1.6428  1.4239  0.0750
  596MOL0     H80416   2.511  11.756   9.873  0.1725  1.0303 -0.6452
  596MOL0     H80417   2.609  11.614   9.835 -0.8529  0.5770  0.5934
  596MOL0     H80418   2.653  11.689   9.623  1.4776  3.4312 -1.3788
  596MOL0     H80419   2.598  11.853   9.648  1.1401 -0.3703 -0.8977
  596MOL0     H80420   2.588  11.841   9.446 -0.2499 -1.8036  0.4755
  596MOL0     H80421   2.536  12.032   9.163  1.3189 -0.5257 -1.8335
  596MOL0     H80422   2.651  11.926   9.253  0.2632 -0.9149 -1.0902
  596MOL0     H80423   2.564  11.867   9.107  1.5440 -0.1617  0.2348
  596MOL0     H80424   2.192  12.087   8.888  0.4482 -2.6290  0.5537
  596MOL0     H80425   2.023  12.154   8.706 -1.1938  0.9352  1.4390
  596MOL0     H80426   1.815  12.310   8.700 -0.3893  0.3565 -0.1892
  596MOL0     H80427   1.861  12.207   8.563 -0.2203 -0.0204  0.4875
  596MOL0     H80428   1.662  12.381   8.549  0.3809  1.4700  2.8244
  596MOL0     H80429   1.637  12.200   8.501  1.3973 -2.6266  1.7787
  596MOL0     H80430   1.569  12.292   8.772  1.8237 -0.7010 -0.5835
  596MOL0     H80431   1.513  12.149   8.685  0.6162 -0.6028  1.1559
  596MOL0     H80432   1.429  12.446   8.643 -2.1863  0.0494 -0.7052
  596MOL0     H80433   1.420  12.321   8.513  2.1106  0.3923  0.5743
  596MOL0     H80434   1.278  12.334   8.782  0.8954 -0.5361  0.5733
  596MOL0     H80435   1.262  12.198   8.688  0.2709  0.4479  3.3368
  596MOL0     H80436   1.170  12.318   8.513 -0.1649  0.4453  0.3873
  596MOL0     H80437   1.079  12.360   8.654  0.1419 -0.0497 -1.5829
  596MOL0     H80438   1.265  12.533   8.493  0.4259  1.2788 -0.5029
  596MOL0     H80439   1.245  12.568   8.676 -1.5711 -0.5620  0.7648
  596MOL0     H80440   1.096  12.699   8.540 -1.2820  0.6756  0.6295
  596MOL0     H80441   1.020  12.602   8.663  1.5063 -0.9372  0.6452
  596MOL0     H80442   1.707  11.977   8.926  0.1595 -0.8374  2.9677
  596MOL0     H80443   1.872  11.900   9.092  3.5661 -1.2142 -0.1058
  596MOL0     H80444   2.118  11.820   9.317  1.0998 -2.1802 -0.7831
  596MOL0     H80445   2.197  11.720   9.536  2.4085  0.6299  2.2985
  596MOL0     H80446   3.120  10.248   9.606  0.1151 -0.9516  0.3707
  596MOL0     H80447   3.331  10.158   9.516 -1.2086  0.1309  0.7150
  596MOL0     H80448   3.935  10.432   9.482  0.1574 -0.3263 -1.7235
  596MOL0     H80449   4.132  10.330   9.488  0.5792 -1.1039  0.8283
  596MOL0     H80450   4.274  10.160   9.376  1.8802 -1.3319 -0.8746
  596MOL0     H80451   4.315  10.203   9.545  0.0250 -0.4095  0.9864
  596MOL0     H80452   4.387   9.951   9.386 -0.3937  0.7265 -1.8606
  596MOL0     H80453   4.418   9.975   9.568 -1.4967  0.2640  0.8845
  596MOL0     H80454   4.557  10.150   9.519  2.4901 -0.7322 -0.1500
  596MOL0     H80455   4.523  10.154   9.338 -0.1939  0.5370  0.4840
  596MOL0     H80456   4.618   9.942   9.312 -0.3063  0.9716 -1.0732
  596MOL0     H80457   4.659   9.943   9.489  0.7316  2.2354  1.2981
  596MOL0     H80458   4.990  10.151   9.345  0.1134  0.2504 -1.3900
  596MOL0     H80459   3.945   9.948   9.550 -1.3184  0.0716  0.4463
  596MOL0     H80460   3.727  10.064   9.545  1.2486 -0.4446  1.2566
  597MOL0     O80461   6.826   1.291   7.751  0.5338  0.6088 -0.9484
  597MOL0     C80462   6.798   1.407   7.779  0.0992 -0.7613  0.1275
  597MOL0     O80463   6.675   1.460   7.792  0.1462 -0.8321 -0.0627
  597MOL0     C80464   6.574   1.381   7.741 -0.6183  0.2557  1.0575
  597MOL0     C80465   6.556   1.246   7.755 -0.3278 -0.0021 -0.4791
  597MOL0     C80466   6.458   1.172   7.685  0.0289 -0.2944 -0.0738
  597MOL0     C80467   6.369   1.237   7.601  1.0619  0.1717 -0.0155
  597MOL0     O80468   6.277   1.167   7.523 -0.8786 -0.4768  0.2175
  597MOL0     C80469   6.331   1.045   7.465  0.6218 -0.9221  0.7703
  597MOL0     C80470   6.257   1.008   7.338 -0.1059 -0.8798 -0.1187
  597MOL0     C80471   6.107   1.019   7.372  0.1536 -0.0417 -0.1464
  597MOL0     C80472   6.027   0.946   7.254 -0.6683 -0.3822  0.0085
  597MOL0     C80473   5.896   1.011   7.227  0.2591 -0.2690 -0.1239
  597MOL0     C80474   5.821   0.943   7.113 -0.3589 -0.6495  0.0226
  597MOL0     C80475   5.673   0.988   7.130  0.8994 -0.4313 -0.2443
  597MOL0     C80476   5.610   0.988   6.992  0.0463  0.1210  0.7646
  597MOL0     N80477   5.469   1.018   6.997  0.2393 -0.2595 -0.3820
  597MOL0     C80478   5.408   1.142   6.973  0.8323  0.5734 -0.1782
  597MOL0     C80479   5.273   1.118   6.957  0.6835  0.3020 -0.6222
  597MOL0     C80480   5.172   1.231   6.933  0.5348  0.1070  0.1995
  597MOL0     C80481   5.147   1.324   7.061 -0.0277  0.2857  0.3169
  597MOL0     C80482   5.272   1.375   7.129 -0.1109  0.3631 -0.4885
  597MOL0     C80483   5.244   1.482   7.237  0.7342 -0.2115 -0.2246
  597MOL0     O80484   5.167   1.598   7.196 -0.3932 -0.0558  0.3767
  597MOL0     C80485   5.046   1.614   7.260  0.4905 -0.7548  0.2287
  597MOL0     C80486   4.994   1.739   7.271  0.0048  0.1049  0.0288
  597MOL0     C80487   4.871   1.773   7.321 -0.0762  0.8382  0.0759
  597MOL0     C80488   4.835   1.914   7.308  0.7002 -0.3390 -0.4638
  597MOL0     C80489   4.792   1.673   7.378  0.0913  0.2505 -0.1712
  597MOL0     C80490   4.645   1.692   7.438  0.6977 -0.0408 -0.1548
  597MOL0     O80491   4.605   1.812   7.488 -0.3739 -0.5532  0.5317
  597MOL0     C80492   4.483   1.840   7.540  0.7920 -0.7311  0.7221
  597MOL0     C80493   4.416   1.768   7.643  0.1125  0.6197  0.2067
  597MOL0     C80494   4.280   1.784   7.658  0.3839  0.6335 -0.1931
  597MOL0     C80495   4.213   1.879   7.589  0.3238  0.2903  0.3726
  597MOL0     O80496   4.073   1.881   7.612 -0.8772  0.4997  0.5550
  597MOL0     C80497   3.981   1.967   7.544 -0.4150  1.2546 -0.1788
  597MOL0     C80498   3.836   1.948   7.594  0.6473  0.3637 -0.0974
  597MOL0     C80499   3.738   2.053   7.546  0.5255  0.9080  0.6930
  597MOL0     C80500   3.617   2.057   7.646  0.0610 -0.5785 -0.8196
  597MOL0     C80501   3.502   2.160   7.623  0.5136 -0.5982 -1.0131
  597MOL0     C80502   3.403   2.179   7.739  0.2914 -0.5519  0.5662
  597MOL0     C80503   3.306   2.066   7.771 -0.1020 -0.3127  0.0273
  597MOL0     C80504   3.202   2.106   7.878 -1.0612 -0.0096  0.1418
  597MOL0    Cl80505   3.091   2.243   7.825  0.0049 -0.2904  0.0251
  597MOL0     C80506   4.276   1.958   7.495  0.1901  0.0104 -0.0704
  597MOL0     C80507   4.407   1.935   7.466  0.5619 -0.1138 -0.5044
  597MOL0     O80508   4.576   1.591   7.438 -0.0552  0.2889 -0.5070
  597MOL0     C80509   4.836   1.540   7.369 -0.0136  0.1772  0.2099
  597MOL0     C80510   4.962   1.517   7.309 -0.6572 -0.5577 -0.8213
  597MOL0     N80511   5.268   0.979   6.990  0.9868  0.3660  0.1184
  597MOL0     N80512   5.379   0.918   7.013 -0.1184  0.1315  0.1585
  597MOL0     C80513   6.373   1.374   7.591 -0.3855  0.0181  0.6668
  597MOL0     C80514   6.480   1.440   7.655 -0.7153 -0.3583  0.2237
  597MOL0     C80515   6.916   1.498   7.802  0.5908 -0.2217 -0.2802
  597MOL0     C80516   7.041   1.465   7.745  0.1022 -0.7464  1.1964
  597MOL0     C80517   7.153   1.553   7.774 -0.2078 -0.0604 -0.4018
  597MOL0     C80518   7.140   1.677   7.846  0.6235  0.4718 -0.3460
  597MOL0     O80519   7.237   1.773   7.867  0.2977  0.2927 -0.4646
  597MOL0     C80520   7.348   1.788   7.774  0.2102  0.1024  0.9227
  597MOL0     C80521   7.456   1.689   7.811  0.4491  0.3051  0.2234
  597MOL0     C80522   7.583   1.763   7.857 -0.0055  0.2783 -0.0115
  597MOL0     C80523   7.697   1.668   7.868  0.1672  0.4613  0.6747
  597MOL0     C80524   7.685   1.595   8.001 -0.6436  0.4085  0.2871
  597MOL0     C80525   7.680   1.529   8.106  0.0295 -0.2606  1.0920
  597MOL0     C80526   7.013   1.703   7.899 -0.2929 -0.1066 -0.0013
  597MOL0     C80527   6.907   1.614   7.878  0.6782 -0.2358 -0.1899
  597MOL0     H80528   6.615   1.196   7.832 -0.7039 -1.9379 -1.4115
  597MOL0     H80529   6.446   1.065   7.701 -0.1794 -0.2199  0.2848
  597MOL0     H80530   6.439   1.047   7.448  0.4701 -1.0876 -0.2371
  597MOL0     H80531   6.292   0.973   7.537 -1.6555 -2.1550 -1.5433
  597MOL0     H80532   6.283   1.078   7.258 -2.7300 -0.9469 -1.1528
  597MOL0     H80533   6.289   0.906   7.315 -0.1530 -1.6450  2.8301
  597MOL0     H80534   6.075   0.976   7.467  2.1981 -2.4825 -0.4437
  597MOL0     H80535   6.083   1.126   7.378 -0.0334 -0.1277  0.6193
  597MOL0     H80536   6.086   0.958   7.163 -1.0390  3.2331  0.1157
  597MOL0     H80537   6.013   0.839   7.274  0.8133 -0.9110 -1.5027
  597MOL0     H80538   5.844   0.993   7.322 -0.2081 -0.8652 -0.4851
  597MOL0     H80539   5.907   1.118   7.206 -2.2361 -0.1931 -1.3949
  597MOL0     H80540   5.864   0.975   7.018 -1.5242 -0.6406 -0.5231
  597MOL0     H80541   5.820   0.834   7.122  0.6934 -0.6602  0.1273
  597MOL0     H80542   5.616   0.916   7.190 -1.6820  1.4768 -0.2540
  597MOL0     H80543   5.671   1.084   7.182  1.3300 -0.1739 -0.6950
  597MOL0     H80544   5.615   0.886   6.953  1.7709  0.6901 -0.6454
  597MOL0     H80545   5.666   1.051   6.922  3.1552 -2.5637  0.5994
  597MOL0     H80546   5.460   1.237   6.962  0.6169  0.8474  1.0433
  597MOL0     H80547   5.212   1.288   6.849 -0.1690 -0.9633 -0.9034
  597MOL0     H80548   5.083   1.182   6.893  2.5631 -1.9229 -2.1206
  597MOL0     H80549   5.099   1.257   7.133 -2.1133  1.3154 -0.0363
  597MOL0     H80550   5.077   1.400   7.025 -1.4494 -1.5382 -0.9253
  597MOL0     H80551   5.351   1.410   7.061 -0.4903 -1.2671 -1.8655
  597MOL0     H80552   5.325   1.296   7.184  0.0707 -0.4776 -1.8140
  597MOL0     H80553   5.340   1.521   7.272  0.0284  0.3136  1.2034
  597MOL0     H80554   5.207   1.432   7.326  1.3924  0.3173  0.3582
  597MOL0     H80555   5.063   1.812   7.229 -0.0759  1.2099  1.7136
  597MOL0     H80556   4.831   1.958   7.409 -3.1266  1.1313 -1.0715
  597MOL0     H80557   4.910   1.966   7.247 -2.8283  0.3174 -4.7551
  597MOL0     H80558   4.737   1.934   7.264  1.0446  2.1802 -0.2283
  597MOL0     H80559   4.458   1.688   7.703  1.5519  1.4367  0.3354
  597MOL0     H80560   4.233   1.723   7.735 -0.1092  0.0166 -0.9667
  597MOL0     H80561   4.018   2.069   7.554  3.6301 -0.1413  1.4922
  597MOL0     H80562   3.993   1.948   7.437  2.1732 -0.6533  0.3416
  597MOL0     H80563   3.804   1.844   7.584  1.8093  0.0789 -1.0584
  597MOL0     H80564   3.849   1.974   7.699 -1.3834 -0.1461  0.3181
  597MOL0     H80565   3.707   2.015   7.448 -0.5087 -1.6079  1.8922
  597MOL0     H80566   3.777   2.155   7.541  1.9128  0.5209  2.6504
  597MOL0     H80567   3.575   1.957   7.662 -2.6207  0.5297 -0.3580
  597MOL0     H80568   3.649   2.096   7.743 -0.8550 -1.9491  0.0760
  597MOL0     H80569   3.450   2.139   7.529 -0.2956 -2.2417 -0.2417
  597MOL0     H80570   3.550   2.258   7.613 -1.1107  0.2441 -0.9503
  597MOL0     H80571   3.449   2.208   7.834 -3.0787  0.2036  2.1417
  597MOL0     H80572   3.348   2.268   7.706  1.4017 -0.6420 -1.6887
  597MOL0     H80573   3.357   1.976   7.805  2.1648  1.0775  0.5254
  597MOL0     H80574   3.254   2.033   7.681  1.0860  0.6510 -1.0486
  597MOL0     H80575   3.268   2.128   7.963  0.7779  0.4156 -1.3245
  597MOL0     H80576   3.137   2.023   7.909 -0.7608  0.0410  0.9457
  597MOL0     H80577   4.228   2.041   7.445  3.3801  2.2166  0.1803
  597MOL0     H80578   4.464   1.991   7.392 -0.1445  2.7748  0.9802
  597MOL0     H80579   4.776   1.460   7.410  1.6434 -0.0339  2.4375
  597MOL0     H80580   4.992   1.412   7.310 -0.2638 -0.4612 -1.5175
  597MOL0     H80581   6.297   1.423   7.531 -0.4559 -1.8845 -0.8955
  597MOL0     H80582   6.486   1.546   7.630  0.2481 -0.4785 -0.0939
  597MOL0     H80583   7.045   1.371   7.692  1.5497 -0.4127  0.6617
  597MOL0     H80584   7.250   1.524   7.734 -0.5828 -1.4454 -0.3701
  597MOL0     H80585   7.315   1.767   7.671  2.4416 -1.2772  0.4166
  597MOL0     H80586   7.384   1.891   7.773 -1.5381  0.7594  0.6362
  597MOL0     H80587   7.484   1.643   7.715 -2.9252 -0.2805 -0.6291
  597MOL0     H80588   7.420   1.608   7.876  0.2984  2.1120  2.4912
  597MOL0     H80589   7.561   1.809   7.953  0.7612 -1.1564  0.8816
  597MOL0     H80590   7.606   1.847   7.790  0.6307  1.0484  1.1470
  597MOL0     H80591   7.788   1.728   7.879 -0.8262  2.3958 -1.0429
  597MOL0     H80592   7.710   1.605   7.779 -0.2982 -0.4888  1.2663
  597MOL0     H80593   7.693   1.475   8.197  1.8053  0.0565  1.0562
  597MOL0     H80594   6.987   1.794   7.953 -2.6851 -2.0058  2.3157
  597MOL0     H80595   6.814   1.651   7.919  0.9527  0.5644 -0.2677
  598MOL0     O80596   6.016   8.728   7.157  0.4028  0.1765 -0.0752
  598MOL0     C80597   6.094   8.774   7.075 -0.1024 -0.0199 -0.5083
  598MOL0     O80598   6.054   8.816   6.952  0.2647 -0.2109  0.2190
  598MOL0     C80599   5.924   8.786   6.912  0.9150  0.4839  0.2312
  598MOL0     C80600   5.821   8.873   6.927 -0.0380  0.7412  0.5584
  598MOL0     C80601   5.690   8.829   6.893 -0.3682  0.9615  0.2477
  598MOL0     C80602   5.671   8.700   6.829 -0.2925  0.3895 -0.1396
  598MOL0     O80603   5.548   8.656   6.789  0.5799 -0.4739  0.6041
  598MOL0     C80604   5.543   8.546   6.691 -0.3675  0.1980  0.5104
  598MOL0     C80605   5.421   8.569   6.595 -0.3337  0.7067 -0.9633
  598MOL0     C80606   5.295   8.571   6.680 -0.7749 -0.0523  1.0268
  598MOL0     C80607   5.168   8.611   6.596 -0.5927  0.7108  0.6025
  598MOL0     C80608   5.054   8.633   6.696 -1.1093  0.5618  0.0787
  598MOL0     C80609   4.935   8.668   6.614  0.1503  0.0496 -0.4259
  598MOL0     C80610   4.823   8.721   6.702  0.1302  0.1557 -0.7321
  598MOL0     C80611   4.689   8.719   6.639 -0.3451 -0.1090 -0.6731
  598MOL0     N80612   4.627   8.586   6.609 -0.4738 -0.3151 -0.3457
  598MOL0     C80613   4.642   8.463   6.681 -0.4839 -0.7955  0.8039
  598MOL0     C80614   4.567   8.379   6.610  0.7383 -0.0292  0.4022
  598MOL0     C80615   4.541   8.234   6.644  0.0770 -0.0935  0.2140
  598MOL0     C80616   4.396   8.229   6.696  0.1317  0.1103 -0.2869
  598MOL0     C80617   4.369   8.102   6.776 -0.1173  0.1762  0.5384
  598MOL0     C80618   4.230   8.097   6.847  1.0695 -0.0391 -0.3936
  598MOL0     O80619   4.131   8.048   6.752  0.5779 -0.0792  0.0792
  598MOL0     C80620   4.000   8.060   6.793  0.1621  0.0548 -0.3554
  598MOL0     C80621   3.957   8.007   6.919  0.0086 -0.6560  0.4485
  598MOL0     C80622   3.821   8.023   6.952  0.8564  1.0276 -0.2969
  598MOL0     C80623   3.783   7.953   7.075 -0.4702 -0.1967 -0.7090
  598MOL0     C80624   3.724   8.077   6.859  0.2599 -0.6203  0.1713
  598MOL0     C80625   3.588   8.119   6.889  0.1306 -0.7150 -0.7920
  598MOL0     O80626   3.520   8.182   6.783  0.0306  0.1975 -0.7310
  598MOL0     C80627   3.382   8.196   6.789  0.4139  0.1422  0.2635
  598MOL0     C80628   3.335   8.297   6.700  0.1180  0.2959 -0.2376
  598MOL0     C80629   3.201   8.329   6.698 -0.9277 -1.0180 -0.0959
  598MOL0     C80630   3.104   8.262   6.771 -0.9952  1.1195  0.6592
  598MOL0     O80631   2.973   8.289   6.757 -0.2696  0.2151  0.5124
  598MOL0     C80632   2.936   8.418   6.716  0.6448  0.3454 -0.0288
  598MOL0     C80633   2.779   8.413   6.716 -0.6275  0.2752  0.5418
  598MOL0     C80634   2.710   8.541   6.685 -0.9854 -0.6760 -0.5271
  598MOL0     C80635   2.569   8.514   6.675 -0.2992  0.7644  1.4649
  598MOL0     C80636   2.476   8.634   6.686  0.0338 -0.3592 -0.3864
  598MOL0     C80637   2.324   8.608   6.667  0.4782 -0.1621 -0.2610
  598MOL0     C80638   2.255   8.740   6.683  0.5103  0.3162 -0.0359
  598MOL0     C80639   2.107   8.711   6.685 -0.0377 -0.1958  0.1230
  598MOL0    Cl80640   2.043   8.696   6.518  0.0851 -0.4090 -0.0390
  598MOL0     C80641   3.150   8.164   6.858  0.2226  0.5614 -0.4962
  598MOL0     C80642   3.285   8.124   6.865  0.3011  0.2067 -0.1055
  598MOL0     O80643   3.539   8.093   6.997  0.4859  0.0008 -0.5434
  598MOL0     C80644   3.773   8.098   6.732 -0.6636  0.0156  0.3887
  598MOL0     C80645   3.905   8.094   6.700  0.6653 -0.0441  0.2765
  598MOL0     N80646   4.509   8.448   6.504 -0.0626 -0.6932  0.8171
  598MOL0     N80647   4.553   8.574   6.503  0.4499  0.2423  0.5138
  598MOL0     C80648   5.781   8.618   6.800 -0.1571  0.1532 -0.0326
  598MOL0     C80649   5.901   8.660   6.851 -1.1116 -0.3564 -0.0313
  598MOL0     C80650   6.237   8.778   7.113 -0.2474  0.1117  0.4278
  598MOL0     C80651   6.335   8.838   7.037 -0.4656  0.2877  0.6413
  598MOL0     C80652   6.471   8.841   7.078 -0.1182 -0.1015  0.4892
  598MOL0     C80653   6.520   8.795   7.202  0.2260  0.0338  0.5917
  598MOL0     O80654   6.655   8.796   7.240  0.1331 -0.1167  0.2909
  598MOL0     C80655   6.743   8.745   7.139  0.3758  0.1620 -0.2952
  598MOL0     C80656   6.822   8.856   7.067 -0.7136 -0.8151  0.1076
  598MOL0     C80657   6.881   8.951   7.157 -0.2512 -0.8330 -0.6707
  598MOL0     C80658   7.025   8.986   7.121 -0.1657  0.0353 -0.2746
  598MOL0     C80659   7.089   9.084   7.210  0.0835  0.1231  0.7260
  598MOL0     C80660   7.168   9.143   7.282 -0.2233  0.5221 -0.6718
  598MOL0     C80661   6.415   8.750   7.287 -0.7981 -0.4749  0.4841
  598MOL0     C80662   6.283   8.737   7.240 -0.1726  0.4262 -0.5362
  598MOL0     H80663   5.837   8.970   6.973  0.4305  0.4444  1.0390
  598MOL0     H80664   5.602   8.891   6.905  0.8262  3.1605 -1.6686
  598MOL0     H80665   5.628   8.558   6.623  0.1264 -1.0626  0.8705
  598MOL0     H80666   5.547   8.443   6.729  1.7579 -0.1138 -0.4579
  598MOL0     H80667   5.422   8.666   6.545  3.0047  0.3561 -1.8213
  598MOL0     H80668   5.414   8.494   6.515  2.2910  0.4017 -1.0024
  598MOL0     H80669   5.274   8.479   6.735 -1.6320 -0.6133 -0.2018
  598MOL0     H80670   5.309   8.649   6.755 -0.0488  1.4684 -0.6136
  598MOL0     H80671   5.182   8.696   6.529  0.6557 -0.0999 -0.2193
  598MOL0     H80672   5.142   8.524   6.535  0.1747 -0.1703  1.4946
  598MOL0     H80673   5.015   8.542   6.742 -0.9781  0.3123 -0.2952
  598MOL0     H80674   5.089   8.705   6.771 -1.2421  0.5446  0.1564
  598MOL0     H80675   4.967   8.749   6.548  0.0190  2.0223  1.8062
  598MOL0     H80676   4.893   8.587   6.553 -0.9572 -0.5531  1.0713
  598MOL0     H80677   4.817   8.670   6.798 -1.6109  0.9694 -0.3688
  598MOL0     H80678   4.852   8.827   6.709  0.4010  0.0293  0.1019
  598MOL0     H80679   4.699   8.779   6.549  1.9208 -0.3946 -0.6737
  598MOL0     H80680   4.625   8.773   6.710 -0.7777  1.1471 -1.9699
  598MOL0     H80681   4.720   8.439   6.752  0.6872 -1.0894 -0.5244
  598MOL0     H80682   4.536   8.170   6.555 -1.7001  2.9953 -2.1134
  598MOL0     H80683   4.611   8.208   6.724  0.8169  0.9381 -0.0777
  598MOL0     H80684   4.328   8.227   6.610 -3.0248  0.1168  2.0315
  598MOL0     H80685   4.371   8.313   6.761  1.3087  0.0875  0.2186
  598MOL0     H80686   4.451   8.089   6.847 -0.5925  1.3183  1.3320
  598MOL0     H80687   4.389   8.018   6.709  2.5484  2.9018 -2.4095
  598MOL0     H80688   4.214   8.201   6.877 -0.5970 -0.7541  1.3211
  598MOL0     H80689   4.232   8.036   6.937 -0.2165  0.5894  0.0752
  598MOL0     H80690   4.023   7.956   6.989 -0.9911 -1.4795  0.8136
  598MOL0     H80691   3.702   7.885   7.048 -0.6885  0.6202 -2.2815
  598MOL0     H80692   3.864   7.894   7.116 -0.4754 -1.2687 -2.1639
  598MOL0     H80693   3.756   8.026   7.152  1.5922 -2.2979  2.2197
  598MOL0     H80694   3.399   8.347   6.628 -0.0407 -0.1236 -0.6748
  598MOL0     H80695   3.179   8.404   6.623  2.0292 -0.9595 -1.0013
  598MOL0     H80696   2.962   8.488   6.797 -0.9914 -0.0689  0.9053
  598MOL0     H80697   2.984   8.444   6.621  1.6424 -2.5472 -0.4060
  598MOL0     H80698   2.754   8.333   6.646 -0.4567  0.2890  0.4617
  598MOL0     H80699   2.748   8.371   6.812 -1.9660 -2.4305 -0.9549
  598MOL0     H80700   2.753   8.581   6.593 -0.4637  0.4353  0.1693
  598MOL0     H80701   2.725   8.614   6.766  0.4485  0.6317 -1.8911
  598MOL0     H80702   2.552   8.467   6.578 -0.2468  0.7391  1.4683
  598MOL0     H80703   2.550   8.437   6.749  1.1935  0.3158  1.4161
  598MOL0     H80704   2.512   8.716   6.622  2.8531 -0.9554  0.3112
  598MOL0     H80705   2.489   8.650   6.793  0.2732 -2.6205 -0.0159
  598MOL0     H80706   2.315   8.564   6.567  0.8464  0.1379 -0.4284
  598MOL0     H80707   2.290   8.536   6.742 -1.5185  1.3206  0.3412
  598MOL0     H80708   2.267   8.806   6.596  0.1389  1.0987  0.4977
  598MOL0     H80709   2.288   8.793   6.773  2.3978 -1.2903  0.2723
  598MOL0     H80710   2.057   8.794   6.737  2.4704 -0.9572  4.2917
  598MOL0     H80711   2.087   8.623   6.746 -0.9115 -0.6721 -0.8245
  598MOL0     H80712   3.076   8.115   6.921 -1.4009  1.1193 -1.9077
  598MOL0     H80713   3.304   8.032   6.920  2.1057 -0.4464 -1.7268
  598MOL0     H80714   3.704   8.131   6.655 -1.8560 -2.2799  0.4035
  598MOL0     H80715   3.937   8.115   6.599  0.1555  1.2396  0.3542
  598MOL0     H80716   5.784   8.522   6.749 -2.0844 -0.3990  0.8079
  598MOL0     H80717   5.995   8.607   6.839  1.0697  2.8851  1.3347
  598MOL0     H80718   6.303   8.877   6.941 -0.1249  0.0701  0.4393
  598MOL0     H80719   6.548   8.882   7.013  1.6161 -2.3140  1.0173
  598MOL0     H80720   6.818   8.678   7.183  0.6221  0.0401 -0.8863
  598MOL0     H80721   6.687   8.686   7.066 -0.5326 -1.2240  1.4404
  598MOL0     H80722   6.771   8.908   6.986  0.4540  1.1157  0.5525
  598MOL0     H80723   6.899   8.801   7.011  0.4641 -0.0753  0.9592
  598MOL0     H80724   6.873   8.903   7.255 -1.4146 -1.1071 -0.8899
  598MOL0     H80725   6.815   9.038   7.161 -0.3321 -0.9302  1.0680
  598MOL0     H80726   7.032   9.027   7.019 -2.1220  1.9540  0.2770
  598MOL0     H80727   7.077   8.890   7.127 -0.0114  0.2043  1.3695
  598MOL0     H80728   7.244   9.170   7.354 -1.4828 -1.6244  1.6360
  598MOL0     H80729   6.446   8.711   7.384 -0.6252 -1.3076  0.1000
  598MOL0     H80730   6.208   8.704   7.312  1.3719 -0.7774  0.5921
  599MOL0     O80731  10.600  10.278  10.835 -0.4584 -0.0828 -0.5144
  599MOL0     C80732  10.661  10.266  10.942  0.2742  0.3967  0.0225
  599MOL0     O80733  10.596  10.254  11.063  0.4351 -0.2866  0.6672
  599MOL0     C80734  10.462  10.285  11.076  0.1706 -0.9897 -0.0101
  599MOL0     C80735  10.430  10.370  11.184 -0.1781 -0.0915  0.6681
  599MOL0     C80736  10.298  10.406  11.199  1.1263  0.1294  0.1016
  599MOL0     C80737  10.199  10.350  11.119 -0.5590 -0.0544  0.6745
  599MOL0     O80738  10.068  10.382  11.156 -0.0773 -0.0197  0.1901
  599MOL0     C80739   9.972  10.267  11.154 -0.1121  1.0608  0.1082
  599MOL0     C80740   9.854  10.293  11.249 -0.4383 -0.2426 -1.3238
  599MOL0     C80741   9.764  10.407  11.208 -0.1843 -0.7358 -0.5873
  599MOL0     C80742   9.662  10.431  11.327 -0.0865 -0.3190 -0.3391
  599MOL0     C80743   9.568  10.547  11.287 -1.7032  0.0196  0.0068
  599MOL0     C80744   9.516  10.625  11.406 -0.2589 -0.5715 -0.0021
  599MOL0     C80745   9.425  10.534  11.476 -0.6907 -0.2961  0.0241
  599MOL0     C80746   9.364  10.586  11.615 -0.5154  0.9231 -0.0059
  599MOL0     N80747   9.274  10.488  11.683  0.3020 -0.2996  0.5306
  599MOL0     C80748   9.153  10.458  11.626  0.9674  0.9485  0.2254
  599MOL0     C80749   9.106  10.336  11.678 -0.5883 -0.0307  0.7884
  599MOL0     C80750   8.986  10.254  11.629 -0.9686 -0.5148  0.1894
  599MOL0     C80751   8.946  10.293  11.480  0.1466 -0.0766 -0.0302
  599MOL0     C80752   8.848  10.192  11.424 -0.1824 -0.0290  0.7590
  599MOL0     C80753   8.710  10.181  11.483 -0.1585 -0.9079 -0.5555
  599MOL0     O80754   8.633  10.305  11.497 -0.0567  0.1396 -0.6069
  599MOL0     C80755   8.508  10.308  11.555  0.4082 -0.1125  0.6391
  599MOL0     C80756   8.446  10.431  11.559 -0.1463 -0.7634 -0.2966
  599MOL0     C80757   8.322  10.455  11.607 -0.3727  0.2303 -0.5468
  599MOL0     C80758   8.266  10.592  11.584 -0.2626  0.4869  0.0347
  599MOL0     C80759   8.242  10.346  11.658  0.2679 -0.4345 -0.1904
  599MOL0     C80760   8.106  10.353  11.720 -0.6707 -0.5607 -0.2639
  599MOL0     O80761   8.047  10.235  11.761  0.6150  0.4316  0.0306
  599MOL0     C80762   7.933  10.219  11.837 -0.2199 -0.2251  0.7315
  599MOL0     C80763   7.815  10.293  11.832  0.4066  0.3074 -0.1938
  599MOL0     C80764   7.722  10.284  11.934 -0.2682  0.7782 -0.1281
  599MOL0     C80765   7.725  10.189  12.032  0.0295 -0.6273  0.4315
  599MOL0     O80766   7.627  10.185  12.131  0.4161  0.5993 -0.0530
  599MOL0     C80767   7.658  10.108  12.248 -0.1127  0.1279 -0.1372
  599MOL0     C80768   7.540  10.122  12.343  0.1606  0.3191 -0.2271
  599MOL0     C80769   7.413  10.044  12.318 -0.6859  0.1364 -0.4754
  599MOL0     C80770   7.315  10.045  12.430  0.4659  0.0062  0.4573
  599MOL0     C80771   7.187   9.971  12.395  0.7053  0.4473  0.3691
  599MOL0     C80772   7.095   9.954  12.513 -0.6781  0.7303 -0.0596
  599MOL0     C80773   6.960   9.895  12.468 -0.5662 -0.1420 -0.2666
  599MOL0     C80774   6.875   9.855  12.589 -0.5062 -0.1978 -0.5384
  599MOL0    Cl80775   6.709   9.823  12.525  0.0908  0.1511  0.0346
  599MOL0     C80776   7.838  10.089  12.020  0.6555 -0.3494 -0.6746
  599MOL0     C80777   7.942  10.120  11.925 -0.0907  0.4799 -0.3316
  599MOL0     O80778   8.058  10.465  11.743 -0.0175 -0.0502 -1.2083
  599MOL0     C80779   8.299  10.213  11.652  0.2422 -0.6420 -0.4242
  599MOL0     C80780   8.431  10.200  11.598 -0.6471 -0.5286 -0.3087
  599MOL0     N80781   9.203  10.299  11.776  0.2707  0.4262  0.2548
  599MOL0     N80782   9.300  10.384  11.765 -0.5072 -0.2088 -0.0249
  599MOL0     C80783  10.230  10.257  11.022  1.2210 -0.2394  0.3954
  599MOL0     C80784  10.359  10.226  11.002  0.2512  0.0957  0.2010
  599MOL0     C80785  10.813  10.272  10.941  0.5577  0.2549 -0.1995
  599MOL0     C80786  10.886  10.303  10.822  0.4062  0.0087 -0.1801
  599MOL0     C80787  11.020  10.302  10.825 -0.1109 -0.2337  1.0580
  599MOL0     C80788  11.087  10.280  10.946 -0.7852 -0.2061 -0.4057
  599MOL0     O80789  11.223  10.301  10.942 -0.0634 -0.2355 -0.4303
  599MOL0     C80790  11.302  10.275  11.064  0.1606  0.4964  0.6562
  599MOL0     C80791  11.447  10.309  11.024  0.3090 -1.1754  0.6566
  599MOL0     C80792  11.454  10.449  10.954  0.3191  0.5758 -0.0865
  599MOL0     C80793  11.593  10.491  10.922  0.6264  0.4643  0.0121
  599MOL0     C80794  11.591  10.630  10.870 -0.8547  0.4942 -0.8043
  599MOL0     C80795  11.588  10.748  10.835 -0.0717  1.1026 -0.5326
  599MOL0     C80796  11.019  10.251  11.061  0.6552 -0.2851 -0.0350
  599MOL0     C80797  10.879  10.228  11.054  0.7022 -0.2769  0.9458
  599MOL0     H80798  10.506  10.421  11.242  0.1357 -0.0502  0.2222
  599MOL0     H80799  10.268  10.474  11.277 -0.5948 -0.6559  0.1633
  599MOL0     H80800   9.935  10.250  11.053 -3.2951  2.1872  0.9673
  599MOL0     H80801  10.016  10.177  11.201  0.2736  2.0317  1.6902
  599MOL0     H80802   9.788  10.207  11.261 -1.4323  0.9003  2.7614
  599MOL0     H80803   9.895  10.317  11.347 -0.1111 -1.8859 -1.0408
  599MOL0     H80804   9.814  10.501  11.185 -0.6603  0.5076  2.7980
  599MOL0     H80805   9.705  10.371  11.124 -1.7892  0.1182  0.1396
  599MOL0     H80806   9.608  10.341  11.360  0.8681 -1.7087 -2.3367
  599MOL0     H80807   9.712  10.459  11.420  0.1207 -1.9409  0.0690
  599MOL0     H80808   9.631  10.618  11.233 -1.1038 -0.2679  0.3154
  599MOL0     H80809   9.487  10.508  11.225 -0.2770 -2.7511 -0.2915
  599MOL0     H80810   9.603  10.650  11.467  0.5017 -4.5115  0.8052
  599MOL0     H80811   9.465  10.714  11.366  0.0574 -1.0864 -1.6458
  599MOL0     H80812   9.351  10.490  11.409  1.9027 -0.0011 -3.3079
  599MOL0     H80813   9.486  10.447  11.501 -0.5957 -0.5847 -1.1348
  599MOL0     H80814   9.303  10.675  11.596 -1.5881  0.6784  2.0064
  599MOL0     H80815   9.449  10.614  11.677  0.5273 -1.4462 -0.2601
  599MOL0     H80816   9.101  10.510  11.546  0.6383 -0.1465 -0.2943
  599MOL0     H80817   9.010  10.147  11.627 -0.2498 -0.4943  3.4367
  599MOL0     H80818   8.899  10.277  11.690 -1.1281 -4.0383  1.5152
  599MOL0     H80819   9.027  10.293  11.407  1.0516  1.9892  0.9023
  599MOL0     H80820   8.894  10.389  11.477  1.2166  0.5487  0.8501
  599MOL0     H80821   8.891  10.091  11.421 -1.2602 -0.6421  3.1777
  599MOL0     H80822   8.833  10.228  11.322 -2.4477 -0.3615  0.9157
  599MOL0     H80823   8.722  10.156  11.589 -0.6749  2.1007  0.3131
  599MOL0     H80824   8.656  10.099  11.434  1.0611 -3.9275  2.7114
  599MOL0     H80825   8.505  10.515  11.524 -2.9565  1.7445  0.5671
  599MOL0     H80826   8.240  10.653  11.671  2.6490  3.5596 -1.0305
  599MOL0     H80827   8.335  10.651  11.523 -0.9009  0.5553 -0.6320
  599MOL0     H80828   8.171  10.580  11.532  1.0890 -0.6950 -2.3158
  599MOL0     H80829   7.799  10.376  11.764 -1.5536 -0.9738 -1.4087
  599MOL0     H80830   7.637  10.349  11.916 -0.2282  0.2144 -2.7501
  599MOL0     H80831   7.669  10.000  12.230  1.8148  0.5837 -2.0307
  599MOL0     H80832   7.747  10.143  12.300 -0.3613 -1.2978  1.3243
  599MOL0     H80833   7.576  10.093  12.442 -5.2379 -0.3861  1.8768
  599MOL0     H80834   7.507  10.225  12.355 -1.7330 -0.3553  0.8012
  599MOL0     H80835   7.425   9.935  12.319  0.6018  0.2704  0.4086
  599MOL0     H80836   7.359  10.077  12.229 -1.4179 -3.6886 -1.6381
  599MOL0     H80837   7.357   9.998  12.519  0.5313 -1.9026 -0.5377
  599MOL0     H80838   7.287  10.147  12.458 -1.0457 -0.6261  1.3816
  599MOL0     H80839   7.217   9.874  12.355  2.5005  1.1459 -0.0620
  599MOL0     H80840   7.132  10.019  12.314 -2.9413 -0.0863  2.3129
  599MOL0     H80841   7.136   9.894  12.595  0.1321 -0.8889 -1.5845
  599MOL0     H80842   7.075  10.054  12.551  1.0549  0.7752  0.8832
  599MOL0     H80843   6.976   9.808  12.403  1.5606  1.3855 -1.9242
  599MOL0     H80844   6.901   9.959  12.402 -3.6706  0.4272  2.7788
  599MOL0     H80845   6.874   9.929  12.670 -1.8879 -0.3689 -0.3825
  599MOL0     H80846   6.916   9.764  12.633  1.4037  0.3444 -1.0895
  599MOL0     H80847   7.838  10.003  12.086  2.4203  0.8224  0.9333
  599MOL0     H80848   8.033  10.061  11.925 -0.5084 -0.2707  1.9648
  599MOL0     H80849   8.260  10.131  11.710  1.2707  0.2799  1.6905
  599MOL0     H80850   8.475  10.101  11.585  0.9521 -0.3917  2.9458
  599MOL0     H80851  10.160  10.211  10.954  0.9681 -0.1017  0.5626
  599MOL0     H80852  10.384  10.146  10.933 -0.7854 -1.1476  1.2183
  599MOL0     H80853  10.832  10.322  10.730 -0.0357  0.9459  0.2658
  599MOL0     H80854  11.073  10.332  10.736  1.1473 -0.0490  1.8470
  599MOL0     H80855  11.262  10.351  11.133  0.5625  3.1656 -1.8358
  599MOL0     H80856  11.287  10.172  11.097  1.5365  0.5466  1.4931
  599MOL0     H80857  11.489  10.235  10.956 -2.5467 -2.2049 -0.1253
  599MOL0     H80858  11.501  10.316  11.119  1.0804  1.1986  0.1184
  599MOL0     H80859  11.403  10.522  11.017  0.2226  1.0899 -0.7388
  599MOL0     H80860  11.404  10.428  10.859 -0.0833 -0.7534  0.3955
  599MOL0     H80861  11.635  10.418  10.853 -0.0480 -1.7570  1.8346
  599MOL0     H80862  11.660  10.479  11.008  0.7813 -1.6629 -0.3561
  599MOL0     H80863  11.568  10.848  10.803 -1.8450  0.6834 -0.8471
  599MOL0     H80864  11.062  10.239  11.160 -2.6515 -2.1508  1.3350
  599MOL0     H80865  10.828  10.218  11.149 -1.6610  2.0675  0.0623
  600MOL0     O80866   1.454   1.217   4.942 -0.0896  0.6508 -0.3265
  600MOL0     C80867   1.460   1.313   4.872 -0.3063 -0.2407 -0.4893
  600MOL0     O80868   1.365   1.361   4.784 -0.0133  0.0720  0.0721
  600MOL0     C80869   1.239   1.311   4.767 -0.1293  0.2405 -0.7469
  600MOL0     C80870   1.164   1.237   4.864  0.0058 -0.6863 -0.6645
  600MOL0     C80871   1.031   1.193   4.846  0.7841 -0.2957 -0.7572
  600MOL0     C80872   0.969   1.214   4.727 -0.9699 -0.5344 -0.4365
  600MOL0     O80873   0.852   1.145   4.703 -0.0406  0.5726 -0.5364
  600MOL0     C80874   0.803   1.134   4.570  0.0936 -0.4320  0.3663
  600MOL0     C80875   0.712   1.018   4.570 -0.1670  0.3841  0.3366
  600MOL0     C80876   0.637   1.017   4.432 -0.4741 -0.0161 -0.1612
  600MOL0     C80877   0.540   0.903   4.433  0.4040  0.1986 -0.2323
  600MOL0     C80878   0.438   0.889   4.321  0.2074 -0.0996  0.4448
  600MOL0     C80879   0.346   1.011   4.309  0.0682 -0.1419  0.7654
  600MOL0     C80880   0.253   0.993   4.188 -0.2906 -0.4572 -0.9302
  600MOL0     C80881   0.158   1.119   4.175  0.4095  0.4116 -0.0424
  600MOL0     N80882   0.025   1.075   4.217  0.0484  0.1373  0.0939
  600MOL0     C80883  -0.064   1.017   4.130  0.0150 -0.1054 -0.0111
  600MOL0     C80884  -0.184   1.016   4.190 -0.9566 -0.0301  0.1853
  600MOL0     C80885  -0.301   0.951   4.120  0.3647  1.0739  0.0239
  600MOL0     C80886  -0.400   0.901   4.236 -0.3863 -0.0692 -0.3069
  600MOL0     C80887  -0.518   0.813   4.182  0.8427  0.2446 -0.2281
  600MOL0     C80888  -0.603   0.881   4.074 -0.4603  0.7582 -0.4806
  600MOL0     O80889  -0.720   0.793   4.048  0.1086  0.7091  0.3759
  600MOL0     C80890  -0.807   0.822   3.946  0.0883 -0.1736  0.8652
  600MOL0     C80891  -0.890   0.723   3.891  0.3284 -0.0553  0.5504
  600MOL0     C80892  -0.977   0.745   3.784  0.2018 -0.7538  0.6880
  600MOL0     C80893  -1.054   0.629   3.729 -0.9621  0.2327 -0.7073
  600MOL0     C80894  -0.995   0.878   3.736 -0.5614 -0.2083 -0.2480
  600MOL0     C80895  -1.089   0.913   3.622 -0.3913 -1.1706  0.5969
  600MOL0     O80896  -1.061   1.037   3.554 -0.3753 -0.2288  0.2088
  600MOL0     C80897  -1.154   1.088   3.467 -0.0144 -0.1928 -0.5944
  600MOL0     C80898  -1.285   1.125   3.518 -0.0854 -0.1727 -0.2460
  600MOL0     C80899  -1.376   1.186   3.433  1.7511 -0.2040  0.4599
  600MOL0     C80900  -1.359   1.176   3.295 -1.0612  0.5302 -1.0740
  600MOL0     O80901  -1.467   1.206   3.213 -0.8099 -0.6095 -0.2311
  600MOL0     C80902  -1.442   1.214   3.074 -0.2543  0.9548  0.7625
  600MOL0     C80903  -1.579   1.236   3.009 -0.4215 -0.5114  1.4332
  600MOL0     C80904  -1.560   1.222   2.862 -0.3528 -0.3921  0.2775
  600MOL0     C80905  -1.691   1.250   2.783  1.1294 -0.2169  0.5833
  600MOL0     C80906  -1.648   1.254   2.636 -0.2709  0.0759  0.0596
  600MOL0     C80907  -1.778   1.280   2.546 -0.3235 -0.1014  0.2763
  600MOL0     C80908  -1.827   1.426   2.579 -0.3282 -0.6748 -0.1076
  600MOL0     C80909  -1.890   1.497   2.463  0.3956  0.6531  0.7523
  600MOL0    Cl80910  -2.041   1.410   2.411 -0.3033  0.1089 -0.4193
  600MOL0     C80911  -1.231   1.128   3.244 -0.0099  0.0735 -0.0294
  600MOL0     C80912  -1.128   1.092   3.329 -0.8260  0.3902 -0.5592
  600MOL0     O80913  -1.185   0.836   3.605 -0.4919 -0.8592 -0.2268
  600MOL0     C80914  -0.912   0.980   3.783 -0.4411  0.6934  0.2018
  600MOL0     C80915  -0.812   0.953   3.885 -0.7829  0.0604  0.6140
  600MOL0     N80916  -0.163   1.081   4.303 -0.0843  0.1854 -0.1992
  600MOL0     N80917  -0.039   1.120   4.325  0.4673  0.0587  0.4268
  600MOL0     C80918   1.044   1.300   4.638 -0.7126  0.0364  1.0293
  600MOL0     C80919   1.179   1.336   4.649 -0.0917 -0.3614  0.1311
  600MOL0     C80920   1.591   1.386   4.868  0.1066 -0.7205 -1.0001
  600MOL0     C80921   1.613   1.489   4.777 -0.8766  0.2707  0.6640
  600MOL0     C80922   1.735   1.562   4.785  0.5206 -0.1657  0.7000
  600MOL0     C80923   1.843   1.528   4.872 -0.0807 -0.8151 -0.2713
  600MOL0     O80924   1.955   1.608   4.848  0.0402 -0.0631  0.1063
  600MOL0     C80925   2.080   1.551   4.885 -0.1535 -0.1462 -0.3536
  600MOL0     C80926   2.199   1.648   4.846 -0.2125  0.3149  0.7196
  600MOL0     C80927   2.196   1.674   4.698  0.2685  0.3926 -0.4784
  600MOL0     C80928   2.314   1.756   4.647  0.5757 -0.0680  0.0769
  600MOL0     C80929   2.288   1.795   4.507  0.1971 -0.8060 -0.1117
  600MOL0     C80930   2.271   1.844   4.400  0.0293  0.1060  0.0607
  600MOL0     C80931   1.821   1.421   4.953  0.9431 -0.8639 -0.4771
  600MOL0     C80932   1.696   1.358   4.958 -0.5511  1.4112 -0.1185
  600MOL0     H80933   1.203   1.229   4.965 -1.0449  1.6222 -0.0013
  600MOL0     H80934   0.983   1.140   4.928  1.0527  1.3355  0.5066
  600MOL0     H80935   0.754   1.227   4.541  0.7282  0.1777  1.1927
  600MOL0     H80936   0.877   1.119   4.491 -2.4678 -1.6137 -1.9699
  600MOL0     H80937   0.765   0.922   4.578 -1.5758 -0.5039 -0.5019
  600MOL0     H80938   0.634   1.020   4.646 -1.2434 -2.0681 -0.5806
  600MOL0     H80939   0.591   1.114   4.411  0.0184 -0.0177 -1.3132
  600MOL0     H80940   0.722   1.002   4.365  0.9886 -2.5832  2.0448
  600MOL0     H80941   0.593   0.807   4.431  0.8101  0.4161 -0.1472
  600MOL0     H80942   0.488   0.909   4.529  0.6412  0.2019 -0.1014
  600MOL0     H80943   0.491   0.875   4.227  1.9386  0.1802  1.3454
  600MOL0     H80944   0.375   0.799   4.323 -0.8630  0.6339  1.2509
  600MOL0     H80945   0.285   1.022   4.400 -0.9778  1.3847 -0.0896
  600MOL0     H80946   0.407   1.100   4.292 -0.1299 -0.2253 -0.4817
  600MOL0     H80947   0.315   0.985   4.099 -0.2103 -1.7597 -0.7863
  600MOL0     H80948   0.189   0.905   4.203  0.8998 -0.7474  5.0117
  600MOL0     H80949   0.155   1.152   4.071  1.4551 -0.0955 -0.2512
  600MOL0     H80950   0.190   1.204   4.235  1.4053  0.0746 -0.0647
  600MOL0     H80951  -0.042   0.979   4.031 -0.2617  0.8063 -0.4338
  600MOL0     H80952  -0.350   1.030   4.063  1.8636  0.7962 -1.7573
  600MOL0     H80953  -0.265   0.865   4.062  4.4790  1.5226  1.5865
  600MOL0     H80954  -0.452   0.979   4.294  0.7721  1.1598 -0.8698
  600MOL0     H80955  -0.336   0.840   4.300 -0.4637 -0.0792 -0.2378
  600MOL0     H80956  -0.591   0.801   4.264  0.3080  1.6710 -0.4546
  600MOL0     H80957  -0.481   0.716   4.150  2.4760  0.8513 -0.2324
  600MOL0     H80958  -0.543   0.899   3.985  1.2470  3.6393  1.1063
  600MOL0     H80959  -0.640   0.978   4.109 -2.4520  0.4575 -1.5811
  600MOL0     H80960  -0.882   0.624   3.934  2.6136 -1.5893 -2.9488
  600MOL0     H80961  -1.065   0.637   3.620  0.5004  3.1998 -0.7324
  600MOL0     H80962  -1.016   0.534   3.767 -1.1288  0.5387  0.2459
  600MOL0     H80963  -1.152   0.639   3.777 -2.1266  0.1221 -2.9061
  600MOL0     H80964  -1.312   1.115   3.623 -2.2110 -1.8574 -0.8796
  600MOL0     H80965  -1.470   1.225   3.474  1.8128 -0.4779  0.8708
  600MOL0     H80966  -1.365   1.288   3.049 -0.0363  1.5381  2.9074
  600MOL0     H80967  -1.405   1.119   3.034  0.1491  1.7915 -0.9461
  600MOL0     H80968  -1.651   1.158   3.035 -3.5196 -0.7845 -5.6351
  600MOL0     H80969  -1.618   1.336   3.034 -2.8284 -0.6562 -1.2975
  600MOL0     H80970  -1.511   1.126   2.843  1.5446  0.5476  0.2123
  600MOL0     H80971  -1.481   1.287   2.823 -0.3468 -1.5073 -1.7174
  600MOL0     H80972  -1.762   1.168   2.798 -0.3232  0.6971 -0.9229
  600MOL0     H80973  -1.736   1.344   2.818  1.7220  0.9543 -1.5958
  600MOL0     H80974  -1.603   1.161   2.601  1.0377  1.0243 -0.8628
  600MOL0     H80975  -1.572   1.329   2.616  0.1963 -0.7979 -1.5818
  600MOL0     H80976  -1.748   1.281   2.440  1.3659  2.1333  0.6943
  600MOL0     H80977  -1.855   1.202   2.552 -1.0522  0.7533  3.8523
  600MOL0     H80978  -1.745   1.481   2.627 -0.6006  2.3184 -2.7199
  600MOL0     H80979  -1.900   1.399   2.656 -1.1761  0.8196 -0.3459
  600MOL0     H80980  -1.817   1.514   2.383  2.8455 -0.5431  2.6064
  600MOL0     H80981  -1.916   1.600   2.493  2.2461  0.8772  1.7130
  600MOL0     H80982  -1.217   1.095   3.141  2.6105 -0.9620  0.5789
  600MOL0     H80983  -1.036   1.050   3.290 -1.9262 -2.0656 -0.7303
  600MOL0     H80984  -0.902   1.079   3.738 -1.2858  0.5892 -0.2456
  600MOL0     H80985  -0.739   1.032   3.900 -2.2554  2.5339 -3.3887
  600MOL0     H80986   0.994   1.325   4.545 -0.7801 -0.5740  0.8989
  600MOL0     H80987   1.229   1.388   4.568  1.0471 -3.0117 -1.0103
  600MOL0     H80988   1.541   1.508   4.699  0.2237  0.3364 -0.3685
  600MOL0     H80989   1.746   1.646   4.717 -1.4924 -0.2068  0.2715
  600MOL0     H80990   2.086   1.527   4.992 -0.8767  0.7306 -0.1047
  600MOL0     H80991   2.094   1.458   4.829 -1.3115 -0.9062  0.5588
  600MOL0     H80992   2.285   1.582   4.860  0.7585  0.5893 -2.9042
  600MOL0     H80993   2.196   1.744   4.899 -0.8821  1.6882 -1.6515
  600MOL0     H80994   2.103   1.724   4.670  0.5034  1.2684  0.2905
  600MOL0     H80995   2.203   1.577   4.646  1.2591 -1.6934  3.1722
  600MOL0     H80996   2.411   1.707   4.660  0.3270 -0.4115  0.7311
  600MOL0     H80997   2.322   1.847   4.707  1.1110 -0.2705  0.3238
  600MOL0     H80998   2.269   1.882   4.300  3.5131  1.5427  0.3951
  600MOL0     H80999   1.909   1.396   5.013  0.5614  1.7684  1.3828
  600MOL0     H81000   1.694   1.278   5.032 -0.0044  1.0298 -0.5103
  601MOL0     O81001   3.682   4.339   1.011  0.1112 -0.5082  0.3004
  601MOL0     C81002   3.697   4.463   1.026 -0.3526  0.2228 -0.2027
  601MOL0     O81003   3.612   4.562   0.972 -0.4366  0.1567  0.0666
  601MOL0     C81004   3.503   4.505   0.905  0.7642 -0.1522  0.6810
  601MOL0     C81005   3.513   4.464   0.768 -0.1246 -0.1677 -1.3109
  601MOL0     C81006   3.405   4.382   0.718  0.0691 -0.6153  0.6046
  601MOL0     C81007   3.285   4.367   0.782  0.7178  0.5175 -0.4795
  601MOL0     O81008   3.198   4.295   0.713  0.1538 -0.3555 -0.0925
  601MOL0     C81009   3.108   4.208   0.787 -0.3497 -0.1361  0.4018
  601MOL0     C81010   3.052   4.118   0.676  0.0997  0.3882 -0.4392
  601MOL0     C81011   2.954   4.018   0.724 -0.1846  0.9768 -0.4296
  601MOL0     C81012   2.905   3.929   0.605 -0.1461 -0.2631 -0.4020
  601MOL0     C81013   2.755   3.888   0.622 -0.5826  1.1621 -0.1983
  601MOL0     C81014   2.702   3.810   0.507 -0.0077  0.0111  0.2392
  601MOL0     C81015   2.786   3.697   0.458  0.2705  0.0856  0.0777
  601MOL0     C81016   2.711   3.591   0.381  0.3026 -0.7815 -0.4135
  601MOL0     N81017   2.603   3.535   0.465  0.5849  0.1575 -0.6198
  601MOL0     C81018   2.609   3.420   0.546 -0.4622 -0.6018 -0.2631
  601MOL0     C81019   2.491   3.421   0.609  0.1517 -0.9676  0.4886
  601MOL0     C81020   2.426   3.338   0.719  0.5222  0.2037  0.2485
  601MOL0     C81021   2.351   3.423   0.824 -0.0944 -1.3252 -0.5885
  601MOL0     C81022   2.443   3.519   0.900 -0.0058 -0.0580  0.7325
  601MOL0     C81023   2.577   3.455   0.959  0.8608  0.6286  0.5943
  601MOL0     O81024   2.551   3.329   1.024  0.2460  0.2079 -0.0059
  601MOL0     C81025   2.658   3.262   1.080  0.5759 -0.1321  0.1178
  601MOL0     C81026   2.789   3.281   1.050 -1.3776  0.1699  0.4084
  601MOL0     C81027   2.893   3.203   1.103  0.8324  0.5539  0.5012
  601MOL0     C81028   3.031   3.250   1.058 -0.3487  0.3278 -0.8677
  601MOL0     C81029   2.858   3.095   1.188  0.7987  0.6729  0.2417
  601MOL0     C81030   2.955   3.015   1.275 -0.1645  0.6346  0.1750
  601MOL0     O81031   2.901   2.916   1.350  0.5550 -0.2696 -0.6546
  601MOL0     C81032   2.986   2.842   1.432 -0.0604  0.6166  0.4160
  601MOL0     C81033   2.973   2.700   1.437 -0.5340 -0.1488  0.6140
  601MOL0     C81034   3.049   2.626   1.529  0.9603 -0.6181 -0.7738
  601MOL0     C81035   3.141   2.679   1.620 -0.7731 -0.3530  0.3942
  601MOL0     O81036   3.203   2.592   1.711  0.2472  0.1224  0.4109
  601MOL0     C81037   3.271   2.668   1.814 -0.0426  1.2103  0.7472
  601MOL0     C81038   3.316   2.564   1.923  0.2689  0.1397  1.2466
  601MOL0     C81039   3.373   2.642   2.036 -0.1546 -0.2711  0.8824
  601MOL0     C81040   3.384   2.561   2.164 -0.2922 -0.3622 -0.9626
  601MOL0     C81041   3.451   2.429   2.164  0.2594  0.6470 -0.2178
  601MOL0     C81042   3.590   2.420   2.098 -0.3198 -0.5581 -1.1270
  601MOL0     C81043   3.668   2.304   2.149  0.4039 -0.0407 -0.2644
  601MOL0     C81044   3.749   2.329   2.266  0.4788 -0.2769 -0.5789
  601MOL0    Cl81045   3.870   2.194   2.282 -0.1316  0.0333 -0.1783
  601MOL0     C81046   3.154   2.824   1.615 -0.7693  0.8027 -0.8644
  601MOL0     C81047   3.081   2.901   1.521  1.0882  0.4341 -0.4250
  601MOL0     O81048   3.074   3.053   1.281 -0.4432  0.6757 -1.2848
  601MOL0     C81049   2.723   3.069   1.201  0.8790  0.3981  0.4290
  601MOL0     C81050   2.625   3.159   1.157  0.5333 -0.5999 -0.0624
  601MOL0     N81051   2.411   3.518   0.544 -0.5503  0.1380 -0.6344
  601MOL0     N81052   2.470   3.573   0.450 -0.0307  0.5152  0.3621
  601MOL0     C81053   3.269   4.423   0.914  0.0741 -0.2668  0.1857
  601MOL0     C81054   3.383   4.481   0.969  0.3741 -0.4641 -0.0621
  601MOL0     C81055   3.817   4.521   1.096  0.1361  0.7435  1.0399
  601MOL0     C81056   3.928   4.440   1.147 -0.2856 -0.1178 -0.2918
  601MOL0     C81057   4.045   4.505   1.186  0.0481  1.1511 -1.2735
  601MOL0     C81058   4.057   4.642   1.184  0.3108  0.3784 -0.3470
  601MOL0     O81059   4.175   4.700   1.225  0.5194 -0.1768 -0.1673
  601MOL0     C81060   4.272   4.736   1.120 -0.6723 -0.4032 -0.2973
  601MOL0     C81061   4.336   4.610   1.061  0.2569  0.6653 -0.4458
  601MOL0     C81062   4.411   4.525   1.164  0.2887  0.8460 -0.7222
  601MOL0     C81063   4.545   4.594   1.212  0.3775  1.4239 -0.3302
  601MOL0     C81064   4.648   4.554   1.118  0.2535  0.0851  0.2430
  601MOL0     C81065   4.744   4.526   1.045  0.9105 -0.3045 -0.7659
  601MOL0     C81066   3.940   4.715   1.157 -0.3460  0.0279 -0.3988
  601MOL0     C81067   3.825   4.660   1.112  0.7551  0.6057  0.0109
  601MOL0     H81068   3.605   4.486   0.716  0.1504  0.7746 -0.4731
  601MOL0     H81069   3.418   4.335   0.621  1.1241 -0.0221  0.4423
  601MOL0     H81070   3.157   4.139   0.856  0.8594 -0.3128 -0.5922
  601MOL0     H81071   3.034   4.256   0.851 -2.2183 -1.5875 -0.5731
  601MOL0     H81072   3.004   4.183   0.602 -1.4138 -2.3533 -2.0519
  601MOL0     H81073   3.132   4.065   0.624 -1.2146 -0.9420 -1.2022
  601MOL0     H81074   3.000   3.952   0.798  0.6647  0.9208 -0.9824
  601MOL0     H81075   2.871   4.069   0.772 -1.0603  0.6522 -1.5513
  601MOL0     H81076   2.918   3.986   0.513 -1.2161 -0.4947 -0.7124
  601MOL0     H81077   2.959   3.834   0.594 -0.2090 -0.2798 -0.5601
  601MOL0     H81078   2.758   3.814   0.702 -0.0673  1.2739 -0.1092
  601MOL0     H81079   2.690   3.974   0.639 -0.1649  1.5042 -0.3152
  601MOL0     H81080   2.602   3.773   0.531 -0.6988  0.0938 -2.1656
  601MOL0     H81081   2.700   3.879   0.421  1.3975  0.0544  0.2098
  601MOL0     H81082   2.845   3.744   0.379 -4.5328  1.8972 -2.9028
  601MOL0     H81083   2.839   3.656   0.545 -0.6781 -0.3248  0.4786
  601MOL0     H81084   2.779   3.507   0.362  0.1319 -1.0628  0.2129
  601MOL0     H81085   2.666   3.621   0.286 -2.8818 -0.4381  1.1081
  601MOL0     H81086   2.698   3.361   0.565 -1.5552 -1.8850  1.0668
  601MOL0     H81087   2.351   3.273   0.671  0.7623 -2.0757  2.7560
  601MOL0     H81088   2.504   3.271   0.757 -0.1940 -0.6502  0.2620
  601MOL0     H81089   2.307   3.353   0.896 -0.9201  1.2881  1.6157
  601MOL0     H81090   2.271   3.481   0.776  1.4566  1.3945 -0.0928
  601MOL0     H81091   2.387   3.576   0.975 -0.1576  1.4929 -0.4820
  601MOL0     H81092   2.471   3.595   0.826 -2.2304  0.1856  0.0517
  601MOL0     H81093   2.627   3.527   1.025 -0.7674  0.1756  2.3967
  601MOL0     H81094   2.633   3.427   0.870 -2.4102 -0.4437 -1.2821
  601MOL0     H81095   2.809   3.356   0.975 -0.2921 -0.6918 -0.1981
  601MOL0     H81096   3.029   3.344   1.003  1.5929 -0.9601 -3.3285
  601MOL0     H81097   3.096   3.262   1.145  0.3494 -0.0422 -1.3362
  601MOL0     H81098   3.072   3.177   0.987 -0.9123 -0.6103 -0.2560
  601MOL0     H81099   2.897   2.640   1.388  0.7395  0.8734 -2.8850
  601MOL0     H81100   3.028   2.520   1.533 -0.4132 -0.3367  0.1530
  601MOL0     H81101   3.363   2.716   1.781  2.4031 -2.1757  2.1176
  601MOL0     H81102   3.198   2.738   1.856  1.3288  2.9879  0.2492
  601MOL0     H81103   3.223   2.522   1.962 -0.6053 -0.6378 -1.4396
  601MOL0     H81104   3.376   2.480   1.886 -0.7879 -0.9271  1.8840
  601MOL0     H81105   3.316   2.732   2.061  0.7747 -0.4427  4.1193
  601MOL0     H81106   3.470   2.684   2.005 -1.4281  2.7025  0.5371
  601MOL0     H81107   3.442   2.618   2.237  1.6132 -0.8786 -2.0046
  601MOL0     H81108   3.280   2.563   2.198 -0.6298  0.1008 -1.9599
  601MOL0     H81109   3.391   2.344   2.129  1.7938 -1.4427  1.9279
  601MOL0     H81110   3.468   2.404   2.269 -0.2892 -1.6824 -0.6291
  601MOL0     H81111   3.569   2.411   1.991 -1.6219  0.1005 -0.9483
  601MOL0     H81112   3.642   2.516   2.107 -1.4485 -0.0814  1.3112
  601MOL0     H81113   3.736   2.274   2.068  0.5557  0.8336 -0.4627
  601MOL0     H81114   3.606   2.215   2.164 -0.3785  0.5703  0.1521
  601MOL0     H81115   3.683   2.335   2.353  1.1080  1.6414 -0.1777
  601MOL0     H81116   3.804   2.423   2.255 -0.0930  0.2113  0.5951
  601MOL0     H81117   3.218   2.878   1.684 -1.7771 -2.4690  2.9481
  601MOL0     H81118   3.087   3.010   1.520  2.0965  0.3912 -0.3404
  601MOL0     H81119   2.684   2.997   1.274 -0.2958 -0.4338 -0.9576
  601MOL0     H81120   2.523   3.150   1.192 -0.3737  2.1292 -1.6714
  601MOL0     H81121   3.182   4.415   0.979 -1.4942  0.0680 -1.7662
  601MOL0     H81122   3.368   4.519   1.070 -1.0182 -1.1949  0.0423
  601MOL0     H81123   3.930   4.331   1.146  1.3874 -0.1192 -1.6076
  601MOL0     H81124   4.128   4.446   1.225 -1.8378  0.6339  2.4149
  601MOL0     H81125   4.220   4.783   1.035  0.0169 -0.4908 -0.7777
  601MOL0     H81126   4.346   4.813   1.144 -1.4766  0.1691  0.4064
  601MOL0     H81127   4.407   4.630   0.980  0.8395 -2.1402 -0.7362
  601MOL0     H81128   4.270   4.550   0.998  1.3748  0.5358 -1.5391
  601MOL0     H81129   4.436   4.427   1.124  0.8169  0.7566 -0.2006
  601MOL0     H81130   4.350   4.509   1.254  1.9708 -2.9506 -0.0622
  601MOL0     H81131   4.570   4.559   1.312 -1.4737 -0.3550 -0.4378
  601MOL0     H81132   4.541   4.703   1.216  0.4987  1.4628 -1.0445
  601MOL0     H81133   4.836   4.510   0.993  1.3077 -1.1623  0.1907
  601MOL0     H81134   3.940   4.819   1.188  0.0719 -0.1468  0.2066
  601MOL0     H81135   3.741   4.728   1.098 -0.7277 -1.0559  0.4231
  602MOL0     O81136  10.670   5.204   9.199 -0.4918 -0.3940  0.1116
  602MOL0     C81137  10.691   5.195   9.320  0.7000 -0.0534 -0.3965
  602MOL0     O81138  10.642   5.092   9.404 -0.0713 -0.0700  0.6998
  602MOL0     C81139  10.540   5.024   9.353  0.3976  0.0987 -0.4503
  602MOL0     C81140  10.426   5.094   9.296 -1.7095  0.1679  0.1415
  602MOL0     C81141  10.312   5.027   9.261  0.8771 -0.3035  0.1593
  602MOL0     C81142  10.303   4.888   9.285  0.9848  0.3831  0.2491
  602MOL0     O81143  10.192   4.819   9.248  0.3022 -0.4717 -0.1514
  602MOL0     C81144  10.205   4.677   9.217 -1.2284  0.0995  0.2229
  602MOL0     C81145  10.091   4.616   9.132  0.8272 -0.3157  0.1028
  602MOL0     C81146   9.959   4.591   9.215 -1.0712  0.3937  0.7174
  602MOL0     C81147   9.885   4.716   9.259 -0.7980 -0.2875 -0.2872
  602MOL0     C81148   9.766   4.675   9.353  0.8932  0.3689  0.0948
  602MOL0     C81149   9.696   4.797   9.408  0.0487  0.4449  0.2422
  602MOL0     C81150   9.600   4.761   9.526  0.1029 -0.3945  0.8310
  602MOL0     C81151   9.478   4.675   9.497 -0.7910  0.7278  0.2873
  602MOL0     N81152   9.384   4.723   9.391  0.1013 -0.5126  0.1083
  602MOL0     C81153   9.401   4.700   9.254 -0.5519 -0.1330 -0.8713
  602MOL0     C81154   9.299   4.776   9.206  0.3619  0.1993  0.4215
  602MOL0     C81155   9.278   4.794   9.060  0.2386  0.2586 -0.4090
  602MOL0     C81156   9.154   4.711   8.999 -0.2314  0.1695 -0.3756
  602MOL0     C81157   9.027   4.781   9.032  1.2827 -0.4047 -0.3944
  602MOL0     C81158   8.913   4.703   8.968  0.4222 -1.1636  0.2642
  602MOL0     O81159   8.788   4.775   8.989 -0.2548  0.4309 -0.0114
  602MOL0     C81160   8.695   4.735   9.082  0.0474  0.1756 -0.1182
  602MOL0     C81161   8.702   4.617   9.154  0.6806 -0.2224  0.0855
  602MOL0     C81162   8.585   4.576   9.228  0.6092  0.6362 -0.0754
  602MOL0     C81163   8.599   4.436   9.298  0.0727  0.1512 -0.4498
  602MOL0     C81164   8.467   4.654   9.222  0.6597  0.5749  0.0812
  602MOL0     C81165   8.327   4.608   9.283  0.2401 -0.3200  0.5993
  602MOL0     O81166   8.222   4.638   9.198  0.3293 -0.2872  0.2866
  602MOL0     C81167   8.105   4.563   9.220 -0.1973  0.3838 -0.1499
  602MOL0     C81168   8.066   4.501   9.100 -0.3826 -0.7961  0.6723
  602MOL0     C81169   7.945   4.424   9.107  0.1666 -0.1364 -0.2678
  602MOL0     C81170   7.868   4.439   9.220  0.9508 -0.1198 -0.0695
  602MOL0     O81171   7.739   4.384   9.228 -0.6332 -0.2575  0.3772
  602MOL0     C81172   7.658   4.423   9.113  1.0277  0.0433 -0.3487
  602MOL0     C81173   7.524   4.366   9.152 -0.0664 -0.4607  0.7306
  602MOL0     C81174   7.418   4.376   9.043 -0.4407  0.0220  0.3333
  602MOL0     C81175   7.424   4.243   8.960  0.1205 -0.6332 -0.0474
  602MOL0     C81176   7.304   4.241   8.858  0.8145  0.4269 -0.3770
  602MOL0     C81177   7.186   4.164   8.923  0.1060  0.2935 -0.2923
  602MOL0     C81178   7.216   4.028   9.000  0.2946 -0.4594 -0.4302
  602MOL0     C81179   7.093   3.941   9.004 -0.7639 -0.3688 -0.5446
  602MOL0    Cl81180   7.061   3.852   8.849  0.1531  0.0422 -0.1886
  602MOL0     C81181   7.906   4.514   9.337 -0.5077  0.6044 -0.0594
  602MOL0     C81182   8.028   4.578   9.341  0.4190 -0.0737  0.0109
  602MOL0     O81183   8.316   4.529   9.377 -0.2333 -0.6430  0.7903
  602MOL0     C81184   8.468   4.781   9.164  0.5679 -0.2156 -0.4485
  602MOL0     C81185   8.580   4.821   9.096 -0.4812  0.0234  0.8721
  602MOL0     N81186   9.223   4.830   9.308 -0.0894  0.0987 -0.2513
  602MOL0     N81187   9.276   4.804   9.418  0.1709 -0.0951 -0.3057
  602MOL0     C81188  10.421   4.821   9.322  0.5872 -0.2730 -1.0869
  602MOL0     C81189  10.538   4.883   9.364  0.0094 -0.2354 -0.1334
  602MOL0     C81190  10.792   5.290   9.381  0.6734 -0.9571  0.4778
  602MOL0     C81191  10.818   5.292   9.516 -0.3009  0.0515  0.1244
  602MOL0     C81192  10.909   5.381   9.577  0.6515 -0.2262  0.1599
  602MOL0     C81193  10.973   5.482   9.499 -0.7725  0.0048  0.8796
  602MOL0     O81194  11.067   5.572   9.546  0.1345 -0.2319  0.4183
  602MOL0     C81195  11.113   5.564   9.682  0.0116 -0.3641 -0.3031
  602MOL0     C81196  11.016   5.614   9.780 -0.3278 -0.3334 -0.5346
  602MOL0     C81197  11.028   5.754   9.838 -0.2337  0.3676 -0.0470
  602MOL0     C81198  11.016   5.866   9.730  0.3062 -0.6182  0.1930
  602MOL0     C81199  10.872   5.872   9.682  0.0714  0.6344 -0.0381
  602MOL0     C81200  10.755   5.892   9.669 -0.2028 -0.3565  0.2872
  602MOL0     C81201  10.942   5.487   9.361  0.6444 -0.0267  0.5415
  602MOL0     C81202  10.862   5.390   9.306 -0.6453 -0.7939 -0.2893
  602MOL0     H81203  10.432   5.203   9.296  0.9028  0.1051 -1.3263
  602MOL0     H81204  10.229   5.088   9.230  1.0135 -0.4586 -0.5125
  602MOL0     H81205  10.298   4.667   9.160  0.5174  1.6043  2.6036
  602MOL0     H81206  10.221   4.623   9.310  0.0017 -0.1917 -0.1455
  602MOL0     H81207  10.073   4.673   9.040 -2.3602 -1.4820 -0.1375
  602MOL0     H81208  10.122   4.519   9.092 -1.4026 -0.4637 -1.4601
  602MOL0     H81209   9.896   4.529   9.150  0.5059 -1.1078  0.5406
  602MOL0     H81210   9.988   4.530   9.302 -0.7082 -1.6608 -0.7575
  602MOL0     H81211   9.952   4.789   9.306 -0.2930  0.4648 -2.0818
  602MOL0     H81212   9.843   4.771   9.175 -0.3954  2.4788  1.2005
  602MOL0     H81213   9.694   4.609   9.304 -2.2180  1.2138  3.1676
  602MOL0     H81214   9.796   4.604   9.429  0.7293  0.5992  0.3784
  602MOL0     H81215   9.769   4.865   9.451  0.1750  1.0384 -0.8691
  602MOL0     H81216   9.647   4.840   9.320 -0.8669 -1.7902 -0.4174
  602MOL0     H81217   9.656   4.722   9.611 -0.0352  0.2489  1.2241
  602MOL0     H81218   9.555   4.853   9.566 -1.6713 -0.3676 -1.0786
  602MOL0     H81219   9.416   4.653   9.584 -1.9489  1.3204 -0.3622
  602MOL0     H81220   9.511   4.579   9.456  1.3447  2.3213 -2.0038
  602MOL0     H81221   9.473   4.642   9.197 -0.8656 -2.8554  1.2777
  602MOL0     H81222   9.269   4.901   9.036 -2.0812  0.8874  2.6743
  602MOL0     H81223   9.363   4.753   9.005  0.8067  0.7915  0.0617
  602MOL0     H81224   9.138   4.607   9.027  0.1084  0.2222  0.0038
  602MOL0     H81225   9.159   4.715   8.889 -2.9860  1.3930 -0.5556
  602MOL0     H81226   9.018   4.880   8.987 -0.7380 -0.5072 -0.3105
  602MOL0     H81227   9.016   4.773   9.140 -0.2707 -0.0743 -0.5124
  602MOL0     H81228   8.918   4.599   9.002 -0.6611 -1.1635  0.4579
  602MOL0     H81229   8.948   4.687   8.866  1.8715  0.3960  0.4577
  602MOL0     H81230   8.790   4.554   9.156  0.2565 -0.8168  0.7914
  602MOL0     H81231   8.519   4.377   9.252 -0.0799  1.2854 -1.7201
  602MOL0     H81232   8.698   4.394   9.280  1.2168  1.8026  1.5803
  602MOL0     H81233   8.591   4.453   9.406 -0.2662 -2.1519 -0.0676
  602MOL0     H81234   8.124   4.502   9.008 -1.2471 -0.5546  0.1246
  602MOL0     H81235   7.911   4.371   9.019 -1.0804  1.2250 -0.6459
  602MOL0     H81236   7.652   4.532   9.102  4.9627  0.7022  1.9672
  602MOL0     H81237   7.695   4.379   9.020 -2.3729 -0.2282 -1.7135
  602MOL0     H81238   7.538   4.265   9.192  0.3096  0.1418  2.2040
  602MOL0     H81239   7.494   4.428   9.237  1.0065 -0.6194  1.2357
  602MOL0     H81240   7.426   4.466   8.981 -0.9598 -1.2161 -1.6131
  602MOL0     H81241   7.320   4.374   9.091 -1.3602 -0.9089 -1.4705
  602MOL0     H81242   7.517   4.241   8.902 -0.4620 -1.2579 -0.9755
  602MOL0     H81243   7.426   4.155   9.025 -1.1467 -0.9643 -0.4382
  602MOL0     H81244   7.335   4.191   8.766 -0.6164 -2.4516  0.5781
  602MOL0     H81245   7.278   4.340   8.818 -0.0925  0.4774  0.3003
  602MOL0     H81246   7.132   4.231   8.991 -0.8315  0.0229 -0.7457
  602MOL0     H81247   7.120   4.127   8.844  1.0166  0.6886 -1.2553
  602MOL0     H81248   7.247   4.056   9.101 -0.4831  0.4880 -0.4370
  602MOL0     H81249   7.299   3.980   8.948 -1.1586 -0.7445 -2.6087
  602MOL0     H81250   7.008   3.996   9.045 -0.7022 -0.9871  0.4649
  602MOL0     H81251   7.122   3.865   9.078  1.3095  0.2810 -0.6341
  602MOL0     H81252   7.843   4.520   9.425 -1.4182 -0.2942 -0.6219
  602MOL0     H81253   8.060   4.635   9.429  0.3578 -1.8182  1.2041
  602MOL0     H81254   8.374   4.834   9.152 -0.5336 -2.1742 -0.9150
  602MOL0     H81255   8.580   4.903   9.025  0.2189  0.3418  1.2227
  602MOL0     H81256  10.412   4.714   9.335  0.3806 -0.0053  1.6248
  602MOL0     H81257  10.622   4.827   9.402  0.2275  0.4277  0.3770
  602MOL0     H81258  10.768   5.213   9.571  1.0833 -0.5565  0.5441
  602MOL0     H81259  10.920   5.372   9.685 -0.7987  0.2541  0.3658
  602MOL0     H81260  11.159   5.467   9.704  1.8582  0.4500 -0.4096
  602MOL0     H81261  11.201   5.628   9.682  3.3894 -4.5740 -1.8929
  602MOL0     H81262  11.017   5.558   9.874  1.3285  0.9779  0.2701
  602MOL0     H81263  10.919   5.601   9.730 -0.7592  0.4516  0.0602
  602MOL0     H81264  11.126   5.771   9.884  0.7932  0.1573 -2.0593
  602MOL0     H81265  10.951   5.768   9.915 -1.7020  4.5461 -2.0209
  602MOL0     H81266  11.081   5.839   9.647  2.5129  1.0157  1.2968
  602MOL0     H81267  11.041   5.961   9.779  0.9766  0.2761 -1.7944
  602MOL0     H81268  10.659   5.939   9.666  0.1184  0.3755  1.0396
  602MOL0     H81269  10.995   5.561   9.301 -2.3549  3.0718  1.3894
  602MOL0     H81270  10.859   5.396   9.197  0.2207  1.1701 -0.2534
  603MOL0     O81271   3.203   8.941   2.196  0.3132  0.9059  0.6107
  603MOL0     C81272   3.313   8.970   2.236  0.5999 -0.3548 -0.1229
  603MOL0     O81273   3.347   9.101   2.269  0.3490  0.4277 -0.1789
  603MOL0     C81274   3.258   9.200   2.281 -0.7569  0.4415 -0.7098
  603MOL0     C81275   3.124   9.181   2.318 -0.0404  0.1883 -0.3224
  603MOL0     C81276   3.027   9.285   2.305  0.6485 -0.1050 -0.5767
  603MOL0     C81277   3.069   9.403   2.243  0.6067  0.0078 -0.8162
  603MOL0     O81278   2.975   9.493   2.202 -0.2547  0.0933  0.0240
  603MOL0     C81279   2.843   9.470   2.229  0.1199 -0.6942  0.6552
  603MOL0     C81280   2.756   9.588   2.181  0.0349  0.2873  0.1162
  603MOL0     C81281   2.771   9.707   2.276  0.4293 -0.2275 -0.3595
  603MOL0     C81282   2.681   9.831   2.237  0.1958  0.4692 -0.0106
  603MOL0     C81283   2.544   9.791   2.189 -0.1422  0.7120  0.4768
  603MOL0     C81284   2.466   9.909   2.151 -0.0949  0.8105 -0.4664
  603MOL0     C81285   2.521   9.986   2.031 -0.2444  0.4816 -0.3686
  603MOL0     C81286   2.412  10.067   1.964  0.7008  0.0186 -0.2904
  603MOL0     N81287   2.357  10.166   2.060  0.9495 -0.3683  0.3639
  603MOL0     C81288   2.380  10.301   2.084  0.5642  0.0471 -0.0878
  603MOL0     C81289   2.267  10.352   2.145 -0.0141 -0.1911  0.6196
  603MOL0     C81290   2.254  10.494   2.184 -0.5870  0.0422  0.1571
  603MOL0     C81291   2.149  10.566   2.090 -0.2368 -0.5577 -0.1062
  603MOL0     C81292   2.210  10.603   1.955 -0.8674  0.4281 -0.4148
  603MOL0     C81293   2.108  10.669   1.868  0.3193  0.9564 -0.0288
  603MOL0     O81294   2.022  10.570   1.814 -0.0353  0.1293 -0.1669
  603MOL0     C81295   1.899  10.610   1.759  0.0666 -0.8111  0.4386
  603MOL0     C81296   1.891  10.693   1.648  0.9223 -0.5226 -0.7654
  603MOL0     C81297   1.765  10.720   1.590 -0.4229 -0.2654  0.3949
  603MOL0     C81298   1.766  10.833   1.488  0.1940  0.2987 -0.6808
  603MOL0     C81299   1.646  10.669   1.647  0.2616  0.2011  0.3800
  603MOL0     C81300   1.502  10.696   1.598 -0.1492  0.5451  0.6620
  603MOL0     O81301   1.392  10.661   1.671 -0.9894 -0.1409 -0.1945
  603MOL0     C81302   1.267  10.683   1.626 -0.3447  0.5531 -0.7229
  603MOL0     C81303   1.216  10.795   1.562 -0.4922 -0.1908  0.2778
  603MOL0     C81304   1.083  10.794   1.529 -0.6314 -0.3421 -0.2239
  603MOL0     C81305   0.995  10.701   1.574 -0.3839  0.3268 -0.2492
  603MOL0     O81306   0.864  10.734   1.541 -0.1993  0.4580 -0.5531
  603MOL0     C81307   0.761  10.705   1.641 -0.5051 -0.2070  0.4731
  603MOL0     C81308   0.631  10.741   1.583  0.0230 -0.0494 -0.4577
  603MOL0     C81309   0.529  10.712   1.702  0.1186  0.5095 -0.3584
  603MOL0     C81310   0.390  10.742   1.646 -0.2883  0.0225 -0.9112
  603MOL0     C81311   0.295  10.769   1.770 -0.1109  0.2159  0.6670
  603MOL0     C81312   0.151  10.745   1.740  0.0696 -0.3097 -0.6228
  603MOL0     C81313   0.118  10.821   1.607 -0.8030 -0.6593  0.6292
  603MOL0     C81314   0.158  10.970   1.617  0.1229 -0.5835  0.7069
  603MOL0    Cl81315   0.066  11.057   1.746 -0.0150  0.3702  0.1249
  603MOL0     C81316   1.045  10.600   1.654  0.1068  0.1745  0.0398
  603MOL0     C81317   1.180  10.588   1.683 -0.2027 -0.1702 -0.2779
  603MOL0     O81318   1.496  10.745   1.480 -0.2494  0.0525  0.0918
  603MOL0     C81319   1.664  10.593   1.765 -0.4402 -0.0298 -0.4328
  603MOL0     C81320   1.788  10.554   1.816  0.6889  0.2055 -0.5344
  603MOL0     N81321   2.180  10.247   2.172 -0.2348 -0.0836 -0.8535
  603MOL0     N81322   2.240  10.136   2.130 -0.1200  0.3435  0.6176
  603MOL0     C81323   3.200   9.432   2.216  0.4471  0.2915 -0.3552
  603MOL0     C81324   3.292   9.327   2.237 -0.3386 -0.9637 -0.4256
  603MOL0     C81325   3.407   8.861   2.240  0.6127 -0.1815  0.5898
  603MOL0     C81326   3.362   8.731   2.236  0.1034  0.1410 -0.3194
  603MOL0     C81327   3.447   8.624   2.226 -0.0471  0.2397  0.4330
  603MOL0     C81328   3.590   8.643   2.235  0.0964  0.9152  0.1781
  603MOL0     O81329   3.665   8.530   2.241 -0.7726 -0.1407 -0.1330
  603MOL0     C81330   3.818   8.554   2.264  0.8549 -0.5442  0.2815
  603MOL0     C81331   3.894   8.428   2.231  0.4339  0.0343 -0.4803
  603MOL0     C81332   3.876   8.345   2.359 -0.2003 -0.6443 -0.8590
  603MOL0     C81333   3.914   8.198   2.329 -0.7361 -0.4257  0.1496
  603MOL0     C81334   3.798   8.124   2.267 -0.0359 -0.4972  0.7546
  603MOL0     C81335   3.698   8.079   2.202  0.1510  0.2621 -0.0193
  603MOL0     C81336   3.631   8.776   2.258  0.4021 -0.6242 -0.3752
  603MOL0     C81337   3.545   8.889   2.255  0.1015  1.2971  0.0478
  603MOL0     H81338   3.101   9.089   2.370  2.4578 -0.5716 -0.4233
  603MOL0     H81339   2.925   9.256   2.329 -0.4649  1.4334 -3.0417
  603MOL0     H81340   2.809   9.383   2.171 -0.5474 -0.9685  1.4467
  603MOL0     H81341   2.821   9.460   2.335 -1.7391 -1.2174  0.2568
  603MOL0     H81342   2.781   9.624   2.081  0.6522  0.1281  0.2129
  603MOL0     H81343   2.651   9.556   2.186 -0.0058 -0.7253 -3.8008
  603MOL0     H81344   2.742   9.678   2.378  0.5220 -1.4178 -0.6658
  603MOL0     H81345   2.879   9.727   2.277  0.3021  0.7890 -2.4922
  603MOL0     H81346   2.691   9.899   2.322  1.7514  0.0097  0.2105
  603MOL0     H81347   2.730   9.875   2.149  0.2032 -2.0335 -1.3536
  603MOL0     H81348   2.543   9.715   2.110 -2.0727 -0.0973  1.2210
  603MOL0     H81349   2.506   9.738   2.276  1.4288 -1.5777 -0.1564
  603MOL0     H81350   2.364   9.872   2.135  0.2245 -0.5634  0.5357
  603MOL0     H81351   2.454   9.976   2.237 -0.1150  1.2443 -0.8032
  603MOL0     H81352   2.604  10.052   2.055  1.0105 -1.4224  0.8243
  603MOL0     H81353   2.558   9.919   1.953 -1.2000  0.2119 -0.6037
  603MOL0     H81354   2.329  10.000   1.938 -0.5863  1.8146 -1.0234
  603MOL0     H81355   2.446  10.114   1.871  0.0318 -1.7130 -1.4669
  603MOL0     H81356   2.467  10.361   2.056  0.0104  1.3690  0.9283
  603MOL0     H81357   2.223  10.508   2.288 -0.5392 -0.3243  0.2225
  603MOL0     H81358   2.356  10.532   2.173 -0.5767  0.5121  1.6619
  603MOL0     H81359   2.113  10.657   2.140 -0.9520 -0.2295 -1.1697
  603MOL0     H81360   2.067  10.494   2.086 -0.5173 -0.2262 -0.4068
  603MOL0     H81361   2.244  10.510   1.908 -0.6611  0.5409 -0.4918
  603MOL0     H81362   2.303  10.660   1.966  0.4539 -1.9549  1.8033
  603MOL0     H81363   2.160  10.719   1.785  1.8831 -1.3845 -0.5858
  603MOL0     H81364   2.047  10.743   1.920 -0.1314 -0.1970  1.1223
  603MOL0     H81365   1.980  10.728   1.597  1.2315 -2.1469 -1.4274
  603MOL0     H81366   1.709  10.912   1.539  0.0626  0.2556 -0.7618
  603MOL0     H81367   1.867  10.870   1.465  2.0934 -2.6329  2.0037
  603MOL0     H81368   1.721  10.794   1.397  1.9748 -3.2517 -0.2143
  603MOL0     H81369   1.280  10.881   1.545  2.3178 -2.2759 -0.3945
  603MOL0     H81370   1.051  10.882   1.474 -1.3064 -0.0877  0.5495
  603MOL0     H81371   0.771  10.600   1.671  0.0732 -0.4288 -0.4335
  603MOL0     H81372   0.776  10.764   1.732 -1.9055  0.7044  0.1352
  603MOL0     H81373   0.616  10.849   1.570 -0.0345  0.1450  1.0549
  603MOL0     H81374   0.606  10.690   1.490  1.8040 -1.8245 -0.0287
  603MOL0     H81375   0.547  10.789   1.777 -3.6087  0.1117  1.1432
  603MOL0     H81376   0.550  10.610   1.736  1.3823  1.3355  1.4582
  603MOL0     H81377   0.390  10.830   1.582 -2.4429  0.7388 -0.0049
  603MOL0     H81378   0.354  10.660   1.582 -0.8584 -0.4042 -0.0606
  603MOL0     H81379   0.312  10.871   1.808  2.5476  0.6543 -1.4073
  603MOL0     H81380   0.330  10.702   1.849  1.6639  0.2724 -0.0292
  603MOL0     H81381   0.152  10.637   1.725 -0.9067 -0.2019 -1.5825
  603MOL0     H81382   0.096  10.789   1.824  1.4423  2.9075 -1.2447
  603MOL0     H81383   0.011  10.818   1.585 -0.6334  0.6016 -0.4362
  603MOL0     H81384   0.179  10.778   1.527  3.1261  1.1164  2.3919
  603MOL0     H81385   0.137  11.017   1.520  1.4411 -0.1128  0.6334
  603MOL0     H81386   0.265  10.986   1.629  0.6419 -1.9551 -1.5650
  603MOL0     H81387   0.976  10.532   1.702  0.6376  0.1861  0.8267
  603MOL0     H81388   1.228  10.506   1.735 -0.4079 -0.1611 -0.0713
  603MOL0     H81389   1.579  10.564   1.826  0.0766  2.0055  1.3667
  603MOL0     H81390   1.791  10.491   1.904 -1.4559 -0.5416 -0.9382
  603MOL0     H81391   3.233   9.528   2.179  1.2903  0.3918  0.6169
  603MOL0     H81392   3.397   9.340   2.210 -0.7102 -0.7288 -1.8110
  603MOL0     H81393   3.257   8.703   2.241  0.1521 -0.2950 -1.5013
  603MOL0     H81394   3.413   8.522   2.215  0.8690 -0.0858  0.5318
  603MOL0     H81395   3.859   8.620   2.187  1.8447 -0.9247  0.4672
  603MOL0     H81396   3.830   8.592   2.366 -1.9862 -1.8133  1.1900
  603MOL0     H81397   3.995   8.461   2.206 -0.5967  1.0954 -3.6713
  603MOL0     H81398   3.856   8.362   2.153 -1.0527 -1.5395  1.4623
  603MOL0     H81399   3.776   8.342   2.403  0.2924 -1.4389  0.2493
  603MOL0     H81400   3.941   8.385   2.438  1.2793 -0.9944 -1.8521
  603MOL0     H81401   3.929   8.155   2.428 -2.9427 -1.1370  0.2359
  603MOL0     H81402   4.001   8.171   2.268  1.1910  0.1096  2.4971
  603MOL0     H81403   3.609   8.048   2.150 -0.4416  1.6623  0.1058
  603MOL0     H81404   3.736   8.794   2.276  0.3122 -1.0707  0.6688
  603MOL0     H81405   3.588   8.987   2.270  4.1555 -0.3225  0.3037
  604MOL0     O81406   9.758   0.107   2.216  0.0909 -0.3547  0.0777
  604MOL0     C81407   9.695   0.063   2.120 -1.3777 -0.9744 -0.1923
  604MOL0     O81408   9.579  -0.013   2.119  0.0328 -0.7397 -0.0276
  604MOL0     C81409   9.514  -0.059   2.233  0.2929 -0.0967  0.9539
  604MOL0     C81410   9.548  -0.030   2.371 -0.1169 -0.6060  0.5382
  604MOL0     C81411   9.481  -0.084   2.473 -0.3576  0.3951  0.0548
  604MOL0     C81412   9.363  -0.160   2.449 -0.1258 -0.2744 -0.7671
  604MOL0     O81413   9.292  -0.215   2.553 -0.1200  0.1301 -0.4270
  604MOL0     C81414   9.295  -0.150   2.678  0.2945 -0.0814  0.0246
  604MOL0     C81415   9.166  -0.190   2.763 -0.6028  0.0199  0.3680
  604MOL0     C81416   9.038  -0.137   2.698  0.2399 -0.1259  0.1293
  604MOL0     C81417   8.919  -0.136   2.803  0.6097  0.3950 -0.1135
  604MOL0     C81418   8.878  -0.277   2.848 -0.2232 -0.6618 -0.1441
  604MOL0     C81419   8.766  -0.339   2.768  0.2323 -0.4449  0.1446
  604MOL0     C81420   8.626  -0.297   2.795 -0.0432 -0.3377  0.1256
  604MOL0     C81421   8.554  -0.369   2.913 -0.3243  0.3294  0.2869
  604MOL0     N81422   8.564  -0.518   2.902 -0.3196 -0.6268 -0.3448
  604MOL0     C81423   8.488  -0.585   2.807 -0.0103  1.2136 -0.1815
  604MOL0     C81424   8.517  -0.718   2.829  0.2809  0.8791 -0.3474
  604MOL0     C81425   8.478  -0.840   2.759  0.4853 -0.1754  0.3549
  604MOL0     C81426   8.330  -0.871   2.767  0.7231 -0.1330  0.6975
  604MOL0     C81427   8.276  -0.893   2.904  0.1969  0.2737 -0.2150
  604MOL0     C81428   8.125  -0.921   2.908 -0.3584 -1.3914 -0.0579
  604MOL0     O81429   8.055  -0.818   2.853  0.5290 -0.6657 -0.0218
  604MOL0     C81430   7.916  -0.833   2.836  0.4330  0.7120 -0.4443
  604MOL0     C81431   7.823  -0.737   2.868 -0.0085 -0.3060  0.2849
  604MOL0     C81432   7.689  -0.762   2.845 -0.1823 -0.6160  0.1745
  604MOL0     C81433   7.604  -0.641   2.890 -0.6198 -0.6757  0.3644
  604MOL0     C81434   7.645  -0.877   2.791  0.0668  0.0348  0.0212
  604MOL0     C81435   7.499  -0.905   2.756 -0.0595  0.0882 -0.4991
  604MOL0     O81436   7.478  -1.029   2.702  0.2406  0.0586 -0.6563
  604MOL0     C81437   7.353  -1.062   2.666  0.1380  0.3431  0.4594
  604MOL0     C81438   7.327  -1.096   2.535 -0.5048  0.2398 -0.6287
  604MOL0     C81439   7.198  -1.133   2.504 -0.1963  0.6203 -0.6628
  604MOL0     C81440   7.091  -1.109   2.594 -0.7418 -0.6135  0.5392
  604MOL0     O81441   6.963  -1.117   2.543  0.1952  0.2454  0.2771
  604MOL0     C81442   6.861  -1.036   2.613  0.1245  0.2135 -0.6734
  604MOL0     C81443   6.735  -1.012   2.537  0.2123 -0.4561  0.3180
  604MOL0     C81444   6.648  -0.905   2.598  0.0654  0.4445  0.1969
  604MOL0     C81445   6.503  -0.913   2.550 -0.2976 -0.6336  1.2477
  604MOL0     C81446   6.422  -0.801   2.611  0.5211 -0.0231  0.2538
  604MOL0     C81447   6.278  -0.803   2.556  0.4580  0.2798 -0.3102
  604MOL0     C81448   6.180  -0.699   2.615 -0.7437  0.1716 -0.0005
  604MOL0     C81449   6.039  -0.735   2.575  0.2301 -0.7691 -0.9685
  604MOL0    Cl81450   5.920  -0.642   2.671 -0.1139 -0.0979  0.0421
  604MOL0     C81451   7.115  -1.074   2.728 -0.2709  0.8188  0.4950
  604MOL0     C81452   7.251  -1.061   2.767  0.3116 -0.6031  0.4078
  604MOL0     O81453   7.413  -0.815   2.765  0.7554  0.0231  0.4238
  604MOL0     C81454   7.738  -0.978   2.766  0.4778  0.6377  1.1247
  604MOL0     C81455   7.871  -0.955   2.782  0.3150 -0.6233  0.7530
  604MOL0     N81456   8.596  -0.724   2.942 -0.6193  0.0869 -0.2002
  604MOL0     N81457   8.622  -0.605   2.989 -0.1844 -0.2447  0.0379
  604MOL0     C81458   9.321  -0.189   2.325  0.4374 -0.5376 -0.1680
  604MOL0     C81459   9.399  -0.137   2.214  0.4507  0.1384 -0.0212
  604MOL0     C81460   9.760   0.093   1.989  0.0196 -0.3679 -0.1531
  604MOL0     C81461   9.713   0.029   1.871 -0.7187 -0.0539 -0.6992
  604MOL0     C81462   9.784   0.044   1.753  0.1058  0.1157  0.3593
  604MOL0     C81463   9.894   0.130   1.741 -0.4952 -0.4908  1.4555
  604MOL0     O81464   9.951   0.157   1.615 -0.2977 -0.0105  0.5126
  604MOL0     C81465  10.081   0.223   1.590 -0.0655  0.1844  0.0455
  604MOL0     C81466  10.059   0.371   1.607 -1.0879  0.0621  0.4252
  604MOL0     C81467  10.196   0.449   1.583  0.1418  0.5596  0.8868
  604MOL0     C81468  10.206   0.599   1.603  0.4923 -0.3643 -0.1801
  604MOL0     C81469  10.106   0.674   1.532  0.3878  0.1950  0.0036
  604MOL0     C81470  10.025   0.741   1.470  0.1163 -0.2585  0.1016
  604MOL0     C81471   9.945   0.184   1.858  0.5746  0.1644 -0.1128
  604MOL0     C81472   9.878   0.165   1.976 -0.2325 -0.9887  0.1562
  604MOL0     H81473   9.635   0.032   2.391 -0.2826 -0.9399  2.5259
  604MOL0     H81474   9.507  -0.053   2.574 -2.3567 -2.5804  1.6216
  604MOL0     H81475   9.390  -0.180   2.722  0.7537  0.3006 -0.6882
  604MOL0     H81476   9.292  -0.041   2.668  0.9243 -0.1554 -1.1545
  604MOL0     H81477   9.162  -0.300   2.758 -0.2213 -0.0168  0.7540
  604MOL0     H81478   9.172  -0.172   2.871  0.8873 -3.5899  1.0539
  604MOL0     H81479   9.054  -0.037   2.657 -1.5794 -0.3867 -1.3223
  604MOL0     H81480   9.006  -0.189   2.608 -2.9233  0.2706  0.9117
  604MOL0     H81481   8.941  -0.080   2.894 -1.2953  1.7209 -0.3976
  604MOL0     H81482   8.835  -0.081   2.760  1.3517  1.8275  0.2242
  604MOL0     H81483   8.960  -0.349   2.849  0.3922  0.0239 -0.1024
  604MOL0     H81484   8.846  -0.274   2.952  0.3855 -0.8081  0.0519
  604MOL0     H81485   8.789  -0.313   2.664 -3.3804 -1.6717 -1.1019
  604MOL0     H81486   8.767  -0.448   2.769  0.1191 -0.4678  2.1725
  604MOL0     H81487   8.632  -0.191   2.823  1.4054 -0.7642  1.5884
  604MOL0     H81488   8.564  -0.307   2.706  0.8560 -0.7193 -0.4750
  604MOL0     H81489   8.450  -0.337   2.918 -0.1619  0.9867 -0.4047
  604MOL0     H81490   8.608  -0.340   3.004  1.6333  0.7999 -0.9741
  604MOL0     H81491   8.429  -0.565   2.718  1.4607  0.9772 -1.2335
  604MOL0     H81492   8.488  -0.825   2.651  2.1140  0.4209  0.5645
  604MOL0     H81493   8.541  -0.928   2.777  0.7670 -0.8243 -3.0092
  604MOL0     H81494   8.305  -0.957   2.704 -2.1186  0.6271  0.6618
  604MOL0     H81495   8.269  -0.791   2.725 -3.0107 -3.3360 -0.5269
  604MOL0     H81496   8.291  -0.807   2.970  1.2546  0.4814 -0.7121
  604MOL0     H81497   8.325  -0.983   2.943 -2.4965 -1.4776 -0.6374
  604MOL0     H81498   8.097  -0.927   3.014  0.9918  3.4347  0.7762
  604MOL0     H81499   8.109  -1.016   2.856  1.8800 -0.4207 -2.7975
  604MOL0     H81500   7.858  -0.644   2.912  0.4998 -1.2084  1.9026
  604MOL0     H81501   7.658  -0.583   2.965  0.3330 -2.5051  1.1389
  604MOL0     H81502   7.576  -0.578   2.805 -1.7233 -1.8987 -0.2265
  604MOL0     H81503   7.511  -0.675   2.936 -0.8622 -0.3003  0.1638
  604MOL0     H81504   7.412  -1.121   2.472 -1.4851  1.0291 -2.3328
  604MOL0     H81505   7.170  -1.170   2.406  0.6957 -1.0147 -0.3247
  604MOL0     H81506   6.828  -1.084   2.705  1.4938 -1.1784 -0.8682
  604MOL0     H81507   6.915  -0.942   2.629  2.4006 -0.6691 -2.6145
  604MOL0     H81508   6.777  -0.989   2.438  0.3879 -0.9676  0.2693
  604MOL0     H81509   6.675  -1.103   2.533 -1.3527  0.5320  0.6733
  604MOL0     H81510   6.690  -0.805   2.583 -0.3897  0.4567 -1.1779
  604MOL0     H81511   6.653  -0.923   2.705 -1.6228 -1.6694 -0.0207
  604MOL0     H81512   6.512  -0.903   2.441  4.1539  3.4826  1.6142
  604MOL0     H81513   6.459  -1.011   2.569 -0.9490 -0.4327  0.8221
  604MOL0     H81514   6.472  -0.705   2.598  0.1169  0.0888 -0.5446
  604MOL0     H81515   6.414  -0.814   2.719  2.8932  1.2463  0.6537
  604MOL0     H81516   6.274  -0.803   2.447 -4.1545  0.6312 -0.3304
  604MOL0     H81517   6.237  -0.900   2.586  0.9757 -0.2778 -1.3391
  604MOL0     H81518   6.204  -0.596   2.585  1.5648 -0.8883 -2.1194
  604MOL0     H81519   6.193  -0.708   2.723  2.5370 -0.2878 -0.3440
  604MOL0     H81520   6.021  -0.841   2.594 -0.4284 -0.3296  1.0223
  604MOL0     H81521   6.029  -0.719   2.467 -0.8743  0.4484 -0.7135
  604MOL0     H81522   7.035  -1.061   2.800 -0.9007 -3.4296  0.8356
  604MOL0     H81523   7.266  -1.038   2.872 -0.6711  1.8041  0.0923
  604MOL0     H81524   7.710  -1.070   2.715 -0.7863  1.2824  0.6082
  604MOL0     H81525   7.946  -1.024   2.743  3.4695  0.3322  4.4202
  604MOL0     H81526   9.242  -0.264   2.319  3.0921 -3.6965  1.2028
  604MOL0     H81527   9.354  -0.150   2.117  0.0982  1.6036 -0.0814
  604MOL0     H81528   9.635  -0.047   1.870 -0.5848 -0.2224  0.5401
  604MOL0     H81529   9.761  -0.017   1.665  0.9676  1.1435 -0.5987
  604MOL0     H81530  10.164   0.196   1.656  1.3345  1.2041 -1.2041
  604MOL0     H81531  10.116   0.209   1.487  2.2816 -1.0940  0.9428
  604MOL0     H81532  10.036   0.395   1.712  1.7682  0.1015  1.1303
  604MOL0     H81533   9.981   0.400   1.537 -2.3372 -0.9157  1.3569
  604MOL0     H81534  10.219   0.423   1.479 -0.5488 -2.8757  1.4549
  604MOL0     H81535  10.275   0.408   1.647  0.4921 -0.5707 -0.2207
  604MOL0     H81536  10.308   0.629   1.579  0.1843  0.2976 -0.6710
  604MOL0     H81537  10.192   0.616   1.711  3.7696 -0.5660  0.3930
  604MOL0     H81538   9.949   0.792   1.414  0.4046 -0.1501 -0.1969
  604MOL0     H81539  10.038   0.241   1.851  0.8366 -0.4264 -4.7810
  604MOL0     H81540   9.933   0.214   2.056 -2.0184 -1.1626  1.5496
  605MOL0     O81541  10.236   9.851   9.465 -0.3185 -0.3770 -0.2541
  605MOL0     C81542  10.283   9.745   9.492  0.4553  0.5255 -1.0527
  605MOL0     O81543  10.210   9.630   9.523  0.0852 -0.7865 -0.0187
  605MOL0     C81544  10.079   9.629   9.530  0.0722  0.0193 -0.2668
  605MOL0     C81545  10.011   9.521   9.473  1.1491 -0.8873 -0.5775
  605MOL0     C81546   9.871   9.501   9.495 -0.0042 -0.6533  0.4444
  605MOL0     C81547   9.807   9.578   9.599  0.0351 -0.3129  1.0880
  605MOL0     O81548   9.676   9.557   9.635  0.2033 -0.6344  0.6856
  605MOL0     C81549   9.579   9.567   9.523  0.2350  0.0023 -0.5845
  605MOL0     C81550   9.483   9.457   9.536 -0.0701  0.0672 -0.3975
  605MOL0     C81551   9.387   9.478   9.652  0.6282 -0.0698  0.6157
  605MOL0     C81552   9.260   9.397   9.637 -0.5985 -0.8308  1.3136
  605MOL0     C81553   9.156   9.483   9.563 -0.3749 -0.6027 -0.1765
  605MOL0     C81554   9.068   9.399   9.472  0.0215 -0.1279 -0.1743
  605MOL0     C81555   8.944   9.467   9.426  0.6765 -0.8534  0.0874
  605MOL0     C81556   8.865   9.385   9.322  0.1214 -0.1722  0.0321
  605MOL0     N81557   8.744   9.453   9.287 -0.3671 -0.3447  0.2124
  605MOL0     C81558   8.635   9.469   9.373 -0.2654  0.7449  0.7177
  605MOL0     C81559   8.549   9.541   9.291  0.1933  0.6776  0.2019
  605MOL0     C81560   8.424   9.612   9.341  0.5615  1.4226  0.4917
  605MOL0     C81561   8.308   9.509   9.359 -0.4106 -0.6586  0.6446
  605MOL0     C81562   8.329   9.416   9.473  0.1689  0.6142  0.1181
  605MOL0     C81563   8.217   9.320   9.476 -0.0764 -0.6862 -0.0226
  605MOL0     O81564   8.242   9.233   9.590 -0.1833  0.2215  0.2993
  605MOL0     C81565   8.170   9.113   9.596  0.2266 -0.0592  0.1807
  605MOL0     C81566   8.151   9.067   9.729  0.0986  0.4004 -1.0049
  605MOL0     C81567   8.048   8.980   9.752  0.8818  0.4402 -0.6469
  605MOL0     C81568   8.028   8.931   9.895 -0.0465  0.6847  0.4363
  605MOL0     C81569   7.958   8.937   9.643  0.5881 -0.5013 -0.0031
  605MOL0     C81570   7.834   8.850   9.666  0.0877 -0.0257  0.6050
  605MOL0     O81571   7.759   8.842   9.546 -0.0149 -0.3259 -0.4166
  605MOL0     C81572   7.625   8.866   9.564 -0.6604 -0.1495  0.2350
  605MOL0     C81573   7.531   8.811   9.472  0.2475 -0.7566 -0.4812
  605MOL0     C81574   7.394   8.844   9.473 -0.7002 -0.2335 -0.4373
  605MOL0     C81575   7.346   8.927   9.574  0.4088 -0.1596 -0.0688
  605MOL0     O81576   7.218   8.975   9.581  0.5533 -0.1164  0.3522
  605MOL0     C81577   7.121   8.876   9.548  0.1655 -0.6284 -0.0402
  605MOL0     C81578   6.998   8.915   9.627  0.4785 -0.0985 -0.4007
  605MOL0     C81579   6.876   8.852   9.559  0.2887  0.6123  0.8927
  605MOL0     C81580   6.741   8.896   9.615 -0.0923  0.5023 -0.2452
  605MOL0     C81581   6.622   8.859   9.531  1.2273 -0.2160 -0.2164
  605MOL0     C81582   6.496   8.868   9.614  0.0973  0.1770  0.0963
  605MOL0     C81583   6.380   8.842   9.513  0.0538  0.6437  0.6102
  605MOL0     C81584   6.233   8.860   9.568 -0.1861  0.1087  0.1855
  605MOL0    Cl81585   6.129   8.773   9.445 -0.7640 -0.3226 -0.1859
  605MOL0     C81586   7.426   8.981   9.667 -0.1894 -0.6705  0.1033
  605MOL0     C81587   7.570   8.947   9.659  0.2657  0.1866  0.1261
  605MOL0     O81588   7.803   8.812   9.779  0.1148 -0.1067 -0.3293
  605MOL0     C81589   7.991   8.973   9.509  0.7228  0.4492  0.4902
  605MOL0     C81590   8.096   9.064   9.490 -0.1681  0.6005  0.9956
  605MOL0     N81591   8.611   9.559   9.165  0.4495 -0.5225 -0.0621
  605MOL0     N81592   8.734   9.523   9.170  0.3052 -0.3930 -0.2871
  605MOL0     C81593   9.876   9.687   9.659 -0.3333  0.2927 -0.4306
  605MOL0     C81594  10.012   9.712   9.625  0.4945  0.7990 -0.0220
  605MOL0     C81595  10.432   9.737   9.484  0.1909  0.1739 -0.2192
  605MOL0     C81596  10.497   9.612   9.484  0.2097 -0.2264  0.8714
  605MOL0     C81597  10.637   9.597   9.485  0.9865  0.7796  0.5094
  605MOL0     C81598  10.715   9.712   9.474 -0.0286  0.9073  0.2381
  605MOL0     O81599  10.855   9.686   9.464  0.4499  0.0228  0.1527
  605MOL0     C81600  10.946   9.773   9.525  0.3243  0.5516 -0.2688
  605MOL0     C81601  11.068   9.680   9.575 -0.4602 -0.3933  0.3509
  605MOL0     C81602  11.162   9.632   9.461 -0.2596 -0.1810  0.6813
  605MOL0     C81603  11.297   9.590   9.512 -0.0397  0.7720  0.2839
  605MOL0     C81604  11.389   9.564   9.401  0.1192  0.1151  0.6993
  605MOL0     C81605  11.463   9.547   9.306  0.1212 -0.4353  0.4285
  605MOL0     C81606  10.654   9.835   9.464 -0.9876  0.7504  0.0301
  605MOL0     C81607  10.516   9.849   9.469  0.0287  0.7312 -0.2255
  605MOL0     H81608  10.056   9.450   9.404  1.7463 -3.3856  2.1541
  605MOL0     H81609   9.814   9.427   9.440  0.7876 -0.6705 -0.3758
  605MOL0     H81610   9.527   9.663   9.528  1.1445  0.4320  2.7980
  605MOL0     H81611   9.629   9.560   9.426 -0.1339 -1.3741 -0.7022
  605MOL0     H81612   9.426   9.443   9.444  0.6029 -1.1743 -0.6403
  605MOL0     H81613   9.538   9.363   9.545 -1.3302 -0.9459 -2.6307
  605MOL0     H81614   9.433   9.447   9.746 -0.2694 -2.0648  0.4530
  605MOL0     H81615   9.367   9.584   9.669 -0.3535 -0.3622  1.3432
  605MOL0     H81616   9.277   9.301   9.588 -0.1176 -0.1988  0.1838
  605MOL0     H81617   9.213   9.370   9.732  1.2356 -0.4918  2.3655
  605MOL0     H81618   9.104   9.539   9.641 -0.2795  0.4812 -0.8719
  605MOL0     H81619   9.200   9.566   9.506 -0.1028  0.5264  1.6019
  605MOL0     H81620   9.126   9.379   9.381 -0.7456 -0.9588 -0.4908
  605MOL0     H81621   9.037   9.307   9.523 -2.6600  0.5575 -0.4456
  605MOL0     H81622   8.877   9.496   9.507  0.5374 -0.0615 -0.3032
  605MOL0     H81623   8.967   9.563   9.379  0.0785  0.0831  1.6292
  605MOL0     H81624   8.837   9.289   9.367 -0.0757 -0.1761 -0.0937
  605MOL0     H81625   8.924   9.363   9.232 -1.7853 -0.0108 -1.3344
  605MOL0     H81626   8.628   9.431   9.474 -1.6433 -0.6929  0.1220
  605MOL0     H81627   8.443   9.665   9.435  2.7354  1.3456  0.1368
  605MOL0     H81628   8.394   9.680   9.261 -2.9876  1.6599  1.8152
  605MOL0     H81629   8.286   9.460   9.264 -0.6204  2.3423 -0.9642
  605MOL0     H81630   8.225   9.577   9.377  1.6300  1.6524  1.8973
  605MOL0     H81631   8.320   9.474   9.565 -1.2164 -0.1993  0.5126
  605MOL0     H81632   8.418   9.354   9.459 -1.3956 -1.3691 -1.7756
  605MOL0     H81633   8.218   9.264   9.382 -0.9418  0.2630 -0.6157
  605MOL0     H81634   8.122   9.371   9.493 -0.8658 -1.3820 -2.1338
  605MOL0     H81635   8.214   9.115   9.804  0.9541  1.5142 -2.3708
  605MOL0     H81636   7.925   8.964   9.915 -0.6029  0.2268 -1.4603
  605MOL0     H81637   8.037   8.822   9.895 -1.6855  0.5215 -0.0193
  605MOL0     H81638   8.105   8.961   9.966  1.9155 -1.5671 -0.5863
  605MOL0     H81639   7.567   8.750   9.389 -1.0381 -3.5214  0.8537
  605MOL0     H81640   7.328   8.795   9.402 -0.8878 -1.2750  0.4182
  605MOL0     H81641   7.098   8.879   9.441  2.8314 -0.5720 -0.6659
  605MOL0     H81642   7.162   8.779   9.575 -0.7827 -1.6903 -2.2046
  605MOL0     H81643   7.005   8.877   9.729 -2.2660 -0.5487 -0.3059
  605MOL0     H81644   6.976   9.022   9.633  0.1779 -0.2357  1.3543
  605MOL0     H81645   6.887   8.744   9.572 -1.1411  0.3354  0.0389
  605MOL0     H81646   6.885   8.879   9.453 -2.1056  0.7813  0.6727
  605MOL0     H81647   6.740   8.855   9.716  2.6765  2.3693  0.6602
  605MOL0     H81648   6.745   9.004   9.632 -1.2311  0.1300  3.1257
  605MOL0     H81649   6.631   8.762   9.482  1.8805 -0.2724 -0.0040
  605MOL0     H81650   6.615   8.938   9.456  3.8957  0.7662  0.4314
  605MOL0     H81651   6.504   8.797   9.696 -0.9832  1.1423  1.0821
  605MOL0     H81652   6.492   8.963   9.669  0.2435  0.2118  0.0475
  605MOL0     H81653   6.390   8.736   9.486  1.4569  0.1046  2.9139
  605MOL0     H81654   6.387   8.905   9.425 -0.8191 -0.4816 -0.2928
  605MOL0     H81655   6.198   8.963   9.582  1.6574  0.6245  1.3588
  605MOL0     H81656   6.216   8.804   9.661  0.5175  1.3981  1.1235
  605MOL0     H81657   7.382   9.036   9.750 -2.0314  0.1381 -1.3400
  605MOL0     H81658   7.628   9.010   9.725 -1.8019  1.6228  0.6583
  605MOL0     H81659   7.934   8.943   9.422 -0.1008  0.4240  1.0282
  605MOL0     H81660   8.108   9.103   9.389 -0.1853  1.4777  1.3305
  605MOL0     H81661   9.820   9.753   9.725  0.9180  0.7614  0.1873
  605MOL0     H81662  10.055   9.803   9.665 -4.1706  4.1146 -1.6411
  605MOL0     H81663  10.435   9.524   9.497 -0.0157  0.2819  4.5267
  605MOL0     H81664  10.685   9.500   9.496  0.9857  0.8006  0.7027
  605MOL0     H81665  10.975   9.847   9.449  1.0898  1.1519  0.5816
  605MOL0     H81666  10.904   9.823   9.613 -0.3334 -3.0708  1.6645
  605MOL0     H81667  11.037   9.592   9.632 -0.1440 -0.8143 -0.1152
  605MOL0     H81668  11.126   9.735   9.649 -1.5388 -0.2935  1.1465
  605MOL0     H81669  11.166   9.719   9.395 -0.6935 -0.9641 -0.4058
  605MOL0     H81670  11.114   9.553   9.403  0.7462 -0.8475  0.7387
  605MOL0     H81671  11.277   9.494   9.560 -1.7499  2.5294  3.4294
  605MOL0     H81672  11.333   9.666   9.581 -4.4828  4.0300 -0.4830
  605MOL0     H81673  11.524   9.537   9.218 -0.2886  0.5296  0.0189
  605MOL0     H81674  10.732   9.910   9.464  2.5524 -2.6237 -0.0423
  605MOL0     H81675  10.464   9.944   9.466  0.7364  1.1483  0.2287
  606MOL0     O81676   6.080   1.077   5.220  0.2934  1.1586 -0.2147
  606MOL0     C81677   6.118   0.954   5.217  0.3020  0.9774 -0.3827
  606MOL0     O81678   6.030   0.844   5.238 -0.5423 -0.4221 -0.2381
  606MOL0     C81679   5.894   0.868   5.261 -0.2650  0.1080 -0.3731
  606MOL0     C81680   5.814   0.910   5.150 -0.3012 -0.5003  0.3286
  606MOL0     C81681   5.678   0.925   5.163  0.3376  0.1933 -0.1598
  606MOL0     C81682   5.615   0.893   5.284 -0.2527 -0.8283  0.6077
  606MOL0     O81683   5.477   0.907   5.280  0.1828 -0.0195 -0.4078
  606MOL0     C81684   5.423   0.989   5.388  0.8070  0.2362  0.3896
  606MOL0     C81685   5.348   0.883   5.477  0.4495  0.2102  0.1392
  606MOL0     C81686   5.226   0.813   5.404 -0.3612 -0.6954  0.0674
  606MOL0     C81687   5.104   0.782   5.489  0.2292  1.0202  0.6944
  606MOL0     C81688   4.983   0.715   5.418 -0.6136 -0.1216 -0.4596
  606MOL0     C81689   4.924   0.798   5.300 -0.1939  1.5951 -0.0035
  606MOL0     C81690   4.787   0.765   5.269 -0.2520 -0.5804 -0.2403
  606MOL0     C81691   4.774   0.634   5.194 -0.1512  0.0849 -0.5468
  606MOL0     N81692   4.640   0.604   5.158  0.8826  0.5950 -0.6655
  606MOL0     C81693   4.570   0.492   5.201  0.6929 -0.2625  0.0951
  606MOL0     C81694   4.446   0.503   5.145 -0.7833 -1.0315 -0.0153
  606MOL0     C81695   4.340   0.405   5.172  0.4184 -0.0253  0.1712
  606MOL0     C81696   4.251   0.371   5.048  0.0458 -0.1494  0.2849
  606MOL0     C81697   4.179   0.240   5.086 -0.1546 -0.3790  0.0508
  606MOL0     C81698   4.054   0.213   5.005  0.4022  0.7398  0.4294
  606MOL0     O81699   3.993   0.087   5.044 -0.6053 -1.3135  0.0137
  606MOL0     C81700   3.858   0.067   5.016 -0.2724  0.1641 -0.2651
  606MOL0     C81701   3.770   0.138   4.932 -0.8763  0.3721  0.2196
  606MOL0     C81702   3.636   0.116   4.926 -0.7942  0.6363  0.0143
  606MOL0     C81703   3.566   0.196   4.821  0.2180 -0.1366 -0.2526
  606MOL0     C81704   3.580   0.020   5.016  0.3335  1.0953 -0.3680
  606MOL0     C81705   3.430   0.001   5.026 -0.1496  0.0468  0.2294
  606MOL0     O81706   3.338   0.103   5.006 -0.3263 -0.2410 -0.5120
  606MOL0     C81707   3.204   0.094   4.974 -0.1708  0.6233  0.5690
  606MOL0     C81708   3.142  -0.024   4.938  0.4557 -0.3950 -0.2525
  606MOL0     C81709   3.003  -0.030   4.961  0.3546  0.6221 -0.0659
  606MOL0     C81710   2.923   0.076   4.988 -0.4465  0.6832  0.9219
  606MOL0     O81711   2.793   0.059   5.032 -0.6364  0.4614 -0.6279
  606MOL0     C81712   2.698   0.107   4.941  0.1949 -0.6309  0.0145
  606MOL0     C81713   2.645  -0.004   4.848 -0.5521 -0.9701  0.8168
  606MOL0     C81714   2.620  -0.134   4.915 -0.3820 -0.0324 -0.7441
  606MOL0     C81715   2.550  -0.224   4.815 -0.0982 -0.2526  0.1470
  606MOL0     C81716   2.539  -0.365   4.874 -0.2216  0.2455  0.7434
  606MOL0     C81717   2.502  -0.476   4.768 -0.0807 -0.7399 -0.5211
  606MOL0     C81718   2.465  -0.612   4.823 -0.4721  0.2060  0.6368
  606MOL0     C81719   2.467  -0.725   4.713 -0.5109  0.1782 -0.0651
  606MOL0    Cl81720   2.365  -0.665   4.575 -0.0737 -0.1881 -0.0174
  606MOL0     C81721   2.982   0.196   4.996 -0.4215 -0.9125 -0.0723
  606MOL0     C81722   3.123   0.208   4.987 -0.6681 -0.0567  0.2089
  606MOL0     O81723   3.403  -0.114   5.058  0.1524 -0.5529 -0.9399
  606MOL0     C81724   3.664  -0.059   5.102  0.2442  0.3704  0.1515
  606MOL0     C81725   3.801  -0.030   5.094  1.0858  0.4721  0.4015
  606MOL0     N81726   4.435   0.620   5.079  0.2302 -0.3382 -0.6558
  606MOL0     N81727   4.547   0.678   5.087  0.0944  0.5057 -1.0797
  606MOL0     C81728   5.698   0.856   5.395  0.4888 -0.6027  1.0440
  606MOL0     C81729   5.838   0.837   5.385  0.2278 -0.0835 -0.6260
  606MOL0     C81730   6.257   0.933   5.195  0.4655  0.4038 -0.3763
  606MOL0     C81731   6.356   1.029   5.204  0.5775  0.7979  0.2866
  606MOL0     C81732   6.495   0.989   5.197  0.1835  0.0851 -0.4859
  606MOL0     C81733   6.536   0.859   5.171  0.8383 -0.8052  0.8619
  606MOL0     O81734   6.669   0.819   5.145  0.5216 -0.2371 -0.0025
  606MOL0     C81735   6.779   0.920   5.152  0.1333  0.2669 -0.1082
  606MOL0     C81736   6.917   0.837   5.137  0.4304 -0.8903  0.5872
  606MOL0     C81737   7.041   0.931   5.145 -0.0301 -1.1608  0.5181
  606MOL0     C81738   7.172   0.867   5.103 -0.7246  0.4113  0.8852
  606MOL0     C81739   7.184   0.820   4.961 -0.1798  0.0535  0.5002
  606MOL0     C81740   7.201   0.786   4.846 -0.4426  1.3122  0.4519
  606MOL0     C81741   6.436   0.763   5.162 -0.9328 -0.2643  0.1397
  606MOL0     C81742   6.299   0.799   5.171  0.0335 -0.0575 -0.4086
  606MOL0     H81743   5.869   0.923   5.058 -0.0581  3.5640  0.8610
  606MOL0     H81744   5.630   0.953   5.070 -2.7298 -2.2282  0.5121
  606MOL0     H81745   5.498   1.045   5.446 -0.4709  1.6551  0.7386
  606MOL0     H81746   5.361   1.067   5.341  1.7354 -0.5028 -2.2422
  606MOL0     H81747   5.419   0.801   5.489 -0.0135 -0.1724  0.2759
  606MOL0     H81748   5.317   0.924   5.574  0.1305  1.8812 -0.6289
  606MOL0     H81749   5.186   0.868   5.318 -1.1065 -1.6286 -0.2037
  606MOL0     H81750   5.254   0.721   5.352  0.1471 -0.5381  0.0650
  606MOL0     H81751   5.124   0.707   5.567 -2.0847 -0.2371  0.1547
  606MOL0     H81752   5.068   0.869   5.544 -2.0162  1.5584 -1.4555
  606MOL0     H81753   5.013   0.619   5.377 -1.1018 -1.1191  1.4092
  606MOL0     H81754   4.898   0.702   5.487  0.7102 -0.9646  1.0729
  606MOL0     H81755   4.931   0.904   5.328  1.2971  0.8040  3.0445
  606MOL0     H81756   4.987   0.777   5.212  1.7937 -0.2613  1.7522
  606MOL0     H81757   4.728   0.769   5.361  0.8012  2.4292  0.4139
  606MOL0     H81758   4.754   0.847   5.205  1.4481 -0.8795 -1.5828
  606MOL0     H81759   4.820   0.552   5.251 -0.0694 -0.3811 -1.2636
  606MOL0     H81760   4.829   0.636   5.100 -0.8997  1.8111 -0.9800
  606MOL0     H81761   4.601   0.408   5.262  2.9537 -1.4109 -2.4008
  606MOL0     H81762   4.383   0.309   5.201  0.7805  0.7104  2.2094
  606MOL0     H81763   4.288   0.428   5.265 -0.7899 -1.4209 -0.1297
  606MOL0     H81764   4.302   0.368   4.952 -0.1912  1.7119  0.0619
  606MOL0     H81765   4.167   0.441   5.040  0.0597 -0.0669  0.7888
  606MOL0     H81766   4.155   0.235   5.192  1.1915 -1.6217  0.3201
  606MOL0     H81767   4.247   0.158   5.060  2.1303  1.7739 -1.1989
  606MOL0     H81768   4.071   0.215   4.897 -3.6646 -1.7836 -0.4745
  606MOL0     H81769   3.986   0.296   5.027 -0.3171  0.8206 -1.7944
  606MOL0     H81770   3.813   0.219   4.874  2.1208 -1.7101 -0.7754
  606MOL0     H81771   3.565   0.302   4.846 -0.1525 -0.0192 -0.7606
  606MOL0     H81772   3.608   0.178   4.722  0.9292 -0.7027  0.1401
  606MOL0     H81773   3.464   0.156   4.814 -0.3192  0.6260  2.1073
  606MOL0     H81774   3.194  -0.112   4.901 -1.0705 -3.1241  3.3540
  606MOL0     H81775   2.953  -0.126   4.970 -0.0250  0.4384 -3.1382
  606MOL0     H81776   2.619   0.143   5.007 -0.0750  0.9621 -1.1116
  606MOL0     H81777   2.731   0.189   4.876 -1.9671  0.3120  0.0110
  606MOL0     H81778   2.554   0.033   4.800 -0.1010 -1.4659 -0.4714
  606MOL0     H81779   2.723  -0.022   4.774 -0.3221 -0.9449  1.0533
  606MOL0     H81780   2.557  -0.121   5.003 -0.5808  1.3402 -1.0705
  606MOL0     H81781   2.711  -0.180   4.955 -2.3513 -1.9004  2.0091
  606MOL0     H81782   2.458  -0.185   4.769  0.2514  0.5393  0.0977
  606MOL0     H81783   2.619  -0.235   4.730  2.0332  1.1076  1.6047
  606MOL0     H81784   2.456  -0.366   4.946 -1.9481 -1.3555 -1.1547
  606MOL0     H81785   2.634  -0.387   4.925  0.7019  2.2670 -0.0029
  606MOL0     H81786   2.417  -0.446   4.706  0.7894 -0.5195 -1.6498
  606MOL0     H81787   2.580  -0.469   4.692  0.7247 -2.2176  0.1180
  606MOL0     H81788   2.366  -0.620   4.869 -0.6204 -0.1637  0.2610
  606MOL0     H81789   2.532  -0.645   4.903  0.4331  1.1718  0.3103
  606MOL0     H81790   2.427  -0.820   4.748 -0.9605  0.9993  1.7438
  606MOL0     H81791   2.572  -0.742   4.688 -0.5627 -3.0380  1.4125
  606MOL0     H81792   2.935   0.291   5.016  2.7275  1.1474 -1.5219
  606MOL0     H81793   3.167   0.303   5.013 -0.3615 -0.5987  1.7890
  606MOL0     H81794   3.621  -0.123   5.177 -0.3917  0.7389  0.1119
  606MOL0     H81795   3.854  -0.090   5.168 -2.1188  0.8866  3.2805
  606MOL0     H81796   5.653   0.829   5.490  4.8892 -0.1242  3.5849
  606MOL0     H81797   5.892   0.800   5.470  0.1244  1.7181  0.2815
  606MOL0     H81798   6.328   1.131   5.226  0.6708  0.4853  1.9660
  606MOL0     H81799   6.560   1.076   5.199 -0.0423  0.2458  0.9634
  606MOL0     H81800   6.777   0.989   5.067  0.8845 -0.5414 -0.8039
  606MOL0     H81801   6.780   0.962   5.253  1.3124 -1.1016  0.4962
  606MOL0     H81802   6.908   0.802   5.034 -1.0631  1.6417 -0.2319
  606MOL0     H81803   6.926   0.759   5.213  0.3033 -3.2210 -1.6578
  606MOL0     H81804   7.063   0.978   5.241  0.9588  0.5897 -0.5176
  606MOL0     H81805   7.026   1.016   5.078 -0.7824 -1.6139  0.0997
  606MOL0     H81806   7.190   0.786   5.175  0.4162 -1.3363 -1.2304
  606MOL0     H81807   7.252   0.939   5.119  1.9648 -2.0852 -0.2745
  606MOL0     H81808   7.215   0.752   4.745 -0.5024 -0.4339  1.0009
  606MOL0     H81809   6.467   0.659   5.155 -0.4705 -0.3322  2.5114
  606MOL0     H81810   6.226   0.720   5.158  1.6599 -2.1747  2.1728
  607MOL0     O81811   1.666   2.946   3.516 -0.1379  0.3165  0.4414
  607MOL0     C81812   1.668   2.880   3.420 -0.1259 -0.1241 -0.1948
  607MOL0     O81813   1.565   2.877   3.334 -0.0261  0.7136  0.4134
  607MOL0     C81814   1.458   2.965   3.358  0.4951 -0.3175  0.4156
  607MOL0     C81815   1.330   2.916   3.350  0.1063 -0.3833  0.2471
  607MOL0     C81816   1.220   2.992   3.372 -0.1929  0.3375 -0.4172
  607MOL0     C81817   1.230   3.128   3.390 -0.2256  0.7478  0.3798
  607MOL0     O81818   1.109   3.188   3.414  0.3084 -0.4912 -0.1979
  607MOL0     C81819   1.111   3.335   3.410  1.0853 -0.3714  0.1875
  607MOL0     C81820   0.977   3.397   3.465  0.1864 -0.5634 -0.0883
  607MOL0     C81821   0.857   3.360   3.374  0.9956 -0.3615 -0.2759
  607MOL0     C81822   0.730   3.434   3.420  0.2223  0.2407  0.2585
  607MOL0     C81823   0.609   3.423   3.321  0.1591 -0.0838  0.6011
  607MOL0     C81824   0.488   3.501   3.374  0.9141  0.1881  0.6309
  607MOL0     C81825   0.357   3.411   3.375  0.4751 -0.3404 -0.3535
  607MOL0     C81826   0.325   3.356   3.237  0.0761 -0.2152  0.4407
  607MOL0     N81827   0.187   3.305   3.237  1.0788  0.3494 -0.3036
  607MOL0     C81828   0.125   3.238   3.137 -0.2269  0.3279 -0.4478
  607MOL0     C81829   0.008   3.207   3.192  0.0735  0.4444 -0.0350
  607MOL0     C81830  -0.082   3.117   3.127  0.2064  0.2562  0.3502
  607MOL0     C81831  -0.167   3.196   3.025 -0.4723 -0.0088  0.0636
  607MOL0     C81832  -0.254   3.099   2.951 -0.3258 -0.0556 -0.4533
  607MOL0     C81833  -0.337   3.158   2.837 -0.1235 -0.2306 -0.4040
  607MOL0     O81834  -0.401   3.048   2.770  0.1686 -0.2673  0.9055
  607MOL0     C81835  -0.504   3.080   2.679  0.6273 -0.3682  0.5817
  607MOL0     C81836  -0.523   3.202   2.614 -0.6060  0.4532 -0.1493
  607MOL0     C81837  -0.624   3.220   2.526 -0.3166  0.0240 -0.1113
  607MOL0     C81838  -0.634   3.352   2.452 -0.2086 -0.0665 -0.0158
  607MOL0     C81839  -0.720   3.114   2.501 -0.8500  1.1508 -0.0040
  607MOL0     C81840  -0.834   3.126   2.402  0.4526 -0.3466 -0.9252
  607MOL0     O81841  -0.913   3.015   2.383 -0.4113  0.2519 -0.0715
  607MOL0     C81842  -1.007   3.014   2.289 -0.7157  0.4916 -0.1624
  607MOL0     C81843  -1.139   3.002   2.320 -1.0536 -0.1024  0.3425
  607MOL0     C81844  -1.220   3.029   2.212 -0.7564  0.0935 -0.1013
  607MOL0     C81845  -1.181   3.043   2.075  0.4153  0.4784  0.7651
  607MOL0     O81846  -1.281   3.069   1.981  0.4726  0.2400 -0.3844
  607MOL0     C81847  -1.239   3.078   1.837 -0.8116  0.6789 -0.6362
  607MOL0     C81848  -1.367   3.094   1.760 -0.5021 -0.1370  0.1127
  607MOL0     C81849  -1.333   3.124   1.611 -0.4471 -0.6738  0.0923
  607MOL0     C81850  -1.468   3.134   1.533  0.2353  0.2891  0.7322
  607MOL0     C81851  -1.452   3.152   1.388  0.1828 -0.6346 -0.6776
  607MOL0     C81852  -1.350   3.063   1.315 -0.0242  0.4866  0.8996
  607MOL0     C81853  -1.360   2.915   1.341 -0.3937 -0.2647 -0.9090
  607MOL0     C81854  -1.263   2.822   1.265 -0.3917 -1.0558  0.3002
  607MOL0    Cl81855  -1.320   2.826   1.093  0.1864 -0.1474  0.1587
  607MOL0     C81856  -1.041   3.044   2.049 -0.2016 -0.8132  0.5234
  607MOL0     C81857  -0.950   3.021   2.159 -0.2788 -0.1472  0.3111
  607MOL0     O81858  -0.854   3.230   2.343 -0.3857  0.7165 -0.7789
  607MOL0     C81859  -0.696   2.995   2.566 -0.6727  0.3559  0.6681
  607MOL0     C81860  -0.592   2.979   2.655  0.5699  0.8180 -0.5730
  607MOL0     N81861  -0.009   3.251   3.318  0.4415  0.0529  0.1532
  607MOL0     N81862   0.094   3.326   3.338 -0.0809  0.2472  0.0299
  607MOL0     C81863   1.359   3.190   3.392  0.5243  0.0989  0.2196
  607MOL0     C81864   1.470   3.104   3.369  0.0611  0.2046 -0.7011
  607MOL0     C81865   1.788   2.795   3.387  0.0200 -0.3249 -0.1189
  607MOL0     C81866   1.815   2.756   3.258 -0.4250 -0.2601 -0.8412
  607MOL0     C81867   1.928   2.687   3.223  0.0052 -0.4000 -0.2004
  607MOL0     C81868   2.018   2.651   3.325 -0.4863 -0.0377 -0.4790
  607MOL0     O81869   2.139   2.594   3.282 -0.1910  0.0126 -0.0428
  607MOL0     C81870   2.243   2.566   3.368  0.9332  0.2895  0.3917
  607MOL0     C81871   2.307   2.425   3.334 -0.0850 -0.2041  0.0316
  607MOL0     C81872   2.326   2.407   3.189  0.0464 -0.3759  0.1372
  607MOL0     C81873   2.425   2.514   3.128  1.3907  0.2039 -1.4585
  607MOL0     C81874   2.558   2.497   3.187  0.2902  0.4789  1.2327
  607MOL0     C81875   2.670   2.501   3.247 -0.5712 -0.1935  0.0834
  607MOL0     C81876   1.991   2.693   3.462  0.1759  0.0625  0.0783
  607MOL0     C81877   1.881   2.768   3.486  0.0420 -0.6208 -0.3543
  607MOL0     H81878   1.315   2.813   3.318 -0.5069  0.2521 -1.6814
  607MOL0     H81879   1.123   2.943   3.365 -0.6123  0.9475  0.7045
  607MOL0     H81880   1.186   3.379   3.477 -0.2073 -0.8327  2.0099
  607MOL0     H81881   1.127   3.384   3.314  3.0878 -1.3250 -0.0318
  607MOL0     H81882   0.968   3.366   3.569  0.3576 -2.9375 -0.7178
  607MOL0     H81883   0.978   3.506   3.464  0.2467 -0.4655  2.7486
  607MOL0     H81884   0.873   3.379   3.268  1.4895 -2.6201 -0.6631
  607MOL0     H81885   0.822   3.257   3.384 -3.3124  0.9444  0.0180
  607MOL0     H81886   0.708   3.426   3.527 -0.2437  0.9227  0.2262
  607MOL0     H81887   0.758   3.540   3.419  0.7006  0.1213  0.5841
  607MOL0     H81888   0.639   3.466   3.225  1.2916  0.9397  1.3749
  607MOL0     H81889   0.581   3.317   3.320 -2.4704  0.5316 -0.3496
  607MOL0     H81890   0.513   3.546   3.471  1.7728  1.1372 -0.0054
  607MOL0     H81891   0.464   3.584   3.307  0.1930  0.0073  0.6553
  607MOL0     H81892   0.374   3.332   3.450  0.0296 -1.8540 -1.7996
  607MOL0     H81893   0.278   3.483   3.397 -0.0618 -0.3632 -2.0789
  607MOL0     H81894   0.384   3.273   3.198 -0.4151 -0.3468 -0.0450
  607MOL0     H81895   0.335   3.443   3.171 -0.4113 -0.5401 -0.0751
  607MOL0     H81896   0.161   3.202   3.041  0.1702  0.1579 -0.2385
  607MOL0     H81897  -0.014   3.055   3.069  1.5525  0.8338  1.2719
  607MOL0     H81898  -0.149   3.065   3.196 -3.1933  1.7330 -1.5379
  607MOL0     H81899  -0.107   3.259   2.959  0.6646  1.0646  2.0172
  607MOL0     H81900  -0.232   3.264   3.081  0.0451 -0.7151  1.5599
  607MOL0     H81901  -0.320   3.057   3.028 -0.2671 -1.3463 -1.0820
  607MOL0     H81902  -0.195   3.015   2.914 -0.5790 -0.1981 -0.5319
  607MOL0     H81903  -0.269   3.198   2.761  4.1947 -3.8157  1.1263
  607MOL0     H81904  -0.410   3.234   2.865 -0.5472 -0.8080  0.0826
  607MOL0     H81905  -0.448   3.279   2.631  1.3285 -1.3043 -0.3678
  607MOL0     H81906  -0.549   3.418   2.473 -0.1145  0.0176 -0.6261
  607MOL0     H81907  -0.631   3.338   2.343  0.6687  1.8644 -0.2775
  607MOL0     H81908  -0.728   3.401   2.478 -1.6293 -2.4151 -0.3860
  607MOL0     H81909  -1.173   3.007   2.423  0.0030 -0.2202  0.7041
  607MOL0     H81910  -1.326   3.034   2.235 -0.1561  3.6751  2.7733
  607MOL0     H81911  -1.182   3.170   1.822  0.8633 -0.0205  0.9196
  607MOL0     H81912  -1.177   2.991   1.814 -0.7215  0.3338  0.8256
  607MOL0     H81913  -1.423   3.000   1.762 -1.6373  0.4870 -0.8178
  607MOL0     H81914  -1.438   3.165   1.803  1.7158  0.7967  2.5001
  607MOL0     H81915  -1.267   3.050   1.566  0.0844  0.1813 -0.5607
  607MOL0     H81916  -1.282   3.221   1.605 -2.1202  0.2719  0.3640
  607MOL0     H81917  -1.522   3.041   1.553  0.7759  0.2436  2.0540
  607MOL0     H81918  -1.528   3.220   1.564  2.0384  2.0123 -0.3286
  607MOL0     H81919  -1.406   3.250   1.379 -0.1153 -0.4568 -0.2874
  607MOL0     H81920  -1.555   3.154   1.352 -0.3272 -0.4399  0.7403
  607MOL0     H81921  -1.346   3.080   1.207 -0.5804 -6.1856 -0.5861
  607MOL0     H81922  -1.251   3.087   1.354  0.7245 -0.6454 -0.2533
  607MOL0     H81923  -1.456   2.877   1.304 -0.1871 -1.0810 -0.6035
  607MOL0     H81924  -1.348   2.887   1.446  3.1742 -4.0629 -2.0728
  607MOL0     H81925  -1.261   2.717   1.295 -0.6278 -1.2244 -0.2656
  607MOL0     H81926  -1.166   2.873   1.264 -1.7295  1.6877  0.7288
  607MOL0     H81927  -1.008   3.081   1.953 -1.3501  0.1229  0.4739
  607MOL0     H81928  -0.843   3.029   2.145 -0.6154  1.5752 -1.5942
  607MOL0     H81929  -0.767   2.913   2.550  0.6205 -0.8062  0.7166
  607MOL0     H81930  -0.571   2.882   2.699 -4.1398 -0.6125 -0.8923
  607MOL0     H81931   1.369   3.296   3.411 -0.4608  0.4861 -1.2123
  607MOL0     H81932   1.572   3.138   3.358  1.5206 -3.3903  0.2802
  607MOL0     H81933   1.753   2.788   3.175  0.6119  1.4829 -1.0147
  607MOL0     H81934   1.949   2.666   3.118 -2.1054  0.5180 -0.8622
  607MOL0     H81935   2.324   2.637   3.350 -0.4927  2.0469  0.6626
  607MOL0     H81936   2.212   2.568   3.473  0.9517  0.4363  0.3938
  607MOL0     H81937   2.248   2.338   3.361 -1.0542  0.8153  1.3425
  607MOL0     H81938   2.406   2.416   3.380 -0.1873 -3.0471 -0.1609
  607MOL0     H81939   2.224   2.416   3.150  0.3712 -1.3218 -1.0002
  607MOL0     H81940   2.360   2.310   3.151  1.6046  0.4892 -0.8103
  607MOL0     H81941   2.386   2.614   3.149 -0.8992 -0.0418 -3.9034
  607MOL0     H81942   2.428   2.495   3.020 -0.0600  0.0070 -1.4861
  607MOL0     H81943   2.766   2.510   3.295 -1.1964 -0.1184  1.3408
  607MOL0     H81944   2.060   2.674   3.543 -0.1376  0.0108  0.3386
  607MOL0     H81945   1.867   2.804   3.588  1.5989 -0.3610 -0.2066
  608MOL0     O81946   0.674   0.169   3.987 -0.6964 -0.3606  0.0970
  608MOL0     C81947   0.720   0.201   3.875 -0.2209  0.0083  0.4400
  608MOL0     O81948   0.647   0.253   3.774 -0.7436 -0.3720  1.2316
  608MOL0     C81949   0.512   0.265   3.775 -0.0170  0.5128 -0.2963
  608MOL0     C81950   0.456   0.390   3.751 -0.1637 -0.3068 -0.0504
  608MOL0     C81951   0.321   0.405   3.728 -0.0770  0.7109 -0.3492
  608MOL0     C81952   0.235   0.293   3.738  0.1039  0.0971 -0.1976
  608MOL0     O81953   0.097   0.307   3.723 -0.0433  0.0766 -0.0880
  608MOL0     C81954   0.036   0.211   3.645 -0.0177  0.0562 -0.1631
  608MOL0     C81955  -0.110   0.265   3.622  0.2672 -0.2315  0.3620
  608MOL0     C81956  -0.195   0.179   3.524 -0.2689 -0.0727 -0.2621
  608MOL0     C81957  -0.337   0.233   3.491 -0.2098  0.2084 -0.0552
  608MOL0     C81958  -0.379   0.221   3.350 -0.1015 -0.5052  0.1866
  608MOL0     C81959  -0.509   0.289   3.323 -0.1631 -0.2670  0.9086
  608MOL0     C81960  -0.587   0.234   3.198  0.1582  0.3227 -0.7764
  608MOL0     C81961  -0.687   0.135   3.243  0.7943  0.1192 -0.0351
  608MOL0     N81962  -0.806   0.188   3.311 -0.1275  1.0277 -0.6744
  608MOL0     C81963  -0.915   0.267   3.258 -0.2252 -0.4461 -0.3451
  608MOL0     C81964  -0.988   0.305   3.365  0.2797 -0.4852  0.6099
  608MOL0     C81965  -1.110   0.381   3.357  0.0369 -0.1334 -0.6359
  608MOL0     C81966  -1.101   0.530   3.309 -0.6724  0.6923 -0.0748
  608MOL0     C81967  -1.242   0.599   3.308  0.0456 -0.5393  0.1088
  608MOL0     C81968  -1.222   0.745   3.267 -0.6838 -0.5936 -0.3239
  608MOL0     O81969  -1.211   0.770   3.122  0.1126 -0.7662 -0.8105
  608MOL0     C81970  -1.318   0.777   3.043 -0.0754 -0.5921  0.1883
  608MOL0     C81971  -1.284   0.785   2.908 -0.0847  0.2438 -0.3278
  608MOL0     C81972  -1.383   0.787   2.812  0.1958  0.6048  0.0843
  608MOL0     C81973  -1.338   0.774   2.675  0.2412 -0.6770  1.0889
  608MOL0     C81974  -1.521   0.799   2.848 -0.0518 -0.3598  0.1754
  608MOL0     C81975  -1.633   0.808   2.760  0.4164  0.6689  0.5125
  608MOL0     O81976  -1.743   0.749   2.804  0.0255  0.2692  1.1525
  608MOL0     C81977  -1.853   0.758   2.718 -0.3839 -0.0365  0.3415
  608MOL0     C81978  -1.898   0.634   2.665 -0.1334 -0.5794 -0.2855
  608MOL0     C81979  -2.025   0.624   2.600 -0.0085 -1.2964  0.1972
  608MOL0     C81980  -2.100   0.744   2.584 -0.0346  0.2405  0.5346
  608MOL0     O81981  -2.227   0.738   2.523 -0.1962 -0.9854  0.8453
  608MOL0     C81982  -2.315   0.626   2.553  0.1204  0.1556 -0.3029
  608MOL0     C81983  -2.456   0.693   2.532  0.3559  0.1696 -0.0490
  608MOL0     C81984  -2.560   0.584   2.520 -0.1969  0.2383 -0.0339
  608MOL0     C81985  -2.690   0.651   2.506  0.5961 -0.1853 -0.1940
  608MOL0     C81986  -2.799   0.549   2.546  0.6515  0.1694  0.1601
  608MOL0     C81987  -2.939   0.611   2.509 -0.8106 -0.3673  0.1870
  608MOL0     C81988  -3.059   0.514   2.516 -0.0652 -0.1808 -0.0369
  608MOL0     C81989  -3.181   0.577   2.456 -0.0941 -0.0750 -0.1679
  608MOL0    Cl81990  -3.155   0.618   2.286 -0.2681  0.1411 -0.6841
  608MOL0     C81991  -2.053   0.860   2.630  0.4910 -0.3636 -0.6947
  608MOL0     C81992  -1.932   0.869   2.696 -0.7013  0.2765 -0.4466
  608MOL0     O81993  -1.620   0.861   2.648  0.3249 -0.3372 -0.6339
  608MOL0     C81994  -1.548   0.799   2.983 -0.0432  0.0662  0.1711
  608MOL0     C81995  -1.452   0.784   3.084  0.3530  0.0520 -0.4512
  608MOL0     N81996  -0.936   0.249   3.477  0.5082  0.0560  0.7227
  608MOL0     N81997  -0.835   0.172   3.447  0.0785  0.3533 -0.0191
  608MOL0     C81998   0.291   0.168   3.775 -0.5215 -1.8391 -0.3766
  608MOL0     C81999   0.427   0.155   3.786 -0.0564 -0.0753 -1.0394
  608MOL0     C82000   0.871   0.195   3.864  0.6854 -1.0696 -0.0185
  608MOL0     C82001   0.942   0.246   3.747 -0.0765  0.3136 -0.4739
  608MOL0     C82002   1.077   0.231   3.733  0.5080 -0.3221  0.0410
  608MOL0     C82003   1.147   0.164   3.830  0.5820  0.1413  0.7810
  608MOL0     O82004   1.273   0.126   3.803  0.1616 -0.3262  0.9054
  608MOL0     C82005   1.364   0.149   3.909  0.8186  0.0169 -0.0701
  608MOL0     C82006   1.483   0.238   3.869 -0.0789  0.5877  0.9278
  608MOL0     C82007   1.497   0.363   3.956 -0.6739 -0.4545 -0.1046
  608MOL0     C82008   1.637   0.429   3.937 -0.3064  0.6293  0.6015
  608MOL0     C82009   1.744   0.349   3.994  0.0855 -0.5904 -0.8904
  608MOL0     C82010   1.838   0.288   4.041  0.3213 -0.9156  0.6365
  608MOL0     C82011   1.081   0.124   3.948 -0.2767 -0.1072 -0.1340
  608MOL0     C82012   0.945   0.138   3.966  0.7227 -0.3639 -0.2655
  608MOL0     H82013   0.518   0.479   3.746 -1.2952  0.4608 -1.6628
  608MOL0     H82014   0.277   0.500   3.699 -3.8829 -0.5857  0.5506
  608MOL0     H82015   0.090   0.194   3.552 -1.1847  1.1861 -1.0807
  608MOL0     H82016   0.042   0.112   3.692  0.5286 -1.5839 -3.3710
  608MOL0     H82017  -0.167   0.263   3.716  1.9353  0.1231  1.4243
  608MOL0     H82018  -0.117   0.368   3.588 -2.1162 -0.9133 -1.5002
  608MOL0     H82019  -0.133   0.195   3.435  0.3710 -1.4243 -0.0813
  608MOL0     H82020  -0.203   0.075   3.555 -1.9613 -0.6068 -2.2857
  608MOL0     H82021  -0.408   0.180   3.555  4.0533 -3.4157  2.2831
  608MOL0     H82022  -0.339   0.338   3.519 -3.0769  0.3220 -0.3921
  608MOL0     H82023  -0.303   0.263   3.284  0.5721  1.2023  1.9362
  608MOL0     H82024  -0.397   0.118   3.318 -0.4607  0.1968 -2.0009
  608MOL0     H82025  -0.573   0.271   3.411 -1.2552 -3.2555 -0.3629
  608MOL0     H82026  -0.511   0.397   3.307  2.4456 -0.2691  0.2480
  608MOL0     H82027  -0.645   0.314   3.151 -1.1149  0.7840  1.4010
  608MOL0     H82028  -0.524   0.183   3.125  2.0271 -0.5955  1.3461
  608MOL0     H82029  -0.636   0.056   3.300  0.1302 -1.1156 -1.0845
  608MOL0     H82030  -0.731   0.079   3.160 -0.2100 -0.3558  0.7946
  608MOL0     H82031  -0.936   0.308   3.160  1.1341  2.6974  0.5523
  608MOL0     H82032  -1.175   0.322   3.290 -1.1290 -0.9943  1.1752
  608MOL0     H82033  -1.145   0.382   3.460  2.2530  0.1512  0.1452
  608MOL0     H82034  -1.065   0.530   3.205 -0.0142 -0.0327  0.1406
  608MOL0     H82035  -1.027   0.585   3.369  0.0603  0.5783 -0.8487
  608MOL0     H82036  -1.283   0.585   3.408 -0.7298  1.2909  0.0722
  608MOL0     H82037  -1.310   0.558   3.233  0.3765  2.5449 -2.0650
  608MOL0     H82038  -1.133   0.785   3.316 -1.2676 -0.9230  1.0482
  608MOL0     H82039  -1.304   0.810   3.300 -1.2478 -1.1577 -0.5967
  608MOL0     H82040  -1.182   0.771   2.876  0.7070 -1.6723  2.6861
  608MOL0     H82041  -1.231   0.753   2.672  0.4345 -0.2857 -4.6402
  608MOL0     H82042  -1.387   0.687   2.630  0.5097 -0.5237  0.4906
  608MOL0     H82043  -1.351   0.867   2.619  2.4170 -1.2438 -0.4589
  608MOL0     H82044  -1.839   0.544   2.674 -2.3055 -1.9149  1.9216
  608MOL0     H82045  -2.058   0.532   2.553  1.1104 -2.5008  1.6500
  608MOL0     H82046  -2.316   0.546   2.478 -4.6672 -1.5668  1.1932
  608MOL0     H82047  -2.309   0.597   2.658 -0.0674 -0.8473 -0.5626
  608MOL0     H82048  -2.481   0.757   2.618  0.0425  0.6605 -0.5051
  608MOL0     H82049  -2.460   0.760   2.446  0.6443 -0.3441 -0.4685
  608MOL0     H82050  -2.550   0.520   2.608 -0.5611  1.1659  0.7030
  608MOL0     H82051  -2.549   0.520   2.432  2.0463  2.5832 -1.6435
  608MOL0     H82052  -2.699   0.740   2.570 -4.0505 -0.2743 -0.3536
  608MOL0     H82053  -2.702   0.703   2.411  0.4919  0.9466  0.4118
  608MOL0     H82054  -2.794   0.536   2.654 -0.3040  1.9364  0.4435
  608MOL0     H82055  -2.787   0.453   2.495 -0.4652  0.1023 -0.0058
  608MOL0     H82056  -2.945   0.697   2.577 -1.4152  0.1166 -0.4700
  608MOL0     H82057  -2.931   0.649   2.407 -1.3090  0.0297  0.2890
  608MOL0     H82058  -3.078   0.471   2.615  3.3650 -1.8552  0.0552
  608MOL0     H82059  -3.033   0.422   2.463 -0.0407 -0.8528  1.1051
  608MOL0     H82060  -3.209   0.663   2.517  2.7296 -0.2386  1.5460
  608MOL0     H82061  -3.271   0.516   2.465 -0.7056  1.1417  3.3864
  608MOL0     H82062  -2.111   0.951   2.616  2.0270  1.3491  2.8038
  608MOL0     H82063  -1.885   0.961   2.727  2.5276 -0.8849 -1.3917
  608MOL0     H82064  -1.650   0.811   3.017 -0.4147 -1.3381 -0.3695
  608MOL0     H82065  -1.481   0.789   3.188 -2.1320  1.6445 -1.1409
  608MOL0     H82066   0.222   0.088   3.802 -3.8680 -0.0679 -2.8997
  608MOL0     H82067   0.466   0.058   3.816  0.8097  0.7310  0.5986
  608MOL0     H82068   0.900   0.300   3.663  4.3702  1.7507 -2.0871
  608MOL0     H82069   1.110   0.269   3.637  1.8163  0.1246  0.6451
  608MOL0     H82070   1.314   0.198   3.994  0.2510  0.3624 -0.5912
  608MOL0     H82071   1.412   0.058   3.945  2.2366  0.1559 -1.5177
  608MOL0     H82072   1.475   0.264   3.763 -1.7844 -2.5075  0.1584
  608MOL0     H82073   1.571   0.174   3.884 -0.6328 -0.5797 -0.5369
  608MOL0     H82074   1.489   0.339   4.063 -0.7049  1.7391  0.4506
  608MOL0     H82075   1.422   0.435   3.923  0.5124  1.8742  1.8706
  608MOL0     H82076   1.636   0.526   3.988  2.9958  2.4071 -2.2907
  608MOL0     H82077   1.658   0.449   3.832  3.4729 -1.1600  0.8453
  608MOL0     H82078   1.924   0.236   4.077  0.4045 -0.9366  0.4076
  608MOL0     H82079   1.133   0.070   4.026 -0.2706 -1.5837 -1.1345
  608MOL0     H82080   0.895   0.096   4.053  0.2481 -1.4309 -1.0360
  609MOL0     O82081   5.991   3.454   4.098 -0.6116 -0.2178  0.8660
  609MOL0     C82082   6.061   3.542   4.136  0.1080  0.0393 -0.8246
  609MOL0     O82083   6.031   3.621   4.242 -0.2899  0.4861 -0.3053
  609MOL0     C82084   5.910   3.627   4.310  0.6317  0.4615  0.2524
  609MOL0     C82085   5.787   3.587   4.263  0.1155 -0.6271  0.4446
  609MOL0     C82086   5.667   3.600   4.335  0.2430 -0.8528 -0.0814
  609MOL0     C82087   5.667   3.662   4.462 -0.2570  0.2079  0.6994
  609MOL0     O82088   5.545   3.687   4.520  0.3114 -0.5989 -0.4068
  609MOL0     C82089   5.464   3.572   4.551 -0.1857  0.0223  0.1292
  609MOL0     C82090   5.330   3.609   4.613 -0.6804  0.4006 -0.2164
  609MOL0     C82091   5.221   3.494   4.605 -0.5297  0.0993 -0.1590
  609MOL0     C82092   5.102   3.534   4.683 -0.6902  0.2281  0.7164
  609MOL0     C82093   5.007   3.412   4.709 -1.1660 -0.6028 -0.6621
  609MOL0     C82094   4.908   3.386   4.600  0.1646 -0.3371 -0.1394
  609MOL0     C82095   4.819   3.267   4.638  0.1490 -0.3701 -0.1634
  609MOL0     C82096   4.724   3.222   4.532 -0.5340 -0.3342  0.4943
  609MOL0     N82097   4.600   3.171   4.578  0.2308 -0.0700  0.3223
  609MOL0     C82098   4.566   3.036   4.597  0.3206 -1.2503  0.8701
  609MOL0     C82099   4.461   3.037   4.686 -0.2795 -0.1040 -0.2501
  609MOL0     C82100   4.380   2.929   4.752 -0.8576 -0.3108  0.0395
  609MOL0     C82101   4.333   2.839   4.635  0.1990 -0.1718  0.5035
  609MOL0     C82102   4.233   2.735   4.693  0.0081  0.5061  0.1948
  609MOL0     C82103   4.300   2.639   4.793 -0.1419 -0.0247  0.6001
  609MOL0     O82104   4.229   2.507   4.773 -0.3789 -0.4150 -0.8152
  609MOL0     C82105   4.097   2.487   4.809 -0.1079  0.2590 -0.4494
  609MOL0     C82106   4.029   2.575   4.899 -0.3714  0.2260  0.0066
  609MOL0     C82107   3.898   2.546   4.941  0.7492 -0.8985  0.4996
  609MOL0     C82108   3.855   2.654   5.035  0.6689 -0.3129 -0.6629
  609MOL0     C82109   3.825   2.429   4.900 -0.5311  0.1132 -0.6613
  609MOL0     C82110   3.691   2.398   4.952 -0.6102 -0.1027  0.3526
  609MOL0     O82111   3.638   2.289   4.886 -0.1838  0.0002  0.0154
  609MOL0     C82112   3.513   2.245   4.929 -1.1318  1.1479  0.6327
  609MOL0     C82113   3.401   2.324   4.894  0.0520  0.2840 -0.0419
  609MOL0     C82114   3.272   2.281   4.906  0.7716 -0.0878 -1.2760
  609MOL0     C82115   3.251   2.151   4.953 -0.4479 -0.2942  0.3143
  609MOL0     O82116   3.127   2.091   4.967  0.2627  0.0504  0.1185
  609MOL0     C82117   3.011   2.171   4.980  0.0487  0.2525 -0.6467
  609MOL0     C82118   2.984   2.198   5.129 -0.4784 -0.0027 -0.1104
  609MOL0     C82119   2.871   2.303   5.139 -0.0870 -0.6216 -0.8705
  609MOL0     C82120   2.730   2.235   5.106  0.3697 -0.4116 -0.6061
  609MOL0     C82121   2.614   2.319   5.163 -0.3810  0.3389  0.5110
  609MOL0     C82122   2.615   2.333   5.316  0.0044 -0.3322  0.3863
  609MOL0     C82123   2.483   2.386   5.376  0.5147 -0.4677 -0.1918
  609MOL0     C82124   2.365   2.297   5.352 -0.2306 -0.0326 -0.0791
  609MOL0    Cl82125   2.234   2.363   5.454 -0.0721  0.3882 -0.0169
  609MOL0     C82126   3.358   2.071   4.968  0.4021 -0.1110  0.2328
  609MOL0     C82127   3.493   2.112   4.957 -0.0593 -0.1530 -0.8677
  609MOL0     O82128   3.637   2.461   5.041  0.1238  0.2453 -0.1785
  609MOL0     C82129   3.890   2.351   4.801 -0.4062  0.3615 -0.3080
  609MOL0     C82130   4.026   2.372   4.763 -1.0570 -1.3127 -0.4047
  609MOL0     N82131   4.432   3.169   4.717  1.0441 -0.4026  0.2689
  609MOL0     N82132   4.513   3.246   4.649  0.0439  0.5531 -0.6537
  609MOL0     C82133   5.784   3.709   4.501 -0.0519  0.1362 -0.3862
  609MOL0     C82134   5.905   3.701   4.433  0.3783  0.0103  0.0050
  609MOL0     C82135   6.192   3.560   4.074 -0.7647  0.3083  0.8380
  609MOL0     C82136   6.291   3.643   4.130 -0.1268  1.0639 -0.1105
  609MOL0     C82137   6.422   3.634   4.074  0.0045  0.7543  0.0827
  609MOL0     C82138   6.451   3.550   3.963  0.4556  0.6509 -0.0690
  609MOL0     O82139   6.575   3.574   3.903 -0.0122 -0.2853  0.2986
  609MOL0     C82140   6.635   3.462   3.839  0.3279 -0.0658  0.1994
  609MOL0     C82141   6.783   3.484   3.843 -0.4547  0.4460  0.5143
  609MOL0     C82142   6.839   3.463   3.983  0.3669 -0.2482 -0.4909
  609MOL0     C82143   6.993   3.485   3.986  0.2581  0.2633 -0.1193
  609MOL0     C82144   7.057   3.365   3.931 -0.3614 -0.9654  0.4410
  609MOL0     C82145   7.129   3.270   3.896 -0.2643  1.0750  0.3767
  609MOL0     C82146   6.347   3.482   3.899  0.1138 -0.4819 -0.3952
  609MOL0     C82147   6.220   3.485   3.953 -0.1174  0.1605 -0.1994
  609MOL0     H82148   5.766   3.531   4.173 -2.4214  2.3356 -1.0063
  609MOL0     H82149   5.577   3.558   4.293 -1.2732  1.8343  0.2172
  609MOL0     H82150   5.440   3.514   4.462  2.7331 -1.5671  0.2508
  609MOL0     H82151   5.523   3.516   4.624  2.2375  2.0260 -0.1313
  609MOL0     H82152   5.362   3.633   4.715 -0.8993 -0.6046  0.0990
  609MOL0     H82153   5.289   3.702   4.573 -1.4752 -0.6081 -1.9032
  609MOL0     H82154   5.192   3.479   4.500 -1.1377 -0.1048  0.0327
  609MOL0     H82155   5.255   3.400   4.649  0.6625 -0.5216 -2.2407
  609MOL0     H82156   5.131   3.573   4.781 -0.4998  1.4783  0.1734
  609MOL0     H82157   5.052   3.617   4.633  0.4123  1.2441  1.2453
  609MOL0     H82158   5.064   3.323   4.739 -0.1114  0.8161  1.8622
  609MOL0     H82159   4.958   3.426   4.806 -0.8556 -1.2701 -0.4035
  609MOL0     H82160   4.845   3.474   4.582  0.8542  0.4814  1.2879
  609MOL0     H82161   4.962   3.375   4.505 -1.7990 -0.0353 -1.3541
  609MOL0     H82162   4.886   3.184   4.662  1.2386  0.5699  0.0743
  609MOL0     H82163   4.759   3.295   4.726 -0.9150 -1.2882 -0.5625
  609MOL0     H82164   4.777   3.142   4.479  1.2480  0.9535  0.2430
  609MOL0     H82165   4.711   3.308   4.465  1.8991  1.2100  1.8352
  609MOL0     H82166   4.620   2.957   4.545 -0.6390 -1.3393 -0.0306
  609MOL0     H82167   4.440   2.886   4.833  1.1895  0.6215 -0.9096
  609MOL0     H82168   4.290   2.971   4.797 -1.4369  2.0538 -2.9977
  609MOL0     H82169   4.414   2.777   4.594 -1.2283 -1.4445 -0.5484
  609MOL0     H82170   4.287   2.879   4.543  1.2860  0.2860  0.1502
  609MOL0     H82171   4.208   2.671   4.608  1.3724  1.0471 -0.6483
  609MOL0     H82172   4.135   2.775   4.720 -1.2104 -2.5441  0.5809
  609MOL0     H82173   4.301   2.679   4.895  0.5975 -2.5966  1.6872
  609MOL0     H82174   4.401   2.627   4.754 -0.5196 -1.2274 -0.0446
  609MOL0     H82175   4.079   2.665   4.934 -0.9461  0.6656 -0.3006
  609MOL0     H82176   3.895   2.756   5.036 -3.0739  1.3022  0.8825
  609MOL0     H82177   3.749   2.665   5.014  0.5619  1.3417  0.5819
  609MOL0     H82178   3.866   2.609   5.135  1.7711 -1.3224 -1.2055
  609MOL0     H82179   3.408   2.422   4.848 -0.7000 -0.2691 -1.4280
  609MOL0     H82180   3.195   2.350   4.874  0.3515  0.4138  0.6723
  609MOL0     H82181   3.017   2.262   4.920 -2.5087  1.0795  0.2327
  609MOL0     H82182   2.927   2.118   4.934 -2.1007  4.0157 -1.4874
  609MOL0     H82183   2.974   2.104   5.186 -4.1502 -1.2503 -2.4490
  609MOL0     H82184   3.073   2.252   5.163  0.3251 -0.6317 -1.1800
  609MOL0     H82185   2.894   2.392   5.080  3.4271 -0.6246  0.2938
  609MOL0     H82186   2.874   2.343   5.241 -2.7378 -0.6025 -0.7316
  609MOL0     H82187   2.695   2.227   5.002 -3.7076 -0.9342  0.6282
  609MOL0     H82188   2.710   2.138   5.152 -2.0899  0.8071  1.1507
  609MOL0     H82189   2.522   2.269   5.134 -0.0510  0.1451 -0.2345
  609MOL0     H82190   2.623   2.418   5.117  3.5711 -1.1757 -2.6551
  609MOL0     H82191   2.648   2.236   5.355  2.2401  1.2567  2.7744
  609MOL0     H82192   2.695   2.404   5.337 -1.3438  1.2388  0.4084
  609MOL0     H82193   2.449   2.484   5.344 -4.5433 -1.6960  0.5321
  609MOL0     H82194   2.488   2.397   5.485 -1.0256 -0.8065 -0.0663
  609MOL0     H82195   2.381   2.194   5.384  0.7162 -1.1987 -3.8594
  609MOL0     H82196   2.339   2.317   5.248 -1.2655 -0.1045  0.1493
  609MOL0     H82197   3.337   1.968   4.992 -2.9218  1.1964  3.9995
  609MOL0     H82198   3.572   2.040   4.975  0.1601 -0.0475 -1.3828
  609MOL0     H82199   3.848   2.255   4.773 -0.0315  0.0375  0.2119
  609MOL0     H82200   4.079   2.312   4.689  1.4972  0.0505  0.2241
  609MOL0     H82201   5.793   3.755   4.599  2.0872 -2.1282  0.6019
  609MOL0     H82202   5.992   3.747   4.478 -0.4898  2.3197 -0.5331
  609MOL0     H82203   6.276   3.706   4.217 -0.4174 -0.6815  1.1519
  609MOL0     H82204   6.493   3.699   4.123 -0.7269 -1.1625  4.0699
  609MOL0     H82205   6.609   3.366   3.886  0.6244 -0.2814 -0.0761
  609MOL0     H82206   6.602   3.461   3.735  3.4459  0.7928 -0.9239
  609MOL0     H82207   6.801   3.589   3.819 -2.2868  1.4483  3.0740
  609MOL0     H82208   6.838   3.414   3.780 -0.5250 -2.1174  3.0790
  609MOL0     H82209   6.828   3.363   4.027  1.7376 -0.5185 -0.7265
  609MOL0     H82210   6.786   3.539   4.041  2.1907  1.6983 -1.2573
  609MOL0     H82211   7.026   3.498   4.089  2.8847  3.1838 -1.1698
  609MOL0     H82212   7.028   3.577   3.940 -2.0462  3.0988  3.3251
  609MOL0     H82213   7.189   3.187   3.866 -1.4582  0.0786  0.6551
  609MOL0     H82214   6.363   3.424   3.809 -2.7605 -1.3242 -0.4285
  609MOL0     H82215   6.140   3.427   3.909 -0.4830  0.4994  0.0100
  610MOL0     O82216   0.512   1.785  10.241  0.4100  0.1168  0.4401
  610MOL0     C82217   0.519   1.716  10.340 -0.2321  0.1021 -0.4336
  610MOL0     O82218   0.427   1.637  10.400  0.2588  0.1602  0.1436
  610MOL0     C82219   0.297   1.625  10.366  1.0961  0.6506  0.3813
  610MOL0     C82220   0.237   1.694  10.251 -0.1281  0.4285  0.0673
  610MOL0     C82221   0.107   1.683  10.214 -0.0161 -0.1706 -0.2689
  610MOL0     C82222   0.019   1.604  10.290 -0.7239  0.0230  0.6174
  610MOL0     O82223  -0.111   1.585  10.252 -0.5761  0.4850 -0.4273
  610MOL0     C82224  -0.162   1.658  10.136 -0.2672 -0.4201 -0.6839
  610MOL0     C82225  -0.305   1.622  10.126 -0.2237  0.5685 -1.3879
  610MOL0     C82226  -0.334   1.480  10.076 -0.5931  0.3373  0.0436
  610MOL0     C82227  -0.486   1.464  10.039  0.3094  0.4044  0.0244
  610MOL0     C82228  -0.523   1.330   9.969 -0.5548  0.2106  0.9081
  610MOL0     C82229  -0.522   1.226  10.077  0.6031  0.0679  0.2977
  610MOL0     C82230  -0.597   1.097  10.035  1.0600  0.2754 -0.6079
  610MOL0     C82231  -0.609   0.993  10.144 -0.4166 -0.0861 -0.4747
  610MOL0     N82232  -0.738   1.008  10.212 -0.9297 -0.9275 -0.2115
  610MOL0     C82233  -0.853   0.937  10.190  0.6471 -0.7995 -0.2394
  610MOL0     C82234  -0.949   0.992  10.271 -0.2139 -0.2549  0.1816
  610MOL0     C82235  -1.086   0.941  10.289  0.7290  0.1524  0.4451
  610MOL0     C82236  -1.174   0.973  10.164  0.1866 -1.0112  0.1414
  610MOL0     C82237  -1.261   1.102  10.176 -0.5010  0.7492 -1.3704
  610MOL0     C82238  -1.317   1.144  10.039 -0.3060 -0.0322  0.0023
  610MOL0     O82239  -1.397   1.045   9.976 -0.1237 -0.0769  0.3802
  610MOL0     C82240  -1.523   1.017  10.020 -0.0704  0.3351  0.3966
  610MOL0     C82241  -1.606   0.929   9.947 -0.3333  0.6481  0.1216
  610MOL0     C82242  -1.731   0.884   9.992  0.3682 -0.0925 -0.8803
  610MOL0     C82243  -1.813   0.797   9.903 -0.1977  0.3894 -0.6389
  610MOL0     C82244  -1.780   0.919  10.121  0.1059 -0.2625  0.4823
  610MOL0     C82245  -1.913   0.873  10.175 -0.1703 -0.0725  0.1613
  610MOL0     O82246  -1.928   0.853  10.307 -0.2876  0.2877 -0.3992
  610MOL0     C82247  -2.045   0.816  10.364  0.2120 -0.0118  0.3979
  610MOL0     C82248  -2.055   0.852  10.501  0.0024 -0.1559  0.1601
  610MOL0     C82249  -2.165   0.805  10.578 -0.1111 -0.4647  0.6239
  610MOL0     C82250  -2.268   0.728  10.522  0.2816 -0.0984 -0.3657
  610MOL0     O82251  -2.377   0.685  10.597 -0.1553 -0.3498  0.4706
  610MOL0     C82252  -2.341   0.594  10.698 -0.8346  0.1297 -0.5727
  610MOL0     C82253  -2.458   0.533  10.754 -0.5169 -0.3804  0.4109
  610MOL0     C82254  -2.580   0.631  10.767 -0.2701 -0.7823 -0.2669
  610MOL0     C82255  -2.683   0.570  10.852  0.2425 -0.0838  0.2174
  610MOL0     C82256  -2.815   0.652  10.835  0.5198 -0.0728  0.4174
  610MOL0     C82257  -2.921   0.599  10.930  0.0268 -0.4896 -0.3007
  610MOL0     C82258  -3.063   0.636  10.878  0.1856 -0.4218  0.0659
  610MOL0     C82259  -3.170   0.572  10.980  0.4266  0.5150  0.3385
  610MOL0    Cl82260  -3.330   0.631  10.945  0.0786 -0.0863 -0.1724
  610MOL0     C82261  -2.258   0.700  10.384  0.2182 -0.3356 -0.3084
  610MOL0     C82262  -2.144   0.735  10.312 -0.1805  1.1116  0.1442
  610MOL0     O82263  -2.004   0.861  10.089  0.8049 -0.2665 -0.5262
  610MOL0     C82264  -1.693   1.003  10.189  0.5849 -1.0244  0.0222
  610MOL0     C82265  -1.577   1.054  10.139 -0.0145  0.6789  0.3424
  610MOL0     N82266  -0.880   1.100  10.326 -0.2173 -0.7364 -1.0991
  610MOL0     N82267  -0.753   1.110  10.299 -0.1195  0.3397  0.2795
  610MOL0     C82268   0.072   1.551  10.409 -0.3202  0.3134 -0.1899
  610MOL0     C82269   0.208   1.550  10.434  0.6979 -0.2131 -0.3012
  610MOL0     C82270   0.660   1.699  10.395 -0.6633 -0.9930 -0.3357
  610MOL0     C82271   0.776   1.742  10.319  0.3274  0.4348 -0.9208
  610MOL0     C82272   0.904   1.732  10.370  0.0467 -0.8958  0.2004
  610MOL0     C82273   0.920   1.692  10.500  0.1319  0.1009 -0.7550
  610MOL0     O82274   1.049   1.697  10.551 -0.9479 -0.0262 -0.4283
  610MOL0     C82275   1.075   1.628  10.678  0.0611  0.5164  0.4503
  610MOL0     C82276   1.221   1.630  10.685  0.1293 -0.5284  0.1773
  610MOL0     C82277   1.283   1.770  10.690  0.0037 -0.4515  0.9404
  610MOL0     C82278   1.429   1.765  10.742  0.7782  0.3704 -0.4199
  610MOL0     C82279   1.496   1.898  10.751  0.0507  0.5693 -0.3732
  610MOL0     C82280   1.552   2.006  10.756  0.5016 -0.3956  0.5169
  610MOL0     C82281   0.815   1.657  10.579  0.0921 -0.3264 -0.0387
  610MOL0     C82282   0.690   1.653  10.527 -0.2676 -0.2424  0.5174
  610MOL0     H82283   0.295   1.767  10.198  3.4485 -0.7760  1.9902
  610MOL0     H82284   0.072   1.751  10.137  1.9645  1.7443  0.4144
  610MOL0     H82285  -0.155   1.766  10.150  0.3992 -0.3840 -1.2639
  610MOL0     H82286  -0.117   1.630  10.040  1.0942  0.6086 -0.3748
  610MOL0     H82287  -0.349   1.644  10.224 -0.0364 -0.7028 -0.9954
  610MOL0     H82288  -0.375   1.693  10.080 -3.1673  0.2904  2.2023
  610MOL0     H82289  -0.274   1.471   9.985 -0.2247 -0.7325  0.3797
  610MOL0     H82290  -0.308   1.406  10.152 -2.3070 -0.2546  0.1057
  610MOL0     H82291  -0.552   1.491  10.123  1.4274  0.0659  1.0309
  610MOL0     H82292  -0.500   1.530   9.953 -1.1020  1.2734  0.8839
  610MOL0     H82293  -0.616   1.327   9.912  0.5324  1.1329 -1.0382
  610MOL0     H82294  -0.437   1.320   9.902  0.9220 -1.4108  2.9009
  610MOL0     H82295  -0.416   1.205  10.091  1.4099  2.5618 -1.3688
  610MOL0     H82296  -0.572   1.262  10.167  0.8059 -1.6924  1.1580
  610MOL0     H82297  -0.690   1.125   9.985  0.8160 -1.8587 -1.4229
  610MOL0     H82298  -0.533   1.054   9.957 -0.1580 -0.7998 -1.0408
  610MOL0     H82299  -0.527   1.002  10.216 -2.0889 -0.7664  1.6311
  610MOL0     H82300  -0.611   0.894  10.098  0.1170  1.2397 -3.6222
  610MOL0     H82301  -0.855   0.850  10.125  0.5593 -2.2522  1.6053
  610MOL0     H82302  -1.087   0.834  10.312 -1.4995  0.4811  2.2870
  610MOL0     H82303  -1.141   0.994  10.368 -0.2975 -0.2170 -0.0066
  610MOL0     H82304  -1.235   0.884  10.146 -1.6320 -0.1869  1.8896
  610MOL0     H82305  -1.106   0.986  10.079  0.0736 -0.7911  0.0861
  610MOL0     H82306  -1.195   1.184  10.205 -0.0606  0.2301 -0.8883
  610MOL0     H82307  -1.329   1.089  10.261  1.4994  3.0461  0.7487
  610MOL0     H82308  -1.229   1.168   9.978 -0.1259 -1.4365 -0.3159
  610MOL0     H82309  -1.379   1.232  10.060  0.5356  1.0676 -1.8392
  610MOL0     H82310  -1.569   0.886   9.855 -0.4694  2.9020 -1.0439
  610MOL0     H82311  -1.858   0.708   9.948  2.1737 -0.7766 -0.4484
  610MOL0     H82312  -1.893   0.861   9.864 -0.9460  1.1706  2.0058
  610MOL0     H82313  -1.750   0.762   9.821  4.5409  1.6018  2.1374
  610MOL0     H82314  -1.983   0.913  10.553 -2.2117  2.4638  0.3638
  610MOL0     H82315  -2.176   0.839  10.680 -0.5715  2.6780 -0.3591
  610MOL0     H82316  -2.275   0.517  10.658  2.7281  1.7529  1.6802
  610MOL0     H82317  -2.281   0.646  10.774  2.7448 -3.8403 -0.3049
  610MOL0     H82318  -2.486   0.454  10.684 -0.4032  0.5255 -0.6817
  610MOL0     H82319  -2.433   0.488  10.851 -0.4777 -0.5475  0.3240
  610MOL0     H82320  -2.620   0.664  10.671  1.5089  0.4327 -0.6372
  610MOL0     H82321  -2.558   0.725  10.818 -1.5290  1.2408 -3.1554
  610MOL0     H82322  -2.691   0.464  10.825  2.3365  0.4690 -3.2048
  610MOL0     H82323  -2.652   0.579  10.957 -0.7754 -0.4040  0.5589
  610MOL0     H82324  -2.852   0.642  10.733  1.9916  0.2271 -0.1569
  610MOL0     H82325  -2.805   0.759  10.856  1.3526 -0.2049  0.7255
  610MOL0     H82326  -2.913   0.490  10.937  1.1614 -0.5140 -1.5885
  610MOL0     H82327  -2.906   0.646  11.027 -1.5840 -1.8796  0.6746
  610MOL0     H82328  -3.077   0.601  10.775  4.0477 -0.0303 -0.7257
  610MOL0     H82329  -3.066   0.744  10.867  0.3959 -0.5954 -2.3956
  610MOL0     H82330  -3.146   0.611  11.079  0.6482 -2.0052  1.3319
  610MOL0     H82331  -3.165   0.463  10.981 -0.9314  0.4271  0.3798
  610MOL0     H82332  -2.337   0.652  10.327  1.9331 -2.6354 -0.8847
  610MOL0     H82333  -2.132   0.708  10.208  1.9226  0.0502  0.6094
  610MOL0     H82334  -1.730   1.046  10.282  0.9979 -3.1772  1.2293
  610MOL0     H82335  -1.526   1.137  10.188 -1.7865  0.3591  2.9655
  610MOL0     H82336   0.012   1.500  10.484  2.2983  0.2176  1.9865
  610MOL0     H82337   0.255   1.496  10.516  3.3767  1.3996 -0.6390
  610MOL0     H82338   0.764   1.771  10.215  1.8236 -3.1522 -2.2592
  610MOL0     H82339   0.987   1.768  10.310 -0.1247  0.0050  0.4864
  610MOL0     H82340   1.031   1.683  10.761 -0.4552  1.1338 -0.2125
  610MOL0     H82341   1.043   1.524  10.684  0.8864  0.3157  1.6584
  610MOL0     H82342   1.277   1.561  10.621  2.4137 -0.0199  1.5163
  610MOL0     H82343   1.247   1.580  10.779 -2.6825 -0.3587  1.1264
  610MOL0     H82344   1.230   1.841  10.755 -0.9596  1.4785 -1.7719
  610MOL0     H82345   1.275   1.816  10.591 -1.4770  0.3669  1.4030
  610MOL0     H82346   1.487   1.697  10.679 -0.0997  1.5068 -2.5659
  610MOL0     H82347   1.428   1.725  10.844  0.3854 -0.0091 -0.5712
  610MOL0     H82348   1.586   2.108  10.748  2.1542 -0.7268  2.4323
  610MOL0     H82349   0.838   1.629  10.681 -0.5593  3.4184  1.2952
  610MOL0     H82350   0.608   1.607  10.581 -0.5841  2.3774  2.4572
  611MOL0     O82351   8.773   1.361   4.711  0.3026  0.3776  0.5983
  611MOL0     C82352   8.810   1.430   4.804 -0.0886 -0.7398 -0.5368
  611MOL0     O82353   8.752   1.546   4.846  0.0432 -0.2643  0.4674
  611MOL0     C82354   8.619   1.575   4.822 -0.0555  0.9344  0.4945
  611MOL0     C82355   8.517   1.482   4.804  0.5352 -0.4355  0.2625
  611MOL0     C82356   8.387   1.519   4.764 -0.2919 -0.4605  0.4474
  611MOL0     C82357   8.351   1.657   4.779 -0.3967 -0.1015  0.1264
  611MOL0     O82358   8.216   1.685   4.771 -0.6749  0.0391  0.4953
  611MOL0     C82359   8.155   1.629   4.664  0.5207  0.7558  0.0653
  611MOL0     C82360   8.034   1.711   4.628 -0.9286 -0.3187  0.1107
  611MOL0     C82361   7.921   1.625   4.573  0.7035  0.2984  0.2231
  611MOL0     C82362   7.830   1.726   4.497  0.2500  0.9049 -0.4758
  611MOL0     C82363   7.685   1.673   4.473  0.5940  0.1214 -0.0139
  611MOL0     C82364   7.611   1.800   4.420 -0.8362  0.4747 -0.0111
  611MOL0     C82365   7.461   1.789   4.427  0.2424 -0.7960 -0.7380
  611MOL0     C82366   7.405   1.660   4.361 -0.7931 -0.5986 -0.0339
  611MOL0     N82367   7.259   1.654   4.406  0.1899  0.2106 -0.0090
  611MOL0     C82368   7.213   1.554   4.489 -0.1840 -0.0755 -0.2116
  611MOL0     C82369   7.077   1.571   4.491 -0.7224  0.0511 -0.2057
  611MOL0     C82370   6.983   1.483   4.578 -0.4538  0.1203  0.0690
  611MOL0     C82371   6.914   1.385   4.487 -1.1524  0.3938  0.5912
  611MOL0     C82372   6.802   1.445   4.401  0.4849  0.5741  0.1236
  611MOL0     C82373   6.709   1.330   4.345 -0.2935 -0.1485  0.0023
  611MOL0     O82374   6.586   1.394   4.302 -0.2816 -0.4075  0.2067
  611MOL0     C82375   6.476   1.380   4.384  0.1977 -0.2970 -1.1060
  611MOL0     C82376   6.481   1.389   4.518 -0.5811 -0.2545  0.0978
  611MOL0     C82377   6.364   1.384   4.586 -0.2162 -0.1246 -0.2547
  611MOL0     C82378   6.378   1.419   4.732  0.1520 -0.1188  0.0176
  611MOL0     C82379   6.231   1.378   4.527 -0.3415  0.3828 -0.1171
  611MOL0     C82380   6.096   1.381   4.604  0.4034  0.0134 -0.0035
  611MOL0     O82381   5.985   1.405   4.529 -0.0259 -0.3425  0.1851
  611MOL0     C82382   5.869   1.463   4.572  0.7401 -0.0504  0.9339
  611MOL0     C82383   5.770   1.458   4.476  0.1909  0.5447 -0.1817
  611MOL0     C82384   5.645   1.514   4.500 -0.1473 -0.0411  0.7395
  611MOL0     C82385   5.610   1.571   4.619  0.0277 -0.7944 -0.0968
  611MOL0     O82386   5.489   1.633   4.637 -0.3426 -0.2371  0.8580
  611MOL0     C82387   5.410   1.601   4.751 -0.4522  0.1282 -0.0891
  611MOL0     C82388   5.299   1.701   4.796  0.1426  0.0738  0.2280
  611MOL0     C82389   5.197   1.715   4.682 -0.0213 -0.4315 -0.5329
  611MOL0     C82390   5.065   1.787   4.717 -0.5075 -0.2266  0.6617
  611MOL0     C82391   4.955   1.753   4.614 -0.4396 -0.3526 -0.8849
  611MOL0     C82392   4.887   1.622   4.676  0.3347 -0.5695  0.0356
  611MOL0     C82393   4.753   1.581   4.610  0.4227  0.6321  0.0817
  611MOL0     C82394   4.765   1.538   4.460 -0.0473  0.8676 -0.2482
  611MOL0    Cl82395   4.871   1.394   4.456 -0.0229 -0.5001 -0.0809
  611MOL0     C82396   5.709   1.557   4.725  0.4492  0.4354 -0.2842
  611MOL0     C82397   5.840   1.509   4.702  0.4208 -0.4572  0.1913
  611MOL0     O82398   6.094   1.350   4.722  0.4168 -0.3635  0.5449
  611MOL0     C82399   6.220   1.368   4.388  0.7459  0.1042 -0.7871
  611MOL0     C82400   6.348   1.375   4.325 -0.7393  0.1826  0.6756
  611MOL0     N82401   7.047   1.683   4.410 -0.4912  0.2824 -0.0609
  611MOL0     N82402   7.153   1.725   4.356 -0.4848 -0.3297  0.0338
  611MOL0     C82403   8.452   1.754   4.800 -0.9617  1.0756 -0.6853
  611MOL0     C82404   8.588   1.710   4.833  0.3890  0.0826 -0.6845
  611MOL0     C82405   8.945   1.397   4.869  1.5162 -0.3242 -0.5454
  611MOL0     C82406   8.990   1.268   4.893  0.0573 -0.3408  0.2407
  611MOL0     C82407   9.113   1.240   4.957  0.7359  0.3048 -0.2773
  611MOL0     C82408   9.188   1.350   5.001  0.4076 -0.5994  0.4887
  611MOL0     O82409   9.301   1.345   5.074  0.9440 -0.0960  0.6073
  611MOL0     C82410   9.335   1.212   5.128  0.5502  0.4102  0.6586
  611MOL0     C82411   9.424   1.229   5.255  0.7217  0.4838 -0.2023
  611MOL0     C82412   9.558   1.285   5.222  0.1632  0.6665  0.3764
  611MOL0     C82413   9.654   1.301   5.340 -0.4268  0.0629 -0.3016
  611MOL0     C82414   9.705   1.168   5.385 -0.0157 -0.3496  0.3118
  611MOL0     C82415   9.753   1.056   5.413 -0.0129  0.5649 -0.7593
  611MOL0     C82416   9.151   1.484   4.964  0.1642  0.1615  0.6793
  611MOL0     C82417   9.030   1.503   4.905  0.7176  0.0426 -0.0949
  611MOL0     H82418   8.547   1.380   4.824  0.8662 -0.8463 -2.0768
  611MOL0     H82419   8.318   1.438   4.742  0.3562 -0.9644  0.2298
  611MOL0     H82420   8.219   1.615   4.576  0.9339  2.7362  0.0088
  611MOL0     H82421   8.133   1.523   4.678  4.6216  0.1356  3.6202
  611MOL0     H82422   7.992   1.757   4.718 -0.9893 -0.3253  0.0855
  611MOL0     H82423   8.073   1.787   4.560  2.2504 -1.8019  0.1056
  611MOL0     H82424   7.960   1.553   4.500  0.5284  0.8802 -0.4447
  611MOL0     H82425   7.870   1.566   4.650  1.1158  0.4843  0.6461
  611MOL0     H82426   7.827   1.815   4.560  2.1018  2.3767 -2.3316
  611MOL0     H82427   7.877   1.760   4.404  1.6632  2.4581  0.7375
  611MOL0     H82428   7.689   1.592   4.399 -0.5786 -0.5725  0.6616
  611MOL0     H82429   7.646   1.635   4.568  2.5753 -1.6677  0.1732
  611MOL0     H82430   7.639   1.882   4.486  0.3313  2.3385 -2.6546
  611MOL0     H82431   7.640   1.815   4.315  0.7337 -0.6253  0.2244
  611MOL0     H82432   7.433   1.798   4.532  1.0912  0.7337 -0.6256
  611MOL0     H82433   7.428   1.882   4.379  0.6765  1.5661  3.1352
  611MOL0     H82434   7.458   1.571   4.395  1.2077  0.9820  1.2286
  611MOL0     H82435   7.432   1.670   4.256 -0.3685  2.6842  0.2683
  611MOL0     H82436   7.279   1.487   4.543  0.8985  2.6651  2.1532
  611MOL0     H82437   7.040   1.424   4.650 -3.2162 -3.8928 -0.6644
  611MOL0     H82438   6.905   1.539   4.630 -1.9240 -1.3237 -0.5134
  611MOL0     H82439   6.871   1.309   4.551 -1.9492 -0.1041 -0.5022
  611MOL0     H82440   6.990   1.338   4.424 -2.1097  1.0858 -1.1833
  611MOL0     H82441   6.844   1.504   4.319  1.1249  1.6018  1.1720
  611MOL0     H82442   6.735   1.514   4.451 -2.0094 -1.2239 -0.5417
  611MOL0     H82443   6.701   1.251   4.419  2.9169 -0.0514  0.5714
  611MOL0     H82444   6.758   1.275   4.264 -0.7457 -4.0082  2.1572
  611MOL0     H82445   6.574   1.400   4.573 -0.6887  0.9410  0.0630
  611MOL0     H82446   6.328   1.506   4.775  1.2885  1.0354 -0.9317
  611MOL0     H82447   6.347   1.333   4.792  2.0372 -0.3910  0.6481
  611MOL0     H82448   6.484   1.429   4.755  0.0198  0.2535  0.4785
  611MOL0     H82449   5.793   1.411   4.381  1.6096 -1.9592  1.3035
  611MOL0     H82450   5.575   1.521   4.417 -3.3416  1.9664  3.3352
  611MOL0     H82451   5.360   1.505   4.732  0.2562  0.0389 -1.6261
  611MOL0     H82452   5.478   1.596   4.836 -0.1561 -0.8667 -0.3663
  611MOL0     H82453   5.259   1.653   4.886  0.3705 -1.4766 -0.4611
  611MOL0     H82454   5.346   1.795   4.826  0.1240 -0.1327  0.9258
  611MOL0     H82455   5.178   1.613   4.649  0.5141 -1.7023  2.7001
  611MOL0     H82456   5.250   1.778   4.610  0.9541  0.5151  0.9355
  611MOL0     H82457   5.033   1.743   4.811 -0.4970 -4.6091 -1.1447
  611MOL0     H82458   5.076   1.896   4.726  0.7906 -0.3040  0.1500
  611MOL0     H82459   4.990   1.728   4.513  0.7829 -1.0757 -0.3061
  611MOL0     H82460   4.888   1.838   4.598  1.9866  1.5848 -1.4289
  611MOL0     H82461   4.962   1.543   4.673  1.9138  0.7960  1.6563
  611MOL0     H82462   4.857   1.648   4.778  0.0424  0.0364 -0.2022
  611MOL0     H82463   4.686   1.668   4.608 -0.4000  0.0380  1.0404
  611MOL0     H82464   4.708   1.498   4.665  1.3180  0.0074 -0.1003
  611MOL0     H82465   4.788   1.626   4.399  0.8499  2.0304  1.6588
  611MOL0     H82466   4.667   1.505   4.425  1.3354  0.1917 -3.9721
  611MOL0     H82467   5.676   1.583   4.826 -2.2737  0.2236 -1.0353
  611MOL0     H82468   5.919   1.499   4.777  1.9453 -1.6775 -1.4801
  611MOL0     H82469   6.130   1.368   4.327 -0.4417 -1.1610  0.8676
  611MOL0     H82470   6.354   1.371   4.216 -3.2455 -3.5313  0.4935
  611MOL0     H82471   8.433   1.861   4.809  1.5240  1.5129  0.2415
  611MOL0     H82472   8.665   1.782   4.857  1.5044 -1.0480 -0.7386
  611MOL0     H82473   8.928   1.184   4.865  0.3319 -0.8201  1.0433
  611MOL0     H82474   9.142   1.141   4.991 -0.6605 -0.2200 -0.5258
  611MOL0     H82475   9.257   1.147   5.168  0.9719 -0.7544 -0.3724
  611MOL0     H82476   9.379   1.153   5.047  0.2134 -1.1611  1.5877
  611MOL0     H82477   9.433   1.133   5.306 -1.4396  0.9147  1.1406
  611MOL0     H82478   9.369   1.298   5.320  1.2676  1.0132 -0.2874
  611MOL0     H82479   9.552   1.382   5.171 -1.0088  0.6838  0.5116
  611MOL0     H82480   9.613   1.222   5.152  0.1069  1.3618 -0.3119
  611MOL0     H82481   9.602   1.347   5.424  0.5698  1.9177 -0.6573
  611MOL0     H82482   9.732   1.372   5.311  0.7413 -1.6132 -1.4631
  611MOL0     H82483   9.788   0.958   5.435 -2.6531 -1.3406 -4.1324
  611MOL0     H82484   9.202   1.573   5.001  1.6584 -0.0483 -0.7976
  611MOL0     H82485   8.996   1.606   4.896 -1.2359 -0.5466  0.0381
  612MOL0     O82486   2.120   9.095   4.292  0.2627  0.3387 -0.2365
  612MOL0     C82487   2.190   9.198   4.286  0.0403  0.4122 -0.5376
  612MOL0     O82488   2.140   9.325   4.301 -0.0442 -0.5981  0.0397
  612MOL0     C82489   2.002   9.345   4.296 -0.5156  0.3298 -0.2448
  612MOL0     C82490   1.946   9.409   4.407 -0.0526  0.0126  0.1083
  612MOL0     C82491   1.805   9.431   4.413 -0.2992 -0.2384 -0.7190
  612MOL0     C82492   1.720   9.407   4.295 -0.4929 -0.5415  0.1965
  612MOL0     O82493   1.592   9.446   4.315  0.0094  0.6088  0.2474
  612MOL0     C82494   1.517   9.422   4.198 -0.4726 -1.0021 -0.2466
  612MOL0     C82495   1.388   9.491   4.236 -0.2137  0.5156 -0.4750
  612MOL0     C82496   1.280   9.465   4.121  0.3211  0.0013  0.3972
  612MOL0     C82497   1.184   9.588   4.112 -0.7502 -0.4437  0.1835
  612MOL0     C82498   1.090   9.579   3.991 -0.4161  0.1146 -0.2173
  612MOL0     C82499   0.980   9.477   4.022 -0.4013  0.3980  0.1109
  612MOL0     C82500   0.885   9.457   3.905  0.1621 -0.3440  0.4586
  612MOL0     C82501   0.763   9.372   3.933  0.7430 -0.3988 -0.4926
  612MOL0     N82502   0.674   9.360   3.815 -1.1014  0.2828  0.0114
  612MOL0     C82503   0.568   9.446   3.782  0.7424  0.0355  0.5821
  612MOL0     C82504   0.535   9.411   3.654 -0.0381  0.4461  0.4691
  612MOL0     C82505   0.436   9.472   3.561 -0.3465  0.0786  0.0096
  612MOL0     C82506   0.296   9.427   3.608 -0.0014  0.1006  0.0560
  612MOL0     C82507   0.191   9.460   3.503  0.0398  0.5700 -0.7834
  612MOL0     C82508   0.050   9.417   3.533  0.3138 -0.0497 -1.0129
  612MOL0     O82509  -0.008   9.505   3.629  0.2597 -0.3837 -0.1031
  612MOL0     C82510  -0.146   9.488   3.656  0.1774 -0.0550  0.3380
  612MOL0     C82511  -0.212   9.609   3.683  0.5325  0.1031 -0.3326
  612MOL0     C82512  -0.348   9.619   3.712  0.1355  1.1754 -0.7375
  612MOL0     C82513  -0.407   9.757   3.739  0.0915 -0.0051 -0.8633
  612MOL0     C82514  -0.422   9.499   3.709 -0.5188 -0.0904  0.2269
  612MOL0     C82515  -0.569   9.484   3.735  0.3262 -0.2866 -0.3489
  612MOL0     O82516  -0.631   9.607   3.741  0.5647  0.4993 -0.1908
  612MOL0     C82517  -0.757   9.630   3.790  0.9031  0.7421 -0.1923
  612MOL0     C82518  -0.793   9.590   3.918 -0.2335  0.2711  0.4811
  612MOL0     C82519  -0.926   9.605   3.966 -0.2611 -0.5466  0.3353
  612MOL0     C82520  -1.017   9.678   3.894 -0.0868  0.2140 -1.0780
  612MOL0     O82521  -1.145   9.710   3.927 -0.0680  0.4534  0.8503
  612MOL0     C82522  -1.207   9.647   4.041  0.6890 -0.5765 -0.0617
  612MOL0     C82523  -1.358   9.659   4.004 -0.2344  0.0955 -0.1612
  612MOL0     C82524  -1.432   9.578   4.116  0.1556 -0.2941 -0.0751
  612MOL0     C82525  -1.576   9.576   4.074  0.1393  0.6732  1.2956
  612MOL0     C82526  -1.668   9.508   4.170 -0.3883  0.1710  0.4262
  612MOL0     C82527  -1.817   9.519   4.140 -0.5004 -1.0299  0.0185
  612MOL0     C82528  -1.908   9.447   4.244 -0.7658  0.6817 -0.2610
  612MOL0     C82529  -2.057   9.463   4.219 -0.3015 -0.0043  0.2949
  612MOL0    Cl82530  -2.102   9.626   4.165  0.5050  0.3419  0.1015
  612MOL0     C82531  -0.978   9.722   3.766 -0.7096  0.2784 -0.6541
  612MOL0     C82532  -0.850   9.696   3.717  0.5203 -0.0741  0.2427
  612MOL0     O82533  -0.619   9.377   3.771  0.0694 -0.7386 -0.1660
  612MOL0     C82534  -0.355   9.381   3.675  0.7414  0.6252 -0.1744
  612MOL0     C82535  -0.217   9.373   3.655  0.0936 -0.0072 -0.0535
  612MOL0     N82536   0.626   9.319   3.615  0.1967 -0.3361  0.6694
  612MOL0     N82537   0.703   9.282   3.710 -0.5638 -0.3286  0.1959
  612MOL0     C82538   1.775   9.344   4.189  0.1838  0.0457 -0.2368
  612MOL0     C82539   1.915   9.322   4.183 -0.2760  0.1928  0.3161
  612MOL0     C82540   2.336   9.186   4.261 -0.5702 -0.5059  0.1869
  612MOL0     C82541   2.404   9.065   4.276 -0.2005  0.3907 -0.3205
  612MOL0     C82542   2.544   9.063   4.243  0.0094  0.0107  0.4965
  612MOL0     C82543   2.609   9.177   4.197 -0.5737 -0.2574  0.6533
  612MOL0     O82544   2.749   9.179   4.191 -0.2938  1.0607 -1.0434
  612MOL0     C82545   2.833   9.059   4.209  0.4191 -0.5180  0.2464
  612MOL0     C82546   2.973   9.106   4.227 -0.4920  0.0214 -0.4585
  612MOL0     C82547   3.069   8.995   4.277  0.3468 -0.1799  0.0394
  612MOL0     C82548   3.137   8.908   4.171  0.5455 -0.4053  0.1308
  612MOL0     C82549   3.228   8.806   4.219  0.4839  0.5456 -0.0381
  612MOL0     C82550   3.293   8.714   4.254 -0.5579  0.5214  0.8507
  612MOL0     C82551   2.534   9.291   4.186 -0.5129 -0.3021  0.5715
  612MOL0     C82552   2.401   9.299   4.219 -0.4086 -0.0716 -0.4136
  612MOL0     H82553   2.016   9.426   4.489  0.7929 -0.6311 -0.4657
  612MOL0     H82554   1.765   9.481   4.501  4.0537 -0.6771  1.7927
  612MOL0     H82555   1.555   9.467   4.106  0.5819 -0.9753  0.1908
  612MOL0     H82556   1.510   9.313   4.184  0.7958 -1.4032  1.7557
  612MOL0     H82557   1.354   9.475   4.339  1.1182  2.3929  0.3148
  612MOL0     H82558   1.400   9.600   4.234  1.6940  0.4460  1.7688
  612MOL0     H82559   1.346   9.470   4.034 -0.2459 -3.8774 -0.4469
  612MOL0     H82560   1.240   9.363   4.120  1.8836 -0.6922  2.3637
  612MOL0     H82561   1.125   9.612   4.200 -0.1338 -0.6206  0.6464
  612MOL0     H82562   1.256   9.668   4.093 -0.3582 -0.6901  0.6132
  612MOL0     H82563   1.051   9.680   3.971  0.3365  0.3998 -0.3080
  612MOL0     H82564   1.138   9.555   3.896  0.5746  1.4181 -0.0768
  612MOL0     H82565   1.024   9.382   4.056 -1.2434  0.3703  1.1741
  612MOL0     H82566   0.933   9.523   4.110  0.9874  2.9879 -0.3848
  612MOL0     H82567   0.852   9.557   3.878 -0.2775 -0.3224  1.0425
  612MOL0     H82568   0.940   9.402   3.829  0.4097 -0.3388  0.6332
  612MOL0     H82569   0.708   9.404   4.022  1.4143 -1.3622  0.2823
  612MOL0     H82570   0.800   9.272   3.956  0.7446 -0.4930 -0.8997
  612MOL0     H82571   0.527   9.530   3.836 -0.3629  1.2544 -1.9978
  612MOL0     H82572   0.457   9.579   3.556  0.6669 -0.1617 -2.8367
  612MOL0     H82573   0.458   9.433   3.461 -0.7304 -0.1273  0.0064
  612MOL0     H82574   0.269   9.468   3.706 -1.5087 -2.0123  0.5911
  612MOL0     H82575   0.297   9.318   3.617  3.8247 -0.2689 -2.3691
  612MOL0     H82576   0.218   9.407   3.411  0.3239 -0.6035 -0.0388
  612MOL0     H82577   0.176   9.565   3.474  0.8376  0.9739  0.2076
  612MOL0     H82578   0.042   9.317   3.577  0.2035  0.6430  0.6282
  612MOL0     H82579  -0.013   9.421   3.444 -0.6199 -2.4682 -0.5293
  612MOL0     H82580  -0.150   9.699   3.679 -0.2707  0.6419 -0.9483
  612MOL0     H82581  -0.331   9.832   3.758 -2.3587  2.1806  1.0770
  612MOL0     H82582  -0.462   9.785   3.648 -3.1844 -2.8723 -0.0272
  612MOL0     H82583  -0.477   9.756   3.823  0.4171 -2.5591 -0.5401
  612MOL0     H82584  -0.726   9.527   3.976 -0.2273  0.5919  0.8245
  612MOL0     H82585  -0.959   9.554   4.056 -0.6269 -2.8518 -1.0192
  612MOL0     H82586  -1.194   9.539   4.055 -1.3182 -0.6261  2.0243
  612MOL0     H82587  -1.187   9.696   4.136 -0.9513  0.9960 -0.4640
  612MOL0     H82588  -1.386   9.765   3.999  1.9083  0.7200 -0.3188
  612MOL0     H82589  -1.370   9.611   3.906 -3.0623 -2.9014  1.4672
  612MOL0     H82590  -1.401   9.635   4.204  2.8955  1.8837 -2.2195
  612MOL0     H82591  -1.401   9.475   4.132 -2.7470 -0.8798  2.6629
  612MOL0     H82592  -1.603   9.679   4.048  1.2040  0.6080 -0.1817
  612MOL0     H82593  -1.591   9.527   3.977 -0.2013  0.9061  1.2262
  612MOL0     H82594  -1.646   9.550   4.268  1.2811  2.7199 -0.9158
  612MOL0     H82595  -1.654   9.399   4.173 -3.2541 -0.3380 -1.2315
  612MOL0     H82596  -1.842   9.625   4.146 -1.2561 -1.0459 -2.0322
  612MOL0     H82597  -1.834   9.489   4.036 -0.2151  0.3226 -0.4323
  612MOL0     H82598  -1.889   9.479   4.347  0.2790  0.3068 -0.3291
  612MOL0     H82599  -1.894   9.338   4.244 -2.7617  0.3657 -1.6721
  612MOL0     H82600  -2.116   9.445   4.309  0.6440 -1.0152  0.7307
  612MOL0     H82601  -2.090   9.391   4.144  0.4699 -0.7920  0.6968
  612MOL0     H82602  -1.042   9.781   3.702 -0.9220  1.3673  0.5304
  612MOL0     H82603  -0.812   9.733   3.623  1.9011  1.7080  1.4176
  612MOL0     H82604  -0.406   9.292   3.640  1.3728  1.1069 -2.5346
  612MOL0     H82605  -0.173   9.277   3.630  1.3287  0.6780 -0.6101
  612MOL0     H82606   1.717   9.302   4.107 -0.1407  1.6924 -0.8842
  612MOL0     H82607   1.953   9.276   4.093 -0.6135 -0.2162  0.3807
  612MOL0     H82608   2.358   8.968   4.297 -1.3457  0.8418 -0.6907
  612MOL0     H82609   2.597   8.968   4.248  1.2484  0.7432  2.4156
  612MOL0     H82610   2.804   9.007   4.301 -2.3366  1.3380  0.5797
  612MOL0     H82611   2.820   8.993   4.123 -3.3679  2.2398 -1.6514
  612MOL0     H82612   2.969   9.184   4.304 -0.6849 -0.8175  0.3901
  612MOL0     H82613   3.020   9.149   4.138  0.0324  2.9306  1.0979
  612MOL0     H82614   3.026   8.939   4.360 -0.8071  0.1995 -0.2919
  612MOL0     H82615   3.150   9.045   4.332 -0.2573  0.6008  0.2350
  612MOL0     H82616   3.176   8.984   4.102 -1.1246  1.0282  0.7085
  612MOL0     H82617   3.060   8.863   4.108 -2.0565  0.4826  2.5260
  612MOL0     H82618   3.364   8.639   4.284  2.1953  2.4887 -0.3257
  612MOL0     H82619   2.593   9.375   4.151  0.3169 -1.6316 -1.4525
  612MOL0     H82620   2.343   9.384   4.185 -0.0159  0.0073 -0.9029
  613MOL0     O82621   6.891   0.983   8.836 -0.0211 -0.6534  0.1412
  613MOL0     C82622   7.005   0.937   8.829  0.6019 -0.7291 -0.1455
  613MOL0     O82623   7.048   0.820   8.765 -0.1199  0.4425 -0.1182
  613MOL0     C82624   6.947   0.760   8.703 -0.8816  0.2766 -0.6334
  613MOL0     C82625   6.921   0.783   8.565  0.3619  0.7389 -0.0454
  613MOL0     C82626   6.816   0.711   8.498  1.0051  0.4512 -0.0647
  613MOL0     C82627   6.735   0.620   8.570  0.0943 -0.0798  0.1920
  613MOL0     O82628   6.624   0.548   8.515 -0.3684 -0.1229 -0.5130
  613MOL0     C82629   6.570   0.585   8.387 -0.2150  0.3212  0.5885
  613MOL0     C82630   6.428   0.511   8.372 -0.8464  0.6304  0.3479
  613MOL0     C82631   6.336   0.505   8.498 -0.3426 -0.7682 -0.4790
  613MOL0     C82632   6.209   0.438   8.471 -0.4117 -0.4237  0.1008
  613MOL0     C82633   6.108   0.534   8.394  0.3424  0.1568  0.1411
  613MOL0     C82634   5.963   0.481   8.396  0.4077 -0.6669  0.0762
  613MOL0     C82635   5.856   0.582   8.348  0.2950  0.3371 -0.2990
  613MOL0     C82636   5.730   0.499   8.312  0.2527  0.5975  1.1326
  613MOL0     N82637   5.618   0.586   8.264 -0.7747  0.3661  0.3055
  613MOL0     C82638   5.496   0.537   8.229 -0.3229 -0.1900 -0.2694
  613MOL0     C82639   5.429   0.646   8.191  0.0419 -0.4732  0.2118
  613MOL0     C82640   5.292   0.644   8.125  0.5468 -1.2410 -0.2663
  613MOL0     C82641   5.197   0.756   8.185  0.3724  0.8045 -0.0197
  613MOL0     C82642   5.054   0.710   8.192  0.9687  0.0406  0.3351
  613MOL0     C82643   4.957   0.821   8.245 -0.7493  0.8072  0.6688
  613MOL0     O82644   4.843   0.763   8.303 -0.0530 -0.5273  0.3737
  613MOL0     C82645   4.738   0.724   8.226 -0.2441 -0.2231 -1.1440
  613MOL0     C82646   4.737   0.715   8.085 -0.0452 -0.8146  0.0855
  613MOL0     C82647   4.628   0.689   8.012  0.0418 -0.6878 -0.1345
  613MOL0     C82648   4.633   0.699   7.860  0.2392 -0.2439  0.4563
  613MOL0     C82649   4.502   0.673   8.080 -0.5813  0.5571  0.3398
  613MOL0     C82650   4.368   0.655   8.021  0.9305 -0.2794 -0.2995
  613MOL0     O82651   4.257   0.654   8.101 -0.5622  0.2318 -0.0128
  613MOL0     C82652   4.130   0.644   8.053  0.5872  0.2415  0.6108
  613MOL0     C82653   4.044   0.545   8.100  0.3824  0.5269 -0.0693
  613MOL0     C82654   3.912   0.544   8.053  0.0861  0.1202  0.2750
  613MOL0     C82655   3.862   0.642   7.973  0.3078 -0.3039  0.0791
  613MOL0     O82656   3.727   0.653   7.956 -0.3660 -0.0565  0.3922
  613MOL0     C82657   3.662   0.781   7.969  0.1181  0.4197  0.1811
  613MOL0     C82658   3.507   0.757   7.979 -0.8498 -0.2098 -0.6040
  613MOL0     C82659   3.438   0.884   8.027 -0.5180  0.6706 -0.0572
  613MOL0     C82660   3.314   0.916   7.954 -0.2079 -0.0014 -0.0199
  613MOL0     C82661   3.216   0.799   7.956 -0.0887 -0.8617  1.0283
  613MOL0     C82662   3.108   0.816   7.844  0.1042  0.0328  0.5916
  613MOL0     C82663   3.005   0.702   7.846  0.1532  0.2041  0.6269
  613MOL0     C82664   2.918   0.700   7.967  0.0878  0.0146  0.4291
  613MOL0    Cl82665   2.846   0.856   7.985  0.4856 -0.0535 -0.0611
  613MOL0     C82666   3.948   0.746   7.933 -0.3135  0.5949  0.5261
  613MOL0     C82667   4.082   0.740   7.971 -0.8096 -0.2742 -0.0146
  613MOL0     O82668   4.360   0.636   7.899  0.3940 -0.1963 -0.2699
  613MOL0     C82669   4.501   0.687   8.221 -0.5211  0.2770  0.3422
  613MOL0     C82670   4.616   0.717   8.296 -0.0867  0.5200 -0.7196
  613MOL0     N82671   5.507   0.757   8.205 -0.7256 -0.2616  0.2312
  613MOL0     N82672   5.623   0.720   8.252 -0.2993  0.4080  1.1173
  613MOL0     C82673   6.770   0.598   8.710 -0.3393 -1.3799  0.1259
  613MOL0     C82674   6.872   0.658   8.769  0.6613 -0.3780 -0.1211
  613MOL0     C82675   7.113   0.995   8.906 -0.0347 -0.3284 -0.0505
  613MOL0     C82676   7.086   1.065   9.024  0.1433 -0.1811  0.6323
  613MOL0     C82677   7.182   1.128   9.096 -0.8924  0.2628 -0.1143
  613MOL0     C82678   7.319   1.100   9.073  0.4257 -0.1697 -0.8081
  613MOL0     O82679   7.424   1.138   9.148 -0.4501 -0.4574 -0.1825
  613MOL0     C82680   7.411   1.228   9.254 -0.3139  0.1918 -0.9501
  613MOL0     C82681   7.549   1.284   9.297  0.9776 -0.0361  0.5203
  613MOL0     C82682   7.587   1.391   9.195  0.1859 -0.2635  0.2500
  613MOL0     C82683   7.717   1.463   9.228 -0.0383  0.9484 -0.8351
  613MOL0     C82684   7.764   1.569   9.139  0.2412  0.3998 -0.2426
  613MOL0     C82685   7.786   1.665   9.068 -0.2197  0.1364 -0.7385
  613MOL0     C82686   7.357   1.025   8.966  0.7818 -0.4499  0.1150
  613MOL0     C82687   7.253   0.975   8.885 -0.5040 -0.5795  0.3212
  613MOL0     H82688   6.988   0.841   8.503  1.3474  1.2521  1.4402
  613MOL0     H82689   6.817   0.715   8.390 -0.7396  1.7013 -0.0690
  613MOL0     H82690   6.561   0.694   8.383  2.9916  0.6266 -2.1492
  613MOL0     H82691   6.635   0.553   8.305 -0.7796 -1.9950  0.9835
  613MOL0     H82692   6.385   0.564   8.286 -1.5807 -0.9619 -0.3096
  613MOL0     H82693   6.445   0.410   8.335  1.1219  1.7562 -2.1434
  613MOL0     H82694   6.381   0.449   8.581 -0.9342  2.8473  2.5362
  613MOL0     H82695   6.304   0.605   8.527 -3.3190 -1.3549 -1.3354
  613MOL0     H82696   6.229   0.356   8.402  1.8106  2.7845 -3.4789
  613MOL0     H82697   6.158   0.410   8.563 -0.3342 -0.3883  0.1546
  613MOL0     H82698   6.115   0.630   8.446  2.1749  0.1519 -0.0229
  613MOL0     H82699   6.148   0.536   8.292  0.1351 -1.2777  0.0031
  613MOL0     H82700   5.964   0.395   8.328  0.0639 -0.4350 -0.2318
  613MOL0     H82701   5.943   0.440   8.495 -2.2449 -0.1613 -0.1681
  613MOL0     H82702   5.831   0.652   8.429 -2.0839 -0.9487  0.1711
  613MOL0     H82703   5.893   0.638   8.262 -0.9704  2.0235  0.2026
  613MOL0     H82704   5.696   0.442   8.399 -2.0523 -0.8832 -0.6309
  613MOL0     H82705   5.744   0.423   8.234  0.1120  1.3577  0.3465
  613MOL0     H82706   5.454   0.438   8.239  0.1375 -0.3825 -0.2226
  613MOL0     H82707   5.293   0.648   8.016  0.1357 -2.2307 -0.3171
  613MOL0     H82708   5.245   0.549   8.150 -2.2018 -0.2941 -1.4702
  613MOL0     H82709   5.186   0.854   8.137 -1.6577  0.8833  0.5295
  613MOL0     H82710   5.231   0.770   8.288 -0.0559  0.9209  0.1100
  613MOL0     H82711   5.043   0.619   8.251  1.5416 -0.0695  0.2746
  613MOL0     H82712   5.034   0.680   8.089 -0.5956  2.7130 -0.2480
  613MOL0     H82713   4.935   0.887   8.161 -2.6155 -0.3188  0.2187
  613MOL0     H82714   4.997   0.886   8.323 -0.1546 -0.4133  1.4197
  613MOL0     H82715   4.830   0.732   8.030 -1.8358 -1.4723 -3.4307
  613MOL0     H82716   4.569   0.779   7.823  0.0299 -1.6021 -2.4072
  613MOL0     H82717   4.735   0.724   7.830 -1.0056 -0.5167 -5.1357
  613MOL0     H82718   4.604   0.605   7.812 -2.8132  0.6607  0.3000
  613MOL0     H82719   4.080   0.465   8.164 -1.2282  0.8282  1.2869
  613MOL0     H82720   3.851   0.464   8.093  1.9582 -0.9859  1.0704
  613MOL0     H82721   3.691   0.843   8.055  1.6680  0.5909 -0.4467
  613MOL0     H82722   3.684   0.834   7.876 -1.1532 -1.6544 -1.3802
  613MOL0     H82723   3.474   0.721   7.881  1.0485 -0.4023 -1.2307
  613MOL0     H82724   3.491   0.675   8.050  1.2313 -0.1292  0.0370
  613MOL0     H82725   3.509   0.966   8.010 -0.4102  0.2125 -2.0593
  613MOL0     H82726   3.420   0.892   8.135  1.3726  0.1640  0.3410
  613MOL0     H82727   3.286   1.012   7.998  3.1237  0.5029  1.3566
  613MOL0     H82728   3.338   0.937   7.849 -2.4545 -1.0133 -0.8032
  613MOL0     H82729   3.165   0.822   8.049 -2.5775  1.2371 -0.7071
  613MOL0     H82730   3.263   0.701   7.953 -1.0671 -1.3657  1.6556
  613MOL0     H82731   3.055   0.912   7.854  2.5023  1.4229  0.5579
  613MOL0     H82732   3.155   0.827   7.746  0.4206  1.5714  0.8920
  613MOL0     H82733   3.057   0.608   7.827  0.8895  0.9261 -1.0660
  613MOL0     H82734   2.946   0.728   7.758  4.4469 -0.1903 -2.6806
  613MOL0     H82735   2.988   0.690   8.051  1.7785  2.5948 -0.5493
  613MOL0     H82736   2.842   0.622   7.964 -0.4234  0.5172  0.3306
  613MOL0     H82737   3.911   0.830   7.876 -1.9159 -0.2354  0.2801
  613MOL0     H82738   4.155   0.815   7.944 -0.5818 -0.8110 -0.9666
  613MOL0     H82739   4.411   0.690   8.281 -0.8432 -0.0832 -0.1146
  613MOL0     H82740   4.620   0.733   8.404 -0.8376 -1.8544 -0.2577
  613MOL0     H82741   6.713   0.521   8.761 -0.4801 -1.0587  0.4559
  613MOL0     H82742   6.904   0.631   8.869  0.7603  0.5148  0.0971
  613MOL0     H82743   6.982   1.095   9.033  0.3010  0.2506  1.0223
  613MOL0     H82744   7.149   1.199   9.171  1.7336  0.5421  0.8922
  613MOL0     H82745   7.348   1.314   9.228  0.4820 -0.0055 -3.8392
  613MOL0     H82746   7.372   1.161   9.331  1.2084 -1.0726 -1.2341
  613MOL0     H82747   7.620   1.203   9.313 -1.5998 -2.0335  2.9907
  613MOL0     H82748   7.531   1.337   9.391  0.7133 -0.3472  0.6502
  613MOL0     H82749   7.508   1.466   9.190 -0.1808 -0.7176 -1.8069
  613MOL0     H82750   7.606   1.348   9.096  0.7305  1.6813 -0.5522
  613MOL0     H82751   7.796   1.389   9.247 -0.2353  1.2480  1.4344
  613MOL0     H82752   7.714   1.520   9.321 -0.1765 -0.0630 -0.1964
  613MOL0     H82753   7.810   1.764   9.033 -0.8265  0.0739 -1.3484
  613MOL0     H82754   7.462   1.008   8.946  0.5660 -0.8164 -0.7623
  613MOL0     H82755   7.282   0.910   8.804  0.3916 -1.4530  1.3110
  614MOL0     O82756   0.305   8.922   1.918  0.2845  0.1426 -0.4958
  614MOL0     C82757   0.404   8.849   1.914  0.9513 -0.5802 -0.4052
  614MOL0     O82758   0.406   8.712   1.897  0.4255  0.3830  0.1599
  614MOL0     C82759   0.279   8.657   1.901  0.0871 -0.3952 -0.0816
  614MOL0     C82760   0.223   8.608   2.022 -1.1880 -0.6069  0.1659
  614MOL0     C82761   0.095   8.553   2.019 -0.4659  0.5615 -0.3326
  614MOL0     C82762   0.022   8.547   1.902  0.6691  0.5189 -0.4278
  614MOL0     O82763  -0.115   8.517   1.902  0.0335  0.0761 -0.0569
  614MOL0     C82764  -0.205   8.603   1.826 -0.5146  0.7823  0.6261
  614MOL0     C82765  -0.341   8.556   1.874  0.5329  0.7801  0.0539
  614MOL0     C82766  -0.374   8.409   1.844  0.2834  0.1421 -0.2498
  614MOL0     C82767  -0.509   8.378   1.899  0.2928 -0.0532 -0.9390
  614MOL0     C82768  -0.598   8.319   1.789 -0.2326 -0.4449  0.1943
  614MOL0     C82769  -0.571   8.173   1.774 -0.5077  0.6286 -0.0045
  614MOL0     C82770  -0.612   8.110   1.642  0.3999 -0.1329 -0.8178
  614MOL0     C82771  -0.755   8.081   1.644  0.4310  0.1155 -0.0616
  614MOL0     N82772  -0.785   7.996   1.525  0.1936 -0.8675 -0.2440
  614MOL0     C82773  -0.771   7.857   1.513  0.2701 -0.0170 -0.0495
  614MOL0     C82774  -0.841   7.821   1.399 -0.2044  0.4737 -0.4453
  614MOL0     C82775  -0.868   7.682   1.348 -0.3516 -0.7009 -0.9762
  614MOL0     C82776  -1.013   7.676   1.293 -0.3339  0.5530  0.4757
  614MOL0     C82777  -1.039   7.737   1.152  0.8287  0.2864 -0.4027
  614MOL0     C82778  -1.126   7.652   1.056 -0.3582  0.4268 -0.1556
  614MOL0     O82779  -1.266   7.663   1.099  0.1959 -0.0750 -0.4109
  614MOL0     C82780  -1.351   7.585   1.038 -0.2776 -0.1706  0.0444
  614MOL0     C82781  -1.317   7.490   0.940  0.7158 -0.3549  0.5229
  614MOL0     C82782  -1.417   7.408   0.886  0.1210  1.0656  0.3818
  614MOL0     C82783  -1.380   7.314   0.779  0.5173  0.1268  0.6198
  614MOL0     C82784  -1.554   7.417   0.928  0.1427  0.5341 -0.1363
  614MOL0     C82785  -1.673   7.324   0.887 -0.1576  0.1882 -0.3211
  614MOL0     O82786  -1.796   7.358   0.919  1.4073  0.4675  0.5983
  614MOL0     C82787  -1.897   7.272   0.891  0.4971 -0.3201 -0.3566
  614MOL0     C82788  -1.999   7.266   0.986 -0.0414  0.1272  0.0610
  614MOL0     C82789  -2.109   7.184   0.964 -0.4450  0.5217  0.4869
  614MOL0     C82790  -2.119   7.097   0.848 -0.1416 -0.7368  0.3830
  614MOL0     O82791  -2.228   7.012   0.849  0.0479  0.1819 -0.4307
  614MOL0     C82792  -2.241   6.924   0.742 -0.5998  0.6754 -0.4401
  614MOL0     C82793  -2.348   6.823   0.765  0.2064 -0.1536 -0.7667
  614MOL0     C82794  -2.296   6.718   0.868 -0.4631  0.8212 -1.0274
  614MOL0     C82795  -2.407   6.646   0.933  0.6054 -0.0495 -0.5715
  614MOL0     C82796  -2.339   6.552   1.038 -0.1212  0.1702 -0.3602
  614MOL0     C82797  -2.425   6.521   1.167  0.6652  0.4680 -0.2510
  614MOL0     C82798  -2.505   6.393   1.161 -0.2882 -0.3061  0.4719
  614MOL0     C82799  -2.571   6.352   1.292 -0.0312  0.4126 -0.7997
  614MOL0    Cl82800  -2.452   6.310   1.414 -0.0452 -0.1392 -0.1265
  614MOL0     C82801  -2.011   7.095   0.761 -0.0626  0.3484 -0.1754
  614MOL0     C82802  -1.910   7.194   0.778 -0.2420  0.3936 -0.7822
  614MOL0     O82803  -1.638   7.222   0.830  0.2117  0.5095 -0.1191
  614MOL0     C82804  -1.586   7.508   1.029  1.0103 -0.4638  0.1942
  614MOL0     C82805  -1.483   7.593   1.076 -0.1770 -0.1901  0.2353
  614MOL0     N82806  -0.895   7.939   1.344  0.9914  0.2848  0.1849
  614MOL0     N82807  -0.854   8.034   1.416  0.0435 -0.1563  0.2715
  614MOL0     C82808   0.079   8.575   1.785  0.0154 -0.2911  0.7562
  614MOL0     C82809   0.208   8.621   1.783 -0.1980 -0.4036  0.2368
  614MOL0     C82810   0.534   8.918   1.933  0.0285  0.5271 -0.1880
  614MOL0     C82811   0.657   8.852   1.938 -0.5775  0.9508  0.6854
  614MOL0     C82812   0.779   8.921   1.953  0.5090  0.1033 -0.3350
  614MOL0     C82813   0.786   9.058   1.965  0.8747 -0.0629  0.1152
  614MOL0     O82814   0.888   9.149   1.993  0.1833  0.9110 -0.2620
  614MOL0     C82815   1.004   9.096   2.053 -0.3513 -0.0861 -0.3872
  614MOL0     C82816   1.101   9.035   1.957  0.2910 -0.0128  0.2378
  614MOL0     C82817   1.240   9.017   2.017  0.3429 -0.0073 -0.3359
  614MOL0     C82818   1.354   8.943   1.940 -0.1866  0.0310 -0.0918
  614MOL0     C82819   1.316   8.802   1.911  0.2101 -0.0587 -0.5061
  614MOL0     C82820   1.300   8.682   1.912 -0.3030  0.7678  0.5501
  614MOL0     C82821   0.661   9.122   1.958 -0.2143 -1.4269  0.5517
  614MOL0     C82822   0.538   9.052   1.947  0.0509 -1.0162  0.6954
  614MOL0     H82823   0.279   8.611   2.115  3.3733 -1.2255 -2.2945
  614MOL0     H82824   0.046   8.526   2.112 -0.0821 -0.9319 -0.5493
  614MOL0     H82825  -0.192   8.709   1.845 -0.7651  1.6308 -3.0484
  614MOL0     H82826  -0.196   8.578   1.719  0.0519  0.0117  0.8477
  614MOL0     H82827  -0.343   8.585   1.980 -0.4566  2.7611 -0.4605
  614MOL0     H82828  -0.421   8.614   1.828  1.9398  2.4169 -0.4419
  614MOL0     H82829  -0.367   8.387   1.737 -2.8820  1.4836 -0.8456
  614MOL0     H82830  -0.307   8.349   1.906 -1.8811 -2.2649 -0.0597
  614MOL0     H82831  -0.514   8.308   1.983 -1.2344 -0.4910 -1.3577
  614MOL0     H82832  -0.564   8.469   1.927 -1.4920 -0.7798 -1.9425
  614MOL0     H82833  -0.705   8.340   1.801 -0.6915 -1.9877 -0.9657
  614MOL0     H82834  -0.569   8.366   1.694  0.2048 -0.8427  0.1329
  614MOL0     H82835  -0.462   8.166   1.775 -0.4973 -0.1478 -2.1183
  614MOL0     H82836  -0.611   8.116   1.859 -1.1847 -1.9394 -1.9463
  614MOL0     H82837  -0.595   8.177   1.557  2.3363 -1.1168 -1.2563
  614MOL0     H82838  -0.556   8.019   1.621 -0.5251 -0.9218  0.0142
  614MOL0     H82839  -0.812   8.174   1.640  1.8660  0.9970 -0.6151
  614MOL0     H82840  -0.788   8.026   1.733 -4.7573 -0.6055 -2.0533
  614MOL0     H82841  -0.731   7.782   1.580 -0.7844 -1.7709 -1.2754
  614MOL0     H82842  -0.782   7.661   1.283  2.7209  0.3129  2.4597
  614MOL0     H82843  -0.856   7.609   1.428  2.9552  1.6666  0.9275
  614MOL0     H82844  -1.084   7.721   1.362 -0.8862  0.5242 -0.0614
  614MOL0     H82845  -1.037   7.569   1.291 -1.3073  0.7594 -1.6298
  614MOL0     H82846  -0.945   7.759   1.101  1.5046  3.4217  1.9040
  614MOL0     H82847  -1.088   7.834   1.164  0.4995 -0.0442  1.0951
  614MOL0     H82848  -1.079   7.553   1.054 -0.8210  0.1492 -3.2361
  614MOL0     H82849  -1.109   7.695   0.956  1.1542  1.2516  0.4179
  614MOL0     H82850  -1.216   7.483   0.900  1.1303 -0.6732  1.5800
  614MOL0     H82851  -1.281   7.325   0.733 -0.5488  0.7854 -1.6763
  614MOL0     H82852  -1.380   7.213   0.821  0.8895  0.5316  1.6458
  614MOL0     H82853  -1.454   7.329   0.700  1.8550  1.0022 -0.5127
  614MOL0     H82854  -1.997   7.327   1.076  3.8031 -0.0857  0.2975
  614MOL0     H82855  -2.194   7.174   1.031 -0.8055  0.7878  0.0736
  614MOL0     H82856  -2.265   6.980   0.651 -0.7324  0.7576 -0.3555
  614MOL0     H82857  -2.147   6.872   0.726 -0.0465  2.0886 -2.1663
  614MOL0     H82858  -2.444   6.870   0.789  1.2307  0.3826  2.9730
  614MOL0     H82859  -2.356   6.776   0.666 -0.4598  2.7701 -2.2271
  614MOL0     H82860  -2.234   6.767   0.943  0.5308  2.8610 -3.0639
  614MOL0     H82861  -2.227   6.651   0.817 -1.5332  0.7251 -2.4175
  614MOL0     H82862  -2.476   6.719   0.976 -1.0878  0.4604 -3.8228
  614MOL0     H82863  -2.474   6.583   0.873  0.7529 -1.0252  0.2591
  614MOL0     H82864  -2.240   6.581   1.073 -0.7683  1.4344  0.4794
  614MOL0     H82865  -2.317   6.460   0.982  0.6382  0.2715 -0.2408
  614MOL0     H82866  -2.364   6.506   1.256 -2.8457  1.2338  2.5289
  614MOL0     H82867  -2.495   6.602   1.188 -0.4805  0.2157 -2.7115
  614MOL0     H82868  -2.436   6.317   1.124  0.0416  0.5012 -0.6540
  614MOL0     H82869  -2.583   6.406   1.085  0.0709 -1.2725 -0.0737
  614MOL0     H82870  -2.639   6.268   1.273  0.9367 -0.2103 -1.6801
  614MOL0     H82871  -2.629   6.441   1.318 -1.0482 -0.3835 -0.2843
  614MOL0     H82872  -2.007   7.029   0.675 -1.5495  0.3862 -0.3097
  614MOL0     H82873  -1.844   7.199   0.692 -2.4030 -1.2225 -2.6459
  614MOL0     H82874  -1.687   7.505   1.068 -0.5872  0.8790 -3.4641
  614MOL0     H82875  -1.503   7.651   1.166  1.5686  4.2454 -1.9238
  614MOL0     H82876   0.020   8.567   1.694  0.9452  0.9634  0.0038
  614MOL0     H82877   0.250   8.638   1.684 -3.7023  0.4935 -1.2735
  614MOL0     H82878   0.656   8.744   1.926 -3.2124  1.0050 -0.1120
  614MOL0     H82879   0.872   8.864   1.956  1.1732  1.1982  1.7805
  614MOL0     H82880   1.053   9.177   2.108 -1.1285  1.7364 -2.2554
  614MOL0     H82881   0.985   9.017   2.127  4.3985 -2.6850 -1.5318
  614MOL0     H82882   1.093   9.090   1.863  1.1764 -0.7777 -0.2984
  614MOL0     H82883   1.063   8.935   1.935 -3.9176  1.6842 -1.1772
  614MOL0     H82884   1.234   8.951   2.104  1.8291 -0.4671 -0.5528
  614MOL0     H82885   1.271   9.117   2.050  1.8593 -0.4682 -0.2674
  614MOL0     H82886   1.438   8.949   2.010 -0.7027  1.0796  0.4565
  614MOL0     H82887   1.396   8.999   1.856  2.5583  0.0242  1.1431
  614MOL0     H82888   1.310   8.575   1.916 -1.6723  0.6394  0.8350
  614MOL0     H82889   0.654   9.230   1.956 -3.1487 -1.5094 -1.8569
  614MOL0     H82890   0.448   9.113   1.960  0.0218 -1.0950  0.8611
  615MOL0     O82891   5.088   4.377   5.318 -0.1005 -0.1487  0.2208
  615MOL0     C82892   5.121   4.274   5.269  0.0178  0.0952 -0.1208
  615MOL0     O82893   5.028   4.175   5.239  0.6703 -0.1849  0.1149
  615MOL0     C82894   4.896   4.184   5.263 -0.4696 -0.0711 -0.6688
  615MOL0     C82895   4.827   4.084   5.189  0.3661 -0.3423  0.0175
  615MOL0     C82896   4.685   4.066   5.217  0.7447  0.3554  0.4790
  615MOL0     C82897   4.621   4.141   5.314  0.9718 -0.2218 -0.0068
  615MOL0     O82898   4.491   4.105   5.340 -0.3041  0.7964  0.0001
  615MOL0     C82899   4.407   4.210   5.393  0.1520  0.6235 -0.1795
  615MOL0     C82900   4.261   4.165   5.394 -0.5416  0.6274 -0.9721
  615MOL0     C82901   4.243   4.061   5.504  1.2190 -0.0565 -0.5032
  615MOL0     C82902   4.117   3.985   5.468  0.1977 -0.2474  0.3325
  615MOL0     C82903   4.076   3.880   5.583  0.1013 -0.4971  0.1636
  615MOL0     C82904   3.951   3.793   5.555 -0.1830  0.4821 -0.0102
  615MOL0     C82905   3.986   3.676   5.462 -0.2157 -0.4211 -0.0686
  615MOL0     C82906   3.870   3.582   5.460  0.0849  0.0121 -0.2262
  615MOL0     N82907   3.742   3.647   5.442 -0.3701 -0.4383  0.1023
  615MOL0     C82908   3.668   3.663   5.326 -0.6212  0.0159 -0.2075
  615MOL0     C82909   3.543   3.653   5.371  0.1716 -0.3598  0.3887
  615MOL0     C82910   3.422   3.670   5.283 -0.6194  0.5191  0.3733
  615MOL0     C82911   3.430   3.584   5.154 -1.0403  0.6429 -0.1001
  615MOL0     C82912   3.291   3.548   5.093 -0.5996  0.4875 -0.3090
  615MOL0     C82913   3.195   3.671   5.072  0.5701 -0.2724 -0.2604
  615MOL0     O82914   3.062   3.632   5.033 -0.0700  0.4518 -0.1222
  615MOL0     C82915   2.961   3.726   5.047  0.2126 -0.2109 -0.8410
  615MOL0     C82916   2.833   3.676   5.077 -0.3414  0.0028 -0.4273
  615MOL0     C82917   2.725   3.754   5.095 -0.0401 -0.9232 -0.0695
  615MOL0     C82918   2.592   3.682   5.112 -0.1197  0.1787  0.3084
  615MOL0     C82919   2.746   3.896   5.077 -0.0875 -0.7579 -0.5282
  615MOL0     C82920   2.639   3.997   5.112 -0.4740 -0.2277 -0.2210
  615MOL0     O82921   2.528   3.962   5.177  0.3532 -0.0497 -0.0055
  615MOL0     C82922   2.442   4.058   5.219  0.5210 -0.1176  0.9001
  615MOL0     C82923   2.440   4.113   5.351  0.5922 -0.3434  0.5838
  615MOL0     C82924   2.334   4.201   5.386 -0.2103  0.7930  0.4655
  615MOL0     C82925   2.238   4.242   5.292 -0.1567  0.3248  0.4500
  615MOL0     O82926   2.132   4.321   5.324 -0.0908  0.0099 -0.6294
  615MOL0     C82927   2.163   4.431   5.419  0.6858 -0.3459 -0.5653
  615MOL0     C82928   2.043   4.518   5.424 -0.1616  0.0179 -0.0826
  615MOL0     C82929   1.919   4.453   5.496  0.3262 -0.3477  0.6471
  615MOL0     C82930   1.803   4.558   5.495 -0.7012 -0.1942  0.5721
  615MOL0     C82931   1.675   4.509   5.560  0.0794  0.0483 -0.7319
  615MOL0     C82932   1.550   4.601   5.556  0.8308 -0.1309  0.7310
  615MOL0     C82933   1.428   4.539   5.627  0.2103 -0.2037  0.2408
  615MOL0     C82934   1.314   4.637   5.590 -0.2920  0.1897 -0.8310
  615MOL0    Cl82935   1.164   4.593   5.664  0.3623 -0.0442  0.4089
  615MOL0     C82936   2.243   4.189   5.165  0.0685 -0.0037  0.0109
  615MOL0     C82937   2.342   4.098   5.123 -0.6240  0.7149 -0.1234
  615MOL0     O82938   2.666   4.109   5.090 -0.4153 -0.1532 -0.2000
  615MOL0     C82939   2.873   3.950   5.042  0.3278  0.3925 -0.5460
  615MOL0     C82940   2.979   3.859   5.024 -0.3264 -0.4280 -0.4915
  615MOL0     N82941   3.536   3.644   5.506 -0.6808  0.2758 -0.3347
  615MOL0     N82942   3.657   3.640   5.546 -0.0845 -0.4543  0.2415
  615MOL0     C82943   4.688   4.246   5.374 -0.1006 -0.0804 -0.4557
  615MOL0     C82944   4.822   4.268   5.352 -0.7903  0.5583 -0.7410
  615MOL0     C82945   5.264   4.254   5.225  0.5984  0.7463 -0.1099
  615MOL0     C82946   5.341   4.373   5.216 -1.0698 -0.3496 -0.2718
  615MOL0     C82947   5.478   4.363   5.181 -0.4866  0.4464 -0.4192
  615MOL0     C82948   5.530   4.244   5.149 -0.1151  0.4574  0.2064
  615MOL0     O82949   5.663   4.252   5.111  0.5320 -0.0157  0.6329
  615MOL0     C82950   5.730   4.138   5.052  0.0382  0.0024  0.0322
  615MOL0     C82951   5.847   4.187   4.966  0.3182 -0.3023 -0.2513
  615MOL0     C82952   5.915   4.070   4.889  0.1813  0.3660  0.9173
  615MOL0     C82953   6.026   4.110   4.796 -0.2249  0.1563  0.4461
  615MOL0     C82954   6.082   3.986   4.737  0.4208 -0.0666  0.1623
  615MOL0     C82955   6.119   3.885   4.688 -0.6750 -0.6636  0.7771
  615MOL0     C82956   5.457   4.120   5.171 -1.4770 -0.0958 -0.0958
  615MOL0     C82957   5.323   4.129   5.188  0.1716  0.1950  0.0090
  615MOL0     H82958   4.881   4.013   5.127 -1.9095 -0.6724 -1.7396
  615MOL0     H82959   4.634   3.983   5.168 -0.0764  2.2299 -2.1034
  615MOL0     H82960   4.440   4.224   5.497 -0.3582  1.1566 -0.0896
  615MOL0     H82961   4.415   4.299   5.331 -0.2195  0.9894  0.2845
  615MOL0     H82962   4.196   4.251   5.409 -1.9908 -0.5757 -0.1860
  615MOL0     H82963   4.247   4.118   5.296  1.6891 -2.1558 -0.0827
  615MOL0     H82964   4.325   3.989   5.504  0.9314 -0.4217  1.0971
  615MOL0     H82965   4.241   4.121   5.595  0.6368  3.0387 -2.3969
  615MOL0     H82966   4.033   4.055   5.459  0.0231 -0.5668 -0.6759
  615MOL0     H82967   4.135   3.927   5.377  3.1333 -1.9370  1.8522
  615MOL0     H82968   4.171   3.827   5.593  0.7188 -0.1387 -2.9699
  615MOL0     H82969   4.051   3.937   5.674 -1.6066 -1.0910  0.1051
  615MOL0     H82970   3.912   3.755   5.650  1.0919 -4.2542 -1.1151
  615MOL0     H82971   3.874   3.854   5.507 -2.5000 -2.7945 -0.8094
  615MOL0     H82972   4.013   3.708   5.360 -0.1494 -1.5847 -0.4337
  615MOL0     H82973   4.078   3.631   5.499 -0.9701 -2.1019 -0.1777
  615MOL0     H82974   3.870   3.535   5.558 -2.6403 -0.9515 -0.6088
  615MOL0     H82975   3.877   3.510   5.378 -2.3635  0.9335 -1.3538
  615MOL0     H82976   3.703   3.691   5.228  0.5041  0.4162  0.2955
  615MOL0     H82977   3.333   3.646   5.341 -2.4597  0.0479 -2.4352
  615MOL0     H82978   3.424   3.773   5.246  1.9462 -0.2487 -1.9256
  615MOL0     H82979   3.477   3.488   5.171 -1.4021  0.2982 -0.9624
  615MOL0     H82980   3.496   3.633   5.082 -0.2013  1.3821  1.1395
  615MOL0     H82981   3.244   3.475   5.161  2.7843 -1.4047  0.2311
  615MOL0     H82982   3.292   3.493   4.999 -0.2949  0.0914 -0.0772
  615MOL0     H82983   3.243   3.738   5.000 -0.6694 -0.7858 -1.6181
  615MOL0     H82984   3.180   3.708   5.174  1.1801 -2.7677  0.8145
  615MOL0     H82985   2.816   3.570   5.092 -1.2568  0.3433  1.1921
  615MOL0     H82986   2.601   3.574   5.105  0.1647  0.1778  0.6511
  615MOL0     H82987   2.540   3.707   5.205 -4.3187 -4.0792 -0.4671
  615MOL0     H82988   2.535   3.711   5.023  1.7660  0.1947 -0.9501
  615MOL0     H82989   2.521   4.090   5.419  0.1749 -0.8112  0.9274
  615MOL0     H82990   2.327   4.222   5.492 -0.8660  2.6039  0.0936
  615MOL0     H82991   2.181   4.395   5.520 -1.5120 -0.0001  0.0098
  615MOL0     H82992   2.254   4.481   5.387  1.0535 -1.0784 -0.6751
  615MOL0     H82993   2.070   4.605   5.483 -1.2369  0.4578 -0.2118
  615MOL0     H82994   2.021   4.554   5.323 -0.2668 -0.4442 -0.2289
  615MOL0     H82995   1.943   4.443   5.602 -0.3800  1.1264  0.9672
  615MOL0     H82996   1.894   4.356   5.450  3.2950 -0.1359 -1.7166
  615MOL0     H82997   1.846   4.646   5.544  0.5096 -0.4979  0.0955
  615MOL0     H82998   1.787   4.585   5.390  0.7064  0.2547  0.4431
  615MOL0     H82999   1.696   4.490   5.666  0.9116 -1.6011 -1.1581
  615MOL0     H83000   1.639   4.415   5.518  1.1289  0.0214 -1.6223
  615MOL0     H83001   1.561   4.704   5.591 -0.1330  0.8511 -1.6567
  615MOL0     H83002   1.525   4.606   5.449  0.1369 -0.5464  0.8707
  615MOL0     H83003   1.437   4.523   5.734 -4.0201  3.0192  1.3495
  615MOL0     H83004   1.412   4.441   5.581  1.0268  0.7233 -2.1990
  615MOL0     H83005   1.281   4.640   5.486 -0.5161 -1.0219 -0.8085
  615MOL0     H83006   1.333   4.738   5.627 -0.1838  0.0077 -0.3879
  615MOL0     H83007   2.172   4.213   5.087 -0.1052 -1.1499 -0.2109
  615MOL0     H83008   2.328   4.055   5.025 -3.1123  1.2643 -0.0881
  615MOL0     H83009   2.882   4.058   5.032 -1.3936  0.5789 -0.3715
  615MOL0     H83010   3.076   3.891   4.988  0.4786 -2.2704 -0.0944
  615MOL0     H83011   4.641   4.314   5.445 -0.2861  1.0782 -1.6378
  615MOL0     H83012   4.874   4.334   5.420  2.5237 -0.9156 -1.6338
  615MOL0     H83013   5.300   4.471   5.239 -0.7834  0.0953 -1.5944
  615MOL0     H83014   5.538   4.453   5.172 -0.3879  0.2141 -2.4221
  615MOL0     H83015   5.772   4.072   5.129  3.1796  1.4613 -0.2746
  615MOL0     H83016   5.670   4.077   4.984  1.1916  1.2148 -2.1980
  615MOL0     H83017   5.922   4.226   5.035 -0.4291  1.1033 -0.2106
  615MOL0     H83018   5.797   4.269   4.913  0.1625  0.2019  0.6629
  615MOL0     H83019   5.840   4.019   4.828 -0.5027 -0.4155  2.3611
  615MOL0     H83020   5.950   3.998   4.964 -0.8524 -2.2968 -1.0098
  615MOL0     H83021   6.106   4.160   4.851 -2.3462  4.0310  0.4018
  615MOL0     H83022   5.988   4.184   4.724 -0.3229 -0.3389 -0.0153
  615MOL0     H83023   6.162   3.800   4.638 -0.7569  0.1231 -0.6836
  615MOL0     H83024   5.503   4.025   5.147  0.1034  1.2638 -2.8717
  615MOL0     H83025   5.266   4.037   5.177 -0.1122  0.4192 -0.4349
  616MOL0     O83026   4.922   6.162   9.658 -0.1008  0.2244  0.1906
  616MOL0     C83027   4.971   6.114   9.758  0.5299  0.1732 -0.0473
  616MOL0     O83028   4.931   6.148   9.878  0.0929  0.4677 -0.1037
  616MOL0     C83029   4.808   6.222   9.890 -1.0129  0.0162  0.1441
  616MOL0     C83030   4.690   6.164   9.866  0.4294  0.4858  0.0708
  616MOL0     C83031   4.570   6.234   9.868  0.2764  0.1621 -0.8626
  616MOL0     C83032   4.570   6.366   9.905 -0.3237 -0.2516 -0.4132
  616MOL0     O83033   4.454   6.425   9.899  0.4823  0.4574 -0.5064
  616MOL0     C83034   4.445   6.568   9.897 -0.1536  1.0631 -0.1720
  616MOL0     C83035   4.314   6.618   9.840  0.0646  0.6287  0.5068
  616MOL0     C83036   4.313   6.663   9.696 -0.8561  0.2297 -0.8136
  616MOL0     C83037   4.339   6.541   9.608  0.3029 -0.3327 -0.0715
  616MOL0     C83038   4.298   6.565   9.461  0.1906  0.3181 -0.3674
  616MOL0     C83039   4.385   6.675   9.404  0.1448  0.6907  0.0891
  616MOL0     C83040   4.417   6.668   9.249 -0.7986 -0.0617 -0.5641
  616MOL0     C83041   4.313   6.771   9.186  0.4990  0.3901  0.8498
  616MOL0     N83042   4.170   6.738   9.190  0.1161 -0.0865 -0.2316
  616MOL0     C83043   4.112   6.621   9.134  0.2779  0.6952  0.4639
  616MOL0     C83044   3.975   6.629   9.162 -0.4618  0.6061 -0.1354
  616MOL0     C83045   3.878   6.528   9.103  0.6295  0.5170 -0.0775
  616MOL0     C83046   3.741   6.529   9.166  0.5035 -0.0812  0.1151
  616MOL0     C83047   3.643   6.420   9.120 -0.1775  0.6239  0.2463
  616MOL0     C83048   3.507   6.413   9.188 -0.7027 -0.6133  0.2883
  616MOL0     O83049   3.513   6.364   9.322  0.1562  0.4739  0.2535
  616MOL0     C83050   3.396   6.343   9.388  0.1341 -0.3446  1.3163
  616MOL0     C83051   3.278   6.409   9.359 -0.1361  0.5824  0.7470
  616MOL0     C83052   3.154   6.384   9.426  1.2017  0.2897 -0.1615
  616MOL0     C83053   3.034   6.476   9.387  0.8739 -0.4847  0.2092
  616MOL0     C83054   3.152   6.279   9.526  0.9185 -0.4151 -0.2091
  616MOL0     C83055   3.028   6.244   9.598  0.2098  0.4544 -0.3552
  616MOL0     O83056   2.937   6.340   9.598  0.8004  0.1498  0.4048
  616MOL0     C83057   2.804   6.306   9.638 -0.7170 -0.7584  0.0078
  616MOL0     C83058   2.777   6.249   9.758 -0.3532  0.5583 -0.0331
  616MOL0     C83059   2.651   6.207   9.791 -0.1070  0.0501  0.1693
  616MOL0     C83060   2.542   6.228   9.698  0.6156  0.5035 -0.4266
  616MOL0     O83061   2.414   6.198   9.735  0.4432 -0.3273 -0.0022
  616MOL0     C83062   2.330   6.117   9.643 -0.0699  0.1167 -0.3987
  616MOL0     C83063   2.233   6.027   9.718  0.6019 -0.3073  0.4885
  616MOL0     C83064   2.116   6.099   9.798  0.2043 -0.3503 -0.6033
  616MOL0     C83065   1.996   6.000   9.829  0.0733  0.1488 -0.1089
  616MOL0     C83066   1.897   6.066   9.927  0.7206  0.7392  0.4737
  616MOL0     C83067   1.822   5.947   9.999  0.2245  0.4081  0.5236
  616MOL0     C83068   1.681   6.002  10.052  0.4203 -0.0575  0.5008
  616MOL0     C83069   1.569   5.898  10.043 -0.6706  0.2015 -0.0082
  616MOL0    Cl83070   1.418   5.989  10.014  0.2752  0.0815 -0.0233
  616MOL0     C83071   2.579   6.271   9.565 -0.4754  1.5729  0.0482
  616MOL0     C83072   2.710   6.313   9.539  0.4781  0.4012 -0.4131
  616MOL0     O83073   3.015   6.127   9.640  0.8504  0.7402  0.0593
  616MOL0     C83074   3.278   6.217   9.558 -0.3131 -0.3849 -0.3609
  616MOL0     C83075   3.390   6.252   9.492  0.3301  0.3138  0.5384
  616MOL0     N83076   3.953   6.741   9.242 -0.3260 -0.0466 -0.3236
  616MOL0     N83077   4.068   6.811   9.252 -0.2252  0.0658 -0.2228
  616MOL0     C83078   4.695   6.426   9.952  0.9115  0.5620 -0.4567
  616MOL0     C83079   4.816   6.353   9.941 -0.0407 -0.3355  0.3321
  616MOL0     C83080   5.083   6.017   9.746 -0.3472 -0.1648  0.6273
  616MOL0     C83081   5.102   5.928   9.846  0.0728 -0.6124 -1.0252
  616MOL0     C83082   5.204   5.835   9.841 -0.1120  0.3900  0.9090
  616MOL0     C83083   5.282   5.826   9.728 -0.5836 -0.1935  0.1096
  616MOL0     O83084   5.392   5.738   9.715 -0.4267  0.2317  0.2419
  616MOL0     C83085   5.423   5.655   9.823  0.0885  0.8469 -0.1882
  616MOL0     C83086   5.498   5.538   9.777 -0.0327  1.0735  0.0245
  616MOL0     C83087   5.631   5.583   9.713 -0.1905  0.0571 -0.2564
  616MOL0     C83088   5.720   5.458   9.682 -0.7782  0.0752 -0.5736
  616MOL0     C83089   5.834   5.491   9.600  0.1379  0.7079 -0.1746
  616MOL0     C83090   5.938   5.517   9.536 -0.5504  0.2658  0.4209
  616MOL0     C83091   5.256   5.912   9.618 -0.1158 -0.0895  0.0413
  616MOL0     C83092   5.155   6.003   9.626 -0.0516  0.2416  0.5801
  616MOL0     H83093   4.686   6.062   9.829 -1.6749  1.4486 -2.7238
  616MOL0     H83094   4.479   6.185   9.835 -0.1678 -0.9814  1.7898
  616MOL0     H83095   4.442   6.606  10.000  1.4672 -3.9277  2.0255
  616MOL0     H83096   4.530   6.611   9.844  1.8305  0.0381  2.0062
  616MOL0     H83097   4.241   6.540   9.864 -2.5094  1.8134 -2.6867
  616MOL0     H83098   4.284   6.712   9.888  2.7596  2.5298 -1.2117
  616MOL0     H83099   4.213   6.698   9.669 -0.8866  0.7152 -0.0807
  616MOL0     H83100   4.390   6.735   9.668 -1.4911  0.2291 -2.7626
  616MOL0     H83101   4.445   6.513   9.605  0.1656 -0.8137 -2.1708
  616MOL0     H83102   4.291   6.454   9.653  0.5217  0.4599  1.7630
  616MOL0     H83103   4.313   6.473   9.404 -2.1448  0.1539 -0.8184
  616MOL0     H83104   4.188   6.566   9.455  0.1719 -2.4754 -1.8451
  616MOL0     H83105   4.340   6.772   9.426 -1.1407 -0.0020  0.5936
  616MOL0     H83106   4.476   6.680   9.464 -1.2936  0.0294  2.4529
  616MOL0     H83107   4.518   6.704   9.227 -1.7532  1.3602 -3.0074
  616MOL0     H83108   4.401   6.569   9.204 -1.1013 -0.6237  0.7519
  616MOL0     H83109   4.337   6.779   9.080  0.3006  1.0776  0.8566
  616MOL0     H83110   4.329   6.872   9.223 -1.4877 -0.0915  3.2792
  616MOL0     H83111   4.171   6.539   9.095 -0.4775  0.8208 -0.9968
  616MOL0     H83112   3.871   6.554   8.997 -0.0650 -1.0309 -0.4272
  616MOL0     H83113   3.917   6.428   9.120  0.6919  0.8293  1.7784
  616MOL0     H83114   3.698   6.623   9.130 -0.5052 -1.2826 -2.0603
  616MOL0     H83115   3.748   6.527   9.275 -1.1799 -1.2147  0.2389
  616MOL0     H83116   3.692   6.322   9.119  3.3076  2.2060 -0.0541
  616MOL0     H83117   3.619   6.429   9.014 -1.3309  0.9320  0.5211
  616MOL0     H83118   3.436   6.351   9.132 -2.0148  2.6504 -2.0329
  616MOL0     H83119   3.466   6.515   9.190 -2.0295 -1.1144 -0.3898
  616MOL0     H83120   3.273   6.493   9.290 -1.1631  0.0082  0.1023
  616MOL0     H83121   2.956   6.408   9.351 -0.2034  1.0576 -0.4857
  616MOL0     H83122   3.001   6.533   9.474 -0.5752 -0.6669 -0.1971
  616MOL0     H83123   3.061   6.541   9.303 -0.4977  0.5950  0.5698
  616MOL0     H83124   2.855   6.240   9.833 -1.1090 -0.5219  0.6546
  616MOL0     H83125   2.628   6.148   9.880  3.6322 -0.0432  1.2370
  616MOL0     H83126   2.288   6.176   9.561 -0.1086 -0.4216 -0.7672
  616MOL0     H83127   2.404   6.054   9.593  0.0990 -0.4391  0.5354
  616MOL0     H83128   2.178   5.970   9.642  0.2291 -2.0900  2.0325
  616MOL0     H83129   2.302   5.968   9.779  2.7115  0.7341 -0.7857
  616MOL0     H83130   2.071   6.190   9.758  0.7907 -0.0616 -0.6153
  616MOL0     H83131   2.167   6.140   9.885  0.0326  0.6024 -0.9463
  616MOL0     H83132   1.950   5.969   9.735  1.7830 -4.1577  0.2453
  616MOL0     H83133   2.044   5.909   9.867 -1.2150 -0.7734 -0.6083
  616MOL0     H83134   1.818   6.115   9.869 -2.1272 -1.0946  2.5331
  616MOL0     H83135   1.945   6.123  10.006  0.8905  1.7655 -0.3519
  616MOL0     H83136   1.788   5.868   9.931 -2.4991  0.3417  1.8387
  616MOL0     H83137   1.884   5.910  10.081 -0.1988 -2.2113 -0.2592
  616MOL0     H83138   1.657   6.087   9.986 -0.8638 -1.2440 -0.6269
  616MOL0     H83139   1.695   6.048  10.151 -0.6804  0.0632  0.6120
  616MOL0     H83140   1.561   5.848  10.140  1.8417  0.1071  0.2260
  616MOL0     H83141   1.586   5.821   9.967 -0.4002 -0.9141  1.1441
  616MOL0     H83142   2.502   6.277   9.488  0.2113 -0.5255 -0.8781
  616MOL0     H83143   2.733   6.337   9.435 -2.8989  2.5458 -0.7999
  616MOL0     H83144   3.287   6.145   9.638  1.6095  1.2837  1.0184
  616MOL0     H83145   3.481   6.202   9.525  1.6830  1.9020 -0.5647
  616MOL0     H83146   4.697   6.524  10.000 -1.1129 -0.1161  1.1512
  616MOL0     H83147   4.909   6.404   9.966 -1.1371  0.6663  2.7072
  616MOL0     H83148   5.033   5.935   9.929  0.8292 -1.2569 -0.3202
  616MOL0     H83149   5.210   5.773   9.930  0.0376  0.3888  0.8995
  616MOL0     H83150   5.485   5.706   9.897 -0.5410 -0.3318  1.1825
  616MOL0     H83151   5.332   5.616   9.869 -0.3819  0.6136 -1.2692
  616MOL0     H83152   5.438   5.485   9.702 -2.1353  0.6833  1.8676
  616MOL0     H83153   5.509   5.468   9.860 -1.2198  0.0670 -0.6240
  616MOL0     H83154   5.673   5.654   9.784 -0.7853  2.3876 -2.1233
  616MOL0     H83155   5.605   5.635   9.621  1.7751  3.1516  0.8011
  616MOL0     H83156   5.661   5.388   9.622 -0.0096 -0.1926 -1.0223
  616MOL0     H83157   5.757   5.415   9.775  0.3917  0.0428 -1.0433
  616MOL0     H83158   6.024   5.539   9.477 -1.0621 -2.7804 -1.6496
  616MOL0     H83159   5.317   5.898   9.529  0.8870 -2.0608  0.9660
  616MOL0     H83160   5.140   6.069   9.541  2.4362 -0.1903 -0.2807
  617MOL0     O83161   8.617   9.628   5.257 -0.7764 -0.3731  0.4083
  617MOL0     C83162   8.593   9.750   5.273 -0.7882  0.7070 -0.1077
  617MOL0     O83163   8.488   9.794   5.357 -0.1488  0.0118 -0.6562
  617MOL0     C83164   8.400   9.699   5.392 -1.0892 -0.2615  0.0593
  617MOL0     C83165   8.299   9.657   5.305 -0.2989  0.2391 -0.3226
  617MOL0     C83166   8.228   9.541   5.336  0.2108  0.3089  0.0047
  617MOL0     C83167   8.243   9.480   5.458  0.3831  0.9965 -0.8522
  617MOL0     O83168   8.161   9.377   5.492 -0.1907 -0.0353 -0.1573
  617MOL0     C83169   8.047   9.411   5.575  0.3473  0.5401 -0.5034
  617MOL0     C83170   7.935   9.497   5.514 -0.4171 -0.9210  0.2072
  617MOL0     C83171   7.877   9.443   5.382 -0.5251  0.5166 -0.0641
  617MOL0     C83172   7.796   9.316   5.411  0.2867 -0.9550 -0.2156
  617MOL0     C83173   7.769   9.233   5.281  0.2688  0.5108 -0.0136
  617MOL0     C83174   7.682   9.113   5.305 -0.1005  0.3329  0.5099
  617MOL0     C83175   7.609   9.066   5.176 -0.1359  0.0312  0.5142
  617MOL0     C83176   7.497   8.963   5.194 -0.7573 -0.2704  0.6383
  617MOL0     N83177   7.368   9.019   5.251  0.0559  0.2937  0.2489
  617MOL0     C83178   7.278   9.092   5.179  0.1765 -0.9373  0.4483
  617MOL0     C83179   7.192   9.135   5.274 -0.1799  0.3337 -0.0413
  617MOL0     C83180   7.076   9.224   5.249 -0.4475 -0.5800 -1.0316
  617MOL0     C83181   6.944   9.151   5.222 -0.4034  0.1249 -0.0987
  617MOL0     C83182   6.830   9.249   5.218 -0.1593  0.3294  0.0153
  617MOL0     C83183   6.723   9.197   5.123  0.2534 -0.5544  0.4854
  617MOL0     O83184   6.667   9.075   5.163  0.2618  0.3109 -0.3393
  617MOL0     C83185   6.535   9.049   5.134  0.1372  0.3973  0.6481
  617MOL0     C83186   6.456   9.115   5.041 -0.6911 -0.1181  0.1591
  617MOL0     C83187   6.314   9.089   5.027 -0.0039  0.6835 -0.6551
  617MOL0     C83188   6.236   9.167   4.920 -0.4473 -0.5237  0.0392
  617MOL0     C83189   6.256   8.986   5.108 -1.1632  0.1996  1.0369
  617MOL0     C83190   6.117   8.941   5.089  0.3877 -0.0304 -0.3861
  617MOL0     O83191   6.045   8.884   5.197  0.1761  0.2425 -0.0387
  617MOL0     C83192   5.913   8.841   5.174 -0.8089  0.4537  0.0505
  617MOL0     C83193   5.809   8.934   5.155 -0.4382 -0.6348  0.1765
  617MOL0     C83194   5.674   8.890   5.141 -0.5395 -0.2515  0.2062
  617MOL0     C83195   5.640   8.755   5.154 -0.3471 -0.3205  0.1312
  617MOL0     O83196   5.503   8.721   5.163  0.5889 -0.1060 -0.0537
  617MOL0     C83197   5.468   8.577   5.155 -0.2619 -0.4250 -0.0153
  617MOL0     C83198   5.330   8.561   5.101  0.4670 -0.6405  0.3321
  617MOL0     C83199   5.221   8.555   5.212 -0.3293 -0.2050 -0.2288
  617MOL0     C83200   5.080   8.535   5.153 -0.1530  0.4482  0.0228
  617MOL0     C83201   4.984   8.490   5.263  0.0642 -0.4209  0.0077
  617MOL0     C83202   4.841   8.538   5.241  0.2691 -0.5099 -0.3619
  617MOL0     C83203   4.760   8.496   5.368  0.8132 -0.4448  0.6241
  617MOL0     C83204   4.636   8.579   5.390  0.0352 -0.3794 -0.0702
  617MOL0    Cl83205   4.680   8.755   5.410 -0.2934 -0.0410 -0.3933
  617MOL0     C83206   5.749   8.664   5.156 -0.0414 -0.4491  0.0483
  617MOL0     C83207   5.879   8.708   5.167  0.0271  0.4752  0.8905
  617MOL0     O83208   6.067   8.964   4.981  0.6436 -0.7720 -0.2996
  617MOL0     C83209   6.346   8.913   5.188 -0.4935  0.1838  0.4666
  617MOL0     C83210   6.482   8.938   5.200 -0.1983 -0.2355  1.2451
  617MOL0     N83211   7.229   9.092   5.398 -0.8572  0.3483 -0.1843
  617MOL0     N83212   7.341   9.018   5.389  0.3767  0.3633 -0.1983
  617MOL0     C83213   8.333   9.528   5.554  0.8323 -0.5886 -0.4623
  617MOL0     C83214   8.422   9.626   5.513  0.0379  0.2898  0.2812
  617MOL0     C83215   8.685   9.854   5.219  0.0559  0.7308 -0.0378
  617MOL0     C83216   8.671   9.981   5.266 -0.5007 -0.0409  0.1007
  617MOL0     C83217   8.761  10.074   5.221  0.2594 -0.5494  0.0872
  617MOL0     C83218   8.866  10.048   5.138 -0.0513  0.0498 -0.5004
  617MOL0     O83219   8.951  10.150   5.111 -0.3784 -0.5259 -0.0877
  617MOL0     C83220   9.076  10.134   5.043  0.2477 -0.0107  0.0194
  617MOL0     C83221   9.060  10.167   4.896 -0.1007 -0.5204  0.6708
  617MOL0     C83222   9.199  10.179   4.827  0.2662  0.1118 -0.2131
  617MOL0     C83223   9.253  10.321   4.822  0.4061  0.3792  0.1683
  617MOL0     C83224   9.396  10.325   4.790 -0.1764  0.1976  0.7202
  617MOL0     C83225   9.518  10.337   4.791  0.3317  0.9108 -0.6232
  617MOL0     C83226   8.884   9.915   5.091 -0.1157  0.2820 -0.5225
  617MOL0     C83227   8.791   9.821   5.123  0.6659  0.2237 -0.7562
  617MOL0     H83228   8.296   9.710   5.211  0.5573 -0.2452 -0.6364
  617MOL0     H83229   8.155   9.505   5.265  0.5716 -0.0774 -0.1757
  617MOL0     H83230   8.006   9.311   5.595  2.3854 -0.2420  0.0302
  617MOL0     H83231   8.084   9.445   5.672 -0.0414 -1.8280  0.5547
  617MOL0     H83232   7.857   9.516   5.589  0.2199  1.0531  0.4233
  617MOL0     H83233   7.979   9.594   5.488  0.0067 -1.6715 -2.0877
  617MOL0     H83234   7.800   9.509   5.342  0.9850  1.1609 -2.0780
  617MOL0     H83235   7.952   9.422   5.306 -1.2672 -0.0340 -0.6599
  617MOL0     H83236   7.848   9.247   5.479 -2.7020 -0.8438  2.4106
  617MOL0     H83237   7.696   9.338   5.448  0.2325 -0.5719 -0.5877
  617MOL0     H83238   7.708   9.304   5.224 -2.2241 -1.3138  0.2167
  617MOL0     H83239   7.860   9.202   5.230 -0.3417  1.1241 -1.5550
  617MOL0     H83240   7.731   9.024   5.346  1.9530 -0.9397 -4.0190
  617MOL0     H83241   7.616   9.138   5.388  1.3684 -2.8636  2.8276
  617MOL0     H83242   7.565   9.151   5.123  0.8353  0.6504  0.6739
  617MOL0     H83243   7.690   9.029   5.113 -1.1426 -1.9685  0.3286
  617MOL0     H83244   7.524   8.876   5.254  2.0761 -0.1816 -0.3924
  617MOL0     H83245   7.481   8.938   5.089  0.7374  2.9940 -0.5236
  617MOL0     H83246   7.280   9.107   5.071  0.4155 -0.9904  0.4436
  617MOL0     H83247   7.076   9.294   5.333 -1.3551 -1.1243 -0.5636
  617MOL0     H83248   7.108   9.280   5.160  0.3369  0.4017 -0.1542
  617MOL0     H83249   6.922   9.088   5.308  2.0254  1.7544  1.8403
  617MOL0     H83250   6.961   9.091   5.133  1.0098  2.3337 -1.4269
  617MOL0     H83251   6.867   9.346   5.183 -0.5015  0.1059 -0.9834
  617MOL0     H83252   6.786   9.262   5.317  0.2200 -2.0764  0.5666
  617MOL0     H83253   6.770   9.183   5.025  2.7827  0.8352  1.4088
  617MOL0     H83254   6.650   9.276   5.104 -0.2257 -0.7101  1.6184
  617MOL0     H83255   6.500   9.187   4.972 -0.6368  0.7090  1.0351
  617MOL0     H83256   6.153   9.222   4.965 -0.3228  1.7799 -2.3246
  617MOL0     H83257   6.303   9.247   4.886 -0.2710 -1.0821 -0.9502
  617MOL0     H83258   6.202   9.106   4.836  0.3805 -1.4743  0.3751
  617MOL0     H83259   5.839   9.037   5.138  1.2604 -1.3485 -1.5033
  617MOL0     H83260   5.589   8.958   5.141  1.5211  2.4836 -0.6595
  617MOL0     H83261   5.535   8.530   5.082  0.0025  0.7374 -0.5522
  617MOL0     H83262   5.467   8.518   5.246 -2.9620  0.2564  0.4823
  617MOL0     H83263   5.315   8.653   5.045 -1.1390 -0.3201  1.2335
  617MOL0     H83264   5.326   8.476   5.033  1.8315  0.5625 -1.3346
  617MOL0     H83265   5.213   8.650   5.267  0.3700 -0.2122 -0.0996
  617MOL0     H83266   5.236   8.472   5.282  1.7378  2.1245  2.3191
  617MOL0     H83267   5.052   8.624   5.097  0.1198 -0.8286 -2.2526
  617MOL0     H83268   5.091   8.453   5.081  5.0100 -1.5593  2.6084
  617MOL0     H83269   5.024   8.546   5.348 -0.6956  2.5552 -1.4593
  617MOL0     H83270   4.993   8.382   5.276 -1.3924 -1.3541 -4.8410
  617MOL0     H83271   4.834   8.647   5.235 -1.0644 -0.3452  2.4055
  617MOL0     H83272   4.798   8.487   5.154  0.7906  2.6879 -2.6741
  617MOL0     H83273   4.812   8.503   5.464 -0.7623  1.4191  1.3935
  617MOL0     H83274   4.728   8.392   5.357 -3.5677  0.5953  1.5866
  617MOL0     H83275   4.595   8.543   5.485 -1.8265  1.2047 -0.2179
  617MOL0     H83276   4.557   8.562   5.317 -0.9160  1.9393  0.3243
  617MOL0     H83277   5.730   8.558   5.170 -2.7915 -0.1292 -0.6001
  617MOL0     H83278   5.955   8.631   5.171 -1.5263 -1.1483  0.2505
  617MOL0     H83279   6.308   8.826   5.241 -2.8637  0.3297 -0.8634
  617MOL0     H83280   6.554   8.890   5.265  1.6347  3.2024  2.0165
  617MOL0     H83281   8.347   9.473   5.647  0.0939 -0.9762 -0.5737
  617MOL0     H83282   8.514   9.653   5.564  2.0299  0.8199 -3.2523
  617MOL0     H83283   8.601  10.006   5.344 -0.9458  1.5248 -0.7513
  617MOL0     H83284   8.750  10.172   5.267  2.2703 -0.3556  0.2134
  617MOL0     H83285   9.146  10.203   5.091  1.9808 -1.8301  0.2261
  617MOL0     H83286   9.120  10.035   5.058 -3.2812 -1.6505  0.4054
  617MOL0     H83287   8.995  10.254   4.888  0.0136 -0.5554 -1.3058
  617MOL0     H83288   8.998  10.087   4.853  1.2071 -0.9072 -0.5815
  617MOL0     H83289   9.192  10.134   4.728  1.1551  1.9681 -1.1614
  617MOL0     H83290   9.280  10.121   4.871 -0.6134  0.9551  2.8046
  617MOL0     H83291   9.242  10.361   4.923 -2.4097 -3.9634  1.8735
  617MOL0     H83292   9.193  10.374   4.747 -0.1322 -0.9193 -0.3573
  617MOL0     H83293   9.625  10.344   4.790  0.4208  0.3314  1.1696
  617MOL0     H83294   8.971   9.891   5.031  1.3805  0.9248  1.2987
  617MOL0     H83295   8.796   9.722   5.079  0.7986 -0.2225  0.2266
  618MOL0     O83296   4.232  10.319   3.344  0.7167 -0.3161  0.8875
  618MOL0     C83297   4.217  10.328   3.218  0.4217  0.3038  0.1124
  618MOL0     O83298   4.136  10.417   3.151  0.3237  0.1027 -0.6880
  618MOL0     C83299   4.092  10.519   3.234  0.6191 -0.3240 -0.4215
  618MOL0     C83300   4.160  10.610   3.313 -0.3647 -0.0598 -0.1665
  618MOL0     C83301   4.096  10.709   3.379 -0.2264 -0.5163 -0.7026
  618MOL0     C83302   3.958  10.722   3.383 -0.8877 -0.0258 -0.7593
  618MOL0     O83303   3.888  10.818   3.448 -0.2495 -0.1461  0.8144
  618MOL0     C83304   3.907  10.816   3.591  0.0371 -0.0231  0.4618
  618MOL0     C83305   3.825  10.704   3.652 -0.2916  0.2102 -0.4392
  618MOL0     C83306   3.692  10.750   3.699 -0.3028 -0.7193 -0.0328
  618MOL0     C83307   3.610  10.815   3.588  0.0419 -0.4057 -1.3087
  618MOL0     C83308   3.454  10.795   3.600  0.2376  0.0414  0.5884
  618MOL0     C83309   3.384  10.876   3.714 -0.5243 -0.8184 -0.2640
  618MOL0     C83310   3.356  11.015   3.669  0.5572  0.0843 -0.0286
  618MOL0     C83311   3.260  11.084   3.767 -0.1200  0.6645  0.1715
  618MOL0     N83312   3.135  11.007   3.762  0.5288 -0.3541  1.0223
  618MOL0     C83313   3.057  10.959   3.659  0.0961 -0.8574  0.3861
  618MOL0     C83314   2.952  10.902   3.724 -0.4246  0.5197  0.8870
  618MOL0     C83315   2.833  10.833   3.667 -0.5458 -0.5774  0.3480
  618MOL0     C83316   2.713  10.926   3.665  0.3738 -0.5805  0.1192
  618MOL0     C83317   2.576  10.853   3.661 -1.4102 -0.1606  0.5118
  618MOL0     C83318   2.464  10.935   3.606  0.6275  0.0296  0.3340
  618MOL0     O83319   2.478  10.977   3.475 -0.3418 -0.4493 -0.1299
  618MOL0     C83320   2.495  10.894   3.365 -0.3209 -0.8835  0.7149
  618MOL0     C83321   2.432  10.769   3.353  0.0105 -0.2156  0.5405
  618MOL0     C83322   2.442  10.687   3.242 -0.4261  0.3724  0.2547
  618MOL0     C83323   2.357  10.567   3.236  0.1114 -0.1587  0.2713
  618MOL0     C83324   2.511  10.740   3.124  0.3107 -0.5903 -1.2362
  618MOL0     C83325   2.527  10.674   2.989 -0.1148  0.0445  0.2290
  618MOL0     O83326   2.492  10.543   2.972  0.7297  0.5428 -0.0393
  618MOL0     C83327   2.489  10.498   2.844  0.4589  0.0385  0.1101
  618MOL0     C83328   2.601  10.434   2.793 -0.0405  0.7324 -0.3794
  618MOL0     C83329   2.603  10.369   2.671 -0.1856  0.8455 -0.8097
  618MOL0     C83330   2.489  10.371   2.596 -0.0356 -0.4245 -0.8398
  618MOL0     O83331   2.497  10.305   2.479 -0.0392  0.2033 -0.1950
  618MOL0     C83332   2.387  10.220   2.438 -0.0525 -0.2828 -0.0206
  618MOL0     C83333   2.364  10.110   2.533 -0.5530 -0.4089 -0.8398
  618MOL0     C83334   2.484  10.018   2.550 -0.8012 -0.0051  0.0679
  618MOL0     C83335   2.486   9.973   2.696 -0.1468  0.9266  0.0306
  618MOL0     C83336   2.579   9.857   2.734  0.6516 -0.9954 -0.0574
  618MOL0     C83337   2.718   9.889   2.691  0.5296 -0.2828 -0.4619
  618MOL0     C83338   2.815   9.816   2.791 -0.1823  0.6589  0.3125
  618MOL0     C83339   2.789   9.669   2.814  0.8013  1.0941  1.2480
  618MOL0    Cl83340   2.776   9.585   2.659  0.1078  0.3851 -0.1136
  618MOL0     C83341   2.376  10.436   2.644  1.3676  0.2401  0.3969
  618MOL0     C83342   2.373  10.498   2.771  0.0195  0.6674 -0.3597
  618MOL0     O83343   2.566  10.743   2.897 -1.2240 -0.0429  0.0019
  618MOL0     C83344   2.576  10.868   3.145  0.8859  0.5230 -0.0058
  618MOL0     C83345   2.568  10.938   3.259 -0.3488  0.5852 -0.2412
  618MOL0     N83346   2.961  10.919   3.859  0.1447  0.6320 -0.4097
  618MOL0     N83347   3.073  10.979   3.885  0.3795  0.5302  0.8141
  618MOL0     C83348   3.887  10.629   3.303  0.3008  0.3665  0.2758
  618MOL0     C83349   3.955  10.529   3.232 -0.0061  0.5087 -0.0432
  618MOL0     C83350   4.269  10.222   3.135 -0.1985  0.8517  0.0931
  618MOL0     C83351   4.332  10.108   3.185  0.2308 -0.4470  0.1098
  618MOL0     C83352   4.370  10.007   3.100 -0.0095 -0.1032  0.2110
  618MOL0     C83353   4.350  10.014   2.963 -0.1956 -0.5410  0.3205
  618MOL0     O83354   4.418   9.933   2.876 -0.3490 -0.2296 -0.7205
  618MOL0     C83355   4.456   9.805   2.931 -0.0387  0.3091  0.6937
  618MOL0     C83356   4.504   9.711   2.819  0.3590 -0.1549  0.3444
  618MOL0     C83357   4.550   9.588   2.887 -0.0154  0.2576  1.8336
  618MOL0     C83358   4.635   9.493   2.803 -0.1159 -0.1017  0.4295
  618MOL0     C83359   4.672   9.363   2.870 -0.0898  0.1608 -0.5633
  618MOL0     C83360   4.727   9.264   2.920  0.0817  0.9442 -0.3318
  618MOL0     C83361   4.299  10.126   2.904  0.5954 -0.0914 -0.5705
  618MOL0     C83362   4.260  10.238   2.992  0.3131  0.1097  0.9074
  618MOL0     H83363   4.269  10.612   3.312 -0.3512 -0.5097  0.2983
  618MOL0     H83364   4.164  10.775   3.431  0.0887 -1.2224 -0.2007
  618MOL0     H83365   4.010  10.793   3.622  0.3551  0.0597 -0.4998
  618MOL0     H83366   3.875  10.912   3.631 -1.0854  0.3714 -1.2492
  618MOL0     H83367   3.815  10.620   3.582  0.0720  0.2648 -0.5588
  618MOL0     H83368   3.871  10.685   3.749 -1.1288  0.0445 -0.0712
  618MOL0     H83369   3.642  10.660   3.736  3.6039 -2.9441  0.3655
  618MOL0     H83370   3.710  10.802   3.793  0.3225 -0.0157 -0.5253
  618MOL0     H83371   3.634  10.922   3.586  0.7949 -0.4221  1.9433
  618MOL0     H83372   3.639  10.766   3.494 -0.3337 -2.2366 -0.5078
  618MOL0     H83373   3.410  10.818   3.503  1.5692 -2.4404 -0.6995
  618MOL0     H83374   3.454  10.688   3.625 -1.2572  0.3048  1.8593
  618MOL0     H83375   3.288  10.824   3.724 -1.7435  1.1493 -1.2238
  618MOL0     H83376   3.451  10.878   3.800  0.5980  3.2228 -1.0214
  618MOL0     H83377   3.448  11.074   3.678  2.4809 -2.5246 -1.2732
  618MOL0     H83378   3.319  11.023   3.567 -0.2892 -1.8134  0.0968
  618MOL0     H83379   3.249  11.190   3.745  2.0575  0.9727  0.2836
  618MOL0     H83380   3.312  11.078   3.863 -1.5262 -3.1860  0.8599
  618MOL0     H83381   3.078  10.975   3.553 -1.5383  2.3564  0.4224
  618MOL0     H83382   2.855  10.809   3.563  0.4658  0.1628  0.3748
  618MOL0     H83383   2.806  10.745   3.727 -1.1738 -0.0766  0.8060
  618MOL0     H83384   2.724  10.999   3.584  0.5823  1.5675  1.9848
  618MOL0     H83385   2.714  10.985   3.757 -0.7901  1.1000 -0.8806
  618MOL0     H83386   2.553  10.827   3.764 -0.3494  0.7574  0.9997
  618MOL0     H83387   2.584  10.757   3.610  1.2791  1.4218 -2.4347
  618MOL0     H83388   2.463  11.021   3.674  0.9404  0.1031  0.2473
  618MOL0     H83389   2.367  10.885   3.611  0.6983  0.0131  3.0610
  618MOL0     H83390   2.376  10.730   3.437 -0.7969  1.3096  0.7366
  618MOL0     H83391   2.296  10.545   3.324 -1.7255  1.8911 -0.3925
  618MOL0     H83392   2.281  10.583   3.159 -1.0943  2.4109  1.8693
  618MOL0     H83393   2.418  10.479   3.210 -0.5209 -0.9126  1.2442
  618MOL0     H83394   2.682  10.413   2.862 -2.0175  0.6905  2.0467
  618MOL0     H83395   2.687  10.309   2.637  1.9762  2.5277  1.2083
  618MOL0     H83396   2.291  10.270   2.422  0.4059  0.1859 -1.5560
  618MOL0     H83397   2.409  10.174   2.341 -0.9947 -1.4133  0.2764
  618MOL0     H83398   2.338  10.158   2.628 -0.3980  0.9571 -1.4668
  618MOL0     H83399   2.273  10.055   2.506  0.0947 -2.0671  0.1828
  618MOL0     H83400   2.580  10.064   2.525  0.1900 -1.3216  1.3103
  618MOL0     H83401   2.462   9.936   2.481  2.5360 -0.2378 -0.8857
  618MOL0     H83402   2.522  10.055   2.760  0.8199  1.4406 -1.1383
  618MOL0     H83403   2.382   9.945   2.715  0.3360 -1.0566 -0.0740
  618MOL0     H83404   2.536   9.775   2.677 -2.1568  1.7103 -2.1514
  618MOL0     H83405   2.558   9.848   2.841 -4.7535 -0.6953 -0.8592
  618MOL0     H83406   2.734   9.856   2.588  0.8516  0.7838 -0.7631
  618MOL0     H83407   2.743   9.995   2.696  0.4116 -0.3179  2.0321
  618MOL0     H83408   2.801   9.853   2.893 -1.0222 -0.3290  0.5757
  618MOL0     H83409   2.920   9.807   2.764 -0.5393 -3.1132 -0.3054
  618MOL0     H83410   2.688   9.666   2.856 -0.5188  1.5885 -1.6889
  618MOL0     H83411   2.862   9.628   2.885  2.3803  0.3895 -0.7121
  618MOL0     H83412   2.288  10.432   2.581  3.0225 -4.5963 -2.1020
  618MOL0     H83413   2.288  10.543   2.820  2.0555  0.1657  4.1360
  618MOL0     H83414   2.631  10.911   3.062  1.9683 -0.9805 -0.1183
  618MOL0     H83415   2.629  11.027   3.271  0.3187 -0.0247  1.1344
  618MOL0     H83416   3.779  10.624   3.310  0.2880 -0.1101 -0.2319
  618MOL0     H83417   3.893  10.464   3.171  2.8784 -1.8480 -0.7025
  618MOL0     H83418   4.344  10.083   3.290 -1.8282 -1.4362  0.1642
  618MOL0     H83419   4.410   9.923   3.155 -0.4728 -1.8562 -1.9981
  618MOL0     H83420   4.530   9.813   3.011  1.6887  2.0877 -0.9427
  618MOL0     H83421   4.360   9.767   2.965 -0.5128 -0.5487 -1.4068
  618MOL0     H83422   4.586   9.756   2.763 -1.0249  0.3610 -1.3554
  618MOL0     H83423   4.429   9.690   2.743 -0.7574  0.6882  1.1713
  618MOL0     H83424   4.456   9.538   2.908 -1.3158  2.1378  0.7773
  618MOL0     H83425   4.611   9.617   2.974  1.2304  0.9310  0.7796
  618MOL0     H83426   4.729   9.539   2.770  0.7148 -2.2432 -0.3505
  618MOL0     H83427   4.587   9.452   2.714 -0.3380 -2.1090  1.4128
  618MOL0     H83428   4.774   9.187   2.977 -2.6800  2.2683  4.2571
  618MOL0     H83429   4.306  10.146   2.798  0.5275  1.4673 -0.3059
  618MOL0     H83430   4.231  10.338   2.963  3.2165  1.4102  2.1383
  619MOL0     O83431   0.364   5.234   9.364 -0.0225 -0.1634  0.5152
  619MOL0     C83432   0.413   5.346   9.363  0.0461  0.4412 -0.3576
  619MOL0     O83433   0.541   5.384   9.350  0.4943 -0.3687  0.8449
  619MOL0     C83434   0.646   5.305   9.349 -0.0608  0.9454  0.6380
  619MOL0     C83435   0.648   5.171   9.391  1.0019 -0.2062  0.1022
  619MOL0     C83436   0.765   5.091   9.366  0.2065  0.5696  0.6670
  619MOL0     C83437   0.884   5.133   9.305  0.5478 -0.1320  0.0661
  619MOL0     O83438   0.987   5.044   9.291 -0.0965  0.0894  0.6710
  619MOL0     C83439   1.094   5.079   9.199  0.2234  0.1928  0.3699
  619MOL0     C83440   1.177   4.955   9.174 -0.8226  0.5051  0.2521
  619MOL0     C83441   1.286   4.971   9.063  0.6569 -0.2061  0.3695
  619MOL0     C83442   1.345   4.835   9.028  0.0610 -0.0346  0.2773
  619MOL0     C83443   1.450   4.838   8.914  0.0924  0.4869 -0.6018
  619MOL0     C83444   1.500   4.705   8.869  0.0530  0.1448 -0.0692
  619MOL0     C83445   1.621   4.729   8.776  0.1262  0.2489  0.1536
  619MOL0     C83446   1.697   4.594   8.749  0.0403 -0.3107  0.0698
  619MOL0     N83447   1.601   4.503   8.671 -0.5492  0.5714 -0.2935
  619MOL0     C83448   1.526   4.522   8.558 -0.4955 -0.3095 -0.0403
  619MOL0     C83449   1.457   4.406   8.533 -0.0922  0.5998 -0.1673
  619MOL0     C83450   1.399   4.360   8.405  0.5669  0.0951  0.1363
  619MOL0     C83451   1.286   4.255   8.403 -0.6338  0.4003 -0.4913
  619MOL0     C83452   1.189   4.303   8.500 -0.1046  0.4443 -0.9607
  619MOL0     C83453   1.060   4.226   8.499  0.4425  1.3290  0.6035
  619MOL0     O83454   0.973   4.287   8.592  0.1785 -0.2464  0.1433
  619MOL0     C83455   0.840   4.248   8.591 -0.1493 -0.0628 -0.0409
  619MOL0     C83456   0.800   4.117   8.574  0.3847  0.5157  0.1868
  619MOL0     C83457   0.663   4.088   8.546 -0.2240 -1.3993 -0.2035
  619MOL0     C83458   0.620   3.952   8.531  0.6485  0.7305 -0.2012
  619MOL0     C83459   0.572   4.199   8.540 -0.9892  0.3581  0.7263
  619MOL0     C83460   0.433   4.185   8.504 -0.0206 -0.4212 -0.7793
  619MOL0     O83461   0.352   4.108   8.583 -0.7640  0.7593  0.3025
  619MOL0     C83462   0.227   4.082   8.534 -0.5985 -0.4121  0.4791
  619MOL0     C83463   0.130   4.180   8.545 -0.0090 -0.2657  0.1003
  619MOL0     C83464  -0.001   4.153   8.512 -0.2556 -0.1310 -1.1763
  619MOL0     C83465  -0.029   4.034   8.448 -0.1477  0.0437  0.5470
  619MOL0     O83466  -0.154   4.008   8.404 -0.6228 -0.0153  0.3743
  619MOL0     C83467  -0.244   3.985   8.510 -0.3079 -0.7082  0.4278
  619MOL0     C83468  -0.379   3.941   8.460 -0.2869  0.8504 -0.3779
  619MOL0     C83469  -0.468   3.854   8.549 -0.1102 -0.3003 -0.4456
  619MOL0     C83470  -0.611   3.842   8.508 -0.6474 -0.4294 -0.1109
  619MOL0     C83471  -0.703   3.780   8.617 -0.0204 -0.0630  0.1151
  619MOL0     C83472  -0.725   3.881   8.730 -0.0262 -0.5339 -0.0600
  619MOL0     C83473  -0.843   3.847   8.821 -0.5268  0.5956  0.9996
  619MOL0     C83474  -0.875   3.962   8.914 -0.6343 -0.1887 -0.4007
  619MOL0    Cl83475  -0.955   4.091   8.821  0.4127  0.3556 -0.2263
  619MOL0     C83476   0.070   3.933   8.432  0.4944  0.2444 -0.3991
  619MOL0     C83477   0.199   3.954   8.485 -0.7338 -1.0023 -0.7196
  619MOL0     O83478   0.380   4.276   8.434  0.5756  0.0394 -0.1113
  619MOL0     C83479   0.622   4.327   8.559 -0.6222  0.1059  0.6868
  619MOL0     C83480   0.760   4.356   8.584  1.3536 -0.0218  0.8239
  619MOL0     N83481   1.479   4.330   8.644 -0.1052 -0.0010  0.3041
  619MOL0     N83482   1.566   4.381   8.723  0.5287 -0.4922 -1.2412
  619MOL0     C83483   0.877   5.265   9.258 -0.2742 -0.5657  0.0690
  619MOL0     C83484   0.761   5.344   9.281 -0.8736  0.1565  0.1478
  619MOL0     C83485   0.306   5.458   9.374 -0.2436 -0.5656 -0.1580
  619MOL0     C83486   0.337   5.588   9.423  0.3807 -0.5338 -0.0639
  619MOL0     C83487   0.241   5.691   9.432 -0.4579  0.3746 -0.1159
  619MOL0     C83488   0.113   5.660   9.410 -0.4031 -0.6423 -0.2078
  619MOL0     O83489   0.019   5.748   9.436  0.6732  0.4438  0.1710
  619MOL0     C83490   0.019   5.881   9.381 -0.6288  0.1383  0.4095
  619MOL0     C83491   0.039   5.881   9.228  0.2124  0.6890 -0.4285
  619MOL0     C83492  -0.086   5.800   9.170 -0.0741 -0.0170 -0.4985
  619MOL0     C83493  -0.051   5.712   9.052 -0.8542  0.0417 -0.1511
  619MOL0     C83494  -0.016   5.796   8.936  0.7926  0.5927  0.5089
  619MOL0     C83495   0.025   5.857   8.844  0.2206 -0.5553 -0.2274
  619MOL0     C83496   0.077   5.538   9.360  0.4175  0.2089 -0.0258
  619MOL0     C83497   0.171   5.436   9.341  0.2020 -0.1091 -1.0872
  619MOL0     H83498   0.559   5.117   9.423 -0.7209  1.0700 -2.2416
  619MOL0     H83499   0.757   4.984   9.381 -3.3901  1.0276  2.9517
  619MOL0     H83500   1.063   5.119   9.101  1.7634  0.6105  0.0254
  619MOL0     H83501   1.153   5.154   9.252 -1.0903  0.6998  1.1811
  619MOL0     H83502   1.231   4.927   9.266  0.2137  0.3314 -0.3919
  619MOL0     H83503   1.113   4.870   9.151  0.1710  0.4045 -2.4143
  619MOL0     H83504   1.238   5.006   8.972 -0.3272 -1.8214  0.2257
  619MOL0     H83505   1.366   5.032   9.107  0.9764 -1.6469  1.9171
  619MOL0     H83506   1.396   4.793   9.115  0.6871  0.3278  0.0970
  619MOL0     H83507   1.262   4.772   8.997  0.4607 -1.5231  2.0809
  619MOL0     H83508   1.418   4.894   8.825  0.5945  1.1632 -0.3601
  619MOL0     H83509   1.527   4.902   8.958  1.3581 -2.1741  1.3198
  619MOL0     H83510   1.533   4.655   8.961  2.3969  1.6763  0.0148
  619MOL0     H83511   1.418   4.656   8.817  1.5545 -1.0078 -1.4579
  619MOL0     H83512   1.576   4.775   8.688  1.0165  0.5685 -0.1499
  619MOL0     H83513   1.686   4.807   8.818 -0.9528  1.5561 -0.5597
  619MOL0     H83514   1.735   4.549   8.841  1.9768 -1.8476 -1.3891
  619MOL0     H83515   1.780   4.621   8.683 -0.0858 -1.0705 -0.4219
  619MOL0     H83516   1.540   4.607   8.491  0.0414 -0.8978 -0.6844
  619MOL0     H83517   1.363   4.448   8.352 -2.1605 -1.0237 -0.0383
  619MOL0     H83518   1.478   4.316   8.343  0.9852  0.5806  0.3209
  619MOL0     H83519   1.308   4.150   8.425 -2.2938  0.1973  0.3140
  619MOL0     H83520   1.234   4.255   8.307 -2.8062  0.3131  0.6316
  619MOL0     H83521   1.166   4.409   8.484  2.9746  1.4498  0.4461
  619MOL0     H83522   1.235   4.292   8.599 -0.1382 -0.5638 -1.0513
  619MOL0     H83523   1.079   4.122   8.526 -0.5534 -0.5971 -4.8065
  619MOL0     H83524   1.014   4.219   8.400  0.3367  0.3693  0.7154
  619MOL0     H83525   0.875   4.041   8.591 -1.2158 -1.2746 -0.4276
  619MOL0     H83526   0.590   3.928   8.429  0.9596  1.5865 -0.5082
  619MOL0     H83527   0.709   3.891   8.548  0.9781  0.8268 -1.4549
  619MOL0     H83528   0.536   3.928   8.597  0.0441  0.0872 -1.1854
  619MOL0     H83529   0.153   4.282   8.576  1.6305  0.7464 -3.7540
  619MOL0     H83530  -0.072   4.233   8.526  0.5807  0.6720 -1.3952
  619MOL0     H83531  -0.202   3.913   8.580  0.4244  0.5166  1.2856
  619MOL0     H83532  -0.268   4.077   8.564 -2.4669 -1.9836  1.8139
  619MOL0     H83533  -0.430   4.035   8.436  0.0577  1.4693  1.1853
  619MOL0     H83534  -0.354   3.882   8.371  1.3105 -1.2818  1.3795
  619MOL0     H83535  -0.454   3.895   8.649  3.4087  1.2548 -1.3863
  619MOL0     H83536  -0.433   3.751   8.557  1.0100  0.1910  1.8051
  619MOL0     H83537  -0.645   3.941   8.476 -0.1025 -0.1932  0.0418
  619MOL0     H83538  -0.620   3.782   8.417 -2.1816  1.4556 -1.2829
  619MOL0     H83539  -0.671   3.683   8.656 -1.2695 -0.3524  0.4481
  619MOL0     H83540  -0.800   3.762   8.569  0.0526 -2.9422  0.8532
  619MOL0     H83541  -0.636   3.869   8.793 -1.1960 -0.4758  1.6743
  619MOL0     H83542  -0.726   3.982   8.689  0.6462 -0.5679 -0.1784
  619MOL0     H83543  -0.811   3.761   8.881 -0.3241  0.1305  0.2366
  619MOL0     H83544  -0.931   3.824   8.761  0.4253  1.2343 -0.7299
  619MOL0     H83545  -0.788   4.004   8.966 -0.3703 -0.4017 -0.6693
  619MOL0     H83546  -0.946   3.919   8.985 -2.4050  1.1749 -1.2550
  619MOL0     H83547   0.035   3.844   8.381  0.1687  0.8534 -1.2724
  619MOL0     H83548   0.275   3.878   8.472  2.0897  1.0872  2.0709
  619MOL0     H83549   0.550   4.407   8.541 -1.3891 -0.6511  0.2974
  619MOL0     H83550   0.798   4.457   8.573  3.0971 -0.8102 -1.1082
  619MOL0     H83551   0.959   5.304   9.200  0.1921 -2.1120 -0.3518
  619MOL0     H83552   0.768   5.450   9.256 -1.2856  0.5682  1.6691
  619MOL0     H83553   0.441   5.614   9.441  0.0983 -0.6233  1.9362
  619MOL0     H83554   0.273   5.787   9.470 -0.8670 -0.0674  1.4338
  619MOL0     H83555  -0.078   5.929   9.393 -0.6052  0.8719 -1.8792
  619MOL0     H83556   0.097   5.940   9.431 -0.4574 -0.4996  0.9047
  619MOL0     H83557   0.136   5.844   9.192  0.6471  2.5138 -1.2752
  619MOL0     H83558   0.031   5.983   9.189  0.1127  0.4293 -1.0872
  619MOL0     H83559  -0.162   5.873   9.141 -2.4038 -1.4573  1.5760
  619MOL0     H83560  -0.122   5.727   9.243  1.4448 -2.4999 -2.1185
  619MOL0     H83561  -0.133   5.641   9.038 -0.2959 -1.0343  1.6933
  619MOL0     H83562   0.034   5.651   9.085 -0.6744  0.8156  0.8998
  619MOL0     H83563   0.083   5.916   8.775  0.9620 -2.9265 -1.7619
  619MOL0     H83564  -0.028   5.531   9.333  0.2924  0.8660  0.2702
  619MOL0     H83565   0.132   5.343   9.301 -1.6301  0.0991  0.0646
  620MOL0     O83566   9.866   0.519  10.215 -0.2918  0.2864 -0.5544
  620MOL0     C83567   9.813   0.619  10.268 -0.0173 -0.2620  0.6669
  620MOL0     O83568   9.675   0.662  10.241 -0.8947 -0.1694  0.1109
  620MOL0     C83569   9.593   0.562  10.205  0.5636  0.2864 -0.1144
  620MOL0     C83570   9.495   0.518  10.292 -0.1969  0.1847 -0.3543
  620MOL0     C83571   9.394   0.433  10.243  0.5888 -0.9937  0.1798
  620MOL0     C83572   9.391   0.405  10.100 -0.7984  0.0439  0.5184
  620MOL0     O83573   9.291   0.331  10.031 -0.2226 -0.1332 -0.6531
  620MOL0     C83574   9.180   0.277  10.111  0.6012  0.8154  0.1296
  620MOL0     C83575   9.063   0.367  10.153 -0.8494  0.5202 -0.0812
  620MOL0     C83576   8.971   0.287  10.247  0.4235 -0.3975  0.7184
  620MOL0     C83577   8.840   0.358  10.286  1.0666  0.3042  0.3169
  620MOL0     C83578   8.766   0.282  10.395 -0.3627 -0.5119 -0.0454
  620MOL0     C83579   8.630   0.331  10.402 -0.1265 -0.2847 -0.6870
  620MOL0     C83580   8.551   0.261  10.509  0.7064  0.2580 -0.4561
  620MOL0     C83581   8.405   0.267  10.472 -0.2294  0.0521 -0.1141
  620MOL0     N83582   8.324   0.228  10.586  0.0078  0.3748 -0.1838
  620MOL0     C83583   8.238   0.115  10.594  1.0971  0.2180  0.4427
  620MOL0     C83584   8.184   0.135  10.718  0.2377 -0.2139 -0.0272
  620MOL0     C83585   8.081   0.046  10.777  1.2208  0.3997  0.2716
  620MOL0     C83586   7.932   0.109  10.756 -0.2868 -0.2183  0.4311
  620MOL0     C83587   7.822   0.017  10.802 -0.3938 -0.7010  0.2755
  620MOL0     C83588   7.690   0.097  10.807 -0.9790  0.4094 -0.1254
  620MOL0     O83589   7.677   0.191  10.918 -0.2310  0.5110  0.2945
  620MOL0     C83590   7.568   0.278  10.927 -0.2796 -0.6216 -0.5828
  620MOL0     C83591   7.587   0.402  10.979  0.1552 -0.7830  0.0742
  620MOL0     C83592   7.495   0.510  10.972  0.6607 -0.1548 -0.4779
  620MOL0     C83593   7.537   0.644  11.035 -0.4591  1.3612 -0.5059
  620MOL0     C83594   7.361   0.480  10.923  0.6214 -0.6179  0.7075
  620MOL0     C83595   7.246   0.579  10.917  0.2038  0.1618  0.0411
  620MOL0     O83596   7.138   0.550  10.836  0.0394  0.1288  0.3601
  620MOL0     C83597   7.024   0.624  10.832 -0.5903  0.4226  0.0205
  620MOL0     C83598   7.008   0.756  10.885  0.2271  0.4092 -0.1842
  620MOL0     C83599   6.887   0.821  10.853  0.4038 -0.0739 -0.4832
  620MOL0     C83600   6.786   0.767  10.781  1.2612  0.1276 -0.9250
  620MOL0     O83601   6.658   0.822  10.764 -0.1603  0.1027 -0.7461
  620MOL0     C83602   6.663   0.966  10.731 -0.2246 -0.1294  0.2716
  620MOL0     C83603   6.573   0.998  10.612  1.3718  0.0207  0.1593
  620MOL0     C83604   6.423   0.967  10.646 -0.7739 -0.1011 -0.4328
  620MOL0     C83605   6.331   1.015  10.539  0.5138 -0.3505  0.0078
  620MOL0     C83606   6.187   0.969  10.574  0.4218  0.2376 -0.6371
  620MOL0     C83607   6.115   0.957  10.445  0.4999  0.3058 -0.0191
  620MOL0     C83608   5.975   0.910  10.467 -0.2333 -0.3705  0.9912
  620MOL0     C83609   5.894   0.880  10.341 -0.4253  0.4970  0.0420
  620MOL0    Cl83610   5.889   1.031  10.246 -0.0353  0.0234 -0.3935
  620MOL0     C83611   6.808   0.634  10.740 -0.6549  0.3048  0.0719
  620MOL0     C83612   6.926   0.566  10.759  1.2690  0.1220 -0.3522
  620MOL0     O83613   7.260   0.684  10.981 -0.7745 -0.1851  1.0202
  620MOL0     C83614   7.345   0.346  10.877 -0.5877 -0.0388 -0.4005
  620MOL0     C83615   7.440   0.245  10.883  0.5969  0.4334  0.0340
  620MOL0     N83616   8.230   0.252  10.776 -0.0494  0.0581  0.4145
  620MOL0     N83617   8.320   0.306  10.698  0.0147  0.4287 -0.9283
  620MOL0     C83618   9.482   0.461  10.014 -0.1970 -0.4483  0.0244
  620MOL0     C83619   9.587   0.533  10.069 -0.9566  0.1981  0.0153
  620MOL0     C83620   9.887   0.698  10.368 -1.2281  0.6017 -0.7631
  620MOL0     C83621   9.836   0.815  10.419  0.9188  0.5251  0.0563
  620MOL0     C83622   9.900   0.887  10.514 -0.2211  0.2407  0.6683
  620MOL0     C83623  10.021   0.843  10.565 -0.0000 -0.0998  0.3930
  620MOL0     O83624  10.085   0.914  10.671  0.1889  0.2086  0.6598
  620MOL0     C83625  10.063   1.051  10.693 -0.1124 -0.4060 -0.4802
  620MOL0     C83626  10.128   1.124  10.809  0.2846 -0.4770 -0.0547
  620MOL0     C83627  10.279   1.131  10.800  0.2205  0.7793 -0.7656
  620MOL0     C83628  10.337   1.180  10.665 -0.1423  0.5635 -0.4943
  620MOL0     C83629  10.479   1.168  10.667  0.3700  0.3383 -0.8512
  620MOL0     C83630  10.597   1.164  10.662  0.0107 -0.4596 -0.5965
  620MOL0     C83631  10.081   0.729  10.512  0.7025 -0.6771  0.5553
  620MOL0     C83632  10.006   0.650  10.421 -0.0826 -0.2959 -0.0810
  620MOL0     H83633   9.486   0.559  10.392  0.9585  0.3878 -0.3208
  620MOL0     H83634   9.316   0.392  10.307  0.8369 -1.3225  0.2737
  620MOL0     H83635   9.140   0.190  10.057 -2.4526  2.0883  0.1634
  620MOL0     H83636   9.218   0.235  10.205 -0.7118 -1.9690 -0.4911
  620MOL0     H83637   9.098   0.451  10.214  1.3037 -1.6207  1.8559
  620MOL0     H83638   9.010   0.401  10.064 -0.1438  0.6293 -0.4676
  620MOL0     H83639   8.963   0.189  10.198  2.0758  0.5594 -1.6048
  620MOL0     H83640   9.027   0.271  10.340  0.2147  1.9299  1.3095
  620MOL0     H83641   8.856   0.461  10.322 -0.4692 -0.3754  3.2129
  620MOL0     H83642   8.775   0.365  10.198  1.1838  0.0836  0.2129
  620MOL0     H83643   8.772   0.176  10.370  0.4893 -1.1653  2.6254
  620MOL0     H83644   8.816   0.306  10.489 -0.4261  2.3595 -0.6609
  620MOL0     H83645   8.635   0.439  10.415 -3.4765 -0.0961  0.1587
  620MOL0     H83646   8.586   0.312  10.304  1.7777 -1.5895 -1.3349
  620MOL0     H83647   8.571   0.155  10.494 -0.0373  0.2396 -1.3806
  620MOL0     H83648   8.581   0.305  10.604  1.8285 -2.1655  0.3867
  620MOL0     H83649   8.383   0.205  10.385  1.5213  2.0292 -2.0705
  620MOL0     H83650   8.369   0.365  10.439 -1.4090 -0.4017 -0.2297
  620MOL0     H83651   8.218   0.032  10.527  0.4488 -0.5237  1.5243
  620MOL0     H83652   8.080  -0.053  10.731  4.5312  1.1085 -1.7144
  620MOL0     H83653   8.101   0.027  10.882 -1.4440  1.0589  0.9746
  620MOL0     H83654   7.917   0.124  10.649  3.4255  1.7957  0.0305
  620MOL0     H83655   7.932   0.197  10.820  1.9950 -0.6788  1.1766
  620MOL0     H83656   7.845  -0.012  10.905  0.6886  0.1857  0.3025
  620MOL0     H83657   7.820  -0.070  10.735 -2.5382 -0.1356 -0.4609
  620MOL0     H83658   7.604   0.031  10.820 -1.9518  1.8582  1.1706
  620MOL0     H83659   7.688   0.147  10.710  0.6821 -4.5394 -3.0282
  620MOL0     H83660   7.688   0.415  11.016 -1.1569  1.2320  3.3470
  620MOL0     H83661   7.519   0.720  10.958 -2.8461  1.1133 -0.2745
  620MOL0     H83662   7.467   0.677  11.112 -1.3388 -2.4439  0.5307
  620MOL0     H83663   7.642   0.634  11.063 -1.0052 -4.6202  0.5732
  620MOL0     H83664   7.082   0.811  10.941  2.8291 -0.7474 -2.2690
  620MOL0     H83665   6.887   0.912  10.911 -2.1085 -1.1725  1.4561
  620MOL0     H83666   6.653   1.032  10.817  0.3827 -0.0536  0.2917
  620MOL0     H83667   6.763   0.989  10.693  0.4262  0.1749  2.0713
  620MOL0     H83668   6.580   1.106  10.597 -0.8406  0.4335  1.5703
  620MOL0     H83669   6.600   0.941  10.523 -0.0821 -1.1175  0.4113
  620MOL0     H83670   6.398   1.024  10.736  2.2460  0.3551  0.2073
  620MOL0     H83671   6.402   0.863  10.673 -0.7423 -0.5186 -1.9078
  620MOL0     H83672   6.330   1.125  10.534  3.4944 -0.3013 -2.4712
  620MOL0     H83673   6.375   0.968  10.450  2.6037 -2.0519  1.8284
  620MOL0     H83674   6.142   1.041  10.643  1.2961 -0.5346  0.7836
  620MOL0     H83675   6.187   0.868  10.615 -0.9797 -0.1894 -1.6325
  620MOL0     H83676   6.111   1.061  10.410 -1.8768  0.0271 -0.7333
  620MOL0     H83677   6.170   0.883  10.386  0.1730 -0.2673  0.3980
  620MOL0     H83678   5.923   0.989  10.521 -0.1487 -1.4226  2.6593
  620MOL0     H83679   5.976   0.822  10.532 -0.6132 -3.1545 -2.4689
  620MOL0     H83680   5.796   0.840  10.367  0.4351 -0.7415  1.5584
  620MOL0     H83681   5.950   0.807  10.281 -0.2073 -1.5222  2.5661
  620MOL0     H83682   6.731   0.587  10.680 -0.4567 -0.0119  0.0599
  620MOL0     H83683   6.938   0.472  10.706  1.3526  0.8777 -1.7293
  620MOL0     H83684   7.249   0.309  10.841  1.2647 -3.4898 -2.3003
  620MOL0     H83685   7.421   0.140  10.863  0.4690  0.2749  0.9441
  620MOL0     H83686   9.471   0.449   9.907 -0.3094 -2.6728  0.2361
  620MOL0     H83687   9.645   0.597  10.004 -0.3766 -1.3867 -1.0847
  620MOL0     H83688   9.743   0.857  10.382  1.2217  0.0327 -1.3251
  620MOL0     H83689   9.859   0.984  10.541 -0.3885  1.1535 -2.4655
  620MOL0     H83690  10.089   1.105  10.601 -1.1321 -0.6025 -0.8960
  620MOL0     H83691   9.956   1.067  10.708  0.2487  3.4882 -1.1315
  620MOL0     H83692  10.105   1.064  10.898  0.9451 -2.0348 -0.8791
  620MOL0     H83693  10.083   1.222  10.821  1.1044  0.2463 -2.2950
  620MOL0     H83694  10.305   1.025  10.815 -1.6271 -0.0731 -2.9482
  620MOL0     H83695  10.317   1.184  10.887  0.9559  0.0471 -0.6279
  620MOL0     H83696  10.313   1.286  10.655 -2.2134  0.0799 -1.2489
  620MOL0     H83697  10.301   1.125  10.577 -0.9125  2.1250 -1.1953
  620MOL0     H83698  10.704   1.172  10.659 -0.0789  0.8821 -0.8103
  620MOL0     H83699  10.176   0.693  10.551  1.2287  0.9118  0.7963
  620MOL0     H83700  10.052   0.559  10.384  0.1343 -0.8120  1.4004
  621MOL0     O83701   5.792   6.383   3.714  0.4655  0.1594  0.2888
  621MOL0     C83702   5.851   6.371   3.610 -0.2601 -0.2242  0.3248
  621MOL0     O83703   5.792   6.390   3.487  0.1152 -0.6386 -0.1201
  621MOL0     C83704   5.676   6.459   3.467 -0.0180  0.0815 -0.6846
  621MOL0     C83705   5.648   6.571   3.547 -0.5992 -0.3691 -0.1986
  621MOL0     C83706   5.526   6.632   3.537  0.0046  0.0663  0.1679
  621MOL0     C83707   5.439   6.601   3.432 -0.0777  0.1041  0.0974
  621MOL0     O83708   5.326   6.672   3.396 -0.6883 -0.0169  0.0633
  621MOL0     C83709   5.284   6.785   3.466  0.9023  0.0029  0.0552
  621MOL0     C83710   5.149   6.830   3.418  0.0174  0.1109  0.3893
  621MOL0     C83711   5.095   6.952   3.489 -0.4144 -0.0579 -0.1561
  621MOL0     C83712   4.949   6.975   3.461  0.4440  0.0647 -0.3403
  621MOL0     C83713   4.882   7.077   3.562 -0.6481 -0.2320  0.3710
  621MOL0     C83714   4.751   7.119   3.502  0.5349 -0.2178 -0.5992
  621MOL0     C83715   4.639   7.010   3.510  1.1291  0.1568 -0.5350
  621MOL0     C83716   4.587   6.989   3.654  0.7613 -0.4555  0.1744
  621MOL0     N83717   4.505   7.100   3.702  0.2787 -0.3075 -0.0472
  621MOL0     C83718   4.369   7.120   3.679 -0.3667  0.2549 -0.3050
  621MOL0     C83719   4.336   7.240   3.734 -0.4124 -0.8729 -0.2700
  621MOL0     C83720   4.198   7.312   3.714  0.2769  0.7169 -0.4514
  621MOL0     C83721   4.104   7.295   3.840 -0.3295  0.1363  0.0348
  621MOL0     C83722   3.980   7.363   3.786  0.5393 -0.8100  0.1127
  621MOL0     C83723   3.854   7.354   3.879 -0.2212 -0.0025  1.4143
  621MOL0     O83724   3.753   7.433   3.814 -0.0056  0.0009 -0.1328
  621MOL0     C83725   3.635   7.368   3.778  0.0660 -0.0187  0.7245
  621MOL0     C83726   3.526   7.453   3.761  0.6220 -0.2968 -0.4130
  621MOL0     C83727   3.394   7.399   3.733 -1.0839  0.6237  0.3440
  621MOL0     C83728   3.283   7.506   3.722  0.2937 -0.6377  0.3308
  621MOL0     C83729   3.374   7.255   3.711 -0.5684 -0.2661  0.2621
  621MOL0     C83730   3.242   7.188   3.682 -0.4620 -0.2534  0.5776
  621MOL0     O83731   3.244   7.052   3.675  0.2885 -0.8255 -0.4889
  621MOL0     C83732   3.125   6.993   3.651 -0.2834  1.0789  0.2652
  621MOL0     C83733   3.048   7.014   3.539  0.3262 -0.6779 -0.5268
  621MOL0     C83734   2.918   6.962   3.535 -0.5487 -0.8322 -0.6209
  621MOL0     C83735   2.876   6.872   3.636  0.2402 -0.0226 -0.9615
  621MOL0     O83736   2.758   6.807   3.641  0.1937  0.8373 -0.3379
  621MOL0     C83737   2.652   6.867   3.569  0.2617 -0.4642  0.2659
  621MOL0     C83738   2.522   6.835   3.635 -0.1172 -0.6474 -0.1125
  621MOL0     C83739   2.484   6.691   3.623  0.1621  1.1673 -0.8003
  621MOL0     C83740   2.396   6.673   3.499  0.0350 -0.4637  0.4218
  621MOL0     C83741   2.394   6.531   3.446 -0.6402  0.1783  0.5575
  621MOL0     C83742   2.306   6.525   3.320 -0.5062  0.3144 -1.4053
  621MOL0     C83743   2.313   6.400   3.230  0.7300  1.3548  0.1506
  621MOL0     C83744   2.226   6.408   3.109  0.1735  0.0651 -0.3404
  621MOL0    Cl83745   2.253   6.257   3.009 -0.1377 -0.3324  0.2694
  621MOL0     C83746   2.956   6.851   3.741 -0.2745  0.2561 -0.3482
  621MOL0     C83747   3.079   6.908   3.760 -0.0377 -0.7694 -0.3041
  621MOL0     O83748   3.141   7.255   3.662  0.0004 -0.2419 -0.2724
  621MOL0     C83749   3.498   7.175   3.723  0.1236 -0.0540  0.3976
  621MOL0     C83750   3.626   7.227   3.749 -0.4886 -0.2796 -0.6328
  621MOL0     N83751   4.449   7.276   3.821 -0.1193 -0.2442  0.2749
  621MOL0     N83752   4.544   7.193   3.800 -0.1714  0.1129  0.2024
  621MOL0     C83753   5.470   6.491   3.352 -0.6615  0.5412  0.7241
  621MOL0     C83754   5.586   6.416   3.373 -0.4727  1.0366 -0.1612
  621MOL0     C83755   5.996   6.330   3.605  0.3181 -0.0585  0.1500
  621MOL0     C83756   6.054   6.311   3.482  0.1502  0.5370  0.8280
  621MOL0     C83757   6.189   6.269   3.476 -0.5256 -0.5216 -0.0032
  621MOL0     C83758   6.265   6.241   3.587  1.0343  0.6516  0.8781
  621MOL0     O83759   6.388   6.189   3.564 -0.0873 -0.8298  0.9318
  621MOL0     C83760   6.477   6.170   3.672  0.2549  0.4168  0.2996
  621MOL0     C83761   6.604   6.109   3.609  0.0973 -0.3261  0.4739
  621MOL0     C83762   6.682   6.202   3.510 -0.5661  0.2147 -0.5445
  621MOL0     C83763   6.771   6.123   3.404  1.0516  0.5421 -0.9428
  621MOL0     C83764   6.865   6.218   3.337 -0.3370 -0.3146 -0.7608
  621MOL0     C83765   6.951   6.295   3.306  0.0345  0.5139 -0.3728
  621MOL0     C83766   6.200   6.253   3.714 -0.3674 -0.1006 -0.7906
  621MOL0     C83767   6.067   6.303   3.724 -0.2093  1.0709 -0.6306
  621MOL0     H83768   5.715   6.607   3.624  1.8897 -1.7615 -1.5831
  621MOL0     H83769   5.511   6.722   3.596  1.5569 -0.0597  0.8022
  621MOL0     H83770   5.281   6.762   3.573  0.2701 -1.2601 -0.2210
  621MOL0     H83771   5.352   6.868   3.445  0.9646 -0.3958 -1.4805
  621MOL0     H83772   5.150   6.843   3.310 -2.1139  0.5615  0.3918
  621MOL0     H83773   5.078   6.747   3.426 -4.4927  2.9013 -4.5824
  621MOL0     H83774   5.107   6.937   3.597  2.5758  1.2197 -0.2205
  621MOL0     H83775   5.149   7.043   3.464  0.1873 -0.0835  0.9982
  621MOL0     H83776   4.936   7.002   3.356 -0.1003 -0.0229 -0.2982
  621MOL0     H83777   4.886   6.885   3.470 -0.1194  0.3048 -1.7049
  621MOL0     H83778   4.872   7.043   3.666 -2.2156  0.4239  0.4604
  621MOL0     H83779   4.945   7.167   3.563 -1.0565  0.1390 -1.9531
  621MOL0     H83780   4.722   7.201   3.567  3.3418 -1.0934  1.9718
  621MOL0     H83781   4.762   7.151   3.398  0.8399 -0.7238 -0.7293
  621MOL0     H83782   4.564   7.047   3.440  0.1383 -0.6174  0.0825
  621MOL0     H83783   4.675   6.916   3.467  1.6402  1.6367 -3.5996
  621MOL0     H83784   4.674   6.976   3.719  1.7544 -1.9318 -1.3794
  621MOL0     H83785   4.527   6.899   3.664  2.3559 -1.4274  1.3794
  621MOL0     H83786   4.305   7.062   3.613  1.3550 -1.4718 -0.5242
  621MOL0     H83787   4.216   7.419   3.698 -0.6377  1.2625  1.7837
  621MOL0     H83788   4.167   7.260   3.623  1.3289 -0.3581 -0.2164
  621MOL0     H83789   4.140   7.341   3.933  0.4554  0.8927 -0.6312
  621MOL0     H83790   4.090   7.189   3.867  2.4293 -0.1333  0.7333
  621MOL0     H83791   3.950   7.327   3.687 -0.9149  1.6520 -0.4255
  621MOL0     H83792   3.998   7.469   3.766 -0.6299 -0.6641 -0.2447
  621MOL0     H83793   3.883   7.399   3.974  2.9476 -0.6135  0.8665
  621MOL0     H83794   3.836   7.252   3.912  4.0486 -1.7468 -0.8683
  621MOL0     H83795   3.545   7.560   3.758  2.0570 -0.5396 -0.8921
  621MOL0     H83796   3.245   7.517   3.620  1.5562 -1.0659 -0.1956
  621MOL0     H83797   3.198   7.470   3.782  1.1199 -0.4463  1.6562
  621MOL0     H83798   3.312   7.605   3.759 -0.2395 -0.5651  0.5649
  621MOL0     H83799   3.081   7.070   3.453  1.3178 -2.2000 -1.1770
  621MOL0     H83800   2.864   6.989   3.444  0.6057  0.3249 -0.9919
  621MOL0     H83801   2.650   6.976   3.585  0.9221 -0.5144  0.7148
  621MOL0     H83802   2.653   6.854   3.460 -1.7145  1.9726 -0.1400
  621MOL0     H83803   2.529   6.872   3.738 -0.7650 -0.7034 -0.0481
  621MOL0     H83804   2.445   6.903   3.597 -0.8181 -1.0735  0.5357
  621MOL0     H83805   2.434   6.664   3.717  1.9202  1.3978  0.2609
  621MOL0     H83806   2.574   6.630   3.615 -0.3221  0.6005 -2.0947
  621MOL0     H83807   2.293   6.694   3.531 -0.1138 -1.5591  0.7248
  621MOL0     H83808   2.423   6.747   3.423 -1.2942  1.5057  1.7852
  621MOL0     H83809   2.364   6.456   3.520  2.4610 -0.4800  1.2673
  621MOL0     H83810   2.497   6.506   3.418 -0.9627  0.7796 -1.3114
  621MOL0     H83811   2.203   6.547   3.347  0.6259  1.1994  2.9349
  621MOL0     H83812   2.345   6.609   3.262 -1.0647  2.6350  1.3567
  621MOL0     H83813   2.267   6.323   3.293  0.5722  1.1989 -0.1542
  621MOL0     H83814   2.417   6.375   3.206  1.0635  2.6921  0.0942
  621MOL0     H83815   2.253   6.499   3.056  1.2706 -0.7206 -1.1805
  621MOL0     H83816   2.123   6.413   3.145  0.5274  3.4561  0.5431
  621MOL0     H83817   2.923   6.792   3.825 -0.5470  0.3547 -0.3826
  621MOL0     H83818   3.144   6.897   3.846 -0.5439 -3.1931 -0.1656
  621MOL0     H83819   3.491   7.067   3.724 -1.4772  0.0364  0.3880
  621MOL0     H83820   3.713   7.163   3.744 -0.4315 -0.2886  0.3139
  621MOL0     H83821   5.409   6.462   3.268 -0.2724  0.4793  0.4611
  621MOL0     H83822   5.609   6.330   3.310  3.4667  0.2319  2.0204
  621MOL0     H83823   5.998   6.327   3.391  1.5844  2.6392  0.2408
  621MOL0     H83824   6.231   6.257   3.377  1.3479  1.4037  0.4838
  621MOL0     H83825   6.499   6.265   3.722 -0.2246 -0.5037  2.3569
  621MOL0     H83826   6.438   6.114   3.758 -2.7271  1.9031  0.0568
  621MOL0     H83827   6.572   6.020   3.554 -1.5578  0.4136  0.1843
  621MOL0     H83828   6.673   6.092   3.692  0.4566 -3.0650 -0.2650
  621MOL0     H83829   6.752   6.264   3.567  0.0273 -1.1381  0.2374
  621MOL0     H83830   6.608   6.264   3.458 -1.9385 -2.5353 -2.1004
  621MOL0     H83831   6.704   6.075   3.332 -0.0474  1.0875 -0.3066
  621MOL0     H83832   6.830   6.046   3.455 -0.1262 -0.3367 -0.8691
  621MOL0     H83833   7.007   6.384   3.284 -0.5059  1.2762  1.1838
  621MOL0     H83834   6.254   6.233   3.806 -1.5232  1.6917  0.3534
  621MOL0     H83835   6.019   6.315   3.821  0.6587  1.0327 -0.1871
  622MOL0     O83836   0.850  10.366   2.694  0.5463 -0.8715  0.5101
  622MOL0     C83837   0.881  10.260   2.643  0.2656  0.6103  0.8864
  622MOL0     O83838   0.821  10.205   2.528 -0.2212 -0.2401  0.9205
  622MOL0     C83839   0.697  10.239   2.486 -0.3624 -0.0137  0.5252
  622MOL0     C83840   0.658  10.182   2.363 -0.1714 -0.8285 -0.0571
  622MOL0     C83841   0.531  10.202   2.311  0.2960  0.6564  0.4182
  622MOL0     C83842   0.439  10.282   2.379 -0.8689  0.0855  0.2230
  622MOL0     O83843   0.340  10.327   2.297  0.1199 -0.2857  0.2327
  622MOL0     C83844   0.336  10.473   2.263  0.0243  0.0799  0.7157
  622MOL0     C83845   0.247  10.495   2.139  0.3100  0.0144  0.0007
  622MOL0     C83846   0.111  10.421   2.147  0.2252  0.5361  0.0913
  622MOL0     C83847   0.025  10.450   2.024 -0.3821  0.5594 -0.3831
  622MOL0     C83848  -0.130  10.417   2.045 -0.3407 -0.3689 -0.0759
  622MOL0     C83849  -0.146  10.270   2.054 -0.6017 -0.4017  0.6205
  622MOL0     C83850  -0.294  10.229   2.068  0.2981 -0.1504 -0.3176
  622MOL0     C83851  -0.300  10.073   2.061  1.0162 -0.5733 -0.0953
  622MOL0     N83852  -0.432  10.014   2.098 -0.5816 -0.1663 -0.7933
  622MOL0     C83853  -0.536  10.004   2.007 -0.2481  0.3577  0.4162
  622MOL0     C83854  -0.621   9.919   2.065  0.2053 -0.4552 -0.1802
  622MOL0     C83855  -0.752   9.880   2.002  0.2287 -0.5860 -0.3157
  622MOL0     C83856  -0.776   9.731   1.992 -1.1207 -0.6383 -0.7702
  622MOL0     C83857  -0.892   9.694   1.905  0.6967  0.9590 -0.1899
  622MOL0     C83858  -0.956   9.567   1.967  0.3776  0.4358  0.3837
  622MOL0     O83859  -1.081   9.540   1.899  0.0544 -0.1352 -0.0642
  622MOL0     C83860  -1.158   9.434   1.942 -0.7181 -1.0206 -0.5384
  622MOL0     C83861  -1.288   9.428   1.891 -0.6514  0.1150 -0.3257
  622MOL0     C83862  -1.382   9.330   1.927 -0.1647 -0.5288 -0.7825
  622MOL0     C83863  -1.520   9.328   1.860 -0.1393 -0.5877  0.1209
  622MOL0     C83864  -1.342   9.229   2.022 -0.4403 -0.2643 -0.1552
  622MOL0     C83865  -1.433   9.116   2.076 -0.0838  0.1502 -0.3056
  622MOL0     O83866  -1.568   9.133   2.046 -0.4744  0.0792  0.1243
  622MOL0     C83867  -1.660   9.055   2.108  0.6334  0.1004  0.8578
  622MOL0     C83868  -1.737   8.974   2.029  0.2649 -0.3151 -0.3910
  622MOL0     C83869  -1.828   8.884   2.090  0.2811 -0.2297 -0.2086
  622MOL0     C83870  -1.845   8.883   2.226  0.2628 -0.4183  0.1738
  622MOL0     O83871  -1.951   8.799   2.274  0.7566  0.3899 -0.1567
  622MOL0     C83872  -1.943   8.732   2.400  0.0099 -0.5861 -0.0091
  622MOL0     C83873  -2.078   8.679   2.446  0.4143  0.0064 -0.0966
  622MOL0     C83874  -2.056   8.598   2.571  0.1248  0.0809 -0.2584
  622MOL0     C83875  -2.195   8.538   2.617 -0.1648 -0.6126  0.0708
  622MOL0     C83876  -2.178   8.448   2.745 -0.0242 -0.7238 -0.4230
  622MOL0     C83877  -2.313   8.385   2.770  0.3165  0.8247  0.3860
  622MOL0     C83878  -2.308   8.288   2.896 -0.7382 -0.5015  0.2237
  622MOL0     C83879  -2.448   8.248   2.930 -0.1435 -0.6248  0.5916
  622MOL0    Cl83880  -2.499   8.120   2.809 -0.0697 -0.3523  0.5285
  622MOL0     C83881  -1.754   8.956   2.304 -0.2553  0.0424  0.3379
  622MOL0     C83882  -1.658   9.044   2.251  0.9807  0.0291 -0.5457
  622MOL0     O83883  -1.385   9.023   2.141 -0.5308 -0.1139  0.0297
  622MOL0     C83884  -1.208   9.238   2.074 -0.1777  0.0067  0.8792
  622MOL0     C83885  -1.117   9.339   2.033  0.8294  0.1550 -0.4144
  622MOL0     N83886  -0.577   9.888   2.193 -0.4538 -0.1350 -0.0465
  622MOL0     N83887  -0.461   9.941   2.209  0.7394 -0.4518  0.1923
  622MOL0     C83888   0.471  10.341   2.498  0.5138  0.2925 -0.9975
  622MOL0     C83889   0.598  10.318   2.558 -0.8829  0.4865 -0.4394
  622MOL0     C83890   0.993  10.187   2.701 -0.1921  0.2219  0.0547
  622MOL0     C83891   1.093  10.241   2.796  0.2691  0.3503 -0.7247
  622MOL0     C83892   1.201  10.171   2.841 -0.1257 -0.0757 -0.4656
  622MOL0     C83893   1.233  10.043   2.786  0.6246  0.0983  0.2272
  622MOL0     O83894   1.345   9.966   2.793 -0.0617 -0.2131 -0.0338
  622MOL0     C83895   1.440   9.983   2.897  0.3559 -0.2212 -0.0252
  622MOL0     C83896   1.564   9.900   2.867  0.2691  0.0443 -1.0298
  622MOL0     C83897   1.687   9.919   2.955  0.3681 -1.0574  0.1197
  622MOL0     C83898   1.660  10.000   3.078 -0.2678 -0.7625  0.1414
  622MOL0     C83899   1.785  10.003   3.151  0.0916  0.0560  0.2739
  622MOL0     C83900   1.902  10.002   3.190  0.1944 -0.3901  0.9290
  622MOL0     C83901   1.128   9.988   2.703  0.3892 -0.7612 -0.0102
  622MOL0     C83902   1.015  10.057   2.659  0.4895 -0.1589 -0.8259
  622MOL0     H83903   0.734  10.123   2.313 -0.5896  0.1153 -1.8936
  622MOL0     H83904   0.495  10.162   2.216  1.2715  1.6807 -0.4167
  622MOL0     H83905   0.292  10.523   2.350 -0.6080 -2.8592  2.2184
  622MOL0     H83906   0.436  10.509   2.238  0.0454 -1.7579 -2.3159
  622MOL0     H83907   0.235  10.603   2.130 -1.0293 -0.0849  0.3789
  622MOL0     H83908   0.295  10.455   2.049  1.4991 -0.9631  1.0381
  622MOL0     H83909   0.119  10.316   2.176 -1.5086  0.5901  0.8788
  622MOL0     H83910   0.067  10.459   2.240  0.5334  0.5251  0.2461
  622MOL0     H83911   0.041  10.555   1.996 -2.1394  1.2168  0.9151
  622MOL0     H83912   0.069  10.388   1.945  1.6149  1.8696 -0.3653
  622MOL0     H83913  -0.154  10.474   2.135  2.4241  1.3479 -0.3186
  622MOL0     H83914  -0.190  10.460   1.964  2.4315  1.5376 -1.2812
  622MOL0     H83915  -0.108  10.235   1.958 -0.0855  0.7544  0.3850
  622MOL0     H83916  -0.086  10.230   2.136  1.9904  2.9944  0.5716
  622MOL0     H83917  -0.343  10.266   2.159 -3.0329 -0.3899 -1.8789
  622MOL0     H83918  -0.350  10.281   1.990 -2.0988 -0.1119  1.3172
  622MOL0     H83919  -0.216  10.039   2.122 -0.6976 -1.4661  1.8898
  622MOL0     H83920  -0.289  10.040   1.957 -1.0222 -2.2523  0.1632
  622MOL0     H83921  -0.549  10.061   1.916 -3.3948  1.9912  1.7439
  622MOL0     H83922  -0.830   9.931   2.060  0.6981 -0.6047  0.3327
  622MOL0     H83923  -0.767   9.920   1.901  0.2138 -1.4964 -0.6869
  622MOL0     H83924  -0.789   9.694   2.095  2.7527 -3.8506 -1.1683
  622MOL0     H83925  -0.687   9.680   1.955 -1.4850 -0.3500 -2.0879
  622MOL0     H83926  -0.877   9.672   1.799  0.0369  0.1997 -0.1359
  622MOL0     H83927  -0.974   9.765   1.915 -0.5736 -0.7311  2.8156
  622MOL0     H83928  -0.968   9.566   2.076 -0.8344 -5.0030  0.4870
  622MOL0     H83929  -0.895   9.476   1.953  0.6397  0.3135  2.1005
  622MOL0     H83930  -1.330   9.495   1.816  2.1058  0.9032 -1.2813
  622MOL0     H83931  -1.535   9.227   1.819 -0.5686 -1.1393  1.5645
  622MOL0     H83932  -1.594   9.345   1.938  1.0171  0.9523  0.9281
  622MOL0     H83933  -1.525   9.402   1.780  1.1261  0.6140  1.1238
  622MOL0     H83934  -1.727   8.968   1.921 -0.9882  0.1031 -0.5493
  622MOL0     H83935  -1.898   8.822   2.036  0.7237 -1.6288  0.7699
  622MOL0     H83936  -1.871   8.652   2.378  1.6205  0.9111 -0.4621
  622MOL0     H83937  -1.892   8.792   2.477 -1.0958 -1.2721  1.2939
  622MOL0     H83938  -2.146   8.761   2.468  1.9505  0.6398  2.8284
  622MOL0     H83939  -2.125   8.616   2.370 -1.1207  0.4702  0.4370
  622MOL0     H83940  -2.015   8.660   2.651 -1.6836  0.3919  0.4549
  622MOL0     H83941  -1.975   8.528   2.548  2.3065  1.6701  1.9598
  622MOL0     H83942  -2.267   8.619   2.625 -0.0215 -0.1738 -2.3677
  622MOL0     H83943  -2.235   8.475   2.537  0.5916  0.0250 -0.8404
  622MOL0     H83944  -2.146   8.511   2.829  0.1812 -0.8834 -0.3815
  622MOL0     H83945  -2.099   8.375   2.729  1.0716  0.3684 -0.1651
  622MOL0     H83946  -2.392   8.457   2.795  0.0074 -0.0109  1.9365
  622MOL0     H83947  -2.351   8.333   2.682 -0.1308  0.6098  0.7001
  622MOL0     H83948  -2.261   8.342   2.979 -2.6826  3.2399 -0.8359
  622MOL0     H83949  -2.247   8.204   2.864 -1.7379 -0.7756 -1.0426
  622MOL0     H83950  -2.517   8.333   2.935 -0.0599 -0.4298 -0.9933
  622MOL0     H83951  -2.452   8.200   3.028  2.0218 -1.7589  0.1892
  622MOL0     H83952  -1.754   8.956   2.412 -0.4399  3.0523  0.4291
  622MOL0     H83953  -1.603   9.106   2.321 -0.0150  1.7424 -1.2200
  622MOL0     H83954  -1.162   9.155   2.127 -0.7099  0.4774  2.1185
  622MOL0     H83955  -1.016   9.333   2.071 -0.2785 -0.0469  2.8232
  622MOL0     H83956   0.393  10.392   2.553  1.2204 -0.1954  0.4908
  622MOL0     H83957   0.618  10.351   2.660  1.4829 -0.4418 -0.5310
  622MOL0     H83958   1.090  10.345   2.829  0.2247  1.3050 -3.5285
  622MOL0     H83959   1.267  10.223   2.911 -1.7856  0.8727  0.4588
  622MOL0     H83960   1.470  10.088   2.895  0.5527 -0.2875 -1.4347
  622MOL0     H83961   1.397   9.957   2.994  3.9183  1.4341  2.2001
  622MOL0     H83962   1.603   9.926   2.768  0.8237 -0.6175 -0.9885
  622MOL0     H83963   1.534   9.795   2.862  1.9653 -0.5889  1.1251
  622MOL0     H83964   1.773   9.962   2.903 -0.0948  1.0043  0.9515
  622MOL0     H83965   1.721   9.818   2.977 -0.7757 -2.0835 -2.4568
  622MOL0     H83966   1.578   9.957   3.136 -0.5649 -2.6041 -1.5248
  622MOL0     H83967   1.635  10.104   3.052  1.8671 -0.1291  0.4564
  622MOL0     H83968   2.000   9.997   3.232  0.7760  3.0771  0.2951
  622MOL0     H83969   1.144   9.888   2.662 -1.2125 -0.7522 -0.7321
  622MOL0     H83970   0.954  10.010   2.583  0.2913 -1.3315  0.0267
  623MOL0     O83971   9.901   3.513   0.107 -0.6922 -0.1627 -0.4752
  623MOL0     C83972  10.002   3.443   0.090  0.4899 -0.1105 -0.4949
  623MOL0     O83973  10.010   3.311   0.088 -0.3714 -0.5053 -0.1447
  623MOL0     C83974   9.903   3.223   0.077 -0.2026 -0.6089 -0.0497
  623MOL0     C83975   9.926   3.085   0.089 -1.5305 -0.1709  1.4323
  623MOL0     C83976   9.825   2.992   0.073 -0.7187  0.1906  0.6757
  623MOL0     C83977   9.694   3.027   0.054  0.0750  0.3706  1.6075
  623MOL0     O83978   9.588   2.936   0.038  0.9311  0.2774  0.2475
  623MOL0     C83979   9.610   2.794   0.063  0.2785 -0.1394 -0.2772
  623MOL0     C83980   9.483   2.712   0.050 -0.3790 -0.2416  0.8007
  623MOL0     C83981   9.399   2.725   0.169 -0.4123  0.2971  0.1294
  623MOL0     C83982   9.267   2.649   0.157 -0.6701  0.7347  0.6046
  623MOL0     C83983   9.185   2.659   0.286  0.5733 -0.0906  0.2689
  623MOL0     C83984   9.056   2.575   0.280 -0.7067 -0.0412  0.3210
  623MOL0     C83985   8.961   2.582   0.397  0.2446 -0.3118  0.1989
  623MOL0     C83986   8.830   2.507   0.370 -0.3000 -0.0334  0.8913
  623MOL0     N83987   8.722   2.544   0.463 -0.2008 -0.3149 -0.6275
  623MOL0     C83988   8.667   2.662   0.483 -0.5597  0.4191  0.0325
  623MOL0     C83989   8.560   2.647   0.566 -0.0689  0.4991 -0.0729
  623MOL0     C83990   8.472   2.755   0.621  0.6824  0.4221  0.1148
  623MOL0     C83991   8.326   2.705   0.643 -0.2427 -0.5235  0.3212
  623MOL0     C83992   8.225   2.819   0.649 -0.3687  0.4227 -0.1370
  623MOL0     C83993   8.083   2.767   0.676  0.3046  0.2209 -0.5645
  623MOL0     O83994   7.982   2.868   0.671  0.2674 -0.4363  0.3538
  623MOL0     C83995   7.850   2.823   0.676 -0.0757 -0.1275 -0.2856
  623MOL0     C83996   7.744   2.918   0.702 -0.0602 -0.3282 -0.1996
  623MOL0     C83997   7.609   2.898   0.686  0.6978 -0.3081  0.1702
  623MOL0     C83998   7.511   3.016   0.695 -1.3451 -0.4651  0.0545
  623MOL0     C83999   7.567   2.770   0.675  0.1922  0.6422  0.1101
  623MOL0     C84000   7.418   2.733   0.664 -0.0612  0.0014 -0.4047
  623MOL0     O84001   7.396   2.599   0.687 -0.3413  0.0783 -0.3498
  623MOL0     C84002   7.268   2.551   0.684 -0.3281 -0.2103  0.0965
  623MOL0     C84003   7.190   2.558   0.561  0.2142  0.8374 -0.9829
  623MOL0     C84004   7.068   2.489   0.559  0.4717 -0.5964  0.0933
  623MOL0     C84005   7.020   2.435   0.676  0.5567 -0.2098 -1.0821
  623MOL0     O84006   6.900   2.380   0.664  0.2280 -0.6557  0.2347
  623MOL0     C84007   6.815   2.360   0.770  0.0497  0.3274  0.1392
  623MOL0     C84008   6.670   2.371   0.719  0.6335  0.8218  0.4984
  623MOL0     C84009   6.629   2.510   0.683  0.0940 -0.3967  0.0672
  623MOL0     C84010   6.501   2.519   0.601 -0.8453 -0.1725 -0.0921
  623MOL0     C84011   6.474   2.660   0.543  0.3714  0.5093 -0.1386
  623MOL0     C84012   6.571   2.694   0.420  0.5351  0.9052 -0.7698
  623MOL0     C84013   6.567   2.836   0.374  1.1821 -0.1722 -0.3951
  623MOL0     C84014   6.705   2.885   0.320 -0.1971 -0.2662 -0.2413
  623MOL0    Cl84015   6.731   3.062   0.335 -0.0569 -0.1394  0.2517
  623MOL0     C84016   7.097   2.419   0.791  0.8689  0.0937 -0.4535
  623MOL0     C84017   7.216   2.483   0.792 -0.0644  0.2301 -0.7750
  623MOL0     O84018   7.326   2.817   0.637  0.4610 -0.2989  0.1173
  623MOL0     C84019   7.662   2.669   0.652  1.1334  0.4739 -0.6267
  623MOL0     C84020   7.806   2.696   0.644  1.0228  0.6159 -0.2553
  623MOL0     N84021   8.553   2.513   0.591  0.6281 -0.0981 -0.6666
  623MOL0     N84022   8.650   2.448   0.537  0.0156  0.1728 -0.4445
  623MOL0     C84023   9.677   3.159   0.025 -0.5563 -0.1141 -0.0639
  623MOL0     C84024   9.776   3.257   0.036  0.2127 -0.1057 -0.2129
  623MOL0     C84025  10.131   3.519   0.086 -0.5166 -0.2885 -0.0613
  623MOL0     C84026  10.148   3.644   0.140  0.1272  0.4396 -0.0079
  623MOL0     C84027  10.269   3.717   0.124  0.2671  0.2425 -0.1301
  623MOL0     C84028  10.384   3.668   0.056  0.5682 -0.1149 -0.0595
  623MOL0     O84029  10.485   3.760   0.034  0.3109 -0.2927  0.4170
  623MOL0     C84030  10.607   3.738  -0.034  0.4628 -0.5042  0.6204
  623MOL0     C84031  10.711   3.843  -0.037  0.3835  0.9846 -0.1587
  623MOL0     C84032  10.655   3.973  -0.091 -0.5386  0.1851  0.2575
  623MOL0     C84033  10.764   4.073  -0.139 -0.8563  0.3407  0.8402
  623MOL0     C84034  10.842   4.116  -0.023  0.7924  0.1804 -0.0403
  623MOL0     C84035  10.900   4.153   0.078 -0.2403  0.1155  1.1032
  623MOL0     C84036  10.364   3.538  -0.004  0.7091  0.4278  0.1841
  623MOL0     C84037  10.241   3.469   0.012 -0.1364 -0.0698  1.1798
  623MOL0     H84038  10.024   3.047   0.116 -1.1480 -3.3285 -3.1334
  623MOL0     H84039   9.851   2.887   0.089 -0.6579 -0.0452 -0.8855
  623MOL0     H84040   9.687   2.763  -0.008  0.2337 -0.6809 -0.0916
  623MOL0     H84041   9.653   2.784   0.163  2.1800  0.7064 -0.9601
  623MOL0     H84042   9.430   2.751  -0.038 -0.7164 -1.2392  0.5537
  623MOL0     H84043   9.506   2.607   0.032  1.0751  0.2237 -0.3371
  623MOL0     H84044   9.443   2.678   0.258  0.2020  4.8982  2.5124
  623MOL0     H84045   9.385   2.830   0.193  3.6063  0.3344  3.6453
  623MOL0     H84046   9.210   2.680   0.069 -1.4641 -2.5282 -0.1476
  623MOL0     H84047   9.290   2.544   0.138 -3.0828  0.4342 -1.1247
  623MOL0     H84048   9.248   2.629   0.370  0.2284 -1.9814 -0.1221
  623MOL0     H84049   9.160   2.763   0.312 -0.2045 -0.3254  0.5024
  623MOL0     H84050   9.000   2.605   0.191  0.3132  0.2446 -0.2411
  623MOL0     H84051   9.080   2.469   0.262 -2.9453 -0.8145  1.4977
  623MOL0     H84052   9.016   2.550   0.485  0.8533  1.4372  0.4962
  623MOL0     H84053   8.932   2.686   0.414 -1.8684 -0.5929 -1.2135
  623MOL0     H84054   8.845   2.399   0.364 -0.8689 -0.1754  1.7362
  623MOL0     H84055   8.792   2.533   0.271 -0.0101 -0.2999  0.7116
  623MOL0     H84056   8.703   2.755   0.439 -0.7693  0.0260 -1.0023
  623MOL0     H84057   8.513   2.806   0.709  1.8560  0.6181 -0.5230
  623MOL0     H84058   8.469   2.833   0.545  1.4739 -1.0147 -1.4486
  623MOL0     H84059   8.329   2.651   0.738 -0.4822  0.3254  0.8234
  623MOL0     H84060   8.305   2.634   0.563 -1.5814  2.3809 -2.1250
  623MOL0     H84061   8.226   2.867   0.551 -1.3884 -1.6035 -1.2006
  623MOL0     H84062   8.252   2.895   0.723  0.9146 -1.3401  1.3046
  623MOL0     H84063   8.078   2.720   0.775  0.6488 -1.1625 -1.1765
  623MOL0     H84064   8.071   2.690   0.599 -0.3992  0.9385 -1.1928
  623MOL0     H84065   7.780   3.020   0.715 -0.3362 -0.3062  0.4383
  623MOL0     H84066   7.572   3.098   0.733 -2.7001 -0.0822  1.5018
  623MOL0     H84067   7.468   3.044   0.598 -1.6090  1.9392  0.8012
  623MOL0     H84068   7.432   2.995   0.768 -0.3848  0.0812  1.2669
  623MOL0     H84069   7.225   2.605   0.470 -0.0210 -0.3563 -1.7219
  623MOL0     H84070   7.015   2.472   0.466 -1.7309 -2.2456  1.5466
  623MOL0     H84071   6.828   2.262   0.817 -1.2242  1.1579  2.3712
  623MOL0     H84072   6.824   2.442   0.843 -1.6523 -0.3714  1.1993
  623MOL0     H84073   6.660   2.305   0.631  0.0558 -0.8016  1.7325
  623MOL0     H84074   6.614   2.329   0.803 -1.3940  0.1346 -1.1045
  623MOL0     H84075   6.707   2.560   0.625  1.2733  0.0613  1.9495
  623MOL0     H84076   6.618   2.563   0.777 -0.3461 -1.7507  0.8087
  623MOL0     H84077   6.519   2.462   0.509  0.7589 -1.4771  0.9747
  623MOL0     H84078   6.426   2.480   0.670  2.4002 -1.1486  3.2016
  623MOL0     H84079   6.487   2.737   0.620 -1.1486  0.4633  0.1947
  623MOL0     H84080   6.372   2.650   0.505  0.1012 -0.3375  0.7670
  623MOL0     H84081   6.673   2.675   0.456  0.5888 -0.1575 -1.4372
  623MOL0     H84082   6.560   2.626   0.335 -5.0409 -1.7408  1.5714
  623MOL0     H84083   6.544   2.891   0.465  0.0051 -1.9845  0.4555
  623MOL0     H84084   6.484   2.862   0.307 -0.5681 -0.8602  1.3984
  623MOL0     H84085   6.720   2.869   0.213 -0.6131  1.4307 -0.5890
  623MOL0     H84086   6.782   2.837   0.382 -0.2155 -1.0758 -0.8263
  623MOL0     H84087   7.061   2.364   0.877 -0.3712  2.6865  0.8219
  623MOL0     H84088   7.277   2.479   0.882  1.4807  0.7540 -1.7552
  623MOL0     H84089   7.624   2.571   0.625 -0.9539  1.1688 -0.3886
  623MOL0     H84090   7.877   2.617   0.618 -0.5871 -1.3110  0.8745
  623MOL0     H84091   9.576   3.192   0.004 -0.7248  1.0330  2.2200
  623MOL0     H84092   9.747   3.362   0.034  0.1212 -0.0994  0.7699
  623MOL0     H84093  10.069   3.699   0.190 -0.2487 -0.3970  0.3319
  623MOL0     H84094  10.260   3.818   0.161 -2.6248  0.2412 -0.5868
  623MOL0     H84095  10.649   3.650   0.016  0.4908  0.0884  1.6853
  623MOL0     H84096  10.589   3.720  -0.140  0.0597  1.0930  0.4019
  623MOL0     H84097  10.795   3.813  -0.100  0.1572 -0.5722  0.2462
  623MOL0     H84098  10.741   3.854   0.068  1.3655 -4.0807  0.3399
  623MOL0     H84099  10.597   4.024  -0.013  0.4331  2.7187 -0.5840
  623MOL0     H84100  10.588   3.955  -0.175  0.3637 -2.5816  0.0187
  623MOL0     H84101  10.715   4.156  -0.191 -2.6481 -1.2620 -0.1541
  623MOL0     H84102  10.834   4.034  -0.213 -0.7226 -0.3865  1.3458
  623MOL0     H84103  10.940   4.167   0.176  1.9354 -2.6275  0.7333
  623MOL0     H84104  10.435   3.485  -0.067  0.4028 -0.0166  0.2087
  623MOL0     H84105  10.229   3.370  -0.030  2.2694 -1.4525  3.4560
  624MOL0     O84106   7.098   6.012   9.521  0.4877  0.1743  0.5861
  624MOL0     C84107   7.139   6.010   9.636  0.3773  0.2648 -0.5465
  624MOL0     O84108   7.068   6.032   9.756 -0.8019 -0.0892  0.3600
  624MOL0     C84109   6.944   6.092   9.754  0.7544  0.0694  0.2490
  624MOL0     C84110   6.871   6.055   9.863  1.3366 -0.3245 -0.0587
  624MOL0     C84111   6.735   6.092   9.863  0.5815  0.0951  0.3891
  624MOL0     C84112   6.675   6.173   9.761 -0.0052  0.9511  0.5998
  624MOL0     O84113   6.544   6.213   9.753 -0.6680  0.2153  0.3169
  624MOL0     C84114   6.446   6.116   9.780 -0.0491  0.0885 -0.3918
  624MOL0     C84115   6.311   6.190   9.768 -0.2582  1.0639 -0.1173
  624MOL0     C84116   6.198   6.090   9.767 -0.5572  0.0563 -0.3653
  624MOL0     C84117   6.066   6.164   9.734  0.0504  1.0755  1.0359
  624MOL0     C84118   5.948   6.068   9.695 -0.4417 -0.2203 -0.7070
  624MOL0     C84119   5.887   6.003   9.814  0.4461  0.1216  0.0690
  624MOL0     C84120   5.786   5.896   9.786 -0.0453 -0.2420  0.0877
  624MOL0     C84121   5.664   5.957   9.726 -1.1856 -0.4767 -0.2406
  624MOL0     N84122   5.604   6.053   9.823 -0.5787 -0.4595 -0.1942
  624MOL0     C84123   5.534   6.159   9.783 -0.0044 -0.7149 -0.1166
  624MOL0     C84124   5.477   6.204   9.896 -0.3428  0.7636 -0.0087
  624MOL0     C84125   5.386   6.321   9.911  0.8016 -0.5421  0.5101
  624MOL0     C84126   5.243   6.284   9.960 -0.6305 -0.0527 -0.0920
  624MOL0     C84127   5.220   6.272  10.112  0.0435  0.3795 -0.4685
  624MOL0     C84128   5.283   6.384  10.189  0.0152 -0.1887 -0.3588
  624MOL0     O84129   5.244   6.510  10.131 -0.0252  0.0869 -0.1522
  624MOL0     C84130   5.118   6.561  10.158  0.1729  0.1393 -0.0283
  624MOL0     C84131   5.075   6.677  10.101 -0.3964 -0.4644  0.4192
  624MOL0     C84132   4.944   6.735  10.123 -0.6889 -1.1249  0.1415
  624MOL0     C84133   4.896   6.861  10.050 -0.2355  0.5450  0.1726
  624MOL0     C84134   4.854   6.662  10.206  0.7446 -0.0540  1.3553
  624MOL0     C84135   4.707   6.695  10.221  1.0454 -0.1692 -0.6085
  624MOL0     O84136   4.638   6.631  10.314  0.7813 -0.4014  0.0520
  624MOL0     C84137   4.501   6.627  10.304 -0.3766 -0.6752  0.5158
  624MOL0     C84138   4.449   6.516  10.240  1.3595  0.5330 -0.1106
  624MOL0     C84139   4.310   6.517  10.218  0.6100 -0.2740 -0.0472
  624MOL0     C84140   4.229   6.626  10.255  0.2513  0.6057 -0.1070
  624MOL0     O84141   4.087   6.613  10.237  0.2641 -0.0160 -0.0653
  624MOL0     C84142   4.007   6.734  10.204 -0.3081  0.5754  0.3444
  624MOL0     C84143   3.911   6.684  10.099  0.8561  0.5770 -0.0266
  624MOL0     C84144   3.825   6.814  10.076 -0.4799  0.2253 -0.1644
  624MOL0     C84145   3.701   6.776   9.997 -0.5807 -0.5238 -0.3960
  624MOL0     C84146   3.602   6.899   9.971 -0.2947 -0.6156  0.2711
  624MOL0     C84147   3.502   6.924  10.095 -0.2921  0.0199 -0.0239
  624MOL0     C84148   3.409   6.805  10.133 -0.6340 -0.0089 -0.2239
  624MOL0     C84149   3.284   6.882  10.180  0.5649  0.1859  0.4115
  624MOL0    Cl84150   3.188   6.883  10.022 -0.0207 -0.2528 -0.3238
  624MOL0     C84151   4.286   6.731  10.326  0.5074  0.4874 -0.3746
  624MOL0     C84152   4.423   6.738  10.351 -0.9609  0.0183 -0.7212
  624MOL0     O84153   4.648   6.776  10.137 -0.0715 -0.0479 -0.2903
  624MOL0     C84154   4.900   6.544  10.263 -0.4376  0.0006  0.8215
  624MOL0     C84155   5.031   6.501  10.244  0.5228  0.6551 -0.2161
  624MOL0     N84156   5.510   6.117  10.001 -0.3969  0.7557 -0.2697
  624MOL0     N84157   5.585   6.026   9.950  0.2647  1.0439 -0.3019
  624MOL0     C84158   6.762   6.221   9.665 -0.3004  0.4226 -0.1723
  624MOL0     C84159   6.894   6.179   9.653  0.5846 -0.8398  1.1689
  624MOL0     C84160   7.281   5.993   9.644 -0.2979  0.5033  0.1513
  624MOL0     C84161   7.330   5.919   9.754  0.2893  0.2196  0.2802
  624MOL0     C84162   7.469   5.887   9.766  0.5912  0.0273  0.1233
  624MOL0     C84163   7.564   5.933   9.670 -0.0338  0.9997  0.5536
  624MOL0     O84164   7.699   5.907   9.706 -0.2603 -0.1203  0.0726
  624MOL0     C84165   7.796   5.907   9.597  0.2809 -0.2113 -1.2922
  624MOL0     C84166   7.931   5.852   9.646  0.5551  0.5479  0.0571
  624MOL0     C84167   8.023   5.833   9.530  0.9197 -0.2735  0.2323
  624MOL0     C84168   8.145   5.755   9.564  0.1003  0.6592 -0.2258
  624MOL0     C84169   8.246   5.769   9.460  0.2625 -0.1150  0.0218
  624MOL0     C84170   8.338   5.799   9.379  0.2191  0.3286 -0.4073
  624MOL0     C84171   7.511   6.013   9.563  0.5470 -0.0454  0.1276
  624MOL0     C84172   7.379   6.046   9.550  1.2829 -0.1113 -0.6539
  624MOL0     H84173   6.901   5.998   9.950  2.6791  1.9448  1.0724
  624MOL0     H84174   6.678   6.050   9.945 -1.5068  0.6142 -0.7278
  624MOL0     H84175   6.449   6.023   9.722 -1.2736 -1.5534  1.9899
  624MOL0     H84176   6.465   6.086   9.883  4.6044 -0.5605 -1.2032
  624MOL0     H84177   6.296   6.254   9.856  0.8164 -0.2912  1.1008
  624MOL0     H84178   6.300   6.240   9.671  0.9460 -1.8922 -1.9180
  624MOL0     H84179   6.211   6.014   9.689  0.8363  2.5439 -2.7417
  624MOL0     H84180   6.185   6.038   9.862 -2.0828 -2.6010 -1.8682
  624MOL0     H84181   6.038   6.235   9.813 -0.5383  2.2337 -0.1621
  624MOL0     H84182   6.081   6.227   9.646 -0.1970  1.5365  1.3218
  624MOL0     H84183   5.872   6.131   9.649  0.3004  0.0016 -1.6631
  624MOL0     H84184   5.984   5.985   9.634  0.0178 -0.8839  0.4168
  624MOL0     H84185   5.966   5.954   9.871 -1.8831 -1.4391  2.1590
  624MOL0     H84186   5.846   6.079   9.882  0.3331  1.4738 -1.4573
  624MOL0     H84187   5.833   5.832   9.710 -1.1069 -0.1334 -0.6831
  624MOL0     H84188   5.755   5.840   9.874  0.0006 -3.0619 -1.5612
  624MOL0     H84189   5.591   5.882   9.696 -3.2193  2.2369 -2.6910
  624MOL0     H84190   5.696   6.015   9.638  1.8427 -0.2918  0.8663
  624MOL0     H84191   5.543   6.205   9.685 -0.0949 -0.4380  0.0030
  624MOL0     H84192   5.424   6.404   9.972 -3.4331  1.7105  0.4553
  624MOL0     H84193   5.376   6.356   9.808 -1.5782  1.9215  1.4353
  624MOL0     H84194   5.212   6.189   9.916 -2.8397  0.9307 -0.7915
  624MOL0     H84195   5.176   6.357   9.915  0.2366  1.2128  0.6117
  624MOL0     H84196   5.262   6.173  10.137  0.9901  0.3077 -2.1959
  624MOL0     H84197   5.116   6.261  10.143  0.4672 -2.0617  0.3523
  624MOL0     H84198   5.391   6.376  10.175  0.1973  2.1195 -0.8328
  624MOL0     H84199   5.275   6.377  10.298  0.3153  0.2124 -0.3061
  624MOL0     H84200   5.140   6.713  10.022 -1.1285 -1.6627 -0.7563
  624MOL0     H84201   4.819   6.838   9.976  1.0781 -1.2348 -0.7007
  624MOL0     H84202   4.849   6.940  10.110 -1.6297  0.3658 -0.6332
  624MOL0     H84203   4.982   6.911  10.004  1.3618 -2.0508  0.1593
  624MOL0     H84204   4.517   6.439  10.204  1.7997  1.0124 -0.3175
  624MOL0     H84205   4.265   6.442  10.154 -0.0507 -1.6414  1.9237
  624MOL0     H84206   3.950   6.772  10.289  0.4947  1.4756  0.4906
  624MOL0     H84207   4.068   6.811  10.155  0.0032 -0.2239 -0.5605
  624MOL0     H84208   3.960   6.670  10.003 -0.8423  1.4751 -1.0693
  624MOL0     H84209   3.844   6.604  10.132  0.5932 -0.0058 -1.8613
  624MOL0     H84210   3.887   6.881  10.015 -0.7869  1.4511  0.8354
  624MOL0     H84211   3.800   6.871  10.166  0.5520  0.6111 -0.1044
  624MOL0     H84212   3.714   6.705   9.915 -1.5129 -3.7283  2.0061
  624MOL0     H84213   3.645   6.709  10.063 -1.9766 -0.6404 -1.6549
  624MOL0     H84214   3.538   6.877   9.885  0.8753  0.0647 -0.8003
  624MOL0     H84215   3.666   6.986   9.959  2.5257 -2.5371  0.5170
  624MOL0     H84216   3.559   6.924  10.188  1.9025 -0.2256 -1.3054
  624MOL0     H84217   3.457   7.023  10.087 -1.8816 -0.5011  1.7427
  624MOL0     H84218   3.462   6.752  10.211  1.5692 -1.1924 -2.3830
  624MOL0     H84219   3.394   6.738  10.048  3.6714 -1.4476 -0.0884
  624MOL0     H84220   3.291   6.990  10.196 -0.7447  0.5515 -1.1822
  624MOL0     H84221   3.231   6.821  10.254 -1.8307 -1.7926 -2.6808
  624MOL0     H84222   4.216   6.812  10.343  0.2520  0.5079 -1.4140
  624MOL0     H84223   4.465   6.816  10.413  1.4684 -2.0536  0.4248
  624MOL0     H84224   4.837   6.486  10.330 -1.0002  1.3026  1.4594
  624MOL0     H84225   5.056   6.411  10.299 -2.8078 -0.1981  0.1508
  624MOL0     H84226   6.730   6.286   9.585 -2.1402  0.7959  0.7987
  624MOL0     H84227   6.940   6.211   9.560 -1.5255  2.0253  0.9832
  624MOL0     H84228   7.262   5.888   9.833  0.8358 -1.7114  0.0423
  624MOL0     H84229   7.505   5.840   9.857 -1.5751 -3.3179 -0.5964
  624MOL0     H84230   7.749   5.843   9.521 -3.1676 -0.1177  0.5547
  624MOL0     H84231   7.804   6.006   9.552  0.4330  0.9843  1.2134
  624MOL0     H84232   7.914   5.755   9.694  1.4955  0.3713  0.0412
  624MOL0     H84233   7.968   5.922   9.721 -3.0691  1.8515  0.8251
  624MOL0     H84234   8.056   5.935   9.508  1.9196 -1.3024 -3.7125
  624MOL0     H84235   7.973   5.803   9.437  2.0717  1.0608 -0.8633
  624MOL0     H84236   8.119   5.649   9.575  1.1168  0.3896 -0.2814
  624MOL0     H84237   8.186   5.793   9.658 -1.9545  0.8805  0.6467
  624MOL0     H84238   8.425   5.797   9.317  0.4456 -0.4106 -0.0747
  624MOL0     H84239   7.571   6.055   9.483 -1.0920 -0.4181 -1.3455
  624MOL0     H84240   7.338   6.118   9.479 -1.9198  0.3066  1.3917
  625MOL0     O84241   8.824   8.642   7.274 -0.4840 -0.7576  0.7378
  625MOL0     C84242   8.821   8.568   7.371  0.1881  0.4373  0.8662
  625MOL0     O84243   8.713   8.520   7.432 -0.5338 -0.2787  0.2209
  625MOL0     C84244   8.587   8.566   7.414  0.7714 -0.5678 -0.3446
  625MOL0     C84245   8.542   8.676   7.341 -0.5455  0.1242  0.4026
  625MOL0     C84246   8.409   8.705   7.314 -0.3320 -0.4473 -0.0996
  625MOL0     C84247   8.307   8.636   7.369 -0.8049 -0.1205  0.3905
  625MOL0     O84248   8.176   8.673   7.339  0.5477 -0.1277 -0.0101
  625MOL0     C84249   8.063   8.588   7.368 -0.9065 -0.0433  0.2091
  625MOL0     C84250   7.945   8.636   7.283  0.3040 -0.8008  0.2300
  625MOL0     C84251   7.821   8.644   7.370 -0.0288  0.3740 -0.4890
  625MOL0     C84252   7.705   8.692   7.279  0.5699 -0.2003 -0.2651
  625MOL0     C84253   7.575   8.709   7.362  0.5207 -0.0656  0.2118
  625MOL0     C84254   7.469   8.760   7.263 -0.0598  0.5087  0.6881
  625MOL0     C84255   7.339   8.791   7.344  0.2174 -0.7356  0.9908
  625MOL0     C84256   7.275   8.661   7.402  0.6843 -0.0752 -0.0170
  625MOL0     N84257   7.136   8.682   7.437  0.0778 -0.1189 -0.6299
  625MOL0     C84258   7.078   8.785   7.515  0.2921 -0.2057 -0.2081
  625MOL0     C84259   6.943   8.767   7.519 -0.2021 -0.1824 -0.1477
  625MOL0     C84260   6.835   8.839   7.598 -0.3385  0.8891  0.9581
  625MOL0     C84261   6.818   8.981   7.541  1.2538 -0.5903 -0.5525
  625MOL0     C84262   6.711   9.050   7.626  1.0596 -0.7788 -0.6782
  625MOL0     C84263   6.566   8.982   7.627 -0.5049 -0.3356  0.4151
  625MOL0     O84264   6.477   9.058   7.710  0.7822 -0.4375 -0.1148
  625MOL0     C84265   6.352   9.060   7.664  0.3395 -0.0615  0.2006
  625MOL0     C84266   6.246   9.004   7.737  0.7801 -0.8707  0.0171
  625MOL0     C84267   6.106   8.997   7.692 -0.5418 -0.6767 -0.4526
  625MOL0     C84268   6.011   8.944   7.790 -0.5817 -0.0297 -0.1896
  625MOL0     C84269   6.072   9.036   7.560  0.2690  0.0416 -0.6332
  625MOL0     C84270   5.939   9.024   7.503 -0.7896  0.2851 -0.2874
  625MOL0     O84271   5.859   8.924   7.559  0.4402  0.9459 -0.0732
  625MOL0     C84272   5.737   8.900   7.494 -0.6528 -0.0765 -0.7211
  625MOL0     C84273   5.614   8.936   7.551  0.1026  0.2731 -0.3343
  625MOL0     C84274   5.497   8.926   7.471 -0.5825  0.1549 -0.0450
  625MOL0     C84275   5.497   8.878   7.337 -0.4249 -0.0298 -0.0561
  625MOL0     O84276   5.380   8.888   7.274 -0.0775  0.6061 -0.5332
  625MOL0     C84277   5.356   8.775   7.192  0.7803  0.1762 -0.2285
  625MOL0     C84278   5.223   8.796   7.118 -0.7585 -0.3330  0.5199
  625MOL0     C84279   5.113   8.840   7.212 -0.1094  0.1273 -0.2124
  625MOL0     C84280   4.977   8.845   7.148  0.2162 -0.1918  0.0603
  625MOL0     C84281   4.880   8.834   7.262  0.2257 -1.2525 -0.1761
  625MOL0     C84282   4.736   8.882   7.223 -0.1547  0.1247 -0.1322
  625MOL0     C84283   4.674   8.779   7.127 -0.3031 -0.2629  0.3447
  625MOL0     C84284   4.536   8.822   7.073  0.0877  0.9002 -0.3764
  625MOL0    Cl84285   4.468   8.721   6.942  0.2021  0.1827 -0.0992
  625MOL0     C84286   5.621   8.847   7.280 -0.6051 -0.0800 -0.0896
  625MOL0     C84287   5.735   8.855   7.364  0.2865  0.5992  0.8978
  625MOL0     O84288   5.912   9.087   7.405 -0.7585 -0.1271 -0.5615
  625MOL0     C84289   6.181   9.086   7.485  0.8235 -0.1103 -1.0687
  625MOL0     C84290   6.319   9.113   7.541  0.1018  0.4385  1.1512
  625MOL0     N84291   6.918   8.655   7.442  0.4356 -0.1856  0.0783
  625MOL0     N84292   7.029   8.609   7.403 -0.2740  0.1995  0.3872
  625MOL0     C84293   8.348   8.540   7.460 -0.5541 -0.2212  0.4178
  625MOL0     C84294   8.483   8.504   7.478 -0.1630  0.1911 -0.8535
  625MOL0     C84295   8.957   8.533   7.414 -0.5930 -1.0686 -0.7623
  625MOL0     C84296   9.078   8.587   7.369  0.2114  0.3467  0.1809
  625MOL0     C84297   9.199   8.544   7.413 -0.0097 -0.0909 -0.9008
  625MOL0     C84298   9.213   8.455   7.519  0.6522  1.0862 -0.0015
  625MOL0     O84299   9.332   8.426   7.575 -0.3785  0.3069 -0.2676
  625MOL0     C84300   9.428   8.367   7.493  0.2107  0.2734 -1.5700
  625MOL0     C84301   9.570   8.390   7.536  0.6268  0.5307 -0.6503
  625MOL0     C84302   9.666   8.331   7.443 -0.2637  0.7527  0.4736
  625MOL0     C84303   9.722   8.189   7.481  0.2783  0.1535 -0.7692
  625MOL0     C84304   9.818   8.191   7.595 -0.1261 -0.3340 -0.0131
  625MOL0     C84305   9.906   8.195   7.684  0.9542 -0.4284  0.3256
  625MOL0     C84306   9.091   8.386   7.556 -0.3485 -0.3031 -0.1123
  625MOL0     C84307   8.965   8.432   7.509  0.0374 -0.2664 -0.2699
  625MOL0     H84308   8.604   8.755   7.299 -1.9114  0.4592 -1.1108
  625MOL0     H84309   8.384   8.777   7.237 -1.2001 -2.5261 -1.8750
  625MOL0     H84310   8.082   8.481   7.350  2.7335  0.0431  2.5431
  625MOL0     H84311   8.044   8.588   7.476  0.8430 -0.9200  0.5671
  625MOL0     H84312   7.960   8.736   7.242  1.1526 -1.8014 -2.0983
  625MOL0     H84313   7.917   8.564   7.205 -1.2422 -0.6735  0.6363
  625MOL0     H84314   7.802   8.542   7.406  0.0396 -0.0889 -1.7150
  625MOL0     H84315   7.822   8.717   7.452 -0.9899  0.2780 -0.3841
  625MOL0     H84316   7.732   8.787   7.233 -2.0662 -0.2305 -2.0571
  625MOL0     H84317   7.683   8.626   7.194 -0.1733 -1.7192  1.0615
  625MOL0     H84318   7.542   8.612   7.400 -0.5496  0.4599  0.6307
  625MOL0     H84319   7.579   8.785   7.440  1.4807 -0.0350  0.1523
  625MOL0     H84320   7.504   8.850   7.212  2.2684 -0.4060  0.5471
  625MOL0     H84321   7.441   8.688   7.185 -3.3842  1.2113  1.0642
  625MOL0     H84322   7.361   8.872   7.414  1.4691  0.2704 -0.4986
  625MOL0     H84323   7.269   8.828   7.268  2.0792 -2.4652 -1.7317
  625MOL0     H84324   7.328   8.629   7.492  1.7060  0.3271 -0.4597
  625MOL0     H84325   7.298   8.580   7.332  1.4678  0.1197 -0.0032
  625MOL0     H84326   7.132   8.869   7.557 -2.3395  1.8879 -0.7509
  625MOL0     H84327   6.749   8.772   7.592 -0.1268  0.4170  2.7980
  625MOL0     H84328   6.871   8.839   7.701 -0.1197 -1.3457  0.9192
  625MOL0     H84329   6.790   8.970   7.436 -0.2610 -4.5475  0.1142
  625MOL0     H84330   6.905   9.047   7.551 -0.0371  1.2854 -1.0991
  625MOL0     H84331   6.704   9.157   7.600  0.6069 -0.1911  1.6433
  625MOL0     H84332   6.744   9.071   7.728 -0.1006 -0.6341 -0.3069
  625MOL0     H84333   6.576   8.887   7.681 -0.6472 -1.0748 -0.8178
  625MOL0     H84334   6.523   8.972   7.526  0.6615 -1.1430 -0.0187
  625MOL0     H84335   6.267   8.971   7.838 -1.8731 -0.6196  0.7368
  625MOL0     H84336   6.040   8.962   7.894  2.0863 -1.4359 -0.5974
  625MOL0     H84337   5.920   9.002   7.771  0.0654  0.9016 -0.5332
  625MOL0     H84338   6.010   8.836   7.772  3.0190 -0.1827 -0.1921
  625MOL0     H84339   5.604   8.979   7.650  0.2109 -1.2522  0.3719
  625MOL0     H84340   5.403   8.946   7.521 -0.9558 -2.4456  0.4574
  625MOL0     H84341   5.436   8.765   7.118 -0.3165  2.8173 -1.9087
  625MOL0     H84342   5.348   8.680   7.247 -1.4677 -0.1190 -0.9832
  625MOL0     H84343   5.238   8.865   7.035  2.7624  1.6524  2.5457
  625MOL0     H84344   5.191   8.702   7.071  0.4652 -0.2285 -0.6002
  625MOL0     H84345   5.147   8.943   7.228  1.4850 -0.3368 -0.4310
  625MOL0     H84346   5.123   8.779   7.302 -0.3293 -0.6903 -0.7359
  625MOL0     H84347   4.979   8.943   7.099 -3.0032  0.6113  1.2854
  625MOL0     H84348   4.960   8.770   7.071 -0.6734 -0.0492  0.1085
  625MOL0     H84349   4.924   8.898   7.339  3.2065 -1.7846 -1.2661
  625MOL0     H84350   4.890   8.732   7.300  2.2421 -1.9757 -2.3531
  625MOL0     H84351   4.675   8.883   7.314 -0.2922 -3.8958  0.0160
  625MOL0     H84352   4.736   8.976   7.166  1.6461 -0.7321 -1.6449
  625MOL0     H84353   4.652   8.685   7.179 -2.0654  0.8932  1.8251
  625MOL0     H84354   4.735   8.763   7.038  0.1377  0.0658  0.5860
  625MOL0     H84355   4.537   8.925   7.036  0.0723  0.7832 -0.7144
  625MOL0     H84356   4.467   8.809   7.156 -0.1054 -2.4410 -0.9196
  625MOL0     H84357   5.632   8.835   7.173 -2.1483 -0.3322 -0.2410
  625MOL0     H84358   5.835   8.845   7.324 -0.1213  0.0793 -0.0433
  625MOL0     H84359   6.155   9.103   7.381 -2.3013 -2.0199 -0.7282
  625MOL0     H84360   6.396   9.142   7.469  1.7404 -1.0966  2.1964
  625MOL0     H84361   8.274   8.488   7.520 -1.2723  0.5032  0.1816
  625MOL0     H84362   8.513   8.424   7.545 -1.4264 -0.3176 -0.8683
  625MOL0     H84363   9.065   8.646   7.278 -2.3632  0.0042  0.2522
  625MOL0     H84364   9.285   8.593   7.368  0.8693  0.6784  1.4419
  625MOL0     H84365   9.421   8.257   7.494  2.1700  0.1218 -0.3795
  625MOL0     H84366   9.417   8.414   7.395  0.2946  2.6256 -0.5001
  625MOL0     H84367   9.589   8.357   7.639 -0.7479  3.0068  0.4961
  625MOL0     H84368   9.581   8.499   7.547  0.5942  0.4620  0.1399
  625MOL0     H84369   9.762   8.384   7.434  1.0706 -1.1038  2.7010
  625MOL0     H84370   9.630   8.321   7.341 -1.5682  2.8932  0.6485
  625MOL0     H84371   9.764   8.137   7.394 -0.8238 -0.2908 -1.0554
  625MOL0     H84372   9.639   8.126   7.515 -0.5400  1.0823 -1.0001
  625MOL0     H84373   9.975   8.221   7.762  1.9633 -2.7100  0.2551
  625MOL0     H84374   9.102   8.304   7.627  0.5669 -2.5425 -2.7053
  625MOL0     H84375   8.875   8.387   7.550 -0.0926 -0.9476 -1.2596
  626MOL0     O84376   2.972   9.855   5.646  0.2310 -0.1930  0.9241
  626MOL0     C84377   3.003   9.834   5.529 -0.2084  0.6017 -0.1956
  626MOL0     O84378   2.916   9.825   5.422 -0.0692 -0.6695 -0.0307
  626MOL0     C84379   2.778   9.837   5.441 -0.3135 -0.2937  0.4404
  626MOL0     C84380   2.711   9.793   5.556  0.1579  0.4576 -0.2801
  626MOL0     C84381   2.576   9.801   5.559 -0.5165  0.2501  0.0551
  626MOL0     C84382   2.504   9.858   5.455  0.0698 -0.8453 -0.3099
  626MOL0     O84383   2.369   9.879   5.474 -0.3813  0.0274  0.1740
  626MOL0     C84384   2.311   9.866   5.607 -0.7993 -0.2254  0.1085
  626MOL0     C84385   2.159   9.894   5.605  0.6950  0.2562 -0.0315
  626MOL0     C84386   2.092   9.878   5.739 -0.9083  0.1374  0.2929
  626MOL0     C84387   2.159   9.952   5.854  0.1048  0.5902 -0.7674
  626MOL0     C84388   2.069   9.972   5.981  0.3586  0.2831  0.2650
  626MOL0     C84389   2.023   9.847   6.054  0.8609 -0.5410  0.1304
  626MOL0     C84390   1.909   9.883   6.150  0.1351  0.3991  0.9906
  626MOL0     C84391   1.839   9.766   6.213  0.1527 -0.5029 -0.4988
  626MOL0     N84392   1.759   9.815   6.333 -0.1370 -0.1594 -0.1153
  626MOL0     C84393   1.634   9.871   6.320  0.6907  0.2389 -0.0785
  626MOL0     C84394   1.587   9.888   6.444 -0.5255  0.1719  0.5485
  626MOL0     C84395   1.452   9.935   6.487  0.1103 -0.6343 -0.4872
  626MOL0     C84396   1.332   9.849   6.453  0.5131 -0.9784  0.6440
  626MOL0     C84397   1.237   9.910   6.346 -0.7195 -0.2735 -1.0085
  626MOL0     C84398   1.102   9.845   6.343  1.5190  0.4728 -0.2777
  626MOL0     O84399   1.018   9.886   6.456 -0.0009 -0.1552 -0.0475
  626MOL0     C84400   0.886   9.864   6.442 -0.9110  0.4049  0.5952
  626MOL0     C84401   0.795   9.937   6.524 -0.0817  0.2405 -0.0019
  626MOL0     C84402   0.657   9.915   6.523 -1.0737 -0.1438  0.0508
  626MOL0     C84403   0.579  10.021   6.601  0.8231  0.0529  0.0347
  626MOL0     C84404   0.607   9.822   6.427  0.2727  0.6436 -0.6653
  626MOL0     C84405   0.462   9.797   6.416 -0.1213 -0.1637  0.3035
  626MOL0     O84406   0.378   9.846   6.517  0.5748 -0.6906  0.3740
  626MOL0     C84407   0.242   9.849   6.499  0.3836  0.1315 -0.6366
  626MOL0     C84408   0.173   9.859   6.376 -0.6829  0.6760  0.6969
  626MOL0     C84409   0.032   9.858   6.371  0.6744  0.5703  0.2765
  626MOL0     C84410  -0.046   9.869   6.483 -0.1003 -0.2715 -0.1555
  626MOL0     O84411  -0.182   9.873   6.485  0.1428  0.3934  0.1461
  626MOL0     C84412  -0.263   9.863   6.363  0.5249 -0.2593 -0.1132
  626MOL0     C84413  -0.412   9.866   6.403 -0.0528  0.3250 -0.7851
  626MOL0     C84414  -0.516   9.846   6.290 -1.0223  0.2378  1.4247
  626MOL0     C84415  -0.651   9.856   6.358 -0.2756 -0.4192 -0.1596
  626MOL0     C84416  -0.763   9.805   6.269 -0.5602  0.7632  0.0808
  626MOL0     C84417  -0.898   9.804   6.333  0.0257 -0.2415  0.6385
  626MOL0     C84418  -0.990   9.694   6.276 -0.4247  0.1924 -1.1554
  626MOL0     C84419  -1.138   9.740   6.261 -0.0323  0.2478 -1.1186
  626MOL0    Cl84420  -1.173   9.865   6.135  0.5121  0.0352  0.1404
  626MOL0     C84421   0.023   9.880   6.608  0.9641 -1.2188  0.3389
  626MOL0     C84422   0.165   9.868   6.611 -1.2424 -0.6250  0.4677
  626MOL0     O84423   0.420   9.743   6.320  0.2397  0.1613  1.0418
  626MOL0     C84424   0.699   9.753   6.349  0.7261  0.8969 -0.8184
  626MOL0     C84425   0.836   9.764   6.357  0.4574 -0.5950 -0.7719
  626MOL0     N84426   1.686   9.842   6.525 -0.7493 -0.2366  0.1731
  626MOL0     N84427   1.791   9.808   6.466  0.1220 -0.7922  0.6583
  626MOL0     C84428   2.572   9.904   5.343  0.7131 -0.5076  0.2580
  626MOL0     C84429   2.708   9.886   5.331 -0.2380  0.3188  1.0697
  626MOL0     C84430   3.143   9.804   5.501  0.3305 -0.1806  0.6286
  626MOL0     C84431   3.202   9.805   5.373 -0.3763  0.8462  0.5744
  626MOL0     C84432   3.345   9.790   5.356 -0.3806  1.0165 -0.4725
  626MOL0     C84433   3.428   9.763   5.461 -0.0967  0.1083 -0.4862
  626MOL0     O84434   3.561   9.739   5.437  0.4838 -0.0547  0.0579
  626MOL0     C84435   3.655   9.737   5.536 -0.6800 -0.0003 -0.6356
  626MOL0     C84436   3.793   9.705   5.473 -0.6303  0.2257 -0.4066
  626MOL0     C84437   3.900   9.742   5.569 -1.2699 -1.0979  0.2096
  626MOL0     C84438   3.959   9.881   5.535 -0.3414 -0.3159 -0.8187
  626MOL0     C84439   3.864   9.991   5.546 -0.0898  0.2798 -0.7452
  626MOL0     C84440   3.779  10.076   5.533  0.2935 -0.1392  0.3246
  626MOL0     C84441   3.377   9.748   5.587 -0.2882 -1.0075  0.5978
  626MOL0     C84442   3.239   9.784   5.603  0.4921  0.0764 -0.9478
  626MOL0     H84443   2.773   9.750   5.634  0.1589  3.0676  1.2785
  626MOL0     H84444   2.516   9.762   5.641 -1.1759  0.4029 -0.3448
  626MOL0     H84445   2.316   9.768   5.656 -1.3541  0.4138  1.5144
  626MOL0     H84446   2.372   9.933   5.669 -2.9444  0.7937  1.2271
  626MOL0     H84447   2.138   9.990   5.557  0.7596  0.2507 -0.0731
  626MOL0     H84448   2.108   9.831   5.531  0.4808  1.3512 -0.8508
  626MOL0     H84449   1.991   9.921   5.731 -0.5620  0.7756 -1.0263
  626MOL0     H84450   2.077   9.772   5.763 -0.2442  0.2325  1.1963
  626MOL0     H84451   2.250   9.900   5.883 -0.2776  0.2297 -0.2063
  626MOL0     H84452   2.195  10.051   5.823 -0.3068  1.3417  1.0434
  626MOL0     H84453   2.114  10.047   6.047  1.7009 -0.2286 -0.0198
  626MOL0     H84454   1.980  10.025   5.948  0.4158  0.1427 -0.1264
  626MOL0     H84455   1.974   9.775   5.989 -0.7427  1.4290 -0.9680
  626MOL0     H84456   2.105   9.800   6.110  4.3163  3.7304 -0.7302
  626MOL0     H84457   1.946   9.950   6.229  1.2745 -0.0315  0.8424
  626MOL0     H84458   1.834   9.941   6.096 -1.3299 -4.4328 -2.9266
  626MOL0     H84459   1.913   9.696   6.255 -0.9758 -1.3284  0.1677
  626MOL0     H84460   1.781   9.720   6.133 -0.2812  0.0885 -0.5323
  626MOL0     H84461   1.579   9.888   6.228 -2.6295 -2.6426  1.1664
  626MOL0     H84462   1.452   9.951   6.595 -0.4390 -5.2004  0.3868
  626MOL0     H84463   1.430  10.034   6.446 -3.9042  0.4457  3.4469
  626MOL0     H84464   1.282   9.818   6.546  1.2279  0.8406  1.6758
  626MOL0     H84465   1.379   9.755   6.423  2.6649 -0.4510  2.1533
  626MOL0     H84466   1.270   9.899   6.243 -2.6569 -1.4251 -1.5557
  626MOL0     H84467   1.220  10.018   6.357 -0.5688 -0.4371  1.7474
  626MOL0     H84468   1.119   9.737   6.352 -1.3989  0.0702  2.8550
  626MOL0     H84469   1.048   9.879   6.254 -3.0548 -1.4050  1.4595
  626MOL0     H84470   0.848  10.020   6.568 -0.4789 -0.0509  1.0460
  626MOL0     H84471   0.552   9.982   6.700  0.7680 -0.5930 -0.2314
  626MOL0     H84472   0.644  10.108   6.612  1.1684 -0.1434 -0.4355
  626MOL0     H84473   0.479  10.037   6.559 -1.7439 -5.8143  2.7202
  626MOL0     H84474   0.226   9.855   6.281 -1.1886 -0.3434  0.4519
  626MOL0     H84475  -0.018   9.852   6.274 -0.0009  1.1237  0.5781
  626MOL0     H84476  -0.242   9.952   6.303  1.0798 -1.2730 -1.4771
  626MOL0     H84477  -0.230   9.777   6.304 -1.2896 -2.3717  1.7714
  626MOL0     H84478  -0.423   9.790   6.481 -1.6372  0.9439 -0.3698
  626MOL0     H84479  -0.419   9.968   6.441 -0.0216  0.8204 -2.0461
  626MOL0     H84480  -0.494   9.751   6.241  1.9744  2.1428 -1.3293
  626MOL0     H84481  -0.495   9.906   6.201  0.6370 -3.4232 -0.8547
  626MOL0     H84482  -0.651   9.791   6.446 -2.0569  1.2913  1.2033
  626MOL0     H84483  -0.674   9.959   6.389 -2.2700 -0.9811  0.3609
  626MOL0     H84484  -0.747   9.704   6.229 -2.4146  0.6192 -0.4298
  626MOL0     H84485  -0.772   9.867   6.180 -0.6515 -0.8087 -1.0595
  626MOL0     H84486  -0.895   9.790   6.441  0.5462  1.1902  0.8243
  626MOL0     H84487  -0.951   9.898   6.320 -2.3567 -1.5454  0.3473
  626MOL0     H84488  -0.982   9.605   6.338 -0.7523  0.1694 -1.1401
  626MOL0     H84489  -0.951   9.669   6.177  1.9187 -0.7886 -0.0452
  626MOL0     H84490  -1.174   9.768   6.360 -0.8796 -3.3331 -0.2999
  626MOL0     H84491  -1.192   9.649   6.234  1.9314 -2.1137  2.2784
  626MOL0     H84492  -0.047   9.904   6.688 -2.0264 -0.3704 -2.3479
  626MOL0     H84493   0.230   9.872   6.698  0.8433 -1.4557 -0.9859
  626MOL0     H84494   0.671   9.692   6.263 -0.1528  0.8752 -0.5329
  626MOL0     H84495   0.903   9.700   6.300  2.0027 -2.2293  2.6200
  626MOL0     H84496   2.505   9.937   5.264 -0.6534  0.5676  1.7956
  626MOL0     H84497   2.765   9.907   5.241  2.3477 -1.5950  2.1388
  626MOL0     H84498   3.141   9.825   5.286  1.2261 -1.1667 -1.1077
  626MOL0     H84499   3.399   9.785   5.261  1.6301 -1.2033  0.6659
  626MOL0     H84500   3.666   9.830   5.592 -1.7337  1.6175 -2.9398
  626MOL0     H84501   3.631   9.657   5.607 -2.1285  2.3144  1.6824
  626MOL0     H84502   3.805   9.757   5.378 -1.1106 -0.7933 -1.0400
  626MOL0     H84503   3.800   9.596   5.464 -0.5486  0.1878  0.0578
  626MOL0     H84504   3.981   9.670   5.561  0.0956 -0.1350  3.6692
  626MOL0     H84505   3.862   9.729   5.670 -0.7802 -2.4568  0.2404
  626MOL0     H84506   4.002   9.880   5.434  0.0652  1.2481 -0.6758
  626MOL0     H84507   4.041   9.910   5.601  0.7965  1.0032 -2.7041
  626MOL0     H84508   3.695  10.138   5.512  0.6620 -0.0733 -1.0250
  626MOL0     H84509   3.440   9.735   5.675  0.3423 -0.4864  0.2285
  626MOL0     H84510   3.220   9.795   5.709  1.8756  2.1283 -0.8515
  627MOL0     O84511   5.844   7.680   2.821  0.5658  0.0082 -0.4276
  627MOL0     C84512   5.841   7.716   2.707 -0.2780 -0.1516 -0.4273
  627MOL0     O84513   5.953   7.781   2.646 -0.1151  0.0986 -0.3473
  627MOL0     C84514   6.062   7.819   2.721 -0.4775  0.1710 -1.1313
  627MOL0     C84515   6.062   7.898   2.832 -0.2411 -0.2613 -0.4020
  627MOL0     C84516   6.181   7.926   2.885  0.2150 -0.1142 -0.3214
  627MOL0     C84517   6.305   7.896   2.830  0.7249 -1.0724  0.0528
  627MOL0     O84518   6.416   7.945   2.896  0.1923  0.8324 -0.6559
  627MOL0     C84519   6.542   7.899   2.851 -0.5487  0.0293 -0.6727
  627MOL0     C84520   6.649   8.010   2.880 -0.6363  0.2097 -0.3471
  627MOL0     C84521   6.794   7.970   2.914 -0.0261  0.8881  0.4410
  627MOL0     C84522   6.861   8.103   2.959 -0.2228  0.5113 -0.8252
  627MOL0     C84523   7.008   8.071   2.989  0.0398  0.2894  0.7310
  627MOL0     C84524   7.080   8.069   2.848  0.5210 -0.0291 -0.3253
  627MOL0     C84525   7.231   8.086   2.858  0.3470 -0.2717 -0.0818
  627MOL0     C84526   7.250   8.229   2.926 -0.0222  0.5343  0.6743
  627MOL0     N84527   7.387   8.277   2.911  0.2118 -0.5436  0.2701
  627MOL0     C84528   7.501   8.203   2.933  0.5598 -1.6530 -0.1242
  627MOL0     C84529   7.601   8.292   2.900 -0.0763  0.4813 -0.4564
  627MOL0     C84530   7.748   8.264   2.907 -0.4032 -0.1617  0.2491
  627MOL0     C84531   7.799   8.146   2.814 -0.1031 -0.8238  0.9250
  627MOL0     C84532   7.742   8.135   2.670  0.0273 -0.8847 -0.2091
  627MOL0     C84533   7.766   8.266   2.597 -0.6153  0.3067  0.8426
  627MOL0     O84534   7.718   8.259   2.464  0.2066 -0.7067 -0.1394
  627MOL0     C84535   7.587   8.288   2.438 -0.3429 -0.2267 -0.0973
  627MOL0     C84536   7.565   8.298   2.302  0.4116 -0.9296  0.4560
  627MOL0     C84537   7.429   8.336   2.263 -0.3503 -1.0646  0.1668
  627MOL0     C84538   7.414   8.358   2.114  1.4490 -0.2380  0.2748
  627MOL0     C84539   7.326   8.364   2.354 -0.1394  0.2207  0.7755
  627MOL0     C84540   7.188   8.402   2.325 -0.9937 -0.4035  1.0566
  627MOL0     O84541   7.099   8.403   2.428 -0.3827  0.7968 -0.0541
  627MOL0     C84542   6.969   8.436   2.407  0.7822  0.0233  0.2150
  627MOL0     C84543   6.892   8.405   2.290 -0.1537  0.4633 -0.8906
  627MOL0     C84544   6.764   8.436   2.278  0.0627 -0.5179  0.2547
  627MOL0     C84545   6.700   8.514   2.371  0.2263  0.3057 -0.3495
  627MOL0     O84546   6.567   8.551   2.351  0.2496 -0.0262 -0.1185
  627MOL0     C84547   6.489   8.567   2.468  0.8637  0.0672  0.2974
  627MOL0     C84548   6.340   8.571   2.430  0.5353  0.3604 -0.0600
  627MOL0     C84549   6.311   8.662   2.311 -1.0797 -0.1157 -0.0716
  627MOL0     C84550   6.171   8.653   2.277 -0.0047 -0.4307 -0.5715
  627MOL0     C84551   6.121   8.759   2.175 -0.4714  0.1013  0.7467
  627MOL0     C84552   5.969   8.758   2.184  0.1208 -0.6095  0.0716
  627MOL0     C84553   5.909   8.812   2.059  0.1811  0.3969  0.0150
  627MOL0     C84554   5.761   8.823   2.074 -0.3079 -0.5740 -0.0360
  627MOL0    Cl84555   5.689   8.883   1.923 -0.1350  0.0786 -0.3203
  627MOL0     C84556   6.775   8.555   2.485  0.3486 -0.4658 -0.5477
  627MOL0     C84557   6.903   8.509   2.509  0.7848  0.3524  0.8249
  627MOL0     O84558   7.166   8.457   2.222  0.0542 -0.0620  0.2736
  627MOL0     C84559   7.362   8.363   2.485  0.3914 -0.3494 -0.9474
  627MOL0     C84560   7.492   8.329   2.529 -0.3923  0.8600  0.5335
  627MOL0     N84561   7.542   8.414   2.861 -0.3211 -0.3899 -0.4263
  627MOL0     N84562   7.415   8.402   2.864  0.3230  0.1530 -1.0191
  627MOL0     C84563   6.303   7.832   2.714  0.1276  0.4339  0.1838
  627MOL0     C84564   6.181   7.791   2.657 -0.3669 -0.3118 -0.1776
  627MOL0     C84565   5.702   7.722   2.650  0.3630 -0.4756 -0.3482
  627MOL0     C84566   5.690   7.797   2.527 -0.3746 -0.8877 -0.3887
  627MOL0     C84567   5.570   7.791   2.454  0.4851  0.2184  0.2204
  627MOL0     C84568   5.465   7.719   2.507 -0.5505 -0.3419 -0.4750
  627MOL0     O84569   5.341   7.704   2.438  0.3438  0.0025  0.4030
  627MOL0     C84570   5.300   7.765   2.311 -0.3236  0.6322 -0.4214
  627MOL0     C84571   5.271   7.911   2.328 -0.6305  0.5360  0.9089
  627MOL0     C84572   5.163   7.923   2.428 -0.8692  0.1337  0.4257
  627MOL0     C84573   5.119   8.070   2.427 -0.3318  0.1339 -0.3462
  627MOL0     C84574   5.007   8.093   2.335 -0.3479 -0.4685  0.7850
  627MOL0     C84575   4.923   8.101   2.248  0.0452  0.0674 -0.1593
  627MOL0     C84576   5.482   7.642   2.626 -0.2625  0.3468  1.0326
  627MOL0     C84577   5.598   7.642   2.700 -0.3843  0.1198 -0.1327
  627MOL0     H84578   5.970   7.932   2.880  0.3445  1.9646 -0.7875
  627MOL0     H84579   6.190   8.003   2.961  0.9748 -0.3918 -0.1140
  627MOL0     H84580   6.586   7.810   2.897  0.7509  0.5414 -0.8829
  627MOL0     H84581   6.545   7.890   2.742 -2.4641  1.4539 -0.8960
  627MOL0     H84582   6.652   8.086   2.801  3.0983  2.8289  2.0004
  627MOL0     H84583   6.618   8.069   2.967  0.6231  2.2923 -1.2226
  627MOL0     H84584   6.791   7.896   2.995 -0.6933  1.6818  1.1509
  627MOL0     H84585   6.836   7.941   2.817 -1.5193  4.2918 -1.3859
  627MOL0     H84586   6.844   8.182   2.885 -1.2425  2.7626  1.6402
  627MOL0     H84587   6.823   8.143   3.054  0.6306 -1.7674  0.5768
  627MOL0     H84588   7.037   8.149   3.060 -0.1942 -0.2513  1.4391
  627MOL0     H84589   7.022   7.977   3.044 -1.1074  0.5454  1.4939
  627MOL0     H84590   7.066   7.972   2.801  1.5638 -0.0631 -0.6027
  627MOL0     H84591   7.048   8.145   2.776  3.3413 -2.8192 -5.0234
  627MOL0     H84592   7.273   8.004   2.916  0.0058 -0.7495 -0.4943
  627MOL0     H84593   7.284   8.084   2.762 -0.2565 -0.2732 -0.4233
  627MOL0     H84594   7.217   8.230   3.030 -0.6434  1.8539  0.4857
  627MOL0     H84595   7.179   8.300   2.883  0.2463  1.8432  2.3047
  627MOL0     H84596   7.525   8.102   2.966  2.3952 -0.6573  1.8560
  627MOL0     H84597   7.805   8.353   2.879 -1.1790 -0.0070 -0.8939
  627MOL0     H84598   7.770   8.246   3.013  2.3580  1.5073  0.0613
  627MOL0     H84599   7.768   8.056   2.868 -0.0040 -0.1535  2.1495
  627MOL0     H84600   7.909   8.144   2.813 -0.0539  0.5935 -0.9392
  627MOL0     H84601   7.635   8.116   2.683 -0.0063 -0.3985  0.2974
  627MOL0     H84602   7.784   8.062   2.601 -1.1681 -0.1008 -1.8433
  627MOL0     H84603   7.873   8.285   2.603  0.0373 -2.4796 -0.4167
  627MOL0     H84604   7.725   8.357   2.643  2.9662  2.2124  0.6240
  627MOL0     H84605   7.643   8.279   2.230  1.7213 -0.2272  1.6435
  627MOL0     H84606   7.435   8.464   2.099 -2.0196  0.5328  0.0334
  627MOL0     H84607   7.489   8.304   2.056 -0.1389 -0.1577 -1.9583
  627MOL0     H84608   7.315   8.339   2.073  0.5109  2.5579  1.0135
  627MOL0     H84609   6.940   8.363   2.201  1.9049  1.0219 -0.1148
  627MOL0     H84610   6.704   8.409   2.192  0.3811 -0.0596 -0.1171
  627MOL0     H84611   6.501   8.479   2.532 -1.0899  0.5546  1.3964
  627MOL0     H84612   6.520   8.663   2.511  2.7787 -0.2179 -0.3475
  627MOL0     H84613   6.320   8.467   2.401  0.6654  0.0066  1.0580
  627MOL0     H84614   6.279   8.601   2.515 -2.2614 -2.8843 -0.6854
  627MOL0     H84615   6.374   8.619   2.232  0.6344 -0.0894  1.2226
  627MOL0     H84616   6.348   8.763   2.330  2.0709 -0.7622 -2.0131
  627MOL0     H84617   6.157   8.553   2.234 -0.2435 -0.8462  0.4340
  627MOL0     H84618   6.115   8.658   2.371  0.6188  0.8889 -0.2554
  627MOL0     H84619   6.150   8.746   2.070 -2.7281  0.5416  0.0104
  627MOL0     H84620   6.162   8.855   2.205  0.4056 -0.2717  0.7756
  627MOL0     H84621   5.929   8.657   2.202 -1.3823 -0.0024  0.3117
  627MOL0     H84622   5.930   8.817   2.268 -0.8149  1.5082 -1.7396
  627MOL0     H84623   5.928   8.744   1.975  0.7239  4.6173 -3.6869
  627MOL0     H84624   5.964   8.905   2.041 -0.0916  0.5304 -0.1203
  627MOL0     H84625   5.741   8.899   2.150  1.8787 -1.1960  1.2613
  627MOL0     H84626   5.722   8.727   2.111 -0.0583 -0.9913 -0.8263
  627MOL0     H84627   6.732   8.617   2.563  0.4685  0.6552 -1.3480
  627MOL0     H84628   6.949   8.550   2.598  0.3421  1.7402  0.4287
  627MOL0     H84629   7.294   8.392   2.565  1.1744 -1.4348  0.1397
  627MOL0     H84630   7.521   8.339   2.633 -1.0233 -2.3261  1.1308
  627MOL0     H84631   6.391   7.785   2.671 -0.0804 -0.2762  0.5287
  627MOL0     H84632   6.188   7.740   2.562  2.5839 -0.3161 -0.0451
  627MOL0     H84633   5.771   7.858   2.488 -0.3642  0.8203  2.0380
  627MOL0     H84634   5.562   7.828   2.352 -1.1633  1.2148  0.6732
  627MOL0     H84635   5.381   7.748   2.239  2.4812 -1.6378  2.8986
  627MOL0     H84636   5.211   7.714   2.273 -0.6438 -0.7861  1.9987
  627MOL0     H84637   5.238   7.959   2.236 -0.4315 -0.8698  0.0797
  627MOL0     H84638   5.362   7.961   2.364 -0.9777  1.0871  1.0264
  627MOL0     H84639   5.197   7.889   2.526  1.3151  0.0604 -0.2974
  627MOL0     H84640   5.082   7.854   2.402  1.0041 -2.0511  0.0326
  627MOL0     H84641   5.210   8.121   2.394  1.3301 -0.8865  2.3758
  627MOL0     H84642   5.087   8.100   2.527 -0.5513 -0.8458 -0.1108
  627MOL0     H84643   4.845   8.110   2.175  0.9500 -1.5835 -1.3948
  627MOL0     H84644   5.404   7.575   2.662  1.1501 -0.3060  2.9988
  627MOL0     H84645   5.613   7.594   2.796  0.8665  0.6627 -0.0472
  628MOL0     O84646   3.632   2.270  10.286 -0.7159 -0.5306 -0.2324
  628MOL0     C84647   3.748   2.303  10.309  0.0780  0.1861  0.6840
  628MOL0     O84648   3.791   2.383  10.410 -1.0891 -0.2164  0.4231
  628MOL0     C84649   3.706   2.466  10.480  0.8044  0.6679 -0.3963
  628MOL0     C84650   3.569   2.497  10.454  0.3753 -0.1236 -0.0820
  628MOL0     C84651   3.501   2.596  10.523 -0.0945 -0.5094  0.2317
  628MOL0     C84652   3.554   2.650  10.638 -0.3533 -0.2495 -0.9383
  628MOL0     O84653   3.475   2.755  10.691  0.6048 -0.1416 -0.0731
  628MOL0     C84654   3.535   2.816  10.811  0.3950 -0.1515  0.5835
  628MOL0     C84655   3.441   2.912  10.887 -0.5568  0.5549  0.0504
  628MOL0     C84656   3.320   2.838  10.934  0.0150  0.2058 -0.3040
  628MOL0     C84657   3.246   2.942  11.024  0.5818  0.3962 -0.8069
  628MOL0     C84658   3.104   2.894  11.081  1.4305 -0.6258 -0.2449
  628MOL0     C84659   2.997   2.897  10.963  0.0106 -0.5660 -0.2256
  628MOL0     C84660   2.857   2.838  11.016 -0.1061 -0.3090  0.5725
  628MOL0     C84661   2.750   2.820  10.906 -0.4866 -0.4750  0.4229
  628MOL0     N84662   2.720   2.951  10.853  0.0680  0.2287 -0.0196
  628MOL0     C84663   2.671   3.059  10.921 -0.3305  0.8651  0.7562
  628MOL0     C84664   2.642   3.161  10.832 -0.3331 -0.3088 -0.6412
  628MOL0     C84665   2.567   3.297  10.864 -0.8765  0.1461  0.3645
  628MOL0     C84666   2.587   3.413  10.766  0.2416 -0.9156  0.8950
  628MOL0     C84667   2.475   3.516  10.776  0.0425 -0.0071  0.3816
  628MOL0     C84668   2.345   3.477  10.696  0.1357 -0.1256  0.4726
  628MOL0     O84669   2.266   3.587  10.644 -0.2251  0.5846  0.5168
  628MOL0     C84670   2.164   3.634  10.716  1.3898 -0.4592 -0.6392
  628MOL0     C84671   2.157   3.623  10.858 -0.6654  0.6226 -0.0258
  628MOL0     C84672   2.052   3.684  10.922  0.2670 -0.2290 -0.4975
  628MOL0     C84673   2.061   3.682  11.077 -0.2066 -0.1712  1.1465
  628MOL0     C84674   1.947   3.746  10.858 -0.2855  0.2714  0.2559
  628MOL0     C84675   1.828   3.798  10.926  0.4523 -0.1066 -0.1403
  628MOL0     O84676   1.827   3.836  11.061 -0.0021  0.2482 -0.0755
  628MOL0     C84677   1.712   3.890  11.111 -0.1253  0.3425 -0.0769
  628MOL0     C84678   1.650   3.810  11.200  0.5029  1.0803  0.0362
  628MOL0     C84679   1.519   3.829  11.251  0.6710  0.4602  0.3439
  628MOL0     C84680   1.440   3.935  11.194  0.0431  0.8467  0.4764
  628MOL0     O84681   1.311   3.968  11.235 -1.4816 -0.0486 -0.2266
  628MOL0     C84682   1.247   3.870  11.311  1.1877  1.2288 -0.4738
  628MOL0     C84683   1.091   3.898  11.338  0.3790  0.3288  0.1760
  628MOL0     C84684   1.053   4.035  11.401 -0.0228  0.5358 -0.1076
  628MOL0     C84685   0.902   4.033  11.409 -0.2886  0.0958 -0.2477
  628MOL0     C84686   0.833   4.150  11.478 -0.2341 -0.2035  0.0720
  628MOL0     C84687   0.687   4.161  11.440 -0.9048  0.9586 -0.1817
  628MOL0     C84688   0.637   4.299  11.492  0.3567 -0.1278 -0.8138
  628MOL0     C84689   0.494   4.318  11.446  0.7159 -0.1077 -0.0717
  628MOL0    Cl84690   0.381   4.198  11.524 -0.0634  0.2273 -0.1375
  628MOL0     C84691   1.504   4.017  11.094 -0.4324  0.6326 -0.5313
  628MOL0     C84692   1.638   3.992  11.057 -0.1587 -0.7759 -0.2858
  628MOL0     O84693   1.727   3.804  10.851  0.4336 -0.2203 -0.5130
  628MOL0     C84694   1.950   3.742  10.715 -0.5438  0.3142  0.3793
  628MOL0     C84695   2.060   3.694  10.645 -0.5690  0.0880 -0.5003
  628MOL0     N84696   2.689   3.116  10.706  0.0479  1.1165 -0.1098
  628MOL0     N84697   2.740   2.986  10.717 -0.1626 -0.7066 -0.2893
  628MOL0     C84698   3.687   2.624  10.667  0.0540  0.0672 -0.5678
  628MOL0     C84699   3.765   2.528  10.592  1.1426 -0.4077  0.2363
  628MOL0     C84700   3.847   2.235  10.212  0.2363  0.0642  0.0544
  628MOL0     C84701   3.801   2.146  10.111  0.6126  0.0477 -0.5758
  628MOL0     C84702   3.887   2.078  10.029  0.4918 -0.3924  0.1015
  628MOL0     C84703   4.015   2.093  10.042 -0.4046  0.0504 -1.0433
  628MOL0     O84704   4.104   2.016   9.978 -0.7366 -0.2470 -0.4400
  628MOL0     C84705   4.072   1.955   9.854 -0.3994 -0.5219  0.4537
  628MOL0     C84706   4.196   1.895   9.785 -0.8216 -0.7435 -0.3030
  628MOL0     C84707   4.267   1.771   9.852 -0.3935 -0.2723 -0.7280
  628MOL0     C84708   4.354   1.812   9.979  0.6122  0.7164 -0.1828
  628MOL0     C84709   4.409   1.691  10.035  0.0843 -0.1083 -0.2169
  628MOL0     C84710   4.474   1.589  10.059 -0.9726 -0.0200 -0.1741
  628MOL0     C84711   4.069   2.182  10.134 -0.2500 -0.6416 -0.1071
  628MOL0     C84712   3.987   2.247  10.226  0.1047  0.0747  0.7303
  628MOL0     H84713   3.521   2.466  10.362  2.0394 -1.0230 -0.7041
  628MOL0     H84714   3.402   2.629  10.495 -0.2658 -1.9552 -1.0283
  628MOL0     H84715   3.551   2.727  10.872 -2.3276 -0.0828  1.5449
  628MOL0     H84716   3.621   2.872  10.773 -1.0117  1.4091 -0.4214
  628MOL0     H84717   3.496   2.960  10.968  0.6821 -2.9058  1.4033
  628MOL0     H84718   3.414   2.992  10.817  2.0346 -0.5331 -2.3799
  628MOL0     H84719   3.259   2.804  10.850 -1.0285  2.6999 -0.6305
  628MOL0     H84720   3.356   2.753  10.992 -1.7341  0.3261  1.0319
  628MOL0     H84721   3.311   2.992  11.097 -1.1632  1.5726 -0.0047
  628MOL0     H84722   3.226   3.028  10.960  0.0352  1.1961  0.4147
  628MOL0     H84723   3.112   2.798  11.133 -0.1306 -0.2288  0.7783
  628MOL0     H84724   3.065   2.969  11.150  0.6772 -1.1582 -0.0786
  628MOL0     H84725   2.981   2.989  10.907 -2.7382  0.1771  1.5611
  628MOL0     H84726   3.035   2.831  10.885 -0.2355  1.8710 -2.5207
  628MOL0     H84727   2.876   2.740  11.060 -2.0270 -2.0812 -2.1839
  628MOL0     H84728   2.816   2.895  11.100 -2.3983 -0.9729 -0.0429
  628MOL0     H84729   2.658   2.770  10.938 -0.0710 -2.1923 -0.8731
  628MOL0     H84730   2.787   2.765  10.819 -1.5087  1.1894 -1.1440
  628MOL0     H84731   2.661   3.063  11.029  0.1526  3.5872  0.7649
  628MOL0     H84732   2.461   3.277  10.881 -0.3975 -3.1386  0.1598
  628MOL0     H84733   2.597   3.335  10.962  1.5309 -1.6157  0.4204
  628MOL0     H84734   2.597   3.388  10.660  1.7379  2.2739  0.1795
  628MOL0     H84735   2.681   3.465  10.783 -0.4151  1.9113 -2.7773
  628MOL0     H84736   2.517   3.599  10.719 -0.2503 -0.1159  0.0089
  628MOL0     H84737   2.451   3.553  10.876 -0.9584  1.3049 -0.3215
  628MOL0     H84738   2.287   3.405  10.754  0.7205  0.0328  1.2550
  628MOL0     H84739   2.377   3.425  10.605 -0.3357 -0.0285  0.2502
  628MOL0     H84740   2.234   3.569  10.912 -2.6296 -1.7097  0.5773
  628MOL0     H84741   1.961   3.664  11.117 -0.5066 -0.5534  0.2473
  628MOL0     H84742   2.136   3.614  11.117 -1.0829 -1.7985  0.1252
  628MOL0     H84743   2.094   3.783  11.102  1.9983 -0.2085 -1.2193
  628MOL0     H84744   1.714   3.730  11.235 -0.2969  0.1587 -0.5604
  628MOL0     H84745   1.487   3.764  11.332  2.5107  1.1362  1.6989
  628MOL0     H84746   1.254   3.771  11.266 -0.7526 -0.2839  2.2083
  628MOL0     H84747   1.307   3.865  11.402  5.3533 -0.8661 -3.0295
  628MOL0     H84748   1.026   3.884  11.251 -1.1898  2.6033  0.8806
  628MOL0     H84749   1.062   3.819  11.407 -1.7638 -1.8319 -2.9102
  628MOL0     H84750   1.086   4.117  11.338  0.6414  3.1645  3.3701
  628MOL0     H84751   1.105   4.057  11.495  0.4039 -2.0886  0.3509
  628MOL0     H84752   0.882   4.040  11.302  0.6441  1.7370 -0.3576
  628MOL0     H84753   0.862   3.942  11.455  0.4613  0.7074  1.7400
  628MOL0     H84754   0.892   4.240  11.457  1.0305 -0.3263  2.6925
  628MOL0     H84755   0.839   4.141  11.587 -1.3780 -1.9767  0.0230
  628MOL0     H84756   0.671   4.149  11.332 -0.8451 -0.6585 -0.0354
  628MOL0     H84757   0.637   4.077  11.489  0.2386  0.4593  0.1520
  628MOL0     H84758   0.699   4.378  11.449  1.5601 -0.3051  0.5280
  628MOL0     H84759   0.647   4.315  11.600  1.7752 -1.0615 -0.7806
  628MOL0     H84760   0.484   4.312  11.337 -2.7774 -0.8164  0.1810
  628MOL0     H84761   0.454   4.417  11.468 -0.3362 -0.6243  0.4482
  628MOL0     H84762   1.440   4.095  11.053  1.4309  2.2910 -0.4470
  628MOL0     H84763   1.675   4.053  10.976 -0.2498  0.5579  0.6519
  628MOL0     H84764   1.870   3.784  10.655  0.0679  0.0246 -0.6501
  628MOL0     H84765   2.073   3.691  10.537 -1.3131 -1.9378 -0.5811
  628MOL0     H84766   3.740   2.682  10.742  0.7266 -0.9758 -0.2155
  628MOL0     H84767   3.869   2.504  10.611  1.3664 -1.4349 -1.9764
  628MOL0     H84768   3.695   2.138  10.089  0.5009 -0.3940  0.0969
  628MOL0     H84769   3.847   2.012   9.952 -3.3181  0.5587  1.0237
  628MOL0     H84770   4.008   1.867   9.866 -0.4832 -1.2853 -4.0056
  628MOL0     H84771   4.028   2.030   9.787  0.9713 -0.6564 -0.6411
  628MOL0     H84772   4.280   1.962   9.765 -1.5527  0.5148  0.7031
  628MOL0     H84773   4.159   1.865   9.687  0.8093 -1.4325 -0.7483
  628MOL0     H84774   4.331   1.717   9.782  0.7652  0.8156 -0.5566
  628MOL0     H84775   4.194   1.699   9.888 -0.4308  0.5579  0.9613
  628MOL0     H84776   4.300   1.866  10.057 -0.7236  0.0225 -0.6017
  628MOL0     H84777   4.429   1.883   9.944 -1.0878  2.9049  0.3896
  628MOL0     H84778   4.542   1.507  10.068 -1.1430 -0.5572 -2.8743
  628MOL0     H84779   4.176   2.205  10.132 -0.4068  0.0780 -0.4527
  628MOL0     H84780   4.033   2.309  10.303 -0.8145  1.0246  0.5367
  629MOL0     O84781   9.254   8.732   6.525  0.2324  0.1209 -0.6723
  629MOL0     C84782   9.276   8.842   6.484  0.2751 -0.4163  0.8872
  629MOL0     O84783   9.181   8.944   6.479  0.4673  0.0013  0.4261
  629MOL0     C84784   9.047   8.926   6.518 -0.0305 -0.0626 -0.7979
  629MOL0     C84785   8.981   9.046   6.548  0.0837 -0.0717  0.3203
  629MOL0     C84786   8.850   9.050   6.590  0.0259 -0.8293 -0.2328
  629MOL0     C84787   8.777   8.921   6.601  0.2862 -0.5369  0.4994
  629MOL0     O84788   8.649   8.941   6.631  0.1538  0.4869 -0.0734
  629MOL0     C84789   8.546   8.852   6.634  0.1315 -0.4812  0.8131
  629MOL0     C84790   8.417   8.922   6.694 -0.0501  0.2566 -0.6819
  629MOL0     C84791   8.289   8.834   6.697 -0.5151  0.3151  0.3537
  629MOL0     C84792   8.319   8.719   6.798  0.8745 -0.2855  0.1417
  629MOL0     C84793   8.187   8.650   6.827 -0.1928  0.0432 -0.2982
  629MOL0     C84794   8.210   8.518   6.907  0.4368  0.0135  0.8555
  629MOL0     C84795   8.080   8.438   6.962 -0.4697  0.7112  0.2786
  629MOL0     C84796   8.004   8.364   6.847 -0.0473 -0.5327 -0.5777
  629MOL0     N84797   7.870   8.333   6.890 -0.1181 -0.2006 -0.3644
  629MOL0     C84798   7.758   8.418   6.880  0.1059  0.1824  0.4790
  629MOL0     C84799   7.654   8.362   6.934 -0.3866  0.4656  0.3408
  629MOL0     C84800   7.508   8.408   6.943 -0.2019  0.7118 -0.4816
  629MOL0     C84801   7.466   8.479   6.812 -0.2320 -1.3745 -0.4339
  629MOL0     C84802   7.460   8.397   6.682  0.7731 -0.1294  1.5496
  629MOL0     C84803   7.530   8.464   6.561  0.2390  0.1152  0.6763
  629MOL0     O84804   7.448   8.569   6.504  0.1323 -0.0969 -0.6418
  629MOL0     C84805   7.344   8.541   6.427 -0.1258 -0.3894  0.7877
  629MOL0     C84806   7.348   8.442   6.332 -0.2177  0.4990 -0.3356
  629MOL0     C84807   7.236   8.407   6.262  0.4121  0.2017  0.1731
  629MOL0     C84808   7.257   8.289   6.163 -0.3210  0.2527 -1.1357
  629MOL0     C84809   7.116   8.482   6.283  1.2373  0.9166  0.0343
  629MOL0     C84810   6.987   8.436   6.222  0.1850  0.8601 -0.3321
  629MOL0     O84811   6.885   8.428   6.309 -0.1787 -0.2714  0.2108
  629MOL0     C84812   6.765   8.390   6.270  0.7504 -0.1813 -0.4960
  629MOL0     C84813   6.747   8.258   6.220 -0.3069  0.5792 -0.6123
  629MOL0     C84814   6.622   8.224   6.177 -0.2872  0.0536 -0.3213
  629MOL0     C84815   6.511   8.312   6.194  0.3080 -0.2550  0.5239
  629MOL0     O84816   6.383   8.282   6.157  0.3130  0.6351 -0.4572
  629MOL0     C84817   6.368   8.196   6.040 -0.8983  0.0296 -0.3023
  629MOL0     C84818   6.217   8.195   6.010  0.2932  0.2918 -1.0101
  629MOL0     C84819   6.181   8.328   5.948 -0.6596 -0.0460 -0.3341
  629MOL0     C84820   6.033   8.326   5.896  0.2076 -0.0418 -0.2083
  629MOL0     C84821   6.004   8.463   5.821  0.2924  0.7172  0.5804
  629MOL0     C84822   5.875   8.450   5.733  0.1026  0.0051  0.6075
  629MOL0     C84823   5.880   8.339   5.630  0.2316  0.2365  0.9324
  629MOL0     C84824   5.750   8.346   5.543 -0.6129 -0.6408 -0.1953
  629MOL0    Cl84825   5.624   8.234   5.596  0.5261  0.0460 -0.1953
  629MOL0     C84826   6.535   8.436   6.249 -0.0053  0.1368  0.2773
  629MOL0     C84827   6.662   8.480   6.282  0.0544 -0.2414 -0.1555
  629MOL0     O84828   6.987   8.434   6.100 -0.4822  0.6359 -0.2305
  629MOL0     C84829   7.107   8.583   6.385 -1.0119 -0.8848 -0.0012
  629MOL0     C84830   7.231   8.620   6.445  0.2917  0.6821 -0.1756
  629MOL0     N84831   7.701   8.252   6.999 -0.6571 -0.8315 -0.4720
  629MOL0     N84832   7.831   8.231   6.978 -0.0132 -0.2032  0.2194
  629MOL0     C84833   8.841   8.797   6.568 -0.2511 -0.2863 -1.0407
  629MOL0     C84834   8.978   8.803   6.532 -0.6345  0.0017  0.0999
  629MOL0     C84835   9.411   8.865   6.424  0.1387  0.3472  0.2238
  629MOL0     C84836   9.450   8.987   6.368 -0.3855  0.0701  0.2742
  629MOL0     C84837   9.577   9.004   6.329 -0.2272  0.3114  0.4254
  629MOL0     C84838   9.673   8.900   6.332 -0.2000 -0.3614  1.0288
  629MOL0     O84839   9.805   8.925   6.293  0.5061 -0.0251  0.5998
  629MOL0     C84840   9.879   8.808   6.253 -0.2943 -0.8895 -0.8032
  629MOL0     C84841   9.995   8.861   6.171  0.2750 -0.5569 -0.2915
  629MOL0     C84842  10.076   8.763   6.085 -0.1615 -0.5080  0.5555
  629MOL0     C84843  10.043   8.777   5.940 -1.2323  0.1997 -1.0542
  629MOL0     C84844   9.899   8.785   5.907 -0.5149  0.2632  0.4474
  629MOL0     C84845   9.782   8.778   5.881  0.2524 -0.1803 -0.1849
  629MOL0     C84846   9.633   8.768   6.371  0.4177  0.3158 -0.4500
  629MOL0     C84847   9.504   8.752   6.421  0.0635  0.0101  1.0065
  629MOL0     H84848   9.043   9.134   6.558 -0.7855  0.5999 -0.0913
  629MOL0     H84849   8.797   9.143   6.606  3.3080  1.0192  0.6994
  629MOL0     H84850   8.518   8.817   6.534  0.6653  1.0303  0.1160
  629MOL0     H84851   8.584   8.772   6.699 -0.5925  0.7789  2.8762
  629MOL0     H84852   8.441   8.968   6.791 -2.6311  0.4163 -0.0145
  629MOL0     H84853   8.386   8.998   6.622 -0.3634 -1.6007 -2.5718
  629MOL0     H84854   8.199   8.890   6.722 -1.6553 -1.3285  0.0396
  629MOL0     H84855   8.271   8.785   6.601  0.1025 -2.7726  1.6810
  629MOL0     H84856   8.395   8.666   6.741  1.1020  1.5354 -1.3558
  629MOL0     H84857   8.356   8.750   6.897  0.2609  0.3288  0.1889
  629MOL0     H84858   8.134   8.726   6.885  1.8873  1.0334  0.4093
  629MOL0     H84859   8.130   8.626   6.736  3.0084 -1.5225 -2.0758
  629MOL0     H84860   8.275   8.449   6.852  1.3628  1.5770 -0.0969
  629MOL0     H84861   8.266   8.544   6.998  1.2024 -1.3801  0.8253
  629MOL0     H84862   8.122   8.369   7.035  0.5175 -1.5017 -2.2207
  629MOL0     H84863   8.012   8.503   7.017 -0.2646  0.7217  0.5204
  629MOL0     H84864   8.056   8.274   6.814 -1.7863 -1.3255 -1.2589
  629MOL0     H84865   8.000   8.438   6.767 -2.0187  1.3932  1.1900
  629MOL0     H84866   7.759   8.505   6.814 -1.5048 -0.9451 -1.1047
  629MOL0     H84867   7.445   8.321   6.959 -0.2588  0.1076 -3.4664
  629MOL0     H84868   7.486   8.473   7.028 -0.0310  0.7512 -0.4669
  629MOL0     H84869   7.521   8.572   6.794 -0.9238 -1.3301 -2.5825
  629MOL0     H84870   7.359   8.500   6.827  0.5101  0.2683  4.3998
  629MOL0     H84871   7.356   8.385   6.652  0.4869  0.1443  2.3941
  629MOL0     H84872   7.505   8.298   6.691 -2.2399 -1.9487 -1.2598
  629MOL0     H84873   7.552   8.392   6.482  0.9209  1.5874 -0.5374
  629MOL0     H84874   7.627   8.503   6.592  0.7086  0.9870 -1.6460
  629MOL0     H84875   7.440   8.390   6.309  0.4292  1.2483  0.4722
  629MOL0     H84876   7.362   8.296   6.130  0.2960  2.5592  0.9686
  629MOL0     H84877   7.242   8.192   6.211  1.5450 -0.8701 -2.6533
  629MOL0     H84878   7.200   8.296   6.070 -2.6639  2.2319  0.3198
  629MOL0     H84879   6.834   8.194   6.222 -0.9750 -0.3521 -0.4721
  629MOL0     H84880   6.610   8.121   6.143  2.4035 -0.7196  0.8084
  629MOL0     H84881   6.414   8.226   5.946 -2.1565  1.2638 -0.5597
  629MOL0     H84882   6.405   8.097   6.071  0.2983  0.8622  1.0762
  629MOL0     H84883   6.191   8.113   5.942 -1.0777  0.4646 -0.7099
  629MOL0     H84884   6.155   8.185   6.098 -1.0570 -0.8725 -2.0524
  629MOL0     H84885   6.246   8.349   5.862 -1.0500  1.5231 -0.2774
  629MOL0     H84886   6.189   8.415   6.014 -1.7117 -0.0497 -0.1786
  629MOL0     H84887   6.030   8.244   5.823  0.0055  0.0739 -0.3290
  629MOL0     H84888   5.961   8.313   5.977  0.5837 -0.8730  0.0061
  629MOL0     H84889   6.096   8.491   5.769 -0.5372  4.3992  0.7801
  629MOL0     H84890   5.996   8.538   5.900  1.6756 -0.5190  1.9551
  629MOL0     H84891   5.781   8.442   5.788  0.2014  1.6080  1.0663
  629MOL0     H84892   5.874   8.548   5.683 -0.4243  0.3039  1.1872
  629MOL0     H84893   5.893   8.236   5.663  0.7325 -0.1294 -0.3687
  629MOL0     H84894   5.958   8.363   5.558 -0.0806  0.2935  0.6142
  629MOL0     H84895   5.785   8.321   5.442  3.5285 -1.7203  1.3130
  629MOL0     H84896   5.717   8.451   5.544  3.1619  0.6879  0.5455
  629MOL0     H84897   6.456   8.509   6.265  2.3729  2.5699  1.8797
  629MOL0     H84898   6.676   8.576   6.333 -0.5178  0.5354 -1.4202
  629MOL0     H84899   7.012   8.634   6.398 -1.1686 -1.4999  1.4624
  629MOL0     H84900   7.242   8.698   6.520  0.4276  0.2803  0.2280
  629MOL0     H84901   8.786   8.704   6.583 -1.6760  0.6892 -0.0466
  629MOL0     H84902   9.029   8.709   6.513 -0.9113  0.0914 -1.1996
  629MOL0     H84903   9.387   9.076   6.370 -1.0570 -0.4021  0.7206
  629MOL0     H84904   9.620   9.099   6.299  3.5551 -1.8862 -1.8326
  629MOL0     H84905   9.916   8.757   6.342 -1.2238  2.0319  1.4169
  629MOL0     H84906   9.815   8.733   6.204 -0.4734 -0.9841 -0.4292
  629MOL0     H84907  10.064   8.899   6.247  0.4212 -0.6124 -0.3954
  629MOL0     H84908   9.960   8.939   6.102 -2.0907 -1.9245 -0.7627
  629MOL0     H84909  10.048   8.664   6.123  1.3052 -0.6178  1.4160
  629MOL0     H84910  10.179   8.791   6.107 -0.4143  0.7063  0.2615
  629MOL0     H84911  10.085   8.694   5.883  2.0632  1.1842 -0.3085
  629MOL0     H84912  10.087   8.875   5.917 -1.1426  0.2487 -0.6812
  629MOL0     H84913   9.680   8.771   5.849 -0.0945  0.0485  0.8281
  629MOL0     H84914   9.699   8.682   6.380 -1.6508 -1.1674  2.0107
  629MOL0     H84915   9.470   8.658   6.464 -0.5465 -0.2700 -0.0507
  630MOL0     O84916   0.914   8.085   5.188  0.1410  0.0889 -0.1889
  630MOL0     C84917   0.956   7.979   5.139  0.6138  0.3001 -0.4399
  630MOL0     O84918   0.892   7.892   5.053  0.0466 -0.1589 -0.3001
  630MOL0     C84919   0.762   7.914   5.024  0.2349 -0.7724 -0.2062
  630MOL0     C84920   0.725   8.007   4.921 -0.2700 -0.1291  0.1863
  630MOL0     C84921   0.586   8.011   4.883 -0.3465  0.2693  0.0551
  630MOL0     C84922   0.490   7.930   4.941 -0.8801  0.7034  1.0361
  630MOL0     O84923   0.360   7.938   4.898 -0.1041 -0.4396  0.4298
  630MOL0     C84924   0.270   7.998   4.999 -0.0155 -0.2381  0.3696
  630MOL0     C84925   0.130   7.959   4.955 -0.0905 -0.2641 -0.3714
  630MOL0     C84926   0.077   8.038   4.839  0.4870  0.5697 -0.1483
  630MOL0     C84927  -0.070   8.007   4.816 -0.6073 -0.3236 -0.3790
  630MOL0     C84928  -0.104   8.072   4.689 -0.8258  0.2095  0.8886
  630MOL0     C84929  -0.251   8.048   4.654  0.1120 -0.0772  0.0191
  630MOL0     C84930  -0.358   8.088   4.760  0.0059  0.6325 -0.8011
  630MOL0     C84931  -0.356   8.235   4.799  0.5800 -0.2375 -0.3373
  630MOL0     N84932  -0.480   8.294   4.862 -0.5332  0.7158  0.3087
  630MOL0     C84933  -0.602   8.272   4.820  0.5284  0.1054 -0.2432
  630MOL0     C84934  -0.679   8.341   4.907  0.4346  0.3486  0.3891
  630MOL0     C84935  -0.834   8.351   4.884  0.2068 -0.1749 -0.1180
  630MOL0     C84936  -0.883   8.325   4.748 -0.9649 -0.6285  0.0919
  630MOL0     C84937  -1.021   8.371   4.706 -0.4638 -0.5484 -0.0906
  630MOL0     C84938  -1.132   8.329   4.799 -0.6393  0.3297 -0.3894
  630MOL0     O84939  -1.254   8.392   4.761 -0.1413  0.4798  0.3316
  630MOL0     C84940  -1.366   8.373   4.827  0.4873  1.7156  0.2518
  630MOL0     C84941  -1.481   8.452   4.813  0.1386 -0.2328 -0.7435
  630MOL0     C84942  -1.597   8.424   4.884 -0.0614 -0.4148  0.3306
  630MOL0     C84943  -1.711   8.523   4.863 -0.0333 -0.2770  0.1210
  630MOL0     C84944  -1.605   8.318   4.974  0.3040  0.5357  0.7818
  630MOL0     C84945  -1.723   8.284   5.073  0.9145 -0.7768  0.0198
  630MOL0     O84946  -1.716   8.172   5.144 -0.3760  0.2143  0.0487
  630MOL0     C84947  -1.821   8.132   5.223 -0.9790  0.1525  0.4433
  630MOL0     C84948  -1.859   8.003   5.190 -0.1184  1.1163 -0.1204
  630MOL0     C84949  -1.940   7.926   5.272 -0.0512 -0.5759 -0.0145
  630MOL0     C84950  -1.996   7.977   5.391 -0.5106 -0.1168 -0.1543
  630MOL0     O84951  -2.074   7.911   5.489 -1.0193  0.6216 -0.0187
  630MOL0     C84952  -2.130   7.780   5.455 -1.2646 -0.1589  0.1640
  630MOL0     C84953  -2.253   7.755   5.541  1.0752 -0.0983  0.1259
  630MOL0     C84954  -2.360   7.855   5.489 -0.6727 -0.5527  0.5183
  630MOL0     C84955  -2.501   7.829   5.566 -0.8007  0.1032 -0.1054
  630MOL0     C84956  -2.579   7.709   5.513 -0.5606  0.3248  0.3441
  630MOL0     C84957  -2.704   7.673   5.597  0.3574  0.9790 -0.2322
  630MOL0     C84958  -2.836   7.730   5.550 -0.1082  0.0124  0.3808
  630MOL0     C84959  -2.889   7.643   5.438  0.2403  0.0532  0.7109
  630MOL0    Cl84960  -2.923   7.464   5.480  0.2959  0.0810 -0.3432
  630MOL0     C84961  -1.959   8.110   5.424 -0.1561  0.3079  0.2629
  630MOL0     C84962  -1.870   8.193   5.337  0.5658 -0.1700  0.3239
  630MOL0     O84963  -1.822   8.355   5.064 -0.7695  0.1069  0.6176
  630MOL0     C84964  -1.499   8.224   4.979  0.2640 -0.4865 -0.0070
  630MOL0     C84965  -1.385   8.251   4.903  0.8652 -0.3466  0.5211
  630MOL0     N84966  -0.605   8.413   4.993  0.4207  0.2957 -0.6466
  630MOL0     N84967  -0.484   8.377   4.975  0.5242  1.1880  0.2004
  630MOL0     C84968   0.537   7.847   5.052  0.5666  0.9347  0.3471
  630MOL0     C84969   0.669   7.838   5.085  0.5961  0.2991  0.2227
  630MOL0     C84970   1.090   7.936   5.180  0.0866  1.0086 -0.6153
  630MOL0     C84971   1.123   7.797   5.167  0.2409 -0.7411 -0.4752
  630MOL0     C84972   1.252   7.749   5.197 -0.1365 -0.6642  0.4194
  630MOL0     C84973   1.352   7.827   5.253  0.2728 -0.8127  0.0438
  630MOL0     O84974   1.468   7.769   5.282 -0.1096  0.0751 -0.3937
  630MOL0     C84975   1.550   7.843   5.376  0.9058 -0.0574 -0.4757
  630MOL0     C84976   1.653   7.746   5.421  0.3762  0.4831  0.1347
  630MOL0     C84977   1.769   7.808   5.495  0.5816 -0.1207 -1.1149
  630MOL0     C84978   1.737   7.837   5.639  1.0038 -1.0051 -0.3774
  630MOL0     C84979   1.848   7.920   5.693 -0.4786 -0.8032  0.5839
  630MOL0     C84980   1.944   7.980   5.733  0.2519  0.7578  0.1500
  630MOL0     C84981   1.311   7.962   5.284 -0.3031  0.5590  0.7612
  630MOL0     C84982   1.181   8.016   5.249  0.5207  0.3598 -0.3247
  630MOL0     H84983   0.800   8.072   4.877 -0.5335 -0.9423 -1.5925
  630MOL0     H84984   0.560   8.074   4.798 -0.4698 -0.8916 -0.7894
  630MOL0     H84985   0.285   7.969   5.104  1.4814 -1.7336 -0.2014
  630MOL0     H84986   0.281   8.107   4.998  1.8875 -0.3920 -0.6850
  630MOL0     H84987   0.126   7.851   4.935  1.7467 -0.9848  2.5933
  630MOL0     H84988   0.062   7.977   5.039  0.8504 -0.2743  0.4127
  630MOL0     H84989   0.095   8.143   4.864  3.3604  0.0288  0.3291
  630MOL0     H84990   0.135   8.004   4.753  0.2577 -0.5517  0.1330
  630MOL0     H84991  -0.087   7.899   4.818 -1.8035 -0.1306  0.1362
  630MOL0     H84992  -0.126   8.055   4.897 -0.9807  3.6572 -2.7282
  630MOL0     H84993  -0.078   8.177   4.676 -0.2962 -0.2013 -2.1244
  630MOL0     H84994  -0.041   8.033   4.608  0.2494  2.1421  0.7413
  630MOL0     H84995  -0.265   8.103   4.561  0.3307  2.1151  1.2067
  630MOL0     H84996  -0.260   7.942   4.629 -1.3771  0.2856 -1.0629
  630MOL0     H84997  -0.451   8.057   4.714  0.3936 -1.4846 -0.2603
  630MOL0     H84998  -0.332   8.034   4.852  1.2243 -0.5450 -1.7924
  630MOL0     H84999  -0.340   8.296   4.710  0.5981 -1.5788 -1.2802
  630MOL0     H85000  -0.276   8.271   4.863  0.5715  0.7257 -0.8562
  630MOL0     H85001  -0.648   8.209   4.745 -0.3327  0.4402 -0.0074
  630MOL0     H85002  -0.872   8.273   4.950 -1.8126  0.6888 -0.1515
  630MOL0     H85003  -0.872   8.447   4.921  0.7028 -0.2756  0.6564
  630MOL0     H85004  -0.883   8.218   4.727  1.9488 -0.5992 -0.4838
  630MOL0     H85005  -0.813   8.355   4.670  1.1354 -2.6613  1.1009
  630MOL0     H85006  -1.057   8.335   4.609 -0.5889 -1.1520  0.1762
  630MOL0     H85007  -1.023   8.480   4.700  0.0809 -0.4999  0.5397
  630MOL0     H85008  -1.107   8.361   4.901 -0.6720 -1.5550  0.2619
  630MOL0     H85009  -1.138   8.220   4.795 -1.4586  0.4183 -2.2203
  630MOL0     H85010  -1.464   8.536   4.747  0.5633  0.0221 -0.3210
  630MOL0     H85011  -1.749   8.561   4.959  1.2985  1.0491  0.1563
  630MOL0     H85012  -1.669   8.615   4.822 -0.1468  0.2365  1.1213
  630MOL0     H85013  -1.793   8.483   4.803 -0.1619  1.1446 -0.6828
  630MOL0     H85014  -1.831   7.961   5.094  1.4578 -0.5262  0.9936
  630MOL0     H85015  -1.981   7.828   5.250 -2.0140  0.1469  0.2521
  630MOL0     H85016  -2.165   7.777   5.351 -1.1872  0.5597  0.1105
  630MOL0     H85017  -2.056   7.703   5.479 -0.6044  1.2270  2.9790
  630MOL0     H85018  -2.287   7.653   5.518 -2.0686  1.3084 -2.2327
  630MOL0     H85019  -2.234   7.761   5.648  2.3788 -0.0825 -0.0919
  630MOL0     H85020  -2.375   7.839   5.382 -0.8716 -1.9303  0.7335
  630MOL0     H85021  -2.331   7.960   5.500 -1.0782 -0.2910 -0.8161
  630MOL0     H85022  -2.479   7.814   5.672 -0.9086 -3.1064 -0.4427
  630MOL0     H85023  -2.551   7.925   5.551 -0.2016  0.0883 -2.5687
  630MOL0     H85024  -2.516   7.620   5.514 -1.2607 -0.1749  1.2816
  630MOL0     H85025  -2.621   7.737   5.416 -1.7282  0.5302  0.8937
  630MOL0     H85026  -2.707   7.565   5.611  0.1496  1.1597  1.3136
  630MOL0     H85027  -2.691   7.720   5.695 -2.6899  0.3415  0.5780
  630MOL0     H85028  -2.816   7.831   5.513  1.0125 -0.9720 -1.8956
  630MOL0     H85029  -2.909   7.739   5.631 -2.0276  0.3655 -1.3001
  630MOL0     H85030  -2.820   7.634   5.354 -0.3773 -1.3047  0.3209
  630MOL0     H85031  -2.982   7.681   5.394  1.3914 -1.6775 -3.6919
  630MOL0     H85032  -1.992   8.147   5.521 -3.1081  0.9544 -0.8982
  630MOL0     H85033  -1.835   8.291   5.369 -1.0351  0.3140  0.7147
  630MOL0     H85034  -1.498   8.135   5.041 -0.9920 -0.3483  0.2372
  630MOL0     H85035  -1.313   8.170   4.913 -0.9926 -2.0916  0.5950
  630MOL0     H85036   0.471   7.786   5.112  2.5151  0.5772  2.2499
  630MOL0     H85037   0.695   7.774   5.168  0.2084  0.1618  0.2424
  630MOL0     H85038   1.045   7.731   5.132 -1.2757 -0.2407  1.7904
  630MOL0     H85039   1.275   7.643   5.191  0.1844 -0.5375 -2.9051
  630MOL0     H85040   1.596   7.930   5.328  1.5914 -0.9144 -1.4085
  630MOL0     H85041   1.485   7.880   5.455  1.1547 -3.3161  1.4168
  630MOL0     H85042   1.695   7.699   5.331 -0.7835  1.6254 -1.0451
  630MOL0     H85043   1.606   7.671   5.485  1.1211 -0.8699 -0.8699
  630MOL0     H85044   1.791   7.899   5.439 -1.2020  1.3709  0.4971
  630MOL0     H85045   1.856   7.742   5.502 -0.8158 -1.9128  0.4203
  630MOL0     H85046   1.732   7.747   5.701  1.1957 -1.1321 -0.5452
  630MOL0     H85047   1.638   7.884   5.645  0.0262 -3.1502  3.2250
  630MOL0     H85048   2.032   8.032   5.764  0.3380  1.3259 -0.9661
  630MOL0     H85049   1.379   8.035   5.327  1.0665  1.4751 -2.6337
  630MOL0     H85050   1.166   8.120   5.276  2.0062  0.7645 -0.9105
  631MOL0     O85051   3.875   7.419   9.838 -0.3206 -0.0622 -0.0734
  631MOL0     C85052   3.890   7.323   9.917 -0.2897 -0.1312 -0.8476
  631MOL0     O85053   3.787   7.260   9.982  0.5244 -0.5237 -0.0865
  631MOL0     C85054   3.662   7.292   9.937 -0.6637 -0.1619 -0.7085
  631MOL0     C85055   3.581   7.376  10.000  0.6788 -0.3237 -0.4668
  631MOL0     C85056   3.446   7.381   9.959  0.4551  0.6434  0.5861
  631MOL0     C85057   3.404   7.310   9.845 -0.8581  0.0744  0.1142
  631MOL0     O85058   3.279   7.339   9.804 -0.1684  0.2714 -0.8945
  631MOL0     C85059   3.218   7.244   9.725  0.2932 -0.5461 -0.2701
  631MOL0     C85060   3.071   7.269   9.738  0.2823 -0.2350 -0.4895
  631MOL0     C85061   3.009   7.219   9.867 -0.0430  0.6564  0.5344
  631MOL0     C85062   2.859   7.252   9.878 -0.4478  0.7842 -0.8292
  631MOL0     C85063   2.791   7.208  10.009  0.5310 -0.2995 -0.1100
  631MOL0     C85064   2.818   7.061  10.055  0.4905 -1.1718 -0.0932
  631MOL0     C85065   2.723   7.021  10.172 -1.1164  0.0602 -0.3381
  631MOL0     C85066   2.742   6.875  10.191  0.2701 -0.3029 -0.5625
  631MOL0     N85067   2.668   6.824  10.311  0.0365  0.2095 -0.0608
  631MOL0     C85068   2.531   6.828  10.339 -0.1204  0.4051 -0.0573
  631MOL0     C85069   2.518   6.783  10.466 -0.5052 -0.1048  0.0703
  631MOL0     C85070   2.399   6.762  10.547 -0.7549  0.1051 -0.5110
  631MOL0     C85071   2.337   6.894  10.602 -0.0282 -0.0851 -0.5990
  631MOL0     C85072   2.206   6.868  10.679 -0.1510  0.2316 -0.1237
  631MOL0     C85073   2.136   6.990  10.723 -0.3010  0.5736 -0.3759
  631MOL0     O85074   2.000   6.954  10.753  0.4860 -0.1647  0.2462
  631MOL0     C85075   1.913   7.048  10.810 -0.3739  0.4450  0.2407
  631MOL0     C85076   1.951   7.155  10.891  0.0186 -0.3207 -1.0061
  631MOL0     C85077   1.862   7.248  10.949 -0.2482  0.4787 -0.0710
  631MOL0     C85078   1.926   7.352  11.035  0.5675 -0.7113  0.1537
  631MOL0     C85079   1.725   7.220  10.925  0.3489 -0.1892  0.4977
  631MOL0     C85080   1.618   7.284  11.009  0.7468  0.9908  0.5293
  631MOL0     O85081   1.485   7.250  10.981 -0.1743 -0.5396  0.5789
  631MOL0     C85082   1.385   7.308  11.057 -0.7967 -0.1768  0.0594
  631MOL0     C85083   1.386   7.343  11.195 -0.4666 -0.6282  0.1924
  631MOL0     C85084   1.288   7.413  11.262 -0.8488  0.3245  0.8269
  631MOL0     C85085   1.173   7.436  11.193 -0.5517 -1.2312  0.3428
  631MOL0     O85086   1.060   7.497  11.246  0.2638 -0.1051  0.1627
  631MOL0     C85087   1.058   7.551  11.381 -0.2147  0.7316  1.0726
  631MOL0     C85088   0.923   7.603  11.414  0.8232  0.7372  0.4019
  631MOL0     C85089   0.896   7.615  11.563  0.2053 -1.0875  0.3691
  631MOL0     C85090   0.993   7.720  11.624 -0.0984  0.0782 -0.0481
  631MOL0     C85091   0.931   7.784  11.744 -0.3212 -0.4586  0.2946
  631MOL0     C85092   0.987   7.910  11.803  0.9611  0.1597  0.1705
  631MOL0     C85093   0.898   7.965  11.913 -0.0822  0.1467  0.6629
  631MOL0     C85094   0.784   8.034  11.849  0.6794 -0.2398 -0.3813
  631MOL0    Cl85095   0.726   8.172  11.952 -0.0267  0.4031 -0.2409
  631MOL0     C85096   1.165   7.413  11.058 -0.0239 -0.0803  1.5133
  631MOL0     C85097   1.267   7.345  10.987 -0.4169  0.3719 -0.1066
  631MOL0     O85098   1.656   7.359  11.104 -0.3237 -0.4191  0.4664
  631MOL0     C85099   1.689   7.124  10.824  0.3514 -0.0813 -0.6106
  631MOL0     C85100   1.779   7.041  10.769  0.0623 -0.7204  0.0683
  631MOL0     N85101   2.644   6.761  10.514 -0.2716 -0.2353  0.6332
  631MOL0     N85102   2.732   6.783  10.423  0.1864 -0.1224  0.2930
  631MOL0     C85103   3.489   7.223   9.782  0.1478 -0.2486 -0.9683
  631MOL0     C85104   3.618   7.214   9.829 -0.0023  0.0248 -0.2622
  631MOL0     C85105   4.025   7.268   9.935  0.2667  0.1496 -0.6184
  631MOL0     C85106   4.052   7.147  10.002  0.6044 -0.9038  0.2161
  631MOL0     C85107   4.187   7.107  10.031 -0.2129 -0.0216 -0.2395
  631MOL0     C85108   4.292   7.179   9.980  0.3249 -0.4987  0.2899
  631MOL0     O85109   4.425   7.157  10.013  1.2723 -0.9161  0.1683
  631MOL0     C85110   4.469   7.021  10.022  0.3399  0.2725  0.2462
  631MOL0     C85111   4.426   6.942   9.890  0.4597  0.2086 -0.2864
  631MOL0     C85112   4.492   6.989   9.766 -0.6518 -0.3437 -1.1722
  631MOL0     C85113   4.645   6.945   9.758 -0.4789 -0.3582 -0.6974
  631MOL0     C85114   4.690   6.952   9.618 -0.3078 -0.2658 -0.6963
  631MOL0     C85115   4.731   6.944   9.506 -0.4235  0.4845 -0.0198
  631MOL0     C85116   4.275   7.296   9.913  1.0145 -0.0027  0.0512
  631MOL0     C85117   4.140   7.346   9.898 -0.5199  0.5642 -0.2203
  631MOL0     H85118   3.616   7.425  10.090  0.3046 -0.7085 -0.1079
  631MOL0     H85119   3.377   7.440  10.019 -1.1137  0.3267 -0.8170
  631MOL0     H85120   3.226   7.260   9.617 -0.6327  2.1768  0.0003
  631MOL0     H85121   3.226   7.140   9.757  0.0154  0.2489  2.6384
  631MOL0     H85122   3.053   7.376   9.725  1.0460  0.0763  0.8171
  631MOL0     H85123   3.029   7.217   9.652 -1.0232 -0.5155  0.2966
  631MOL0     H85124   3.025   7.111   9.878 -0.0037  0.5314 -0.6015
  631MOL0     H85125   3.056   7.261   9.957 -0.6558 -2.1804  2.3062
  631MOL0     H85126   2.834   7.356   9.859 -3.5298  0.2687 -0.1657
  631MOL0     H85127   2.801   7.188   9.811  0.8265 -2.8315  1.2316
  631MOL0     H85128   2.826   7.279  10.084  2.0565 -0.4473 -0.6500
  631MOL0     H85129   2.683   7.216   9.990  0.4133  1.1185  0.9758
  631MOL0     H85130   2.804   6.996   9.968 -0.2872  0.2890 -1.0972
  631MOL0     H85131   2.919   7.047  10.094 -0.4300  0.7638  3.4150
  631MOL0     H85132   2.742   7.082  10.261 -1.4586  0.2417 -0.3859
  631MOL0     H85133   2.617   7.032  10.146 -1.9546 -0.2115  2.5940
  631MOL0     H85134   2.848   6.863  10.217  0.9178 -0.3028 -2.9502
  631MOL0     H85135   2.715   6.812  10.105  1.2446  1.7533 -2.4743
  631MOL0     H85136   2.452   6.861  10.272  2.5036  0.2697 -3.4881
  631MOL0     H85137   2.332   6.707  10.481 -1.1597 -0.1995  0.1500
  631MOL0     H85138   2.417   6.704  10.638  0.8882 -0.0387 -0.8960
  631MOL0     H85139   2.320   6.958  10.514  1.4589 -0.5047 -1.2201
  631MOL0     H85140   2.416   6.949  10.654 -0.4061  2.5704 -2.6041
  631MOL0     H85141   2.216   6.809  10.770  1.3341  3.0977  1.7187
  631MOL0     H85142   2.140   6.813  10.610 -2.5321  1.5904  0.9317
  631MOL0     H85143   2.148   7.069  10.649  1.6850  2.3658  1.7204
  631MOL0     H85144   2.186   7.032  10.811 -1.0997  0.6210  0.0602
  631MOL0     H85145   2.058   7.165  10.907  0.2353 -0.2305 -2.3658
  631MOL0     H85146   2.007   7.399  10.979 -0.2069 -0.7854 -1.0593
  631MOL0     H85147   1.862   7.441  11.045  0.7344 -0.4955 -0.6450
  631MOL0     H85148   1.963   7.307  11.127  0.1137 -0.0436  0.6811
  631MOL0     H85149   1.479   7.313  11.243  0.7411 -0.2748 -1.7865
  631MOL0     H85150   1.297   7.428  11.369 -0.8636 -3.8485  1.5551
  631MOL0     H85151   1.079   7.469  11.450 -2.5384  1.1096  2.3423
  631MOL0     H85152   1.134   7.629  11.386  0.4727  0.1372  0.1023
  631MOL0     H85153   0.911   7.701  11.367  2.7493  1.6482  1.7051
  631MOL0     H85154   0.845   7.537  11.374  1.7490 -1.7321  2.3925
  631MOL0     H85155   0.906   7.521  11.618  0.2748 -0.7130  1.0048
  631MOL0     H85156   0.795   7.657  11.561 -0.0927 -1.7787 -2.0071
  631MOL0     H85157   1.089   7.670  11.641 -1.1725 -2.0278  0.2458
  631MOL0     H85158   1.021   7.793  11.548 -2.5798  1.6212  0.4193
  631MOL0     H85159   0.922   7.704  11.817  2.2511 -0.3371  0.8227
  631MOL0     H85160   0.826   7.800  11.714 -0.2588 -0.9718 -0.2135
  631MOL0     H85161   1.082   7.883  11.850  0.6923 -1.1731 -0.0027
  631MOL0     H85162   1.013   7.984  11.727 -2.1135 -0.0517 -1.2290
  631MOL0     H85163   0.961   8.035  11.968 -0.2870  0.1537  0.8896
  631MOL0     H85164   0.873   7.880  11.976 -0.1974 -0.2054  0.1508
  631MOL0     H85165   0.687   7.983  11.847 -1.3776  3.1771  1.4927
  631MOL0     H85166   0.807   8.078  11.752  3.0210  1.0255  0.6627
  631MOL0     H85167   1.080   7.450  11.001  0.9310 -0.9234 -0.5501
  631MOL0     H85168   1.256   7.313  10.884  0.7447 -3.7628  0.8778
  631MOL0     H85169   1.586   7.107  10.796 -0.2500 -1.6078  2.1377
  631MOL0     H85170   1.754   6.961  10.700 -0.2493 -0.8233  0.3022
  631MOL0     H85171   3.453   7.179   9.689 -1.5687  0.6551 -0.7567
  631MOL0     H85172   3.695   7.157   9.777 -0.8330 -1.7369  0.3757
  631MOL0     H85173   3.975   7.083  10.046  0.8179 -1.5617 -0.3545
  631MOL0     H85174   4.209   7.023  10.096  1.9456 -0.3987 -1.3525
  631MOL0     H85175   4.576   7.016  10.043  0.2111 -0.4289  0.7831
  631MOL0     H85176   4.425   6.977  10.113 -0.2134  1.1284  0.4078
  631MOL0     H85177   4.317   6.938   9.884  0.4752 -0.1565 -0.3037
  631MOL0     H85178   4.467   6.842   9.901  0.6135 -0.1948 -3.5595
  631MOL0     H85179   4.485   7.097   9.755 -2.9377 -0.2205  0.6199
  631MOL0     H85180   4.431   6.946   9.686 -1.1593 -1.4395 -0.2368
  631MOL0     H85181   4.667   6.841   9.782  1.4530 -0.0321 -0.8469
  631MOL0     H85182   4.709   7.016   9.813  1.9063 -2.6040 -0.3959
  631MOL0     H85183   4.755   6.935   9.402 -0.6282 -0.1945 -0.0106
  631MOL0     H85184   4.363   7.354   9.888  1.5643 -1.0970 -0.6139
  631MOL0     H85185   4.134   7.447   9.858  1.2998  1.0440  0.5862
  632MOL0     O85186   0.789   9.857   4.173  0.8228 -0.6218  0.3530
  632MOL0     C85187   0.756   9.941   4.093  1.0582 -0.1813 -0.6274
  632MOL0     O85188   0.831  10.034   4.043 -0.3744  0.8242 -0.4945
  632MOL0     C85189   0.967  10.043   4.066  0.0913 -0.0087  0.0638
  632MOL0     C85190   1.052   9.939   4.111  0.7897 -0.2005  0.0498
  632MOL0     C85191   1.188   9.966   4.121 -0.7439 -0.5821 -0.5503
  632MOL0     C85192   1.237  10.096   4.104 -0.0362 -0.2298  0.4359
  632MOL0     O85193   1.370  10.129   4.108 -0.2346 -0.1902 -0.3110
  632MOL0     C85194   1.463  10.045   4.186  0.9301 -0.2241  0.3028
  632MOL0     C85195   1.599  10.109   4.203  0.1289  1.0528 -0.3447
  632MOL0     C85196   1.584  10.239   4.283  0.5026 -0.4400  0.1399
  632MOL0     C85197   1.731  10.284   4.308 -0.0564  0.9455  0.2698
  632MOL0     C85198   1.719  10.420   4.384  0.0604  0.5308 -0.1761
  632MOL0     C85199   1.856  10.464   4.440 -0.2727 -0.4681  0.9947
  632MOL0     C85200   1.893  10.388   4.573  0.0948  0.1598  0.7534
  632MOL0     C85201   2.044  10.392   4.601  0.0635 -0.5063  0.6512
  632MOL0     N85202   2.067  10.358   4.744 -0.5608 -0.2865 -0.5305
  632MOL0     C85203   1.987  10.376   4.856 -0.3284  0.3151  0.0492
  632MOL0     C85204   2.068  10.321   4.960 -0.2136 -0.0478  0.4448
  632MOL0     C85205   2.048  10.318   5.099 -0.0858  0.1189 -0.4373
  632MOL0     C85206   1.899  10.332   5.135  0.4857  0.3964 -0.0613
  632MOL0     C85207   1.855  10.302   5.280 -0.7413  0.4932  0.6647
  632MOL0     C85208   1.710  10.335   5.300  0.1856  0.0517 -0.5416
  632MOL0     O85209   1.679  10.317   5.441 -0.2760  0.1099 -0.6215
  632MOL0     C85210   1.543  10.341   5.478  0.2921 -0.1780 -0.3054
  632MOL0     C85211   1.435  10.374   5.388  0.1926  0.3931  0.2076
  632MOL0     C85212   1.303  10.398   5.428  0.2024 -0.5830 -0.2283
  632MOL0     C85213   1.204  10.407   5.320  0.5153  0.4555 -0.0656
  632MOL0     C85214   1.279  10.393   5.572 -0.3200 -0.0219 -0.0708
  632MOL0     C85215   1.146  10.409   5.629  0.1820  0.4822 -1.0960
  632MOL0     O85216   1.101  10.322   5.723 -0.2366  0.7681 -0.6936
  632MOL0     C85217   0.995  10.362   5.796  0.2945 -1.0817  0.4953
  632MOL0     C85218   1.007  10.402   5.935  0.1777  1.1990 -0.4206
  632MOL0     C85219   0.892  10.431   6.011  0.4430 -0.0378 -0.8549
  632MOL0     C85220   0.767  10.423   5.959  0.8418 -0.4163 -0.7138
  632MOL0     O85221   0.655  10.475   6.031  0.4332  0.9413  0.4286
  632MOL0     C85222   0.514  10.459   5.982  0.4247  0.5936  0.5245
  632MOL0     C85223   0.419  10.503   6.095  0.6104  0.2433  1.0706
  632MOL0     C85224   0.276  10.496   6.043 -0.2678  0.3847 -0.3089
  632MOL0     C85225   0.178  10.548   6.148  0.1634  0.2187  0.4975
  632MOL0     C85226   0.038  10.529   6.102 -0.1158 -0.9101  0.0555
  632MOL0     C85227  -0.071  10.589   6.191  0.5501 -0.9314 -0.4277
  632MOL0     C85228  -0.211  10.578   6.137  0.5119 -0.1232 -0.1796
  632MOL0     C85229  -0.319  10.637   6.225 -0.1781 -0.5224  0.0063
  632MOL0    Cl85230  -0.462  10.645   6.132  0.5964 -0.3247  0.1105
  632MOL0     C85231   0.755  10.370   5.825  0.1695  0.6466 -0.1185
  632MOL0     C85232   0.870  10.346   5.750 -0.3703 -0.0207  0.9902
  632MOL0     O85233   1.079  10.507   5.590 -0.0079  0.5889 -0.5220
  632MOL0     C85234   1.380  10.358   5.664  0.0321 -0.2179  0.0403
  632MOL0     C85235   1.512  10.337   5.616 -0.2232  1.0144  0.1934
  632MOL0     N85236   2.192  10.295   4.905  0.2709 -0.1020 -0.7695
  632MOL0     N85237   2.192  10.318   4.778  0.1862 -0.3514 -0.4431
  632MOL0     C85238   1.161  10.194   4.072  0.7089  0.4796 -0.1434
  632MOL0     C85239   1.020  10.166   4.052 -0.4579  0.2331  0.0121
  632MOL0     C85240   0.630   9.908   4.025 -0.0269 -0.4866  0.5634
  632MOL0     C85241   0.559   9.785   4.046  0.0504  0.1308  0.5111
  632MOL0     C85242   0.451   9.760   3.956 -0.2822 -0.4724 -0.3178
  632MOL0     C85243   0.423   9.844   3.848 -0.3241 -0.0431  0.5033
  632MOL0     O85244   0.328   9.816   3.757  0.1070  0.2197  0.3231
  632MOL0     C85245   0.196   9.841   3.807  0.0553 -0.0982 -0.3150
  632MOL0     C85246   0.099   9.840   3.681 -0.3305  0.1151 -0.7405
  632MOL0     C85247   0.140   9.943   3.574 -0.0996  0.1694  0.0944
  632MOL0     C85248   0.222   9.894   3.468  0.0640  0.0656  1.3783
  632MOL0     C85249   0.261   9.995   3.363 -0.4887  0.3388 -0.0837
  632MOL0     C85250   0.292  10.087   3.286  0.5287  0.3086  0.0878
  632MOL0     C85251   0.495   9.964   3.836  0.2471  0.8791  0.6953
  632MOL0     C85252   0.599   9.994   3.915 -0.1082  0.0004  0.0629
  632MOL0     H85253   1.016   9.838   4.125  0.0993 -0.0504 -0.6018
  632MOL0     H85254   1.257   9.885   4.146  1.3459  1.1582 -0.4121
  632MOL0     H85255   1.417  10.028   4.284  1.2298  3.4384  1.1863
  632MOL0     H85256   1.472   9.948   4.136 -0.8625 -1.6315  2.5003
  632MOL0     H85257   1.672  10.038   4.244 -0.1580  0.2519 -1.1913
  632MOL0     H85258   1.629  10.140   4.103  1.0550 -1.3601 -0.8604
  632MOL0     H85259   1.536  10.315   4.221  2.3878  0.9560  0.3170
  632MOL0     H85260   1.530  10.223   4.377  2.1346  1.9648  1.5864
  632MOL0     H85261   1.779  10.205   4.366 -1.8996 -1.9184 -1.8138
  632MOL0     H85262   1.789  10.298   4.216  1.3531  1.0014  1.1471
  632MOL0     H85263   1.692  10.503   4.318 -2.0487  1.3054  1.5221
  632MOL0     H85264   1.646  10.418   4.465 -1.0156  0.2333 -1.1354
  632MOL0     H85265   1.940  10.452   4.371 -0.7250 -0.0316  0.3599
  632MOL0     H85266   1.844  10.571   4.461 -1.8853  0.1802 -2.5513
  632MOL0     H85267   1.831  10.437   4.648 -1.9182  1.8606 -1.8222
  632MOL0     H85268   1.865  10.283   4.555  0.1628  0.1164  0.9056
  632MOL0     H85269   2.090  10.488   4.578 -1.5982  0.1325 -0.1999
  632MOL0     H85270   2.097  10.321   4.536 -0.1055  0.5805 -0.7366
  632MOL0     H85271   1.887  10.418   4.863  0.2282  1.4709  1.6509
  632MOL0     H85272   2.087  10.221   5.133  2.4320  0.3138 -2.4701
  632MOL0     H85273   2.090  10.403   5.153 -2.9797  1.6311 -0.3603
  632MOL0     H85274   1.837  10.270   5.070 -0.6586 -0.7775  2.0286
  632MOL0     H85275   1.862  10.434   5.117  2.4786  2.0017  3.6982
  632MOL0     H85276   1.916  10.362   5.349  1.6131  0.6420 -1.4164
  632MOL0     H85277   1.862  10.195   5.301 -1.0029  0.2678 -0.3428
  632MOL0     H85278   1.647  10.275   5.233 -0.9761  1.0750 -0.4167
  632MOL0     H85279   1.688  10.438   5.273  0.9326  0.1598 -0.7479
  632MOL0     H85280   1.456  10.370   5.282 -0.4377  1.2600  0.0340
  632MOL0     H85281   1.101  10.426   5.351  0.3860  2.0773 -1.3418
  632MOL0     H85282   1.228  10.487   5.250  0.9803  4.3425  4.0784
  632MOL0     H85283   1.199  10.308   5.274 -1.9365  0.4502  0.0931
  632MOL0     H85284   1.108  10.405   5.974  0.0955  3.4932 -0.2732
  632MOL0     H85285   0.879  10.470   6.111 -1.3385  3.2366 -2.2115
  632MOL0     H85286   0.506  10.522   5.893  3.2555 -1.7826 -1.6309
  632MOL0     H85287   0.490  10.354   5.963  2.8567  0.0837 -0.1368
  632MOL0     H85288   0.431  10.428   6.173 -0.4818  1.2495  2.2411
  632MOL0     H85289   0.434  10.605   6.129 -2.6328  0.8447  0.9715
  632MOL0     H85290   0.254  10.393   6.011 -0.1520  0.7889 -1.7712
  632MOL0     H85291   0.260  10.568   5.963 -4.4145 -0.8785 -0.8526
  632MOL0     H85292   0.188  10.488   6.239  1.5646  0.0913  0.2790
  632MOL0     H85293   0.211  10.649   6.172  0.1025  0.2036  0.6456
  632MOL0     H85294   0.031  10.420   6.102  0.7235 -0.9729  0.0374
  632MOL0     H85295   0.016  10.569   6.002 -0.0215  1.9602  1.0784
  632MOL0     H85296  -0.067  10.542   6.289  0.6568  1.3435  0.7314
  632MOL0     H85297  -0.054  10.697   6.206 -2.1797 -0.3288 -1.1954
  632MOL0     H85298  -0.234  10.475   6.109  0.8262  0.6872 -4.1146
  632MOL0     H85299  -0.208  10.630   6.041  3.3184 -0.7609 -0.5367
  632MOL0     H85300  -0.280  10.736   6.249  0.0061 -0.4553 -0.5652
  632MOL0     H85301  -0.334  10.573   6.313  2.7171  0.3369  1.2382
  632MOL0     H85302   0.655  10.366   5.784 -2.1188  2.1174  4.5707
  632MOL0     H85303   0.854  10.304   5.651 -1.0169 -2.5305  2.0764
  632MOL0     H85304   1.375  10.354   5.772  2.7071  2.0480  0.3883
  632MOL0     H85305   1.591  10.309   5.684 -0.6038  0.4905  0.4243
  632MOL0     H85306   1.198  10.296   4.066  0.8368  0.4557  0.2450
  632MOL0     H85307   0.953  10.243   4.017 -0.8053 -1.4518 -3.4423
  632MOL0     H85308   0.582   9.717   4.127 -0.4098 -0.9955 -0.2896
  632MOL0     H85309   0.394   9.668   3.965  0.8899 -1.9540 -5.0803
  632MOL0     H85310   0.165   9.763   3.876  0.0964  0.1718  0.0122
  632MOL0     H85311   0.196   9.935   3.863  0.6070 -0.3815  0.1574
  632MOL0     H85312  -0.001   9.869   3.716  0.6851 -1.2529  4.0655
  632MOL0     H85313   0.100   9.738   3.641  1.0259 -1.1250  2.1436
  632MOL0     H85314   0.181  10.031   3.624  1.9758 -1.6569  1.8137
  632MOL0     H85315   0.043   9.971   3.532  0.4206  0.9183 -0.6299
  632MOL0     H85316   0.169   9.813   3.417  0.2032  0.0554  1.2498
  632MOL0     H85317   0.316   9.854   3.506  1.8070 -0.1313 -2.6568
  632MOL0     H85318   0.329  10.172   3.232  3.6424  0.0849  1.6345
  632MOL0     H85319   0.464  10.034   3.759  0.7801 -2.0498 -2.4028
  632MOL0     H85320   0.650  10.089   3.909 -1.2176  0.5523 -1.3855
  633MOL0     O85321   9.276   3.493   3.949  0.2869 -0.1989 -0.6172
  633MOL0     C85322   9.388   3.445   3.924 -0.0458  0.4901 -0.3930
  633MOL0     O85323   9.414   3.365   3.813 -0.0307 -0.1038 -0.1814
  633MOL0     C85324   9.301   3.347   3.735  0.1848 -0.1425 -0.2704
  633MOL0     C85325   9.270   3.428   3.628  0.1521  0.1800 -0.0080
  633MOL0     C85326   9.160   3.402   3.547 -0.2811 -1.0372  0.3115
  633MOL0     C85327   9.088   3.290   3.552  0.3815 -0.3518 -0.1931
  633MOL0     O85328   8.997   3.273   3.451  0.2859 -0.4592  0.0203
  633MOL0     C85329   8.919   3.151   3.453  0.3863  0.0606 -0.1145
  633MOL0     C85330   8.816   3.148   3.342 -0.8527 -0.5611  0.0605
  633MOL0     C85331   8.724   3.023   3.348  0.3457 -0.2526 -0.1619
  633MOL0     C85332   8.597   3.035   3.274  0.9257 -0.1394 -0.3038
  633MOL0     C85333   8.514   2.901   3.281  0.0568  0.0558 -1.4025
  633MOL0     C85334   8.369   2.923   3.224 -0.2957 -0.3387  0.6880
  633MOL0     C85335   8.372   2.982   3.080  0.0393  0.0195  0.2441
  633MOL0     C85336   8.257   2.949   3.005  0.4740  0.3168  1.0206
  633MOL0     N85337   8.149   3.040   3.049  0.1480  0.5653  0.4538
  633MOL0     C85338   8.046   3.017   3.130  0.4407  0.9681  0.1018
  633MOL0     C85339   7.978   3.135   3.132  0.1882  0.4855 -0.1252
  633MOL0     C85340   7.851   3.160   3.186 -0.8401  0.7045 -0.4826
  633MOL0     C85341   7.746   3.089   3.114  0.0800 -0.4206  0.0422
  633MOL0     C85342   7.707   3.167   2.987 -0.1322  0.7966 -0.0684
  633MOL0     C85343   7.569   3.140   2.925  0.1001  0.8032 -0.2727
  633MOL0     O85344   7.465   3.161   3.021 -0.4244  0.1072 -0.4169
  633MOL0     C85345   7.331   3.124   3.003 -0.4610 -0.0232  0.0845
  633MOL0     C85346   7.252   3.133   3.113 -0.2775  0.0456 -0.7624
  633MOL0     C85347   7.117   3.115   3.109  0.8198 -0.2452  0.3187
  633MOL0     C85348   7.040   3.142   3.235 -0.2736  0.3166  0.3274
  633MOL0     C85349   7.050   3.078   2.984  0.2758 -0.5809 -0.5186
  633MOL0     C85350   6.908   3.078   2.956 -0.3547 -0.0455 -0.0108
  633MOL0     O85351   6.865   3.121   2.840  0.0556 -0.2445  0.5264
  633MOL0     C85352   6.732   3.122   2.818  0.0944  0.2425 -0.2339
  633MOL0     C85353   6.664   3.238   2.855 -0.7997  0.0871 -1.5988
  633MOL0     C85354   6.525   3.244   2.820 -0.4887 -0.2737  0.3649
  633MOL0     C85355   6.458   3.130   2.767 -0.0698 -0.1727  0.1061
  633MOL0     O85356   6.320   3.131   2.753  0.2574  0.1694 -0.3748
  633MOL0     C85357   6.255   3.033   2.670  0.1952 -0.3536  0.1730
  633MOL0     C85358   6.101   3.031   2.705 -1.0026 -0.1698 -0.2477
  633MOL0     C85359   6.026   3.154   2.646 -0.5035 -1.1427  0.1319
  633MOL0     C85360   5.875   3.149   2.664  1.0515 -0.7473 -0.2199
  633MOL0     C85361   5.840   3.177   2.806 -0.6433  0.8421  0.3828
  633MOL0     C85362   5.696   3.139   2.844 -0.2132 -0.4706  0.1924
  633MOL0     C85363   5.591   3.193   2.739  0.3069 -0.5463 -0.5315
  633MOL0     C85364   5.589   3.342   2.741  0.6109  0.0491  0.4247
  633MOL0    Cl85365   5.553   3.421   2.901 -0.2226  0.0412  0.1654
  633MOL0     C85366   6.535   3.012   2.732  1.1248  0.2032  0.1279
  633MOL0     C85367   6.671   3.014   2.756 -0.3654  0.2175  0.7117
  633MOL0     O85368   6.848   3.019   3.045 -0.1664  0.0879 -0.2369
  633MOL0     C85369   7.136   3.070   2.873 -0.2608 -0.0052 -0.1205
  633MOL0     C85370   7.276   3.085   2.882 -0.0314 -0.0599 -0.2945
  633MOL0     N85371   8.047   3.230   3.054  0.6363  0.8264 -0.4119
  633MOL0     N85372   8.144   3.168   3.005 -0.1524 -0.2909  0.4034
  633MOL0     C85373   9.105   3.202   3.660  0.5393 -0.6832  0.0594
  633MOL0     C85374   9.208   3.235   3.747 -1.0250  0.1616 -0.8413
  633MOL0     C85375   9.508   3.495   4.006 -0.1084 -0.1377  0.8805
  633MOL0     C85376   9.490   3.584   4.108 -0.0840  0.6512  0.7320
  633MOL0     C85377   9.594   3.626   4.187 -0.1410 -0.3786  0.2369
  633MOL0     C85378   9.726   3.599   4.167 -0.2034 -0.2064 -0.5947
  633MOL0     O85379   9.822   3.648   4.253 -0.1599  0.7755  0.2053
  633MOL0     C85380   9.964   3.621   4.238  0.1128 -0.0440 -0.0825
  633MOL0     C85381  10.050   3.680   4.346  0.6433  0.0571  0.0569
  633MOL0     C85382  10.057   3.590   4.470  0.1846 -0.0995 -0.1281
  633MOL0     C85383  10.100   3.676   4.600 -0.6659 -0.5287  0.1353
  633MOL0     C85384  10.236   3.731   4.581  0.2503 -0.6346  0.9349
  633MOL0     C85385  10.360   3.750   4.578 -0.0283  0.0698 -0.7259
  633MOL0     C85386   9.752   3.514   4.055 -0.5841 -0.0563 -0.5096
  633MOL0     C85387   9.646   3.461   3.975  0.4969  0.2408 -0.5698
  633MOL0     H85388   9.328   3.518   3.610  0.9671  0.0620  1.7934
  633MOL0     H85389   9.131   3.462   3.462 -3.3237 -1.4610  0.9406
  633MOL0     H85390   8.986   3.065   3.448  2.5561  1.3631  2.9991
  633MOL0     H85391   8.867   3.146   3.550 -1.9838 -2.4148 -1.3887
  633MOL0     H85392   8.755   3.238   3.338  1.6577  1.5410  3.7720
  633MOL0     H85393   8.880   3.144   3.253  1.0864  1.5982  1.2592
  633MOL0     H85394   8.776   2.941   3.298  2.5001  1.3885 -0.7517
  633MOL0     H85395   8.710   3.006   3.456  1.4347 -0.1287  0.0097
  633MOL0     H85396   8.542   3.124   3.306 -1.0261 -1.9760  1.8298
  633MOL0     H85397   8.622   3.047   3.168 -0.0020  1.0654 -0.4005
  633MOL0     H85398   8.568   2.831   3.217  0.6074  0.4516 -1.3737
  633MOL0     H85399   8.520   2.874   3.387  1.3987  2.3015 -0.8397
  633MOL0     H85400   8.309   2.831   3.218 -0.8130  0.0963 -1.5772
  633MOL0     H85401   8.323   2.992   3.295 -3.3228 -0.7004 -0.7694
  633MOL0     H85402   8.391   3.089   3.094  3.1942 -0.3692 -0.3897
  633MOL0     H85403   8.457   2.949   3.020 -0.5240 -1.0155 -0.0168
  633MOL0     H85404   8.231   2.845   3.025 -3.3753  1.4012  2.5255
  633MOL0     H85405   8.272   2.955   2.897  0.9715 -1.2988  0.9701
  633MOL0     H85406   8.011   2.919   3.161  2.5286  0.4830  1.0451
  633MOL0     H85407   7.849   3.139   3.294 -1.0148 -1.6373 -0.8970
  633MOL0     H85408   7.833   3.268   3.190 -0.5903  0.7084  1.0164
  633MOL0     H85409   7.660   3.101   3.181  1.5975  0.5809  1.9189
  633MOL0     H85410   7.772   2.984   3.100  0.9408 -0.3189  0.7920
  633MOL0     H85411   7.794   3.155   2.921  1.8212  0.8846  2.3479
  633MOL0     H85412   7.707   3.273   3.013  0.8196  0.7141  0.3236
  633MOL0     H85413   7.560   3.035   2.894  0.8383  0.8903 -0.8317
  633MOL0     H85414   7.549   3.209   2.843  1.5617  0.4598 -0.9626
  633MOL0     H85415   7.306   3.161   3.203 -0.3722 -2.9357  0.3547
  633MOL0     H85416   6.998   3.052   3.281  0.3795  1.9024  4.4764
  633MOL0     H85417   7.106   3.192   3.306 -0.9560 -0.5394  1.6048
  633MOL0     H85418   6.954   3.205   3.213 -1.7851 -1.7688 -0.0692
  633MOL0     H85419   6.711   3.331   2.885 -2.3142  0.8167 -1.3536
  633MOL0     H85420   6.472   3.339   2.826  1.7151  0.9535  4.2114
  633MOL0     H85421   6.277   3.041   2.563  2.9885 -2.0227  0.5304
  633MOL0     H85422   6.292   2.932   2.690  0.4598 -0.5539 -1.2109
  633MOL0     H85423   6.051   2.939   2.672 -1.8262 -0.3192  1.3277
  633MOL0     H85424   6.100   3.022   2.814  1.8108 -2.6309 -0.3011
  633MOL0     H85425   6.040   3.171   2.539 -1.2059  3.1719  0.5277
  633MOL0     H85426   6.063   3.244   2.696 -0.9205 -0.3700 -0.8877
  633MOL0     H85427   5.831   3.229   2.604  1.2124  0.3061  1.0217
  633MOL0     H85428   5.842   3.049   2.635 -2.0662 -1.2440  4.0997
  633MOL0     H85429   5.870   3.281   2.826  0.8360  0.0198  2.8986
  633MOL0     H85430   5.900   3.112   2.870  0.7171  1.4732 -0.2070
  633MOL0     H85431   5.681   3.031   2.837  0.1158 -0.6059  1.3967
  633MOL0     H85432   5.674   3.169   2.947  1.7119  0.8186  0.2869
  633MOL0     H85433   5.488   3.157   2.753  0.6675 -1.8416 -1.0564
  633MOL0     H85434   5.618   3.162   2.637 -1.3375  1.5067 -1.6881
  633MOL0     H85435   5.508   3.368   2.672  1.7216  0.3213 -0.8092
  633MOL0     H85436   5.682   3.374   2.695  0.3604  0.5948  0.2869
  633MOL0     H85437   6.494   2.924   2.684  1.7429 -0.3346  0.5735
  633MOL0     H85438   6.738   2.935   2.724 -0.3584  1.0175 -1.4479
  633MOL0     H85439   7.087   3.035   2.782 -3.4174 -0.0788  1.4916
  633MOL0     H85440   7.336   3.074   2.793 -0.8454 -1.9781 -0.6392
  633MOL0     H85441   9.046   3.113   3.676  0.2598 -0.8061 -1.5085
  633MOL0     H85442   9.222   3.175   3.837  3.0989  3.0486  0.7287
  633MOL0     H85443   9.391   3.624   4.122 -0.2630  0.1631  0.8676
  633MOL0     H85444   9.553   3.685   4.269 -0.7156  2.6136 -2.0490
  633MOL0     H85445   9.981   3.513   4.231 -1.0914 -0.3458  1.3085
  633MOL0     H85446   9.998   3.656   4.140  0.8063 -0.8322 -0.1377
  633MOL0     H85447  10.003   3.776   4.370 -0.9940 -1.1274  1.9311
  633MOL0     H85448  10.151   3.702   4.313 -0.1387 -1.5838 -4.1470
  633MOL0     H85449  10.129   3.510   4.450  0.3871  0.7139 -3.0102
  633MOL0     H85450   9.958   3.545   4.485  0.4036 -0.5406  0.0230
  633MOL0     H85451  10.095   3.607   4.684 -0.0848  1.2016  1.6705
  633MOL0     H85452  10.033   3.755   4.636  1.4828  0.7009  1.7011
  633MOL0     H85453  10.461   3.775   4.601 -0.1787  0.1672 -0.1733
  633MOL0     H85454   9.854   3.483   4.038  0.0555  2.3138 -1.3064
  633MOL0     H85455   9.666   3.389   3.896  0.0679  1.3566 -1.7272
  634MOL0     O85456   5.003   1.501   2.072 -0.1040 -0.0186 -0.7317
  634MOL0     C85457   5.068   1.503   2.177  0.0207 -0.3873 -0.0402
  634MOL0     O85458   5.037   1.579   2.289 -0.0239  0.8718  0.2669
  634MOL0     C85459   4.934   1.663   2.291  0.6372 -0.4824  0.1196
  634MOL0     C85460   4.805   1.620   2.266  0.6778  0.0477 -0.5538
  634MOL0     C85461   4.702   1.723   2.273 -0.1375  0.3332 -0.4420
  634MOL0     C85462   4.722   1.856   2.308 -0.4429  0.0957 -0.2847
  634MOL0     O85463   4.618   1.941   2.323  0.1331 -0.1351  0.0074
  634MOL0     C85464   4.635   2.082   2.354  0.0401 -0.1071  1.1282
  634MOL0     C85465   4.508   2.172   2.338 -0.0370  0.9121 -0.5134
  634MOL0     C85466   4.382   2.108   2.392  0.4793 -0.3375  0.3328
  634MOL0     C85467   4.276   2.215   2.434 -0.3503 -0.0532 -0.1367
  634MOL0     C85468   4.147   2.147   2.485  1.0067  0.2508 -0.2554
  634MOL0     C85469   4.179   2.100   2.632 -0.1616  0.4769 -0.7796
  634MOL0     C85470   4.059   2.095   2.723 -0.3812  0.1035  0.4902
  634MOL0     C85471   3.972   1.973   2.688  0.1478 -0.1407  0.5399
  634MOL0     N85472   3.845   1.978   2.759  0.1040 -0.5497 -0.0586
  634MOL0     C85473   3.824   1.926   2.879  0.7160 -0.3185  0.0621
  634MOL0     C85474   3.698   1.973   2.921 -0.4667  0.3892  1.5381
  634MOL0     C85475   3.638   1.947   3.047  0.7329  0.6369 -0.8553
  634MOL0     C85476   3.646   2.048   3.159 -0.3925  1.2578  0.2267
  634MOL0     C85477   3.613   1.976   3.295 -0.4413 -0.4348 -0.2542
  634MOL0     C85478   3.464   1.934   3.310  0.5414  0.6602  0.2083
  634MOL0     O85479   3.412   1.951   3.451  0.2547  0.8383  0.1214
  634MOL0     C85480   3.279   1.955   3.472  1.2039 -0.3712  0.2887
  634MOL0     C85481   3.180   1.945   3.366 -0.6050  0.4992  0.8350
  634MOL0     C85482   3.052   1.958   3.400  0.6844  0.9708 -0.2860
  634MOL0     C85483   2.957   1.978   3.283 -0.0383 -0.1500 -0.3494
  634MOL0     C85484   3.009   1.964   3.540 -0.1654  0.4920  0.4904
  634MOL0     C85485   2.860   1.975   3.580  0.5474 -0.0514  0.5346
  634MOL0     O85486   2.757   1.959   3.492  1.1363 -0.0924  0.2843
  634MOL0     C85487   2.632   1.981   3.542  0.0289  0.1984 -0.1931
  634MOL0     C85488   2.578   1.905   3.642 -0.4632  0.6094  0.5145
  634MOL0     C85489   2.446   1.933   3.690 -0.5761 -0.3770  0.8750
  634MOL0     C85490   2.364   2.026   3.622  0.2373 -0.4194  0.5461
  634MOL0     O85491   2.236   2.054   3.656 -0.0482 -0.1199  0.0159
  634MOL0     C85492   2.208   2.032   3.796  0.8270 -0.4162  0.3020
  634MOL0     C85493   2.052   2.060   3.816 -1.2768  0.9084 -0.0813
  634MOL0     C85494   1.999   2.198   3.782 -0.0154 -0.1509 -0.5716
  634MOL0     C85495   1.999   2.230   3.632  0.0570  0.2289 -0.3822
  634MOL0     C85496   1.922   2.357   3.578  0.4547  0.8266 -0.0132
  634MOL0     C85497   1.770   2.332   3.596 -0.2289 -0.0220  0.1252
  634MOL0     C85498   1.695   2.459   3.541  0.9230 -0.4114 -0.1237
  634MOL0     C85499   1.540   2.442   3.555  0.3460 -0.1992  0.0960
  634MOL0    Cl85500   1.457   2.590   3.506 -0.0577 -0.3413  0.0678
  634MOL0     C85501   2.418   2.089   3.508  0.2984 -0.3603 -0.5509
  634MOL0     C85502   2.552   2.069   3.474  0.8475  0.2523  0.7224
  634MOL0     O85503   2.844   2.004   3.702  0.3594 -0.0541  0.1291
  634MOL0     C85504   3.104   1.987   3.635  0.5342 -0.2627 -0.0615
  634MOL0     C85505   3.235   1.974   3.600  0.1171 -0.0053  0.3426
  634MOL0     N85506   3.652   2.050   2.820 -0.1219 -1.1332  0.9692
  634MOL0     N85507   3.735   2.055   2.722 -0.2746  0.0311  0.8305
  634MOL0     C85508   4.853   1.889   2.331  0.4060 -0.6474 -0.0073
  634MOL0     C85509   4.955   1.798   2.323 -0.3259  0.0326 -0.0971
  634MOL0     C85510   5.194   1.433   2.181 -0.3743  0.6337 -0.3051
  634MOL0     C85511   5.223   1.332   2.086  0.8806 -0.3694 -0.0876
  634MOL0     C85512   5.346   1.270   2.080 -0.8512 -0.2406 -0.3603
  634MOL0     C85513   5.448   1.304   2.166  0.6202 -0.1132 -0.0213
  634MOL0     O85514   5.571   1.245   2.181 -0.5615  0.9173  0.6271
  634MOL0     C85515   5.610   1.144   2.090 -0.3546  0.0398  0.5497
  634MOL0     C85516   5.752   1.087   2.105  0.5320  0.4339 -1.4859
  634MOL0     C85517   5.858   1.202   2.115 -0.9874 -0.3684  0.4903
  634MOL0     C85518   6.005   1.158   2.111 -0.8355  0.1997 -0.0997
  634MOL0     C85519   6.094   1.256   2.048 -0.1550 -0.3504 -0.2317
  634MOL0     C85520   6.174   1.320   1.987 -0.2252  0.6401 -1.0710
  634MOL0     C85521   5.420   1.403   2.267  0.0212  0.2217  0.3864
  634MOL0     C85522   5.299   1.470   2.266 -0.4360 -0.2052 -0.0800
  634MOL0     H85523   4.792   1.513   2.255 -1.7080  0.5407 -3.9599
  634MOL0     H85524   4.600   1.690   2.260 -1.0380  2.8936 -0.3867
  634MOL0     H85525   4.649   2.077   2.462  0.7210  1.3050  1.1254
  634MOL0     H85526   4.716   2.130   2.297 -0.6827 -1.5765 -1.3163
  634MOL0     H85527   4.544   2.262   2.388  2.5208 -1.4439  2.2634
  634MOL0     H85528   4.486   2.178   2.231  2.5963  0.7971 -1.1446
  634MOL0     H85529   4.336   2.039   2.321  0.5695 -0.5640  0.4905
  634MOL0     H85530   4.410   2.041   2.474  0.8768 -2.1130 -1.1959
  634MOL0     H85531   4.324   2.278   2.509 -0.9410  0.2846 -0.0358
  634MOL0     H85532   4.259   2.276   2.344 -1.0268  0.7666  0.5312
  634MOL0     H85533   4.064   2.217   2.494 -0.5509 -1.5462  0.1218
  634MOL0     H85534   4.105   2.071   2.418  0.3293  1.9602 -1.8321
  634MOL0     H85535   4.231   2.004   2.633  0.6145  0.8867 -0.3362
  634MOL0     H85536   4.242   2.173   2.685 -1.6140 -0.3904  2.4206
  634MOL0     H85537   4.088   2.095   2.828 -0.5467  2.7981  0.6018
  634MOL0     H85538   4.005   2.188   2.704  1.1173  0.4031 -2.9814
  634MOL0     H85539   4.016   1.877   2.718 -1.1096 -0.4346  1.5655
  634MOL0     H85540   3.955   1.978   2.580  1.1546  2.4471  0.4532
  634MOL0     H85541   3.885   1.859   2.938 -0.5040  1.6416  3.9103
  634MOL0     H85542   3.531   1.926   3.036  0.5262  1.2572 -0.0495
  634MOL0     H85543   3.691   1.860   3.087  0.2442  0.2893 -0.9505
  634MOL0     H85544   3.578   2.133   3.149  0.4874  1.9853  0.3205
  634MOL0     H85545   3.746   2.093   3.165  1.5931 -2.6002 -0.5754
  634MOL0     H85546   3.631   2.048   3.376 -1.0564  0.3547 -0.8032
  634MOL0     H85547   3.681   1.892   3.307  0.9806  0.4557 -1.6638
  634MOL0     H85548   3.451   1.835   3.266  1.8229  0.7847 -0.5058
  634MOL0     H85549   3.406   1.990   3.236  1.1303  0.7869 -0.1736
  634MOL0     H85550   3.206   1.928   3.262  1.3386 -1.3790  1.5477
  634MOL0     H85551   3.017   1.992   3.192 -1.6656  0.2697 -1.3963
  634MOL0     H85552   2.889   1.895   3.262  0.0386 -0.0010 -1.2156
  634MOL0     H85553   2.895   2.066   3.297  1.6221  0.7900  1.6189
  634MOL0     H85554   2.635   1.824   3.686 -1.3060 -0.6999 -0.7032
  634MOL0     H85555   2.424   1.858   3.766 -2.9480 -2.6525 -1.8427
  634MOL0     H85556   2.224   1.928   3.826 -0.3867 -0.6700  0.1284
  634MOL0     H85557   2.261   2.100   3.864 -3.1613  2.0486  1.3077
  634MOL0     H85558   2.003   1.989   3.749 -0.8856 -2.2053  2.6979
  634MOL0     H85559   2.021   2.029   3.916 -1.6961 -1.6551 -0.9332
  634MOL0     H85560   2.048   2.278   3.839  2.4375 -1.2294 -1.0879
  634MOL0     H85561   1.895   2.190   3.816  0.9105 -0.7154  2.4267
  634MOL0     H85562   2.098   2.253   3.593  0.7465  1.3268  1.8462
  634MOL0     H85563   1.974   2.136   3.581 -0.3763  0.6555 -0.9849
  634MOL0     H85564   1.938   2.366   3.470  0.0429 -2.7235 -0.5088
  634MOL0     H85565   1.950   2.444   3.638 -1.5584  0.2228  1.9623
  634MOL0     H85566   1.742   2.246   3.534 -0.5883  0.2662 -0.1173
  634MOL0     H85567   1.760   2.314   3.704  2.9627  0.6528  0.6344
  634MOL0     H85568   1.724   2.492   3.441  2.2561  1.3031  0.7642
  634MOL0     H85569   1.719   2.546   3.604 -2.8641  1.3740 -0.8532
  634MOL0     H85570   1.512   2.432   3.660 -0.0897 -2.2962 -0.1669
  634MOL0     H85571   1.506   2.356   3.495 -2.1438  0.2897  0.6973
  634MOL0     H85572   2.351   2.157   3.456  1.6762  0.8525 -0.7880
  634MOL0     H85573   2.600   2.118   3.390 -1.2024 -0.9425 -1.2541
  634MOL0     H85574   3.079   2.007   3.739 -0.8800 -0.7302 -0.2980
  634MOL0     H85575   3.304   1.962   3.683 -3.5484 -0.5056  3.5963
  634MOL0     H85576   4.879   1.994   2.348  1.1355 -0.8466  0.1705
  634MOL0     H85577   5.053   1.836   2.348 -0.6435  0.5410  0.3784
  634MOL0     H85578   5.140   1.296   2.026  1.6596 -0.3900 -1.1847
  634MOL0     H85579   5.378   1.191   2.012 -0.0196 -0.5008  0.3155
  634MOL0     H85580   5.537   1.063   2.100  0.2845 -0.6750 -0.3938
  634MOL0     H85581   5.597   1.196   1.994 -0.7628  0.7038  0.9510
  634MOL0     H85582   5.778   1.014   2.028  2.9890  1.5613 -1.8203
  634MOL0     H85583   5.755   1.039   2.204 -2.4517  2.6042 -0.2072
  634MOL0     H85584   5.838   1.267   2.201 -1.2290 -0.4967  0.5319
  634MOL0     H85585   5.832   1.257   2.024 -1.2608  0.7318  1.2135
  634MOL0     H85586   6.023   1.069   2.051 -0.8392  1.8179 -2.6568
  634MOL0     H85587   6.033   1.131   2.214  1.2565  0.7673 -0.4598
  634MOL0     H85588   6.254   1.377   1.944  0.7117 -0.9847 -1.5636
  634MOL0     H85589   5.493   1.416   2.345  0.4517 -3.1170  0.6871
  634MOL0     H85590   5.297   1.550   2.339  2.6561  0.4204 -0.5361
  635MOL0     O85591   7.743   7.882   6.012 -0.2399 -0.1180 -0.0673
  635MOL0     C85592   7.747   7.850   6.132 -0.1419 -0.8341  0.6592
  635MOL0     O85593   7.650   7.805   6.207  0.5207  0.0773  0.2722
  635MOL0     C85594   7.518   7.817   6.161 -0.8013  0.2615 -0.0683
  635MOL0     C85595   7.473   7.925   6.077  0.2630  0.2235  0.1031
  635MOL0     C85596   7.338   7.934   6.057  0.9370  0.0196  0.2646
  635MOL0     C85597   7.242   7.833   6.095  0.2751  0.2926  0.1442
  635MOL0     O85598   7.114   7.821   6.049  0.3357  0.4379  0.1024
  635MOL0     C85599   7.087   7.900   5.928  0.4299  0.5119 -0.2775
  635MOL0     C85600   6.961   7.853   5.856 -1.0787  0.6956  0.0854
  635MOL0     C85601   6.824   7.876   5.934 -0.5383 -0.2297  0.0111
  635MOL0     C85602   6.704   7.824   5.850 -0.1249  0.9855 -0.7969
  635MOL0     C85603   6.564   7.862   5.917 -0.4355 -0.4233 -0.4146
  635MOL0     C85604   6.465   7.782   5.834 -0.1189 -0.2529  0.1602
  635MOL0     C85605   6.326   7.836   5.871 -0.0873 -0.3489  0.0496
  635MOL0     C85606   6.212   7.753   5.811  0.4774 -0.2020  0.0799
  635MOL0     N85607   6.078   7.796   5.860 -0.8223  0.4222 -0.2686
  635MOL0     C85608   6.014   7.918   5.850 -1.1668  0.5033 -0.0646
  635MOL0     C85609   5.915   7.921   5.945  0.2510  0.4843  0.2111
  635MOL0     C85610   5.817   8.036   5.966 -1.2502 -0.0966 -0.1098
  635MOL0     C85611   5.678   7.998   5.911  1.1524 -0.8115  0.1776
  635MOL0     C85612   5.567   8.086   5.976  0.1532  0.3524 -0.3943
  635MOL0     C85613   5.444   7.998   5.990 -0.3010 -0.4506 -0.3352
  635MOL0     O85614   5.386   7.984   5.862  0.7851  0.1815 -0.1683
  635MOL0     C85615   5.251   7.960   5.856  0.1063  0.0882 -0.8533
  635MOL0     C85616   5.195   7.857   5.937 -0.6610 -1.1852  0.1686
  635MOL0     C85617   5.061   7.821   5.931  0.2991  0.2832  0.7292
  635MOL0     C85618   5.021   7.698   6.009 -0.1776  0.5171  0.0637
  635MOL0     C85619   4.977   7.890   5.839 -0.3701 -0.7005 -0.1693
  635MOL0     C85620   4.830   7.863   5.838  0.5003  0.4662 -0.6993
  635MOL0     O85621   4.768   7.941   5.745  0.0420 -0.1775  0.2380
  635MOL0     C85622   4.635   7.926   5.717 -0.0842 -0.0666  0.5520
  635MOL0     C85623   4.596   7.897   5.585  0.9013 -0.3873  0.1115
  635MOL0     C85624   4.462   7.905   5.547 -0.5571  0.0727  0.1652
  635MOL0     C85625   4.366   7.923   5.649  0.5336  0.6550  0.1901
  635MOL0     O85626   4.232   7.921   5.619 -0.1775 -0.1549 -0.4591
  635MOL0     C85627   4.174   7.838   5.519 -0.8749  0.2500  0.3036
  635MOL0     C85628   4.026   7.852   5.527 -0.6171 -0.2176  0.2040
  635MOL0     C85629   3.969   7.988   5.479  0.3770  0.0478  0.2609
  635MOL0     C85630   3.826   7.999   5.525 -0.3013  0.3280 -0.5112
  635MOL0     C85631   3.765   8.135   5.523 -0.4157 -0.8557  0.7950
  635MOL0     C85632   3.643   8.148   5.602  0.0262 -0.2980 -0.2851
  635MOL0     C85633   3.519   8.059   5.552 -0.0525  0.3864  0.4824
  635MOL0     C85634   3.414   8.075   5.657  0.0711  0.3103  0.5102
  635MOL0    Cl85635   3.365   8.234   5.677  0.1987 -0.3984 -0.1333
  635MOL0     C85636   4.404   7.947   5.781 -0.7158  0.4970  0.6902
  635MOL0     C85637   4.538   7.951   5.812  0.1891  0.2597  0.2205
  635MOL0     O85638   4.773   7.776   5.905  0.1595  0.1758  0.0638
  635MOL0     C85639   5.036   7.993   5.758 -0.3845  0.1485  0.3958
  635MOL0     C85640   5.170   8.029   5.770  0.7441  0.1610  0.0436
  635MOL0     N85641   5.910   7.800   6.010 -0.7859  0.8722 -0.0228
  635MOL0     N85642   6.004   7.727   5.959 -0.2312  0.0328  0.5084
  635MOL0     C85643   7.296   7.728   6.173  0.1060 -0.3507  0.4393
  635MOL0     C85644   7.429   7.723   6.211  0.1116 -0.6227  0.3074
  635MOL0     C85645   7.880   7.867   6.198  0.1385  0.8224  0.2449
  635MOL0     C85646   8.000   7.896   6.120 -0.1955  0.6165 -0.1695
  635MOL0     C85647   8.126   7.897   6.169 -0.1936  0.3527 -0.0109
  635MOL0     C85648   8.149   7.875   6.312  0.2087  0.4955 -0.0331
  635MOL0     O85649   8.278   7.864   6.377 -0.9996  0.4355  0.4212
  635MOL0     C85650   8.388   7.832   6.286 -0.0135 -0.7399  0.0768
  635MOL0     C85651   8.519   7.831   6.377  0.4455 -0.1774  0.9090
  635MOL0     C85652   8.528   7.706   6.462 -0.3759  0.1689  0.0175
  635MOL0     C85653   8.496   7.572   6.385 -0.8846 -0.0709  0.0078
  635MOL0     C85654   8.606   7.567   6.286 -0.4376  0.2329 -0.7185
  635MOL0     C85655   8.706   7.563   6.220  0.2352 -0.1879 -0.7830
  635MOL0     C85656   8.036   7.871   6.392  0.1980 -0.2287  0.3637
  635MOL0     C85657   7.906   7.857   6.337 -0.2297 -0.2940 -0.0482
  635MOL0     H85658   7.530   8.001   6.025  0.5802  0.7055  1.1365
  635MOL0     H85659   7.305   8.017   5.995  0.2374 -1.6222 -1.6610
  635MOL0     H85660   7.067   8.005   5.951  0.5905  1.1314 -2.7163
  635MOL0     H85661   7.169   7.892   5.855  0.1282  2.5634 -0.9026
  635MOL0     H85662   6.954   7.901   5.758 -0.8921 -0.7065 -0.6489
  635MOL0     H85663   6.971   7.746   5.836  0.0872  0.9659 -0.8926
  635MOL0     H85664   6.841   7.820   6.026 -0.4311  1.5277  1.0964
  635MOL0     H85665   6.805   7.982   5.951 -0.0686  0.3940 -2.7993
  635MOL0     H85666   6.704   7.874   5.753 -2.3026  0.5905 -1.0578
  635MOL0     H85667   6.706   7.715   5.839  1.3561  0.4306  3.1895
  635MOL0     H85668   6.568   7.839   6.024  2.4209  2.4890  0.2781
  635MOL0     H85669   6.548   7.969   5.900  2.5693  0.1245 -0.3772
  635MOL0     H85670   6.494   7.791   5.729  0.2671 -0.5893  0.2331
  635MOL0     H85671   6.464   7.672   5.836 -0.4097 -0.2559 -0.0548
  635MOL0     H85672   6.303   7.836   5.978 -0.1854 -1.8015  0.0426
  635MOL0     H85673   6.322   7.936   5.827  0.1763  0.1742  1.1713
  635MOL0     H85674   6.220   7.648   5.837 -0.0318 -0.0950  0.6906
  635MOL0     H85675   6.225   7.768   5.703 -0.2415 -1.5029 -0.2106
  635MOL0     H85676   6.047   8.000   5.787 -0.6511  0.9039  0.7061
  635MOL0     H85677   5.813   8.056   6.073  0.7702 -0.1181  0.0119
  635MOL0     H85678   5.859   8.127   5.924  1.7695 -0.6764  1.3544
  635MOL0     H85679   5.662   7.892   5.931 -1.7109 -0.0404  2.6357
  635MOL0     H85680   5.681   8.016   5.803  1.3027 -0.6461  0.2084
  635MOL0     H85681   5.554   8.171   5.909  1.6424  1.0163  0.1250
  635MOL0     H85682   5.608   8.116   6.073 -1.4251  0.2383  0.3392
  635MOL0     H85683   5.365   8.038   6.056  0.3358  3.1059 -1.4806
  635MOL0     H85684   5.465   7.899   6.031 -1.7332 -0.0964  1.4321
  635MOL0     H85685   5.258   7.813   6.014  0.3486  2.0125  1.3498
  635MOL0     H85686   4.945   7.723   6.083  1.3546  1.1021  1.5268
  635MOL0     H85687   4.979   7.612   5.957  0.7493 -0.2119  0.4899
  635MOL0     H85688   5.099   7.652   6.071 -2.9320 -2.7356  1.4088
  635MOL0     H85689   4.659   7.862   5.504 -1.1626 -3.6291 -0.2888
  635MOL0     H85690   4.445   7.878   5.443 -0.7903  1.6829 -0.2288
  635MOL0     H85691   4.201   7.873   5.419  1.4974 -1.7434  0.1638
  635MOL0     H85692   4.212   7.736   5.525  0.9035  0.8101 -0.6919
  635MOL0     H85693   3.983   7.785   5.452 -2.0766  3.1545 -2.2747
  635MOL0     H85694   3.998   7.830   5.630 -0.9328  0.3058  0.2376
  635MOL0     H85695   3.980   7.991   5.370  1.9901 -0.2082  0.3921
  635MOL0     H85696   4.023   8.069   5.529  1.0575  0.5961 -1.2752
  635MOL0     H85697   3.785   7.925   5.456 -0.1408  0.5520 -0.8508
  635MOL0     H85698   3.824   7.969   5.630 -1.5344  0.4858 -0.4674
  635MOL0     H85699   3.754   8.162   5.418  2.6448  0.8109  0.7809
  635MOL0     H85700   3.840   8.204   5.562 -1.4761  0.2133  1.0132
  635MOL0     H85701   3.664   8.125   5.707 -0.1027  0.9672  0.0284
  635MOL0     H85702   3.606   8.250   5.594 -2.1670 -0.9091  1.0256
  635MOL0     H85703   3.542   7.952   5.546 -1.4417  0.0653  0.5625
  635MOL0     H85704   3.494   8.081   5.448 -0.2441  1.3102  0.7175
  635MOL0     H85705   3.455   8.046   5.755 -1.5667  1.1290  1.4695
  635MOL0     H85706   3.326   8.014   5.635  0.0900  1.0748 -1.9279
  635MOL0     H85707   4.324   7.950   5.855  0.5196 -5.5454  2.8969
  635MOL0     H85708   4.574   7.980   5.910  2.8557 -0.6697 -0.4124
  635MOL0     H85709   4.982   8.039   5.676  2.2598  1.2350 -0.8514
  635MOL0     H85710   5.217   8.103   5.705  1.5256 -0.2445  0.1285
  635MOL0     H85711   7.239   7.642   6.208  1.0538 -0.5598  1.5248
  635MOL0     H85712   7.479   7.639   6.257  0.7589  0.3899  1.5105
  635MOL0     H85713   7.987   7.908   6.013  1.7316  0.0662 -0.5124
  635MOL0     H85714   8.212   7.918   6.107  0.8366  0.0675  1.2546
  635MOL0     H85715   8.369   7.750   6.216  1.8171  0.1859 -1.6085
  635MOL0     H85716   8.415   7.920   6.228  0.6311 -1.2996 -0.4806
  635MOL0     H85717   8.518   7.919   6.442 -0.0943  1.5373 -1.2744
  635MOL0     H85718   8.603   7.834   6.306 -1.8303 -0.5167 -2.0116
  635MOL0     H85719   8.459   7.712   6.547  1.0904  1.6182  1.1711
  635MOL0     H85720   8.622   7.697   6.516 -0.7829 -2.2372  0.4239
  635MOL0     H85721   8.399   7.556   6.337 -0.6053 -4.3311  0.5219
  635MOL0     H85722   8.510   7.491   6.458 -1.8076 -0.7143 -0.5089
  635MOL0     H85723   8.791   7.563   6.156 -0.4047  0.0826 -1.6524
  635MOL0     H85724   8.049   7.858   6.499 -2.0346  1.0695  0.8661
  635MOL0     H85725   7.829   7.825   6.406  0.2002 -0.4197  0.3779
  636MOL0     O85726   6.730   3.576   7.890 -0.9426 -0.4863 -0.3380
  636MOL0     C85727   6.726   3.695   7.857  0.9356 -0.0346 -1.0343
  636MOL0     O85728   6.605   3.765   7.831  0.4446 -0.1855  0.1902
  636MOL0     C85729   6.486   3.689   7.825 -0.0562  0.4434  0.5274
  636MOL0     C85730   6.375   3.719   7.901 -0.0343  0.1250 -0.0758
  636MOL0     C85731   6.259   3.639   7.884  0.1440 -0.7727 -0.2955
  636MOL0     C85732   6.253   3.532   7.792 -0.8507  0.3286 -0.4558
  636MOL0     O85733   6.150   3.458   7.757 -0.6428  0.1630 -0.6965
  636MOL0     C85734   6.012   3.501   7.780  0.1634 -1.0363 -0.2213
  636MOL0     C85735   5.917   3.389   7.852  0.0163  0.6092 -0.0084
  636MOL0     C85736   5.797   3.433   7.942 -0.5097 -0.4740  0.0037
  636MOL0     C85737   5.736   3.317   8.013 -0.0264 -0.3290  0.3831
  636MOL0     C85738   5.630   3.364   8.110  0.1637 -0.1614 -0.1752
  636MOL0     C85739   5.587   3.261   8.203  0.6857 -0.1460 -1.1231
  636MOL0     C85740   5.487   3.304   8.313  0.8884  0.3312 -1.1119
  636MOL0     C85741   5.410   3.185   8.374 -0.5026  0.4784 -0.1395
  636MOL0     N85742   5.308   3.143   8.273 -0.1394  0.0214 -0.0971
  636MOL0     C85743   5.187   3.196   8.258  1.2060 -1.1234 -0.7618
  636MOL0     C85744   5.134   3.120   8.163  0.4113 -1.0641  0.3166
  636MOL0     C85745   4.996   3.126   8.112 -1.0613 -0.1670  0.0171
  636MOL0     C85746   4.903   3.134   8.239  0.2523  0.4544  0.2747
  636MOL0     C85747   4.755   3.132   8.207 -0.0964 -0.1490  0.1233
  636MOL0     C85748   4.712   3.246   8.127 -0.3941 -0.3081  0.2355
  636MOL0     O85749   4.728   3.227   7.982 -0.2445 -0.1051 -0.1032
  636MOL0     C85750   4.618   3.197   7.911 -0.4244 -0.6370  0.0778
  636MOL0     C85751   4.628   3.104   7.808 -0.3604 -0.0827  0.8839
  636MOL0     C85752   4.520   3.051   7.739  0.9616 -0.0741  0.4052
  636MOL0     C85753   4.543   2.945   7.627 -0.2204 -0.6629 -0.2392
  636MOL0     C85754   4.388   3.103   7.767  0.0160  0.3398 -0.2486
  636MOL0     C85755   4.258   3.049   7.719 -0.0115 -0.4365  0.0925
  636MOL0     O85756   4.250   2.928   7.656  0.3404 -0.2005  0.3529
  636MOL0     C85757   4.125   2.864   7.639 -0.3322 -0.1670 -0.7755
  636MOL0     C85758   4.071   2.770   7.727 -0.2255  0.1013  0.5027
  636MOL0     C85759   3.939   2.723   7.723  0.4207  0.0896  0.1078
  636MOL0     C85760   3.847   2.760   7.629  0.1722 -0.1703  0.3122
  636MOL0     O85761   3.721   2.707   7.636 -0.2476 -0.0537 -0.2835
  636MOL0     C85762   3.654   2.665   7.513 -0.7216 -0.0109  0.6692
  636MOL0     C85763   3.500   2.668   7.533 -0.1301  0.1004  1.4301
  636MOL0     C85764   3.439   2.652   7.393  0.1937  0.0978  0.1548
  636MOL0     C85765   3.287   2.633   7.396  0.8003  0.4190  0.0740
  636MOL0     C85766   3.230   2.504   7.465  0.1193  0.2608  0.8161
  636MOL0     C85767   3.083   2.499   7.473  0.3112 -0.2469  0.4889
  636MOL0     C85768   3.030   2.588   7.587  0.4249  0.3625 -0.1170
  636MOL0     C85769   2.884   2.575   7.602 -0.2823  0.1972 -0.4438
  636MOL0    Cl85770   2.799   2.673   7.478 -0.3775 -0.4531 -0.0874
  636MOL0     C85771   3.890   2.855   7.529  0.4981 -0.1944 -0.4941
  636MOL0     C85772   4.025   2.904   7.542  0.1555 -0.0706 -0.0031
  636MOL0     O85773   4.160   3.115   7.754 -0.5092  0.2749 -0.1324
  636MOL0     C85774   4.382   3.205   7.864 -0.1199  0.3280 -0.6742
  636MOL0     C85775   4.490   3.248   7.931 -0.0285  0.1335 -0.5515
  636MOL0     N85776   5.227   3.026   8.121 -0.3341  0.8990  0.1149
  636MOL0     N85777   5.338   3.042   8.186  0.2367  0.2553  0.0513
  636MOL0     C85778   6.374   3.498   7.729  0.3383 -0.0426 -0.0655
  636MOL0     C85779   6.490   3.574   7.746  0.3942 -0.2351 -0.4495
  636MOL0     C85780   6.850   3.771   7.850  0.0992  0.2374 -0.4248
  636MOL0     C85781   6.977   3.720   7.888 -0.1752 -0.4303  0.7527
  636MOL0     C85782   7.093   3.805   7.879 -0.1759 -0.0450 -0.7818
  636MOL0     C85783   7.073   3.940   7.838  0.0786  0.8824 -0.0835
  636MOL0     O85784   7.188   4.017   7.840  0.3407 -0.3550  0.2043
  636MOL0     C85785   7.208   4.111   7.735  0.4862 -1.2443  0.5317
  636MOL0     C85786   7.355   4.181   7.755  0.4548  0.5290  0.5674
  636MOL0     C85787   7.389   4.268   7.889 -0.7870  0.2367 -0.1973
  636MOL0     C85788   7.306   4.400   7.908  0.0822  0.2486  1.2899
  636MOL0     C85789   7.178   4.364   7.974  0.3657  0.5861  0.1669
  636MOL0     C85790   7.074   4.334   8.015  0.8499 -0.0713 -0.0687
  636MOL0     C85791   6.951   3.986   7.798  0.4185  0.0373 -0.6141
  636MOL0     C85792   6.839   3.905   7.810  0.2229  0.3940  0.4217
  636MOL0     H85793   6.362   3.812   7.956 -0.5830  1.3093 -2.1249
  636MOL0     H85794   6.170   3.663   7.942 -0.1097 -0.9593 -0.6018
  636MOL0     H85795   6.008   3.585   7.851 -0.0537 -0.2682 -1.1227
  636MOL0     H85796   5.970   3.529   7.683 -0.9337  0.0191  0.5164
  636MOL0     H85797   5.882   3.324   7.772  0.4187 -1.0490  1.1113
  636MOL0     H85798   5.979   3.333   7.922 -0.1548 -0.4665 -0.7053
  636MOL0     H85799   5.837   3.505   8.015 -0.6805 -0.6127  0.2376
  636MOL0     H85800   5.726   3.492   7.883 -1.4032 -0.6294  0.8860
  636MOL0     H85801   5.693   3.244   7.944  0.0567 -0.9233  0.9489
  636MOL0     H85802   5.810   3.260   8.070 -0.8950 -1.8217  0.0825
  636MOL0     H85803   5.672   3.450   8.165  0.5495  0.8864 -2.0024
  636MOL0     H85804   5.552   3.405   8.045 -1.0678 -1.3020  0.5520
  636MOL0     H85805   5.543   3.181   8.143  1.1478 -0.1967 -1.3984
  636MOL0     H85806   5.677   3.228   8.257  0.6587  2.6396  0.8434
  636MOL0     H85807   5.534   3.348   8.401  0.8670  0.0987 -0.9845
  636MOL0     H85808   5.423   3.382   8.271 -5.1306 -1.3372  3.5774
  636MOL0     H85809   5.356   3.219   8.463 -0.5561  1.1499 -0.4220
  636MOL0     H85810   5.462   3.093   8.402 -2.8883 -1.9830 -2.9978
  636MOL0     H85811   5.138   3.273   8.316  2.3018 -1.1575  0.2486
  636MOL0     H85812   5.001   3.219   8.054 -0.6335 -0.5205 -0.5241
  636MOL0     H85813   4.980   3.038   8.050  1.6784 -2.6609  2.5136
  636MOL0     H85814   4.925   3.219   8.304  0.7839  1.1093 -0.7223
  636MOL0     H85815   4.921   3.045   8.300 -1.3460  0.7949  1.3151
  636MOL0     H85816   4.699   3.140   8.301 -1.0934 -1.0194 -0.3860
  636MOL0     H85817   4.724   3.039   8.159  1.2233  0.7950 -2.7465
  636MOL0     H85818   4.761   3.342   8.147  1.1337 -0.4818 -2.2618
  636MOL0     H85819   4.606   3.249   8.155 -0.6258 -0.5546 -0.5728
  636MOL0     H85820   4.724   3.057   7.791  0.7832  1.6047  2.3539
  636MOL0     H85821   4.638   2.894   7.649 -0.0873 -0.9108 -1.3236
  636MOL0     H85822   4.475   2.859   7.623 -1.0994 -0.0898  1.5887
  636MOL0     H85823   4.550   2.997   7.531 -3.4556  3.0905  1.3050
  636MOL0     H85824   4.143   2.739   7.802 -1.1075  1.3792  1.9359
  636MOL0     H85825   3.895   2.649   7.789  0.4994 -2.5936 -2.6375
  636MOL0     H85826   3.677   2.723   7.423  2.2947 -2.0399 -0.0323
  636MOL0     H85827   3.674   2.560   7.492 -4.0991 -0.4383 -1.1883
  636MOL0     H85828   3.472   2.585   7.598 -2.2106  0.8263  1.5531
  636MOL0     H85829   3.471   2.768   7.569  1.1359  1.0590 -0.0633
  636MOL0     H85830   3.486   2.561   7.355  2.8587 -0.8560  4.9381
  636MOL0     H85831   3.472   2.741   7.338  0.0063  0.6957  0.9764
  636MOL0     H85832   3.240   2.717   7.448  1.7800  0.5129  0.8566
  636MOL0     H85833   3.254   2.627   7.293 -0.4869 -0.9106  0.5292
  636MOL0     H85834   3.271   2.493   7.566 -3.2435 -0.0963  2.2710
  636MOL0     H85835   3.259   2.414   7.411  1.4469 -1.7540  4.4677
  636MOL0     H85836   3.043   2.529   7.375 -1.6646  1.3531  1.7224
  636MOL0     H85837   3.048   2.396   7.482  0.1730 -0.1990  0.4895
  636MOL0     H85838   3.052   2.694   7.568 -1.9295  1.0602  0.6912
  636MOL0     H85839   3.076   2.568   7.684  3.4973  3.6357 -0.6524
  636MOL0     H85840   2.866   2.624   7.698 -1.1830  1.6577 -1.3150
  636MOL0     H85841   2.849   2.472   7.592 -1.7086  0.6510 -0.3224
  636MOL0     H85842   3.815   2.892   7.460  3.0848  4.5184 -1.1365
  636MOL0     H85843   4.051   2.990   7.481 -1.5644  0.7325  0.3323
  636MOL0     H85844   4.287   3.247   7.894  1.6939  1.6185  4.2779
  636MOL0     H85845   4.469   3.332   7.997 -1.6653  0.6038 -1.6106
  636MOL0     H85846   6.377   3.406   7.671  0.6523  0.3456 -0.6881
  636MOL0     H85847   6.584   3.549   7.698  1.1158  1.1668  0.1891
  636MOL0     H85848   7.002   3.619   7.920  1.6257  0.5956  2.9515
  636MOL0     H85849   7.186   3.761   7.912  0.1488  1.4642  0.3834
  636MOL0     H85850   7.194   4.073   7.633  1.7118 -0.6828  0.1374
  636MOL0     H85851   7.129   4.187   7.738  0.9438 -0.7724  0.6021
  636MOL0     H85852   7.374   4.251   7.673 -3.6934 -0.3707 -1.4271
  636MOL0     H85853   7.434   4.106   7.751  2.7564  2.8488 -0.8822
  636MOL0     H85854   7.492   4.305   7.888 -0.2577 -1.1304 -2.0042
  636MOL0     H85855   7.368   4.215   7.982 -3.0213  0.1466 -0.7003
  636MOL0     H85856   7.285   4.447   7.811 -1.5299  0.7828  1.8518
  636MOL0     H85857   7.364   4.480   7.955  3.3562 -0.6802 -0.8452
  636MOL0     H85858   6.975   4.314   8.050  1.1380 -0.4032  0.5709
  636MOL0     H85859   6.945   4.087   7.758 -1.0676  0.5863  0.8493
  636MOL0     H85860   6.750   3.960   7.781 -0.5167 -0.6454  0.6579
  637MOL0     O85861   0.773   4.279   2.520  0.2161  0.0018 -0.3849
  637MOL0     C85862   0.843   4.181   2.545 -0.5579  1.0677  1.0664
  637MOL0     O85863   0.792   4.056   2.594 -0.1130 -0.1362  0.6693
  637MOL0     C85864   0.651   4.051   2.607  0.1105  0.3801 -0.4184
  637MOL0     C85865   0.588   4.064   2.731 -0.6721  0.2396  0.8055
  637MOL0     C85866   0.454   4.073   2.747 -0.3040  0.2283 -0.2573
  637MOL0     C85867   0.368   4.088   2.641 -0.6437 -0.2811  0.1389
  637MOL0     O85868   0.234   4.103   2.644  0.2097  0.9377 -0.2924
  637MOL0     C85869   0.164   4.132   2.765  0.7752 -0.2618 -0.5564
  637MOL0     C85870   0.018   4.110   2.756 -0.0850  0.2654  0.3354
  637MOL0     C85871  -0.032   3.968   2.780  0.1076  1.2913  0.6053
  637MOL0     C85872  -0.001   3.867   2.676  0.2409  0.3014  0.0440
  637MOL0     C85873  -0.081   3.888   2.547  0.4428  0.2225 -0.6208
  637MOL0     C85874  -0.234   3.872   2.560  0.1521 -0.6926  1.0821
  637MOL0     C85875  -0.304   3.855   2.426 -0.6110  0.3750 -0.3193
  637MOL0     C85876  -0.457   3.897   2.446 -0.3845 -0.3461 -0.0369
  637MOL0     N85877  -0.516   3.905   2.314  0.2629 -0.3089  0.6385
  637MOL0     C85878  -0.604   3.808   2.264 -0.6708 -0.3630  0.3782
  637MOL0     C85879  -0.665   3.877   2.156 -0.1926 -0.4801 -0.2265
  637MOL0     C85880  -0.766   3.816   2.061  0.5680  0.1936 -0.1782
  637MOL0     C85881  -0.892   3.902   2.056 -0.0485 -0.5698 -0.5265
  637MOL0     C85882  -0.997   3.845   1.965 -0.4647 -0.2427 -0.3848
  637MOL0     C85883  -1.117   3.937   1.964 -0.0954  0.0251 -0.7456
  637MOL0     O85884  -1.197   3.897   1.848 -0.8157  0.4270 -0.2575
  637MOL0     C85885  -1.330   3.938   1.851 -0.1946  0.5537  0.1450
  637MOL0     C85886  -1.403   3.998   1.954 -0.2356  0.1823  0.5456
  637MOL0     C85887  -1.547   4.013   1.943  1.4262 -0.2733  0.2935
  637MOL0     C85888  -1.610   4.086   2.059  0.0667  0.6666 -0.4709
  637MOL0     C85889  -1.611   3.958   1.832  0.1878 -0.2812 -0.3635
  637MOL0     C85890  -1.756   3.931   1.815 -0.2568  0.0755  0.1581
  637MOL0     O85891  -1.801   3.873   1.692  0.2401 -0.2416 -0.2484
  637MOL0     C85892  -1.929   3.852   1.659 -0.1269 -0.3397 -0.3645
  637MOL0     C85893  -2.025   3.815   1.751  1.5291 -0.1463  0.8369
  637MOL0     C85894  -2.153   3.776   1.716 -0.0147 -0.6659 -0.0035
  637MOL0     C85895  -2.187   3.758   1.579 -0.4523  0.3633 -1.2659
  637MOL0     O85896  -2.310   3.717   1.544  0.8498 -0.2221  0.7940
  637MOL0     C85897  -2.367   3.804   1.442 -0.1776  0.6579 -0.3085
  637MOL0     C85898  -2.520   3.811   1.454 -0.3077  0.7943  0.6768
  637MOL0     C85899  -2.568   3.663   1.435 -0.0800  0.3101 -0.2470
  637MOL0     C85900  -2.721   3.646   1.430 -0.0816 -0.1543  0.4174
  637MOL0     C85901  -2.761   3.515   1.364  0.4772  0.5825  1.0695
  637MOL0     C85902  -2.915   3.506   1.373  0.1062 -0.1509 -0.2076
  637MOL0     C85903  -2.980   3.370   1.340 -0.1858  0.4759 -0.1907
  637MOL0     C85904  -3.132   3.369   1.339  0.7513  0.5627  0.2808
  637MOL0    Cl85905  -3.201   3.213   1.274 -0.7319 -0.0629 -0.2524
  637MOL0     C85906  -2.088   3.799   1.484 -0.8730  0.3762  0.1290
  637MOL0     C85907  -1.962   3.848   1.523  0.8071  0.9103 -0.0379
  637MOL0     O85908  -1.826   3.972   1.905  0.4420  0.2408  1.6463
  637MOL0     C85909  -1.529   3.906   1.725 -0.5468  0.0667  0.4176
  637MOL0     C85910  -1.394   3.896   1.742  0.9407  0.1674 -0.0611
  637MOL0     N85911  -0.620   4.011   2.142 -0.0013 -0.1430 -0.4073
  637MOL0     N85912  -0.535   4.018   2.242  0.0179 -0.7364  0.4849
  637MOL0     C85913   0.422   4.076   2.513  0.0795  0.1487 -0.3056
  637MOL0     C85914   0.562   4.063   2.493 -0.4103  0.7942 -0.0418
  637MOL0     C85915   0.988   4.201   2.515 -0.5968  0.1468  0.3276
  637MOL0     C85916   1.067   4.086   2.517 -0.3997 -0.0913 -0.6072
  637MOL0     C85917   1.204   4.100   2.477 -0.0228  0.9119 -0.7543
  637MOL0     C85918   1.259   4.223   2.442  0.3760 -0.1257  0.0771
  637MOL0     O85919   1.391   4.218   2.414 -0.5167 -0.3537 -0.2130
  637MOL0     C85920   1.458   4.344   2.380  0.1773 -0.2219 -0.5504
  637MOL0     C85921   1.424   4.378   2.238 -0.1662  0.8185  0.5430
  637MOL0     C85922   1.480   4.273   2.147  0.4422  0.7745 -1.2489
  637MOL0     C85923   1.488   4.318   2.002 -0.0783  0.0834  1.0121
  637MOL0     C85924   1.354   4.336   1.944 -0.4577 -0.0220 -0.4538
  637MOL0     C85925   1.245   4.356   1.895 -0.3234 -0.2756  0.5050
  637MOL0     C85926   1.174   4.337   2.443 -0.3816  0.6347 -0.3030
  637MOL0     C85927   1.044   4.325   2.470 -0.2755 -0.4073  0.3642
  637MOL0     H85928   0.647   4.063   2.822 -2.7522 -1.5096  2.2354
  637MOL0     H85929   0.422   4.080   2.850  0.7753  1.5511  0.0096
  637MOL0     H85930   0.196   4.066   2.846 -2.4257  2.0655  2.9553
  637MOL0     H85931   0.185   4.232   2.803  1.3321 -0.5753 -0.0197
  637MOL0     H85932  -0.021   4.168   2.840 -0.5821  0.3415  0.0529
  637MOL0     H85933  -0.023   4.150   2.664  1.3191 -1.8870 -1.3227
  637MOL0     H85934   0.014   3.937   2.874  1.0949 -0.1104 -0.3035
  637MOL0     H85935  -0.140   3.983   2.783  0.2911  4.3010 -1.9819
  637MOL0     H85936   0.104   3.882   2.650 -0.0054  0.7184 -0.7726
  637MOL0     H85937  -0.015   3.765   2.712  0.1098  0.4073  0.2979
  637MOL0     H85938  -0.044   3.978   2.497  2.3097  0.2772  0.7761
  637MOL0     H85939  -0.055   3.810   2.474  2.0422  0.5447 -0.4252
  637MOL0     H85940  -0.258   3.799   2.638 -0.3079  0.1461  1.7509
  637MOL0     H85941  -0.279   3.960   2.608 -0.4676  0.8380 -2.0679
  637MOL0     H85942  -0.259   3.921   2.351  1.1993  1.3204  1.4858
  637MOL0     H85943  -0.302   3.749   2.399 -2.4924  0.6678 -1.8060
  637MOL0     H85944  -0.450   4.000   2.480 -0.7913 -0.1583 -0.5130
  637MOL0     H85945  -0.509   3.825   2.510  0.8155 -1.2353 -0.0187
  637MOL0     H85946  -0.610   3.704   2.297  2.0466 -0.1813  1.7083
  637MOL0     H85947  -0.715   3.812   1.964  0.7833 -0.4077 -0.0414
  637MOL0     H85948  -0.790   3.715   2.094 -0.1566  0.6977  0.8752
  637MOL0     H85949  -0.872   4.003   2.021  2.3408 -1.2422 -1.3513
  637MOL0     H85950  -0.933   3.907   2.157 -0.8805  0.3779 -0.8962
  637MOL0     H85951  -1.017   3.744   2.003  1.1049 -0.9998 -1.4732
  637MOL0     H85952  -0.957   3.835   1.864  0.4793 -2.2809  0.1412
  637MOL0     H85953  -1.097   4.044   1.954 -0.9241 -0.0288 -4.3468
  637MOL0     H85954  -1.178   3.917   2.053  1.3643  0.9407  0.5032
  637MOL0     H85955  -1.358   4.048   2.040  0.4862  2.9356 -1.3063
  637MOL0     H85956  -1.538   4.120   2.133  0.8360  0.5304 -1.1375
  637MOL0     H85957  -1.657   4.176   2.016  0.6355  0.4209 -1.6550
  637MOL0     H85958  -1.684   4.019   2.103  0.1207  0.1023 -1.2109
  637MOL0     H85959  -2.014   3.814   1.859 -0.8607  1.7933  1.1690
  637MOL0     H85960  -2.232   3.761   1.789  0.6959 -0.9686  0.7189
  637MOL0     H85961  -2.322   3.903   1.460  1.0246  0.9991 -4.1904
  637MOL0     H85962  -2.348   3.774   1.338 -1.5306 -0.8069 -0.1561
  637MOL0     H85963  -2.535   3.856   1.552  2.5389  0.8738  1.1528
  637MOL0     H85964  -2.545   3.881   1.374 -0.6179  2.1679  1.9386
  637MOL0     H85965  -2.521   3.604   1.514  0.8405 -0.4637 -1.3192
  637MOL0     H85966  -2.525   3.633   1.338 -0.9255  1.6018 -1.0505
  637MOL0     H85967  -2.759   3.655   1.532  0.6307 -0.9728  0.7690
  637MOL0     H85968  -2.759   3.727   1.368 -1.3580 -1.0696 -0.0336
  637MOL0     H85969  -2.721   3.433   1.424 -2.2129  0.6006  3.0585
  637MOL0     H85970  -2.733   3.511   1.258  1.6234  0.8345  1.3578
  637MOL0     H85971  -2.962   3.533   1.468  0.7721 -2.8489  0.9769
  637MOL0     H85972  -2.956   3.581   1.306  0.1173 -0.2713 -0.3482
  637MOL0     H85973  -2.944   3.294   1.409 -1.2599 -1.4197 -1.6307
  637MOL0     H85974  -2.944   3.349   1.239  0.0184  2.5692 -0.5956
  637MOL0     H85975  -3.178   3.457   1.293 -2.1230  0.8309  3.2735
  637MOL0     H85976  -3.158   3.369   1.446 -0.0742 -0.3601  0.0976
  637MOL0     H85977  -2.104   3.790   1.377 -0.3422  1.0208 -0.0089
  637MOL0     H85978  -1.889   3.867   1.446 -0.1273  2.0465 -0.6802
  637MOL0     H85979  -1.579   3.888   1.631  1.3090  0.3646 -0.6755
  637MOL0     H85980  -1.328   3.862   1.663  1.6064  1.7149 -0.2282
  637MOL0     H85981   0.363   4.095   2.424 -1.1429 -0.5629  0.3304
  637MOL0     H85982   0.599   4.064   2.391 -0.4409  1.4313 -0.0525
  637MOL0     H85983   1.031   3.984   2.528  0.0986 -0.1373  0.7721
  637MOL0     H85984   1.265   4.010   2.472  0.3829  1.0443  0.9796
  637MOL0     H85985   1.423   4.424   2.447 -0.7756 -2.4196  1.7247
  637MOL0     H85986   1.566   4.335   2.388  0.0303 -1.6201  0.1796
  637MOL0     H85987   1.471   4.474   2.215  1.3979 -0.3852 -1.5173
  637MOL0     H85988   1.316   4.391   2.221 -0.1540 -1.8741 -2.4585
  637MOL0     H85989   1.434   4.174   2.159  3.2013 -0.3538  0.8249
  637MOL0     H85990   1.584   4.264   2.179 -0.6303  1.3596  2.9614
  637MOL0     H85991   1.533   4.235   1.948 -1.9275 -0.1840 -0.1915
  637MOL0     H85992   1.549   4.406   1.981  1.0905 -0.2420  2.8322
  637MOL0     H85993   1.150   4.379   1.850 -0.2407  3.5347  1.8928
  637MOL0     H85994   1.218   4.431   2.412  1.2891 -1.1734 -4.1359
  637MOL0     H85995   0.977   4.410   2.468  0.1974 -0.0277  0.3877
  638MOL0     O85996   3.499   5.373   6.407 -0.5454  0.2597 -0.7384
  638MOL0     C85997   3.502   5.498   6.402 -0.6336  0.2847  0.4406
  638MOL0     O85998   3.409   5.572   6.347 -0.3717  0.3563  0.4716
  638MOL0     C85999   3.282   5.524   6.304  0.7828 -0.5263  0.1052
  638MOL0     C86000   3.194   5.623   6.246  0.3874 -0.0636 -0.4595
  638MOL0     C86001   3.068   5.589   6.195 -0.0902 -0.0179 -0.0386
  638MOL0     C86002   3.023   5.462   6.208  0.3741  0.1969  0.0734
  638MOL0     O86003   2.893   5.434   6.169 -0.3226 -0.0851 -0.8322
  638MOL0     C86004   2.791   5.509   6.233 -0.0482 -0.1637  0.1918
  638MOL0     C86005   2.658   5.498   6.161 -0.6250  0.4344  0.0645
  638MOL0     C86006   2.608   5.346   6.157 -0.1101  0.1175 -0.2833
  638MOL0     C86007   2.482   5.329   6.059  0.0092  0.4423 -0.1922
  638MOL0     C86008   2.348   5.377   6.124  0.3882  0.2985 -0.5955
  638MOL0     C86009   2.220   5.353   6.037 -0.1530 -0.2466 -0.0927
  638MOL0     C86010   2.104   5.422   6.115  0.8295 -0.9868 -0.0338
  638MOL0     C86011   1.963   5.381   6.066 -0.7508 -0.4666  0.8262
  638MOL0     N86012   1.850   5.422   6.160 -0.5827  1.4565  1.4187
  638MOL0     C86013   1.758   5.334   6.212  0.2886 -0.6251  0.1402
  638MOL0     C86014   1.681   5.412   6.295  0.4101 -0.4536 -0.1869
  638MOL0     C86015   1.577   5.374   6.392  0.8541  0.0826 -0.0372
  638MOL0     C86016   1.444   5.354   6.315 -0.0383 -0.9289 -0.1329
  638MOL0     C86017   1.329   5.334   6.409 -0.1610  0.7277  0.1442
  638MOL0     C86018   1.190   5.321   6.335 -0.5416  0.0787 -0.0092
  638MOL0     O86019   1.082   5.292   6.418 -0.3359 -0.4252 -0.1514
  638MOL0     C86020   0.955   5.260   6.374  0.1572  0.1208 -0.1276
  638MOL0     C86021   0.873   5.211   6.475  0.5753 -0.0857  0.6445
  638MOL0     C86022   0.743   5.159   6.446  0.0047  0.6264 -0.7166
  638MOL0     C86023   0.678   5.097   6.566 -0.2180 -0.4327  0.4800
  638MOL0     C86024   0.699   5.154   6.313 -0.3509  0.1966  0.1966
  638MOL0     C86025   0.562   5.113   6.272 -0.5076  0.4777 -0.4339
  638MOL0     O86026   0.476   5.061   6.363  0.3037  0.0805 -0.1436
  638MOL0     C86027   0.364   4.994   6.317  0.2425  0.0579 -0.0893
  638MOL0     C86028   0.282   5.053   6.229  0.6273  0.6001  0.6449
  638MOL0     C86029   0.150   4.994   6.209 -0.3797 -0.5268 -0.0606
  638MOL0     C86030   0.109   4.873   6.260  0.3070  0.0060 -0.9815
  638MOL0     O86031  -0.011   4.810   6.224 -0.4822  0.1589 -0.0572
  638MOL0     C86032  -0.124   4.864   6.157 -0.6150 -0.5130  0.3098
  638MOL0     C86033  -0.254   4.880   6.244 -0.4543  0.8101  0.5767
  638MOL0     C86034  -0.225   4.978   6.362  0.1044  0.5166  0.5785
  638MOL0     C86035  -0.218   5.124   6.326 -0.3022  0.2080  0.2059
  638MOL0     C86036  -0.224   5.196   6.465 -0.1600 -0.6773  0.0169
  638MOL0     C86037  -0.251   5.356   6.454  0.2424  0.1461 -0.0938
  638MOL0     C86038  -0.260   5.421   6.597  0.2092  0.3154 -0.1247
  638MOL0     C86039  -0.310   5.569   6.593 -0.3684 -0.2247 -0.7739
  638MOL0    Cl86040  -0.486   5.586   6.568  0.2811 -0.0901  0.3965
  638MOL0     C86041   0.200   4.811   6.347 -0.1709 -0.2293 -0.4554
  638MOL0     C86042   0.319   4.879   6.386 -0.5214 -0.2320 -0.1363
  638MOL0     O86043   0.530   5.137   6.155  0.5386 -0.5971 -0.0359
  638MOL0     C86044   0.789   5.197   6.212 -0.2010 -0.0337 -0.2139
  638MOL0     C86045   0.914   5.248   6.240 -0.6335  0.5867  0.4144
  638MOL0     N86046   1.715   5.548   6.262  0.4962  0.6656  0.6637
  638MOL0     N86047   1.819   5.553   6.193  0.1112  0.4196  0.1048
  638MOL0     C86048   3.109   5.365   6.255  1.0843 -0.6746 -0.6565
  638MOL0     C86049   3.234   5.393   6.299  0.3003 -0.4078  0.2645
  638MOL0     C86050   3.617   5.576   6.453 -0.7824 -0.1146  0.0643
  638MOL0     C86051   3.717   5.498   6.507  0.4406 -0.7862 -0.5697
  638MOL0     C86052   3.838   5.568   6.545  0.8682  0.3567 -0.7177
  638MOL0     C86053   3.852   5.708   6.528 -0.7290  0.5787 -0.3678
  638MOL0     O86054   3.988   5.742   6.548  0.6645 -0.2558  0.3857
  638MOL0     C86055   4.023   5.877   6.563  0.3374  0.0975  0.1755
  638MOL0     C86056   4.169   5.899   6.617 -0.5753 -0.9009  0.7635
  638MOL0     C86057   4.236   6.045   6.580  0.6178 -0.2457  0.3599
  638MOL0     C86058   4.154   6.163   6.619 -0.6510  0.5318 -0.2753
  638MOL0     C86059   4.219   6.291   6.612  0.2603 -0.3926 -0.5843
  638MOL0     C86060   4.283   6.395   6.603  0.0338 -0.3513 -1.3088
  638MOL0     C86061   3.740   5.779   6.496 -0.3463 -1.3820  0.3717
  638MOL0     C86062   3.621   5.721   6.450  0.6811  0.6732  0.7196
  638MOL0     H86063   3.219   5.729   6.248  1.5547 -0.3271  0.9965
  638MOL0     H86064   3.010   5.670   6.152 -1.6635 -0.8828  0.3579
  638MOL0     H86065   2.777   5.475   6.336  0.0275  2.4882  1.1528
  638MOL0     H86066   2.816   5.615   6.241  1.1419 -0.3495 -0.7544
  638MOL0     H86067   2.579   5.559   6.206 -1.8536 -0.2007 -1.1569
  638MOL0     H86068   2.688   5.536   6.063  0.0987 -0.4723 -0.0760
  638MOL0     H86069   2.689   5.285   6.117 -1.4909 -1.1590 -1.2478
  638MOL0     H86070   2.581   5.304   6.254 -2.1811 -0.1249 -0.9197
  638MOL0     H86071   2.498   5.391   5.970 -1.2170  1.0896  0.0049
  638MOL0     H86072   2.479   5.225   6.027 -0.3202  0.9178 -1.7999
  638MOL0     H86073   2.335   5.328   6.221  3.0236 -1.2162 -0.8979
  638MOL0     H86074   2.354   5.483   6.150 -1.0465  0.7241 -1.8437
  638MOL0     H86075   2.237   5.397   5.938  2.4904 -1.2309 -0.1428
  638MOL0     H86076   2.202   5.245   6.029  1.2277 -0.5978  1.2514
  638MOL0     H86077   2.109   5.390   6.219 -1.3447  1.3363  0.8918
  638MOL0     H86078   2.112   5.532   6.112 -2.5911 -0.6728 -1.2273
  638MOL0     H86079   1.970   5.274   6.044  1.9782 -0.4371  1.1492
  638MOL0     H86080   1.945   5.431   5.971  0.0737 -0.7215  0.5272
  638MOL0     H86081   1.751   5.226   6.211 -0.5934 -0.5740  0.2988
  638MOL0     H86082   1.611   5.287   6.449  2.0285  0.3566 -0.2868
  638MOL0     H86083   1.575   5.443   6.477 -0.0550 -1.1248  0.9590
  638MOL0     H86084   1.440   5.277   6.237 -1.0328  0.2583 -1.3029
  638MOL0     H86085   1.427   5.446   6.259  3.4476 -0.0927 -0.0383
  638MOL0     H86086   1.328   5.416   6.481 -0.3545  2.3998 -1.6787
  638MOL0     H86087   1.344   5.237   6.457  1.4792  1.0071  0.2555
  638MOL0     H86088   1.203   5.243   6.260  1.9391 -0.5234  0.9388
  638MOL0     H86089   1.170   5.417   6.287 -1.5276 -1.4225 -2.8382
  638MOL0     H86090   0.925   5.214   6.570  0.1454  0.7584  0.8629
  638MOL0     H86091   0.621   5.174   6.619  1.8113  1.8276 -0.3962
  638MOL0     H86092   0.612   5.015   6.538 -0.0301 -0.5611  0.4115
  638MOL0     H86093   0.746   5.050   6.637  2.9149 -0.2779 -2.1442
  638MOL0     H86094   0.313   5.151   6.194  0.7407  0.5541  0.6180
  638MOL0     H86095   0.090   5.059   6.147  2.6741  3.3143  0.6563
  638MOL0     H86096  -0.104   4.959   6.106 -4.1062  1.8082  2.8627
  638MOL0     H86097  -0.133   4.784   6.082 -1.2732 -0.4382  0.3046
  638MOL0     H86098  -0.340   4.916   6.186 -1.7581  0.4877  2.2518
  638MOL0     H86099  -0.276   4.781   6.286 -2.0032  1.6061  1.7010
  638MOL0     H86100  -0.148   4.939   6.429 -1.3626 -2.6964  0.6317
  638MOL0     H86101  -0.316   4.972   6.424 -0.0158  1.0039  0.4533
  638MOL0     H86102  -0.125   5.139   6.270 -0.5783 -1.6845 -0.8362
  638MOL0     H86103  -0.303   5.149   6.262 -0.3058 -2.5015 -0.9556
  638MOL0     H86104  -0.136   5.171   6.523 -1.2619 -0.7463  1.7248
  638MOL0     H86105  -0.301   5.147   6.525  1.2357 -3.4844 -0.3603
  638MOL0     H86106  -0.165   5.402   6.406 -0.0646  0.0552 -0.7468
  638MOL0     H86107  -0.339   5.371   6.391  1.4826 -2.2230 -2.6069
  638MOL0     H86108  -0.163   5.410   6.645 -0.5523  1.0710  1.6818
  638MOL0     H86109  -0.331   5.369   6.663 -0.4808  2.4460  0.8901
  638MOL0     H86110  -0.262   5.629   6.515 -0.9749  1.6874  0.2795
  638MOL0     H86111  -0.279   5.615   6.687 -1.0189  0.5616 -0.9379
  638MOL0     H86112   0.170   4.721   6.400 -0.0261 -0.1856 -0.2982
  638MOL0     H86113   0.384   4.852   6.469  2.0468  2.1014 -1.2006
  638MOL0     H86114   0.759   5.190   6.108 -1.5755  0.6576  0.1153
  638MOL0     H86115   0.968   5.292   6.157 -1.5774  1.3142  0.1683
  638MOL0     H86116   3.075   5.262   6.257  1.5636 -0.9920 -3.4446
  638MOL0     H86117   3.289   5.310   6.341  2.2863  1.1431  0.9040
  638MOL0     H86118   3.720   5.389   6.510  0.7530 -0.7984 -1.1184
  638MOL0     H86119   3.917   5.508   6.589 -1.6567 -1.1063  2.2151
  638MOL0     H86120   4.007   5.922   6.465 -1.0217  1.1569  0.8480
  638MOL0     H86121   3.970   5.938   6.637  3.2020  2.7217  0.2308
  638MOL0     H86122   4.233   5.834   6.556 -1.4490 -0.5924 -0.5333
  638MOL0     H86123   4.168   5.878   6.724 -0.6014  1.5836  1.3240
  638MOL0     H86124   4.243   6.042   6.470  2.3041  0.7203  0.4140
  638MOL0     H86125   4.330   6.041   6.635  0.0428  4.4494  2.0885
  638MOL0     H86126   4.126   6.142   6.722 -1.9764 -1.2198 -0.9302
  638MOL0     H86127   4.064   6.169   6.557 -0.3007 -1.8571 -1.1221
  638MOL0     H86128   4.341   6.485   6.610 -0.0829 -0.3846  1.7379
  638MOL0     H86129   3.754   5.886   6.502  1.3025 -1.5524 -0.0057
  638MOL0     H86130   3.532   5.778   6.425 -0.0484 -0.9269 -0.5110
  639MOL0     O86131   1.495   7.702   9.871  0.2612 -0.6291 -0.3593
  639MOL0     C86132   1.518   7.586   9.904 -0.4577 -0.3028 -0.0759
  639MOL0     O86133   1.424   7.485   9.933 -0.6685  0.1665 -0.2807
  639MOL0     C86134   1.291   7.526   9.917  0.0327  0.6443  0.2499
  639MOL0     C86135   1.256   7.587   9.794  0.6612 -0.5839  0.4923
  639MOL0     C86136   1.130   7.635   9.778 -0.0994 -0.5540  0.3473
  639MOL0     C86137   1.027   7.616   9.876 -0.8966  0.4952 -0.2857
  639MOL0     O86138   0.897   7.657   9.838 -0.3816  0.6707  0.1444
  639MOL0     C86139   0.790   7.569   9.849  0.8410  0.1567 -0.1971
  639MOL0     C86140   0.780   7.464   9.733  0.0165 -0.4167  0.8042
  639MOL0     C86141   0.757   7.546   9.608 -0.0789  0.5805  0.8781
  639MOL0     C86142   0.716   7.464   9.487 -0.2044  0.7605  0.4344
  639MOL0     C86143   0.562   7.458   9.481 -0.3107  0.0497 -1.0641
  639MOL0     C86144   0.512   7.588   9.411  0.1405 -0.5506 -0.4178
  639MOL0     C86145   0.364   7.593   9.427  0.1339 -0.6663 -0.3568
  639MOL0     C86146   0.288   7.722   9.364 -0.7300 -0.8488 -0.1885
  639MOL0     N86147   0.330   7.853   9.412  0.4806  0.1590  0.3227
  639MOL0     C86148   0.333   7.889   9.545  0.0508 -0.4992 -0.2935
  639MOL0     C86149   0.349   8.024   9.534  0.2888 -0.2078 -0.0171
  639MOL0     C86150   0.363   8.124   9.641 -0.4937 -0.1658 -0.5974
  639MOL0     C86151   0.328   8.270   9.610  0.1199  0.8468  0.0293
  639MOL0     C86152   0.178   8.305   9.616  0.7821 -0.4177 -0.0591
  639MOL0     C86153   0.096   8.263   9.503  0.9086  0.2752  0.3399
  639MOL0     O86154  -0.046   8.290   9.514  0.5886 -0.0396 -0.0861
  639MOL0     C86155  -0.125   8.303   9.398 -1.0710  0.4168  0.2575
  639MOL0     C86156  -0.076   8.276   9.267  0.1897  1.0065 -0.2920
  639MOL0     C86157  -0.159   8.291   9.160  0.7590 -0.3547  0.8867
  639MOL0     C86158  -0.090   8.264   9.026  0.1590 -0.6045  0.0688
  639MOL0     C86159  -0.298   8.324   9.176  0.1345  0.3794  0.2563
  639MOL0     C86160  -0.391   8.333   9.058 -0.2264 -0.4370 -0.1272
  639MOL0     O86161  -0.515   8.271   9.062 -0.0019  0.5192  0.5427
  639MOL0     C86162  -0.618   8.309   8.973  0.3439 -0.1194  1.1918
  639MOL0     C86163  -0.723   8.222   8.935 -0.3494  0.0029 -0.6123
  639MOL0     C86164  -0.834   8.258   8.852 -0.5838  0.0790 -0.4575
  639MOL0     C86165  -0.833   8.385   8.807  0.7769  0.5351  0.3636
  639MOL0     O86166  -0.948   8.418   8.739  0.0227 -0.3784 -0.1393
  639MOL0     C86167  -1.044   8.500   8.813 -0.6117  0.8962  0.5809
  639MOL0     C86168  -1.020   8.639   8.762  0.2481  0.3030  0.7425
  639MOL0     C86169  -1.128   8.736   8.817  0.1363 -0.3364 -0.3242
  639MOL0     C86170  -1.151   8.735   8.964 -0.3717  0.7120 -0.0528
  639MOL0     C86171  -1.259   8.830   9.015  0.4797 -0.1501  0.0938
  639MOL0     C86172  -1.397   8.766   9.017 -0.0199  0.7115 -0.2674
  639MOL0     C86173  -1.494   8.882   9.032  0.1034 -0.0850  0.0781
  639MOL0     C86174  -1.644   8.843   9.042 -1.1358 -0.3816  0.0764
  639MOL0    Cl86175  -1.703   8.740   8.922 -0.0161  0.3625 -0.6986
  639MOL0     C86176  -0.731   8.477   8.836  0.2304  0.9341  0.5652
  639MOL0     C86177  -0.623   8.439   8.920  0.2646  0.6125  0.5621
  639MOL0     O86178  -0.340   8.388   8.956  0.9192 -0.0652  0.0960
  639MOL0     C86179  -0.341   8.357   9.303 -0.2762  0.2179  0.0364
  639MOL0     C86180  -0.252   8.357   9.411  1.2092  0.2029 -0.1857
  639MOL0     N86181   0.363   8.066   9.406  0.2968 -1.4706 -0.0491
  639MOL0     N86182   0.353   7.961   9.334 -0.2277 -0.5454  0.1770
  639MOL0     C86183   1.063   7.547  10.000 -0.3984 -0.1079  0.4429
  639MOL0     C86184   1.194   7.506  10.015 -0.3929  0.2475  0.0776
  639MOL0     C86185   1.656   7.553   9.933  0.9237 -0.3873 -0.5455
  639MOL0     C86186   1.686   7.423   9.976  0.0237  0.7802  0.4389
  639MOL0     C86187   1.810   7.382  10.010 -0.2226 -0.4900 -0.2470
  639MOL0     C86188   1.916   7.467   9.995 -0.6025 -0.2803 -0.2701
  639MOL0     O86189   2.041   7.418  10.037 -0.0599 -0.6638 -0.0341
  639MOL0     C86190   2.149   7.510  10.039  0.3422  0.0522  0.1094
  639MOL0     C86191   2.250   7.431  10.120 -0.6602 -0.2302 -0.0665
  639MOL0     C86192   2.395   7.489  10.123  0.3343  0.0031 -0.6637
  639MOL0     C86193   2.486   7.455  10.247 -0.1829  0.5235  0.4800
  639MOL0     C86194   2.608   7.537  10.263 -0.1393  0.5350 -0.5158
  639MOL0     C86195   2.705   7.608  10.285 -0.4584  0.0844 -0.6607
  639MOL0     C86196   1.893   7.597   9.936 -0.6210 -0.9905  0.5069
  639MOL0     C86197   1.759   7.643   9.919 -0.8055 -0.7483  0.0426
  639MOL0     H86198   1.327   7.606   9.714 -0.4066 -1.3113 -0.6873
  639MOL0     H86199   1.097   7.688   9.689 -1.2202 -3.0347 -0.8250
  639MOL0     H86200   0.780   7.513   9.943 -0.4872 -1.8163 -1.4392
  639MOL0     H86201   0.696   7.625   9.844  0.3604 -0.5834  0.3445
  639MOL0     H86202   0.874   7.410   9.722 -0.2197 -0.7879  0.6014
  639MOL0     H86203   0.695   7.396   9.740 -0.2909  0.1005  2.4979
  639MOL0     H86204   0.686   7.626   9.629 -1.8624 -0.7687  0.2054
  639MOL0     H86205   0.853   7.595   9.589 -1.0628  3.7947  3.2286
  639MOL0     H86206   0.745   7.511   9.392 -2.2729  2.2513  0.4635
  639MOL0     H86207   0.759   7.364   9.492 -2.5423 -0.4113 -1.5232
  639MOL0     H86208   0.540   7.369   9.422 -0.5042 -1.0444  0.6039
  639MOL0     H86209   0.515   7.439   9.578  1.8170 -3.3724 -0.5156
  639MOL0     H86210   0.548   7.677   9.465  0.5389 -2.0429  1.9349
  639MOL0     H86211   0.545   7.577   9.308  1.0589 -2.3021  0.0216
  639MOL0     H86212   0.318   7.502   9.385  1.7206 -1.1150 -1.1784
  639MOL0     H86213   0.340   7.580   9.533 -1.5511  1.1170 -0.4573
  639MOL0     H86214   0.181   7.702   9.379 -0.9860 -1.1115 -2.1491
  639MOL0     H86215   0.305   7.722   9.256  0.9633  0.6196  0.0283
  639MOL0     H86216   0.326   7.827   9.634 -0.4782 -2.1241 -1.4161
  639MOL0     H86217   0.302   8.087   9.724  0.7580 -1.5410 -0.2292
  639MOL0     H86218   0.468   8.122   9.673 -1.3125  0.7053  2.4903
  639MOL0     H86219   0.371   8.297   9.513  0.1581 -0.2588 -0.2803
  639MOL0     H86220   0.369   8.324   9.695 -0.6295 -0.0014  0.9601
  639MOL0     H86221   0.156   8.412   9.626  0.2638 -0.5105 -0.1507
  639MOL0     H86222   0.150   8.256   9.710  1.2833 -2.0574 -0.7293
  639MOL0     H86223   0.121   8.157   9.497  1.7864  0.5540 -1.7777
  639MOL0     H86224   0.129   8.322   9.417  1.0373 -1.5625 -0.9145
  639MOL0     H86225   0.030   8.262   9.248  0.0071 -2.4043  0.5990
  639MOL0     H86226  -0.031   8.351   8.994  5.0711 -2.0084  4.0434
  639MOL0     H86227  -0.012   8.189   9.037  1.2506  0.5239  0.2995
  639MOL0     H86228  -0.158   8.232   8.946  0.5455 -1.0849 -0.0706
  639MOL0     H86229  -0.720   8.121   8.975 -1.6241  0.6945  1.4018
  639MOL0     H86230  -0.907   8.180   8.832  0.4146  0.0478 -4.9778
  639MOL0     H86231  -1.144   8.469   8.780 -0.9033 -1.3853  3.2463
  639MOL0     H86232  -1.040   8.492   8.922 -1.0416 -0.2304  0.5355
  639MOL0     H86233  -0.920   8.673   8.790  1.0329 -1.9742  0.9044
  639MOL0     H86234  -1.030   8.634   8.653  0.3672 -1.2871  0.7767
  639MOL0     H86235  -1.220   8.707   8.766 -0.1729  0.2293 -0.0932
  639MOL0     H86236  -1.107   8.841   8.795  0.5400 -0.1603  0.8193
  639MOL0     H86237  -1.175   8.630   8.985  0.4685  0.6374  0.5667
  639MOL0     H86238  -1.062   8.766   9.020 -2.0557 -1.3834  4.2449
  639MOL0     H86239  -1.262   8.924   8.960 -2.6865 -1.2346 -1.8716
  639MOL0     H86240  -1.233   8.861   9.116  0.3338  1.7786 -0.4249
  639MOL0     H86241  -1.419   8.708   8.927  1.6188 -1.9445  0.9119
  639MOL0     H86242  -1.396   8.689   9.095 -0.1095  1.3830  0.4061
  639MOL0     H86243  -1.480   8.948   8.947 -0.2955  0.4076  0.3885
  639MOL0     H86244  -1.464   8.935   9.123  0.4096 -0.0939 -0.0169
  639MOL0     H86245  -1.699   8.938   9.035  1.0475  0.9723  0.0849
  639MOL0     H86246  -1.675   8.799   9.137 -3.0629 -0.2392 -0.4394
  639MOL0     H86247  -0.734   8.573   8.785 -2.7666 -0.0845 -1.4294
  639MOL0     H86248  -0.549   8.518   8.937  0.2680  0.7632 -0.1441
  639MOL0     H86249  -0.443   8.389   9.318 -1.1074 -2.9141  1.8653
  639MOL0     H86250  -0.281   8.383   9.512  0.3576  1.2700 -0.6887
  639MOL0     H86251   1.001   7.532  10.089  0.2530 -0.3503  0.8638
  639MOL0     H86252   1.230   7.446  10.098  0.5484  4.0219  2.6465
  639MOL0     H86253   1.617   7.338   9.972  1.6645 -0.5526 -0.5749
  639MOL0     H86254   1.838   7.287  10.055 -2.5950 -0.5149  1.3493
  639MOL0     H86255   2.197   7.524   9.941  0.5639 -0.3945  0.1534
  639MOL0     H86256   2.123   7.609  10.077 -2.7182 -0.9873  0.9598
  639MOL0     H86257   2.261   7.331  10.076 -1.3075  0.2397 -1.3298
  639MOL0     H86258   2.206   7.412  10.218 -2.3053 -0.6436 -0.8606
  639MOL0     H86259   2.373   7.596  10.120  2.1706  0.9738  5.7544
  639MOL0     H86260   2.446   7.465  10.029 -1.8873  0.2199 -2.0103
  639MOL0     H86261   2.517   7.351  10.239  0.5784  0.8729 -1.8959
  639MOL0     H86262   2.420   7.472  10.332  0.2653 -0.2364  0.9819
  639MOL0     H86263   2.802   7.647  10.304  0.8811 -2.6473 -1.3266
  639MOL0     H86264   1.976   7.664   9.915  1.2350 -3.7448 -1.7157
  639MOL0     H86265   1.748   7.742   9.877  1.1031  1.3032  3.8436
  640MOL0     O86266  11.027   0.711   9.256  0.2359 -0.0556  0.0036
  640MOL0     C86267  11.136   0.765   9.258  1.0292  0.0808  0.2383
  640MOL0     O86268  11.159   0.899   9.225  0.3056 -0.1860  0.4756
  640MOL0     C86269  11.048   0.979   9.214 -0.5836  0.2764 -0.4112
  640MOL0     C86270  11.044   1.089   9.298  0.6844 -0.1401 -0.0912
  640MOL0     C86271  10.940   1.184   9.292  0.1900  0.5438  1.2593
  640MOL0     C86272  10.828   1.151   9.204 -0.1737 -0.2435  0.1703
  640MOL0     O86273  10.723   1.230   9.182  0.0963 -0.7872  0.1273
  640MOL0     C86274  10.632   1.246   9.289 -0.1838 -0.0716 -0.1434
  640MOL0     C86275  10.496   1.199   9.255 -0.7817  0.2395  0.4251
  640MOL0     C86276  10.397   1.222   9.370 -0.1544 -0.2979 -0.5737
  640MOL0     C86277  10.260   1.259   9.329  0.2214  0.6603 -0.1284
  640MOL0     C86278  10.161   1.285   9.440  0.8547  0.4655  0.3305
  640MOL0     C86279  10.021   1.268   9.393 -0.2579  0.5541  0.0357
  640MOL0     C86280   9.929   1.332   9.495  0.1618  0.3058  0.2631
  640MOL0     C86281   9.896   1.220   9.589 -0.2353 -0.6688  0.2755
  640MOL0     N86282   9.802   1.268   9.690  0.4258  0.2461 -0.2798
  640MOL0     C86283   9.675   1.218   9.707 -0.4660 -0.8153  0.0380
  640MOL0     C86284   9.633   1.272   9.823 -0.4263 -0.4160  0.5301
  640MOL0     C86285   9.500   1.265   9.892 -0.8960  0.1533  0.0706
  640MOL0     C86286   9.388   1.208   9.815  0.1369  0.3177 -0.6054
  640MOL0     C86287   9.252   1.226   9.885 -0.3050 -0.3421 -0.6895
  640MOL0     C86288   9.149   1.139   9.812  0.9849 -0.9564 -0.4832
  640MOL0     O86289   9.030   1.151   9.887 -0.0029 -0.3403  0.6759
  640MOL0     C86290   8.927   1.072   9.847  0.7392 -1.4643 -0.3082
  640MOL0     C86291   8.911   1.006   9.729  0.2656 -1.1067  0.1710
  640MOL0     C86292   8.794   0.939   9.701  0.1262 -0.5259 -0.0947
  640MOL0     C86293   8.776   0.899   9.563 -0.1745  0.0416  0.4189
  640MOL0     C86294   8.691   0.925   9.799  0.5930 -0.1814 -0.9508
  640MOL0     C86295   8.561   0.844   9.803 -0.6986  0.7332  0.1150
  640MOL0     O86296   8.475   0.857   9.904 -0.0281  0.0124 -0.0480
  640MOL0     C86297   8.344   0.821   9.911  0.8595 -0.0554 -0.3799
  640MOL0     C86298   8.280   0.811  10.039  0.3258  0.2892 -0.7153
  640MOL0     C86299   8.150   0.754  10.062  0.0577  0.0250  0.1075
  640MOL0     C86300   8.084   0.702   9.947  0.9502 -0.3021 -0.3703
  640MOL0     O86301   7.964   0.634   9.969  0.6059  0.1047  0.2076
  640MOL0     C86302   7.874   0.699  10.066 -0.7962  0.1968 -0.1224
  640MOL0     C86303   7.733   0.665  10.024  0.1352  0.0103  0.2188
  640MOL0     C86304   7.620   0.739  10.096 -0.3755 -0.1950  0.3386
  640MOL0     C86305   7.481   0.701  10.048  0.0433  0.0703 -0.1230
  640MOL0     C86306   7.467   0.677   9.903  0.0906  0.5333 -0.0122
  640MOL0     C86307   7.321   0.666   9.862  0.6217  0.0502 -0.0414
  640MOL0     C86308   7.290   0.617   9.721 -0.0385  0.7922  0.3370
  640MOL0     C86309   7.143   0.617   9.693 -0.8705 -0.8262  0.5667
  640MOL0    Cl86310   7.059   0.492   9.787  0.2752 -0.3433 -0.3073
  640MOL0     C86311   8.138   0.713   9.815 -0.8040  0.8857 -0.1784
  640MOL0     C86312   8.268   0.776   9.805  0.6324  0.4293 -0.3914
  640MOL0     O86313   8.546   0.764   9.708 -0.7124 -0.2049 -0.1603
  640MOL0     C86314   8.713   0.987   9.924  0.4179 -0.4194  0.9195
  640MOL0     C86315   8.821   1.070   9.942  0.9136  0.2047 -0.0268
  640MOL0     N86316   9.730   1.347   9.870 -0.1816 -0.0327 -0.3605
  640MOL0     N86317   9.838   1.336   9.799  0.2919  0.0202 -0.7777
  640MOL0     C86318  10.834   1.037   9.124 -0.7258  0.9389 -0.2106
  640MOL0     C86319  10.946   0.959   9.121 -0.9874 -0.3029 -0.2714
  640MOL0     C86320  11.250   0.675   9.292  0.0172 -0.1055  0.6338
  640MOL0     C86321  11.381   0.722   9.279  0.3632 -0.2581 -0.0547
  640MOL0     C86322  11.498   0.648   9.308  1.0442 -0.7343 -0.3211
  640MOL0     C86323  11.484   0.514   9.361 -0.8198 -0.4143  0.2195
  640MOL0     O86324  11.595   0.437   9.367 -0.9405  0.0749 -0.2042
  640MOL0     C86325  11.622   0.347   9.255 -0.3236  0.5430 -0.7232
  640MOL0     C86326  11.623   0.202   9.292 -0.5060 -0.5292  0.3386
  640MOL0     C86327  11.749   0.167   9.383  0.0145 -0.3961 -0.3210
  640MOL0     C86328  11.887   0.209   9.318 -0.8103  0.1929  0.0513
  640MOL0     C86329  11.900   0.139   9.195  0.0448 -0.0497  0.5776
  640MOL0     C86330  11.896   0.083   9.086  0.1110  0.3253 -0.1396
  640MOL0     C86331  11.349   0.462   9.378  0.4967 -0.1811 -0.0955
  640MOL0     C86332  11.243   0.544   9.345  0.8220  0.0378 -0.5963
  640MOL0     H86333  11.123   1.093   9.372 -1.1577  1.0961  1.9262
  640MOL0     H86334  10.934   1.276   9.349  1.6067  1.6802 -0.3365
  640MOL0     H86335  10.664   1.184   9.373  0.5830 -0.1630 -0.4999
  640MOL0     H86336  10.622   1.353   9.308  0.3511 -0.0358 -0.0584
  640MOL0     H86337  10.467   1.237   9.157  0.9614 -1.8486 -1.0018
  640MOL0     H86338  10.504   1.090   9.247 -0.7913  0.2709 -0.0048
  640MOL0     H86339  10.381   1.127   9.422 -2.0977  0.3568  0.0963
  640MOL0     H86340  10.440   1.300   9.435  3.9603  0.0164 -3.2678
  640MOL0     H86341  10.264   1.329   9.246  0.7860  0.3332 -0.3856
  640MOL0     H86342  10.221   1.170   9.277 -2.4003  0.3178  2.1782
  640MOL0     H86343  10.175   1.212   9.520  0.3776  1.2683  1.1594
  640MOL0     H86344  10.169   1.387   9.480  1.1132  0.7488 -0.4171
  640MOL0     H86345  10.016   1.332   9.305 -1.1409 -2.2004 -2.0506
  640MOL0     H86346  10.005   1.163   9.366  1.2948  0.0262  1.0286
  640MOL0     H86347   9.979   1.418   9.541  0.8587 -0.6496  1.3374
  640MOL0     H86348   9.834   1.362   9.450  1.2632 -0.2986 -2.7247
  640MOL0     H86349   9.978   1.199   9.659 -1.1980 -1.2044  1.2708
  640MOL0     H86350   9.857   1.127   9.548 -3.1208 -0.3714  2.0237
  640MOL0     H86351   9.628   1.143   9.644  3.0589 -1.0859 -2.5369
  640MOL0     H86352   9.512   1.212   9.987  0.9241  1.3232  0.5315
  640MOL0     H86353   9.478   1.367   9.926 -1.0077  0.5992 -1.2610
  640MOL0     H86354   9.404   1.100   9.802  0.0922 -0.0978  2.1148
  640MOL0     H86355   9.392   1.259   9.718 -0.7638 -0.2934 -0.9805
  640MOL0     H86356   9.225   1.331   9.891  0.3904 -0.2366  3.0766
  640MOL0     H86357   9.257   1.191   9.988 -2.7617 -0.5177 -0.5592
  640MOL0     H86358   9.179   1.034   9.807 -1.8837 -1.9027  0.5124
  640MOL0     H86359   9.132   1.179   9.711 -0.1967 -3.1120 -1.1877
  640MOL0     H86360   8.984   1.017   9.649 -0.5846 -0.2940 -0.5321
  640MOL0     H86361   8.708   0.967   9.511 -1.5825 -1.2302  0.5123
  640MOL0     H86362   8.873   0.896   9.513  0.3046  0.1506  1.3014
  640MOL0     H86363   8.741   0.796   9.559 -1.1963  0.4237 -1.5762
  640MOL0     H86364   8.339   0.836  10.127  1.7422 -0.1021 -1.5133
  640MOL0     H86365   8.116   0.737  10.163  1.6474 -0.7052  0.5561
  640MOL0     H86366   7.898   0.660  10.166  1.3713  1.2677 -0.1702
  640MOL0     H86367   7.884   0.807  10.058 -1.4859  0.1543 -2.2700
  640MOL0     H86368   7.733   0.705   9.922  2.7685 -0.4618 -0.0340
  640MOL0     H86369   7.710   0.558  10.024 -0.4391  0.1307 -0.2051
  640MOL0     H86370   7.645   0.846  10.095  1.1844 -0.5385  0.5811
  640MOL0     H86371   7.627   0.720  10.203 -0.6516  1.6309  0.7141
  640MOL0     H86372   7.456   0.613  10.108  0.8504  1.2692  2.1154
  640MOL0     H86373   7.411   0.780  10.080 -2.0510 -1.1365 -1.4934
  640MOL0     H86374   7.514   0.586   9.863  2.5967  1.3651  0.8710
  640MOL0     H86375   7.521   0.758   9.853  1.0819  1.5498  2.5877
  640MOL0     H86376   7.279   0.603   9.941  0.5721 -1.0303 -0.9052
  640MOL0     H86377   7.284   0.769   9.864  2.0610  0.5782  0.6143
  640MOL0     H86378   7.332   0.516   9.714 -0.1682  0.7572  0.0684
  640MOL0     H86379   7.343   0.680   9.649  0.4761 -2.1695 -2.0928
  640MOL0     H86380   7.118   0.602   9.588 -3.1924 -0.2095  0.9705
  640MOL0     H86381   7.115   0.722   9.704  3.6396  1.1171 -2.9078
  640MOL0     H86382   8.092   0.656   9.735 -0.9873  0.6359  0.1029
  640MOL0     H86383   8.323   0.770   9.712 -2.1385  0.2464 -2.1221
  640MOL0     H86384   8.647   0.974  10.009 -4.3636  1.5434 -2.0861
  640MOL0     H86385   8.839   1.134  10.028 -1.0932  0.2721  0.3895
  640MOL0     H86386  10.760   1.001   9.053  1.6113 -0.6299 -2.0451
  640MOL0     H86387  10.963   0.870   9.062  0.0780 -0.6488  0.5252
  640MOL0     H86388  11.383   0.824   9.244  1.5119 -0.3310 -0.2436
  640MOL0     H86389  11.600   0.684   9.299  1.0395 -0.9218 -1.2401
  640MOL0     H86390  11.549   0.367   9.176 -0.8650 -1.0667 -0.6619
  640MOL0     H86391  11.719   0.377   9.213 -0.5989  0.2371 -1.5948
  640MOL0     H86392  11.627   0.134   9.207 -0.0167  0.8397 -0.7758
  640MOL0     H86393  11.535   0.172   9.350 -1.4174 -0.4780 -0.9814
  640MOL0     H86394  11.760   0.060   9.403  0.5118  0.2359  3.5716
  640MOL0     H86395  11.745   0.215   9.481  1.7465  0.1172 -0.4599
  640MOL0     H86396  11.961   0.185   9.395 -0.3854 -1.4528 -0.8185
  640MOL0     H86397  11.900   0.315   9.294 -0.1739 -0.0741 -0.8450
  640MOL0     H86398  11.891   0.027   8.994  0.6239  1.1190 -0.6633
  640MOL0     H86399  11.339   0.358   9.405 -1.1519 -0.0221  0.0234
  640MOL0     H86400  11.147   0.502   9.374 -0.6089  2.2028 -1.8952
  641MOL0     O86401  11.047   5.097   2.629 -0.3089  0.5250  0.5256
  641MOL0     C86402  11.064   5.081   2.751  0.0113 -0.6035  0.5069
  641MOL0     O86403  10.964   5.085   2.846 -0.3013  1.2524  1.0729
  641MOL0     C86404  10.836   5.085   2.801 -0.0939 -0.5325  0.5049
  641MOL0     C86405  10.743   5.158   2.879  0.1001  0.1294  0.2760
  641MOL0     C86406  10.608   5.178   2.833 -0.5635 -0.2836  0.2322
  641MOL0     C86407  10.562   5.107   2.728 -0.0881 -0.0846 -0.0598
  641MOL0     O86408  10.429   5.125   2.698  0.3303  0.5987  0.4596
  641MOL0     C86409  10.390   5.080   2.565 -0.1773 -0.3409  0.1045
  641MOL0     C86410  10.248   5.129   2.525  0.1360 -0.2114 -0.0921
  641MOL0     C86411  10.140   5.107   2.627 -0.7853 -0.0104 -0.7755
  641MOL0     C86412   9.996   5.133   2.571 -0.3811 -0.1330 -0.1967
  641MOL0     C86413   9.897   5.108   2.679 -0.2270 -0.2448  0.7996
  641MOL0     C86414   9.756   5.158   2.648 -0.8815  0.0860  0.1632
  641MOL0     C86415   9.675   5.181   2.773 -0.2693 -0.0188  0.4045
  641MOL0     C86416   9.523   5.137   2.754 -0.6857  0.1066  0.6217
  641MOL0     N86417   9.458   5.181   2.628  0.3999  0.1813  0.1648
  641MOL0     C86418   9.371   5.290   2.625  0.2116 -0.2347  0.2236
  641MOL0     C86419   9.273   5.270   2.538  0.0051  0.0252 -0.1531
  641MOL0     C86420   9.140   5.348   2.512  0.2178 -0.5488  0.8563
  641MOL0     C86421   9.045   5.290   2.411 -0.8182 -0.4306  0.3163
  641MOL0     C86422   9.097   5.285   2.267 -0.3739 -0.4329  0.1996
  641MOL0     C86423   9.037   5.168   2.189 -0.5899  0.0063 -0.3676
  641MOL0     O86424   8.900   5.199   2.168 -0.5356 -1.0446  0.2265
  641MOL0     C86425   8.821   5.125   2.089  0.3403  0.4446  0.7306
  641MOL0     C86426   8.738   5.193   2.001 -0.5233 -0.7670  0.1737
  641MOL0     C86427   8.677   5.126   1.892  0.0851 -0.2944  0.3785
  641MOL0     C86428   8.598   5.198   1.784  0.1834 -1.1709  0.9492
  641MOL0     C86429   8.675   4.984   1.891 -0.2835 -0.5185  0.8563
  641MOL0     C86430   8.607   4.898   1.797 -0.1928 -0.2811 -0.1276
  641MOL0     O86431   8.478   4.927   1.779  0.3685  0.4997 -0.3161
  641MOL0     C86432   8.403   4.843   1.700  0.4938  0.2996  0.4102
  641MOL0     C86433   8.366   4.888   1.567  1.3419 -0.4895 -0.9853
  641MOL0     C86434   8.266   4.819   1.499  0.2666 -0.8316 -1.4390
  641MOL0     C86435   8.187   4.723   1.569 -0.8756  0.4037  0.2348
  641MOL0     O86436   8.072   4.656   1.520 -0.6510 -0.0311 -1.2267
  641MOL0     C86437   8.035   4.672   1.384  0.0590  0.7700  0.8480
  641MOL0     C86438   7.919   4.572   1.362  0.1873 -0.9790  0.6035
  641MOL0     C86439   7.882   4.567   1.211  0.3402  0.5459  0.4392
  641MOL0     C86440   7.770   4.468   1.176  0.6515  0.5131 -0.1280
  641MOL0     C86441   7.713   4.490   1.029  0.3924  0.0554 -0.3798
  641MOL0     C86442   7.812   4.508   0.923 -0.2772 -0.5526 -0.0633
  641MOL0     C86443   7.888   4.380   0.887  0.3803 -0.0273 -0.3885
  641MOL0     C86444   8.034   4.397   0.853  0.0730 -0.8355 -0.4294
  641MOL0    Cl86445   8.088   4.249   0.769 -0.2606  0.1809 -0.2500
  641MOL0     C86446   8.235   4.670   1.687  0.4870  0.6385 -0.0614
  641MOL0     C86447   8.336   4.736   1.757  0.2925 -0.5842  0.7043
  641MOL0     O86448   8.673   4.815   1.737  0.1725  0.3051 -0.9179
  641MOL0     C86449   8.758   4.918   1.987 -0.2827 -0.0760  0.5057
  641MOL0     C86450   8.831   4.982   2.086  0.0957 -1.3052 -0.5054
  641MOL0     N86451   9.306   5.149   2.472 -0.2549 -0.2836  0.2998
  641MOL0     N86452   9.419   5.107   2.524 -0.2940 -0.5746 -0.4168
  641MOL0     C86453  10.657   5.025   2.658 -0.7529 -0.1046 -0.0777
  641MOL0     C86454  10.792   5.014   2.688 -0.6380 -0.0085 -0.1048
  641MOL0     C86455  11.208   5.059   2.791 -0.4033  1.1942  0.5918
  641MOL0     C86456  11.241   5.031   2.924 -0.0577 -0.1481 -0.6167
  641MOL0     C86457  11.372   4.992   2.954 -0.2673  0.2010 -0.0309
  641MOL0     C86458  11.474   4.995   2.867 -0.7082  1.9032 -0.0635
  641MOL0     O86459  11.595   4.940   2.909  0.0092 -0.2499  0.3649
  641MOL0     C86460  11.705   4.987   2.834 -1.0325 -0.2886 -0.6236
  641MOL0     C86461  11.823   4.993   2.935  0.4560 -0.4735  0.4744
  641MOL0     C86462  11.869   4.857   2.984 -0.5088  0.6865 -0.4006
  641MOL0     C86463  12.010   4.865   3.050 -0.1017  0.2276  0.4299
  641MOL0     C86464  12.056   4.733   3.085  0.5997 -0.2040 -0.1252
  641MOL0     C86465  12.101   4.622   3.116  0.3703  0.0930  0.0110
  641MOL0     C86466  11.441   5.025   2.740 -0.0961 -0.5956 -0.0304
  641MOL0     C86467  11.311   5.064   2.699 -0.3986 -0.3391  0.2203
  641MOL0     H86468  10.768   5.226   2.961  0.4961  1.8783 -1.2187
  641MOL0     H86469  10.539   5.233   2.897  0.1862 -1.3030  1.9828
  641MOL0     H86470  10.461   5.120   2.494 -2.0154  1.3044 -0.9040
  641MOL0     H86471  10.385   4.970   2.567 -0.7307 -0.3362 -0.7032
  641MOL0     H86472  10.259   5.236   2.508 -1.6502 -0.2106 -1.6219
  641MOL0     H86473  10.220   5.084   2.429  0.3126  1.5959 -1.0309
  641MOL0     H86474  10.141   5.006   2.669  2.6001  1.0934  2.3374
  641MOL0     H86475  10.151   5.169   2.717  1.2452 -0.5015 -0.6437
  641MOL0     H86476   9.983   5.238   2.544 -1.8764 -0.0996  0.5351
  641MOL0     H86477   9.970   5.074   2.482  0.5023  2.8081 -2.5830
  641MOL0     H86478   9.888   5.001   2.699 -3.8078 -0.2367 -0.0243
  641MOL0     H86479   9.926   5.159   2.771 -0.2141  1.4316 -0.1019
  641MOL0     H86480   9.769   5.253   2.596  1.7527 -1.2939 -1.9596
  641MOL0     H86481   9.711   5.087   2.578 -0.0024 -0.6675  0.3334
  641MOL0     H86482   9.719   5.116   2.849 -0.4803  2.9780  3.3521
  641MOL0     H86483   9.691   5.282   2.813 -1.6555  1.0257 -1.5028
  641MOL0     H86484   9.465   5.181   2.835  1.3690  2.8064  0.7699
  641MOL0     H86485   9.528   5.028   2.757  0.9106  0.0998 -0.5603
  641MOL0     H86486   9.374   5.373   2.695 -1.2260  1.6069 -1.7677
  641MOL0     H86487   9.087   5.357   2.607  2.3552 -0.0161  2.0550
  641MOL0     H86488   9.153   5.454   2.487  0.7560 -0.8314 -0.1251
  641MOL0     H86489   8.950   5.345   2.410 -0.7911 -0.3001  2.2549
  641MOL0     H86490   9.022   5.188   2.441 -0.3433 -1.5591 -2.7918
  641MOL0     H86491   9.204   5.264   2.274 -0.2685 -0.2826 -0.7560
  641MOL0     H86492   9.087   5.383   2.219 -0.2415  0.1618  1.3564
  641MOL0     H86493   9.041   5.079   2.252  0.2560 -0.8061 -1.5094
  641MOL0     H86494   9.091   5.158   2.094 -0.6558  0.2782 -0.4337
  641MOL0     H86495   8.727   5.301   2.001 -1.4419 -0.8498  0.7986
  641MOL0     H86496   8.650   5.292   1.766 -0.0149 -0.6997  2.6800
  641MOL0     H86497   8.593   5.150   1.686 -1.0729  3.8613 -1.7974
  641MOL0     H86498   8.494   5.209   1.815 -0.5428  0.0543 -1.5878
  641MOL0     H86499   8.418   4.973   1.522  0.7902  0.1782 -0.3791
  641MOL0     H86500   8.242   4.846   1.397 -2.4027  1.4778 -0.3355
  641MOL0     H86501   8.006   4.774   1.357 -2.2144  0.3338  1.4533
  641MOL0     H86502   8.116   4.649   1.315  0.2817  1.1052  0.9946
  641MOL0     H86503   7.948   4.480   1.414  1.2945 -0.1398  1.5215
  641MOL0     H86504   7.841   4.629   1.413  1.4273  3.9174 -2.2398
  641MOL0     H86505   7.972   4.543   1.153  1.8387  4.0410  1.0605
  641MOL0     H86506   7.856   4.668   1.176  0.1991 -0.0038 -1.1201
  641MOL0     H86507   7.803   4.366   1.197  0.7985  0.8225  1.2968
  641MOL0     H86508   7.694   4.474   1.255  3.1910  0.9436  2.4695
  641MOL0     H86509   7.650   4.580   1.033  0.5848  0.1962 -0.4824
  641MOL0     H86510   7.645   4.405   1.017 -1.3975  1.1491  1.3539
  641MOL0     H86511   7.759   4.545   0.835  0.0874  0.8976  0.3007
  641MOL0     H86512   7.882   4.588   0.949  0.2496 -1.5258  1.6390
  641MOL0     H86513   7.837   4.319   0.812 -1.1739 -1.4234  1.6995
  641MOL0     H86514   7.887   4.326   0.982 -2.7441  0.1119 -0.2354
  641MOL0     H86515   8.099   4.416   0.939 -0.3631  1.5506 -0.5402
  641MOL0     H86516   8.040   4.471   0.771 -1.2326  0.3942  0.5251
  641MOL0     H86517   8.183   4.585   1.728 -3.1255  3.1127  0.9429
  641MOL0     H86518   8.373   4.708   1.855  3.5300 -2.1374 -0.7990
  641MOL0     H86519   8.769   4.811   2.001 -2.3190 -0.6465 -1.6742
  641MOL0     H86520   8.900   4.934   2.155  0.4546 -2.2968 -1.5134
  641MOL0     H86521  10.630   4.996   2.557  0.8034 -0.4436 -0.4353
  641MOL0     H86522  10.857   4.969   2.614  0.4685  3.0401 -1.1807
  641MOL0     H86523  11.159   5.030   2.995  1.2262 -0.0065  0.9312
  641MOL0     H86524  11.392   4.964   3.057  0.0579 -0.5162 -0.2824
  641MOL0     H86525  11.729   4.915   2.755  1.3982  1.1700 -1.2930
  641MOL0     H86526  11.688   5.084   2.787  2.2617  1.5846  1.6476
  641MOL0     H86527  11.809   5.061   3.019  0.1179  0.5718 -0.4121
  641MOL0     H86528  11.905   5.045   2.885 -0.3645 -0.1796 -0.5960
  641MOL0     H86529  11.857   4.782   2.906  1.5601 -1.5003  1.2168
  641MOL0     H86530  11.802   4.818   3.061  1.9018 -4.8737 -0.6269
  641MOL0     H86531  11.994   4.915   3.146 -4.1120  0.5803 -0.2867
  641MOL0     H86532  12.089   4.919   2.996  0.5823 -0.5858  0.5762
  641MOL0     H86533  12.136   4.530   3.159 -0.7769 -0.0361  0.7250
  641MOL0     H86534  11.514   5.026   2.659 -0.3414 -1.0356 -0.2602
  641MOL0     H86535  11.289   5.081   2.594  2.1061 -0.6745 -0.4133
  642MOL0     O86536   2.194  10.944   1.683 -0.2289 -0.0666  0.1064
  642MOL0     C86537   2.231  11.022   1.594  0.1732 -0.1443  0.5704
  642MOL0     O86538   2.144  11.103   1.519  0.0255 -0.1834  0.3447
  642MOL0     C86539   2.009  11.108   1.542  0.9816 -0.0712  0.1992
  642MOL0     C86540   1.924  11.166   1.440 -1.3350 -0.0144  0.1803
  642MOL0     C86541   1.798  11.208   1.459 -0.1123 -0.0874  0.4039
  642MOL0     C86542   1.732  11.181   1.582 -0.7490 -0.1080 -0.5786
  642MOL0     O86543   1.596  11.194   1.601 -0.1486 -0.1646  0.1134
  642MOL0     C86544   1.512  11.198   1.483  1.0092 -0.0840 -0.0244
  642MOL0     C86545   1.365  11.190   1.530  0.4632 -0.5452  0.6823
  642MOL0     C86546   1.253  11.212   1.423  0.3496 -0.0033 -0.9254
  642MOL0     C86547   1.269  11.118   1.297 -1.0017 -0.0706  0.2318
  642MOL0     C86548   1.150  11.151   1.209 -0.2220 -0.7031 -0.1781
  642MOL0     C86549   1.160  11.058   1.084  0.6624 -0.2938  0.4041
  642MOL0     C86550   1.040  11.072   0.986 -0.3892  0.4651  1.0362
  642MOL0     C86551   0.905  11.047   1.060 -0.1165 -0.3461 -0.6347
  642MOL0     N86552   0.795  11.063   0.977  0.4525 -0.4627  0.0308
  642MOL0     C86553   0.773  10.997   0.859 -0.4092  0.1188  0.3471
  642MOL0     C86554   0.656  11.055   0.808 -0.5458  0.1796  0.4465
  642MOL0     C86555   0.586  11.035   0.675  0.1689  0.4639  0.4425
  642MOL0     C86556   0.613  11.147   0.587  0.4300  0.6913  0.0438
  642MOL0     C86557   0.526  11.131   0.461 -0.8482 -1.1693  0.4727
  642MOL0     C86558   0.574  11.219   0.347 -0.0386  0.1858 -0.4763
  642MOL0     O86559   0.482  11.202   0.243  0.3467 -0.8305 -0.2040
  642MOL0     C86560   0.358  11.255   0.253 -0.0501  0.6925  0.7707
  642MOL0     C86561   0.328  11.377   0.311 -0.1430 -0.8066  0.3997
  642MOL0     C86562   0.199  11.430   0.320 -0.5588  0.1087 -0.3292
  642MOL0     C86563   0.187  11.560   0.400  0.4070  0.0608 -0.3868
  642MOL0     C86564   0.097  11.359   0.266  0.1203  0.0304 -0.1530
  642MOL0     C86565  -0.039  11.412   0.267 -0.3124  0.2362  0.5663
  642MOL0     O86566  -0.078  11.433   0.140  0.1688  0.7795  0.2876
  642MOL0     C86567  -0.203  11.477   0.096  0.1243 -0.1341 -0.0212
  642MOL0     C86568  -0.322  11.468   0.171 -0.0850 -0.7915 -0.5906
  642MOL0     C86569  -0.439  11.518   0.115 -0.8434  1.1161  0.4172
  642MOL0     C86570  -0.438  11.575  -0.015 -0.4083  0.4652 -0.3926
  642MOL0     O86571  -0.554  11.628  -0.064  0.7054 -0.5692  0.5954
  642MOL0     C86572  -0.598  11.558  -0.183 -0.4141 -0.0431 -0.0095
  642MOL0     C86573  -0.742  11.609  -0.228 -0.1485  0.1802  0.1141
  642MOL0     C86574  -0.740  11.764  -0.268  1.0894  0.6918 -0.0635
  642MOL0     C86575  -0.881  11.827  -0.275 -0.5091 -0.2511 -0.0757
  642MOL0     C86576  -0.871  11.979  -0.324 -0.5347 -0.3742  1.1099
  642MOL0     C86577  -0.801  12.009  -0.459  1.1970 -0.1732 -0.3709
  642MOL0     C86578  -0.850  11.929  -0.570  0.9693 -0.1646  0.4987
  642MOL0     C86579  -0.828  12.014  -0.694 -0.0391 -0.2816 -0.1040
  642MOL0    Cl86580  -0.884  11.946  -0.853  0.4316 -0.5235  0.1663
  642MOL0     C86581  -0.322  11.578  -0.085 -0.2491  0.1867 -0.1995
  642MOL0     C86582  -0.206  11.526  -0.031  0.0504 -0.4041  0.1295
  642MOL0     O86583  -0.107  11.412   0.368  0.0371  0.1872  0.5043
  642MOL0     C86584   0.128  11.243   0.201  0.6426 -0.3974  0.2936
  642MOL0     C86585   0.252  11.188   0.198 -0.9307  1.2858  0.1249
  642MOL0     N86586   0.613  11.151   0.897  0.9388  0.6041  0.2067
  642MOL0     N86587   0.691  11.150   1.003  0.1899 -0.0655 -0.3063
  642MOL0     C86588   1.813  11.124   1.680  1.1064  0.6213 -0.6866
  642MOL0     C86589   1.942  11.089   1.661  0.4989  0.6116  0.0013
  642MOL0     C86590   2.369  11.013   1.559  0.0771 -0.5738  0.4781
  642MOL0     C86591   2.463  10.932   1.636 -0.9289 -0.6298  0.2281
  642MOL0     C86592   2.603  10.934   1.599  0.0803  0.7678  0.6788
  642MOL0     C86593   2.654  11.002   1.486 -0.1997  0.3366  0.3805
  642MOL0     O86594   2.793  10.999   1.470  0.2576 -0.5072 -0.2150
  642MOL0     C86595   2.846  11.035   1.343 -0.5221  0.3004 -0.1734
  642MOL0     C86596   2.892  11.183   1.335  0.4688  0.5215 -0.3798
  642MOL0     C86597   2.909  11.235   1.194  0.5472 -0.2205  0.2144
  642MOL0     C86598   2.933  11.388   1.172  0.1530 -0.4720  0.1827
  642MOL0     C86599   3.071  11.423   1.202  0.2252  0.3215  0.5965
  642MOL0     C86600   3.185  11.450   1.229 -0.7432  1.1427 -0.6106
  642MOL0     C86601   2.557  11.068   1.408 -0.8878 -0.5778  0.6067
  642MOL0     C86602   2.425  11.083   1.439  0.4556  0.1382 -0.0643
  642MOL0     H86603   1.963  11.194   1.342  0.2000  4.8979  1.8920
  642MOL0     H86604   1.750  11.261   1.378  1.1837  0.2615 -0.1597
  642MOL0     H86605   1.526  11.299   1.445 -2.6844  1.4802  2.1742
  642MOL0     H86606   1.537  11.116   1.416  0.7905 -0.5889  0.5012
  642MOL0     H86607   1.342  11.098   1.584 -2.2085 -1.1299 -1.2323
  642MOL0     H86608   1.356  11.279   1.593  0.7750 -0.9661  1.3328
  642MOL0     H86609   1.153  11.198   1.464  0.7302 -2.3186 -0.6431
  642MOL0     H86610   1.250  11.315   1.388 -0.2493  0.0367 -0.7541
  642MOL0     H86611   1.355  11.155   1.240 -2.8033  1.4485 -1.6994
  642MOL0     H86612   1.278  11.010   1.316 -1.7063  0.1270  1.8606
  642MOL0     H86613   1.061  11.132   1.270 -0.6985  1.0128 -0.2898
  642MOL0     H86614   1.155  11.256   1.179 -0.8125 -0.2779  1.1338
  642MOL0     H86615   1.255  11.071   1.031  0.1689  0.5199 -0.3060
  642MOL0     H86616   1.162  10.956   1.123  0.2729 -0.1909  0.7072
  642MOL0     H86617   1.047  11.171   0.941  0.1129  0.1068  0.3022
  642MOL0     H86618   1.047  10.992   0.911 -0.9194  0.3289  1.1317
  642MOL0     H86619   0.894  11.113   1.147  0.3460 -0.9924 -0.0811
  642MOL0     H86620   0.909  10.941   1.086  1.6255 -0.6497 -1.9543
  642MOL0     H86621   0.836  10.919   0.818  0.4286  0.3813  1.1171
  642MOL0     H86622   0.641  10.957   0.620  1.3389  2.2489 -1.0758
  642MOL0     H86623   0.482  11.005   0.691  0.1005  1.3945  1.8695
  642MOL0     H86624   0.718  11.138   0.560  0.9181  3.3052  0.7950
  642MOL0     H86625   0.604  11.244   0.637 -1.8731 -1.1077  3.5779
  642MOL0     H86626   0.421  11.158   0.476 -0.6685  0.5960 -1.1277
  642MOL0     H86627   0.525  11.025   0.432 -0.9991 -0.8502 -0.7462
  642MOL0     H86628   0.673  11.183   0.318  1.1009  2.9569 -0.3630
  642MOL0     H86629   0.576  11.326   0.372  1.4426 -0.0817  0.7083
  642MOL0     H86630   0.406  11.435   0.360 -0.6477  0.1523  0.0881
  642MOL0     H86631   0.271  11.567   0.470  0.7181 -3.1174 -0.2883
  642MOL0     H86632   0.180  11.650   0.338 -1.8217 -0.8478 -1.5893
  642MOL0     H86633   0.098  11.569   0.463  2.2158 -0.7685  2.4831
  642MOL0     H86634  -0.337  11.420   0.266  0.6874  0.9513  0.4617
  642MOL0     H86635  -0.526  11.507   0.178 -0.0519 -1.9113  1.1718
  642MOL0     H86636  -0.527  11.588  -0.261  0.7771 -1.1908  0.5809
  642MOL0     H86637  -0.586  11.449  -0.178  0.8016 -0.1032 -2.5561
  642MOL0     H86638  -0.779  11.548  -0.310  0.9739  0.6223 -0.7502
  642MOL0     H86639  -0.813  11.594  -0.146 -2.6616 -0.6675 -2.1084
  642MOL0     H86640  -0.684  11.770  -0.362 -1.5491 -1.9770 -2.0273
  642MOL0     H86641  -0.680  11.823  -0.199  0.7943  0.9072  0.0157
  642MOL0     H86642  -0.943  11.769  -0.343 -1.8803 -1.1291  1.8565
  642MOL0     H86643  -0.920  11.828  -0.173  2.2033 -0.4597  1.0720
  642MOL0     H86644  -0.812  12.039  -0.255  0.1340  1.0186 -0.6232
  642MOL0     H86645  -0.966  12.033  -0.324  0.6182  1.8893 -1.6805
  642MOL0     H86646  -0.807  12.118  -0.462 -1.9325 -0.0016  3.6514
  642MOL0     H86647  -0.696  11.978  -0.450  1.0493 -1.5998 -2.6558
  642MOL0     H86648  -0.952  11.896  -0.555  1.2059 -0.5437  1.2981
  642MOL0     H86649  -0.790  11.838  -0.569  0.1853 -0.7229  3.3999
  642MOL0     H86650  -0.727  12.054  -0.702 -0.6975  1.5730  0.5633
  642MOL0     H86651  -0.897  12.097  -0.679 -0.9714 -1.1911  0.7803
  642MOL0     H86652  -0.325  11.630  -0.181 -0.5383  0.6808  0.0754
  642MOL0     H86653  -0.113  11.523  -0.088  0.3527  1.3904  0.4621
  642MOL0     H86654   0.042  11.193   0.157  0.5052 -0.4511  0.6133
  642MOL0     H86655   0.271  11.090   0.156 -0.6950  0.7422  1.4577
  642MOL0     H86656   1.766  11.096   1.774 -1.3294  2.3682 -1.2710
  642MOL0     H86657   1.991  11.039   1.744 -3.1165 -1.4925  1.0805
  642MOL0     H86658   2.428  10.872   1.720 -1.1990  0.0169  0.5861
  642MOL0     H86659   2.665  10.877   1.668  1.1085  1.0538  0.0151
  642MOL0     H86660   2.934  10.972   1.328  0.7568  1.9203  0.1072
  642MOL0     H86661   2.779  11.019   1.258  0.9261 -0.2770 -1.2557
  642MOL0     H86662   2.984  11.188   1.393 -1.0931 -1.1383  2.4479
  642MOL0     H86663   2.821  11.248   1.387  1.2521  0.0685  1.3135
  642MOL0     H86664   2.807  11.223   1.157 -0.1088 -2.4698  2.4808
  642MOL0     H86665   2.982  11.180   1.134  1.2219 -0.3783  1.1611
  642MOL0     H86666   2.872  11.447   1.242 -0.0423 -1.6166  1.0055
  642MOL0     H86667   2.911  11.423   1.071  0.3276  4.1516  1.4990
  642MOL0     H86668   3.291  11.468   1.238 -0.2644 -2.1796  2.8197
  642MOL0     H86669   2.596  11.118   1.320 -1.5167 -2.6480 -0.9396
  642MOL0     H86670   2.359  11.146   1.379 -1.3455  0.8305  2.4819
  643MOL0     O86671   2.205   7.238   2.258  0.2866  0.4133  0.3074
  643MOL0     C86672   2.163   7.351   2.288  0.1214  0.0982 -0.5838
  643MOL0     O86673   2.033   7.370   2.334 -1.1578  0.4336 -0.3981
  643MOL0     C86674   1.929   7.273   2.324 -0.3519 -0.1827  0.5544
  643MOL0     C86675   1.818   7.290   2.395  0.7599 -0.1832  0.1332
  643MOL0     C86676   1.721   7.193   2.399 -1.0888  0.3407  0.0260
  643MOL0     C86677   1.743   7.068   2.336 -0.2494  0.3132  0.1273
  643MOL0     O86678   1.645   6.970   2.343 -0.1977 -0.8064  0.1040
  643MOL0     C86679   1.538   6.994   2.253 -0.0429  0.5283 -0.8219
  643MOL0     C86680   1.545   6.867   2.166  0.9634 -0.2272  0.0609
  643MOL0     C86681   1.430   6.865   2.061 -0.1238  0.3701  0.0489
  643MOL0     C86682   1.378   6.727   2.024 -0.4387  0.6489 -0.2334
  643MOL0     C86683   1.291   6.738   1.900 -0.0859 -0.4005 -0.9920
  643MOL0     C86684   1.153   6.803   1.931 -0.0002 -0.2326  0.2040
  643MOL0     C86685   1.036   6.708   1.896 -0.5048  0.3158 -0.1280
  643MOL0     C86686   0.908   6.785   1.911  0.5558 -0.5549 -0.3159
  643MOL0     N86687   0.792   6.691   1.927 -0.1645  0.2063  0.0365
  643MOL0     C86688   0.733   6.637   1.820 -0.1205  0.4798 -0.0035
  643MOL0     C86689   0.633   6.565   1.877  0.5229  0.8863  0.4576
  643MOL0     C86690   0.525   6.508   1.791  0.4321 -0.6790 -0.2295
  643MOL0     C86691   0.391   6.554   1.837 -0.0848  0.4781 -0.4647
  643MOL0     C86692   0.288   6.463   1.767 -0.7394  0.2887  0.4937
  643MOL0     C86693   0.152   6.512   1.763  0.0985 -0.4294  0.3790
  643MOL0     O86694   0.089   6.417   1.670  0.1185 -0.1960  0.6054
  643MOL0     C86695  -0.050   6.417   1.660 -0.1693 -0.3117  0.3174
  643MOL0     C86696  -0.125   6.295   1.669 -0.2434 -0.1951 -0.1005
  643MOL0     C86697  -0.267   6.300   1.664 -0.1466 -0.2885 -0.1842
  643MOL0     C86698  -0.337   6.161   1.664  0.6622 -0.9306 -0.9796
  643MOL0     C86699  -0.340   6.414   1.658 -0.9421  0.4592  0.8882
  643MOL0     C86700  -0.488   6.433   1.645  0.0445  0.3333 -1.2339
  643MOL0     O86701  -0.546   6.536   1.713  0.1624 -0.3485 -0.3368
  643MOL0     C86702  -0.678   6.552   1.692  0.1114 -0.4129 -0.7170
  643MOL0     C86703  -0.730   6.585   1.572 -0.4056  0.0421  0.4045
  643MOL0     C86704  -0.875   6.603   1.547  0.0924 -0.4929 -0.3098
  643MOL0     C86705  -0.955   6.605   1.654 -0.0794  1.1794 -0.3423
  643MOL0     O86706  -1.088   6.629   1.628 -0.1616 -0.8501 -0.3222
  643MOL0     C86707  -1.183   6.587   1.729  0.2067  0.0435 -0.0113
  643MOL0     C86708  -1.318   6.568   1.651 -0.3651 -0.7595  0.2854
  643MOL0     C86709  -1.413   6.492   1.750  1.0688 -0.1478  0.5089
  643MOL0     C86710  -1.489   6.570   1.864  0.0842  0.1527 -0.2652
  643MOL0     C86711  -1.600   6.504   1.954 -0.6681  1.2509  0.6961
  643MOL0     C86712  -1.657   6.620   2.042  0.0279 -0.1950 -0.4277
  643MOL0     C86713  -1.785   6.577   2.119  0.4227 -0.1248  0.0159
  643MOL0     C86714  -1.834   6.698   2.199  0.0392 -0.6344  0.0505
  643MOL0    Cl86715  -1.879   6.833   2.095  0.1549 -0.0175  0.3568
  643MOL0     C86716  -0.896   6.588   1.782  0.5087 -0.3080 -0.2410
  643MOL0     C86717  -0.759   6.553   1.799  0.0205  0.4794 -0.6458
  643MOL0     O86718  -0.550   6.349   1.580 -0.2842  0.0691  0.2412
  643MOL0     C86719  -0.269   6.536   1.666  0.0639  0.3494  0.4072
  643MOL0     C86720  -0.126   6.535   1.662  1.0054  0.1293 -0.9827
  643MOL0     N86721   0.648   6.569   2.013  0.0417 -0.3638  1.0897
  643MOL0     N86722   0.748   6.646   2.043 -0.2663 -0.4694 -0.2738
  643MOL0     C86723   1.848   7.065   2.241  0.6266  1.8067 -0.6062
  643MOL0     C86724   1.933   7.169   2.230  0.4443 -0.1308  0.5098
  643MOL0     C86725   2.251   7.472   2.277 -0.0431  0.2376 -0.2214
  643MOL0     C86726   2.203   7.602   2.298 -0.1040 -0.1780 -0.2512
  643MOL0     C86727   2.279   7.720   2.293 -0.2968 -0.1637 -0.4718
  643MOL0     C86728   2.411   7.709   2.254 -0.6094  0.1978  0.6131
  643MOL0     O86729   2.502   7.812   2.233 -0.1848 -0.1440  0.1164
  643MOL0     C86730   2.454   7.942   2.227  0.1433 -0.2148  1.0775
  643MOL0     C86731   2.564   8.050   2.214  0.1133  0.1701 -0.2062
  643MOL0     C86732   2.501   8.190   2.230 -0.0727  0.5375 -0.3038
  643MOL0     C86733   2.602   8.301   2.242 -0.4118 -0.9389  0.2604
  643MOL0     C86734   2.670   8.318   2.117  0.5318  0.5625 -0.6382
  643MOL0     C86735   2.698   8.339   2.003 -0.9937 -0.1103 -0.1964
  643MOL0     C86736   2.465   7.577   2.242  0.7005 -0.3925 -0.2796
  643MOL0     C86737   2.390   7.460   2.253  0.0071  0.0289 -0.3957
  643MOL0     H86738   1.832   7.383   2.450 -0.3521 -1.1638  2.1755
  643MOL0     H86739   1.636   7.210   2.465 -1.2414  1.7541 -0.4885
  643MOL0     H86740   1.443   7.018   2.303  0.7007 -0.1445  1.0123
  643MOL0     H86741   1.553   7.081   2.188  1.5075  2.5335  2.0108
  643MOL0     H86742   1.643   6.875   2.119  2.3256 -1.5894  2.4716
  643MOL0     H86743   1.525   6.776   2.222 -1.9269 -0.4252 -1.1319
  643MOL0     H86744   1.350   6.927   2.103 -1.1066 -0.4957 -0.5139
  643MOL0     H86745   1.460   6.908   1.965 -1.0425  1.5396  0.2620
  643MOL0     H86746   1.465   6.662   2.014  0.1487  1.1567  1.1871
  643MOL0     H86747   1.319   6.680   2.103  1.2834 -0.6296  0.3412
  643MOL0     H86748   1.345   6.795   1.824  0.4417 -0.1450 -0.4372
  643MOL0     H86749   1.277   6.637   1.861 -0.4426 -0.2734 -1.1939
  643MOL0     H86750   1.149   6.836   2.035 -2.3864  1.2670 -0.2838
  643MOL0     H86751   1.151   6.894   1.871 -0.8917  0.5349  1.3645
  643MOL0     H86752   1.047   6.693   1.789 -1.4435  0.1615 -0.2145
  643MOL0     H86753   1.036   6.610   1.945  0.5671  0.1896 -0.3599
  643MOL0     H86754   0.895   6.860   1.832 -2.1883 -1.1119 -0.4943
  643MOL0     H86755   0.906   6.837   2.007 -2.2564  0.9755 -1.0946
  643MOL0     H86756   0.748   6.650   1.714  0.0553  2.8465  0.2611
  643MOL0     H86757   0.539   6.541   1.687  0.7158  4.4795  1.2201
  643MOL0     H86758   0.535   6.399   1.789 -1.5259 -0.8916 -0.9432
  643MOL0     H86759   0.380   6.662   1.822  1.5477  0.8965  0.9680
  643MOL0     H86760   0.392   6.553   1.947  0.8138 -0.0818 -0.4681
  643MOL0     H86761   0.274   6.373   1.827 -0.1554  0.2654  0.6029
  643MOL0     H86762   0.328   6.436   1.669 -1.1990 -0.2270  0.4447
  643MOL0     H86763   0.149   6.617   1.731 -0.1045 -0.6350 -0.3000
  643MOL0     H86764   0.105   6.504   1.861 -1.1131 -0.4807 -0.1828
  643MOL0     H86765  -0.066   6.204   1.667  0.9986  0.5664 -2.4723
  643MOL0     H86766  -0.342   6.123   1.561 -3.3701 -0.1455 -1.2039
  643MOL0     H86767  -0.264   6.088   1.701  2.0022  0.0342 -1.6332
  643MOL0     H86768  -0.431   6.144   1.717  1.7751 -1.7358  0.8485
  643MOL0     H86769  -0.667   6.587   1.484  0.0133 -1.5432  0.6517
  643MOL0     H86770  -0.914   6.624   1.448 -0.9754  1.9630  0.5670
  643MOL0     H86771  -1.159   6.492   1.777 -2.1715 -0.2545  0.7645
  643MOL0     H86772  -1.193   6.674   1.796  1.2432 -1.4222  2.1871
  643MOL0     H86773  -1.355   6.669   1.631  1.0493 -0.0407  1.1927
  643MOL0     H86774  -1.290   6.513   1.561  1.4500  0.4029  0.0847
  643MOL0     H86775  -1.357   6.412   1.799  1.9946  0.0360 -0.2381
  643MOL0     H86776  -1.484   6.451   1.678  0.2206 -0.5638  1.5508
  643MOL0     H86777  -1.409   6.602   1.931 -1.4242 -2.5575  3.1575
  643MOL0     H86778  -1.534   6.653   1.810  0.4301 -0.5756 -1.7088
  643MOL0     H86779  -1.560   6.429   2.023  0.3197  1.1915  0.0895
  643MOL0     H86780  -1.676   6.450   1.897 -3.2219  3.7922  1.4763
  643MOL0     H86781  -1.578   6.643   2.114  1.4807 -0.1328 -2.0040
  643MOL0     H86782  -1.684   6.705   1.979 -1.1883  1.6335  2.3512
  643MOL0     H86783  -1.774   6.481   2.171  2.8650 -0.6695 -1.3156
  643MOL0     H86784  -1.872   6.550   2.060 -2.1098 -1.4865  3.9789
  643MOL0     H86785  -1.750   6.719   2.266  0.0260  1.4300 -0.5142
  643MOL0     H86786  -1.923   6.672   2.258 -0.3790 -1.3969 -0.8790
  643MOL0     H86787  -0.958   6.591   1.871 -0.4621  0.3270 -0.9269
  643MOL0     H86788  -0.730   6.533   1.901 -2.1726 -0.3728 -0.1389
  643MOL0     H86789  -0.314   6.634   1.671  0.9059  0.7389  0.5015
  643MOL0     H86790  -0.081   6.633   1.654  0.4028  0.2750 -3.3065
  643MOL0     H86791   1.853   6.974   2.181 -2.0311  0.2060  1.3863
  643MOL0     H86792   2.010   7.158   2.154  1.3802 -1.2275  1.5698
  643MOL0     H86793   2.095   7.608   2.311 -0.0529 -1.0785  0.7452
  643MOL0     H86794   2.226   7.813   2.310  0.3631  0.6982 -2.8308
  643MOL0     H86795   2.387   7.947   2.141 -0.2130  1.9271  1.4311
  643MOL0     H86796   2.396   7.970   2.315 -2.0105 -0.7703 -0.0917
  643MOL0     H86797   2.609   8.041   2.115  0.8918  2.1672 -0.0770
  643MOL0     H86798   2.632   8.037   2.298 -1.5810 -0.8634  1.0931
  643MOL0     H86799   2.447   8.195   2.325  0.4974 -0.6495  0.1063
  643MOL0     H86800   2.438   8.211   2.144  0.0043  1.9110 -0.0452
  643MOL0     H86801   2.680   8.286   2.316  1.5158  0.0435 -1.4698
  643MOL0     H86802   2.552   8.393   2.275 -1.3654 -1.2574 -0.2447
  643MOL0     H86803   2.743   8.354   1.907 -0.5566  3.0846  0.4160
  643MOL0     H86804   2.567   7.568   2.206  0.3188 -0.9479 -1.2671
  643MOL0     H86805   2.434   7.362   2.234  2.0260  1.0603 -1.3393
  644MOL0     O86806   2.460   0.484   5.105 -0.0204  0.1594 -0.5455
  644MOL0     C86807   2.527   0.468   5.002 -0.4711 -0.7713 -0.1376
  644MOL0     O86808   2.479   0.423   4.881 -0.1668  0.1863  0.0640
  644MOL0     C86809   2.342   0.410   4.863 -1.1365  0.5942 -0.1724
  644MOL0     C86810   2.263   0.521   4.874  0.2906 -0.1257  0.6038
  644MOL0     C86811   2.123   0.513   4.849 -0.2350 -0.3798 -0.3691
  644MOL0     C86812   2.057   0.394   4.826 -0.2609 -0.7081  0.3572
  644MOL0     O86813   1.920   0.395   4.804 -0.2274 -0.3583  0.1310
  644MOL0     C86814   1.849   0.288   4.735  0.6425 -0.3967 -0.5106
  644MOL0     C86815   1.885   0.293   4.587  0.1348  0.6923 -0.3576
  644MOL0     C86816   1.832   0.418   4.529 -0.0744 -0.8725  0.3442
  644MOL0     C86817   1.821   0.411   4.381 -0.5221 -0.0482  0.7241
  644MOL0     C86818   1.774   0.545   4.321 -0.7802  0.2642 -0.6470
  644MOL0     C86819   1.640   0.596   4.373 -0.2497  0.7643 -0.0666
  644MOL0     C86820   1.593   0.729   4.310 -0.3167 -0.6326 -0.2451
  644MOL0     C86821   1.446   0.758   4.350 -0.0691  0.1363 -0.5132
  644MOL0     N86822   1.353   0.660   4.290 -0.3777 -0.0268 -0.0171
  644MOL0     C86823   1.307   0.678   4.162  0.0140 -0.3468  0.0667
  644MOL0     C86824   1.223   0.584   4.138  0.4054  0.6071  0.3866
  644MOL0     C86825   1.144   0.546   4.017 -0.0276  0.2398 -0.3831
  644MOL0     C86826   1.115   0.671   3.939  0.5856  0.9365  0.9164
  644MOL0     C86827   1.006   0.652   3.831  0.6776  0.5266 -0.6040
  644MOL0     C86828   0.941   0.780   3.790  0.7070 -0.1384 -0.0861
  644MOL0     O86829   0.852   0.822   3.895  0.6807 -0.5764  0.8944
  644MOL0     C86830   0.764   0.919   3.865  1.2389  0.3503 -0.5011
  644MOL0     C86831   0.736   1.005   3.968  0.0309 -1.3170 -0.5507
  644MOL0     C86832   0.629   1.102   3.954  0.5465  1.1000 -0.4619
  644MOL0     C86833   0.598   1.180   4.083  0.0847 -0.0624  0.0001
  644MOL0     C86834   0.559   1.106   3.833  0.5323  0.0744  0.4293
  644MOL0     C86835   0.446   1.198   3.804  0.6841  0.3551 -0.2305
  644MOL0     O86836   0.409   1.270   3.909 -0.6205  0.0498 -0.4415
  644MOL0     C86837   0.350   1.387   3.873  0.0717 -0.3108  0.3841
  644MOL0     C86838   0.373   1.462   3.755  0.5113 -0.2338  0.2470
  644MOL0     C86839   0.312   1.586   3.739  0.0776 -0.9930  0.4093
  644MOL0     C86840   0.235   1.646   3.844 -0.1246  0.1681 -0.4779
  644MOL0     O86841   0.168   1.762   3.845  0.4039  0.1818  0.2081
  644MOL0     C86842   0.160   1.848   3.736 -0.2151  0.1811 -0.5119
  644MOL0     C86843   0.050   1.954   3.764  0.8574  0.2608  0.0996
  644MOL0     C86844   0.071   2.073   3.669 -0.1284  0.1111 -0.6713
  644MOL0     C86845  -0.022   2.193   3.702  0.4496 -0.1910  0.4060
  644MOL0     C86846  -0.136   2.204   3.605 -0.5778 -0.1938 -0.6302
  644MOL0     C86847  -0.223   2.325   3.609 -1.2376  0.2356 -0.0251
  644MOL0     C86848  -0.356   2.289   3.552  0.4065  0.0832 -0.3848
  644MOL0     C86849  -0.460   2.386   3.600 -0.0071  0.1568 -0.0947
  644MOL0    Cl86850  -0.618   2.353   3.519 -0.6368  0.2562  0.2625
  644MOL0     C86851   0.206   1.564   3.951  0.4258 -0.2145 -0.0374
  644MOL0     C86852   0.265   1.440   3.961  0.3639  0.0369  0.6545
  644MOL0     O86853   0.392   1.202   3.688 -0.2696  0.5897 -0.6332
  644MOL0     C86854   0.602   1.033   3.719 -0.4862  0.5430  0.4081
  644MOL0     C86855   0.700   0.937   3.742  0.2358 -0.6965  0.2142
  644MOL0     N86856   1.215   0.501   4.250 -0.0207  0.4373  0.3149
  644MOL0     N86857   1.301   0.544   4.340  0.1270 -0.4762 -0.1570
  644MOL0     C86858   2.141   0.281   4.811 -0.7876 -0.7024  0.4357
  644MOL0     C86859   2.282   0.283   4.835  0.3248 -1.2533  0.2530
  644MOL0     C86860   2.678   0.487   5.008 -0.1635 -0.2897 -0.2918
  644MOL0     C86861   2.733   0.496   5.142  0.0607 -0.1613 -0.4935
  644MOL0     C86862   2.869   0.516   5.164 -0.8437 -0.3207 -0.1883
  644MOL0     C86863   2.953   0.538   5.052  0.7494  0.8047  0.4326
  644MOL0     O86864   3.089   0.556   5.057 -0.1764 -0.0510 -0.2779
  644MOL0     C86865   3.157   0.616   5.167 -0.0590 -0.6472  0.2367
  644MOL0     C86866   3.293   0.660   5.130  0.1601  0.3286 -0.0726
  644MOL0     C86867   3.389   0.548   5.096  0.5444  0.8855  0.1445
  644MOL0     C86868   3.429   0.442   5.205  0.2003 -0.6672  0.3249
  644MOL0     C86869   3.448   0.508   5.333  0.2610  0.3477  0.0786
  644MOL0     C86870   3.462   0.557   5.435  0.5934 -0.6762 -0.9816
  644MOL0     C86871   2.900   0.532   4.922  0.7926 -0.2563  0.2573
  644MOL0     C86872   2.761   0.501   4.900 -0.4289 -0.0326 -0.6576
  644MOL0     H86873   2.319   0.614   4.881  0.6122 -0.1211 -1.3821
  644MOL0     H86874   2.065   0.603   4.862  0.5230 -0.2055  2.4276
  644MOL0     H86875   1.882   0.194   4.781 -0.8084  0.1915  1.8995
  644MOL0     H86876   1.742   0.283   4.753  0.1302 -1.3214 -3.3741
  644MOL0     H86877   1.994   0.289   4.578  0.4943  1.7468  2.5420
  644MOL0     H86878   1.845   0.207   4.534 -0.1733  0.5601  0.0855
  644MOL0     H86879   1.735   0.445   4.572 -0.3000  1.9458 -1.6917
  644MOL0     H86880   1.897   0.501   4.559 -1.0881 -0.1090  0.5041
  644MOL0     H86881   1.919   0.405   4.333  0.8053  2.1794  2.9522
  644MOL0     H86882   1.756   0.333   4.340  0.3388 -0.1440 -0.4884
  644MOL0     H86883   1.852   0.617   4.346 -0.2937 -0.0253 -1.2829
  644MOL0     H86884   1.770   0.538   4.212  1.0590  2.1576 -0.8901
  644MOL0     H86885   1.563   0.520   4.355  0.8952 -0.7622  1.1509
  644MOL0     H86886   1.646   0.600   4.482  1.0126 -0.2526 -0.0679
  644MOL0     H86887   1.653   0.806   4.359  0.5287 -0.9759 -0.7213
  644MOL0     H86888   1.608   0.720   4.202  0.7557  0.3741 -0.1888
  644MOL0     H86889   1.427   0.860   4.317  0.9532  0.2398 -0.8202
  644MOL0     H86890   1.432   0.749   4.458  0.9215 -1.4384 -0.4889
  644MOL0     H86891   1.340   0.757   4.096  2.0301  2.2020  3.7770
  644MOL0     H86892   1.188   0.461   3.965 -1.7607 -1.5130  0.8365
  644MOL0     H86893   1.046   0.505   4.045 -0.4161  0.4431 -1.4174
  644MOL0     H86894   1.207   0.690   3.883  2.0407 -1.4519  2.3428
  644MOL0     H86895   1.083   0.750   4.007 -2.4651 -1.5406  2.6451
  644MOL0     H86896   0.928   0.583   3.865  1.7197 -0.0344  0.7472
  644MOL0     H86897   1.048   0.610   3.740  1.6356 -1.0374  0.5069
  644MOL0     H86898   0.894   0.757   3.694 -0.8825  1.2281  0.3095
  644MOL0     H86899   1.007   0.866   3.776 -0.4910  0.4658 -2.4387
  644MOL0     H86900   0.785   0.987   4.063  1.3713 -1.0125 -1.1718
  644MOL0     H86901   0.644   1.130   4.169  2.2230 -1.3653 -1.7763
  644MOL0     H86902   0.636   1.282   4.070 -2.1334  0.6673 -1.2817
  644MOL0     H86903   0.491   1.172   4.105  0.0237 -1.2939 -0.6447
  644MOL0     H86904   0.429   1.428   3.669 -0.9255 -1.1709 -0.3636
  644MOL0     H86905   0.339   1.651   3.656  1.3429  0.0361  1.5787
  644MOL0     H86906   0.261   1.887   3.721  1.1006 -1.4942  2.7831
  644MOL0     H86907   0.127   1.796   3.646  1.9284  1.1337 -1.9316
  644MOL0     H86908  -0.048   1.905   3.761  1.6811 -1.3934 -1.9353
  644MOL0     H86909   0.069   1.991   3.866 -1.1195 -0.1979  0.6787
  644MOL0     H86910   0.057   2.018   3.575  0.6264 -0.9965 -0.1593
  644MOL0     H86911   0.175   2.104   3.657  0.0951 -0.7512 -1.0937
  644MOL0     H86912  -0.068   2.181   3.800 -0.1189  1.4279  0.3718
  644MOL0     H86913   0.035   2.286   3.692 -0.9474  0.5643 -1.0585
  644MOL0     H86914  -0.200   2.116   3.621  0.3439 -0.5778  1.2543
  644MOL0     H86915  -0.108   2.216   3.500  2.3777  2.0643  0.3195
  644MOL0     H86916  -0.238   2.348   3.714  0.0164 -0.6121  0.3619
  644MOL0     H86917  -0.170   2.403   3.554  1.3268 -1.4434 -0.1105
  644MOL0     H86918  -0.384   2.186   3.577  0.6393  0.4288  1.4523
  644MOL0     H86919  -0.347   2.294   3.443  0.3816 -0.9863 -0.4491
  644MOL0     H86920  -0.432   2.490   3.584  0.1709  0.3672  1.4432
  644MOL0     H86921  -0.468   2.376   3.709 -2.0021 -3.3070 -0.3916
  644MOL0     H86922   0.152   1.610   4.033 -1.2075 -0.0979 -1.1349
  644MOL0     H86923   0.246   1.377   4.048 -0.6854 -0.6668 -0.0545
  644MOL0     H86924   0.550   1.051   3.626 -1.8654  0.5510  1.1550
  644MOL0     H86925   0.715   0.871   3.657 -0.1784 -0.2394 -0.2174
  644MOL0     H86926   2.103   0.180   4.794  0.7874 -1.1481 -0.6513
  644MOL0     H86927   2.328   0.186   4.824  1.4452 -0.4455 -3.2884
  644MOL0     H86928   2.672   0.493   5.232 -0.1647  3.3092 -0.4079
  644MOL0     H86929   2.923   0.535   5.256  1.4239  1.8547 -1.8659
  644MOL0     H86930   3.092   0.696   5.206  0.2522 -0.9156  1.3581
  644MOL0     H86931   3.159   0.537   5.242  2.7983 -1.0099 -0.1228
  644MOL0     H86932   3.333   0.715   5.215 -1.3177 -0.6064  1.2842
  644MOL0     H86933   3.290   0.727   5.044  2.2484  1.2809  0.5307
  644MOL0     H86934   3.481   0.602   5.071  0.4840 -0.1315 -2.6098
  644MOL0     H86935   3.352   0.493   5.009  1.7652  1.8544 -1.0435
  644MOL0     H86936   3.520   0.390   5.175 -0.1503 -0.6526 -0.8191
  644MOL0     H86937   3.349   0.368   5.216  0.7310 -1.2764  0.1728
  644MOL0     H86938   3.473   0.620   5.521  0.5681 -2.1635  0.1504
  644MOL0     H86939   2.962   0.561   4.838  1.1336 -1.0200  0.2406
  644MOL0     H86940   2.719   0.489   4.800 -2.9709 -3.1152  0.6276
  645MOL0     O86941   1.270   6.812   2.871 -0.3824  0.6675 -0.7117
  645MOL0     C86942   1.343   6.708   2.893  0.8460 -0.4574 -0.0916
  645MOL0     O86943   1.302   6.576   2.859 -0.2566 -0.6307 -0.5611
  645MOL0     C86944   1.182   6.553   2.791 -0.0993 -0.0799  0.6533
  645MOL0     C86945   1.176   6.531   2.658  0.6225 -0.0167  0.5425
  645MOL0     C86946   1.058   6.503   2.591 -0.1238 -0.5327 -0.0726
  645MOL0     C86947   0.937   6.489   2.667  0.9602 -0.7673 -0.6561
  645MOL0     O86948   0.811   6.455   2.615  0.3241 -0.0137 -0.0378
  645MOL0     C86949   0.818   6.384   2.491  0.0759  0.5490 -0.2549
  645MOL0     C86950   0.672   6.337   2.457 -0.8569  0.1177 -0.6779
  645MOL0     C86951   0.583   6.461   2.430 -0.0020 -0.0358  0.0079
  645MOL0     C86952   0.455   6.415   2.378  0.6271 -0.6689  0.4666
  645MOL0     C86953   0.378   6.536   2.310 -0.2441  0.0662 -0.2137
  645MOL0     C86954   0.237   6.493   2.275 -0.6311 -1.1288  0.5223
  645MOL0     C86955   0.152   6.607   2.199  0.5632  0.2392  0.4762
  645MOL0     C86956   0.018   6.552   2.152  0.2887  0.5384  0.0780
  645MOL0     N86957  -0.056   6.653   2.079 -0.1661 -0.5083  0.4205
  645MOL0     C86958  -0.149   6.745   2.131  0.7728  0.0088  0.1212
  645MOL0     C86959  -0.158   6.845   2.039  0.3877  0.1551 -0.5127
  645MOL0     C86960  -0.260   6.962   2.050 -0.3220  0.0813 -0.6507
  645MOL0     C86961  -0.364   6.962   1.936  0.6876  0.5529 -0.4550
  645MOL0     C86962  -0.445   6.838   1.959  0.3909  0.4249 -0.6540
  645MOL0     C86963  -0.580   6.855   1.894 -0.5667 -0.3016 -0.4901
  645MOL0     O86964  -0.654   6.966   1.944 -0.5957 -0.2061  0.8861
  645MOL0     C86965  -0.788   6.965   1.938 -0.0868 -0.2185 -0.2805
  645MOL0     C86966  -0.863   7.036   2.034  0.1731  0.4026 -0.0387
  645MOL0     C86967  -1.004   7.040   2.038  0.5152  0.4315  0.8253
  645MOL0     C86968  -1.066   7.133   2.135 -1.0422 -0.4178  0.6591
  645MOL0     C86969  -1.077   6.965   1.945  0.1207  0.5111 -0.0361
  645MOL0     C86970  -1.221   6.973   1.924  0.8552  0.2769 -0.3341
  645MOL0     O86971  -1.268   7.110   1.912 -0.9707 -0.3478  0.5251
  645MOL0     C86972  -1.400   7.125   1.872 -0.3626 -0.3175  0.2407
  645MOL0     C86973  -1.446   7.055   1.759  0.2131 -0.6954  0.0863
  645MOL0     C86974  -1.581   7.073   1.722 -0.3841  0.9369  0.1106
  645MOL0     C86975  -1.667   7.155   1.798  0.1092 -0.4571  0.3004
  645MOL0     O86976  -1.805   7.159   1.787  0.0625 -0.0656  0.2698
  645MOL0     C86977  -1.863   7.138   1.660  0.1822  0.0402  0.9206
  645MOL0     C86978  -1.983   7.042   1.661 -0.1851  0.0484  0.5837
  645MOL0     C86979  -1.988   6.924   1.763  0.0874  0.3867  0.7593
  645MOL0     C86980  -2.091   6.815   1.725  0.6814 -0.3881 -0.8200
  645MOL0     C86981  -2.132   6.733   1.849  0.1014 -0.3018 -0.2494
  645MOL0     C86982  -2.241   6.624   1.826 -0.4162 -0.5682 -0.0292
  645MOL0     C86983  -2.340   6.663   1.721 -0.2761  0.2474 -0.2841
  645MOL0     C86984  -2.467   6.577   1.712  0.6056  0.9921 -0.0188
  645MOL0    Cl86985  -2.429   6.400   1.712 -0.0464 -0.3305  0.1906
  645MOL0     C86986  -1.622   7.218   1.909 -1.0790  0.2475  0.1725
  645MOL0     C86987  -1.488   7.202   1.948 -0.2591  0.3045 -0.2536
  645MOL0     O86988  -1.297   6.875   1.930 -0.2430 -0.7811 -0.1765
  645MOL0     C86989  -0.999   6.901   1.842 -0.3344  0.4239  0.1274
  645MOL0     C86990  -0.857   6.903   1.834 -0.3132 -0.2875 -0.0600
  645MOL0     N86991  -0.082   6.810   1.925 -0.0747 -0.5461 -1.0693
  645MOL0     N86992  -0.020   6.699   1.954 -0.2353 -0.3348 -0.1561
  645MOL0     C86993   0.939   6.516   2.801 -0.6913 -0.5317 -0.1787
  645MOL0     C86994   1.060   6.551   2.860  0.0282  1.0113 -0.6334
  645MOL0     C86995   1.471   6.739   2.965 -0.1985  0.8059  0.1756
  645MOL0     C86996   1.483   6.861   3.043 -0.4004  0.1061 -0.3128
  645MOL0     C86997   1.607   6.885   3.104 -0.0933  0.2588 -0.2029
  645MOL0     C86998   1.720   6.805   3.087  0.5684 -0.1149  0.1786
  645MOL0     O86999   1.838   6.823   3.159  0.6621  0.2875 -0.7528
  645MOL0     C87000   1.846   6.929   3.257  0.1710 -0.3342  0.8471
  645MOL0     C87001   1.956   6.912   3.364  0.7967 -0.2545  0.4014
  645MOL0     C87002   2.094   6.925   3.316  0.4369 -0.5135  0.1183
  645MOL0     C87003   2.191   6.998   3.420  0.4108  0.1455 -0.1706
  645MOL0     C87004   2.288   7.076   3.345 -0.3673 -0.6249  0.5380
  645MOL0     C87005   2.354   7.146   3.272 -0.8635  0.2322 -0.3257
  645MOL0     C87006   1.706   6.689   3.007 -0.7035 -0.7209  0.4206
  645MOL0     C87007   1.586   6.654   2.945 -0.1309 -0.4380 -0.1911
  645MOL0     H87008   1.263   6.545   2.595 -0.7693  0.5374 -1.3495
  645MOL0     H87009   1.044   6.504   2.484 -1.3140 -1.6563  0.0507
  645MOL0     H87010   0.840   6.445   2.403 -0.0349 -0.2648 -0.8514
  645MOL0     H87011   0.887   6.299   2.489  0.8136  1.1356 -0.1642
  645MOL0     H87012   0.683   6.271   2.371  0.5823  0.2453 -0.6191
  645MOL0     H87013   0.629   6.270   2.532 -0.9764  0.0813 -0.7785
  645MOL0     H87014   0.567   6.522   2.520 -0.3282 -0.0224 -0.0581
  645MOL0     H87015   0.633   6.524   2.355  1.4401  0.8480  1.6275
  645MOL0     H87016   0.469   6.336   2.304  0.1580 -0.0816 -0.2692
  645MOL0     H87017   0.395   6.372   2.459  0.6890 -2.0929 -0.2052
  645MOL0     H87018   0.372   6.606   2.394  1.6679 -0.0507  0.0768
  645MOL0     H87019   0.432   6.576   2.223 -1.0347 -0.1760 -0.8235
  645MOL0     H87020   0.232   6.392   2.232 -0.2150 -0.6375 -0.7185
  645MOL0     H87021   0.187   6.472   2.370  0.4111 -2.2335  0.8527
  645MOL0     H87022   0.131   6.683   2.275  1.3703 -0.4625  1.4256
  645MOL0     H87023   0.199   6.651   2.111  2.1189 -2.6902 -0.2645
  645MOL0     H87024  -0.026   6.515   2.244 -0.2219 -2.0653 -1.1170
  645MOL0     H87025   0.032   6.461   2.092 -0.5752 -0.7890  1.8141
  645MOL0     H87026  -0.214   6.743   2.218  0.1798 -4.3404 -0.1796
  645MOL0     H87027  -0.311   6.966   2.146  3.3625 -0.2853  1.5155
  645MOL0     H87028  -0.207   7.058   2.050 -0.9485  0.5777  2.9280
  645MOL0     H87029  -0.312   6.966   1.840  1.0197  1.1136 -0.2565
  645MOL0     H87030  -0.414   7.060   1.941  1.5384  1.1189 -2.2842
  645MOL0     H87031  -0.469   6.811   2.063  2.9464 -1.4021 -0.4443
  645MOL0     H87032  -0.391   6.750   1.921 -1.3322 -1.0418  0.1216
  645MOL0     H87033  -0.632   6.759   1.893 -0.1912 -0.5101 -1.9519
  645MOL0     H87034  -0.564   6.887   1.791 -0.9909  1.2997 -0.0892
  645MOL0     H87035  -0.806   7.096   2.105  0.6009 -0.0859  0.0302
  645MOL0     H87036  -1.149   7.077   2.179 -3.2937 -0.3924 -3.1403
  645MOL0     H87037  -0.988   7.171   2.201 -0.1863 -0.5527 -0.2452
  645MOL0     H87038  -1.100   7.229   2.096 -0.9513 -0.5334  0.2861
  645MOL0     H87039  -1.370   7.006   1.698  0.5364  2.7652 -2.6034
  645MOL0     H87040  -1.611   7.024   1.630  0.8959  0.9341 -0.3141
  645MOL0     H87041  -1.887   7.232   1.611  0.6969 -0.5200 -0.4694
  645MOL0     H87042  -1.786   7.095   1.594  1.3475  2.0819  0.8717
  645MOL0     H87043  -2.077   7.096   1.679  0.0769  0.8238 -0.3018
  645MOL0     H87044  -1.999   7.005   1.559 -2.8603  3.0885 -0.3001
  645MOL0     H87045  -2.006   6.953   1.867  0.7253 -1.8289  1.5313
  645MOL0     H87046  -1.891   6.875   1.756 -0.6051 -1.0506  0.9418
  645MOL0     H87047  -2.181   6.871   1.694 -0.0933 -1.4966 -0.6313
  645MOL0     H87048  -2.058   6.754   1.640 -0.0222 -0.1458 -1.2834
  645MOL0     H87049  -2.176   6.808   1.916 -1.3227 -1.2883 -0.0387
  645MOL0     H87050  -2.043   6.685   1.889  1.4381  0.9337 -1.6466
  645MOL0     H87051  -2.198   6.527   1.800 -1.0426 -0.6061 -0.9809
  645MOL0     H87052  -2.299   6.608   1.917 -0.1138 -3.4681 -0.2494
  645MOL0     H87053  -2.292   6.657   1.623  0.9289 -0.0044  0.2994
  645MOL0     H87054  -2.369   6.768   1.720 -0.6851  0.1617 -2.2870
  645MOL0     H87055  -2.517   6.597   1.616  3.0623  0.9817 -1.4003
  645MOL0     H87056  -2.532   6.599   1.797  1.1753 -2.4688  1.4641
  645MOL0     H87057  -1.684   7.263   1.986  2.2366 -1.1060  4.0280
  645MOL0     H87058  -1.450   7.250   2.038 -1.9994 -0.1924  0.7998
  645MOL0     H87059  -1.051   6.847   1.763  1.3179 -0.8489 -0.1508
  645MOL0     H87060  -0.801   6.842   1.764 -1.3928 -1.5201  0.1092
  645MOL0     H87061   0.841   6.501   2.845 -0.5766 -0.3316  0.1511
  645MOL0     H87062   1.051   6.567   2.967 -0.8124 -0.0387 -0.5306
  645MOL0     H87063   1.398   6.929   3.041 -2.5692 -2.4471 -0.7841
  645MOL0     H87064   1.605   6.971   3.170 -1.2520 -0.2435  0.4451
  645MOL0     H87065   1.854   7.030   3.216  0.9766 -0.5203  0.5317
  645MOL0     H87066   1.762   6.918   3.326 -1.2770  1.7833 -0.4560
  645MOL0     H87067   1.940   6.813   3.406 -1.5207 -0.4796 -0.7906
  645MOL0     H87068   1.936   6.979   3.448 -0.9247 -2.3014  1.7127
  645MOL0     H87069   2.097   6.984   3.224  2.1824 -0.1841  0.3423
  645MOL0     H87070   2.126   6.825   3.285 -0.7023 -1.2473  1.2408
  645MOL0     H87071   2.248   6.920   3.470 -1.1875 -0.5934  0.5720
  645MOL0     H87072   2.127   7.056   3.487  0.4846  0.6079 -0.4944
  645MOL0     H87073   2.411   7.210   3.208  2.0614  0.2006  2.0159
  645MOL0     H87074   1.794   6.625   3.008 -0.0547  0.0244 -2.0240
  645MOL0     H87075   1.576   6.557   2.897 -1.5520 -0.0421 -0.7275
  646MOL0     O87076   8.479  10.269   8.996  0.1197 -0.3516  0.5283
  646MOL0     C87077   8.516  10.285   8.883 -0.0174  0.3814  1.2166
  646MOL0     O87078   8.439  10.285   8.770 -0.5402 -0.1528 -0.1242
  646MOL0     C87079   8.307  10.251   8.787 -0.0403  0.1428 -0.1731
  646MOL0     C87080   8.219  10.354   8.818  0.2742  1.0720  0.0641
  646MOL0     C87081   8.077  10.331   8.838 -0.1301  0.4986 -0.0110
  646MOL0     C87082   8.031  10.202   8.804  0.8531 -0.1040  0.3689
  646MOL0     O87083   7.901  10.171   8.833  0.6575 -1.0021 -0.2406
  646MOL0     C87084   7.858  10.038   8.805  0.5504 -0.2444 -0.1749
  646MOL0     C87085   7.718  10.031   8.866 -0.1203  0.1478  0.1169
  646MOL0     C87086   7.629   9.932   8.790  0.3048 -0.7964  0.7428
  646MOL0     C87087   7.485   9.942   8.841 -1.1706 -0.1821 -0.7160
  646MOL0     C87088   7.381   9.859   8.758  0.0765 -0.3495 -0.7015
  646MOL0     C87089   7.325   9.929   8.639  0.3472 -0.2407  0.5894
  646MOL0     C87090   7.216   9.844   8.577  0.1831 -0.2116  0.3568
  646MOL0     C87091   7.198   9.862   8.428  0.1828 -0.6359  0.5037
  646MOL0     N87092   7.129   9.990   8.396  0.9353 -0.7054 -0.2503
  646MOL0     C87093   7.169  10.068   8.297 -0.3636 -0.3133  0.5289
  646MOL0     C87094   7.085  10.168   8.284  0.4331  0.6442  0.2974
  646MOL0     C87095   7.087  10.272   8.178 -0.4429  0.3949 -0.3656
  646MOL0     C87096   6.982  10.241   8.065 -0.2582  0.1923  0.1281
  646MOL0     C87097   6.838  10.248   8.123  0.2501 -0.4248 -0.2109
  646MOL0     C87098   6.745  10.262   8.005 -0.5023  0.8396 -0.4863
  646MOL0     O87099   6.623  10.205   8.057 -0.0348 -0.5049  0.6067
  646MOL0     C87100   6.513  10.248   7.992 -0.3700 -0.0923 -0.3486
  646MOL0     C87101   6.423  10.344   8.051 -1.1850 -0.9579 -0.1953
  646MOL0     C87102   6.308  10.385   8.003  0.0616 -0.2131 -0.2476
  646MOL0     C87103   6.215  10.463   8.095  0.8055  0.0426  0.5803
  646MOL0     C87104   6.282  10.348   7.863  0.8015 -0.4841  0.4740
  646MOL0     C87105   6.168  10.384   7.783  0.6608  1.0229  0.1719
  646MOL0     O87106   6.135  10.308   7.674 -0.1952  0.2772  0.2749
  646MOL0     C87107   6.015  10.311   7.602  0.0656  0.2150 -0.1508
  646MOL0     C87108   6.021  10.290   7.463 -0.4779 -0.2301  0.0179
  646MOL0     C87109   5.897  10.262   7.398  0.1043  0.4860  0.3807
  646MOL0     C87110   5.774  10.264   7.469 -0.3391 -0.0575  0.3269
  646MOL0     O87111   5.660  10.242   7.398  0.1734 -0.5328 -0.5491
  646MOL0     C87112   5.530  10.290   7.444  0.9892  0.6190 -0.1353
  646MOL0     C87113   5.508  10.435   7.420  0.0358  0.2039 -0.3672
  646MOL0     C87114   5.538  10.483   7.283  0.2069 -0.4355  0.7131
  646MOL0     C87115   5.493  10.626   7.255  0.3445  0.3409  0.6848
  646MOL0     C87116   5.565  10.687   7.133  0.0895  0.1266  0.8134
  646MOL0     C87117   5.719  10.724   7.162 -0.9558 -0.0237  1.3581
  646MOL0     C87118   5.798  10.739   7.032  0.5855  0.2006 -0.0590
  646MOL0     C87119   5.788  10.873   6.964  0.1545 -0.9582 -0.0581
  646MOL0    Cl87120   5.855  10.997   7.079 -0.0124 -0.0390 -0.2403
  646MOL0     C87121   5.777  10.285   7.609  0.7047 -0.7080  0.5378
  646MOL0     C87122   5.902  10.307   7.675 -0.0019  0.4560  0.2075
  646MOL0     O87123   6.103  10.478   7.819 -0.0254 -0.0413 -0.0055
  646MOL0     C87124   6.375  10.258   7.800  0.2291 -0.3630 -0.0833
  646MOL0     C87125   6.494  10.210   7.864  0.3909 -0.3056  0.3660
  646MOL0     N87126   6.997  10.154   8.394 -0.0750 -0.5927  0.6539
  646MOL0     N87127   7.019  10.043   8.457 -0.2964 -0.4921 -1.0135
  646MOL0     C87128   8.117  10.098   8.749  0.0960 -0.2671 -1.0022
  646MOL0     C87129   8.258  10.121   8.750 -0.6263  0.0917  0.5224
  646MOL0     C87130   8.663  10.293   8.864  0.1166  0.7367  0.2040
  646MOL0     C87131   8.723  10.277   8.741 -0.1940 -0.1528  0.0406
  646MOL0     C87132   8.859  10.275   8.721 -0.2682 -0.3278 -0.1840
  646MOL0     C87133   8.946  10.284   8.832  0.3586  0.1404 -0.4172
  646MOL0     O87134   9.081  10.267   8.821 -0.7502  0.1639  0.6099
  646MOL0     C87135   9.141  10.271   8.685 -0.1731  0.2011  0.4215
  646MOL0     C87136   9.290  10.318   8.690 -0.0348 -0.3451 -0.1078
  646MOL0     C87137   9.297  10.442   8.781 -0.0053  0.7036 -0.8293
  646MOL0     C87138   9.433  10.494   8.783 -1.3179  0.0935  0.0171
  646MOL0     C87139   9.482  10.542   8.656 -0.6573  0.0324  0.2637
  646MOL0     C87140   9.527  10.596   8.559  0.1121  0.5487  0.2204
  646MOL0     C87141   8.884  10.279   8.962 -0.0445  0.3945  0.3192
  646MOL0     C87142   8.743  10.281   8.979 -0.3200  0.0207  0.4837
  646MOL0     H87143   8.264  10.452   8.827 -1.4034  1.6963  2.6204
  646MOL0     H87144   7.995  10.400   8.856  1.3831  1.8443  2.1816
  646MOL0     H87145   7.840  10.024   8.698  0.6294  1.1185 -0.3955
  646MOL0     H87146   7.924   9.961   8.845  1.7297  1.4948  1.4017
  646MOL0     H87147   7.720   9.989   8.967 -0.4768 -3.0151 -1.0770
  646MOL0     H87148   7.670  10.129   8.876  0.3684  0.1486  5.7550
  646MOL0     H87149   7.637   9.967   8.687  4.4326  1.6101  1.6482
  646MOL0     H87150   7.668   9.830   8.797 -2.4208 -2.0167 -0.4283
  646MOL0     H87151   7.505   9.894   8.937 -2.4891 -0.5016 -0.5849
  646MOL0     H87152   7.449  10.044   8.861  0.4055 -0.0473  2.0122
  646MOL0     H87153   7.409   9.754   8.743 -0.9427 -0.5083 -1.6171
  646MOL0     H87154   7.297   9.844   8.826  1.3857 -1.5463  0.7218
  646MOL0     H87155   7.295  10.031   8.663  3.2925  0.9980 -0.3971
  646MOL0     H87156   7.408   9.932   8.567 -1.1867  0.2643 -1.2502
  646MOL0     H87157   7.245   9.739   8.587  0.9681  0.0068  0.4759
  646MOL0     H87158   7.118   9.860   8.621  0.8408  1.2228  1.3553
  646MOL0     H87159   7.135   9.775   8.408  1.6132 -2.9423  4.7503
  646MOL0     H87160   7.293   9.856   8.374 -0.8576 -0.0411 -1.4626
  646MOL0     H87161   7.250  10.044   8.229 -0.1015 -0.1984  0.8023
  646MOL0     H87162   7.050  10.366   8.221  0.7459  0.6952  0.0416
  646MOL0     H87163   7.190  10.289   8.145  0.4621  1.1319  2.6040
  646MOL0     H87164   6.998  10.139   8.031 -0.8839 -0.8019  2.6284
  646MOL0     H87165   6.986  10.313   7.982  0.3861 -1.6985 -1.5492
  646MOL0     H87166   6.813  10.335   8.184 -1.0678 -1.3136  0.5878
  646MOL0     H87167   6.813  10.152   8.171  0.9461 -0.4081  0.1934
  646MOL0     H87168   6.773  10.211   7.912 -0.4335  0.1051 -0.0652
  646MOL0     H87169   6.743  10.367   7.974  1.4486  0.4167 -2.3654
  646MOL0     H87170   6.452  10.379   8.150 -3.0716 -1.4245  0.5727
  646MOL0     H87171   6.123  10.405   8.108  1.0569 -1.9029 -4.3132
  646MOL0     H87172   6.262  10.480   8.193  0.6268  1.0787  0.4950
  646MOL0     H87173   6.188  10.561   8.055 -4.3993 -0.7351  1.4040
  646MOL0     H87174   6.118  10.285   7.416 -1.4918 -0.8441 -2.1523
  646MOL0     H87175   5.900  10.237   7.292  2.6394 -0.8677  0.6929
  646MOL0     H87176   5.465  10.239   7.372  1.0271  2.6463 -1.6863
  646MOL0     H87177   5.496  10.266   7.545  0.6578  1.0523 -0.1409
  646MOL0     H87178   5.402  10.452   7.442  0.6202  0.8856  2.3750
  646MOL0     H87179   5.563  10.498   7.491  0.2547 -0.7998  0.3761
  646MOL0     H87180   5.483  10.419   7.214  1.2576 -0.4407 -0.1526
  646MOL0     H87181   5.647  10.478   7.269  0.3823  0.3077  1.7495
  646MOL0     H87182   5.391  10.625   7.214  0.3102  0.1941  0.7737
  646MOL0     H87183   5.486  10.687   7.345 -1.4874 -0.4755  1.1405
  646MOL0     H87184   5.499  10.773   7.119 -0.3496 -0.5601 -2.0039
  646MOL0     H87185   5.553  10.625   7.043  1.3289 -1.0055  1.3866
  646MOL0     H87186   5.734  10.806   7.234  0.3026 -0.6245  1.8047
  646MOL0     H87187   5.757  10.646   7.228 -2.3053 -0.5155  1.5914
  646MOL0     H87188   5.769  10.666   6.956 -0.8596  0.5855  0.0937
  646MOL0     H87189   5.902  10.714   7.055  0.1365  0.2469  2.3879
  646MOL0     H87190   5.683  10.897   6.945  0.3405 -0.1335 -0.0827
  646MOL0     H87191   5.853  10.874   6.876  0.3013  0.2725  0.0530
  646MOL0     H87192   5.688  10.255   7.662  0.4661 -3.1920 -1.0783
  646MOL0     H87193   5.913  10.310   7.783  0.5282 -1.6924  0.2668
  646MOL0     H87194   6.352  10.237   7.696 -1.4751 -0.3698  0.2535
  646MOL0     H87195   6.564  10.150   7.808  0.8435  0.4475  0.1034
  646MOL0     H87196   8.076  10.004   8.715 -0.4712 -1.0836  1.7332
  646MOL0     H87197   8.335  10.054   8.713  1.9853  2.7838  0.7455
  646MOL0     H87198   8.670  10.273   8.646 -0.9772 -0.0554  0.4654
  646MOL0     H87199   8.892  10.258   8.619  1.5689  0.0459  0.3108
  646MOL0     H87200   9.131  10.172   8.639  2.4313  0.0958 -0.0632
  646MOL0     H87201   9.100  10.347   8.619 -0.9639  0.5082  1.2439
  646MOL0     H87202   9.321  10.337   8.587  0.0163 -3.8869 -0.8732
  646MOL0     H87203   9.348  10.241   8.742  2.7194  0.1486 -2.2013
  646MOL0     H87204   9.266  10.418   8.883  0.8829  3.5930  0.2483
  646MOL0     H87205   9.231  10.523   8.749 -2.7669 -1.3333 -0.6235
  646MOL0     H87206   9.504  10.417   8.817 -2.3071 -1.1925 -0.7318
  646MOL0     H87207   9.443  10.574   8.858  2.4585  0.3674 -0.5420
  646MOL0     H87208   9.560  10.637   8.466  0.3752 -1.0353 -0.4312
  646MOL0     H87209   8.954  10.259   9.043  1.3993 -0.8684 -1.1780
  646MOL0     H87210   8.698  10.275   9.077 -0.4041 -0.9491  0.3868
  647MOL0     O87211   7.562   6.975   9.569 -0.3578  0.4468 -0.0865
  647MOL0     C87212   7.555   7.095   9.598 -0.5387  0.6269 -0.6268
  647MOL0     O87213   7.464   7.152   9.676  0.6428  0.4844 -0.2154
  647MOL0     C87214   7.355   7.078   9.733  0.6732 -0.7795  0.4230
  647MOL0     C87215   7.370   6.951   9.780 -0.7347 -0.1330 -0.0043
  647MOL0     C87216   7.270   6.873   9.824  0.5802  0.8128  0.8665
  647MOL0     C87217   7.140   6.921   9.837 -0.6005  0.5675  0.2994
  647MOL0     O87218   7.036   6.865   9.898  0.3418  0.4628  0.3583
  647MOL0     C87219   7.054   6.730   9.954 -0.0536 -0.0005 -0.2810
  647MOL0     C87220   6.913   6.679  10.001  0.1491  0.7307  0.6354
  647MOL0     C87221   6.821   6.657   9.882  0.5732 -0.6105 -0.1700
  647MOL0     C87222   6.679   6.618   9.930 -0.5841  0.5072 -0.7200
  647MOL0     C87223   6.668   6.490  10.019  0.2235  0.1183 -0.0554
  647MOL0     C87224   6.521   6.439  10.028 -0.7958 -0.5968  0.1032
  647MOL0     C87225   6.445   6.502  10.141  0.2610  0.4168 -0.2081
  647MOL0     C87226   6.298   6.446  10.135 -0.3342  0.3178 -0.8799
  647MOL0     N87227   6.216   6.480  10.258  0.4195 -0.2981 -0.5842
  647MOL0     C87228   6.167   6.607  10.285  0.4467 -0.1162 -0.3030
  647MOL0     C87229   6.101   6.589  10.403  0.8652 -0.0028 -0.8470
  647MOL0     C87230   6.041   6.690  10.493 -0.1367  0.1388 -0.0198
  647MOL0     C87231   5.906   6.728  10.452  0.5056  0.1660 -0.3661
  647MOL0     C87232   5.806   6.627  10.501 -0.4125 -0.4456 -0.0710
  647MOL0     C87233   5.661   6.671  10.486  0.2599 -0.9082 -0.0665
  647MOL0     O87234   5.641   6.812  10.529  0.0366  0.0063 -0.5830
  647MOL0     C87235   5.516   6.873  10.510 -0.0605  0.6553 -0.4667
  647MOL0     C87236   5.504   7.008  10.512  0.4175 -0.0497 -0.1938
  647MOL0     C87237   5.379   7.072  10.491 -0.1877 -0.1403 -0.5249
  647MOL0     C87238   5.378   7.222  10.487  0.4950 -0.0950 -0.2444
  647MOL0     C87239   5.261   6.996  10.483 -0.0773 -0.2105  0.7507
  647MOL0     C87240   5.121   7.044  10.472  0.1333 -0.6817 -0.0843
  647MOL0     O87241   5.038   6.967  10.401  0.1264  0.1821  0.3460
  647MOL0     C87242   4.904   7.000  10.411  0.2571 -0.6901  0.2157
  647MOL0     C87243   4.842   7.091  10.330  0.3407 -1.1983  0.1616
  647MOL0     C87244   4.702   7.113  10.330  0.4442  0.6199 -0.5883
  647MOL0     C87245   4.625   7.050  10.421  0.2420 -0.1224 -0.6753
  647MOL0     O87246   4.490   7.073  10.429 -0.0772 -0.2660 -0.0455
  647MOL0     C87247   4.430   7.194  10.383 -0.4487  0.5901  0.0293
  647MOL0     C87248   4.324   7.248  10.482 -0.3133  0.6171 -0.0933
  647MOL0     C87249   4.186   7.244  10.421  1.6501  0.2051 -0.3245
  647MOL0     C87250   4.136   7.096  10.415  0.0998 -0.1582  0.4281
  647MOL0     C87251   3.984   7.084  10.375  0.0021  0.0368  0.3354
  647MOL0     C87252   3.887   7.185  10.447 -0.3462  0.3652  0.2325
  647MOL0     C87253   3.745   7.180  10.395  0.6756 -0.7139 -0.3168
  647MOL0     C87254   3.651   7.238  10.486  0.0724  0.4529 -0.1616
  647MOL0    Cl87255   3.490   7.217  10.403 -0.2451 -0.2403 -0.1250
  647MOL0     C87256   4.686   6.963  10.506  0.3801 -0.2511  0.2685
  647MOL0     C87257   4.825   6.932  10.500  0.4415 -0.0319  0.6694
  647MOL0     O87258   5.091   7.148  10.525  0.1508 -0.1858 -0.7760
  647MOL0     C87259   5.273   6.860  10.472  0.1903 -0.6771  0.9259
  647MOL0     C87260   5.400   6.799  10.486 -0.1615 -0.0789  0.0833
  647MOL0     N87261   6.106   6.452  10.442 -0.1814  0.4948  0.0375
  647MOL0     N87262   6.186   6.393  10.360  0.4624  1.0408 -0.8374
  647MOL0     C87263   7.128   7.062   9.810  0.1939 -0.0817  0.0424
  647MOL0     C87264   7.227   7.142   9.750 -0.3191  0.2740  0.2638
  647MOL0     C87265   7.655   7.187   9.536  0.0398  0.4255  0.1480
  647MOL0     C87266   7.743   7.139   9.441 -0.1900 -0.5101  0.1209
  647MOL0     C87267   7.849   7.227   9.392 -0.1468 -0.0981 -0.3245
  647MOL0     C87268   7.860   7.360   9.440  0.2085  0.0477  0.9169
  647MOL0     O87269   7.958   7.455   9.408 -0.1139 -0.8412  0.1028
  647MOL0     C87270   8.066   7.424   9.328 -0.8639  0.2779  0.5728
  647MOL0     C87271   8.162   7.545   9.343 -0.6245 -0.1136 -0.1999
  647MOL0     C87272   8.268   7.528   9.448  0.0792  0.2710  0.6342
  647MOL0     C87273   8.314   7.666   9.513 -0.3277 -0.0074 -0.0464
  647MOL0     C87274   8.429   7.648   9.605 -1.2752  0.0465 -0.8883
  647MOL0     C87275   8.521   7.627   9.682 -0.9231  0.6570  0.2008
  647MOL0     C87276   7.759   7.405   9.531 -0.1069 -0.0239  0.3947
  647MOL0     C87277   7.661   7.319   9.581  0.3568 -0.0593  0.0764
  647MOL0     H87278   7.465   6.900   9.782 -0.5871  0.0394  3.6140
  647MOL0     H87279   7.291   6.770   9.851  0.0547  0.9571  1.8706
  647MOL0     H87280   7.095   6.656   9.885 -2.3467 -2.5783  0.9323
  647MOL0     H87281   7.112   6.747  10.045  1.0198  2.4400 -1.3309
  647MOL0     H87282   6.923   6.581  10.049  1.2241  1.5658  2.2029
  647MOL0     H87283   6.867   6.755  10.065  1.1383  2.9763 -1.2075
  647MOL0     H87284   6.818   6.749   9.823 -1.0413  0.0885  0.9227
  647MOL0     H87285   6.862   6.580   9.816 -0.1044  1.0689 -2.7078
  647MOL0     H87286   6.649   6.708   9.985  0.7840 -0.1994  1.2950
  647MOL0     H87287   6.622   6.604   9.838 -0.4409  3.9396 -1.4638
  647MOL0     H87288   6.724   6.401   9.987 -0.6021  0.2781 -2.0587
  647MOL0     H87289   6.700   6.528  10.117 -1.8798  4.1574 -0.7505
  647MOL0     H87290   6.475   6.457   9.930  0.6318 -1.9641 -0.8509
  647MOL0     H87291   6.541   6.335  10.055 -0.5875 -0.6664 -0.3120
  647MOL0     H87292   6.486   6.487  10.242 -0.0440  0.2748 -0.1053
  647MOL0     H87293   6.439   6.611  10.128  1.7596  0.6146  0.4707
  647MOL0     H87294   6.307   6.337  10.126  1.2230  0.4347 -1.0040
  647MOL0     H87295   6.245   6.477  10.045  2.5820  1.7535 -2.2098
  647MOL0     H87296   6.204   6.700  10.243  2.3043 -0.2124  1.0201
  647MOL0     H87297   6.042   6.660  10.599  1.6821 -1.2151 -0.3807
  647MOL0     H87298   6.104   6.780  10.492  0.8625 -0.4335  2.4956
  647MOL0     H87299   5.903   6.725  10.343 -1.3090  3.1585 -0.5180
  647MOL0     H87300   5.894   6.832  10.484  0.3415 -0.5140  1.9679
  647MOL0     H87301   5.822   6.602  10.606  2.0198 -1.4025 -0.6284
  647MOL0     H87302   5.810   6.531  10.449 -1.4705 -0.5483 -0.0012
  647MOL0     H87303   5.612   6.601  10.554  2.2194 -1.2696  1.0282
  647MOL0     H87304   5.631   6.665  10.381  1.3065  0.0002 -0.4352
  647MOL0     H87305   5.598   7.061  10.523  0.5312  0.0518 -1.4521
  647MOL0     H87306   5.372   7.263  10.588  2.4292  1.4869 -0.7029
  647MOL0     H87307   5.476   7.255  10.451  2.3787 -1.8709  2.8189
  647MOL0     H87308   5.300   7.258  10.419  1.6849 -0.2775 -1.7589
  647MOL0     H87309   4.900   7.161  10.271  2.4554 -0.6653  2.6501
  647MOL0     H87310   4.645   7.173  10.260 -2.6567 -0.8754  0.4694
  647MOL0     H87311   4.506   7.272  10.381  3.5247 -2.8396  1.2982
  647MOL0     H87312   4.377   7.181  10.289 -2.6466  5.3149  0.3397
  647MOL0     H87313   4.323   7.196  10.578 -1.8888  0.8201  0.0259
  647MOL0     H87314   4.348   7.350  10.514 -2.4610  1.3151 -0.5820
  647MOL0     H87315   4.182   7.297  10.325  2.8885  0.5695 -0.1929
  647MOL0     H87316   4.123   7.297  10.493  0.7687 -1.4205  0.1608
  647MOL0     H87317   4.199   7.048  10.340 -0.9190 -0.1872 -0.4389
  647MOL0     H87318   4.145   7.045  10.511 -1.5730 -2.6668 -0.6223
  647MOL0     H87319   3.960   6.979  10.394  0.1043 -0.3674 -1.5861
  647MOL0     H87320   3.974   7.096  10.267  0.5482 -3.6849 -0.2825
  647MOL0     H87321   3.890   7.146  10.550  1.5911  1.5968  0.6930
  647MOL0     H87322   3.931   7.285  10.440 -0.2511  0.4186  1.3867
  647MOL0     H87323   3.706   7.081  10.370  1.1072 -0.7093 -1.0403
  647MOL0     H87324   3.742   7.240  10.303  3.1466 -0.4975 -0.2987
  647MOL0     H87325   3.674   7.343  10.509  1.5261 -0.0161  0.6750
  647MOL0     H87326   3.648   7.190  10.584 -1.7482  3.2097  1.2758
  647MOL0     H87327   4.625   6.911  10.579 -0.5056  0.5781  0.1416
  647MOL0     H87328   4.862   6.859  10.571 -1.5161 -2.2240 -0.4442
  647MOL0     H87329   5.183   6.801  10.457 -0.0649 -0.5857  2.0317
  647MOL0     H87330   5.388   6.691  10.487  1.8550 -0.3599 -1.5445
  647MOL0     H87331   7.030   7.106   9.824 -0.4274 -1.5922  0.6123
  647MOL0     H87332   7.215   7.248   9.732 -0.1754  0.4518  1.2043
  647MOL0     H87333   7.736   7.034   9.415 -1.5539 -0.6739  1.0384
  647MOL0     H87334   7.920   7.197   9.316  0.2989  0.3032 -0.0710
  647MOL0     H87335   8.107   7.328   9.361 -1.6049  0.1610  1.1860
  647MOL0     H87336   8.023   7.415   9.228  0.4577 -1.3274  0.1108
  647MOL0     H87337   8.103   7.633   9.370  1.7540  1.6209 -0.4108
  647MOL0     H87338   8.222   7.559   9.252  0.7569 -1.0220  0.5367
  647MOL0     H87339   8.359   7.483   9.408 -0.0694 -1.1661  1.8074
  647MOL0     H87340   8.230   7.468   9.532 -1.0318  2.5300  1.8261
  647MOL0     H87341   8.236   7.712   9.574  0.2487 -0.2504  0.8974
  647MOL0     H87342   8.345   7.732   9.432 -1.2276  1.3501  0.6750
  647MOL0     H87343   8.607   7.601   9.741 -1.0509 -0.4207 -0.0772
  647MOL0     H87344   7.770   7.506   9.571  1.0846 -0.0682  0.2193
  647MOL0     H87345   7.597   7.352   9.661  2.7636  0.1968  2.0168
  648MOL0     O87346   4.542   7.946   7.453 -0.2020 -0.1402 -0.1688
  648MOL0     C87347   4.582   7.834   7.477 -0.5753 -0.0943  0.0608
  648MOL0     O87348   4.506   7.725   7.492  0.3526 -0.4889 -0.1411
  648MOL0     C87349   4.371   7.735   7.506 -0.0619  0.0418  1.6814
  648MOL0     C87350   4.293   7.839   7.547  0.3320 -0.1194 -0.3002
  648MOL0     C87351   4.148   7.836   7.549 -0.6700 -0.3540 -0.6742
  648MOL0     C87352   4.081   7.719   7.516 -0.4855 -0.0710  0.9093
  648MOL0     O87353   3.944   7.703   7.518  1.0060  0.6661  0.3954
  648MOL0     C87354   3.855   7.807   7.558  1.0736 -0.6579 -0.7176
  648MOL0     C87355   3.710   7.756   7.578  0.0132  0.6369  0.3961
  648MOL0     C87356   3.603   7.864   7.594 -0.1104 -0.7033  0.0696
  648MOL0     C87357   3.580   7.930   7.457  0.2658 -0.1940 -0.8492
  648MOL0     C87358   3.467   8.036   7.452  0.0213  0.0716 -0.2247
  648MOL0     C87359   3.420   8.090   7.314 -0.7023 -0.2734 -0.0967
  648MOL0     C87360   3.298   8.185   7.333 -0.4627 -1.0917 -0.3613
  648MOL0     C87361   3.224   8.207   7.198  0.0048 -0.3611 -0.7424
  648MOL0     N87362   3.109   8.307   7.199 -0.0153 -0.0122  0.5191
  648MOL0     C87363   3.072   8.364   7.318 -0.1302  0.2557  0.2176
  648MOL0     C87364   2.944   8.388   7.318  0.3100  0.4831  0.7131
  648MOL0     C87365   2.873   8.468   7.422  0.2318 -0.1686 -0.9544
  648MOL0     C87366   2.723   8.452   7.411 -0.3219  0.8304  0.6864
  648MOL0     C87367   2.643   8.520   7.518  0.7153 -0.3960  0.5532
  648MOL0     C87368   2.509   8.456   7.528  0.5495 -0.4189  1.0490
  648MOL0     O87369   2.427   8.467   7.404  0.3218  0.9004  0.5420
  648MOL0     C87370   2.292   8.438   7.404  0.2927  0.6606  0.1225
  648MOL0     C87371   2.236   8.380   7.516 -0.1104  0.3397 -0.9235
  648MOL0     C87372   2.098   8.383   7.539  0.4243 -0.1802  0.0524
  648MOL0     C87373   2.056   8.338   7.683 -1.0077 -0.8592  0.7729
  648MOL0     C87374   2.011   8.427   7.438 -0.3048 -0.1520 -0.1090
  648MOL0     C87375   1.858   8.412   7.445 -0.6736 -0.0713  0.0669
  648MOL0     O87376   1.812   8.379   7.565  0.2231  0.2853 -0.0715
  648MOL0     C87377   1.691   8.411   7.607 -0.5665  0.1626 -0.3699
  648MOL0     C87378   1.608   8.508   7.541  0.0494  0.6861  0.0196
  648MOL0     C87379   1.476   8.527   7.585 -0.2600 -0.3370 -0.7388
  648MOL0     C87380   1.436   8.456   7.701  0.0041  0.2408 -0.1882
  648MOL0     O87381   1.307   8.487   7.743  0.2155  0.5607  0.4220
  648MOL0     C87382   1.264   8.471   7.877  0.3092  0.9032 -0.5489
  648MOL0     C87383   1.142   8.566   7.907 -0.0929  0.1494 -0.6667
  648MOL0     C87384   0.998   8.526   7.858 -0.8095  0.1366 -0.8410
  648MOL0     C87385   0.896   8.630   7.878  0.6999 -0.0686 -0.0019
  648MOL0     C87386   0.763   8.584   7.806  0.3049  0.4053  0.2357
  648MOL0     C87387   0.672   8.708   7.790 -0.4182  0.8104 -0.6220
  648MOL0     C87388   0.644   8.774   7.921 -0.1805 -0.6623 -0.1313
  648MOL0     C87389   0.554   8.896   7.899 -0.1951  0.1478 -0.3893
  648MOL0    Cl87390   0.486   8.943   8.064  0.4307 -0.1868 -0.3863
  648MOL0     C87391   1.524   8.372   7.775 -0.0451  0.1806  0.2942
  648MOL0     C87392   1.656   8.365   7.729 -0.0675  0.8271  0.1533
  648MOL0     O87393   1.792   8.437   7.347 -0.7904  0.3951  0.1784
  648MOL0     C87394   2.069   8.459   7.318  1.0262 -0.3824  0.0919
  648MOL0     C87395   2.205   8.473   7.302 -0.2620  0.9397 -0.6088
  648MOL0     N87396   2.892   8.328   7.204  0.0631 -0.4439 -0.1138
  648MOL0     N87397   2.992   8.288   7.129  0.1485  0.1571 -0.2219
  648MOL0     C87398   4.163   7.608   7.480 -0.0845  0.2374 -0.6898
  648MOL0     C87399   4.305   7.616   7.478 -0.5974 -0.0066  0.2940
  648MOL0     C87400   4.733   7.816   7.477  0.1127 -0.5638 -0.1213
  648MOL0     C87401   4.813   7.911   7.424 -0.0215 -0.5664 -0.2843
  648MOL0     C87402   4.950   7.891   7.402 -0.3387 -0.2558 -0.1763
  648MOL0     C87403   5.004   7.762   7.441 -0.5632 -0.1855 -0.1019
  648MOL0     O87404   5.137   7.760   7.405 -0.4636 -0.1002  0.4807
  648MOL0     C87405   5.214   7.655   7.459 -1.0837 -1.2597 -0.2606
  648MOL0     C87406   5.344   7.721   7.521 -0.0600 -0.1509 -0.2940
  648MOL0     C87407   5.365   7.870   7.490 -0.0610  0.2438  0.5496
  648MOL0     C87408   5.477   7.914   7.578 -0.4205  0.1703 -0.4973
  648MOL0     C87409   5.524   8.054   7.565 -0.8138 -0.7637 -0.6035
  648MOL0     C87410   5.575   8.161   7.560 -0.3694  0.1523 -0.0606
  648MOL0     C87411   4.923   7.670   7.507 -0.4191 -0.6335 -0.7683
  648MOL0     C87412   4.790   7.701   7.532  0.7550  0.3871 -0.3628
  648MOL0     H87413   4.339   7.933   7.576  0.5222 -0.0739 -0.7287
  648MOL0     H87414   4.102   7.930   7.578  0.9535  0.0079  0.8702
  648MOL0     H87415   3.882   7.849   7.656  1.7473 -0.1551 -1.1066
  648MOL0     H87416   3.862   7.884   7.480  1.1419  0.1356  0.0566
  648MOL0     H87417   3.699   7.694   7.489  0.3204 -0.1307  0.8743
  648MOL0     H87418   3.705   7.688   7.664  0.5691  0.7323  0.5078
  648MOL0     H87419   3.506   7.825   7.627 -1.4356  0.9780 -1.6084
  648MOL0     H87420   3.631   7.932   7.675 -2.1102 -0.9697  1.0554
  648MOL0     H87421   3.673   7.984   7.432  0.7467 -0.3130  0.5810
  648MOL0     H87422   3.560   7.857   7.378 -1.5183 -0.5561 -0.1000
  648MOL0     H87423   3.379   7.998   7.505  0.0881  1.3802  0.8750
  648MOL0     H87424   3.501   8.122   7.511 -0.4154 -0.1291  0.3373
  648MOL0     H87425   3.499   8.150   7.268 -0.5834  0.7285  1.3548
  648MOL0     H87426   3.398   8.004   7.250 -0.6984 -0.5291  0.2405
  648MOL0     H87427   3.227   8.135   7.400 -1.8839  0.9896 -0.2294
  648MOL0     H87428   3.343   8.277   7.371 -1.8518 -1.6066  2.9355
  648MOL0     H87429   3.174   8.114   7.169 -3.0035  0.2369  1.9274
  648MOL0     H87430   3.298   8.238   7.123  1.5221  1.0593  1.2116
  648MOL0     H87431   3.147   8.402   7.387 -1.2784  1.5257  0.8323
  648MOL0     H87432   2.898   8.434   7.523 -2.0955  1.2134  0.1516
  648MOL0     H87433   2.904   8.573   7.416  1.6014 -0.2770  2.2474
  648MOL0     H87434   2.691   8.348   7.410  1.4351  0.2271 -1.9278
  648MOL0     H87435   2.698   8.501   7.317  1.4857  3.3048  1.3766
  648MOL0     H87436   2.621   8.624   7.493  2.0878  0.0156  0.9213
  648MOL0     H87437   2.693   8.517   7.615 -1.6692 -1.4153  1.8260
  648MOL0     H87438   2.454   8.508   7.607  1.7440  1.3128  0.7949
  648MOL0     H87439   2.524   8.351   7.556  0.4976 -0.2360  1.7893
  648MOL0     H87440   2.310   8.347   7.588  2.0877  0.8271 -2.8611
  648MOL0     H87441   1.988   8.252   7.681 -2.2620  0.1016  0.8018
  648MOL0     H87442   2.139   8.298   7.742 -2.4422 -1.8829  2.1767
  648MOL0     H87443   2.003   8.419   7.735  2.5636  1.2977  1.3789
  648MOL0     H87444   1.629   8.552   7.444  1.9634  0.4720  0.2998
  648MOL0     H87445   1.412   8.587   7.522  0.6446  2.5382  0.8653
  648MOL0     H87446   1.253   8.364   7.898 -1.9986  1.1199 -0.4269
  648MOL0     H87447   1.343   8.507   7.943 -0.1644  0.4059  0.3061
  648MOL0     H87448   1.126   8.565   8.015 -0.1100  0.2644 -0.6669
  648MOL0     H87449   1.164   8.671   7.882 -2.4526  0.5362 -1.3241
  648MOL0     H87450   0.969   8.437   7.915  0.7280 -1.5911 -2.6244
  648MOL0     H87451   1.000   8.494   7.754 -1.3576 -0.9723 -0.5355
  648MOL0     H87452   0.885   8.642   7.986 -2.5643  1.2843 -0.3830
  648MOL0     H87453   0.911   8.731   7.838 -0.0410  0.2013  0.3793
  648MOL0     H87454   0.721   8.505   7.868  0.1131  1.1906  1.1359
  648MOL0     H87455   0.780   8.551   7.704 -3.3209 -1.9601  0.2262
  648MOL0     H87456   0.707   8.785   7.720 -3.1278  1.6400 -1.1541
  648MOL0     H87457   0.577   8.668   7.756 -0.4798 -1.6812  2.0964
  648MOL0     H87458   0.731   8.812   7.975 -0.6223  1.1802 -0.6360
  648MOL0     H87459   0.587   8.699   7.976  0.5241 -1.8377 -0.9442
  648MOL0     H87460   0.471   8.866   7.835  0.4494 -0.6699 -0.8738
  648MOL0     H87461   0.613   8.977   7.854 -0.4204 -1.1262 -3.2432
  648MOL0     H87462   1.490   8.330   7.869 -0.0894 -1.0732 -0.2612
  648MOL0     H87463   1.717   8.301   7.791 -2.3687  0.7779  2.5423
  648MOL0     H87464   2.009   8.492   7.234  1.8825 -1.4036 -0.9472
  648MOL0     H87465   2.267   8.516   7.223  3.2825  0.8526  1.8812
  648MOL0     H87466   4.113   7.518   7.447 -1.8861  1.2284 -0.8070
  648MOL0     H87467   4.361   7.527   7.450 -0.6607 -0.2532  0.9222
  648MOL0     H87468   4.769   8.006   7.393  0.8629  0.1083  0.4587
  648MOL0     H87469   5.014   7.954   7.341 -0.3367 -0.1839 -0.0999
  648MOL0     H87470   5.181   7.589   7.540  0.8861  0.6130  2.2463
  648MOL0     H87471   5.247   7.593   7.374  0.7136 -0.4848 -0.1801
  648MOL0     H87472   5.429   7.671   7.475  0.6999 -0.1404  1.0436
  648MOL0     H87473   5.356   7.703   7.628 -0.3063  0.1038 -0.2206
  648MOL0     H87474   5.277   7.928   7.518 -1.4607 -0.2468 -2.4269
  648MOL0     H87475   5.387   7.881   7.384  0.9237  0.9895  0.8189
  648MOL0     H87476   5.557   7.848   7.544 -1.3505 -0.7486 -0.9568
  648MOL0     H87477   5.453   7.895   7.684 -0.9464  3.4509  0.0779
  648MOL0     H87478   5.619   8.257   7.544 -0.2864 -0.0473 -1.1062
  648MOL0     H87479   4.973   7.579   7.540  0.8241  0.2402 -0.1566
  648MOL0     H87480   4.721   7.631   7.577 -0.3179 -0.7941 -3.6082
  649MOL0     O87481   4.033   8.691   9.631 -0.7467  0.2317  0.2621
  649MOL0     C87482   4.035   8.807   9.662  0.0793  0.0286 -0.3047
  649MOL0     O87483   3.929   8.895   9.666  0.2995  0.5435 -0.0439
  649MOL0     C87484   3.794   8.867   9.652 -0.9297  0.8266 -0.4759
  649MOL0     C87485   3.741   8.743   9.603  0.2787  0.0299  0.0104
  649MOL0     C87486   3.605   8.726   9.592 -0.3336  0.3960  0.2860
  649MOL0     C87487   3.519   8.829   9.642 -1.1540 -0.2076  0.4763
  649MOL0     O87488   3.387   8.825   9.632  0.3074 -0.5145 -0.1581
  649MOL0     C87489   3.326   8.704   9.579 -0.1942 -0.5142 -0.5020
  649MOL0     C87490   3.177   8.723   9.594 -0.8146  0.1739 -0.1651
  649MOL0     C87491   3.100   8.643   9.490  0.6300  0.0421  0.4092
  649MOL0     C87492   2.958   8.700   9.490 -0.7717  0.7503 -0.2151
  649MOL0     C87493   2.869   8.618   9.398 -0.4162 -0.0519  0.1118
  649MOL0     C87494   2.724   8.653   9.411 -0.5128  0.0184  0.4220
  649MOL0     C87495   2.625   8.559   9.353  0.8858  0.2455  0.2021
  649MOL0     C87496   2.488   8.635   9.343 -0.1743 -0.4363  0.4983
  649MOL0     N87497   2.378   8.545   9.301 -0.3638 -0.6919  0.1449
  649MOL0     C87498   2.254   8.589   9.279  0.0580 -0.9882 -0.3710
  649MOL0     C87499   2.190   8.485   9.233 -0.1357  0.2658  0.5111
  649MOL0     C87500   2.045   8.464   9.197  0.5228 -0.5158 -0.0909
  649MOL0     C87501   1.989   8.335   9.261 -1.4847  0.8484  0.3296
  649MOL0     C87502   1.838   8.348   9.246 -0.8727  0.7074  0.0528
  649MOL0     C87503   1.775   8.205   9.266 -0.0881 -0.7754  0.5933
  649MOL0     O87504   1.630   8.209   9.245 -0.4364  0.6132 -0.0656
  649MOL0     C87505   1.541   8.258   9.345 -0.1052  0.1897  0.4982
  649MOL0     C87506   1.573   8.308   9.471  0.1190 -0.0202  0.4006
  649MOL0     C87507   1.475   8.361   9.566  0.1318  0.7866  0.0120
  649MOL0     C87508   1.539   8.404   9.701 -0.0431  0.2484 -0.1804
  649MOL0     C87509   1.333   8.349   9.539 -0.6284 -0.3273 -0.2065
  649MOL0     C87510   1.222   8.405   9.627  0.8815 -0.1831 -0.2644
  649MOL0     O87511   1.094   8.360   9.594  0.0027  0.0428 -0.3818
  649MOL0     C87512   0.998   8.349   9.694 -0.7451  0.2674  0.7109
  649MOL0     C87513   0.865   8.344   9.659  0.7376  0.7236  0.1632
  649MOL0     C87514   0.759   8.343   9.747 -0.0842  0.0552 -0.4033
  649MOL0     C87515   0.780   8.347   9.876 -0.5129 -0.1727 -0.3410
  649MOL0     O87516   0.674   8.334   9.964 -1.0188 -0.8239  0.2457
  649MOL0     C87517   0.573   8.442   9.951  0.5757 -0.3764 -0.1717
  649MOL0     C87518   0.466   8.428  10.063 -0.3953 -0.5783  0.0319
  649MOL0     C87519   0.329   8.495  10.008 -0.4142  1.1022 -0.5806
  649MOL0     C87520   0.243   8.534  10.126 -0.3329  0.3860  0.6903
  649MOL0     C87521   0.119   8.608  10.080 -0.1496 -0.0917 -0.9428
  649MOL0     C87522   0.057   8.683  10.193 -0.4393 -0.0098  0.4229
  649MOL0     C87523  -0.068   8.766  10.144 -0.3966  0.1653 -0.7314
  649MOL0     C87524  -0.026   8.888  10.062 -0.3191 -0.8557 -0.2682
  649MOL0    Cl87525  -0.175   8.983  10.021  0.0183  0.1968 -0.2645
  649MOL0     C87526   0.906   8.344   9.928 -0.3755 -0.0951 -0.0705
  649MOL0     C87527   1.015   8.340   9.833 -0.4465  0.1897 -0.3102
  649MOL0     O87528   1.246   8.483   9.719  0.6474 -0.6353 -0.1032
  649MOL0     C87529   1.302   8.288   9.414 -0.8876  0.6480 -0.1539
  649MOL0     C87530   1.398   8.250   9.320  0.0748  0.8263 -0.3002
  649MOL0     N87531   2.279   8.384   9.231  0.1968  0.1329 -0.0591
  649MOL0     N87532   2.385   8.412   9.276  0.0952 -0.3051 -0.6368
  649MOL0     C87533   3.566   8.950   9.687  0.3864 -0.0951 -0.2592
  649MOL0     C87534   3.706   8.973   9.691 -0.6605  0.7724  0.6855
  649MOL0     C87535   4.165   8.865   9.694 -1.9373  0.8076  0.7357
  649MOL0     C87536   4.188   8.991   9.747  0.2622  0.5818  0.3217
  649MOL0     C87537   4.317   9.037   9.772  0.2495  0.2519  0.1486
  649MOL0     C87538   4.424   8.958   9.728  0.9833  0.2604 -0.0145
  649MOL0     O87539   4.541   9.020   9.747 -0.4932  1.1934  0.8429
  649MOL0     C87540   4.663   8.943   9.741 -0.0426  0.0909 -0.5135
  649MOL0     C87541   4.727   8.935   9.601  0.8228 -0.2070  0.4840
  649MOL0     C87542   4.876   8.892   9.607 -0.2710  0.1656 -0.3436
  649MOL0     C87543   4.981   8.994   9.652 -0.2573 -0.3240 -0.5070
  649MOL0     C87544   5.120   8.948   9.624  0.4369  0.2730  0.2210
  649MOL0     C87545   5.234   8.915   9.604  1.0907 -0.5850 -1.2989
  649MOL0     C87546   4.405   8.825   9.675 -0.0915  0.6054 -0.2383
  649MOL0     C87547   4.279   8.780   9.657 -0.4709  0.0147  0.0332
  649MOL0     H87548   3.791   8.651   9.576 -2.1389 -2.0898  2.2442
  649MOL0     H87549   3.568   8.635   9.544 -1.0519 -0.2772  2.0127
  649MOL0     H87550   3.360   8.691   9.475  0.9094  0.6353 -0.3110
  649MOL0     H87551   3.369   8.620   9.634 -0.6991  0.2423  1.1056
  649MOL0     H87552   3.145   8.698   9.696 -0.9964 -1.9971 -0.7133
  649MOL0     H87553   3.152   8.829   9.584 -1.6898 -0.1576 -1.8746
  649MOL0     H87554   3.146   8.657   9.392  2.3374  0.5641  1.2489
  649MOL0     H87555   3.095   8.535   9.509 -1.3682  0.2641  1.4919
  649MOL0     H87556   2.914   8.703   9.591 -0.9066  0.0647 -0.2496
  649MOL0     H87557   2.954   8.804   9.455 -2.6938  0.2418 -1.6807
  649MOL0     H87558   2.893   8.633   9.292 -1.6525  1.2684 -0.0074
  649MOL0     H87559   2.892   8.514   9.424  0.8930 -0.1672 -1.3283
  649MOL0     H87560   2.708   8.656   9.519 -4.5442  0.2630 -0.0187
  649MOL0     H87561   2.712   8.749   9.360  1.1755  0.2701  0.4474
  649MOL0     H87562   2.666   8.513   9.262  2.2180 -1.1331  1.4380
  649MOL0     H87563   2.611   8.469   9.413 -1.8210 -0.7788 -1.7526
  649MOL0     H87564   2.494   8.713   9.266 -0.8185 -0.6529  0.2260
  649MOL0     H87565   2.452   8.677   9.436 -1.4151 -0.3123 -0.0257
  649MOL0     H87566   2.216   8.687   9.307 -1.8322 -1.4507 -1.1393
  649MOL0     H87567   2.000   8.553   9.241  3.9744  0.6246  1.5350
  649MOL0     H87568   2.045   8.460   9.087 -0.5589 -0.5637 -0.0975
  649MOL0     H87569   2.017   8.332   9.367  0.8777 -0.9246 -0.2534
  649MOL0     H87570   2.035   8.248   9.214  0.5568  2.0333  0.0321
  649MOL0     H87571   1.795   8.386   9.153 -2.4951 -1.9688 -0.4181
  649MOL0     H87572   1.785   8.414   9.315  1.1433  0.7517  1.6508
  649MOL0     H87573   1.792   8.163   9.365 -2.1525  2.1873  2.3414
  649MOL0     H87574   1.810   8.143   9.182  0.5188  1.3822 -0.8457
  649MOL0     H87575   1.676   8.319   9.503 -0.3070 -1.6433  2.5580
  649MOL0     H87576   1.496   8.496   9.741  0.2144  0.0514  0.5538
  649MOL0     H87577   1.541   8.335   9.785  0.1028 -0.7798 -1.0016
  649MOL0     H87578   1.642   8.439   9.687 -0.0737  0.5737  0.3898
  649MOL0     H87579   0.843   8.338   9.553 -0.6641  0.0207  0.4624
  649MOL0     H87580   0.657   8.336   9.711  0.0327 -0.3129 -0.6633
  649MOL0     H87581   0.618   8.541   9.953 -1.5326  0.6283 -0.4401
  649MOL0     H87582   0.526   8.436   9.852 -0.8715 -1.9837  0.5545
  649MOL0     H87583   0.446   8.326  10.098  1.1293 -1.0793 -0.5143
  649MOL0     H87584   0.506   8.480  10.151 -0.1695 -2.1089  0.8685
  649MOL0     H87585   0.288   8.423   9.937  0.4708 -0.1764  0.1550
  649MOL0     H87586   0.356   8.575   9.939  1.2507 -2.0487 -3.9180
  649MOL0     H87587   0.205   8.445  10.179  0.2653  0.8842  1.9835
  649MOL0     H87588   0.299   8.586  10.203 -0.8982  0.3044  1.1651
  649MOL0     H87589   0.052   8.529  10.046 -0.7870  0.0490 -0.0664
  649MOL0     H87590   0.129   8.661   9.985 -0.1371 -2.3344 -2.2466
  649MOL0     H87591   0.020   8.604  10.258 -1.3101 -0.2132 -0.3010
  649MOL0     H87592   0.121   8.755  10.244  1.7937 -0.7515 -1.1777
  649MOL0     H87593  -0.107   8.802  10.240 -0.3414 -0.4519 -0.4698
  649MOL0     H87594  -0.148   8.706  10.101  0.2540 -2.6100  1.6157
  649MOL0     H87595   0.018   8.864   9.965  0.8544 -0.7598  0.2308
  649MOL0     H87596   0.036   8.962  10.113 -1.6771 -0.6563  1.1715
  649MOL0     H87597   0.927   8.357  10.034 -0.7799  2.2474 -0.2113
  649MOL0     H87598   1.120   8.334   9.860  0.0435  1.7963 -1.6735
  649MOL0     H87599   1.201   8.298   9.375 -0.4206  1.1495 -1.2995
  649MOL0     H87600   1.379   8.218   9.218  1.8072 -0.3452 -0.2935
  649MOL0     H87601   3.504   9.031   9.722  0.0944 -1.6811  3.3569
  649MOL0     H87602   3.758   9.061   9.726  1.9528 -0.3927 -0.0449
  649MOL0     H87603   4.110   9.057   9.782 -0.2940  1.9168 -3.0508
  649MOL0     H87604   4.332   9.138   9.811 -0.8991  0.7890 -0.7503
  649MOL0     H87605   4.739   8.989   9.805  0.3182 -0.3378 -0.6311
  649MOL0     H87606   4.645   8.841   9.776 -1.2077  0.8209  1.1498
  649MOL0     H87607   4.723   9.036   9.559 -1.0480 -0.2546  0.4594
  649MOL0     H87608   4.676   8.865   9.534 -1.7165 -1.3705  3.4126
  649MOL0     H87609   4.899   8.852   9.507  0.6416 -0.1838 -0.0119
  649MOL0     H87610   4.890   8.811   9.680 -0.9468  0.8752  0.5835
  649MOL0     H87611   4.965   9.020   9.757  0.6093  2.7871 -1.0425
  649MOL0     H87612   4.960   9.078   9.585  0.9616  1.9023  1.7570
  649MOL0     H87613   5.335   8.897   9.572  0.3839 -1.5236 -3.1074
  649MOL0     H87614   4.490   8.768   9.641  1.1318  1.7567  0.7823
  649MOL0     H87615   4.268   8.676   9.628  1.1112  0.1282 -1.0922
  650MOL0     O87616   2.487   2.960   2.329 -0.2851  0.2546 -0.0064
  650MOL0     C87617   2.563   2.977   2.234  0.1817  0.3876 -0.1978
  650MOL0     O87618   2.531   3.005   2.101  0.3816 -0.5054 -0.4833
  650MOL0     C87619   2.400   2.995   2.071  0.0513 -0.1251  0.9501
  650MOL0     C87620   2.308   3.096   2.114  0.2576 -0.1436 -0.0095
  650MOL0     C87621   2.178   3.088   2.072 -0.5061 -0.3666  0.4375
  650MOL0     C87622   2.124   2.982   1.995  0.0289 -0.7485 -0.3819
  650MOL0     O87623   1.986   2.978   1.969 -0.8108  0.0120 -0.0498
  650MOL0     C87624   1.936   2.877   1.878 -0.7868 -0.5350  0.1006
  650MOL0     C87625   1.789   2.867   1.860 -0.3468 -0.5630  0.1463
  650MOL0     C87626   1.752   2.759   1.758  0.2500  0.7944 -0.7115
  650MOL0     C87627   1.601   2.786   1.707  0.2669 -0.2056  0.1996
  650MOL0     C87628   1.562   2.702   1.587 -0.0544  0.4044  0.0214
  650MOL0     C87629   1.612   2.752   1.449 -0.2672  0.5013  0.2303
  650MOL0     C87630   1.553   2.669   1.330  0.4220 -0.7041  0.8674
  650MOL0     C87631   1.414   2.708   1.284  0.3456 -0.2829 -0.3729
  650MOL0     N87632   1.390   2.815   1.188 -0.0362 -0.0509  0.1588
  650MOL0     C87633   1.492   2.907   1.155 -0.4760  0.0421 -0.3150
  650MOL0     C87634   1.436   2.997   1.066 -0.1165  0.3286 -0.4898
  650MOL0     C87635   1.482   3.127   1.006  0.2863 -0.1023  0.2037
  650MOL0     C87636   1.495   3.124   0.852  0.6456 -0.2096  0.0737
  650MOL0     C87637   1.389   3.182   0.760  0.3579 -0.0447 -0.4803
  650MOL0     C87638   1.260   3.087   0.760 -0.1468 -0.2526 -0.1267
  650MOL0     O87639   1.281   3.002   0.649  0.9657  0.7542 -0.8580
  650MOL0     C87640   1.180   2.922   0.598 -0.0494 -0.5225 -0.5529
  650MOL0     C87641   1.217   2.830   0.494 -0.1931  0.2285 -0.7854
  650MOL0     C87642   1.123   2.779   0.405  0.5500 -0.3548 -0.3600
  650MOL0     C87643   1.174   2.714   0.281 -0.3032  0.5654 -0.2043
  650MOL0     C87644   0.983   2.799   0.430  0.2534  1.0561 -0.0967
  650MOL0     C87645   0.873   2.718   0.382 -0.1268 -0.6422 -0.9595
  650MOL0     O87646   0.746   2.766   0.395  0.1663  0.6766  0.6299
  650MOL0     C87647   0.638   2.713   0.329  0.3861  0.0791  0.3470
  650MOL0     C87648   0.648   2.631   0.218 -0.4711  0.3216  0.7028
  650MOL0     C87649   0.538   2.569   0.162 -0.1845 -0.0564 -0.4080
  650MOL0     C87650   0.416   2.575   0.221 -0.3395 -0.2185 -0.5826
  650MOL0     O87651   0.309   2.507   0.175  0.1429 -0.1112  0.1756
  650MOL0     C87652   0.303   2.457   0.045  0.5914 -0.2155 -0.0910
  650MOL0     C87653   0.154   2.429   0.003 -0.2558  0.0830  0.2073
  650MOL0     C87654   0.085   2.315   0.075 -0.0035 -0.6764 -0.1106
  650MOL0     C87655  -0.074   2.322   0.093 -0.1655  0.0005 -0.8173
  650MOL0     C87656  -0.168   2.281  -0.014  0.0268  0.5370  0.1327
  650MOL0     C87657  -0.322   2.277   0.032  1.0183  0.6324  0.4146
  650MOL0     C87658  -0.403   2.208  -0.077  0.1415 -0.2505 -1.3918
  650MOL0     C87659  -0.546   2.194  -0.034  1.0002 -0.4666  1.0677
  650MOL0    Cl87660  -0.577   2.081   0.101 -0.0403 -0.4854  0.1888
  650MOL0     C87661   0.408   2.648   0.337 -0.1018  0.2533 -0.2921
  650MOL0     C87662   0.514   2.710   0.396  0.7520 -0.6448 -0.2348
  650MOL0     O87663   0.911   2.611   0.337 -0.2331 -0.2119  0.1301
  650MOL0     C87664   0.946   2.882   0.541 -0.2709  0.2977 -0.0176
  650MOL0     C87665   1.044   2.945   0.618  0.3136 -0.1415 -0.1459
  650MOL0     N87666   1.297   2.956   1.073 -0.0663 -0.1459  0.2343
  650MOL0     N87667   1.270   2.854   1.148  0.1243  0.1720  1.3112
  650MOL0     C87668   2.209   2.880   1.957 -0.2209  0.7882  0.1453
  650MOL0     C87669   2.347   2.890   1.991  0.3485  0.2127  0.7318
  650MOL0     C87670   2.701   2.955   2.262 -1.2588 -0.1644  1.0435
  650MOL0     C87671   2.776   3.019   2.368  0.0147 -0.4325  1.0209
  650MOL0     C87672   2.913   2.991   2.386 -0.6339 -0.1749 -0.4173
  650MOL0     C87673   2.991   2.920   2.288  0.1996  0.5611 -1.0336
  650MOL0     O87674   3.128   2.891   2.297  0.0522 -0.2192  0.0167
  650MOL0     C87675   3.208   2.987   2.371  0.6671 -0.6512 -0.3906
  650MOL0     C87676   3.356   2.958   2.357 -0.3935 -0.4700 -0.2631
  650MOL0     C87677   3.385   2.849   2.469 -0.2763  0.0708 -0.0698
  650MOL0     C87678   3.525   2.853   2.515 -0.1243  0.0379  0.3398
  650MOL0     C87679   3.623   2.810   2.409  0.3410 -0.0249 -0.3185
  650MOL0     C87680   3.710   2.781   2.330  0.0917 -0.2098  0.8262
  650MOL0     C87681   2.922   2.872   2.181 -0.1832  0.3476 -0.3064
  650MOL0     C87682   2.781   2.891   2.162  0.0260  0.5578  0.5569
  650MOL0     H87683   2.348   3.190   2.150 -0.4030  0.4200 -0.7069
  650MOL0     H87684   2.109   3.159   2.116 -1.0528  0.1341 -1.1492
  650MOL0     H87685   1.988   2.875   1.782 -2.0040  1.7799 -0.6732
  650MOL0     H87686   1.955   2.783   1.931 -1.4101  0.1869  1.6706
  650MOL0     H87687   1.735   2.834   1.949 -1.9523 -0.5297 -0.7749
  650MOL0     H87688   1.748   2.962   1.823 -0.0881 -1.8390 -3.8244
  650MOL0     H87689   1.826   2.748   1.678  1.7217 -0.7007  0.7744
  650MOL0     H87690   1.764   2.665   1.811  5.4120  1.3342 -0.4214
  650MOL0     H87691   1.534   2.768   1.791 -1.2139  2.3532 -0.3303
  650MOL0     H87692   1.586   2.891   1.681 -1.3708 -0.2615  0.7945
  650MOL0     H87693   1.597   2.599   1.597 -0.2814  0.0592 -2.3027
  650MOL0     H87694   1.454   2.710   1.577 -0.0740  0.2939  0.1362
  650MOL0     H87695   1.591   2.856   1.422 -2.2996  0.0716 -0.0420
  650MOL0     H87696   1.719   2.740   1.434 -0.5214 -0.8795 -0.5737
  650MOL0     H87697   1.610   2.677   1.237  0.4711 -4.4567  0.4375
  650MOL0     H87698   1.559   2.564   1.358  0.1110 -0.7508  0.7662
  650MOL0     H87699   1.362   2.743   1.374 -0.0034  2.0048 -1.3867
  650MOL0     H87700   1.360   2.618   1.254  0.1567 -0.2459 -0.1499
  650MOL0     H87701   1.592   2.897   1.195 -1.3774 -2.3431  1.5643
  650MOL0     H87702   1.422   3.211   1.040  0.2315  0.5914 -1.5180
  650MOL0     H87703   1.588   3.144   1.029  0.0354  2.4721 -0.2829
  650MOL0     H87704   1.515   3.023   0.816  0.2307 -0.5491  0.7657
  650MOL0     H87705   1.585   3.183   0.832  0.1717 -0.1124 -1.9984
  650MOL0     H87706   1.436   3.186   0.661  0.4225  0.4710 -0.4313
  650MOL0     H87707   1.371   3.287   0.785 -2.2735 -0.2041 -1.3450
  650MOL0     H87708   1.176   3.154   0.741 -0.5374 -1.3295 -2.5296
  650MOL0     H87709   1.253   3.018   0.845 -2.6073  0.6694  0.4938
  650MOL0     H87710   1.323   2.816   0.477 -0.2932 -0.9058 -0.5651
  650MOL0     H87711   1.097   2.695   0.205  1.7064 -0.1337 -2.1820
  650MOL0     H87712   1.245   2.779   0.229  0.1793  0.5651  0.4451
  650MOL0     H87713   1.229   2.626   0.315  0.9129  1.6946  0.8665
  650MOL0     H87714   0.738   2.620   0.158 -0.2723  0.3636  0.9915
  650MOL0     H87715   0.565   2.512   0.074  5.2464  1.1460  0.1392
  650MOL0     H87716   0.335   2.543  -0.014 -2.9505  1.3908  0.0966
  650MOL0     H87717   0.365   2.368   0.027  0.3027 -0.8074  1.5935
  650MOL0     H87718   0.092   2.515   0.028 -1.7373 -1.3859  1.8855
  650MOL0     H87719   0.144   2.411  -0.105 -3.2829 -1.6303  0.6559
  650MOL0     H87720   0.128   2.307   0.175  0.3055  0.9232 -0.0919
  650MOL0     H87721   0.098   2.217   0.029 -2.0584  0.8631 -4.5150
  650MOL0     H87722  -0.093   2.270   0.187  1.3159 -0.4753 -0.7500
  650MOL0     H87723  -0.108   2.425   0.109 -1.6421 -0.4779 -0.7494
  650MOL0     H87724  -0.133   2.180  -0.038  1.2470  0.7269  0.9954
  650MOL0     H87725  -0.150   2.348  -0.098 -0.5141  2.7070  1.6556
  650MOL0     H87726  -0.338   2.236   0.132  1.5744 -0.7432 -0.0498
  650MOL0     H87727  -0.347   2.383   0.045  2.9657  1.1395  0.3513
  650MOL0     H87728  -0.364   2.106  -0.085 -0.5559 -0.9476  2.2718
  650MOL0     H87729  -0.380   2.269  -0.165 -1.0289  1.1381 -0.7690
  650MOL0     H87730  -0.616   2.168  -0.114 -0.8264  2.4336  1.5788
  650MOL0     H87731  -0.571   2.295  -0.000 -0.4273 -0.0542 -1.0440
  650MOL0     H87732   0.304   2.656   0.369 -0.3069 -0.7587 -0.6479
  650MOL0     H87733   0.518   2.762   0.491 -0.9521  2.3445 -1.6707
  650MOL0     H87734   0.841   2.907   0.554 -0.4239 -0.2001 -0.2535
  650MOL0     H87735   1.015   3.012   0.698 -4.9609 -2.8356  0.6546
  650MOL0     H87736   2.176   2.784   1.921 -0.3189  1.6422 -2.1850
  650MOL0     H87737   2.408   2.805   1.964 -2.3377 -2.7022  2.9751
  650MOL0     H87738   2.719   3.076   2.441 -1.8216  1.3698 -1.6042
  650MOL0     H87739   2.973   3.001   2.476 -1.2709 -0.5882  0.0588
  650MOL0     H87740   3.181   3.086   2.335  1.2471 -0.9002 -1.5603
  650MOL0     H87741   3.177   2.976   2.475 -0.8997 -1.7414 -0.9423
  650MOL0     H87742   3.417   3.047   2.371 -0.1646  0.2937 -4.7405
  650MOL0     H87743   3.380   2.913   2.260  0.8258  0.3757 -0.3772
  650MOL0     H87744   3.368   2.752   2.420  0.6982  0.8128 -1.9637
  650MOL0     H87745   3.308   2.849   2.547  1.5572 -0.9290  1.8492
  650MOL0     H87746   3.539   2.785   2.599 -0.3703  0.0536  0.3934
  650MOL0     H87747   3.552   2.956   2.542 -0.2443  0.0263  0.5049
  650MOL0     H87748   3.792   2.770   2.263  0.2770 -0.6202  1.1242
  650MOL0     H87749   2.976   2.821   2.101 -0.5750  0.4087 -0.6126
  650MOL0     H87750   2.729   2.863   2.070 -0.1426  3.8705 -0.4946
  651MOL0     O87751   7.703   4.598   4.274  0.3953  0.2907 -0.7261
  651MOL0     C87752   7.812   4.657   4.296 -0.1439  0.2824 -0.3916
  651MOL0     O87753   7.840   4.792   4.280 -0.1184 -0.3488  0.6457
  651MOL0     C87754   7.728   4.874   4.262 -0.7658 -0.9025  0.0188
  651MOL0     C87755   7.681   4.965   4.359  0.3362  0.3052  0.5704
  651MOL0     C87756   7.576   5.051   4.339  0.3129  0.6513  0.0535
  651MOL0     C87757   7.503   5.052   4.220 -0.5040 -0.2716 -0.3506
  651MOL0     O87758   7.407   5.146   4.192 -0.6364  0.5042 -0.2387
  651MOL0     C87759   7.351   5.221   4.300 -0.0516  0.3201 -0.1271
  651MOL0     C87760   7.226   5.312   4.277  0.1837 -0.0390 -1.2683
  651MOL0     C87761   7.099   5.231   4.241 -0.1854 -0.1546 -0.0412
  651MOL0     C87762   6.980   5.313   4.256 -0.2782  0.1067  0.0660
  651MOL0     C87763   6.859   5.228   4.284 -0.1071  0.0550  0.1960
  651MOL0     C87764   6.721   5.305   4.289 -0.2005 -0.4855  0.2437
  651MOL0     C87765   6.598   5.215   4.282  0.7795 -0.8901 -0.7421
  651MOL0     C87766   6.535   5.194   4.141 -0.4920 -0.2566  0.4146
  651MOL0     N87767   6.627   5.142   4.047 -0.2939 -0.1557  0.0998
  651MOL0     C87768   6.650   5.016   4.020  0.4816 -0.0395 -0.0918
  651MOL0     C87769   6.747   5.010   3.924 -0.8055 -0.9481 -0.1649
  651MOL0     C87770   6.808   4.892   3.859  1.1209 -0.0038  0.5002
  651MOL0     C87771   6.910   4.844   3.962 -0.0475 -0.2529  0.2715
  651MOL0     C87772   7.030   4.938   3.966  0.0224 -0.7873  0.5479
  651MOL0     C87773   7.138   4.894   4.059  0.2305 -0.1537 -0.3509
  651MOL0     O87774   7.092   4.898   4.199  0.1148  0.0078 -0.3877
  651MOL0     C87775   7.179   4.843   4.288 -0.2696  0.2506  0.4447
  651MOL0     C87776   7.133   4.833   4.418  0.4976 -0.1338 -0.7983
  651MOL0     C87777   7.197   4.766   4.528 -0.1690 -0.3912 -0.2119
  651MOL0     C87778   7.126   4.766   4.661 -0.0197  0.3348 -0.7930
  651MOL0     C87779   7.327   4.712   4.500 -0.6853  0.4610  0.1743
  651MOL0     C87780   7.413   4.644   4.605  0.3673  0.2433  0.9305
  651MOL0     O87781   7.503   4.558   4.560 -0.1722 -0.2270 -0.4452
  651MOL0     C87782   7.605   4.513   4.648  0.3076  0.3039 -0.3744
  651MOL0     C87783   7.611   4.504   4.786 -1.2167  0.3806  0.4171
  651MOL0     C87784   7.732   4.456   4.849 -0.1232  0.6192 -0.4322
  651MOL0     C87785   7.837   4.404   4.773 -0.5973  0.7505  0.1922
  651MOL0     O87786   7.960   4.354   4.815  0.3242 -0.0365 -0.4750
  651MOL0     C87787   7.960   4.273   4.936  0.0445  0.4738 -0.1770
  651MOL0     C87788   8.091   4.289   5.006 -0.5397  0.6401  0.7660
  651MOL0     C87789   8.115   4.158   5.093 -0.2870  1.5033  0.4055
  651MOL0     C87790   8.257   4.157   5.160  0.1358 -0.6440  0.6880
  651MOL0     C87791   8.375   4.137   5.060 -0.7709  0.1296 -0.0930
  651MOL0     C87792   8.514   4.099   5.112 -0.3096  0.6991 -0.0645
  651MOL0     C87793   8.586   4.210   5.187  0.1881 -0.5603 -0.1831
  651MOL0     C87794   8.647   4.309   5.080  0.3129 -0.5396  0.0720
  651MOL0    Cl87795   8.814   4.245   5.032 -0.0623  0.0910  0.0201
  651MOL0     C87796   7.820   4.408   4.641 -0.8956 -0.0162  0.3688
  651MOL0     C87797   7.710   4.459   4.587  0.2798  1.4763 -0.0560
  651MOL0     O87798   7.404   4.688   4.716  0.0059  0.2804  0.6461
  651MOL0     C87799   7.376   4.714   4.365  0.2748 -0.5348  0.1895
  651MOL0     C87800   7.304   4.785   4.268  0.9305  0.0232  0.4668
  651MOL0     N87801   6.782   5.145   3.889 -0.0195  0.1545 -0.2242
  651MOL0     N87802   6.705   5.219   3.969 -0.2593 -0.4923  0.4398
  651MOL0     C87803   7.549   4.965   4.121 -0.5072  0.1355  0.3787
  651MOL0     C87804   7.656   4.864   4.143  0.3867 -1.1201 -0.2231
  651MOL0     C87805   7.917   4.565   4.323  0.2141  0.5329 -0.5357
  651MOL0     C87806   8.032   4.617   4.396  0.4359  0.4831 -0.5485
  651MOL0     C87807   8.142   4.535   4.406 -0.5885  0.6372 -0.2494
  651MOL0     C87808   8.133   4.403   4.368 -0.0733 -0.5664  0.4401
  651MOL0     O87809   8.242   4.310   4.374 -0.0016 -0.9297  0.1631
  651MOL0     C87810   8.244   4.224   4.487 -0.3751  0.0685 -0.1467
  651MOL0     C87811   8.299   4.288   4.615 -0.5430 -0.4097 -0.4078
  651MOL0     C87812   8.446   4.330   4.584 -0.8919 -0.8989  0.5733
  651MOL0     C87813   8.536   4.318   4.702 -1.1912  0.3750 -0.7880
  651MOL0     C87814   8.580   4.179   4.716  0.7832  0.2556  0.6823
  651MOL0     C87815   8.584   4.052   4.724  0.3462 -0.7659 -0.1035
  651MOL0     C87816   8.025   4.349   4.313  0.1685 -0.1544  0.5090
  651MOL0     C87817   7.918   4.433   4.286 -0.1266  0.5151  0.3175
  651MOL0     H87818   7.730   4.976   4.455  2.1781 -3.7642  0.2947
  651MOL0     H87819   7.550   5.125   4.415 -2.2438 -0.7173  0.6371
  651MOL0     H87820   7.328   5.145   4.376 -2.8033  0.9150 -0.2697
  651MOL0     H87821   7.426   5.286   4.346 -0.8343 -0.5273  2.5379
  651MOL0     H87822   7.207   5.356   4.375 -0.0465  0.3218 -1.4764
  651MOL0     H87823   7.236   5.390   4.201  0.7492 -1.0217 -2.2322
  651MOL0     H87824   7.108   5.190   4.140 -2.5017 -0.6623 -0.0882
  651MOL0     H87825   7.090   5.149   4.313  1.6269 -1.6246 -1.3767
  651MOL0     H87826   6.994   5.385   4.338 -2.2412 -0.7079  1.2105
  651MOL0     H87827   6.962   5.363   4.161 -3.5338  3.3543  2.0913
  651MOL0     H87828   6.858   5.161   4.198  0.7636  0.9952 -0.5695
  651MOL0     H87829   6.880   5.164   4.370 -0.2676 -1.8802 -1.1477
  651MOL0     H87830   6.709   5.358   4.384  0.2069  1.0092 -0.5094
  651MOL0     H87831   6.715   5.373   4.204  0.2108  1.5078  1.7392
  651MOL0     H87832   6.627   5.119   4.326  2.5344  0.5392  1.4838
  651MOL0     H87833   6.515   5.257   4.341 -0.2925 -1.5230 -1.7516
  651MOL0     H87834   6.509   5.294   4.108 -1.3949 -1.1333 -1.7178
  651MOL0     H87835   6.451   5.124   4.149  0.0454 -1.2404 -1.8867
  651MOL0     H87836   6.615   4.931   4.079 -1.9796 -0.2995 -1.7399
  651MOL0     H87837   6.730   4.816   3.854 -0.0984  0.8594  3.5644
  651MOL0     H87838   6.852   4.920   3.763  2.1452  2.2129  1.5292
  651MOL0     H87839   6.939   4.744   3.927 -2.8300 -0.3953 -2.0044
  651MOL0     H87840   6.857   4.834   4.057 -1.7871  1.4805 -0.4313
  651MOL0     H87841   6.998   5.040   3.991  2.7211 -0.1389  1.6456
  651MOL0     H87842   7.073   4.926   3.866  0.2125 -1.2614  0.6800
  651MOL0     H87843   7.226   4.958   4.054  0.0870  0.2589  1.5992
  651MOL0     H87844   7.170   4.794   4.028 -0.4872  0.1331 -2.0966
  651MOL0     H87845   7.035   4.875   4.437  0.1745  0.0544 -2.6791
  651MOL0     H87846   7.127   4.672   4.718 -0.4070 -0.0631 -1.4296
  651MOL0     H87847   7.179   4.831   4.731 -0.1652 -1.3858  1.0294
  651MOL0     H87848   7.022   4.797   4.645 -1.7971 -0.8258  5.4572
  651MOL0     H87849   7.533   4.530   4.857 -0.6876  0.6963  0.8947
  651MOL0     H87850   7.744   4.458   4.957  2.9554 -1.8359 -0.5696
  651MOL0     H87851   7.887   4.301   5.012  0.6529  4.0872 -0.7730
  651MOL0     H87852   7.931   4.172   4.906  2.1435  0.7446 -3.8574
  651MOL0     H87853   8.173   4.295   4.934 -0.5661 -0.7185  0.5926
  651MOL0     H87854   8.089   4.367   5.083 -0.1935 -2.3970  4.1167
  651MOL0     H87855   8.103   4.067   5.035  0.6176  1.5437  0.1359
  651MOL0     H87856   8.039   4.158   5.172 -1.4966 -1.3313 -0.6398
  651MOL0     H87857   8.274   4.252   5.210 -1.0844 -0.0970  0.0836
  651MOL0     H87858   8.260   4.082   5.240 -1.3947 -1.4233  0.0540
  651MOL0     H87859   8.392   4.229   5.003 -0.6996 -0.1955 -0.6030
  651MOL0     H87860   8.337   4.053   5.000 -3.6263  0.0178  1.6599
  651MOL0     H87861   8.504   4.018   5.185 -1.6770  0.5646 -0.3781
  651MOL0     H87862   8.565   4.065   5.022  1.2882 -0.5236  1.2300
  651MOL0     H87863   8.674   4.177   5.243 -0.2102 -1.0164  0.1739
  651MOL0     H87864   8.520   4.263   5.256  1.8662 -0.0382  1.0916
  651MOL0     H87865   8.658   4.408   5.125 -1.0703  0.2974 -1.3356
  651MOL0     H87866   8.586   4.315   4.989 -0.9102 -0.5784  0.8541
  651MOL0     H87867   7.888   4.364   4.569 -1.1635  2.6360 -1.6401
  651MOL0     H87868   7.701   4.457   4.479 -2.6012  1.6717  0.1114
  651MOL0     H87869   7.476   4.684   4.337  1.3071  3.0814 -0.4913
  651MOL0     H87870   7.364   4.791   4.177  1.8134 -0.0403  1.0334
  651MOL0     H87871   7.501   4.961   4.023 -2.1039  3.9344  0.8364
  651MOL0     H87872   7.673   4.784   4.071 -1.0820 -1.6644 -0.0080
  651MOL0     H87873   8.037   4.717   4.436 -0.2274  0.5913 -0.7215
  651MOL0     H87874   8.239   4.565   4.444 -1.4296  1.7331  1.1585
  651MOL0     H87875   8.144   4.188   4.512 -0.5834 -1.1567 -2.4869
  651MOL0     H87876   8.297   4.131   4.466  0.6479  0.5423  0.2756
  651MOL0     H87877   8.289   4.217   4.697 -2.0371  1.0257  0.7391
  651MOL0     H87878   8.236   4.373   4.644 -1.0536 -0.8789 -0.1084
  651MOL0     H87879   8.440   4.435   4.557 -1.9268 -0.7832  1.1957
  651MOL0     H87880   8.485   4.268   4.502 -0.8040 -1.6519  1.1711
  651MOL0     H87881   8.480   4.345   4.792 -0.5037  2.0409 -0.8232
  651MOL0     H87882   8.628   4.377   4.693 -0.7312 -0.4933 -2.1030
  651MOL0     H87883   8.581   3.946   4.709 -0.4326 -0.5836 -1.3657
  651MOL0     H87884   8.020   4.241   4.304  1.3522 -0.1759  0.0071
  651MOL0     H87885   7.839   4.382   4.232 -0.2661 -0.6800  1.5965
  652MOL0     O87886   3.840   2.836   9.680 -0.3156  0.0290 -0.0044
  652MOL0     C87887   3.830   2.776   9.576 -0.0740  0.0990  0.8332
  652MOL0     O87888   3.713   2.768   9.496  0.2107  0.4565 -0.8898
  652MOL0     C87889   3.629   2.876   9.508  0.4323 -0.4863 -1.2231
  652MOL0     C87890   3.642   2.985   9.428  0.6112 -0.4088  0.2319
  652MOL0     C87891   3.559   3.100   9.446  0.0310 -0.4007 -0.7923
  652MOL0     C87892   3.456   3.098   9.546  0.7058 -0.1357 -0.0278
  652MOL0     O87893   3.369   3.198   9.576 -0.1151  0.0115 -0.4931
  652MOL0     C87894   3.407   3.334   9.550  0.1413 -0.7417 -0.6795
  652MOL0     C87895   3.328   3.423   9.649 -0.2102 -0.1438 -0.4480
  652MOL0     C87896   3.298   3.559   9.589 -0.4612  0.1253 -0.4567
  652MOL0     C87897   3.303   3.673   9.695 -0.3217 -1.5804 -1.1974
  652MOL0     C87898   3.190   3.776   9.672 -0.4202  0.3385 -0.4547
  652MOL0     C87899   3.193   3.886   9.778 -0.3806 -0.1002 -0.0414
  652MOL0     C87900   3.114   4.010   9.727  0.4113  0.4257 -0.0150
  652MOL0     C87901   3.085   4.104   9.834 -0.8112 -0.4929 -0.5892
  652MOL0     N87902   2.973   4.185   9.781  0.5666  0.1862 -0.4234
  652MOL0     C87903   2.974   4.302   9.711  0.1815  0.4218 -0.3802
  652MOL0     C87904   2.838   4.322   9.690  0.0807 -0.4184  0.7372
  652MOL0     C87905   2.779   4.440   9.621  0.4272 -0.3347 -0.4265
  652MOL0     C87906   2.691   4.402   9.503 -0.0124 -0.0042 -0.7670
  652MOL0     C87907   2.555   4.336   9.533  0.1485  0.1458 -0.1970
  652MOL0     C87908   2.469   4.393   9.647 -0.3950 -0.5174  0.2483
  652MOL0     O87909   2.336   4.334   9.660  0.0092 -0.4786  0.3603
  652MOL0     C87910   2.247   4.353   9.560 -0.2351 -0.1855  0.1410
  652MOL0     C87911   2.255   4.428   9.438 -0.7696 -0.0646  0.8064
  652MOL0     C87912   2.152   4.444   9.340 -0.6759  0.5823 -0.2823
  652MOL0     C87913   2.182   4.508   9.211 -0.1512  0.3537  0.9011
  652MOL0     C87914   2.028   4.371   9.363  0.0507 -0.0974  0.6581
  652MOL0     C87915   1.905   4.386   9.275 -0.1578  0.5001  0.5598
  652MOL0     O87916   1.791   4.352   9.334  0.3515 -0.2058  0.1135
  652MOL0     C87917   1.675   4.384   9.270  0.5359 -0.2270  0.2937
  652MOL0     C87918   1.629   4.325   9.149  0.1264  0.2834  0.9479
  652MOL0     C87919   1.513   4.372   9.085  0.2258 -0.3731  0.0452
  652MOL0     C87920   1.437   4.475   9.144  0.0243 -0.2276 -0.7484
  652MOL0     O87921   1.312   4.525   9.108  0.5398 -0.3039 -0.6232
  652MOL0     C87922   1.233   4.459   9.007  0.4442  0.0074  1.6033
  652MOL0     C87923   1.095   4.525   8.980  0.3257  0.2491 -0.1153
  652MOL0     C87924   0.993   4.469   9.093 -0.3604 -0.5694  0.3516
  652MOL0     C87925   0.855   4.527   9.078 -0.0637  0.0866 -0.0097
  652MOL0     C87926   0.786   4.514   8.939  0.0216  0.5816  0.4118
  652MOL0     C87927   0.639   4.531   8.952  0.6460  0.0692 -0.5628
  652MOL0     C87928   0.588   4.574   8.818 -0.0571 -0.6840  0.2923
  652MOL0     C87929   0.427   4.583   8.833  0.2473  0.4420 -0.1289
  652MOL0    Cl87930   0.355   4.424   8.780  0.0732  0.0827 -0.1170
  652MOL0     C87931   1.484   4.531   9.256 -0.6758  0.5143 -0.5897
  652MOL0     C87932   1.608   4.497   9.319  0.3427  0.5945  0.0779
  652MOL0     O87933   1.917   4.397   9.150  0.1877  0.0387  0.2356
  652MOL0     C87934   2.023   4.291   9.479  0.5397 -0.0468  0.4381
  652MOL0     C87935   2.128   4.277   9.568 -0.6934  0.1707  0.8179
  652MOL0     N87936   2.763   4.230   9.761 -0.2796  0.3480 -0.2048
  652MOL0     N87937   2.848   4.146   9.809 -0.5536 -0.5487  0.4423
  652MOL0     C87938   3.445   2.985   9.624  0.3753 -0.1611  0.4501
  652MOL0     C87939   3.533   2.879   9.612  1.2336  0.1353  0.2564
  652MOL0     C87940   3.957   2.706   9.525  0.2426 -0.1041 -0.4765
  652MOL0     C87941   4.077   2.686   9.602 -0.4080 -0.3408 -0.0714
  652MOL0     C87942   4.191   2.616   9.550 -0.6924 -0.1074  0.6173
  652MOL0     C87943   4.173   2.558   9.424  0.0031  0.1692  0.1249
  652MOL0     O87944   4.271   2.494   9.350  0.6414  0.0419 -0.1017
  652MOL0     C87945   4.403   2.483   9.405 -1.2158  0.2426 -0.0941
  652MOL0     C87946   4.471   2.369   9.325  0.1020 -0.6009 -0.3334
  652MOL0     C87947   4.495   2.409   9.178  0.3812  1.8023  0.7067
  652MOL0     C87948   4.579   2.540   9.163 -0.1966 -0.3798  0.0109
  652MOL0     C87949   4.615   2.573   9.027  0.3771  0.2981  0.2853
  652MOL0     C87950   4.643   2.608   8.917 -0.0744  0.7042  0.3699
  652MOL0     C87951   4.065   2.576   9.350  0.3128 -0.3621 -0.3249
  652MOL0     C87952   3.953   2.648   9.399 -0.0005  0.6746  0.9939
  652MOL0     H87953   3.712   2.985   9.345 -1.7479  2.5704 -2.0367
  652MOL0     H87954   3.565   3.186   9.379  1.8106  2.3652  2.5306
  652MOL0     H87955   3.516   3.343   9.558  0.2133  1.7038 -2.8408
  652MOL0     H87956   3.378   3.354   9.446 -0.1889  0.1043 -0.4262
  652MOL0     H87957   3.235   3.372   9.676 -0.3216 -1.4203 -2.9312
  652MOL0     H87958   3.392   3.436   9.737 -3.5186  2.2069  1.8576
  652MOL0     H87959   3.370   3.591   9.513  0.0473 -0.9393 -0.4322
  652MOL0     H87960   3.199   3.552   9.544 -0.9990  0.0139  0.7006
  652MOL0     H87961   3.297   3.643   9.800  1.0884 -1.1604 -0.9830
  652MOL0     H87962   3.397   3.729   9.693 -1.6595  0.9287  0.3353
  652MOL0     H87963   3.192   3.821   9.572 -1.5163 -0.6813 -0.9647
  652MOL0     H87964   3.095   3.723   9.685 -0.2873 -0.4094 -2.2627
  652MOL0     H87965   3.161   3.856   9.878 -3.6303  2.3227 -0.2103
  652MOL0     H87966   3.299   3.912   9.788  0.0508 -0.3171 -3.0752
  652MOL0     H87967   3.164   4.051   9.639 -2.8240  2.2234 -1.2037
  652MOL0     H87968   3.022   3.966   9.688  0.5954 -1.8908  1.9995
  652MOL0     H87969   3.177   4.160   9.853  1.9758 -4.5121 -1.0489
  652MOL0     H87970   3.058   4.049   9.925  0.2765 -0.9354 -0.5243
  652MOL0     H87971   3.056   4.361   9.672  0.7875 -1.2457 -1.8078
  652MOL0     H87972   2.731   4.499   9.699  0.4158 -2.5936  1.3765
  652MOL0     H87973   2.860   4.503   9.583  1.4009 -1.6001 -0.4843
  652MOL0     H87974   2.748   4.344   9.430  2.2839  0.3032  0.6693
  652MOL0     H87975   2.662   4.497   9.456 -3.2461 -0.9408 -0.9142
  652MOL0     H87976   2.557   4.229   9.559 -1.9742  0.4589  1.5693
  652MOL0     H87977   2.499   4.346   9.440  0.4087  0.5445 -0.3123
  652MOL0     H87978   2.459   4.501   9.629 -0.6708 -1.0690 -4.2699
  652MOL0     H87979   2.527   4.376   9.738 -0.7857 -0.6406  0.4716
  652MOL0     H87980   2.355   4.454   9.404 -0.5972 -2.4353 -0.7279
  652MOL0     H87981   2.269   4.574   9.222 -0.7480  1.6593 -1.4660
  652MOL0     H87982   2.208   4.434   9.135 -0.5311 -0.1486  1.2539
  652MOL0     H87983   2.106   4.574   9.169 -2.2837 -0.2822  3.5006
  652MOL0     H87984   1.682   4.242   9.102 -2.4111 -0.5092 -0.7500
  652MOL0     H87985   1.490   4.313   8.997 -0.6601  0.1854 -0.1120
  652MOL0     H87986   1.291   4.470   8.914 -0.2903  1.9731  1.3241
  652MOL0     H87987   1.218   4.355   9.038 -1.1773 -0.4862 -0.5481
  652MOL0     H87988   1.102   4.633   8.998 -3.1214  0.4959  0.4433
  652MOL0     H87989   1.065   4.499   8.879 -1.5199 -2.9769  1.1260
  652MOL0     H87990   1.033   4.490   9.193  2.3083  1.3228 -0.9621
  652MOL0     H87991   0.990   4.360   9.086 -0.5556 -0.5349 -0.1559
  652MOL0     H87992   0.800   4.487   9.164  0.3481 -1.4348 -0.4286
  652MOL0     H87993   0.868   4.633   9.101 -0.3901  0.4397 -1.3996
  652MOL0     H87994   0.814   4.419   8.892  2.8385  1.7430 -0.4612
  652MOL0     H87995   0.820   4.593   8.871 -2.2995 -1.1247 -3.0380
  652MOL0     H87996   0.610   4.427   8.973  0.3833  0.1375 -0.5942
  652MOL0     H87997   0.599   4.603   9.024 -1.5043 -0.6262 -0.9816
  652MOL0     H87998   0.601   4.509   8.731  0.7286  0.4826 -0.4863
  652MOL0     H87999   0.629   4.674   8.807 -1.1929 -0.0812  1.2394
  652MOL0     H88000   0.394   4.667   8.773  2.2911  1.4164  0.0203
  652MOL0     H88001   0.399   4.612   8.935  2.0393 -0.3653  0.6420
  652MOL0     H88002   1.437   4.619   9.299  1.3107  1.1252  0.4730
  652MOL0     H88003   1.648   4.553   9.402  0.7597  0.8650 -0.3056
  652MOL0     H88004   1.928   4.248   9.509  0.8268 -0.4719  0.7488
  652MOL0     H88005   2.121   4.196   9.640 -0.5059  1.2561  2.0650
  652MOL0     H88006   3.364   2.987   9.697  1.9943  0.6478  2.3277
  652MOL0     H88007   3.520   2.789   9.672  1.2016 -0.3327 -0.4293
  652MOL0     H88008   4.094   2.728   9.701 -1.0227 -1.9887  0.7662
  652MOL0     H88009   4.285   2.624   9.605 -0.5715  4.5089  0.1095
  652MOL0     H88010   4.459   2.576   9.389 -0.9059  0.2298  0.8409
  652MOL0     H88011   4.414   2.450   9.509  3.9917  0.6055 -0.2700
  652MOL0     H88012   4.404   2.283   9.332 -1.3613  0.4437 -1.0414
  652MOL0     H88013   4.556   2.321   9.374 -0.3311  0.4056  1.4807
  652MOL0     H88014   4.400   2.421   9.125  1.8824 -1.4645 -3.2868
  652MOL0     H88015   4.545   2.320   9.139 -3.6429 -0.4696  0.1010
  652MOL0     H88016   4.663   2.531   9.233 -0.6348 -0.5476  0.5296
  652MOL0     H88017   4.521   2.626   9.198  2.3318  0.9941  1.0987
  652MOL0     H88018   4.665   2.631   8.814 -0.0388  1.0446  0.4550
  652MOL0     H88019   4.054   2.532   9.251 -2.2903 -2.7774  0.8871
  652MOL0     H88020   3.875   2.661   9.324  1.0955  3.9562  0.2302
  653MOL0     O88021   3.465  10.616   1.364  0.0045  0.2130  0.6590
  653MOL0     C88022   3.560  10.694   1.329 -0.4739 -0.1257 -0.0038
  653MOL0     O88023   3.543  10.778   1.226 -0.0503  0.3411 -0.6929
  653MOL0     C88024   3.419  10.815   1.180 -0.5405 -0.0778 -0.6903
  653MOL0     C88025   3.368  10.938   1.217  0.2922 -0.2959 -0.3965
  653MOL0     C88026   3.240  10.973   1.177 -0.5006 -0.5421 -0.5071
  653MOL0     C88027   3.160  10.889   1.103  0.8420 -0.7992  0.1454
  653MOL0     O88028   3.036  10.936   1.077  0.0788 -0.1021 -0.3055
  653MOL0     C88029   2.976  10.910   0.946 -0.3952 -0.2033  0.4986
  653MOL0     C88030   2.828  10.938   0.933 -0.5136  0.3824 -0.2364
  653MOL0     C88031   2.761  10.913   0.791 -0.7971  1.1068  0.1547
  653MOL0     C88032   2.704  11.033   0.718  0.8481 -0.3747 -0.0479
  653MOL0     C88033   2.611  10.997   0.595 -0.3221 -1.5288 -0.2957
  653MOL0     C88034   2.605  11.110   0.506  0.6909 -0.0195  0.8127
  653MOL0     C88035   2.510  11.077   0.388  0.5872 -0.0966 -0.5638
  653MOL0     C88036   2.512  11.182   0.276  0.5653 -0.1062 -0.0396
  653MOL0     N88037   2.465  11.315   0.336 -1.9667 -0.0956 -0.2219
  653MOL0     C88038   2.327  11.357   0.356 -0.6875 -0.1238 -0.0580
  653MOL0     C88039   2.343  11.481   0.403  0.8584 -0.4808  0.3426
  653MOL0     C88040   2.227  11.563   0.436  0.4383 -0.1457 -0.7047
  653MOL0     C88041   2.179  11.533   0.580 -0.0299 -0.1626 -0.7598
  653MOL0     C88042   2.045  11.601   0.599  0.0886 -0.3934 -0.9666
  653MOL0     C88043   1.973  11.578   0.734 -0.0925 -0.7831  0.6495
  653MOL0     O88044   1.841  11.633   0.719 -0.0330 -0.6536  0.0089
  653MOL0     C88045   1.739  11.599   0.808  0.5236 -0.5023 -0.8045
  653MOL0     C88046   1.743  11.483   0.894  0.0209  0.4674  0.3809
  653MOL0     C88047   1.633  11.453   0.985  0.0963  0.2405  0.1626
  653MOL0     C88048   1.654  11.335   1.061  1.7391  0.2265  0.2753
  653MOL0     C88049   1.517  11.538   0.987 -0.7955  0.5091  0.4591
  653MOL0     C88050   1.411  11.530   1.081 -0.0330  0.1249 -0.3449
  653MOL0     O88051   1.293  11.571   1.036 -0.0330  1.1388  0.0640
  653MOL0     C88052   1.182  11.596   1.103  0.2898 -0.1662  0.9517
  653MOL0     C88053   1.134  11.517   1.202 -0.2977 -0.2280 -0.2145
  653MOL0     C88054   1.007  11.529   1.248 -0.1550  0.5637 -0.4435
  653MOL0     C88055   0.920  11.620   1.190 -0.4882 -0.4827 -0.8514
  653MOL0     O88056   0.796  11.637   1.245  0.5709  0.2688  0.4396
  653MOL0     C88057   0.764  11.757   1.315 -0.1973  0.4047  0.1672
  653MOL0     C88058   0.617  11.785   1.339  0.3537  0.1984 -0.8598
  653MOL0     C88059   0.534  11.655   1.364  0.6574 -0.1493 -0.4212
  653MOL0     C88060   0.386  11.689   1.402 -0.0815  0.1815  0.7529
  653MOL0     C88061   0.296  11.562   1.427 -0.3380 -0.6247 -0.2985
  653MOL0     C88062   0.148  11.594   1.457  0.0955 -0.4645 -0.2965
  653MOL0     C88063   0.073  11.461   1.487 -0.7629 -0.4206  0.5630
  653MOL0     C88064  -0.074  11.497   1.506  0.1696  0.0151  0.4738
  653MOL0    Cl88065  -0.092  11.609   1.638  0.0178 -0.2728 -0.1136
  653MOL0     C88066   0.968  11.708   1.093  0.0635  0.1842 -0.8536
  653MOL0     C88067   1.098  11.695   1.047  0.4211 -0.0612 -0.1498
  653MOL0     O88068   1.438  11.506   1.201  0.8427  0.3628  0.1683
  653MOL0     C88069   1.513  11.647   0.892  1.6363  0.6216 -0.4181
  653MOL0     C88070   1.619  11.678   0.814  0.4149 -0.2624  0.3752
  653MOL0     N88071   2.473  11.505   0.424 -0.6116 -0.2765 -0.0061
  653MOL0     N88072   2.550  11.408   0.383  0.0696  0.6616  0.0194
  653MOL0     C88073   3.205  10.762   1.075 -0.0886  0.0541 -0.2866
  653MOL0     C88074   3.334  10.726   1.115 -0.7290  0.3974 -0.3326
  653MOL0     C88075   3.707  10.679   1.367  0.1962  0.7453 -0.5123
  653MOL0     C88076   3.740  10.593   1.475  0.4388 -0.4517  0.8364
  653MOL0     C88077   3.869  10.579   1.528 -0.6187  0.0904 -0.6583
  653MOL0     C88078   3.973  10.649   1.475 -0.3598 -0.4299  0.8079
  653MOL0     O88079   4.105  10.650   1.508  0.3314  0.3676  0.2939
  653MOL0     C88080   4.140  10.583   1.631  0.3368 -0.1742 -0.4255
  653MOL0     C88081   4.287  10.594   1.668  0.2321 -0.0608  0.5998
  653MOL0     C88082   4.329  10.742   1.701 -0.0908  0.2144 -0.4049
  653MOL0     C88083   4.358  10.825   1.569  0.0950  0.1253 -0.2783
  653MOL0     C88084   4.421  10.947   1.590 -0.2171  0.2978 -0.1197
  653MOL0     C88085   4.456  11.060   1.590 -0.0553 -0.0639 -0.4336
  653MOL0     C88086   3.944  10.734   1.375  0.2044 -0.4298 -1.0821
  653MOL0     C88087   3.818  10.752   1.325  0.3827  0.1580 -0.4604
  653MOL0     H88088   3.422  11.010   1.277  0.7790  0.4289 -1.6596
  653MOL0     H88089   3.200  11.068   1.211 -3.7543 -1.2759 -1.8744
  653MOL0     H88090   3.026  10.986   0.884  0.4403 -1.6996 -0.7255
  653MOL0     H88091   3.002  10.812   0.906 -0.5569 -1.2098  2.7428
  653MOL0     H88092   2.773  10.885   1.011 -0.3059 -2.3155 -1.8057
  653MOL0     H88093   2.817  11.043   0.963 -1.0175 -0.1480  1.5474
  653MOL0     H88094   2.833  10.855   0.732  0.7062 -0.8913  3.6532
  653MOL0     H88095   2.682  10.842   0.816 -1.1428  0.8563 -1.5038
  653MOL0     H88096   2.641  11.097   0.782  0.6212  0.3556 -0.9845
  653MOL0     H88097   2.791  11.094   0.692  1.4390 -0.8668  0.7248
  653MOL0     H88098   2.647  10.911   0.537 -0.0274 -0.1132 -2.3323
  653MOL0     H88099   2.509  10.978   0.628 -0.8287  1.7372  0.3424
  653MOL0     H88100   2.562  11.192   0.565 -2.7554 -1.3618  0.4076
  653MOL0     H88101   2.706  11.130   0.468 -0.4857 -0.5653 -2.9080
  653MOL0     H88102   2.543  10.980   0.349  2.1119 -1.3634  3.3165
  653MOL0     H88103   2.412  11.056   0.432  0.9474  2.5404  1.7573
  653MOL0     H88104   2.442  11.154   0.197  0.4058  1.8595 -0.6471
  653MOL0     H88105   2.613  11.194   0.236  0.5198 -0.8047 -0.3791
  653MOL0     H88106   2.237  11.315   0.313  0.5510 -0.1461 -2.8519
  653MOL0     H88107   2.247  11.669   0.423  1.6780 -0.0333  1.5946
  653MOL0     H88108   2.146  11.539   0.366 -0.0409 -0.0539 -0.1917
  653MOL0     H88109   2.254  11.557   0.656 -0.7194 -0.9820  0.2194
  653MOL0     H88110   2.172  11.426   0.603  0.2194 -0.2141 -0.9188
  653MOL0     H88111   1.984  11.556   0.521  1.3090 -1.1179 -1.5256
  653MOL0     H88112   2.058  11.710   0.590  1.0882 -0.4371 -0.2809
  653MOL0     H88113   2.026  11.620   0.820 -0.1276  2.6770 -0.8585
  653MOL0     H88114   1.966  11.469   0.743 -0.3369 -0.8933 -0.6086
  653MOL0     H88115   1.815  11.403   0.881  0.6501  0.7778  1.7817
  653MOL0     H88116   1.638  11.342   1.169 -1.9196 -0.7157 -0.0695
  653MOL0     H88117   1.575  11.264   1.034  0.3538  1.6628  0.3721
  653MOL0     H88118   1.751  11.289   1.042  1.4061  0.7602 -3.5170
  653MOL0     H88119   1.207  11.445   1.239  0.1417 -0.5684 -1.6891
  653MOL0     H88120   0.974  11.463   1.328  3.5382 -2.0620 -0.8108
  653MOL0     H88121   0.820  11.766   1.409  0.3574 -2.5589  0.2276
  653MOL0     H88122   0.800  11.839   1.254 -4.0013  2.3080  0.1686
  653MOL0     H88123   0.606  11.852   1.425 -1.0655  0.3044 -1.0950
  653MOL0     H88124   0.568  11.823   1.249 -1.6878  0.2241  0.1964
  653MOL0     H88125   0.574  11.593   1.445  0.2170 -0.1979 -0.2344
  653MOL0     H88126   0.537  11.597   1.271 -1.3867 -0.5538 -0.2793
  653MOL0     H88127   0.382  11.763   1.483  1.9423  2.7353 -1.3247
  653MOL0     H88128   0.345  11.734   1.311  1.5156 -1.3203 -0.7886
  653MOL0     H88129   0.344  11.502   1.505  4.9601  1.5145 -1.4650
  653MOL0     H88130   0.289  11.499   1.338 -1.4989 -1.9765  0.7134
  653MOL0     H88131   0.145  11.661   1.544  1.3892  0.1688 -0.7118
  653MOL0     H88132   0.115  11.644   1.366 -1.4903  1.1017  1.0409
  653MOL0     H88133   0.124  11.405   1.566 -0.2433  1.3249  1.5351
  653MOL0     H88134   0.073  11.396   1.400  0.2915  1.2258 -0.7310
  653MOL0     H88135  -0.136  11.407   1.511 -2.3868  1.7188  1.2538
  653MOL0     H88136  -0.094  11.562   1.420 -0.4769  2.0091  2.0736
  653MOL0     H88137   0.893  11.775   1.054 -0.6371 -0.0525  0.0316
  653MOL0     H88138   1.118  11.756   0.959 -4.0764  1.2038 -0.5558
  653MOL0     H88139   1.426  11.710   0.908  0.4340 -0.7099 -1.5364
  653MOL0     H88140   1.603  11.763   0.748 -0.4781  0.0957  1.0300
  653MOL0     H88141   3.151  10.689   1.016  0.2839 -0.6712  0.2593
  653MOL0     H88142   3.377  10.630   1.088  0.1484  0.1186  1.9042
  653MOL0     H88143   3.654  10.539   1.513 -2.5876  2.6304 -1.0516
  653MOL0     H88144   3.892  10.509   1.607 -1.1578 -2.4836 -2.6129
  653MOL0     H88145   4.072  10.617   1.709 -0.0175 -2.4291  0.3132
  653MOL0     H88146   4.111  10.480   1.609  0.1439  0.2021 -2.0541
  653MOL0     H88147   4.351  10.567   1.584  1.1544  0.8650  0.9858
  653MOL0     H88148   4.309  10.542   1.762  0.9484  1.3389  1.2421
  653MOL0     H88149   4.427  10.728   1.748 -0.3608 -2.3075 -0.4435
  653MOL0     H88150   4.261  10.798   1.765  0.0947  0.0901 -0.0952
  653MOL0     H88151   4.264  10.846   1.518 -1.2291 -0.1928  1.8700
  653MOL0     H88152   4.412  10.763   1.498 -1.8256 -0.9718 -0.8404
  653MOL0     H88153   4.483  11.162   1.572  0.2524 -0.1080 -0.2306
  653MOL0     H88154   4.023  10.803   1.344  0.3284  1.2976  2.4866
  653MOL0     H88155   3.805  10.821   1.242 -0.9762  0.1241 -0.2947
  654MOL0     O88156   8.784   7.698   1.962 -0.3492 -1.1184  0.3264
  654MOL0     C88157   8.783   7.821   1.942 -0.3783  0.3148  0.0617
  654MOL0     O88158   8.668   7.897   1.936  0.6887  0.6395  0.0568
  654MOL0     C88159   8.555   7.825   1.934  0.1360  0.1485  0.2650
  654MOL0     C88160   8.516   7.776   1.805  0.8733 -0.5416 -1.1906
  654MOL0     C88161   8.407   7.686   1.791 -0.0343 -0.3672  0.1486
  654MOL0     C88162   8.342   7.646   1.907 -1.0811  0.8114  0.7106
  654MOL0     O88163   8.251   7.546   1.923 -0.5510  0.0894 -0.1354
  654MOL0     C88164   8.199   7.479   1.801 -0.3998 -0.4883  0.5911
  654MOL0     C88165   8.110   7.363   1.867 -0.4511  0.2100  0.3783
  654MOL0     C88166   7.996   7.418   1.951 -0.4635 -0.9561  0.6377
  654MOL0     C88167   7.865   7.346   1.931 -0.1075  0.0646 -0.0299
  654MOL0     C88168   7.790   7.336   2.054 -0.0055 -0.2461  0.0816
  654MOL0     C88169   7.646   7.287   2.029 -0.1321  0.4868  0.2861
  654MOL0     C88170   7.572   7.256   2.155  0.7265 -0.2644 -1.4945
  654MOL0     C88171   7.544   7.380   2.245  0.5340  0.0295  0.1001
  654MOL0     N88172   7.435   7.348   2.336  0.6533  0.6980 -0.7519
  654MOL0     C88173   7.436   7.375   2.472  0.4031 -0.1868 -0.1892
  654MOL0     C88174   7.310   7.339   2.522 -0.1674 -0.0290  1.0855
  654MOL0     C88175   7.261   7.340   2.667 -0.4042 -0.2988  1.1542
  654MOL0     C88176   7.115   7.362   2.674 -0.0701  0.0631  0.2143
  654MOL0     C88177   7.050   7.321   2.803 -0.3256 -0.2389  0.0355
  654MOL0     C88178   7.022   7.173   2.820 -0.0167  0.9340  0.2043
  654MOL0     O88179   6.952   7.123   2.708 -0.7849 -0.4022 -1.0321
  654MOL0     C88180   6.817   7.129   2.690  0.1151 -0.5154 -0.3819
  654MOL0     C88181   6.730   7.191   2.778 -0.2865 -0.1051 -0.0236
  654MOL0     C88182   6.592   7.174   2.763  0.1304 -0.8289 -0.3013
  654MOL0     C88183   6.511   7.261   2.861  0.7011  0.7971  0.5030
  654MOL0     C88184   6.537   7.084   2.674 -0.6180  0.2551  0.2022
  654MOL0     C88185   6.392   7.043   2.656 -0.7980  0.3833  0.6880
  654MOL0     O88186   6.360   6.980   2.530 -0.2623 -0.3098  0.7321
  654MOL0     C88187   6.229   6.979   2.473 -0.6434 -0.2296 -0.4786
  654MOL0     C88188   6.203   6.876   2.384 -0.0444  0.3338  0.0839
  654MOL0     C88189   6.067   6.855   2.336  0.2415 -0.1335  0.8232
  654MOL0     C88190   5.967   6.952   2.365  0.8270 -0.2214 -0.7369
  654MOL0     O88191   5.839   6.919   2.326  0.2288 -0.4904 -0.2291
  654MOL0     C88192   5.734   7.028   2.327 -0.4292 -0.3017 -0.0373
  654MOL0     C88193   5.625   6.982   2.231  0.0414  0.3925 -0.3234
  654MOL0     C88194   5.522   7.090   2.211 -0.9473 -0.9771  0.0595
  654MOL0     C88195   5.409   7.041   2.117  0.2395  0.6530 -1.1327
  654MOL0     C88196   5.290   7.131   2.114  0.2140 -0.1806 -0.1810
  654MOL0     C88197   5.170   7.060   2.049  0.3461  0.2111 -0.6902
  654MOL0     C88198   5.044   7.143   2.038 -0.3136  0.0531  0.5808
  654MOL0     C88199   4.916   7.065   2.019  0.6078  0.0995 -0.5367
  654MOL0    Cl88200   4.936   6.942   1.882  0.1788  0.1789 -0.3323
  654MOL0     C88201   5.993   7.049   2.458  0.5427 -0.8471 -0.4631
  654MOL0     C88202   6.124   7.069   2.501 -0.2116  0.2455  0.3308
  654MOL0     O88203   6.317   7.053   2.746  0.6459 -0.5444 -0.4033
  654MOL0     C88204   6.629   7.029   2.577 -0.0121  0.1086  0.2027
  654MOL0     C88205   6.761   7.061   2.582 -1.0920 -0.7175 -0.2313
  654MOL0     N88206   7.237   7.295   2.409 -0.0308 -0.4077 -0.0436
  654MOL0     N88207   7.316   7.306   2.305 -0.0571  0.0647  0.2587
  654MOL0     C88208   8.368   7.717   2.034  0.0914 -0.8131  0.0661
  654MOL0     C88209   8.482   7.797   2.052  0.3170 -0.0569  0.6652
  654MOL0     C88210   8.913   7.894   1.931 -0.2916 -0.6497  0.5204
  654MOL0     C88211   9.035   7.830   1.957  1.3782  0.6676 -0.3171
  654MOL0     C88212   9.158   7.906   1.960  0.2078  0.2795 -1.1956
  654MOL0     C88213   9.157   8.044   1.934 -0.4880 -0.0536 -1.0606
  654MOL0     O88214   9.272   8.129   1.952  0.2842  0.1499  0.2922
  654MOL0     C88215   9.392   8.094   1.874  1.3358  0.7206  1.4769
  654MOL0     C88216   9.373   8.098   1.717 -0.0365 -0.6253  0.0505
  654MOL0     C88217   9.512   8.112   1.645 -0.0354 -0.3920  0.2181
  654MOL0     C88218   9.505   8.111   1.490  0.4463  0.1032  1.2740
  654MOL0     C88219   9.381   8.160   1.429  1.6280 -0.6253 -0.0341
  654MOL0     C88220   9.268   8.182   1.379 -0.0353 -1.0394 -1.3473
  654MOL0     C88221   9.037   8.103   1.898 -0.4400  0.5085 -0.3191
  654MOL0     C88222   8.919   8.033   1.894 -0.3015  0.7358 -0.6292
  654MOL0     H88223   8.578   7.800   1.719  0.7803  0.5774 -0.9597
  654MOL0     H88224   8.374   7.639   1.699 -1.2961 -0.2216  0.5069
  654MOL0     H88225   8.145   7.550   1.738  2.6143  0.9946 -0.5017
  654MOL0     H88226   8.275   7.437   1.734 -0.4610 -0.3312  0.4239
  654MOL0     H88227   8.070   7.311   1.780 -0.5183  0.6084  0.1651
  654MOL0     H88228   8.160   7.293   1.934 -2.6484 -0.2161  1.7089
  654MOL0     H88229   8.023   7.416   2.057 -0.7071 -0.9487  0.6982
  654MOL0     H88230   7.982   7.520   1.915  1.7317 -0.3750  1.2655
  654MOL0     H88231   7.808   7.399   1.855 -0.9287 -2.4634 -1.3128
  654MOL0     H88232   7.892   7.247   1.894  1.4165  0.7718 -0.8902
  654MOL0     H88233   7.840   7.263   2.118  1.7977  0.1311 -0.8386
  654MOL0     H88234   7.780   7.419   2.125 -1.0722 -1.5864  1.5818
  654MOL0     H88235   7.601   7.365   1.966  1.8426 -0.7411 -2.8524
  654MOL0     H88236   7.651   7.204   1.959  3.4888 -0.2142  1.1646
  654MOL0     H88237   7.472   7.220   2.129 -0.0973  1.2806 -0.6036
  654MOL0     H88238   7.634   7.182   2.207  2.7511  0.4584 -2.7674
  654MOL0     H88239   7.506   7.458   2.179 -1.8867  0.4349  1.8397
  654MOL0     H88240   7.626   7.414   2.310  0.1509 -2.2660  1.9124
  654MOL0     H88241   7.524   7.412   2.523 -1.5880  3.4547  1.0171
  654MOL0     H88242   7.288   7.245   2.713 -0.4686 -0.6680  0.4370
  654MOL0     H88243   7.318   7.422   2.712  0.8334 -0.3523 -0.2391
  654MOL0     H88244   7.070   7.308   2.590 -1.8125  1.4787  0.1533
  654MOL0     H88245   7.100   7.470   2.658  2.6190  0.8685  2.4060
  654MOL0     H88246   6.959   7.381   2.810  1.0147  2.1085 -1.5311
  654MOL0     H88247   7.110   7.360   2.886 -0.8112  1.3027 -0.3161
  654MOL0     H88248   6.981   7.141   2.917 -0.5648  0.2950 -0.2284
  654MOL0     H88249   7.119   7.123   2.817 -0.7675 -0.5781 -3.0761
  654MOL0     H88250   6.770   7.252   2.858 -0.8856  2.8571 -1.8122
  654MOL0     H88251   6.413   7.274   2.815  1.2254  2.1062 -0.2882
  654MOL0     H88252   6.504   7.205   2.955 -0.1592 -0.2023 -0.1285
  654MOL0     H88253   6.568   7.354   2.867  0.2258  1.1325 -0.0845
  654MOL0     H88254   6.280   6.802   2.363 -2.0127 -1.0371 -3.0772
  654MOL0     H88255   6.045   6.778   2.263 -2.0955 -0.2827  1.5986
  654MOL0     H88256   5.696   7.031   2.429  0.2752  2.5902  0.2238
  654MOL0     H88257   5.785   7.124   2.310 -0.5888  0.0604  1.4477
  654MOL0     H88258   5.671   6.964   2.133  1.8416  0.7959  0.4132
  654MOL0     H88259   5.586   6.887   2.267  3.2256  0.1652  3.1253
  654MOL0     H88260   5.575   7.170   2.159  0.3581 -3.4171 -2.6219
  654MOL0     H88261   5.494   7.135   2.307  0.8965  3.4750 -1.2423
  654MOL0     H88262   5.448   7.034   2.015 -2.0988  0.1283 -2.0482
  654MOL0     H88263   5.380   6.945   2.161  1.9057  0.8515  0.5659
  654MOL0     H88264   5.320   7.218   2.055  0.8621 -0.5701 -0.4355
  654MOL0     H88265   5.269   7.154   2.219 -2.1442 -2.1138 -0.1534
  654MOL0     H88266   5.183   7.031   1.944  0.6631  1.5139 -1.0371
  654MOL0     H88267   5.146   6.978   2.116 -0.8145  1.4843  0.5187
  654MOL0     H88268   5.053   7.205   1.948 -1.0966 -1.1729 -0.3713
  654MOL0     H88269   5.031   7.211   2.123  0.0147  1.4402 -0.4505
  654MOL0     H88270   4.844   7.142   1.987  0.4439  1.0651  1.9367
  654MOL0     H88271   4.890   7.028   2.119  2.8548  0.7501  0.3372
  654MOL0     H88272   5.913   7.108   2.502 -1.1534 -1.8630 -2.0106
  654MOL0     H88273   6.147   7.146   2.575 -0.9163 -0.6495  1.5247
  654MOL0     H88274   6.590   6.960   2.503  0.5894 -0.0467  0.0170
  654MOL0     H88275   6.824   7.016   2.506  3.5945  1.3719  1.9874
  654MOL0     H88276   8.307   7.702   2.123 -2.9142  1.5263 -1.4200
  654MOL0     H88277   8.500   7.837   2.151 -1.5076  0.6613  0.7474
  654MOL0     H88278   9.035   7.724   1.982  0.4683  0.1496 -2.2529
  654MOL0     H88279   9.252   7.856   1.981  0.2213  0.8917  0.3059
  654MOL0     H88280   9.478   8.157   1.899  1.8391  1.1880 -1.1409
  654MOL0     H88281   9.420   7.989   1.892  1.1431  1.0765  4.2809
  654MOL0     H88282   9.313   8.188   1.704 -0.9803 -1.1046  0.9906
  654MOL0     H88283   9.319   8.010   1.682  2.1807 -1.1475 -2.3726
  654MOL0     H88284   9.579   8.035   1.686  0.0812  0.3798  1.5221
  654MOL0     H88285   9.562   8.203   1.678 -1.2146  0.5479 -0.5245
  654MOL0     H88286   9.529   8.012   1.450  1.2980  0.8024 -0.0200
  654MOL0     H88287   9.588   8.174   1.458  0.3131 -0.8127 -1.1569
  654MOL0     H88288   9.175   8.200   1.329  0.3439  1.0892 -1.3722
  654MOL0     H88289   9.040   8.209   1.873  2.8561  0.1962 -1.6764
  654MOL0     H88290   8.829   8.084   1.860 -0.9549  2.3504  3.0453
  655MOL0     O88291   2.344   7.218  10.578  0.3126  0.4636 -0.3181
  655MOL0     C88292   2.413   7.320  10.598 -0.4325  0.3467 -0.1542
  655MOL0     O88293   2.365   7.439  10.649 -0.3329 -0.4030  0.0680
  655MOL0     C88294   2.236   7.467  10.659  0.9866 -0.6089 -0.3203
  655MOL0     C88295   2.130   7.433  10.567  0.2901 -0.5241 -0.5771
  655MOL0     C88296   1.998   7.469  10.601  0.4518 -0.4635 -0.0896
  655MOL0     C88297   1.967   7.541  10.725 -0.1435  0.0312  0.3463
  655MOL0     O88298   1.845   7.580  10.772 -0.5302  0.4248 -0.1451
  655MOL0     C88299   1.728   7.512  10.723 -0.2228  0.3583  0.2912
  655MOL0     C88300   1.606   7.578  10.782 -0.0912 -0.4163 -0.1773
  655MOL0     C88301   1.475   7.532  10.722 -0.2415  0.1030 -0.0253
  655MOL0     C88302   1.357   7.629  10.765  0.7157  0.9125 -0.7918
  655MOL0     C88303   1.221   7.601  10.707 -0.5918 -1.0270 -0.0607
  655MOL0     C88304   1.220   7.625  10.558  0.0593  0.2075  0.2853
  655MOL0     C88305   1.076   7.647  10.511  0.6696  0.2329  0.9201
  655MOL0     C88306   1.068   7.651  10.359 -0.4660  0.0014 -0.6530
  655MOL0     N88307   0.929   7.681  10.318  0.0598 -0.6021 -0.1172
  655MOL0     C88308   0.822   7.593  10.319  0.2138  0.5222  0.4936
  655MOL0     C88309   0.721   7.669  10.277  0.5999  0.2498 -0.2205
  655MOL0     C88310   0.577   7.624  10.301  0.3822 -0.1822 -0.1943
  655MOL0     C88311   0.513   7.597  10.160 -0.4122  0.4101 -0.2011
  655MOL0     C88312   0.374   7.537  10.190  0.2495 -0.9331  0.0821
  655MOL0     C88313   0.263   7.646  10.201 -0.8594  0.5829 -0.1359
  655MOL0     O88314   0.144   7.578  10.237 -0.1439  0.6795  0.6892
  655MOL0     C88315   0.035   7.649  10.260  0.5889 -1.2958  0.0016
  655MOL0     C88316  -0.086   7.572  10.240  0.3706 -0.0009  1.0242
  655MOL0     C88317  -0.211   7.636  10.260  0.9563  0.2306 -0.4674
  655MOL0     C88318  -0.338   7.554  10.223  0.0748 -0.4323  0.1781
  655MOL0     C88319  -0.214   7.779  10.285 -1.6450  0.4989 -0.8704
  655MOL0     C88320  -0.340   7.857  10.282 -0.9712 -0.0200  0.1934
  655MOL0     O88321  -0.352   7.955  10.186  0.3874 -0.0937 -0.6699
  655MOL0     C88322  -0.477   8.009  10.175  0.2425 -0.3090 -0.2687
  655MOL0     C88323  -0.545   7.982  10.059  0.1560  0.3187  0.2691
  655MOL0     C88324  -0.673   8.036  10.041  1.0806 -0.2613  1.0121
  655MOL0     C88325  -0.739   8.120  10.133  0.0587  0.4878 -0.4814
  655MOL0     O88326  -0.862   8.181  10.106 -0.3723  0.4615 -0.6289
  655MOL0     C88327  -0.900   8.195   9.967  0.2785  0.6215  0.1535
  655MOL0     C88328  -1.010   8.287   9.960 -0.4038  0.2830 -0.5052
  655MOL0     C88329  -1.136   8.238  10.016  0.9351 -0.3407 -0.5488
  655MOL0     C88330  -1.151   8.269  10.168 -0.9743  0.1422  0.4343
  655MOL0     C88331  -1.296   8.283  10.211  0.4328 -0.0909 -0.6255
  655MOL0     C88332  -1.395   8.171  10.163  0.5046  0.1713  0.3451
  655MOL0     C88333  -1.536   8.221  10.199  0.2908  0.4115  1.1545
  655MOL0     C88334  -1.644   8.122  10.152  0.7843 -0.3510 -0.4225
  655MOL0    Cl88335  -1.646   8.105   9.972  0.5398  0.1254  0.0233
  655MOL0     C88336  -0.675   8.136  10.252  1.0811  0.2470 -0.2561
  655MOL0     C88337  -0.546   8.082  10.271  0.6535 -0.5308  0.2807
  655MOL0     O88338  -0.422   7.833  10.371  0.4560 -0.0022  0.1008
  655MOL0     C88339  -0.093   7.846  10.300 -0.1178  0.4272  0.5796
  655MOL0     C88340   0.032   7.789  10.285 -0.5038  0.1813  0.3740
  655MOL0     N88341   0.766   7.798  10.247 -1.0429  0.6866  0.2113
  655MOL0     N88342   0.893   7.802  10.273  0.0666 -0.0271  0.0994
  655MOL0     C88343   2.072   7.576  10.810  0.0489 -0.1747  0.1529
  655MOL0     C88344   2.201   7.541  10.772 -0.4879  0.5224  0.1103
  655MOL0     C88345   2.560   7.298  10.586  0.0061 -0.3352 -0.6757
  655MOL0     C88346   2.608   7.175  10.532 -0.1755 -0.1582 -0.0273
  655MOL0     C88347   2.744   7.144  10.534 -0.4619 -0.1946  0.5672
  655MOL0     C88348   2.837   7.230  10.590 -0.3754  0.5412 -0.0940
  655MOL0     O88349   2.966   7.191  10.612  0.0679 -0.1200  0.9015
  655MOL0     C88350   3.068   7.280  10.579 -1.0895 -0.5779  0.3942
  655MOL0     C88351   3.110   7.289  10.433  0.1986 -0.5207  0.7132
  655MOL0     C88352   3.019   7.362  10.341  0.3890 -0.4283 -0.4202
  655MOL0     C88353   3.108   7.423  10.230  0.4276 -0.6973  0.5833
  655MOL0     C88354   3.036   7.514  10.141  1.0406 -0.0159  0.6713
  655MOL0     C88355   2.976   7.594  10.076 -0.1523  1.0070 -0.4576
  655MOL0     C88356   2.791   7.355  10.640 -0.1311 -0.1153  1.0535
  655MOL0     C88357   2.657   7.392  10.634  0.1603 -0.2057 -0.6822
  655MOL0     H88358   2.144   7.386  10.471  2.9732  1.5434 -1.3157
  655MOL0     H88359   1.913   7.449  10.537  1.8520 -2.1665 -1.5029
  655MOL0     H88360   1.716   7.527  10.615  0.8512 -3.8264 -0.5614
  655MOL0     H88361   1.722   7.405  10.743 -0.9476  0.3081 -0.1524
  655MOL0     H88362   1.601   7.567  10.891  1.5498 -1.2019 -0.1387
  655MOL0     H88363   1.631   7.683  10.764  1.1075 -0.7956 -0.8635
  655MOL0     H88364   1.483   7.544  10.613  1.8866  0.1370  0.0977
  655MOL0     H88365   1.443   7.431  10.750 -1.6921  0.4883 -0.2243
  655MOL0     H88366   1.348   7.607  10.872 -1.8553 -1.6093 -1.4069
  655MOL0     H88367   1.383   7.734  10.748  1.7806  1.3301  2.7093
  655MOL0     H88368   1.182   7.503  10.732 -1.9270 -0.8630 -1.3855
  655MOL0     H88369   1.148   7.672  10.748 -0.0596  0.6750 -1.9131
  655MOL0     H88370   1.263   7.723  10.537  1.6652 -0.0454  2.0743
  655MOL0     H88371   1.272   7.541  10.511 -0.0085 -1.2802  2.6433
  655MOL0     H88372   1.022   7.556  10.540  1.8281 -0.0937  2.1532
  655MOL0     H88373   1.030   7.739  10.549 -0.5716 -0.2089  0.5312
  655MOL0     H88374   1.096   7.550  10.329 -0.9324 -0.9000  1.6811
  655MOL0     H88375   1.140   7.726  10.323  2.9034 -2.1809  0.9447
  655MOL0     H88376   0.817   7.498  10.370  0.6389  1.1485  1.7612
  655MOL0     H88377   0.576   7.529  10.355 -1.5634  0.5568  1.1918
  655MOL0     H88378   0.512   7.691  10.359  0.5362 -1.9736  2.2108
  655MOL0     H88379   0.575   7.527  10.105 -2.5130 -0.0901 -2.0857
  655MOL0     H88380   0.502   7.690  10.103  0.0771  1.1622  0.8836
  655MOL0     H88381   0.382   7.483  10.285 -2.4830 -1.9295 -0.1664
  655MOL0     H88382   0.347   7.467  10.111  2.3308 -1.7750  0.0675
  655MOL0     H88383   0.254   7.681  10.098 -1.4348 -0.9848 -0.6510
  655MOL0     H88384   0.293   7.721  10.274 -1.1848  0.5161  0.0741
  655MOL0     H88385  -0.072   7.471  10.204  0.7462  0.5426 -0.4237
  655MOL0     H88386  -0.362   7.572  10.118  0.8742 -2.9543 -0.5116
  655MOL0     H88387  -0.316   7.447  10.235  2.7511 -0.2881 -2.2852
  655MOL0     H88388  -0.422   7.590  10.283  0.7967 -0.7531  1.4063
  655MOL0     H88389  -0.500   7.913   9.989 -2.1003 -1.8360  0.7830
  655MOL0     H88390  -0.730   8.014   9.951 -0.5054  0.0119  1.9109
  655MOL0     H88391  -0.819   8.245   9.913  0.6550 -0.9199 -0.7574
  655MOL0     H88392  -0.932   8.104   9.915  1.8253  0.2219 -0.1225
  655MOL0     H88393  -0.981   8.386   9.996  1.0890  0.2447 -1.5375
  655MOL0     H88394  -1.018   8.298   9.851  4.0542 -2.1989 -1.2795
  655MOL0     H88395  -1.155   8.134   9.988  1.3739 -1.1654  1.9596
  655MOL0     H88396  -1.215   8.299   9.971 -1.3516 -0.2679  3.1368
  655MOL0     H88397  -1.094   8.195  10.226 -0.9616  1.1772  1.7998
  655MOL0     H88398  -1.101   8.364  10.190  0.0392 -0.0368 -0.9314
  655MOL0     H88399  -1.343   8.368  10.162  0.1930  0.3310  0.3095
  655MOL0     H88400  -1.308   8.304  10.318 -0.5671 -0.7765 -0.5858
  655MOL0     H88401  -1.384   8.144  10.058  1.6550  0.9821  0.2427
  655MOL0     H88402  -1.385   8.077  10.219 -2.6312  0.3031  1.3495
  655MOL0     H88403  -1.559   8.322  10.164  1.5885  0.7969  1.3450
  655MOL0     H88404  -1.539   8.242  10.306  1.6759  1.7545  0.9772
  655MOL0     H88405  -1.739   8.164  10.187  1.4692  0.6774  0.2703
  655MOL0     H88406  -1.615   8.023  10.189  2.5387  0.0088 -0.7280
  655MOL0     H88407  -0.731   8.201  10.319  0.0384  3.9609 -4.2911
  655MOL0     H88408  -0.487   8.100  10.361  2.7032 -0.9545 -0.8990
  655MOL0     H88409  -0.087   7.953  10.317  0.6447  0.5094 -0.1427
  655MOL0     H88410   0.120   7.852  10.285 -1.8303  2.1098 -0.1590
  655MOL0     H88411   2.059   7.639  10.897  1.5130  1.6219 -0.8473
  655MOL0     H88412   2.282   7.584  10.830  1.1589 -0.8931 -1.0437
  655MOL0     H88413   2.537   7.102  10.492  1.5233 -0.9376 -1.7839
  655MOL0     H88414   2.778   7.056  10.480  0.6563  1.7210 -2.0022
  655MOL0     H88415   3.043   7.377  10.620  0.7354  0.3672 -0.5782
  655MOL0     H88416   3.155   7.247  10.638 -0.3236  1.0106  0.2004
  655MOL0     H88417   3.130   7.187  10.398  0.5460  0.4302 -2.0944
  655MOL0     H88418   3.202   7.345  10.448 -0.8156  0.5288  3.8951
  655MOL0     H88419   2.971   7.440  10.400 -0.8692 -0.6496 -1.1381
  655MOL0     H88420   2.943   7.293  10.304  0.0276  0.2723 -1.0018
  655MOL0     H88421   3.149   7.345  10.166 -0.0549 -0.7485  0.3272
  655MOL0     H88422   3.189   7.483  10.273  0.3942  1.3000 -1.9532
  655MOL0     H88423   2.939   7.675  10.017  1.0550  2.0455  0.1625
  655MOL0     H88424   2.855   7.435  10.675 -0.8582  1.3868 -0.8694
  655MOL0     H88425   2.620   7.486  10.674 -0.2234 -0.4669 -0.4193
  656MOL0     O88426   3.066   1.332   5.408 -0.5693  0.8077  0.4788
  656MOL0     C88427   3.148   1.399   5.344  0.0486  0.3841 -0.3849
  656MOL0     O88428   3.125   1.462   5.221 -0.7647  0.4677  0.0819
  656MOL0     C88429   3.016   1.427   5.141 -0.2225 -0.2749  0.2658
  656MOL0     C88430   3.031   1.361   5.014 -0.4204 -0.6373 -0.0807
  656MOL0     C88431   2.920   1.341   4.944  0.0939  0.2254 -0.4087
  656MOL0     C88432   2.790   1.388   4.979 -0.1328 -1.0405 -0.8176
  656MOL0     O88433   2.679   1.370   4.895  0.1512 -0.7486  0.1800
  656MOL0     C88434   2.549   1.407   4.941  0.3617 -0.3713  0.0195
  656MOL0     C88435   2.456   1.348   4.828  0.5936 -0.7803 -0.1566
  656MOL0     C88436   2.466   1.411   4.693 -0.0066  0.7153 -0.5217
  656MOL0     C88437   2.476   1.316   4.577 -0.1811  0.5918  0.2814
  656MOL0     C88438   2.466   1.391   4.444 -0.4167  0.2634  0.2399
  656MOL0     C88439   2.600   1.459   4.405 -0.5168 -0.0148 -0.1560
  656MOL0     C88440   2.617   1.482   4.247  0.5313 -0.3506  0.0695
  656MOL0     C88441   2.501   1.566   4.187  0.4989  0.6752  0.8993
  656MOL0     N88442   2.496   1.554   4.038  0.4780  0.1125 -0.4096
  656MOL0     C88443   2.416   1.471   3.967  0.5874 -0.0360  0.0081
  656MOL0     C88444   2.446   1.488   3.837  0.2018  0.2940  0.1788
  656MOL0     C88445   2.385   1.415   3.721 -0.3186  0.3494 -0.3922
  656MOL0     C88446   2.259   1.481   3.657 -0.3681 -0.1787  0.0269
  656MOL0     C88447   2.264   1.633   3.626  0.5082 -0.4690 -0.3496
  656MOL0     C88448   2.139   1.684   3.556 -0.2175 -0.0754 -0.8753
  656MOL0     O88449   2.019   1.671   3.633  0.4426  0.2634  0.1939
  656MOL0     C88450   1.918   1.759   3.607 -0.6802 -0.6245 -0.1100
  656MOL0     C88451   1.813   1.756   3.701  0.5281 -0.6057  0.3469
  656MOL0     C88452   1.697   1.837   3.685  0.3334  0.5528 -0.0258
  656MOL0     C88453   1.601   1.837   3.797  0.0667  0.0603 -1.0323
  656MOL0     C88454   1.686   1.913   3.563  0.5517  0.2164 -0.0985
  656MOL0     C88455   1.566   2.001   3.536 -0.1352  0.3604  0.5642
  656MOL0     O88456   1.456   1.971   3.607  0.8916  0.2378 -0.3388
  656MOL0     C88457   1.347   2.063   3.606  1.0829  0.1159  0.4691
  656MOL0     C88458   1.306   2.127   3.722 -0.8590  0.3583  0.1167
  656MOL0     C88459   1.191   2.214   3.725 -0.5491  0.8727 -0.1080
  656MOL0     C88460   1.119   2.247   3.602 -0.2825 -0.9238 -0.2107
  656MOL0     O88461   1.020   2.333   3.606  0.1797 -0.0468 -0.2506
  656MOL0     C88462   1.047   2.460   3.541 -0.7597  0.2853  0.8521
  656MOL0     C88463   0.929   2.557   3.520  0.3712  0.0862  0.3870
  656MOL0     C88464   0.818   2.497   3.431 -0.0149  0.6199 -0.1914
  656MOL0     C88465   0.677   2.575   3.431  0.1837  0.3876  0.2879
  656MOL0     C88466   0.560   2.509   3.358 -0.5493  0.6645 -0.0148
  656MOL0     C88467   0.556   2.537   3.207 -0.2766 -0.0011  0.5023
  656MOL0     C88468   0.425   2.501   3.132 -1.2394  0.0823  0.0464
  656MOL0     C88469   0.397   2.361   3.090 -0.5675 -0.0903 -0.4615
  656MOL0    Cl88470   0.531   2.296   2.991  0.1301 -0.3051 -0.0939
  656MOL0     C88471   1.170   2.187   3.482 -0.3133  0.7235 -0.0829
  656MOL0     C88472   1.279   2.098   3.485  0.3806 -0.4556 -0.0335
  656MOL0     O88473   1.564   2.075   3.437 -0.4307  0.3022 -0.6048
  656MOL0     C88474   1.794   1.916   3.472  0.4970  0.4180  0.3891
  656MOL0     C88475   1.901   1.833   3.494  0.0774 -0.0203 -0.0241
  656MOL0     N88476   2.529   1.599   3.827  0.0149  0.2930  0.7114
  656MOL0     N88477   2.572   1.631   3.950 -0.2147 -0.2872  0.4824
  656MOL0     C88478   2.772   1.441   5.107 -0.8906  0.2532  0.6214
  656MOL0     C88479   2.887   1.450   5.191 -0.9394 -0.2855 -0.0363
  656MOL0     C88480   3.279   1.415   5.392  0.2021  0.6887 -0.1037
  656MOL0     C88481   3.385   1.408   5.300  0.2318 -0.2999  0.5407
  656MOL0     C88482   3.514   1.445   5.345  0.5943  0.5152  0.2521
  656MOL0     C88483   3.529   1.496   5.480 -0.5768  0.3778 -0.0066
  656MOL0     O88484   3.643   1.552   5.528  0.0868 -0.2077 -1.1078
  656MOL0     C88485   3.766   1.481   5.484 -0.4834 -0.4203  0.3982
  656MOL0     C88486   3.878   1.574   5.513  0.2038 -0.4936  0.4774
  656MOL0     C88487   3.872   1.692   5.405 -0.2074 -0.2533 -0.2871
  656MOL0     C88488   3.978   1.787   5.437  1.1500 -0.2690 -0.4174
  656MOL0     C88489   4.105   1.743   5.372  0.5053 -0.2004 -1.7715
  656MOL0     C88490   4.207   1.711   5.329 -0.1716  0.3511 -0.4863
  656MOL0     C88491   3.418   1.492   5.571  0.1775  0.6990  0.4473
  656MOL0     C88492   3.299   1.449   5.526 -0.9111 -0.4635  0.6754
  656MOL0     H88493   3.129   1.330   4.978  1.6575  0.8515  3.6933
  656MOL0     H88494   2.919   1.295   4.846 -1.5182  0.2405 -0.4220
  656MOL0     H88495   2.527   1.362   5.038  0.8468  2.5648  1.6217
  656MOL0     H88496   2.536   1.515   4.956  1.9484 -0.2428  0.7088
  656MOL0     H88497   2.473   1.240   4.827  1.5612 -0.6563  0.7186
  656MOL0     H88498   2.356   1.362   4.869  0.6900  0.6169 -0.3489
  656MOL0     H88499   2.368   1.457   4.678  0.6917  2.6131  0.3848
  656MOL0     H88500   2.539   1.492   4.707  0.5168 -0.0081  1.3133
  656MOL0     H88501   2.576   1.270   4.579 -0.7705 -0.7548  2.4919
  656MOL0     H88502   2.406   1.234   4.594  0.7941 -0.4359 -0.4929
  656MOL0     H88503   2.447   1.315   4.368 -1.4517  0.8422 -0.1063
  656MOL0     H88504   2.383   1.463   4.438 -0.7200 -0.0008  1.0733
  656MOL0     H88505   2.598   1.553   4.460  1.2468  0.7217 -1.2867
  656MOL0     H88506   2.688   1.397   4.425 -0.2921  1.0952  2.6321
  656MOL0     H88507   2.708   1.539   4.229  0.5841 -0.0393  1.2490
  656MOL0     H88508   2.622   1.386   4.196  0.3542 -0.0591 -0.5146
  656MOL0     H88509   2.514   1.671   4.214  0.0902  0.3047  2.6664
  656MOL0     H88510   2.405   1.541   4.234  1.4723  1.9608  3.8198
  656MOL0     H88511   2.357   1.386   3.999  2.1152 -0.9436  0.5167
  656MOL0     H88512   2.466   1.407   3.648  0.5320 -0.7251  0.6459
  656MOL0     H88513   2.365   1.313   3.754 -2.4761  1.5242  2.4001
  656MOL0     H88514   2.172   1.456   3.719  0.7941 -1.7633  1.1000
  656MOL0     H88515   2.253   1.428   3.562  0.7346 -2.6661  1.2464
  656MOL0     H88516   2.343   1.649   3.552  0.3130 -0.4385 -0.5553
  656MOL0     H88517   2.282   1.688   3.718  1.2482 -2.8440  1.0186
  656MOL0     H88518   2.119   1.628   3.464 -0.3543  0.2441 -1.0416
  656MOL0     H88519   2.160   1.787   3.526  0.0891 -0.4218 -1.9219
  656MOL0     H88520   1.831   1.694   3.788 -1.3393  0.3573  1.4879
  656MOL0     H88521   1.501   1.795   3.782 -1.0496  2.7285 -1.5815
  656MOL0     H88522   1.647   1.787   3.882  0.1889  0.8463 -0.6263
  656MOL0     H88523   1.585   1.941   3.827 -0.9708  0.0102 -1.3581
  656MOL0     H88524   1.351   2.092   3.814 -3.2757 -6.3968 -0.6788
  656MOL0     H88525   1.157   2.243   3.824  1.6275  0.2312  0.9035
  656MOL0     H88526   1.123   2.512   3.600  0.7793 -2.2974  1.2941
  656MOL0     H88527   1.090   2.445   3.442  0.4137  0.1548  1.3573
  656MOL0     H88528   0.868   2.573   3.609 -1.0767 -1.1361 -0.3248
  656MOL0     H88529   0.977   2.639   3.467 -0.8641 -0.6240 -1.9975
  656MOL0     H88530   0.803   2.396   3.468 -0.8197  0.4163 -1.0527
  656MOL0     H88531   0.851   2.487   3.327 -0.1179 -0.2980 -0.1459
  656MOL0     H88532   0.649   2.586   3.537  4.2803 -0.3715  1.6421
  656MOL0     H88533   0.689   2.672   3.384 -1.5788  0.8190  0.6529
  656MOL0     H88534   0.468   2.554   3.396  0.4457  0.7878  2.4594
  656MOL0     H88535   0.566   2.404   3.388 -2.0974 -0.4377 -3.1360
  656MOL0     H88536   0.578   2.644   3.198  3.2213 -0.5598  0.8909
  656MOL0     H88537   0.638   2.479   3.164 -0.3987  0.5705 -0.5420
  656MOL0     H88538   0.419   2.565   3.043  0.2140 -2.5026 -2.0896
  656MOL0     H88539   0.342   2.534   3.195 -2.6872 -0.9690 -1.2251
  656MOL0     H88540   0.309   2.360   3.025 -1.9122  0.2190  1.2800
  656MOL0     H88541   0.370   2.293   3.171  1.7141 -1.3239 -0.6440
  656MOL0     H88542   1.120   2.191   3.386  1.0832 -3.1495 -1.1429
  656MOL0     H88543   1.312   2.055   3.391 -2.2307  1.6408 -2.0408
  656MOL0     H88544   1.777   1.976   3.383 -2.0469 -2.0669 -0.9824
  656MOL0     H88545   1.980   1.840   3.420 -2.3936  1.0293 -2.8196
  656MOL0     H88546   2.680   1.484   5.146 -0.3607  2.4567 -0.3402
  656MOL0     H88547   2.881   1.486   5.293  1.1568  4.0158 -1.1626
  656MOL0     H88548   3.377   1.368   5.200  2.3376  0.6437 -0.0725
  656MOL0     H88549   3.599   1.439   5.278 -0.1688 -0.9918 -0.6223
  656MOL0     H88550   3.785   1.388   5.538  2.9184 -1.1565 -1.7333
  656MOL0     H88551   3.776   1.470   5.376  0.5921  3.9368 -0.1660
  656MOL0     H88552   3.968   1.516   5.493  0.4505  0.4756 -1.4862
  656MOL0     H88553   3.864   1.612   5.614 -1.5563  0.8091 -0.2002
  656MOL0     H88554   3.778   1.748   5.404 -0.5018 -0.6148  1.8862
  656MOL0     H88555   3.889   1.647   5.307 -0.1179  0.4250 -0.5857
  656MOL0     H88556   3.997   1.799   5.544  0.0873  0.3693 -0.2880
  656MOL0     H88557   3.944   1.881   5.394  3.4942  1.1123  0.5710
  656MOL0     H88558   4.300   1.684   5.283 -0.6792  1.4933 -2.2873
  656MOL0     H88559   3.426   1.524   5.674  1.8780  2.7088 -0.2491
  656MOL0     H88560   3.215   1.452   5.595 -0.8065  2.5460  0.8084
  657MOL0     O88561   9.669  10.897   0.105  0.0911 -0.0444 -0.1207
  657MOL0     C88562   9.772  10.968   0.108 -0.1555 -0.0371 -1.2326
  657MOL0     O88563   9.779  11.102   0.148  0.5670 -0.2050 -0.0803
  657MOL0     C88564   9.662  11.163   0.164 -0.8712 -0.1597 -0.0026
  657MOL0     C88565   9.599  11.230   0.062 -0.0417 -0.3252  0.0198
  657MOL0     C88566   9.477  11.300   0.073 -0.2270  0.8964  0.8485
  657MOL0     C88567   9.417  11.292   0.196 -0.2682  0.4775  0.8289
  657MOL0     O88568   9.291  11.349   0.202  0.1586 -0.1769  0.0663
  657MOL0     C88569   9.177  11.255   0.211 -0.6382  0.1935 -0.8734
  657MOL0     C88570   9.060  11.310   0.123  0.0601 -0.2300 -1.0614
  657MOL0     C88571   8.929  11.224   0.130  0.1811 -0.1162 -0.1303
  657MOL0     C88572   8.822  11.283   0.037  1.0641 -0.4964 -0.5881
  657MOL0     C88573   8.696  11.200   0.028  0.6299  0.1326 -0.6041
  657MOL0     C88574   8.608  11.245  -0.085  0.1106 -0.6710 -0.2079
  657MOL0     C88575   8.451  11.222  -0.060 -0.6201 -0.1882 -0.0409
  657MOL0     C88576   8.421  11.073  -0.038  0.4785 -0.1795 -0.0361
  657MOL0     N88577   8.277  11.037  -0.035 -0.0950 -0.3247 -0.2225
  657MOL0     C88578   8.196  11.028   0.080 -0.8383 -0.4811 -0.1576
  657MOL0     C88579   8.068  11.020   0.036 -0.7609 -0.0467  0.2502
  657MOL0     C88580   7.947  11.002   0.124  0.1695  0.2758  0.6453
  657MOL0     C88581   7.897  10.859   0.148 -0.2373 -0.4839  0.1612
  657MOL0     C88582   7.786  10.839   0.245  0.3905  0.7344  0.6620
  657MOL0     C88583   7.662  10.915   0.205  0.5406  0.3503 -0.3931
  657MOL0     O88584   7.548  10.875   0.278 -0.5567 -0.1936  0.0408
  657MOL0     C88585   7.427  10.924   0.232 -0.2813 -0.0195  0.1397
  657MOL0     C88586   7.397  11.042   0.171  0.8130 -0.6756 -0.2083
  657MOL0     C88587   7.272  11.088   0.128  0.3623  0.2567 -0.1116
  657MOL0     C88588   7.248  11.234   0.088 -0.1259  0.1752 -0.4920
  657MOL0     C88589   7.173  10.987   0.132  1.0020  0.4384  0.0602
  657MOL0     C88590   7.028  11.011   0.090  0.1353 -1.4403  0.2276
  657MOL0     O88591   6.995  11.120   0.004  0.0113 -0.6429 -0.1936
  657MOL0     C88592   6.859  11.150  -0.006  0.0416  0.0805  0.8672
  657MOL0     C88593   6.783  11.061  -0.074  1.1522  0.3125  0.8128
  657MOL0     C88594   6.648  11.087  -0.096  0.1891  0.4043 -0.6767
  657MOL0     C88595   6.588  11.210  -0.055 -0.4950 -0.2797 -0.4036
  657MOL0     O88596   6.461  11.241  -0.088  0.4734 -0.3213  0.2622
  657MOL0     C88597   6.423  11.228  -0.233  0.1951  0.1906  0.3835
  657MOL0     C88598   6.277  11.260  -0.254  0.0442 -0.5105 -0.3023
  657MOL0     C88599   6.193  11.166  -0.158  0.0878 -0.0174  0.6965
  657MOL0     C88600   6.056  11.223  -0.137 -0.3058 -0.3791 -0.1596
  657MOL0     C88601   5.943  11.135  -0.194 -0.0752 -0.9827  0.7735
  657MOL0     C88602   5.814  11.188  -0.136  0.3853  0.2301 -0.1976
  657MOL0     C88603   5.688  11.103  -0.183 -0.1570  0.6825  0.4097
  657MOL0     C88604   5.653  11.146  -0.331  0.0737  0.0213  0.5382
  657MOL0    Cl88605   5.561  11.300  -0.326  0.8757  0.2305 -0.1791
  657MOL0     C88606   6.671  11.300   0.009 -1.0625  0.1886  0.2335
  657MOL0     C88607   6.805  11.265   0.039 -0.2584  0.1840 -0.0866
  657MOL0     O88608   6.942  10.926   0.130 -0.5845  1.0120  0.5023
  657MOL0     C88609   7.203  10.855   0.173 -0.4305  0.3904 -0.1283
  657MOL0     C88610   7.329  10.831   0.228 -0.1891  0.6863 -0.5071
  657MOL0     N88611   8.072  11.016  -0.106  0.3226  0.3402 -0.2521
  657MOL0     N88612   8.193  11.027  -0.143 -1.1177  0.2058 -0.7057
  657MOL0     C88613   9.475  11.228   0.303 -0.4859 -0.7269  1.0650
  657MOL0     C88614   9.602  11.170   0.290  0.4325 -0.0471  0.7234
  657MOL0     C88615   9.907  10.902   0.105  0.2288 -0.1124  0.9047
  657MOL0     C88616  10.017  10.968   0.163 -0.5565 -0.1137 -0.3842
  657MOL0     C88617  10.146  10.914   0.170  0.2525 -0.1898 -0.8739
  657MOL0     C88618  10.163  10.785   0.118 -0.2966 -0.0544  0.0272
  657MOL0     O88619  10.285  10.714   0.102 -0.0774  0.1245  0.5585
  657MOL0     C88620  10.408  10.766   0.157  0.6390 -0.0923 -0.0532
  657MOL0     C88621  10.527  10.675   0.155  0.0904  0.6978 -0.5816
  657MOL0     C88622  10.645  10.747   0.219  0.4778 -0.8463 -0.3658
  657MOL0     C88623  10.773  10.664   0.234 -0.2477  1.2207 -0.7539
  657MOL0     C88624  10.821  10.593   0.114  0.2345  0.0224  0.0731
  657MOL0     C88625  10.840  10.539   0.010 -0.2811 -0.3064  1.5250
  657MOL0     C88626  10.052  10.725   0.062  0.7421  0.4597 -0.1385
  657MOL0     C88627   9.924  10.778   0.052 -0.2959  0.3623 -0.8515
  657MOL0     H88628   9.646  11.241  -0.035  0.1786 -0.9478  0.0560
  657MOL0     H88629   9.428  11.347  -0.012  1.3477 -1.3789 -1.4666
  657MOL0     H88630   9.202  11.155   0.173  1.0345 -0.3911  1.5165
  657MOL0     H88631   9.144  11.254   0.315  2.5490  0.9634  0.2670
  657MOL0     H88632   9.039  11.413   0.152  0.4113 -0.3260 -0.4660
  657MOL0     H88633   9.103  11.321   0.023  3.0693 -0.5816  0.0791
  657MOL0     H88634   8.947  11.122   0.093 -2.4753 -0.3056 -1.1505
  657MOL0     H88635   8.906  11.212   0.236 -0.2582 -1.2619 -0.3370
  657MOL0     H88636   8.796  11.387   0.059 -1.8856 -1.3144  0.2851
  657MOL0     H88637   8.863  11.295  -0.064  0.0993  1.5958 -0.7930
  657MOL0     H88638   8.711  11.094   0.008 -3.6324 -0.9669  1.0439
  657MOL0     H88639   8.642  11.201   0.123  0.0361 -0.1984 -0.9339
  657MOL0     H88640   8.617  11.354  -0.094 -2.8261 -0.2442  1.1368
  657MOL0     H88641   8.634  11.185  -0.173 -1.6837 -1.7313 -0.0563
  657MOL0     H88642   8.420  11.281   0.026 -2.2184 -0.4281 -0.4187
  657MOL0     H88643   8.400  11.263  -0.147 -0.8216  0.3824  0.3454
  657MOL0     H88644   8.471  11.039   0.053 -2.3222 -0.6800  1.3943
  657MOL0     H88645   8.448  11.013  -0.126  4.2022 -1.4810  1.7855
  657MOL0     H88646   8.224  11.025   0.185  1.0003 -1.4304 -0.6344
  657MOL0     H88647   7.973  11.037   0.224 -1.0880 -2.8028  2.2026
  657MOL0     H88648   7.866  11.061   0.081  1.1105  1.1277 -0.0004
  657MOL0     H88649   7.972  10.796   0.198  0.1073 -0.6174 -0.5127
  657MOL0     H88650   7.881  10.818   0.048  1.5077 -1.5486  0.2712
  657MOL0     H88651   7.832  10.881   0.335 -0.9264  2.6718  0.5071
  657MOL0     H88652   7.763  10.732   0.252 -1.2005  0.9063 -1.0409
  657MOL0     H88653   7.646  10.895   0.098  0.6421 -2.0506 -0.0133
  657MOL0     H88654   7.685  11.022   0.217  0.3063  0.0677  4.5450
  657MOL0     H88655   7.478  11.115   0.175  2.1488 -2.1265  3.0141
  657MOL0     H88656   7.318  11.314   0.113 -2.5832  2.0672  0.7765
  657MOL0     H88657   7.245  11.236  -0.022  1.8950  2.4665 -0.6005
  657MOL0     H88658   7.154  11.279   0.120  0.7070  1.9662 -0.4239
  657MOL0     H88659   6.810  10.963  -0.112 -1.5853 -0.0367 -0.4623
  657MOL0     H88660   6.581  11.017  -0.145 -0.7119  0.4955  0.3851
  657MOL0     H88661   6.483  11.293  -0.297  2.8257  0.0702  2.5137
  657MOL0     H88662   6.444  11.127  -0.267 -0.1737 -0.0729  0.9145
  657MOL0     H88663   6.270  11.365  -0.223  1.1909  0.7309 -3.8387
  657MOL0     H88664   6.240  11.258  -0.356  0.4844 -1.9778 -0.4628
  657MOL0     H88665   6.239  11.151  -0.061  0.0222  0.8438  0.8726
  657MOL0     H88666   6.200  11.063  -0.193  2.0389 -0.4033  2.0791
  657MOL0     H88667   6.031  11.227  -0.031 -0.7444 -0.6055 -0.2515
  657MOL0     H88668   6.053  11.320  -0.187 -2.1747 -0.7129 -0.7909
  657MOL0     H88669   5.973  11.036  -0.159  2.4153 -0.4653  0.3120
  657MOL0     H88670   5.942  11.137  -0.303 -0.5550  2.1457  0.7414
  657MOL0     H88671   5.821  11.185  -0.027 -1.4004 -1.3195 -0.0771
  657MOL0     H88672   5.803  11.292  -0.169  0.5066 -0.2180 -1.7411
  657MOL0     H88673   5.598  11.127  -0.126 -0.4889 -0.3898  0.3579
  657MOL0     H88674   5.708  10.996  -0.174 -2.2961  0.2470  0.5861
  657MOL0     H88675   5.596  11.061  -0.370 -2.0741  1.3093  0.6945
  657MOL0     H88676   5.734  11.154  -0.404 -1.2342  1.8083 -0.8038
  657MOL0     H88677   6.615  11.388   0.038 -2.3814 -0.5909  0.1392
  657MOL0     H88678   6.878  11.326   0.092  0.9881 -0.1043 -1.4017
  657MOL0     H88679   7.130  10.775   0.175  0.4106 -0.6563 -3.6400
  657MOL0     H88680   7.350  10.736   0.276 -1.5266  2.0750  3.1693
  657MOL0     H88681   9.434  11.239   0.403 -0.0999 -2.3719  1.4416
  657MOL0     H88682   9.651  11.130   0.378  1.7662 -0.4035 -0.1504
  657MOL0     H88683  10.005  11.064   0.213 -0.6612  0.9711 -2.4154
  657MOL0     H88684  10.233  10.961   0.213  0.4624 -1.6583  0.3804
  657MOL0     H88685  10.419  10.856   0.096 -1.5416 -0.6872 -1.4245
  657MOL0     H88686  10.399  10.806   0.258  4.3669  1.5270 -0.1853
  657MOL0     H88687  10.547  10.636   0.055 -1.7538 -0.1717 -0.6442
  657MOL0     H88688  10.508  10.588   0.218 -0.9373  2.3367  1.5335
  657MOL0     H88689  10.633  10.781   0.322  1.5606  1.0929 -0.8219
  657MOL0     H88690  10.679  10.827   0.152  1.4165 -1.2398 -0.3689
  657MOL0     H88691  10.754  10.599   0.319  2.0530 -0.3676 -1.3722
  657MOL0     H88692  10.858  10.725   0.265  1.1894 -1.8832  2.0644
  657MOL0     H88693  10.848  10.490  -0.085  2.2092 -1.4310  2.2181
  657MOL0     H88694  10.070  10.626   0.024 -2.1392 -0.0334 -0.4149
  657MOL0     H88695   9.842  10.729  -0.001 -0.3614  2.4281 -2.7977
  658MOL0     O88696   2.419   3.080   7.294 -0.4328  0.6117  0.0530
  658MOL0     C88697   2.476   3.157   7.213  0.2495 -0.2880 -0.2469
  658MOL0     O88698   2.420   3.231   7.112 -0.3872 -1.0511  0.2226
  658MOL0     C88699   2.286   3.203   7.090 -0.0878 -0.0966  0.4548
  658MOL0     C88700   2.194   3.288   7.151  0.1275  0.3748 -0.4494
  658MOL0     C88701   2.058   3.256   7.134  0.4378 -0.1187 -0.3939
  658MOL0     C88702   2.019   3.154   7.047  0.9373  0.1907  0.1063
  658MOL0     O88703   1.887   3.163   7.020  0.2048  0.4785  0.2741
  658MOL0     C88704   1.853   3.195   6.879 -1.5539 -0.3801 -0.1374
  658MOL0     C88705   1.709   3.214   6.865 -0.0138  0.1990  0.7635
  658MOL0     C88706   1.659   3.326   6.966  0.3779  0.1302 -0.0111
  658MOL0     C88707   1.506   3.331   6.959  0.2379 -0.0108  1.2939
  658MOL0     C88708   1.453   3.448   7.043  0.5862 -0.3374 -0.3548
  658MOL0     C88709   1.311   3.420   7.096 -0.0068 -0.3239  0.2942
  658MOL0     C88710   1.261   3.542   7.168 -0.4499 -0.5421 -0.9980
  658MOL0     C88711   1.147   3.611   7.096 -0.6299  0.5441  0.2793
  658MOL0     N88712   1.021   3.555   7.138 -0.3848  0.2153  0.1359
  658MOL0     C88713   0.934   3.472   7.071 -0.5064  0.0910  0.7790
  658MOL0     C88714   0.841   3.450   7.170  1.7164  0.0598  0.3221
  658MOL0     C88715   0.723   3.353   7.160  0.1394  0.1705 -0.4281
  658MOL0     C88716   0.631   3.350   7.036  0.1349  0.4528  0.3440
  658MOL0     C88717   0.549   3.482   7.026 -0.4922  0.5345 -0.0983
  658MOL0     C88718   0.453   3.470   6.907 -0.9914  0.8992 -0.4975
  658MOL0     O88719   0.393   3.601   6.888 -0.4555 -0.0160 -0.2695
  658MOL0     C88720   0.275   3.613   6.823 -0.1092  0.5241 -1.1063
  658MOL0     C88721   0.215   3.511   6.748 -0.8171  0.3076  1.1701
  658MOL0     C88722   0.098   3.532   6.678  0.3854  0.0999 -0.3907
  658MOL0     C88723   0.039   3.415   6.607  0.2261  0.3747  0.9818
  658MOL0     C88724   0.020   3.648   6.710 -0.0117 -0.5228 -0.0792
  658MOL0     C88725  -0.119   3.674   6.660 -0.4576  0.6820 -0.2739
  658MOL0     O88726  -0.192   3.779   6.711 -0.0754  0.2778 -0.1164
  658MOL0     C88727  -0.313   3.787   6.654 -0.1604  0.2153  0.0282
  658MOL0     C88728  -0.337   3.857   6.534 -0.0102  0.4933 -0.5031
  658MOL0     C88729  -0.460   3.860   6.470  0.3273 -0.8906  0.2701
  658MOL0     C88730  -0.576   3.804   6.531 -0.2248 -0.5169 -0.2515
  658MOL0     O88731  -0.699   3.791   6.480 -0.1424  0.4375 -0.3668
  658MOL0     C88732  -0.732   3.849   6.356 -0.3555  0.3879  0.3332
  658MOL0     C88733  -0.876   3.813   6.326  0.1759  0.1763  0.9315
  658MOL0     C88734  -0.967   3.932   6.347 -0.1566  0.0064  0.1834
  658MOL0     C88735  -1.104   3.890   6.328 -0.1577 -0.4387  0.1025
  658MOL0     C88736  -1.211   3.994   6.346  0.0629 -0.3585  0.1754
  658MOL0     C88737  -1.351   3.939   6.309 -0.6937 -0.6267 -0.1355
  658MOL0     C88738  -1.461   4.048   6.315  0.0581 -0.0105  0.0586
  658MOL0     C88739  -1.605   3.998   6.336 -0.3944 -0.2013  0.4688
  658MOL0    Cl88740  -1.742   4.121   6.331  0.2553  0.2560  0.1757
  658MOL0     C88741  -0.552   3.735   6.653 -0.6449 -0.3440 -0.2206
  658MOL0     C88742  -0.425   3.732   6.718 -0.1737  0.3041  0.3082
  658MOL0     O88743  -0.155   3.601   6.569  0.2046  0.2442 -0.6271
  658MOL0     C88744   0.077   3.755   6.791 -0.7014  0.5475 -0.8319
  658MOL0     C88745   0.204   3.730   6.856  0.5906  0.0138  1.0826
  658MOL0     N88746   0.866   3.533   7.280 -0.0364  0.3299  0.1185
  658MOL0     N88747   0.978   3.583   7.267  0.2459  0.4842 -0.2368
  658MOL0     C88748   2.112   3.089   6.969 -0.2352 -0.2115  0.9979
  658MOL0     C88749   2.248   3.115   6.998 -0.3463  0.3409  0.2240
  658MOL0     C88750   2.615   3.174   7.243 -0.4032 -0.3408 -0.0165
  658MOL0     C88751   2.694   3.077   7.303 -0.3715 -0.5309 -0.8383
  658MOL0     C88752   2.830   3.097   7.329 -0.8148  0.1242 -0.3176
  658MOL0     C88753   2.892   3.218   7.291  0.2386 -0.6622  0.3525
  658MOL0     O88754   3.027   3.234   7.322  0.1084 -0.5273  0.6620
  658MOL0     C88755   3.083   3.364   7.288  0.2585 -0.3541 -0.4714
  658MOL0     C88756   3.214   3.349   7.348 -0.6839  0.9192 -1.5123
  658MOL0     C88757   3.290   3.474   7.382  0.9650  0.4113 -0.9329
  658MOL0     C88758   3.290   3.580   7.261 -0.6729 -1.1429 -0.7119
  658MOL0     C88759   3.361   3.516   7.147  0.3300  0.7215 -0.2493
  658MOL0     C88760   3.422   3.477   7.050 -0.5217 -0.7566 -0.0835
  658MOL0     C88761   2.813   3.312   7.225 -0.0896  0.2944 -0.3739
  658MOL0     C88762   2.673   3.297   7.205 -0.1561  0.2245 -0.0620
  658MOL0     H88763   2.236   3.369   7.210  0.8077  1.5377 -2.4098
  658MOL0     H88764   1.978   3.312   7.180  0.4108 -1.3219  1.1372
  658MOL0     H88765   1.897   3.292   6.852  0.0268 -1.2365 -0.7984
  658MOL0     H88766   1.879   3.113   6.811 -1.8863 -0.7300  0.1518
  658MOL0     H88767   1.683   3.256   6.767  0.4864  2.2499  1.4520
  658MOL0     H88768   1.663   3.120   6.896 -2.1310  0.6366 -0.8438
  658MOL0     H88769   1.695   3.305   7.067  0.1156 -2.6392 -0.4180
  658MOL0     H88770   1.702   3.422   6.938  0.9392 -0.9417 -3.3089
  658MOL0     H88771   1.482   3.345   6.853  0.0194  0.5772  1.4158
  658MOL0     H88772   1.447   3.244   6.991 -1.9722  0.3060 -1.5772
  658MOL0     H88773   1.525   3.473   7.122 -0.0534  1.6511 -0.3475
  658MOL0     H88774   1.438   3.531   6.973  1.2081  0.0374 -0.0538
  658MOL0     H88775   1.253   3.378   7.013  0.5062 -1.9726  0.7290
  658MOL0     H88776   1.322   3.347   7.177 -1.8907 -0.2589  0.6483
  658MOL0     H88777   1.243   3.512   7.272  0.6879 -1.7268 -1.1164
  658MOL0     H88778   1.342   3.614   7.176 -0.3470 -0.6400 -1.1430
  658MOL0     H88779   1.161   3.591   6.990  0.0133 -0.9937  0.6369
  658MOL0     H88780   1.156   3.716   7.125  1.3682  0.1461  1.3040
  658MOL0     H88781   0.943   3.432   6.970  1.4321  0.2818  0.8447
  658MOL0     H88782   0.767   3.256   7.181 -1.3812 -0.5417 -0.3834
  658MOL0     H88783   0.658   3.367   7.247  0.0853  3.1710 -0.8400
  658MOL0     H88784   0.564   3.264   7.044 -0.2247  0.6490 -0.4470
  658MOL0     H88785   0.703   3.336   6.955 -1.3061 -0.7657 -0.7911
  658MOL0     H88786   0.624   3.560   7.008  0.7437 -0.9330 -1.6261
  658MOL0     H88787   0.494   3.514   7.115  0.2865  0.6580  0.3490
  658MOL0     H88788   0.378   3.397   6.938  1.5956 -2.0647 -0.8373
  658MOL0     H88789   0.498   3.426   6.818 -0.3965 -1.7460  1.0069
  658MOL0     H88790   0.254   3.410   6.752 -0.3085  0.5351  2.5977
  658MOL0     H88791   0.049   3.435   6.500 -1.9464 -3.5222 -0.1438
  658MOL0     H88792   0.097   3.322   6.608  2.0540  1.2576 -3.3739
  658MOL0     H88793  -0.064   3.393   6.636 -0.0550 -0.4791 -0.5840
  658MOL0     H88794  -0.256   3.919   6.498 -2.8595  3.7497 -1.8067
  658MOL0     H88795  -0.462   3.896   6.368 -0.2235 -0.3612  0.4589
  658MOL0     H88796  -0.704   3.955   6.359 -1.7107  0.7519  1.2057
  658MOL0     H88797  -0.670   3.792   6.287 -1.2170 -0.0648 -0.0918
  658MOL0     H88798  -0.876   3.794   6.218  0.1066 -1.0651  1.1431
  658MOL0     H88799  -0.916   3.727   6.378 -1.4940 -0.3018 -1.0177
  658MOL0     H88800  -0.948   4.008   6.271  1.0927 -0.5706 -0.1081
  658MOL0     H88801  -0.962   3.979   6.446  2.9935 -1.4300  0.8209
  658MOL0     H88802  -1.116   3.855   6.226  1.4186  2.8197 -1.3501
  658MOL0     H88803  -1.130   3.810   6.398 -1.6304  1.3550  1.7134
  658MOL0     H88804  -1.186   4.085   6.290  0.0208  0.1013  0.8883
  658MOL0     H88805  -1.206   4.028   6.450  2.0518  0.7292 -0.2071
  658MOL0     H88806  -1.350   3.911   6.204 -0.9068  2.6939 -1.1334
  658MOL0     H88807  -1.373   3.853   6.374 -0.1985 -1.8438 -1.5188
  658MOL0     H88808  -1.445   4.112   6.228 -0.0170 -2.6870 -2.0574
  658MOL0     H88809  -1.446   4.112   6.402 -2.5341  2.8080 -1.3824
  658MOL0     H88810  -1.631   3.943   6.427 -4.0097 -0.1455 -0.3587
  658MOL0     H88811  -1.633   3.927   6.258 -1.7317  2.0192 -1.2164
  658MOL0     H88812  -0.628   3.673   6.699  2.2127 -2.7870  1.6689
  658MOL0     H88813  -0.412   3.675   6.809 -1.8096 -1.6133 -0.5650
  658MOL0     H88814   0.018   3.843   6.816 -0.5428  0.3603  0.2251
  658MOL0     H88815   0.237   3.808   6.924 -1.1573  0.7610  1.1188
  658MOL0     H88816   2.091   3.009   6.898  1.9802 -2.3042  2.5378
  658MOL0     H88817   2.326   3.050   6.958 -0.1545  0.8688 -0.2759
  658MOL0     H88818   2.634   2.991   7.332  0.5113 -1.9935 -3.1044
  658MOL0     H88819   2.895   3.030   7.384  1.5810  1.8103 -0.9338
  658MOL0     H88820   3.086   3.389   7.181  1.6092  2.9743  0.2213
  658MOL0     H88821   3.027   3.444   7.338  1.7966  0.0230  0.7404
  658MOL0     H88822   3.268   3.289   7.275  0.1945 -0.4633  0.2010
  658MOL0     H88823   3.206   3.292   7.441 -1.3143  3.4995  0.1173
  658MOL0     H88824   3.391   3.447   7.414 -0.7684 -0.3254  5.0409
  658MOL0     H88825   3.237   3.529   7.460  1.4519  0.2722 -0.4972
  658MOL0     H88826   3.336   3.676   7.286 -2.6171  0.3161 -2.3895
  658MOL0     H88827   3.189   3.604   7.226 -0.3566 -2.6274 -2.8193
  658MOL0     H88828   3.480   3.452   6.963  0.2483  0.2764  0.1207
  658MOL0     H88829   2.861   3.400   7.185  4.1771 -2.7305 -2.6650
  658MOL0     H88830   2.619   3.370   7.144  0.1207 -0.5603 -1.2857
  659MOL0     O88831   0.190   8.457  10.496 -0.0835 -0.1971 -0.4389
  659MOL0     C88832   0.280   8.528  10.540  0.2664 -0.5635  0.7152
  659MOL0     O88833   0.260   8.649  10.592 -1.0512 -0.5091  0.1917
  659MOL0     C88834   0.134   8.699  10.590  0.1740  0.1762 -0.5757
  659MOL0     C88835   0.039   8.640  10.666 -0.2363  0.7431 -0.2942
  659MOL0     C88836  -0.092   8.677  10.666  0.3944 -0.1415  0.1525
  659MOL0     C88837  -0.129   8.788  10.585 -0.0248  0.1644 -0.0915
  659MOL0     O88838  -0.255   8.829  10.568 -0.5214  0.0317 -0.4922
  659MOL0     C88839  -0.348   8.799  10.669 -0.7457 -0.0186 -0.6772
  659MOL0     C88840  -0.468   8.869  10.638 -0.2435 -0.6101 -0.0947
  659MOL0     C88841  -0.580   8.822  10.720  0.1408  0.8167 -0.7945
  659MOL0     C88842  -0.705   8.907  10.674  0.0368 -0.3094 -0.7753
  659MOL0     C88843  -0.840   8.877  10.758 -0.5142 -0.1462  0.2423
  659MOL0     C88844  -0.954   8.960  10.697 -0.3428  0.3936  0.5091
  659MOL0     C88845  -1.096   8.931  10.750  0.1062 -0.0318 -0.7303
  659MOL0     C88846  -1.204   8.972  10.644 -0.7177 -0.4166  0.0439
  659MOL0     N88847  -1.342   8.923  10.692 -0.2903 -0.3718  0.0868
  659MOL0     C88848  -1.378   8.807  10.761  0.7364 -0.1848 -1.0079
  659MOL0     C88849  -1.514   8.803  10.744  0.0640  0.0968 -0.0586
  659MOL0     C88850  -1.596   8.687  10.793 -0.9020  0.5532 -1.2176
  659MOL0     C88851  -1.605   8.674  10.947 -0.8509  0.4022 -0.5501
  659MOL0     C88852  -1.631   8.808  11.031 -0.3075  0.2273 -0.4195
  659MOL0     C88853  -1.577   8.785  11.174  0.2750 -0.3040  0.3207
  659MOL0     O88854  -1.607   8.654  11.222  0.1232 -0.0197 -0.3213
  659MOL0     C88855  -1.733   8.625  11.255 -0.7525  0.4393  0.0193
  659MOL0     C88856  -1.756   8.485  11.281 -0.3344 -0.0476 -0.4162
  659MOL0     C88857  -1.883   8.433  11.324  0.5508 -0.4392 -0.0642
  659MOL0     C88858  -1.894   8.280  11.349 -0.3566  0.0374 -0.7016
  659MOL0     C88859  -1.988   8.524  11.336  0.3070 -0.5294  0.1788
  659MOL0     C88860  -2.116   8.479  11.395 -0.0612 -0.1681  0.4185
  659MOL0     O88861  -2.223   8.529  11.327 -0.1184  0.1938 -0.2766
  659MOL0     C88862  -2.343   8.476  11.380 -1.1327  0.1590 -0.3046
  659MOL0     C88863  -2.399   8.371  11.308  0.9998  0.3770  0.0720
  659MOL0     C88864  -2.530   8.315  11.336  0.2102 -0.1192 -0.3550
  659MOL0     C88865  -2.602   8.375  11.437  0.4743  0.7180 -0.2170
  659MOL0     O88866  -2.735   8.348  11.471 -0.1787  0.5469 -0.1713
  659MOL0     C88867  -2.804   8.257  11.378 -0.4873  0.0380 -0.0458
  659MOL0     C88868  -2.947   8.222  11.424 -0.1104 -1.4589 -0.3074
  659MOL0     C88869  -3.019   8.121  11.347  0.1409  0.3206  0.6510
  659MOL0     C88870  -3.167   8.103  11.376 -0.5117  0.4774  0.2359
  659MOL0     C88871  -3.234   7.996  11.287  0.0865  0.2108 -0.7193
  659MOL0     C88872  -3.384   7.994  11.315  0.0923  0.2905 -0.2711
  659MOL0     C88873  -3.465   7.917  11.206  0.3261 -0.9077  0.2954
  659MOL0     C88874  -3.624   7.919  11.230  0.2569  0.1655 -0.3307
  659MOL0    Cl88875  -3.696   8.079  11.235 -0.2353 -0.0783 -0.2696
  659MOL0     C88876  -2.536   8.470  11.516 -0.0017 -0.9342  0.0768
  659MOL0     C88877  -2.407   8.518  11.491 -0.7160 -0.4017  0.1887
  659MOL0     O88878  -2.115   8.411  11.499  1.2094 -0.4455  0.3803
  659MOL0     C88879  -1.966   8.660  11.305  1.2220  0.6492 -0.4133
  659MOL0     C88880  -1.839   8.714  11.266  0.5103 -0.3954  0.6242
  659MOL0     N88881  -1.554   8.919  10.676 -0.1107 -0.1751 -0.0467
  659MOL0     N88882  -1.447   8.989  10.646  0.2517  0.4658 -0.8947
  659MOL0     C88883  -0.029   8.851  10.513  0.5681 -0.0697 -0.8559
  659MOL0     C88884   0.109   8.805  10.511  0.4296  0.6808 -0.2514
  659MOL0     C88885   0.415   8.485  10.507  0.8681  0.3276 -0.4413
  659MOL0     C88886   0.440   8.383  10.419 -0.5058  0.4212  0.0328
  659MOL0     C88887   0.569   8.343  10.400  0.0104 -0.3323  0.4104
  659MOL0     C88888   0.678   8.410  10.450 -0.8047  0.7070 -0.4887
  659MOL0     O88889   0.815   8.375  10.429 -0.2491 -0.5977 -0.4373
  659MOL0     C88890   0.847   8.255  10.368 -0.3302 -0.1661 -0.2305
  659MOL0     C88891   0.992   8.229  10.389 -0.4993 -0.2418 -0.0278
  659MOL0     C88892   1.033   8.086  10.351  0.4835 -0.7274  0.1706
  659MOL0     C88893   1.176   8.060  10.385 -0.2511  0.0094  0.0041
  659MOL0     C88894   1.195   8.039  10.526  0.6996  1.0226  0.1683
  659MOL0     C88895   1.197   8.001  10.638 -0.0627 -0.0744 -0.2257
  659MOL0     C88896   0.658   8.519  10.536  0.6347  0.8215  0.0708
  659MOL0     C88897   0.521   8.557  10.561 -0.2534  0.2341 -0.3068
  659MOL0     H88898   0.064   8.553  10.726 -0.4359 -0.3963 -1.7743
  659MOL0     H88899  -0.169   8.626  10.723  0.8761 -2.5041 -1.1559
  659MOL0     H88900  -0.372   8.692  10.671  3.5484 -1.1952 -0.5973
  659MOL0     H88901  -0.317   8.829  10.770  0.5972  0.1168 -1.1011
  659MOL0     H88902  -0.443   8.975  10.649  0.2359 -0.5951 -1.1424
  659MOL0     H88903  -0.483   8.852  10.531  0.6791 -0.5613 -0.2483
  659MOL0     H88904  -0.599   8.716  10.703 -2.5057  0.5639  2.6190
  659MOL0     H88905  -0.562   8.827  10.828 -1.0323 -0.8638 -0.4860
  659MOL0     H88906  -0.665   9.008  10.678  0.1761 -0.3962  1.7026
  659MOL0     H88907  -0.723   8.882  10.569  1.7105 -0.2647 -1.0918
  659MOL0     H88908  -0.866   8.771  10.759  3.4254 -1.3202  2.4344
  659MOL0     H88909  -0.821   8.906  10.862 -2.6362 -0.6379  0.8169
  659MOL0     H88910  -0.936   9.067  10.717 -1.3879  0.6045  0.3449
  659MOL0     H88911  -0.944   8.960  10.589 -0.7608  3.9530  0.3275
  659MOL0     H88912  -1.106   8.827  10.784  1.9205 -0.2343 -0.6826
  659MOL0     H88913  -1.109   8.998  10.834  4.8421  0.5239 -0.1439
  659MOL0     H88914  -1.192   8.924  10.546  1.7621  0.3328 -0.0652
  659MOL0     H88915  -1.210   9.079  10.622  1.7304 -0.4043 -0.8174
  659MOL0     H88916  -1.321   8.725  10.804 -1.6067 -1.3133  0.1206
  659MOL0     H88917  -1.702   8.686  10.766 -0.7410  0.6958 -1.8972
  659MOL0     H88918  -1.549   8.591  10.771  2.5512  1.0989  2.6979
  659MOL0     H88919  -1.516   8.632  10.995 -0.4640  1.3769 -0.3896
  659MOL0     H88920  -1.677   8.597  10.974  2.5127 -1.8926  2.8426
  659MOL0     H88921  -1.740   8.816  11.042 -0.1070 -0.2005  2.8438
  659MOL0     H88922  -1.587   8.897  10.984  0.4238 -1.0319 -2.1936
  659MOL0     H88923  -1.626   8.856  11.241  0.6362  1.3292 -1.0726
  659MOL0     H88924  -1.470   8.809  11.184  0.0059  1.0254  0.2424
  659MOL0     H88925  -1.669   8.420  11.274  0.1012  0.5706 -0.8565
  659MOL0     H88926  -1.971   8.232  11.288  0.3684  0.1263 -1.6945
  659MOL0     H88927  -1.801   8.230  11.324 -1.3123 -1.9204 -0.5407
  659MOL0     H88928  -1.919   8.274  11.456 -0.2344 -0.0832 -0.6800
  659MOL0     H88929  -2.346   8.342  11.218 -0.1728 -0.0005 -0.5261
  659MOL0     H88930  -2.563   8.248  11.258  0.6942  2.0070 -2.5020
  659MOL0     H88931  -2.810   8.305  11.280 -0.7446  0.1436  0.0222
  659MOL0     H88932  -2.745   8.166  11.367 -1.0080 -0.1295 -1.6214
  659MOL0     H88933  -2.934   8.204  11.531  0.8175 -1.1531 -0.3594
  659MOL0     H88934  -2.995   8.319  11.415 -0.3153 -1.7114 -2.6424
  659MOL0     H88935  -2.967   8.025  11.353  1.0694  0.3721 -3.3787
  659MOL0     H88936  -3.021   8.153  11.242 -0.2904 -0.3622  0.4444
  659MOL0     H88937  -3.186   8.081  11.481  0.2041 -2.9231 -0.2325
  659MOL0     H88938  -3.211   8.202  11.358 -0.2942  0.5415  0.0447
  659MOL0     H88939  -3.199   7.894  11.305 -0.6585 -0.0356 -0.6195
  659MOL0     H88940  -3.213   8.029  11.185 -0.0226  2.4155 -0.0869
  659MOL0     H88941  -3.403   7.942  11.409 -1.6213 -0.4298 -0.9653
  659MOL0     H88942  -3.416   8.099  11.321 -0.1659  0.1825  0.3150
  659MOL0     H88943  -3.422   7.816  11.212  1.5911 -0.4045 -0.0257
  659MOL0     H88944  -3.439   7.966  11.112 -1.0205 -0.5553  0.0890
  659MOL0     H88945  -3.648   7.872  11.326  0.1435  1.7589  0.4602
  659MOL0     H88946  -3.668   7.867  11.145 -0.9358  3.2360 -1.7629
  659MOL0     H88947  -2.588   8.497  11.607  0.5872  0.3898  0.0444
  659MOL0     H88948  -2.359   8.598  11.547  0.4514  1.6959 -3.4661
  659MOL0     H88949  -2.052   8.725  11.317  0.9324  0.2957 -0.5582
  659MOL0     H88950  -1.831   8.822  11.257 -0.3608 -0.2451  1.5424
  659MOL0     H88951  -0.051   8.937  10.451  2.0966 -0.8388 -2.6078
  659MOL0     H88952   0.178   8.859  10.445 -0.4983 -0.1259 -1.9511
  659MOL0     H88953   0.362   8.333  10.363  2.6776 -1.1670 -3.4899
  659MOL0     H88954   0.585   8.256  10.337 -2.0227  0.1077 -0.8231
  659MOL0     H88955   0.793   8.187  10.435 -0.2314  1.5496  1.6820
  659MOL0     H88956   0.814   8.253  10.264  0.1906 -0.0875 -0.4009
  659MOL0     H88957   1.015   8.243  10.495  0.7931 -0.9556 -0.1881
  659MOL0     H88958   1.056   8.300  10.336 -1.5255 -1.0281 -2.4604
  659MOL0     H88959   1.020   8.072  10.244  0.6049 -1.9897  0.3082
  659MOL0     H88960   0.966   8.013  10.397  0.0385 -0.3851  0.0807
  659MOL0     H88961   1.233   8.146  10.347 -0.5525  0.9240  1.5265
  659MOL0     H88962   1.200   7.965  10.337 -0.5978  0.4278 -1.0239
  659MOL0     H88963   1.222   7.989  10.741  0.0944 -2.0237 -0.4423
  659MOL0     H88964   0.740   8.578  10.577  2.3605  1.2820 -3.5824
  659MOL0     H88965   0.499   8.635  10.633  1.3228 -0.3081  0.8379
  660MOL0     O88966   8.276   4.893   2.047  0.0487  0.5161  0.2713
  660MOL0     C88967   8.216   4.913   2.151  0.4259  0.7388  0.0593
  660MOL0     O88968   8.090   4.873   2.191 -0.3117  0.0318  0.2432
  660MOL0     C88969   8.007   4.792   2.122  0.2503  0.0141  0.2909
  660MOL0     C88970   7.982   4.822   1.987 -0.2932 -0.4966 -0.2344
  660MOL0     C88971   7.930   4.734   1.897  0.7444 -0.0498 -0.2934
  660MOL0     C88972   7.878   4.620   1.944  0.4334 -0.2763 -0.9735
  660MOL0     O88973   7.800   4.536   1.869 -0.6736  0.7277  0.2806
  660MOL0     C88974   7.847   4.511   1.731 -0.7386 -0.1262 -0.2222
  660MOL0     C88975   7.793   4.383   1.665  1.0601 -0.1009 -0.5939
  660MOL0     C88976   7.642   4.401   1.659  0.2004  0.3841 -0.0190
  660MOL0     C88977   7.571   4.277   1.591 -0.8602  0.3402  0.7042
  660MOL0     C88978   7.419   4.285   1.584 -0.2902 -0.5971 -0.0862
  660MOL0     C88979   7.356   4.179   1.490 -0.4867 -0.2734  0.0436
  660MOL0     C88980   7.209   4.151   1.526  0.0678 -0.4846  0.1424
  660MOL0     C88981   7.134   4.057   1.427  0.0898 -0.2393  0.5272
  660MOL0     N88982   6.997   4.035   1.455  0.0613 -0.4024  0.5269
  660MOL0     C88983   6.935   4.037   1.579  1.0475 -0.3520  0.6193
  660MOL0     C88984   6.821   3.968   1.558 -0.3102 -0.3026  0.4661
  660MOL0     C88985   6.715   3.953   1.660 -0.0727  0.4767  0.7665
  660MOL0     C88986   6.575   3.982   1.600  0.4611  0.6035  0.2181
  660MOL0     C88987   6.480   3.953   1.714 -0.8749  0.2202  0.1697
  660MOL0     C88988   6.335   3.974   1.685  0.7941  0.5791 -0.2559
  660MOL0     O88989   6.261   3.955   1.807  0.3540 -0.4011  0.0926
  660MOL0     C88990   6.143   4.033   1.820  0.6549  0.1397  0.3451
  660MOL0     C88991   6.084   4.042   1.943 -0.4515 -0.2825 -0.1224
  660MOL0     C88992   5.951   4.082   1.959  0.0680  0.1055  0.0345
  660MOL0     C88993   5.884   4.087   2.099  1.0745 -0.3281  0.2253
  660MOL0     C88994   5.877   4.131   1.848 -0.1156  0.4580  1.0197
  660MOL0     C88995   5.738   4.186   1.859 -0.2205  0.4174  0.2919
  660MOL0     O88996   5.723   4.291   1.949 -0.2563  0.3239 -0.3471
  660MOL0     C88997   5.598   4.335   1.986  0.4627  0.6428  0.1504
  660MOL0     C88998   5.547   4.454   1.924 -0.3585  0.7616 -0.4228
  660MOL0     C88999   5.425   4.505   1.960 -0.2178 -0.1083 -0.2382
  660MOL0     C89000   5.344   4.440   2.061 -0.3816 -0.6209  0.2176
  660MOL0     O89001   5.233   4.511   2.115 -0.3610 -0.5783  0.7269
  660MOL0     C89002   5.107   4.436   2.144 -0.2744 -0.3444 -0.0164
  660MOL0     C89003   5.017   4.552   2.181  0.0184 -0.7479  0.6717
  660MOL0     C89004   4.872   4.505   2.172 -0.0742  0.6722 -0.5948
  660MOL0     C89005   4.779   4.624   2.174 -0.1337  0.3617 -1.0514
  660MOL0     C89006   4.637   4.581   2.136  0.4034 -0.9862  0.1080
  660MOL0     C89007   4.578   4.487   2.240 -0.1634  0.3921  0.4484
  660MOL0     C89008   4.431   4.457   2.220 -0.7142  0.2168 -0.7908
  660MOL0     C89009   4.388   4.343   2.307  0.0141 -0.0459  0.2098
  660MOL0    Cl89010   4.404   4.412   2.479  0.1321 -0.1892  0.3725
  660MOL0     C89011   5.397   4.320   2.110  0.0895  0.0183  1.0686
  660MOL0     C89012   5.520   4.267   2.078  0.1600  0.0415  0.2192
  660MOL0     O89013   5.649   4.140   1.790  0.2465 -0.3156 -0.0355
  660MOL0     C89014   5.929   4.105   1.719 -1.4011  0.9585  0.8532
  660MOL0     C89015   6.062   4.060   1.709  0.2630  0.2217  0.1287
  660MOL0     N89016   6.804   3.931   1.420  0.2976  0.5048  0.2839
  660MOL0     N89017   6.911   3.977   1.366  0.3099  0.7644 -0.6384
  660MOL0     C89018   7.897   4.578   2.076  0.4566 -0.1428  0.3766
  660MOL0     C89019   7.961   4.666   2.164  0.4515  0.1230  1.5093
  660MOL0     C89020   8.310   4.952   2.265  0.3308  0.9196 -0.1632
  660MOL0     C89021   8.263   4.956   2.394 -0.3480 -0.5705  0.0235
  660MOL0     C89022   8.334   5.002   2.503 -0.9980  0.1087  0.3551
  660MOL0     C89023   8.459   5.063   2.481 -0.9761 -0.0663 -0.3194
  660MOL0     O89024   8.529   5.128   2.573  0.4901  0.0941 -0.0424
  660MOL0     C89025   8.481   5.167   2.709 -0.7232  0.3163  0.0220
  660MOL0     C89026   8.591   5.206   2.811 -0.0947  0.1309 -0.1340
  660MOL0     C89027   8.659   5.338   2.791 -0.3508  0.6637 -0.2688
  660MOL0     C89028   8.772   5.341   2.690 -0.4285  0.1636  0.3350
  660MOL0     C89029   8.879   5.248   2.735 -0.9159 -0.8966  0.2312
  660MOL0     C89030   8.969   5.173   2.768  0.2613  0.3112  0.5122
  660MOL0     C89031   8.517   5.049   2.353  0.2094 -0.2895 -0.0983
  660MOL0     C89032   8.441   4.991   2.246 -0.0595  0.2436  0.2966
  660MOL0     H89033   8.023   4.918   1.957 -0.0442  0.6076  3.2818
  660MOL0     H89034   7.913   4.758   1.792  1.6350 -1.2274 -0.7412
  660MOL0     H89035   7.812   4.602   1.681 -1.1083  1.0562  2.0579
  660MOL0     H89036   7.956   4.513   1.719 -0.8400  3.0239 -1.7499
  660MOL0     H89037   7.834   4.381   1.563 -0.5334 -1.4709 -1.2442
  660MOL0     H89038   7.827   4.293   1.717  1.4272  0.7152  0.6188
  660MOL0     H89039   7.605   4.413   1.761  0.6108  3.1942 -0.1439
  660MOL0     H89040   7.616   4.491   1.604 -1.7563 -0.1566 -0.0823
  660MOL0     H89041   7.611   4.281   1.490  0.0791 -0.4967  1.0229
  660MOL0     H89042   7.600   4.187   1.646  1.7029  0.8656  0.3548
  660MOL0     H89043   7.380   4.260   1.683 -0.0214  2.2923  0.8296
  660MOL0     H89044   7.387   4.386   1.560 -2.0889 -0.6595  1.7888
  660MOL0     H89045   7.382   4.202   1.386  0.9537  1.2565  0.6891
  660MOL0     H89046   7.417   4.092   1.518  3.6122  2.6499  1.2549
  660MOL0     H89047   7.214   4.106   1.625 -0.7287 -1.0286 -0.0612
  660MOL0     H89048   7.156   4.247   1.529 -1.4928 -1.3492  1.6928
  660MOL0     H89049   7.184   3.963   1.404  1.9559  0.4955  1.3704
  660MOL0     H89050   7.139   4.104   1.328 -2.0851  1.1174  0.9923
  660MOL0     H89051   6.970   4.091   1.666  1.0765 -0.2165  0.5239
  660MOL0     H89052   6.721   3.850   1.696  0.9958  0.9962  2.1341
  660MOL0     H89053   6.741   4.026   1.737 -0.3803  2.6082 -1.0531
  660MOL0     H89054   6.556   3.919   1.512  0.8852  1.1826 -0.3010
  660MOL0     H89055   6.562   4.086   1.570 -1.1781  0.5091  0.4903
  660MOL0     H89056   6.508   4.012   1.802  3.1401 -0.1834 -0.6569
  660MOL0     H89057   6.501   3.851   1.748 -2.2423 -0.5210 -1.0895
  660MOL0     H89058   6.297   3.899   1.616  1.5065 -1.3026  1.2981
  660MOL0     H89059   6.313   4.071   1.640 -2.6006  0.5484  1.0639
  660MOL0     H89060   6.131   3.994   2.028 -1.1898 -1.6189 -0.4417
  660MOL0     H89061   5.779   4.058   2.098  1.6628 -2.8434  1.8290
  660MOL0     H89062   5.935   4.019   2.168  0.7444 -1.4980 -0.6646
  660MOL0     H89063   5.895   4.187   2.142  0.6478 -0.7282  1.3214
  660MOL0     H89064   5.595   4.517   1.850 -0.2035  0.7896 -0.2976
  660MOL0     H89065   5.394   4.591   1.901 -0.5187 -0.5216 -0.6975
  660MOL0     H89066   5.076   4.381   2.055  0.2552  0.4464 -0.7011
  660MOL0     H89067   5.120   4.368   2.229  0.8157 -1.0574 -0.7328
  660MOL0     H89068   5.047   4.590   2.279 -1.8556  0.8106  0.6985
  660MOL0     H89069   5.033   4.639   2.117 -1.9853 -1.1740 -0.4835
  660MOL0     H89070   4.861   4.445   2.262  0.8781  0.0580 -0.8788
  660MOL0     H89071   4.850   4.437   2.089  0.0423 -2.8864  2.0612
  660MOL0     H89072   4.778   4.670   2.273  3.0276 -0.6168 -0.4635
  660MOL0     H89073   4.812   4.699   2.101 -1.5349  1.6231 -0.4437
  660MOL0     H89074   4.639   4.527   2.041 -0.1650 -2.5397  0.9453
  660MOL0     H89075   4.581   4.673   2.117  0.8586 -0.7993 -0.3617
  660MOL0     H89076   4.631   4.391   2.242 -1.3850 -0.3216 -0.3109
  660MOL0     H89077   4.595   4.549   2.328  0.8469  0.6216  0.1081
  660MOL0     H89078   4.417   4.414   2.120  2.9269 -1.1653 -0.8757
  660MOL0     H89079   4.378   4.552   2.221 -1.0797  0.0079  0.5876
  660MOL0     H89080   4.443   4.249   2.297 -2.3462 -1.3745 -1.4005
  660MOL0     H89081   4.286   4.308   2.292  0.5636 -1.4982 -0.2930
  660MOL0     H89082   5.342   4.265   2.186 -0.1387 -0.1445  0.7840
  660MOL0     H89083   5.557   4.169   2.108  3.5579  0.2784 -2.5381
  660MOL0     H89084   5.877   4.124   1.626  0.6263  2.2815 -0.1058
  660MOL0     H89085   6.102   4.049   1.609  0.1477  0.0531  0.1006
  660MOL0     H89086   7.857   4.481   2.104 -0.7353  0.9401  2.7004
  660MOL0     H89087   7.975   4.622   2.262 -1.5785 -1.8456  1.0060
  660MOL0     H89088   8.159   4.928   2.412  0.0214 -0.4940  2.6800
  660MOL0     H89089   8.294   4.998   2.604  1.7751 -1.8412  1.5341
  660MOL0     H89090   8.408   5.245   2.686  1.3670  2.2783 -0.3362
  660MOL0     H89091   8.429   5.081   2.752  1.1041 -0.5789  0.5442
  660MOL0     H89092   8.663   5.124   2.818 -0.8529 -0.4782  0.9001
  660MOL0     H89093   8.555   5.209   2.915  2.3126  0.6794  0.7490
  660MOL0     H89094   8.705   5.354   2.889 -0.1358 -2.7036  0.3029
  660MOL0     H89095   8.592   5.422   2.771  0.8618  1.4381 -1.3062
  660MOL0     H89096   8.813   5.442   2.687 -0.3173  0.1329 -2.8278
  660MOL0     H89097   8.752   5.315   2.586  4.9199  1.0101 -1.2518
  660MOL0     H89098   9.053   5.107   2.782  1.0172  0.9367 -0.8677
  660MOL0     H89099   8.611   5.102   2.338  1.2165 -1.6382  1.1234
  660MOL0     H89100   8.483   5.000   2.147 -2.0169  3.3340 -0.3921
  661MOL0     O89101   1.089   4.677   7.748 -0.1660 -0.9401 -0.4641
  661MOL0     C89102   1.114   4.635   7.636  0.1491  0.2057 -0.3694
  661MOL0     O89103   1.017   4.577   7.554 -0.3278 -0.9260 -0.0842
  661MOL0     C89104   0.893   4.561   7.608 -0.3166 -0.6420  0.6214
  661MOL0     C89105   0.790   4.640   7.551  0.7215  0.3567 -0.4344
  661MOL0     C89106   0.649   4.611   7.595 -0.6156 -0.3322 -0.6956
  661MOL0     C89107   0.613   4.514   7.696  0.4474  0.4912 -0.8282
  661MOL0     O89108   0.492   4.481   7.742 -0.0486  0.2885 -0.7120
  661MOL0     C89109   0.385   4.560   7.689 -0.0586 -0.2571 -0.4335
  661MOL0     C89110   0.348   4.500   7.562  0.0894 -0.2911  0.5904
  661MOL0     C89111   0.196   4.528   7.531 -1.0339  0.4293 -0.5417
  661MOL0     C89112   0.142   4.456   7.407  1.1844 -0.1105 -0.1987
  661MOL0     C89113   0.001   4.486   7.384  0.0101 -0.2948 -0.3159
  661MOL0     C89114  -0.059   4.427   7.254  0.2246 -0.1591 -0.2581
  661MOL0     C89115  -0.182   4.494   7.206  0.4467  0.3686  0.1065
  661MOL0     C89116  -0.217   4.452   7.060  0.1980 -0.1113  0.0351
  661MOL0     N89117  -0.352   4.493   7.021  0.2784 -0.5655  0.7430
  661MOL0     C89118  -0.403   4.625   7.028 -0.4526  0.3647 -0.1387
  661MOL0     C89119  -0.532   4.622   6.986 -0.1271  0.9698 -0.0324
  661MOL0     C89120  -0.636   4.737   6.982  0.5700 -0.2357 -0.0342
  661MOL0     C89121  -0.642   4.813   7.117 -0.1243  0.4214 -0.1914
  661MOL0     C89122  -0.768   4.907   7.098  0.0126  0.1835 -0.6829
  661MOL0     C89123  -0.787   5.005   7.213 -0.2867 -0.2726 -1.2153
  661MOL0     O89124  -0.920   5.063   7.207 -0.2673 -0.1140  0.1906
  661MOL0     C89125  -1.031   4.983   7.208 -0.6892 -0.0528  0.8001
  661MOL0     C89126  -1.044   4.863   7.276 -0.6348 -0.1517  0.0725
  661MOL0     C89127  -1.168   4.789   7.275 -0.4657  0.0167  0.3186
  661MOL0     C89128  -1.177   4.681   7.372  0.2178 -0.6918 -1.2554
  661MOL0     C89129  -1.277   4.832   7.196  0.1199  0.1556  1.4118
  661MOL0     C89130  -1.410   4.760   7.204  0.3264  0.2398  0.6225
  661MOL0     O89131  -1.495   4.825   7.270 -0.0850  0.2431 -0.0715
  661MOL0     C89132  -1.632   4.789   7.268 -0.7931  0.8212 -0.6099
  661MOL0     C89133  -1.708   4.801   7.384  0.7921  0.5790 -0.3171
  661MOL0     C89134  -1.847   4.785   7.378  0.1523 -0.3777 -0.6263
  661MOL0     C89135  -1.916   4.733   7.268 -0.0271 -0.3680  0.9863
  661MOL0     O89136  -2.049   4.699   7.283 -0.2156  0.2965 -0.0473
  661MOL0     C89137  -2.136   4.722   7.166  0.3472  0.0630  0.0033
  661MOL0     C89138  -2.280   4.733   7.220 -0.5300 -0.0404  0.0214
  661MOL0     C89139  -2.382   4.724   7.107  0.2441  0.3950 -0.0419
  661MOL0     C89140  -2.521   4.763   7.156  0.4024 -0.1170  0.7077
  661MOL0     C89141  -2.592   4.650   7.224 -0.1425 -0.7655  0.4926
  661MOL0     C89142  -2.741   4.691   7.238  0.2199  0.3296  0.2115
  661MOL0     C89143  -2.811   4.570   7.292 -0.1176  0.6467  0.2088
  661MOL0     C89144  -2.945   4.589   7.351  0.3657 -0.9521  1.0088
  661MOL0    Cl89145  -2.959   4.699   7.489 -0.1186  0.0601  0.4577
  661MOL0     C89146  -1.842   4.732   7.158 -0.0340  0.6722  0.9421
  661MOL0     C89147  -1.704   4.754   7.154 -1.1582 -0.6157  0.8241
  661MOL0     O89148  -1.432   4.674   7.122  0.0550  0.3876 -0.8663
  661MOL0     C89149  -1.266   4.955   7.122 -0.0619  0.3930 -0.6772
  661MOL0     C89150  -1.141   5.025   7.129  0.6416  0.0492 -0.9506
  661MOL0     N89151  -0.545   4.491   6.936  0.3395 -0.7022 -0.3139
  661MOL0     N89152  -0.441   4.414   6.955  0.2295 -0.0291  0.1694
  661MOL0     C89153   0.721   4.441   7.747 -0.3555 -0.3192  0.0743
  661MOL0     C89154   0.854   4.463   7.710 -0.0490  0.6363  0.9273
  661MOL0     C89155   1.250   4.622   7.593 -0.8598  0.1502 -0.1973
  661MOL0     C89156   1.291   4.549   7.476  0.4532  0.3533 -0.2380
  661MOL0     C89157   1.422   4.545   7.436 -0.1874 -0.4544 -0.4787
  661MOL0     C89158   1.515   4.605   7.515 -1.3221 -0.1052  0.2074
  661MOL0     O89159   1.647   4.584   7.469  0.4753  0.2529 -0.2172
  661MOL0     C89160   1.758   4.599   7.560 -0.4928  0.2525  0.7643
  661MOL0     C89161   1.764   4.493   7.667  0.1544  0.3769 -0.4167
  661MOL0     C89162   1.871   4.514   7.772 -1.0198  0.5755 -0.8303
  661MOL0     C89163   2.013   4.487   7.731 -0.1179 -0.1589  0.5782
  661MOL0     C89164   2.099   4.410   7.816  0.0861 -1.1336  0.1888
  661MOL0     C89165   2.171   4.346   7.891 -0.5723  0.3124 -0.2429
  661MOL0     C89166   1.477   4.678   7.625  0.0147  0.3346  0.0964
  661MOL0     C89167   1.346   4.686   7.669  0.8082 -0.8796  1.1206
  661MOL0     H89168   0.816   4.715   7.477  0.5786  1.9936  1.1144
  661MOL0     H89169   0.572   4.676   7.554 -0.0053  1.8675  1.4423
  661MOL0     H89170   0.304   4.547   7.761  1.3369  0.5703  1.3646
  661MOL0     H89171   0.405   4.667   7.688 -1.8723  0.1292  0.3570
  661MOL0     H89172   0.411   4.532   7.478  1.4848 -1.9338  0.9352
  661MOL0     H89173   0.365   4.392   7.574  1.7713  0.1470  2.7038
  661MOL0     H89174   0.142   4.490   7.618  0.4256  3.9954  2.1671
  661MOL0     H89175   0.179   4.636   7.540 -2.1995  0.1443  1.1548
  661MOL0     H89176   0.202   4.480   7.319  1.1826  0.4143 -0.0573
  661MOL0     H89177   0.151   4.347   7.414 -1.2529 -0.3736 -0.0298
  661MOL0     H89178  -0.060   4.452   7.469  0.2131 -1.8611 -0.7685
  661MOL0     H89179   0.001   4.595   7.383 -1.0921 -0.2813 -1.3267
  661MOL0     H89180   0.011   4.443   7.172 -0.5917 -0.6550 -1.0705
  661MOL0     H89181  -0.071   4.318   7.260 -2.2850  0.1097  1.3119
  661MOL0     H89182  -0.264   4.449   7.263 -0.8039 -0.9877 -2.5858
  661MOL0     H89183  -0.168   4.601   7.224  3.7259 -0.1950  1.7312
  661MOL0     H89184  -0.223   4.344   7.041  0.3195  0.0284 -0.8161
  661MOL0     H89185  -0.140   4.490   6.993  1.6813 -0.8673  1.2417
  661MOL0     H89186  -0.350   4.710   7.071  1.4073 -1.3719  1.1584
  661MOL0     H89187  -0.624   4.809   6.900 -1.4702 -0.0795 -0.2493
  661MOL0     H89188  -0.734   4.689   6.972  1.4455 -2.4304  1.3075
  661MOL0     H89189  -0.545   4.857   7.144 -0.1302  0.8211 -0.8074
  661MOL0     H89190  -0.663   4.745   7.199 -0.1184  0.4024 -0.2061
  661MOL0     H89191  -0.852   4.837   7.105 -0.0316  0.3450  0.5227
  661MOL0     H89192  -0.764   4.963   7.004  2.3863  3.3072  1.0706
  661MOL0     H89193  -0.725   5.094   7.205  0.5632 -0.7844 -0.5491
  661MOL0     H89194  -0.773   4.955   7.310 -1.1142  0.8082 -0.5133
  661MOL0     H89195  -0.964   4.833   7.343 -0.3990  0.8314  0.2501
  661MOL0     H89196  -1.273   4.683   7.424  0.2800 -2.3710 -1.0476
  661MOL0     H89197  -1.161   4.581   7.332  0.6057 -1.1088 -0.0797
  661MOL0     H89198  -1.096   4.681   7.444 -0.4658 -3.1928 -0.4073
  661MOL0     H89199  -1.660   4.832   7.476  2.3119  0.1718 -0.9268
  661MOL0     H89200  -1.902   4.795   7.471  0.3751  0.5713 -0.5868
  661MOL0     H89201  -2.108   4.810   7.108  0.9803  0.6964  1.2206
  661MOL0     H89202  -2.128   4.642   7.092  1.6971  0.0528  0.1286
  661MOL0     H89203  -2.302   4.636   7.264 -0.9901 -0.3597 -0.8924
  661MOL0     H89204  -2.293   4.819   7.286  0.5536  0.2021 -0.0610
  661MOL0     H89205  -2.384   4.623   7.063 -0.1402  0.5412 -0.3669
  661MOL0     H89206  -2.343   4.781   7.023 -1.3696  2.2800  0.4339
  661MOL0     H89207  -2.522   4.859   7.209  0.2491  0.5543 -0.4859
  661MOL0     H89208  -2.570   4.788   7.062 -1.9108 -0.0316  1.8414
  661MOL0     H89209  -2.547   4.629   7.322  0.4433  2.1428  0.9393
  661MOL0     H89210  -2.579   4.563   7.159  0.6943  0.2168 -0.6953
  661MOL0     H89211  -2.757   4.775   7.306  2.6695  1.1593 -0.1208
  661MOL0     H89212  -2.784   4.722   7.142  0.8506  0.6015  0.0102
  661MOL0     H89213  -2.743   4.526   7.367  0.0492 -0.9028 -0.8083
  661MOL0     H89214  -2.821   4.495   7.213 -1.8224 -0.6442  1.5508
  661MOL0     H89215  -2.987   4.489   7.370  0.2957 -1.6461 -2.1479
  661MOL0     H89216  -2.999   4.635   7.268  3.1881 -0.6967 -0.7969
  661MOL0     H89217  -1.884   4.707   7.062 -2.7717  0.5523  2.0960
  661MOL0     H89218  -1.667   4.758   7.052  2.6663 -0.1640  2.0455
  661MOL0     H89219  -1.351   4.999   7.070  1.4928  0.1464 -3.6110
  661MOL0     H89220  -1.119   5.124   7.089  0.9001  0.7481  0.8234
  661MOL0     H89221   0.691   4.371   7.824 -1.0877  1.9563  1.9988
  661MOL0     H89222   0.932   4.395   7.745 -0.9256 -2.4815 -2.5391
  661MOL0     H89223   1.210   4.503   7.420 -1.5351  0.1679  2.5615
  661MOL0     H89224   1.454   4.486   7.352  1.7357 -1.3544  0.8183
  661MOL0     H89225   1.848   4.598   7.498  0.3786  0.5862  1.9900
  661MOL0     H89226   1.758   4.695   7.612  3.0753 -1.2991  4.2058
  661MOL0     H89227   1.780   4.393   7.626  2.6788  0.5884 -0.1075
  661MOL0     H89228   1.671   4.498   7.724 -0.0620 -0.8234 -0.6396
  661MOL0     H89229   1.851   4.446   7.855 -2.6397  0.8645 -0.9541
  661MOL0     H89230   1.860   4.608   7.828  1.3555  0.9269 -0.8505
  661MOL0     H89231   2.058   4.582   7.699 -0.3044 -0.4364 -0.5541
  661MOL0     H89232   2.012   4.431   7.637  1.1524  1.3954 -0.4093
  661MOL0     H89233   2.235   4.305   7.967 -0.5842  2.3732  0.9441
  661MOL0     H89234   1.548   4.736   7.683  0.4680 -1.4463  1.3962
  661MOL0     H89235   1.328   4.743   7.760 -0.1076  2.5737 -1.0512
  662MOL0     O89236  10.294   9.019   8.441 -0.4230 -0.2247  0.5784
  662MOL0     C89237  10.360   9.027   8.543  0.4459  0.2176  0.3319
  662MOL0     O89238  10.331   9.114   8.647 -0.7817  0.1546  0.5097
  662MOL0     C89239  10.215   9.181   8.651 -0.4946  0.3509 -0.4035
  662MOL0     C89240  10.159   9.186   8.781  0.4994 -0.5324  1.0111
  662MOL0     C89241  10.039   9.268   8.805 -0.8763 -0.1396 -0.6431
  662MOL0     C89242   9.996   9.351   8.707  0.0226  1.3320  0.3206
  662MOL0     O89243   9.889   9.431   8.715 -0.0781  0.1199 -0.8398
  662MOL0     C89244   9.829   9.460   8.845 -0.4394 -0.3001  0.1447
  662MOL0     C89245   9.713   9.553   8.826  0.4802  0.4079 -0.3614
  662MOL0     C89246   9.737   9.671   8.729 -0.6303 -0.3501  0.1645
  662MOL0     C89247   9.612   9.752   8.723 -1.1436  0.5951 -0.1576
  662MOL0     C89248   9.617   9.875   8.642  0.1742  0.0324  0.0192
  662MOL0     C89249   9.633   9.846   8.488  0.5457  1.0411 -0.4721
  662MOL0     C89250   9.537   9.752   8.413  0.7204  0.0860  0.2098
  662MOL0     C89251   9.390   9.811   8.413 -0.1425 -0.4400  0.6355
  662MOL0     N89252   9.321   9.749   8.518  0.9084  0.1858  0.6366
  662MOL0     C89253   9.264   9.623   8.513 -0.0761  0.1018  0.6445
  662MOL0     C89254   9.190   9.609   8.627  0.1043 -0.2795 -0.5274
  662MOL0     C89255   9.135   9.484   8.675 -0.0155 -0.5447 -0.6126
  662MOL0     C89256   8.994   9.477   8.626 -0.3971  0.7325  0.2750
  662MOL0     C89257   8.917   9.356   8.687 -0.5662  0.4247  0.4599
  662MOL0     C89258   8.780   9.332   8.612  0.3755 -0.3493 -0.6666
  662MOL0     O89259   8.696   9.446   8.648 -0.4664 -0.6261 -0.2966
  662MOL0     C89260   8.574   9.402   8.704 -1.3534  0.3177 -0.4666
  662MOL0     C89261   8.474   9.332   8.637  0.4494 -0.3909  0.8355
  662MOL0     C89262   8.351   9.291   8.701  0.4556 -0.9115 -0.5890
  662MOL0     C89263   8.248   9.233   8.616  0.0449 -0.3919 -0.2401
  662MOL0     C89264   8.339   9.326   8.837  0.1592  0.4926  0.0088
  662MOL0     C89265   8.224   9.285   8.913  0.3945 -0.1397  0.0188
  662MOL0     O89266   8.224   9.156   8.947 -0.7408  0.1134  0.5342
  662MOL0     C89267   8.113   9.093   8.998  0.2053 -0.6255 -0.0378
  662MOL0     C89268   8.150   8.975   9.054  0.5088  0.3623  0.4911
  662MOL0     C89269   8.047   8.879   9.077  0.9694  1.0126  0.0005
  662MOL0     C89270   7.916   8.913   9.049  0.5365  0.1785 -0.6322
  662MOL0     O89271   7.820   8.812   9.061  0.0333  0.0445  0.4412
  662MOL0     C89272   7.694   8.840   9.009 -0.2131  0.8159  0.1588
  662MOL0     C89273   7.604   8.726   9.057  0.3648 -0.0872 -0.0194
  662MOL0     C89274   7.464   8.772   9.040  0.5184  0.3882 -0.2244
  662MOL0     C89275   7.374   8.657   9.098  0.1241 -0.2840 -0.6575
  662MOL0     C89276   7.231   8.707   9.077  0.0409  0.7037 -0.0879
  662MOL0     C89277   7.138   8.634   9.171 -0.0676 -0.4697 -0.2168
  662MOL0     C89278   7.004   8.689   9.172  0.4368 -0.4859  0.0428
  662MOL0     C89279   6.904   8.616   9.252  0.4212 -1.0629 -0.2891
  662MOL0    Cl89280   6.958   8.562   9.410  0.4182  0.0615  0.3809
  662MOL0     C89281   7.883   9.039   8.994 -0.2879 -0.5783  0.5945
  662MOL0     C89282   7.983   9.131   8.971 -0.1459  0.4253 -0.5589
  662MOL0     O89283   8.149   9.373   8.955 -0.1341  0.2818 -0.5791
  662MOL0     C89284   8.440   9.399   8.905  0.0152  0.1880  0.1522
  662MOL0     C89285   8.559   9.431   8.838 -0.0685 -0.3697  0.3780
  662MOL0     N89286   9.203   9.733   8.695 -0.0706 -0.6127  0.8439
  662MOL0     N89287   9.275   9.813   8.624 -0.3106 -0.1869 -0.0804
  662MOL0     C89288  10.064   9.342   8.582  0.2933  0.9087  0.0728
  662MOL0     C89289  10.172   9.260   8.548  0.6095  0.0564  0.6933
  662MOL0     C89290  10.480   8.947   8.560 -0.0890  0.8577 -0.1396
  662MOL0     C89291  10.518   8.859   8.469 -0.3467 -0.3824 -0.3272
  662MOL0     C89292  10.622   8.770   8.487 -0.3493 -0.7037 -0.2205
  662MOL0     C89293  10.688   8.763   8.604 -0.0441  0.5735 -0.8637
  662MOL0     O89294  10.788   8.670   8.628  0.4024  0.5038 -0.4112
  662MOL0     C89295  10.928   8.712   8.635 -0.8375  0.8306  0.1366
  662MOL0     C89296  11.012   8.588   8.648  0.2367  0.1631 -0.3323
  662MOL0     C89297  11.153   8.636   8.669  1.1442 -0.2712 -0.1929
  662MOL0     C89298  11.241   8.532   8.738  0.4981  0.1466 -0.3178
  662MOL0     C89299  11.378   8.576   8.764 -0.5791 -0.4775 -0.3091
  662MOL0     C89300  11.495   8.602   8.787 -0.2085  0.5163  0.4576
  662MOL0     C89301  10.660   8.857   8.703 -0.6821 -0.0363  0.5524
  662MOL0     C89302  10.560   8.950   8.679  0.1648 -0.4480 -0.4805
  662MOL0     H89303  10.190   9.117   8.860  2.1145 -1.3261 -0.2326
  662MOL0     H89304   9.973   9.253   8.889 -1.4317 -1.0421 -1.2253
  662MOL0     H89305   9.795   9.369   8.895  0.8353 -0.9884 -0.1735
  662MOL0     H89306   9.904   9.509   8.907 -1.2532  1.2496 -0.0460
  662MOL0     H89307   9.626   9.502   8.782  1.0038  0.4662 -1.5131
  662MOL0     H89308   9.684   9.588   8.925 -1.9640 -1.1335 -0.4389
  662MOL0     H89309   9.821   9.729   8.767  1.1429 -1.8136 -1.3427
  662MOL0     H89310   9.763   9.636   8.628 -0.3545  3.5081 -1.2448
  662MOL0     H89311   9.535   9.689   8.677 -0.7830  1.2408 -1.7100
  662MOL0     H89312   9.580   9.776   8.825  0.7645 -1.1246  0.9298
  662MOL0     H89313   9.522   9.922   8.667 -0.0581 -1.2728  1.8651
  662MOL0     H89314   9.701   9.932   8.682 -1.6927  1.3654  2.2929
  662MOL0     H89315   9.637   9.946   8.443 -1.0589  0.9290 -0.9298
  662MOL0     H89316   9.729   9.801   8.460 -0.7991 -1.7196 -0.9576
  662MOL0     H89317   9.579   9.748   8.312  1.3610  1.0070  0.4285
  662MOL0     H89318   9.544   9.650   8.451 -0.1623  0.9710  2.9802
  662MOL0     H89319   9.330   9.788   8.325 -3.8372 -1.4998  3.2071
  662MOL0     H89320   9.390   9.920   8.424 -2.5727 -0.3323 -0.0087
  662MOL0     H89321   9.272   9.548   8.436 -0.4034  0.8175 -0.0991
  662MOL0     H89322   9.188   9.405   8.623 -3.4754 -1.7117 -2.7254
  662MOL0     H89323   9.137   9.475   8.784  0.3508 -0.9986 -0.6553
  662MOL0     H89324   8.988   9.478   8.517  1.0411 -2.8325  0.0271
  662MOL0     H89325   8.943   9.570   8.650  0.5756  1.7695 -1.4805
  662MOL0     H89326   8.887   9.380   8.789  0.7930  0.7606  0.7995
  662MOL0     H89327   8.965   9.258   8.683 -0.6685  0.3980 -0.3087
  662MOL0     H89328   8.735   9.243   8.655 -0.7114  1.1485  1.4818
  662MOL0     H89329   8.787   9.327   8.503  1.3308 -0.5801 -0.6054
  662MOL0     H89330   8.485   9.339   8.529 -0.5246  0.3935  0.7696
  662MOL0     H89331   8.150   9.281   8.625  1.3236  2.0695  1.7303
  662MOL0     H89332   8.276   9.244   8.511 -1.6691 -1.5996 -0.8748
  662MOL0     H89333   8.242   9.127   8.642  0.6323 -0.3237  0.2022
  662MOL0     H89334   8.256   8.962   9.068  1.3004  1.4296 -3.3098
  662MOL0     H89335   8.069   8.779   9.114 -0.2758  1.5051  2.3015
  662MOL0     H89336   7.656   8.934   9.051  2.4051  0.9600  2.4566
  662MOL0     H89337   7.688   8.835   8.900 -0.4585  2.1263  0.0949
  662MOL0     H89338   7.622   8.638   8.996 -0.0227  0.3354 -0.7634
  662MOL0     H89339   7.628   8.707   9.162 -0.8589  2.6889  0.8611
  662MOL0     H89340   7.440   8.785   8.935  1.7035 -0.8994 -0.6796
  662MOL0     H89341   7.447   8.864   9.097  0.9035 -0.8844  2.1195
  662MOL0     H89342   7.384   8.558   9.051 -0.4051 -0.1637 -1.0295
  662MOL0     H89343   7.408   8.649   9.201 -1.0715 -0.3265 -0.2504
  662MOL0     H89344   7.203   8.683   8.974 -1.4701  3.1395 -0.3315
  662MOL0     H89345   7.218   8.816   9.083  2.5034  1.3318 -3.2468
  662MOL0     H89346   7.135   8.526   9.153 -5.4592 -0.9747  1.8900
  662MOL0     H89347   7.183   8.654   9.269 -0.7597 -0.7129  0.1523
  662MOL0     H89348   6.969   8.680   9.069 -1.9590  2.4989  0.4530
  662MOL0     H89349   7.017   8.795   9.194  0.0541 -0.4076 -0.1191
  662MOL0     H89350   6.879   8.523   9.202  2.5858 -2.0112  0.2745
  662MOL0     H89351   6.811   8.675   9.254  0.3430 -1.1618 -0.9298
  662MOL0     H89352   7.783   9.074   8.973  0.1699  1.3204  1.3722
  662MOL0     H89353   7.960   9.231   8.935  0.0149  2.4931  4.3705
  662MOL0     H89354   8.435   9.411   9.013  1.2920 -1.3425  0.4233
  662MOL0     H89355   8.643   9.485   8.883  1.4189  1.2691 -3.8372
  662MOL0     H89356  10.008   9.395   8.506 -3.5867 -0.9092  1.3986
  662MOL0     H89357  10.217   9.255   8.449  0.2118 -1.7960  0.5692
  662MOL0     H89358  10.454   8.856   8.381 -1.2398 -1.6405  0.3410
  662MOL0     H89359  10.657   8.708   8.404 -0.7084  2.5514 -3.0311
  662MOL0     H89360  10.937   8.772   8.544 -3.0928  0.2229 -0.5448
  662MOL0     H89361  10.949   8.780   8.719 -1.3324 -1.9198  2.6425
  662MOL0     H89362  10.991   8.545   8.550 -2.5207  1.3578 -0.3583
  662MOL0     H89363  10.971   8.529   8.730 -1.3422 -1.0426 -1.9223
  662MOL0     H89364  11.152   8.719   8.740 -0.6393 -2.2191  2.2104
  662MOL0     H89365  11.177   8.663   8.565  2.1113  0.3713  0.1768
  662MOL0     H89366  11.242   8.452   8.664 -0.8107 -0.7580  0.5930
  662MOL0     H89367  11.204   8.509   8.838 -1.7888  0.1034 -1.1310
  662MOL0     H89368  11.600   8.625   8.793 -0.1726  0.1411  1.3614
  662MOL0     H89369  10.706   8.853   8.802 -2.0709  1.1776  1.2884
  662MOL0     H89370  10.537   9.030   8.748  0.0455 -1.1729  0.3277
  663MOL0     O89371   2.415  10.153   0.297  0.0478  0.1200  0.0246
  663MOL0     C89372   2.498  10.068   0.269  0.6668  0.0626 -0.3911
  663MOL0     O89373   2.470   9.930   0.261 -0.2373  0.2037  0.5827
  663MOL0     C89374   2.342   9.893   0.261  0.3729  0.5111  0.1697
  663MOL0     C89375   2.312   9.801   0.364 -0.5061 -0.6970  0.3206
  663MOL0     C89376   2.180   9.764   0.388 -0.2597  0.2840 -0.5976
  663MOL0     C89377   2.082   9.813   0.295 -0.5453 -0.2526  0.5847
  663MOL0     O89378   1.953   9.788   0.314 -0.0217 -0.2533 -0.0686
  663MOL0     C89379   1.919   9.665   0.389  0.2456  0.0533 -0.2498
  663MOL0     C89380   1.769   9.636   0.390  0.1402 -1.2278  0.3336
  663MOL0     C89381   1.684   9.725   0.481 -0.9022  0.2181  0.2444
  663MOL0     C89382   1.536   9.709   0.447  0.1909 -0.6276  0.2643
  663MOL0     C89383   1.436   9.780   0.543 -0.0513 -0.2301  0.2317
  663MOL0     C89384   1.443   9.936   0.541 -0.3521 -0.9813 -0.0367
  663MOL0     C89385   1.333   9.995   0.624 -0.0838 -0.4799 -0.1190
  663MOL0     C89386   1.327  10.144   0.613  0.4038  0.2913 -0.3395
  663MOL0     N89387   1.213  10.219   0.665 -0.1509 -0.4541 -0.1624
  663MOL0     C89388   1.140  10.321   0.607 -0.2708 -0.2979  1.3309
  663MOL0     C89389   1.018  10.332   0.672 -0.7128 -0.2211 -0.6690
  663MOL0     C89390   0.902  10.432   0.645 -0.2027  0.2515  0.2904
  663MOL0     C89391   0.924  10.528   0.525  0.3514  0.2427  0.4618
  663MOL0     C89392   0.816  10.637   0.509 -0.6034  0.4586  0.4723
  663MOL0     C89393   0.690  10.567   0.478  0.5391 -0.0728 -0.2151
  663MOL0     O89394   0.600  10.670   0.439 -0.4616 -0.5592  0.1005
  663MOL0     C89395   0.469  10.647   0.457  0.1968  0.3258  0.1264
  663MOL0     C89396   0.400  10.521   0.467  0.2268  0.1366 -0.9854
  663MOL0     C89397   0.264  10.508   0.490 -0.5627  0.0500 -0.0950
  663MOL0     C89398   0.205  10.377   0.497  0.4268 -0.3100  0.1006
  663MOL0     C89399   0.187  10.629   0.487 -0.2071  0.3954  0.7979
  663MOL0     C89400   0.043  10.638   0.522 -0.6194 -0.3995  0.0128
  663MOL0     O89401   0.001  10.549   0.619  0.1753  0.6575  0.0286
  663MOL0     C89402  -0.125  10.528   0.656  0.1039 -0.6703 -0.1204
  663MOL0     C89403  -0.201  10.429   0.594  0.6136  0.2405  0.2174
  663MOL0     C89404  -0.341  10.410   0.634 -0.9997  0.5108  0.2455
  663MOL0     C89405  -0.380  10.469   0.760  0.3308 -0.3538 -0.0776
  663MOL0     O89406  -0.495  10.436   0.828  0.9775 -0.0264  0.6643
  663MOL0     C89407  -0.619  10.430   0.753 -0.2084  0.0337 -0.8455
  663MOL0     C89408  -0.743  10.479   0.831 -0.0676  0.2934 -1.2999
  663MOL0     C89409  -0.759  10.382   0.958  0.2135  0.3237  0.1703
  663MOL0     C89410  -0.861  10.451   1.054  0.1548  0.7096 -0.0103
  663MOL0     C89411  -0.911  10.353   1.155  0.6680  0.0299  0.2006
  663MOL0     C89412  -1.019  10.413   1.244 -0.0447  0.4111 -0.3301
  663MOL0     C89413  -1.086  10.308   1.343 -0.5949 -0.0264 -0.8417
  663MOL0     C89414  -0.993  10.275   1.458  0.1414 -0.6361 -0.7982
  663MOL0    Cl89415  -0.927  10.113   1.444  0.7800 -0.2978 -0.3018
  663MOL0     C89416  -0.292  10.557   0.822 -0.0865  0.2759 -1.6451
  663MOL0     C89417  -0.170  10.592   0.769 -0.2122  0.3881  0.1690
  663MOL0     O89418  -0.031  10.723   0.466 -0.1952 -0.1057 -0.4800
  663MOL0     C89419   0.247  10.755   0.473 -0.1046 -0.8076  0.8143
  663MOL0     C89420   0.386  10.763   0.445 -0.2718  0.1011  0.0318
  663MOL0     N89421   1.019  10.240   0.777  0.3124  0.4647  0.1872
  663MOL0     N89422   1.129  10.174   0.768  0.6049  0.2623  0.4230
  663MOL0     C89423   2.108   9.897   0.183 -0.4537  0.3353 -0.5637
  663MOL0     C89424   2.242   9.935   0.168  0.4870  0.8604 -0.0674
  663MOL0     C89425   2.639  10.104   0.259  0.4358 -0.4930  0.0455
  663MOL0     C89426   2.678  10.244   0.261 -0.3211 -0.7048  0.2193
  663MOL0     C89427   2.816  10.273   0.254  0.1744 -0.0639 -1.0587
  663MOL0     C89428   2.914  10.178   0.229  0.2242  0.0510  0.1094
  663MOL0     O89429   3.051  10.195   0.225  0.6366 -0.0360 -0.2975
  663MOL0     C89430   3.095  10.326   0.238 -0.3803 -0.7948  0.0437
  663MOL0     C89431   3.245  10.327   0.197 -0.2584  0.0009 -0.2747
  663MOL0     C89432   3.318  10.467   0.206 -0.2982  0.0899 -0.9019
  663MOL0     C89433   3.460  10.484   0.137  0.7601  0.4050 -0.0201
  663MOL0     C89434   3.565  10.391   0.189  0.9784  0.8348 -0.1650
  663MOL0     C89435   3.651  10.316   0.228 -0.5701 -0.1065 -0.3155
  663MOL0     C89436   2.871  10.041   0.231  0.3362 -0.0871 -0.7814
  663MOL0     C89437   2.736  10.005   0.250  0.1339 -0.4141  0.2526
  663MOL0     H89438   2.389   9.760   0.429 -1.6308 -1.4140  1.2266
  663MOL0     H89439   2.159   9.698   0.471 -1.2617 -0.6672 -1.5636
  663MOL0     H89440   1.967   9.583   0.334  1.9708  0.6392  0.3276
  663MOL0     H89441   1.946   9.665   0.495 -1.5135 -2.2662  0.2872
  663MOL0     H89442   1.735   9.645   0.286 -1.5332  0.3762  0.9719
  663MOL0     H89443   1.747   9.534   0.422 -0.2299 -1.5685 -0.9279
  663MOL0     H89444   1.710   9.691   0.581  0.5579  1.0682  0.1879
  663MOL0     H89445   1.717   9.830   0.483  0.9795 -0.3348 -0.2978
  663MOL0     H89446   1.523   9.752   0.348  0.6028  0.5293  0.6965
  663MOL0     H89447   1.510   9.603   0.442 -1.6377 -0.1563 -2.0026
  663MOL0     H89448   1.336   9.742   0.521 -0.2074 -0.5116  1.3697
  663MOL0     H89449   1.453   9.746   0.646 -2.6975  2.2845  1.6410
  663MOL0     H89450   1.540   9.976   0.571 -0.9247 -0.1069  0.7247
  663MOL0     H89451   1.434   9.974   0.438 -0.3035  0.7864  0.5700
  663MOL0     H89452   1.236   9.950   0.599 -1.0930  1.4637  0.0980
  663MOL0     H89453   1.361   9.971   0.727 -0.9153  1.7962  0.7136
  663MOL0     H89454   1.342  10.163   0.507  1.4692  0.7624 -0.1223
  663MOL0     H89455   1.407  10.194   0.668  1.2094  0.9472 -2.0508
  663MOL0     H89456   1.148  10.376   0.513 -0.4829  1.1783  2.1483
  663MOL0     H89457   0.815  10.368   0.626 -1.1694  1.0764  1.7647
  663MOL0     H89458   0.875  10.490   0.734 -0.9859  0.8576 -0.3315
  663MOL0     H89459   0.913  10.459   0.441 -0.2217  0.6808  0.1707
  663MOL0     H89460   1.023  10.574   0.531  0.5345  0.1370 -1.3128
  663MOL0     H89461   0.847  10.698   0.423  3.0042 -0.0763  1.2248
  663MOL0     H89462   0.809  10.706   0.594  2.4891  0.4012  0.9172
  663MOL0     H89463   0.655  10.507   0.562 -1.3053  0.0440 -0.8701
  663MOL0     H89464   0.699  10.494   0.397  1.0285 -0.7367  0.4179
  663MOL0     H89465   0.450  10.428   0.440 -0.2786 -0.2190 -0.7051
  663MOL0     H89466   0.269  10.302   0.450 -0.6272 -0.7911 -0.5874
  663MOL0     H89467   0.163  10.366   0.598 -2.3684  3.0334 -0.5018
  663MOL0     H89468   0.113  10.385   0.438  1.2952  3.1386 -1.0154
  663MOL0     H89469  -0.169  10.376   0.504 -4.1473  1.1878 -2.3590
  663MOL0     H89470  -0.410  10.347   0.579 -3.5602  3.1330  0.2370
  663MOL0     H89471  -0.624  10.489   0.662 -0.4121 -1.5555 -1.9068
  663MOL0     H89472  -0.636  10.326   0.721 -1.6167 -1.2362  3.3434
  663MOL0     H89473  -0.732  10.578   0.875 -1.8376 -1.1426  3.0138
  663MOL0     H89474  -0.832  10.462   0.770  0.1416 -0.0815 -1.5030
  663MOL0     H89475  -0.663  10.368   1.009 -0.5165 -0.8421  1.3025
  663MOL0     H89476  -0.794  10.287   0.917  0.6198  0.2179  0.0574
  663MOL0     H89477  -0.820  10.539   1.104  0.0646  0.6267  0.2098
  663MOL0     H89478  -0.947  10.489   0.997  0.4210 -0.8243 -1.5268
  663MOL0     H89479  -0.818  10.331   1.209  1.5913  1.5895 -0.6455
  663MOL0     H89480  -0.947  10.265   1.102 -1.7083  1.0911 -0.0794
  663MOL0     H89481  -0.983  10.499   1.299  1.8433 -0.9556  0.7033
  663MOL0     H89482  -1.106  10.440   1.183 -1.6439 -2.6014  0.3801
  663MOL0     H89483  -1.121  10.219   1.290  1.9476 -1.5807 -0.0916
  663MOL0     H89484  -1.176  10.355   1.384  0.7060  0.3954  1.7509
  663MOL0     H89485  -1.061  10.273   1.544 -0.8777 -1.5444 -1.6020
  663MOL0     H89486  -0.909  10.344   1.472  0.4531 -1.0687 -0.5009
  663MOL0     H89487  -0.337  10.593   0.914 -3.5203 -2.2345 -2.1811
  663MOL0     H89488  -0.102  10.666   0.810  0.3746  1.0688 -1.9365
  663MOL0     H89489   0.195  10.851   0.474 -0.5187 -1.0268  0.7100
  663MOL0     H89490   0.436  10.858   0.433  0.6531  0.0158  2.6681
  663MOL0     H89491   2.025   9.929   0.121 -1.3301  0.9348  0.8470
  663MOL0     H89492   2.263  10.012   0.095 -0.3834  1.3825  0.2246
  663MOL0     H89493   2.616  10.330   0.283  0.5365 -0.4888  1.9642
  663MOL0     H89494   2.836  10.378   0.269  1.2518 -0.3204 -0.5887
  663MOL0     H89495   3.047  10.403   0.177  1.1344  0.6164  0.5606
  663MOL0     H89496   3.084  10.367   0.339 -2.6319  1.9571 -1.1730
  663MOL0     H89497   3.229  10.296   0.094 -2.8162 -1.6267  0.5260
  663MOL0     H89498   3.303  10.248   0.247 -0.7807 -0.0626  0.2466
  663MOL0     H89499   3.333  10.496   0.310  1.7342  1.3397 -1.4840
  663MOL0     H89500   3.249  10.536   0.156 -2.1742  0.2211  1.6625
  663MOL0     H89501   3.494  10.588   0.141  1.5987  0.1103  0.7068
  663MOL0     H89502   3.449  10.464   0.030 -2.1815 -0.5406  0.3774
  663MOL0     H89503   3.730  10.254   0.265  1.5134  1.8946 -1.1343
  663MOL0     H89504   2.941   9.961   0.209 -0.4673 -0.8477 -0.6493
  663MOL0     H89505   2.707   9.901   0.259  0.9902 -0.5553  1.7477
  664MOL0     O89506   5.221  11.221   0.154 -0.0975  0.3002  0.2008
  664MOL0     C89507   5.282  11.196   0.260  0.2638 -0.7394  0.4141
  664MOL0     O89508   5.233  11.155   0.381 -0.1958  0.1951 -0.3428
  664MOL0     C89509   5.102  11.125   0.395  0.4685 -0.1819  0.1777
  664MOL0     C89510   5.033  11.153   0.514 -0.1204  0.0808  0.2558
  664MOL0     C89511   4.892  11.132   0.525  0.1651 -0.3719 -0.4911
  664MOL0     C89512   4.817  11.076   0.426  0.1783 -0.3356  0.2611
  664MOL0     O89513   4.684  11.078   0.443  0.4674 -0.2571 -0.2914
  664MOL0     C89514   4.619  10.969   0.386 -0.7574 -0.2976  0.2322
  664MOL0     C89515   4.473  11.008   0.352  0.5140 -0.8727 -0.1091
  664MOL0     C89516   4.467  11.121   0.256 -0.3275 -0.9074 -0.6593
  664MOL0     C89517   4.332  11.137   0.188 -0.3554  0.1504 -0.0153
  664MOL0     C89518   4.334  11.251   0.083  0.4934 -0.5162 -0.2266
  664MOL0     C89519   4.205  11.316   0.060  0.3804  0.3514 -0.2557
  664MOL0     C89520   4.112  11.239  -0.036  0.5216  0.0028  0.6877
  664MOL0     C89521   3.965  11.290  -0.041 -0.3388  0.2819 -0.2292
  664MOL0     N89522   3.954  11.430  -0.078 -0.7858  0.4820  0.1700
  664MOL0     C89523   3.963  11.472  -0.201  0.0013 -0.2697  0.1434
  664MOL0     C89524   3.973  11.605  -0.196 -0.3463 -0.3277  0.0080
  664MOL0     C89525   3.990  11.701  -0.313  0.2266 -0.1881 -0.5495
  664MOL0     C89526   3.870  11.799  -0.352  0.0375 -0.1262 -0.5371
  664MOL0     C89527   3.770  11.710  -0.419  0.7793  0.7513 -0.6425
  664MOL0     C89528   3.636  11.791  -0.435  0.3238  0.0333 -0.7632
  664MOL0     O89529   3.654  11.905  -0.518  0.2999  0.1739  0.7795
  664MOL0     C89530   3.551  11.990  -0.547  0.3688  0.0330  0.9505
  664MOL0     C89531   3.437  12.004  -0.464 -0.5051 -0.2500  0.0243
  664MOL0     C89532   3.324  12.060  -0.521  0.1511  0.0923 -0.4815
  664MOL0     C89533   3.212  12.081  -0.416  0.0728  0.4777  0.4047
  664MOL0     C89534   3.316  12.117  -0.654 -0.4160  0.3105 -0.4393
  664MOL0     C89535   3.205  12.188  -0.718  0.3570  0.4606  0.2137
  664MOL0     O89536   3.220  12.228  -0.846 -0.0017  0.1823 -0.1619
  664MOL0     C89537   3.117  12.292  -0.909 -0.0189  0.5007 -0.6404
  664MOL0     C89538   3.019  12.216  -0.962  0.5245  0.9180 -0.5153
  664MOL0     C89539   2.903  12.276  -1.013  0.1139 -0.7151  1.0561
  664MOL0     C89540   2.889  12.416  -1.029 -0.8575  0.2394 -0.1183
  664MOL0     O89541   2.763  12.450  -1.076  0.3219 -0.2275 -1.2596
  664MOL0     C89542   2.732  12.598  -1.060 -0.0523 -0.1967  0.6991
  664MOL0     C89543   2.583  12.604  -1.079  0.1438 -1.0079  0.4011
  664MOL0     C89544   2.543  12.533  -1.204  0.1136 -1.0278 -0.1625
  664MOL0     C89545   2.417  12.589  -1.268  0.4689 -0.0493 -0.2652
  664MOL0     C89546   2.370  12.509  -1.387  0.4004  0.7698  1.1373
  664MOL0     C89547   2.231  12.555  -1.448 -0.1170  0.6568 -0.1890
  664MOL0     C89548   2.191  12.469  -1.564 -0.0637 -0.3659 -0.6058
  664MOL0     C89549   2.099  12.360  -1.513  1.0347  0.3774 -0.1253
  664MOL0    Cl89550   2.090  12.227  -1.633 -0.1839  0.0799 -0.2564
  664MOL0     C89551   2.996  12.490  -0.982  0.4522 -0.3751 -0.4063
  664MOL0     C89552   3.113  12.433  -0.914  0.2893 -0.0510 -0.5880
  664MOL0     O89553   3.107  12.213  -0.651  0.4591 -0.5049 -0.7037
  664MOL0     C89554   3.433  12.099  -0.735 -0.2936 -1.0486 -0.3555
  664MOL0     C89555   3.548  12.038  -0.684  0.1386 -0.0809 -0.8200
  664MOL0     N89556   3.957  11.644  -0.068  0.0460  0.8290  0.4840
  664MOL0     N89557   3.952  11.532   0.005 -0.1099 -0.0035  0.3170
  664MOL0     C89558   4.882  11.036   0.308  0.2824 -0.2734  0.3436
  664MOL0     C89559   5.018  11.061   0.298 -0.6920  0.1557 -0.5846
  664MOL0     C89560   5.428  11.228   0.242 -0.1985  0.6199  0.5107
  664MOL0     C89561   5.525  11.202   0.338  0.0916  0.5082  0.2711
  664MOL0     C89562   5.670  11.229   0.320  0.1584 -0.2470  0.1921
  664MOL0     C89563   5.725  11.280   0.203 -0.0671 -0.1875  0.3492
  664MOL0     O89564   5.859  11.308   0.176  0.2016 -0.0666  0.2381
  664MOL0     C89565   5.950  11.317   0.274  0.6720 -0.2728 -0.4363
  664MOL0     C89566   6.092  11.339   0.219  0.3253  0.5787  0.7817
  664MOL0     C89567   6.187  11.363   0.333  0.1547  0.8320 -0.6926
  664MOL0     C89568   6.320  11.403   0.273 -0.1583  0.3202  0.0496
  664MOL0     C89569   6.426  11.424   0.367  0.7053  0.3863 -0.3385
  664MOL0     C89570   6.506  11.452   0.451 -0.2803 -0.5379  0.7914
  664MOL0     C89571   5.622  11.307   0.110 -1.4927  0.1604  0.6246
  664MOL0     C89572   5.491  11.281   0.122 -0.5353 -0.0643  0.0257
  664MOL0     H89573   5.089  11.183   0.602 -0.3061  4.0053 -0.7847
  664MOL0     H89574   4.832  11.150   0.613  0.6627 -1.0214 -0.0023
  664MOL0     H89575   4.660  10.940   0.289  0.6697 -3.9933  1.7390
  664MOL0     H89576   4.624  10.879   0.448  2.2166 -0.6990 -0.4455
  664MOL0     H89577   4.416  10.923   0.312 -0.1338  0.6648 -2.7016
  664MOL0     H89578   4.422  11.032   0.446 -0.4964 -2.2225 -0.2671
  664MOL0     H89579   4.485  11.215   0.310 -2.7376 -0.3705 -0.6696
  664MOL0     H89580   4.543  11.109   0.178  0.6691 -1.6778  0.3846
  664MOL0     H89581   4.311  11.044   0.134  0.8458 -1.5825  2.2937
  664MOL0     H89582   4.253  11.158   0.261 -1.1180 -4.2528  0.7066
  664MOL0     H89583   4.403  11.334   0.101  0.6649 -0.2920 -1.8294
  664MOL0     H89584   4.362  11.208  -0.013 -2.6649 -0.2265 -1.4150
  664MOL0     H89585   4.157  11.323   0.158 -0.8932 -2.9294 -0.5500
  664MOL0     H89586   4.227  11.416   0.021 -0.2498  0.6905  0.2499
  664MOL0     H89587   4.152  11.242  -0.138 -1.0867 -2.1230 -0.0661
  664MOL0     H89588   4.114  11.130  -0.022  1.1115  0.0136  0.7164
  664MOL0     H89589   3.916  11.261   0.052  0.7711  1.0856  0.6411
  664MOL0     H89590   3.924  11.229  -0.121 -2.1301  0.5670  0.4412
  664MOL0     H89591   3.958  11.416  -0.294  0.8398  0.4217 -0.3380
  664MOL0     H89592   4.075  11.763  -0.284 -0.4118 -0.9704  3.5033
  664MOL0     H89593   4.013  11.642  -0.402  2.2364 -2.1648  1.1605
  664MOL0     H89594   3.904  11.877  -0.420  1.0836 -0.1058 -0.0148
  664MOL0     H89595   3.826  11.853  -0.267 -1.2577  0.7844 -1.7438
  664MOL0     H89596   3.749  11.628  -0.350  0.0945  2.5353  1.3550
  664MOL0     H89597   3.800  11.686  -0.522  0.2976 -1.3838 -0.3408
  664MOL0     H89598   3.610  11.829  -0.335 -0.9490  0.1414 -1.1201
  664MOL0     H89599   3.557  11.725  -0.470  0.8075 -0.8945 -0.1302
  664MOL0     H89600   3.432  11.962  -0.365 -0.9411 -2.2635 -0.8154
  664MOL0     H89601   3.130  12.016  -0.447 -0.4023  0.7683  1.0178
  664MOL0     H89602   3.231  12.054  -0.311  3.1568  1.1506  0.1185
  664MOL0     H89603   3.171  12.182  -0.419 -1.6863 -0.2241 -1.3704
  664MOL0     H89604   3.015  12.107  -0.958 -3.2443  0.7767 -3.0853
  664MOL0     H89605   2.816  12.221  -1.048 -0.4001  1.4131 -1.2893
  664MOL0     H89606   2.756  12.645  -0.965 -0.5647  2.2664 -0.3132
  664MOL0     H89607   2.789  12.651  -1.137 -1.2549  0.9262  0.5583
  664MOL0     H89608   2.538  12.556  -0.992  2.0425 -0.2387  1.8780
  664MOL0     H89609   2.566  12.711  -1.095  1.0242 -1.2759 -3.3190
  664MOL0     H89610   2.515  12.431  -1.174 -2.6632  0.1201  1.5321
  664MOL0     H89611   2.626  12.531  -1.275  0.3558 -1.3647  0.1255
  664MOL0     H89612   2.343  12.592  -1.188  0.9658  0.6527  0.1835
  664MOL0     H89613   2.418  12.694  -1.299  2.5740 -0.2260 -0.9595
  664MOL0     H89614   2.360  12.402  -1.366 -1.5024 -0.8377 -5.7223
  664MOL0     H89615   2.444  12.510  -1.467 -1.8324  1.0508 -1.0239
  664MOL0     H89616   2.158  12.544  -1.368 -1.6396 -4.2082 -1.8702
  664MOL0     H89617   2.241  12.661  -1.474  2.8735  0.7256  0.9223
  664MOL0     H89618   2.282  12.442  -1.618  1.0350  3.4156 -0.8976
  664MOL0     H89619   2.136  12.530  -1.636 -3.1524 -2.1586  0.0391
  664MOL0     H89620   1.997  12.389  -1.484  0.6765 -2.1314  1.4792
  664MOL0     H89621   2.156  12.315  -1.431 -0.9537 -0.3557  0.9388
  664MOL0     H89622   2.994  12.598  -0.983  1.5043 -0.3422 -0.3597
  664MOL0     H89623   3.199  12.490  -0.882 -0.2145 -0.2433  1.2289
  664MOL0     H89624   3.425  12.129  -0.839 -0.8329  1.4332  0.3276
  664MOL0     H89625   3.624  12.016  -0.758  1.4187  1.3894 -0.0035
  664MOL0     H89626   4.852  10.980   0.221 -0.0676 -0.3576  0.5165
  664MOL0     H89627   5.076  11.017   0.216  0.2458  0.7767 -0.2731
  664MOL0     H89628   5.492  11.163   0.434 -0.1028  2.5425  1.0637
  664MOL0     H89629   5.733  11.209   0.406 -1.3982 -3.3475  0.7600
  664MOL0     H89630   5.941  11.409   0.333  2.3651  0.3189 -1.0624
  664MOL0     H89631   5.945  11.235   0.347 -3.4705 -1.1335 -1.4459
  664MOL0     H89632   6.090  11.426   0.152  0.9352 -0.2910 -0.3985
  664MOL0     H89633   6.122  11.245   0.173 -0.3657 -0.0724  1.6332
  664MOL0     H89634   6.196  11.267   0.386 -1.1942  0.4632 -1.1150
  664MOL0     H89635   6.163  11.436   0.411  1.5886  2.1897 -1.4471
  664MOL0     H89636   6.312  11.500   0.224  1.9214 -0.5695 -2.2904
  664MOL0     H89637   6.349  11.336   0.192 -3.5143  0.5740 -1.5192
  664MOL0     H89638   6.561  11.458   0.543  1.8323  1.3779 -0.4898
  664MOL0     H89639   5.663  11.360   0.024 -0.0037  2.4982  2.6276
  664MOL0     H89640   5.433  11.313   0.036 -0.1874 -1.5785 -0.7986
  665MOL0     O89641   8.004   9.394   0.005 -0.5353 -0.5211 -0.1695
  665MOL0     C89642   8.025   9.425  -0.113 -0.4337 -0.4914  0.5388
  665MOL0     O89643   7.931   9.418  -0.211 -0.3364 -0.0408  0.0775
  665MOL0     C89644   7.821   9.337  -0.191 -0.5673  0.1137  0.0881
  665MOL0     C89645   7.803   9.204  -0.231  0.2856 -0.6216 -0.6451
  665MOL0     C89646   7.688   9.136  -0.194  0.4147 -0.1443  1.2126
  665MOL0     C89647   7.579   9.210  -0.132 -0.1257  0.3038  0.5868
  665MOL0     O89648   7.468   9.141  -0.098  0.5623 -0.3675 -0.1136
  665MOL0     C89649   7.369   9.193  -0.013  0.3081  0.1671 -0.2494
  665MOL0     C89650   7.241   9.101  -0.014  0.4780 -0.1423 -0.0794
  665MOL0     C89651   7.140   9.168   0.076  0.0707  0.0779  0.1513
  665MOL0     C89652   6.997   9.122   0.043  0.1439  0.2438  0.0264
  665MOL0     C89653   6.881   9.193   0.122 -0.4168  0.0937  0.2922
  665MOL0     C89654   6.747   9.155   0.065  0.2657  0.5332 -0.1276
  665MOL0     C89655   6.722   9.173  -0.092 -0.0562 -0.0002 -0.3117
  665MOL0     C89656   6.697   9.324  -0.123 -0.4436  0.5248 -0.8377
  665MOL0     N89657   6.691   9.341  -0.266  0.0426  0.2222  0.4592
  665MOL0     C89658   6.787   9.398  -0.347 -0.2636  0.3863 -0.3933
  665MOL0     C89659   6.734   9.390  -0.470 -0.5193  0.9405 -0.4639
  665MOL0     C89660   6.793   9.451  -0.590  0.3860 -0.5188 -0.3449
  665MOL0     C89661   6.927   9.397  -0.634  0.0885  1.0983 -1.1684
  665MOL0     C89662   6.955   9.405  -0.783  0.4291 -0.2611  0.4211
  665MOL0     C89663   7.097   9.360  -0.811 -0.5630 -0.1306  0.6874
  665MOL0     O89664   7.103   9.226  -0.784 -0.4065  0.2109 -0.1534
  665MOL0     C89665   7.216   9.154  -0.814  0.4737 -0.2615 -0.1481
  665MOL0     C89666   7.236   9.041  -0.740  0.3491 -0.6811 -0.2968
  665MOL0     C89667   7.351   8.967  -0.755 -0.9260  0.4433 -0.4991
  665MOL0     C89668   7.352   8.842  -0.671 -0.0658  0.2525 -0.6935
  665MOL0     C89669   7.462   9.000  -0.836 -0.2062 -0.7394 -0.3079
  665MOL0     C89670   7.597   8.931  -0.850 -0.3361 -0.1755 -0.6253
  665MOL0     O89671   7.677   8.964  -0.956  0.4997  0.4925 -0.3034
  665MOL0     C89672   7.808   8.928  -0.953 -0.3101  1.0596  0.0263
  665MOL0     C89673   7.841   8.820  -1.035 -0.1938 -0.0247  0.7176
  665MOL0     C89674   7.969   8.768  -1.028 -0.0540  0.9208  0.9767
  665MOL0     C89675   8.071   8.822  -0.953  0.6717 -0.1239  0.4123
  665MOL0     O89676   8.194   8.765  -0.955 -0.0037 -0.8014  0.4525
  665MOL0     C89677   8.311   8.844  -0.925  0.1727 -0.5619 -0.7325
  665MOL0     C89678   8.357   8.936  -1.040  1.0863 -0.4169  0.2085
  665MOL0     C89679   8.406   8.851  -1.156 -0.1986 -0.3388  0.4015
  665MOL0     C89680   8.486   8.927  -1.258 -0.1494 -0.0327  0.3079
  665MOL0     C89681   8.496   8.851  -1.392  0.3941 -1.2540  0.5458
  665MOL0     C89682   8.546   8.943  -1.496 -0.3236  0.7551 -0.0699
  665MOL0     C89683   8.676   9.020  -1.457 -0.1087  1.1187  0.4828
  665MOL0     C89684   8.700   9.136  -1.557  0.1996  0.2714  0.7209
  665MOL0    Cl89685   8.858   9.221  -1.512 -0.3369 -0.1272  0.1134
  665MOL0     C89686   8.034   8.931  -0.867 -0.2494  0.5629 -0.9269
  665MOL0     C89687   7.903   8.984  -0.865 -0.1874  0.2839  0.4863
  665MOL0     O89688   7.644   8.867  -0.755 -0.3464 -0.1040 -0.1635
  665MOL0     C89689   7.436   9.114  -0.911 -0.0155  0.2199  0.7542
  665MOL0     C89690   7.318   9.193  -0.907 -0.0687 -0.4061  0.3018
  665MOL0     N89691   6.605   9.343  -0.465  0.4042 -0.1959  0.4465
  665MOL0     N89692   6.577   9.331  -0.342  0.5999  0.0708 -0.0844
  665MOL0     C89693   7.597   9.342  -0.106 -0.0648 -0.5111  0.5730
  665MOL0     C89694   7.717   9.407  -0.131 -0.1314  0.3199  1.2957
  665MOL0     C89695   8.157   9.471  -0.155  0.4700 -0.1071 -0.5304
  665MOL0     C89696   8.186   9.478  -0.294  0.0695 -0.1975 -0.4562
  665MOL0     C89697   8.316   9.506  -0.336  0.5699 -0.0249  0.2287
  665MOL0     C89698   8.417   9.541  -0.239  0.0320  0.2323  0.6602
  665MOL0     O89699   8.542   9.581  -0.277  0.2705 -0.5614  0.0142
  665MOL0     C89700   8.583   9.593  -0.411  0.2300 -0.2164 -0.4375
  665MOL0     C89701   8.643   9.462  -0.468 -0.1205  0.5244 -0.0104
  665MOL0     C89702   8.785   9.425  -0.422  0.5636 -0.8697 -1.1380
  665MOL0     C89703   8.850   9.340  -0.531 -0.0585  0.1105  0.1984
  665MOL0     C89704   8.963   9.276  -0.455 -0.2452 -0.8489  0.1851
  665MOL0     C89705   9.052   9.210  -0.405 -0.4908 -0.2920  0.4924
  665MOL0     C89706   8.393   9.531  -0.105  0.4382 -0.3844 -0.6191
  665MOL0     C89707   8.264   9.497  -0.057  0.1645  0.1242 -0.1037
  665MOL0     H89708   7.892   9.157  -0.272 -0.0054 -3.9147  2.0820
  665MOL0     H89709   7.686   9.028  -0.205 -2.3694 -0.2680  2.1356
  665MOL0     H89710   7.404   9.186   0.090  1.1957 -1.7638 -0.6306
  665MOL0     H89711   7.342   9.293  -0.048 -0.0324 -0.0617 -0.6564
  665MOL0     H89712   7.200   9.093  -0.115 -2.7879 -1.0741  1.1764
  665MOL0     H89713   7.265   9.001   0.024 -0.3858 -0.4235 -0.2610
  665MOL0     H89714   7.168   9.157   0.181  0.7172  6.1228  0.9583
  665MOL0     H89715   7.140   9.277   0.061 -0.9869 -0.1949 -2.2786
  665MOL0     H89716   6.984   9.146  -0.063 -0.4528 -2.2334 -0.5457
  665MOL0     H89717   6.990   9.014   0.059  0.1276  0.0342 -1.3138
  665MOL0     H89718   6.881   9.163   0.228 -1.3940 -0.9214  0.0292
  665MOL0     H89719   6.883   9.302   0.134 -0.2212  0.0414  0.7684
  665MOL0     H89720   6.727   9.050   0.089 -1.2710  0.5976 -0.9683
  665MOL0     H89721   6.673   9.215   0.120  0.0854 -0.0106  0.2360
  665MOL0     H89722   6.803   9.135  -0.155  1.2021 -0.1551  1.3165
  665MOL0     H89723   6.639   9.106  -0.116  0.6853 -0.7283 -0.8948
  665MOL0     H89724   6.782   9.384  -0.092 -0.6462  1.6749 -2.3881
  665MOL0     H89725   6.608   9.367  -0.075 -0.2814 -0.0873  0.0415
  665MOL0     H89726   6.881   9.447  -0.324 -1.0733  3.0317 -2.2090
  665MOL0     H89727   6.726   9.437  -0.676 -1.0004 -0.6067  0.7046
  665MOL0     H89728   6.794   9.559  -0.573  0.7026 -0.6648  0.6324
  665MOL0     H89729   6.946   9.298  -0.589  4.2008  3.3602  2.9494
  665MOL0     H89730   7.005   9.451  -0.580 -0.2013 -0.1978  0.6786
  665MOL0     H89731   6.942   9.508  -0.816  0.8044  0.1097  1.4039
  665MOL0     H89732   6.880   9.346  -0.837  1.7111 -1.1968 -0.3968
  665MOL0     H89733   7.169   9.405  -0.742 -2.1472  1.4164  1.3864
  665MOL0     H89734   7.126   9.379  -0.915 -0.4070  0.9780  0.9199
  665MOL0     H89735   7.155   9.025  -0.669  0.9564  0.9591  0.8259
  665MOL0     H89736   7.366   8.756  -0.737 -1.6624 -1.3204  0.9136
  665MOL0     H89737   7.431   8.845  -0.595 -0.3562 -3.4742 -0.0914
  665MOL0     H89738   7.251   8.823  -0.635 -0.5408  3.8502  0.2843
  665MOL0     H89739   7.773   8.789  -1.113 -1.8045  2.2614  1.1271
  665MOL0     H89740   7.991   8.675  -1.080  0.1170  0.6097  1.5844
  665MOL0     H89741   8.297   8.904  -0.835 -0.7305  0.1602 -1.3444
  665MOL0     H89742   8.385   8.771  -0.891 -1.9161 -2.2283  0.5098
  665MOL0     H89743   8.280   9.006  -1.073  1.9795  0.6305  0.3104
  665MOL0     H89744   8.446   8.990  -1.008  1.2138 -2.1760  3.1303
  665MOL0     H89745   8.328   8.788  -1.200 -0.3583 -0.1638  0.4323
  665MOL0     H89746   8.474   8.776  -1.115  0.4960 -0.9639 -1.7405
  665MOL0     H89747   8.429   9.018  -1.279 -0.4858 -0.7011 -1.9358
  665MOL0     H89748   8.579   8.953  -1.205 -0.0770 -0.8872  0.6239
  665MOL0     H89749   8.400   8.808  -1.421  1.3380 -3.4204  0.4362
  665MOL0     H89750   8.560   8.762  -1.381 -1.9641 -3.3411 -1.4306
  665MOL0     H89751   8.575   8.880  -1.581 -0.2449 -0.0502  0.5372
  665MOL0     H89752   8.467   9.015  -1.516  0.6742  1.7625 -0.4929
  665MOL0     H89753   8.763   8.953  -1.461 -0.7713  0.2855 -0.6262
  665MOL0     H89754   8.660   9.076  -1.364 -4.8976  1.0563 -0.0574
  665MOL0     H89755   8.609   9.197  -1.568  1.1196  1.4008 -1.0031
  665MOL0     H89756   8.726   9.095  -1.655 -0.4204  1.5357 -0.0085
  665MOL0     H89757   8.104   8.973  -0.796 -0.3339 -1.3428  0.3669
  665MOL0     H89758   7.876   9.068  -0.801 -2.3323 -1.8672  2.5949
  665MOL0     H89759   7.514   9.147  -0.980  0.8434 -1.5206  0.8620
  665MOL0     H89760   7.312   9.270  -0.984 -1.5043 -1.6847 -0.9327
  665MOL0     H89761   7.525   9.406  -0.056 -1.0684  1.6363 -3.1910
  665MOL0     H89762   7.735   9.510  -0.102 -0.5629  0.7621  0.0613
  665MOL0     H89763   8.106   9.452  -0.362 -2.4678  1.1722  1.7938
  665MOL0     H89764   8.334   9.491  -0.442 -0.4549 -2.1077  0.3146
  665MOL0     H89765   8.505   9.623  -0.481 -0.8693 -0.6243  0.5869
  665MOL0     H89766   8.668   9.660  -0.425 -0.5697  0.8405 -0.3518
  665MOL0     H89767   8.639   9.478  -0.576  0.9825  1.2770  0.0396
  665MOL0     H89768   8.568   9.385  -0.449 -0.2581  0.5139 -0.6024
  665MOL0     H89769   8.770   9.365  -0.332 -4.6272  0.8533 -0.4783
  665MOL0     H89770   8.843   9.511  -0.389 -0.2143 -0.9495  0.5338
  665MOL0     H89771   8.885   9.399  -0.616  0.6192 -0.7942 -0.1705
  665MOL0     H89772   8.781   9.258  -0.556  1.2190 -1.2267  0.9200
  665MOL0     H89773   9.124   9.151  -0.353  1.2074 -1.4447 -2.8330
  665MOL0     H89774   8.471   9.555  -0.033 -0.9686 -0.3673  0.9525
  665MOL0     H89775   8.251   9.478   0.049 -2.0269 -0.1586 -0.3693
  666MOL0     O89776  10.403  10.664   2.999  0.3064  0.6743  0.2458
  666MOL0     C89777  10.479  10.714   3.082 -0.1927 -0.4702  0.1570
  666MOL0     O89778  10.452  10.829   3.153 -0.0278 -0.4282  0.1411
  666MOL0     C89779  10.324  10.880   3.170  0.4470  0.4867 -1.1130
  666MOL0     C89780  10.314  11.020   3.164  0.3628 -0.0460 -0.3305
  666MOL0     C89781  10.202  11.093   3.176  0.5725  0.1658  0.7312
  666MOL0     C89782  10.078  11.018   3.206 -0.1404  0.6635  0.2834
  666MOL0     O89783   9.975  11.086   3.240 -0.7126  0.4933 -0.4172
  666MOL0     C89784   9.879  11.017   3.330  0.2531  0.5025 -0.5038
  666MOL0     C89785   9.808  11.126   3.409  0.0656  0.4775  0.1463
  666MOL0     C89786   9.744  11.240   3.337  1.1271 -0.0354  0.2349
  666MOL0     C89787   9.644  11.312   3.430  0.5511  0.4267  0.0818
  666MOL0     C89788   9.604  11.451   3.377  0.9800  0.9039 -0.2297
  666MOL0     C89789   9.537  11.524   3.497  0.8627 -0.1438 -0.4866
  666MOL0     C89790   9.400  11.475   3.531 -0.4316 -0.2952  0.1820
  666MOL0     C89791   9.311  11.587   3.594 -0.2092 -0.1944 -0.4792
  666MOL0     N89792   9.366  11.634   3.729  0.4429 -0.3506 -0.0705
  666MOL0     C89793   9.451  11.740   3.741  0.2270 -0.8678  0.7199
  666MOL0     C89794   9.457  11.750   3.879  0.5225 -0.5548 -0.1367
  666MOL0     C89795   9.525  11.865   3.948  0.5795  0.7372  0.0607
  666MOL0     C89796   9.442  11.937   4.055 -0.1515 -1.2888  0.7354
  666MOL0     C89797   9.329  12.035   3.993 -0.2668 -0.4687  0.2460
  666MOL0     C89798   9.382  12.153   3.909 -0.0087 -0.2487 -0.6774
  666MOL0     O89799   9.285  12.252   3.864 -0.9887  0.7527 -0.5081
  666MOL0     C89800   9.204  12.221   3.757 -0.1735 -0.0834 -0.1606
  666MOL0     C89801   9.223  12.137   3.652  0.1246  0.7494 -0.1530
  666MOL0     C89802   9.135  12.133   3.542  0.3102  1.2145  0.6414
  666MOL0     C89803   9.157  12.008   3.455  0.4183  0.0736  0.7499
  666MOL0     C89804   9.039  12.241   3.524  0.5739 -0.5004  0.5064
  666MOL0     C89805   8.950  12.266   3.399 -0.4010 -0.1055  0.1496
  666MOL0     O89806   8.875  12.378   3.398  0.0871 -0.4296 -0.5966
  666MOL0     C89807   8.776  12.382   3.301  0.2649 -0.6826  0.5868
  666MOL0     C89808   8.648  12.327   3.327 -0.0297  0.3741  0.0636
  666MOL0     C89809   8.537  12.347   3.238 -0.3579 -0.8329  0.0054
  666MOL0     C89810   8.551  12.443   3.131  0.5856  0.0352  0.3812
  666MOL0     O89811   8.439  12.463   3.053  0.7995 -0.0852 -0.1795
  666MOL0     C89812   8.454  12.535   2.930 -0.4700 -0.1339  0.2718
  666MOL0     C89813   8.324  12.518   2.850 -0.5738 -0.7497 -0.9975
  666MOL0     C89814   8.338  12.606   2.718  0.1164 -0.1032 -0.4660
  666MOL0     C89815   8.215  12.568   2.625  1.0315 -0.1267  0.0011
  666MOL0     C89816   8.179  12.684   2.544 -0.3894  0.6571  0.2310
  666MOL0     C89817   8.289  12.731   2.445 -0.6303 -0.2116  0.4464
  666MOL0     C89818   8.300  12.649   2.315 -0.1740  0.2251 -1.1238
  666MOL0     C89819   8.167  12.629   2.239 -0.7176 -0.3867 -0.4133
  666MOL0    Cl89820   8.079  12.788   2.215  0.4384 -0.1790  0.1456
  666MOL0     C89821   8.676  12.493   3.105 -0.1599  0.0651 -0.1005
  666MOL0     C89822   8.784  12.462   3.190  0.5744 -0.2467  0.4667
  666MOL0     O89823   8.967  12.182   3.307 -0.3549  0.3584 -0.5031
  666MOL0     C89824   9.029  12.334   3.630  0.2299 -0.4147 -0.2280
  666MOL0     C89825   9.112  12.328   3.742  0.2888  0.2197 -0.1564
  666MOL0     N89826   9.391  11.654   3.946  0.1427 -0.6654 -0.8486
  666MOL0     N89827   9.329  11.589   3.855  0.2811 -0.3139 -0.3697
  666MOL0     C89828  10.082  10.872   3.212 -0.3031 -0.0493  1.1960
  666MOL0     C89829  10.205  10.804   3.189  0.3758 -1.0999  0.0876
  666MOL0     C89830  10.599  10.645   3.126  0.1875  0.2363  0.0314
  666MOL0     C89831  10.650  10.528   3.059  0.0755 -0.2097 -0.4817
  666MOL0     C89832  10.766  10.461   3.101  0.9242 -0.1861  0.0341
  666MOL0     C89833  10.840  10.514   3.206 -0.5942  0.0767  0.1270
  666MOL0     O89834  10.956  10.456   3.235 -0.6965 -0.3118 -0.4204
  666MOL0     C89835  11.074  10.499   3.170 -0.1599  0.3327 -0.5610
  666MOL0     C89836  11.181  10.452   3.269 -0.0945 -0.1521 -0.3447
  666MOL0     C89837  11.330  10.491   3.225 -0.1066  0.0856 -0.2843
  666MOL0     C89838  11.429  10.435   3.341  0.3945 -0.4869 -0.2925
  666MOL0     C89839  11.429  10.514   3.466 -0.2121 -0.0003  0.0874
  666MOL0     C89840  11.436  10.584   3.571  0.4110  0.2169  1.0239
  666MOL0     C89841  10.790  10.625   3.271 -0.0534 -0.6026  0.0049
  666MOL0     C89842  10.668  10.689   3.239 -0.0816 -0.5789  1.3276
  666MOL0     H89843  10.396  11.089   3.148 -1.8327  3.0881  0.8439
  666MOL0     H89844  10.195  11.201   3.182  0.0769  0.2268 -0.6098
  666MOL0     H89845   9.802  10.955   3.283  0.2227 -0.4477  0.7408
  666MOL0     H89846   9.926  10.953   3.405  0.8013  1.3075 -0.1413
  666MOL0     H89847   9.732  11.084   3.476 -0.4309 -0.5366 -1.0118
  666MOL0     H89848   9.888  11.184   3.456 -2.1087  4.4667 -0.5809
  666MOL0     H89849   9.829  11.304   3.311  2.4002 -0.6439  2.6163
  666MOL0     H89850   9.687  11.216   3.247  1.3751  1.6957 -0.4287
  666MOL0     H89851   9.556  11.246   3.435  0.9017  0.0700  2.3680
  666MOL0     H89852   9.687  11.324   3.530  1.3666 -1.1611 -0.0424
  666MOL0     H89853   9.691  11.514   3.357  0.8621  1.2884  0.4556
  666MOL0     H89854   9.544  11.442   3.285  0.8821 -1.6058  0.0009
  666MOL0     H89855   9.603  11.523   3.584  0.8999 -2.5846 -0.4790
  666MOL0     H89856   9.522  11.629   3.468  0.2058 -0.1822 -0.3146
  666MOL0     H89857   9.344  11.425   3.451  0.0327  1.2629 -1.1672
  666MOL0     H89858   9.424  11.396   3.603  1.7954  0.5629  0.4425
  666MOL0     H89859   9.215  11.544   3.624  1.0276 -1.5624  1.7733
  666MOL0     H89860   9.297  11.669   3.522 -0.1404 -2.0723 -2.7660
  666MOL0     H89861   9.514  11.792   3.669 -2.5945  0.2969 -1.0761
  666MOL0     H89862   9.616  11.831   3.999 -0.6491  1.2692  2.8133
  666MOL0     H89863   9.557  11.932   3.868 -1.0946  0.5058 -0.8551
  666MOL0     H89864   9.514  11.988   4.120  0.8947 -2.2529  0.3617
  666MOL0     H89865   9.389  11.867   4.120 -1.3301 -1.2717 -0.1661
  666MOL0     H89866   9.273  12.068   4.081  0.6536 -2.0215  1.4566
  666MOL0     H89867   9.259  11.971   3.938 -1.7729  1.9536 -0.8503
  666MOL0     H89868   9.435  12.116   3.821 -0.3430 -1.6460 -0.3144
  666MOL0     H89869   9.452  12.207   3.973  0.4802 -1.6055 -0.0305
  666MOL0     H89870   9.295  12.057   3.664 -0.2439  0.6549  1.6940
  666MOL0     H89871   9.155  12.032   3.348  4.1611 -1.4243  0.1616
  666MOL0     H89872   9.250  11.952   3.473 -1.2391 -2.7997  1.0483
  666MOL0     H89873   9.078  11.937   3.480  1.8083 -1.6281  0.5476
  666MOL0     H89874   8.632  12.262   3.412 -1.2032  1.1842  0.4870
  666MOL0     H89875   8.440  12.313   3.270 -1.4997  3.4124  1.8007
  666MOL0     H89876   8.463  12.642   2.948 -0.0956 -0.0906 -0.1563
  666MOL0     H89877   8.541  12.496   2.877  1.8875  2.6609  1.8330
  666MOL0     H89878   8.306  12.413   2.828  0.2804 -1.6181  2.0003
  666MOL0     H89879   8.236  12.545   2.909  0.7765 -1.0041  1.2394
  666MOL0     H89880   8.422  12.578   2.654  0.1974 -2.5004  0.5755
  666MOL0     H89881   8.338  12.710   2.751  0.5925 -0.3493  0.3147
  666MOL0     H89882   8.239  12.484   2.558 -1.0197 -1.6852  1.0832
  666MOL0     H89883   8.130  12.534   2.685 -0.7194  2.6286 -0.7389
  666MOL0     H89884   8.145  12.765   2.609 -2.1885  0.0196  0.1456
  666MOL0     H89885   8.093  12.649   2.487 -0.2060 -1.0655  0.9647
  666MOL0     H89886   8.248  12.828   2.416 -1.7542 -1.0781 -1.0460
  666MOL0     H89887   8.386  12.729   2.496 -0.6497 -1.7309  0.4790
  666MOL0     H89888   8.340  12.553   2.347 -2.6097 -0.0200  1.4583
  666MOL0     H89889   8.366  12.696   2.240 -2.1324 -0.7600 -3.6292
  666MOL0     H89890   8.101  12.565   2.298 -1.2423  0.9174  0.4678
  666MOL0     H89891   8.184  12.581   2.143  1.4368 -1.1056  0.2671
  666MOL0     H89892   8.692  12.560   3.020 -0.4805  1.3026  0.7901
  666MOL0     H89893   8.881  12.497   3.157 -0.2086 -0.5658 -2.3699
  666MOL0     H89894   8.957  12.416   3.625 -2.5876 -2.6405  1.1277
  666MOL0     H89895   9.107  12.400   3.823  0.2596 -2.1245  2.0611
  666MOL0     H89896   9.997  10.808   3.234 -0.5833 -0.1784 -0.1647
  666MOL0     H89897  10.200  10.695   3.197 -0.5302 -1.0241  0.6647
  666MOL0     H89898  10.590  10.482   2.981  0.9690 -0.4170 -1.0622
  666MOL0     H89899  10.792  10.367   3.054 -0.4624 -1.4501  1.6397
  666MOL0     H89900  11.089  10.460   3.068 -2.1286  0.1700 -0.8252
  666MOL0     H89901  11.072  10.608   3.158  2.3532  0.7515  1.9356
  666MOL0     H89902  11.161  10.345   3.259 -2.5623  0.3471 -1.3897
  666MOL0     H89903  11.155  10.491   3.368  3.1601 -1.2872  1.1097
  666MOL0     H89904  11.332  10.600   3.224  0.5239  0.0985  0.5629
  666MOL0     H89905  11.351  10.460   3.122 -4.2581  1.8466 -1.8767
  666MOL0     H89906  11.530  10.428   3.299  0.4031 -1.1942 -0.1636
  666MOL0     H89907  11.402  10.331   3.362  1.4104 -0.2783  2.3271
  666MOL0     H89908  11.437  10.657   3.650 -2.0470  0.0614  1.2595
  666MOL0     H89909  10.860  10.662   3.345  0.6245  1.9242 -1.7718
  666MOL0     H89910  10.640  10.776   3.297 -3.8881 -1.2234  0.7299
  667MOL0     O89911  10.832  11.073  10.761  0.1150 -0.1535 -0.5943
  667MOL0     C89912  10.833  11.193  10.748 -0.9442 -0.1344 -0.5705
  667MOL0     O89913  10.733  11.281  10.718 -0.6161  0.3341 -0.1966
  667MOL0     C89914  10.600  11.241  10.700 -0.0700 -0.9713  0.7517
  667MOL0     C89915  10.514  11.322  10.622 -0.2744 -1.2099 -0.6268
  667MOL0     C89916  10.386  11.284  10.589  0.1364 -0.1492 -0.6911
  667MOL0     C89917  10.326  11.166  10.636 -0.2009 -0.2215 -0.3250
  667MOL0     O89918  10.199  11.157  10.600 -0.0861 -0.5234 -0.3488
  667MOL0     C89919  10.109  11.066  10.664 -0.2145 -0.2112  0.3252
  667MOL0     C89920   9.971  11.082  10.602  0.0133 -0.0245  0.5809
  667MOL0     C89921   9.866  10.974  10.631 -0.4837 -0.2915 -0.9431
  667MOL0     C89922   9.729  11.023  10.578 -0.4345 -0.3278 -0.0955
  667MOL0     C89923   9.625  10.912  10.612 -0.5702 -0.3543 -0.3602
  667MOL0     C89924   9.502  10.920  10.525  0.9822 -0.7136  1.0412
  667MOL0     C89925   9.407  10.792  10.535 -0.6167 -0.3480  0.6604
  667MOL0     C89926   9.325  10.805  10.671 -0.1840 -0.0362 -0.3817
  667MOL0     N89927   9.195  10.743  10.650  0.2571 -0.1597 -0.1346
  667MOL0     C89928   9.095  10.799  10.579  0.4306 -0.2899  0.2746
  667MOL0     C89929   9.010  10.703  10.556  0.4273 -0.4016 -0.4308
  667MOL0     C89930   8.891  10.722  10.471  0.7684 -0.5145 -0.3733
  667MOL0     C89931   8.795  10.608  10.499  0.1023  0.1239  0.3531
  667MOL0     C89932   8.654  10.644  10.443 -0.7782 -0.6360 -0.0522
  667MOL0     C89933   8.554  10.533  10.462  0.2254  0.2924  0.0552
  667MOL0     O89934   8.491  10.548  10.590 -0.0605 -0.6145  0.3033
  667MOL0     C89935   8.381  10.475  10.621 -0.4247 -0.8084 -0.8121
  667MOL0     C89936   8.321  10.374  10.544 -0.5822  0.0198  0.4908
  667MOL0     C89937   8.196  10.310  10.579 -0.3866  0.1447 -0.1600
  667MOL0     C89938   8.135  10.216  10.478  0.0830 -1.1107  0.2262
  667MOL0     C89939   8.124  10.356  10.695 -0.4508 -0.5414 -0.5879
  667MOL0     C89940   7.998  10.305  10.752 -0.2399  0.9522 -0.7349
  667MOL0     O89941   7.941  10.386  10.845 -0.9902  0.4845  0.1046
  667MOL0     C89942   7.834  10.333  10.906  0.1271  0.2470 -0.3856
  667MOL0     C89943   7.706  10.377  10.866 -0.4585  0.0987  0.0742
  667MOL0     C89944   7.597  10.326  10.932  0.3724 -0.7141  0.8371
  667MOL0     C89945   7.610  10.234  11.038 -0.6519  0.1890  0.7699
  667MOL0     O89946   7.488  10.191  11.087 -0.1439  0.2259 -0.8801
  667MOL0     C89947   7.488  10.196  11.234 -0.6062  0.0243  0.0682
  667MOL0     C89948   7.382  10.111  11.298 -0.1852 -0.4210 -0.2754
  667MOL0     C89949   7.233  10.150  11.282 -0.2210 -0.4233 -0.1037
  667MOL0     C89950   7.161  10.059  11.376  0.3883 -0.0522  0.2063
  667MOL0     C89951   7.012  10.077  11.382  0.4329  0.0644 -0.0182
  667MOL0     C89952   6.958  10.043  11.517 -0.0528 -0.0937 -0.7596
  667MOL0     C89953   7.006   9.916  11.593 -0.2148  0.1763  0.1282
  667MOL0     C89954   6.973   9.791  11.520 -0.4123 -0.4124 -0.0081
  667MOL0    Cl89955   7.009   9.653  11.624 -0.0299  0.3153 -0.0072
  667MOL0     C89956   7.735  10.182  11.064 -0.7495 -0.0956 -0.6117
  667MOL0     C89957   7.852  10.227  10.997  0.4814  0.4466  0.0578
  667MOL0     O89958   7.970  10.188  10.729 -0.0116  0.5057  0.2809
  667MOL0     C89959   8.188  10.450  10.772 -0.5491  0.6455  0.4438
  667MOL0     C89960   8.311  10.513  10.733  0.7268 -0.1092 -0.9268
  667MOL0     N89961   9.057  10.594  10.635  1.3978 -0.0623  0.2576
  667MOL0     N89962   9.163  10.624  10.698  0.2879 -0.2120 -0.5888
  667MOL0     C89963  10.400  11.092  10.734 -0.5572 -0.3768  0.6490
  667MOL0     C89964  10.536  11.126  10.755 -0.1793 -0.5027  0.1199
  667MOL0     C89965  10.953  11.261  10.809 -0.0285 -0.0568 -0.4786
  667MOL0     C89966  10.954  11.400  10.818  0.0008 -0.0376  0.2384
  667MOL0     C89967  11.064  11.474  10.855 -0.0540  0.7460  0.5324
  667MOL0     C89968  11.177  11.404  10.899  0.2701  0.7214 -0.7325
  667MOL0     O89969  11.285  11.473  10.940  0.5666 -0.2950 -0.2139
  667MOL0     C89970  11.395  11.418  11.004 -0.0541  0.1294  0.1943
  667MOL0     C89971  11.505  11.364  10.899  0.7963 -0.3553 -0.9045
  667MOL0     C89972  11.641  11.346  10.949 -0.6307 -0.1247 -0.8813
  667MOL0     C89973  11.651  11.265  11.078  0.1054  0.6558 -0.1451
  667MOL0     C89974  11.554  11.152  11.089 -0.2529 -0.1787  0.0487
  667MOL0     C89975  11.480  11.055  11.095 -0.6435  0.1290 -0.3708
  667MOL0     C89976  11.180  11.260  10.899  0.0019 -0.0211 -0.1141
  667MOL0     C89977  11.068  11.193  10.861  0.7740  0.5465 -0.3057
  667MOL0     H89978  10.541  11.415  10.574 -0.9383  0.2902  1.7598
  667MOL0     H89979  10.337  11.356  10.524  3.2350  2.8834  0.0283
  667MOL0     H89980  10.126  10.961  10.637  0.3275 -0.4078  1.3756
  667MOL0     H89981  10.115  11.075  10.773 -0.2264 -0.6163  0.3608
  667MOL0     H89982   9.929  11.179  10.629  1.7638  0.2133  2.7440
  667MOL0     H89983   9.992  11.079  10.495 -0.1878 -1.0449  0.5561
  667MOL0     H89984   9.892  10.887  10.570  1.2185 -0.9625  0.6102
  667MOL0     H89985   9.858  10.940  10.735  3.2219  1.7704  0.2305
  667MOL0     H89986   9.702  11.118  10.624  1.3697  0.0698  0.2314
  667MOL0     H89987   9.744  11.051  10.473  0.1200 -0.1088  0.0359
  667MOL0     H89988   9.668  10.814  10.588  1.9076  0.5146  0.1709
  667MOL0     H89989   9.603  10.916  10.719  1.1729  0.3507  0.0114
  667MOL0     H89990   9.438  11.004  10.551 -1.2143 -0.8021 -3.3062
  667MOL0     H89991   9.529  10.944  10.422  0.4867  0.5843  1.1947
  667MOL0     H89992   9.341  10.786  10.448  0.1488  3.6765 -0.4134
  667MOL0     H89993   9.467  10.701  10.542 -2.0824 -1.4609 -0.5551
  667MOL0     H89994   9.310  10.906  10.709  1.4259 -0.3844  1.3342
  667MOL0     H89995   9.380  10.746  10.745 -1.7545  0.7327  1.5094
  667MOL0     H89996   9.097  10.900  10.539 -0.8593 -0.2483  0.2731
  667MOL0     H89997   8.830  10.809  10.498  1.3015  0.3737 -1.9180
  667MOL0     H89998   8.914  10.735  10.365 -1.9548  0.5505 -0.9213
  667MOL0     H89999   8.790  10.591  10.607 -0.9425  1.5624  0.5519
  667MOL0     H90000   8.815  10.527  10.428 -0.3013 -0.3841  0.8061
  667MOL0     H90001   8.681  10.653  10.337 -0.7847 -0.4107 -0.0366
  667MOL0     H90002   8.605  10.739  10.468 -2.1220 -0.8420 -1.6954
  667MOL0     H90003   8.600  10.434  10.469  0.1348  0.3098  1.0258
  667MOL0     H90004   8.489  10.522  10.375  1.0748  0.3289 -0.6046
  667MOL0     H90005   8.366  10.335  10.453  3.6710 -1.0862  2.7690
  667MOL0     H90006   8.026  10.218  10.479 -0.0015  2.4010  1.9541
  667MOL0     H90007   8.159  10.256  10.378 -1.4779 -0.0001  0.2644
  667MOL0     H90008   8.175  10.116  10.493 -0.7792 -1.4767  0.1629
  667MOL0     H90009   7.688  10.446  10.785  0.7659  0.3104 -0.0345
  667MOL0     H90010   7.502  10.363  10.894  0.7212 -0.7050 -0.0689
  667MOL0     H90011   7.588  10.166  11.266 -0.3496 -1.0195 -1.6139
  667MOL0     H90012   7.476  10.301  11.263  1.4095  0.5226 -0.7526
  667MOL0     H90013   7.399  10.012  11.254 -1.3164 -0.0949 -1.5005
  667MOL0     H90014   7.403  10.108  11.405 -1.8509 -0.0179  0.0898
  667MOL0     H90015   7.192  10.123  11.185  0.1449 -0.6994 -0.1863
  667MOL0     H90016   7.212  10.254  11.309  1.8188 -0.7784  3.5073
  667MOL0     H90017   7.178   9.956  11.344 -0.3329  0.3510 -1.6051
  667MOL0     H90018   7.190  10.088  11.478 -3.0110  2.0732  0.7230
  667MOL0     H90019   6.976  10.021  11.294  1.5033  0.2717 -0.6061
  667MOL0     H90020   6.984  10.177  11.349  0.1743  0.2479  0.7615
  667MOL0     H90021   6.992  10.123  11.583  1.1208  0.3993 -1.9278
  667MOL0     H90022   6.849  10.049  11.522 -0.0838 -1.2809  2.1918
  667MOL0     H90023   6.955   9.913  11.690  1.3501  2.5022  1.1349
  667MOL0     H90024   7.114   9.921  11.613  0.0251  1.7812 -1.3368
  667MOL0     H90025   7.026   9.774  11.425 -0.8067 -0.4539 -0.2231
  667MOL0     H90026   6.865   9.784  11.505 -0.2543 -1.8106 -0.7009
  667MOL0     H90027   7.750  10.096  11.129 -0.5381 -2.2056 -3.2668
  667MOL0     H90028   7.949  10.204  11.039  0.6365  0.7602 -0.1181
  667MOL0     H90029   8.142  10.498  10.858 -2.9322  0.9007 -0.8858
  667MOL0     H90030   8.344  10.600  10.789  0.2094 -1.3704  1.4944
  667MOL0     H90031  10.354  11.013  10.791 -0.3719 -1.5815 -0.8092
  667MOL0     H90032  10.597  11.065  10.821  0.1300  0.6103  0.8833
  667MOL0     H90033  10.873  11.460  10.777 -0.4578 -1.2374 -0.6728
  667MOL0     H90034  11.082  11.581  10.856 -0.8566  0.9592 -2.0354
  667MOL0     H90035  11.438  11.502  11.059 -0.3924  1.5644 -1.6409
  667MOL0     H90036  11.361  11.336  11.069 -0.6996 -0.4199 -0.8158
  667MOL0     H90037  11.515  11.449  10.831  0.2452  1.4987  1.1770
  667MOL0     H90038  11.466  11.272  10.854  0.2023 -0.5207 -0.0890
  667MOL0     H90039  11.691  11.442  10.963  0.0123 -0.6119  0.3315
  667MOL0     H90040  11.699  11.294  10.873  0.0397 -1.4092  0.4529
  667MOL0     H90041  11.641  11.329  11.166 -0.3555  0.4073 -0.0132
  667MOL0     H90042  11.752  11.228  11.096  0.4728  2.0728  0.8685
  667MOL0     H90043  11.420  10.968  11.112  0.3096 -0.1317  1.9556
  667MOL0     H90044  11.257  11.198  10.943  1.1332 -0.2024 -2.2195
  667MOL0     H90045  11.075  11.085  10.867 -0.7968  0.3749 -1.1090
  668MOL0     O90046   2.063   6.826   1.043 -0.3562  0.1118 -0.7548
  668MOL0     C90047   2.143   6.907   0.997  0.0254  0.1013 -0.5963
  668MOL0     O90048   2.111   7.032   0.947  0.4146  1.1529 -0.2151
  668MOL0     C90049   1.978   7.049   0.917  0.5462 -0.6081 -0.1116
  668MOL0     C90050   1.938   7.070   0.782 -0.2764  0.2401 -0.6628
  668MOL0     C90051   1.801   7.091   0.758  0.3016  1.0504 -0.6791
  668MOL0     C90052   1.700   7.100   0.861 -0.5453 -0.2511 -0.5650
  668MOL0     O90053   1.573   7.152   0.850  0.1686 -0.8459  0.0138
  668MOL0     C90054   1.497   7.105   0.733  0.3568  0.5569  0.1590
  668MOL0     C90055   1.346   7.131   0.760  0.7382 -0.0705 -0.3611
  668MOL0     C90056   1.327   7.278   0.797  0.8188 -0.3463  0.0613
  668MOL0     C90057   1.177   7.308   0.839 -0.2539  0.5200 -0.1671
  668MOL0     C90058   1.153   7.450   0.895  0.7319 -0.1070  0.1316
  668MOL0     C90059   1.143   7.552   0.779 -0.5702  0.4605  0.0763
  668MOL0     C90060   1.096   7.689   0.827 -1.1039 -0.4388  0.4508
  668MOL0     C90061   1.207   7.768   0.887  0.1941 -1.0323 -0.3046
  668MOL0     N90062   1.172   7.906   0.909 -0.2444  0.0030  0.5557
  668MOL0     C90063   1.091   7.948   1.008  0.8148  0.3002 -0.0641
  668MOL0     C90064   1.087   8.086   0.986  0.2503  0.8360 -0.2265
  668MOL0     C90065   1.006   8.175   1.065  0.1246  0.1126 -0.9419
  668MOL0     C90066   0.920   8.263   0.976 -0.1552  0.2308 -0.5635
  668MOL0     C90067   0.892   8.403   1.041 -0.2528  0.3013 -0.1422
  668MOL0     C90068   0.765   8.473   0.984 -0.4533  0.0351 -0.7627
  668MOL0     O90069   0.647   8.395   1.012  0.2045  0.3986 -0.2655
  668MOL0     C90070   0.522   8.443   0.980 -0.3918 -0.2921  0.9539
  668MOL0     C90071   0.421   8.347   1.006  0.9520  0.4402  0.3671
  668MOL0     C90072   0.288   8.377   0.993  0.7844 -0.0444  0.3520
  668MOL0     C90073   0.186   8.271   1.007 -0.0853  0.5926 -0.1513
  668MOL0     C90074   0.247   8.506   0.944 -0.6326 -0.0158 -0.2989
  668MOL0     C90075   0.106   8.543   0.903 -0.3189  0.1705  0.0830
  668MOL0     O90076   0.003   8.465   0.941 -0.6110 -0.6086  0.3735
  668MOL0     C90077  -0.117   8.469   0.874  0.0560  0.9458 -0.9072
  668MOL0     C90078  -0.136   8.412   0.745 -1.1321  1.0383  0.5454
  668MOL0     C90079  -0.259   8.401   0.685 -0.3595 -0.4163  0.2498
  668MOL0     C90080  -0.375   8.434   0.755  0.3367  0.1422  0.6656
  668MOL0     O90081  -0.497   8.423   0.697 -0.6753 -0.0385 -0.3879
  668MOL0     C90082  -0.515   8.298   0.617  0.3881  0.1915  0.5230
  668MOL0     C90083  -0.656   8.260   0.615  0.4560  0.5240 -0.4842
  668MOL0     C90084  -0.747   8.373   0.576  1.8208  0.7506  1.0288
  668MOL0     C90085  -0.896   8.322   0.586  0.2817 -0.1369  0.4180
  668MOL0     C90086  -1.012   8.429   0.575  0.4785  0.3463  0.1043
  668MOL0     C90087  -1.144   8.351   0.592 -0.4189 -0.2499 -0.5122
  668MOL0     C90088  -1.171   8.330   0.744  0.6241  0.7664 -0.4439
  668MOL0     C90089  -1.322   8.321   0.789 -0.6599  0.5299  0.1918
  668MOL0    Cl90090  -1.438   8.442   0.739 -0.1865  0.1863 -0.1746
  668MOL0     C90091  -0.361   8.470   0.889  0.3146  0.5223 -0.4314
  668MOL0     C90092  -0.236   8.502   0.943  0.2152  0.1431  0.3131
  668MOL0     O90093   0.088   8.644   0.838 -0.0026  0.2160 -0.0176
  668MOL0     C90094   0.356   8.601   0.921 -0.3297 -0.2161 -0.4608
  668MOL0     C90095   0.489   8.567   0.936 -0.3053 -0.1827 -0.8735
  668MOL0     N90096   1.170   8.110   0.881  0.2826 -0.4346 -0.1675
  668MOL0     N90097   1.228   8.005   0.830  0.5713 -0.2175 -0.5875
  668MOL0     C90098   1.745   7.080   0.994  0.0136 -0.0139  0.0543
  668MOL0     C90099   1.876   7.058   1.015 -0.5462 -0.2340 -0.8003
  668MOL0     C90100   2.288   6.878   1.008 -0.1925  0.5007  0.1196
  668MOL0     C90101   2.338   6.748   1.041 -0.2873 -0.3249  0.7266
  668MOL0     C90102   2.478   6.733   1.046  0.3630  0.2763  0.2600
  668MOL0     C90103   2.555   6.833   1.010 -0.8620  0.3507 -0.5770
  668MOL0     O90104   2.689   6.805   1.031 -0.2286 -0.4176  0.8702
  668MOL0     C90105   2.768   6.830   0.916 -0.4560  0.4793  0.1472
  668MOL0     C90106   2.906   6.752   0.921  0.7781 -0.2378 -0.1781
  668MOL0     C90107   2.982   6.773   1.054  0.3058  0.1413 -1.0745
  668MOL0     C90108   3.097   6.661   1.072 -0.3066 -0.7235  0.1485
  668MOL0     C90109   3.197   6.671   0.962  0.1457 -0.0679  1.0722
  668MOL0     C90110   3.274   6.683   0.864  0.2074  0.3807 -0.2497
  668MOL0     C90111   2.513   6.959   0.969 -0.0365 -0.2810 -0.5269
  668MOL0     C90112   2.375   6.979   0.972  0.7222  0.2918  0.5603
  668MOL0     H90113   2.013   7.081   0.704  1.0323  2.0295  0.7538
  668MOL0     H90114   1.766   7.110   0.657 -2.6564 -0.3581 -0.0143
  668MOL0     H90115   1.533   7.159   0.645  0.6506  1.2769  0.7113
  668MOL0     H90116   1.522   7.002   0.707  0.4743  0.3183  1.1696
  668MOL0     H90117   1.275   7.107   0.680  0.0477  0.2070  0.1586
  668MOL0     H90118   1.321   7.073   0.849  0.2861 -0.3998 -0.6965
  668MOL0     H90119   1.389   7.301   0.884 -0.3272  1.6427  0.4162
  668MOL0     H90120   1.355   7.344   0.714 -1.9683 -0.5112 -1.1131
  668MOL0     H90121   1.101   7.296   0.761 -1.3491  1.6898  0.6747
  668MOL0     H90122   1.155   7.244   0.925  0.9360  5.0303  3.9191
  668MOL0     H90123   1.056   7.451   0.945  0.0083 -2.6283 -1.0747
  668MOL0     H90124   1.234   7.480   0.963  1.9950  0.4721 -1.5415
  668MOL0     H90125   1.239   7.564   0.727 -0.1266 -0.9351  0.5434
  668MOL0     H90126   1.070   7.506   0.711 -0.5117 -2.2928  1.7109
  668MOL0     H90127   1.068   7.745   0.738  3.0961  0.5355 -0.4981
  668MOL0     H90128   1.004   7.684   0.886 -2.2459 -0.7421 -1.2781
  668MOL0     H90129   1.290   7.764   0.817  0.2056  0.0483 -0.3585
  668MOL0     H90130   1.233   7.728   0.985 -1.1278  0.5157  0.7355
  668MOL0     H90131   1.035   7.891   1.082 -2.1253 -0.4369 -2.6635
  668MOL0     H90132   0.948   8.127   1.144  0.0320  0.7213 -0.6357
  668MOL0     H90133   1.088   8.234   1.107  0.5100 -0.3986 -0.9720
  668MOL0     H90134   0.827   8.205   0.970  1.9081 -3.5629  0.9866
  668MOL0     H90135   0.974   8.270   0.882 -0.3496 -2.0082 -0.8900
  668MOL0     H90136   0.982   8.462   1.024 -1.1342  2.3352  1.7424
  668MOL0     H90137   0.877   8.400   1.149  1.7421  1.0333  0.1874
  668MOL0     H90138   0.775   8.490   0.876  2.2724 -0.4028 -0.6470
  668MOL0     H90139   0.753   8.570   1.033  1.3378  1.2936 -2.6538
  668MOL0     H90140   0.463   8.255   1.047  0.9076  0.3051  0.1174
  668MOL0     H90141   0.108   8.296   1.079  0.3037 -1.4765  1.0839
  668MOL0     H90142   0.147   8.233   0.912  0.1022  0.6464 -0.2508
  668MOL0     H90143   0.226   8.184   1.060 -2.4413  0.4910  1.5795
  668MOL0     H90144  -0.044   8.379   0.698  0.3038  2.1727  2.4638
  668MOL0     H90145  -0.264   8.352   0.588  0.7496 -1.3305  0.6270
  668MOL0     H90146  -0.488   8.295   0.511 -2.9993 -0.6422 -0.4481
  668MOL0     H90147  -0.464   8.214   0.665 -1.9028 -1.6690 -0.1152
  668MOL0     H90148  -0.674   8.183   0.539 -4.5606 -0.2047  1.0420
  668MOL0     H90149  -0.687   8.217   0.711  1.1727 -0.1772 -0.5552
  668MOL0     H90150  -0.727   8.398   0.472 -0.4724  0.7965  0.5471
  668MOL0     H90151  -0.735   8.458   0.645  0.0735  1.5726  0.3959
  668MOL0     H90152  -0.896   8.244   0.509  0.9001  0.7972 -0.5608
  668MOL0     H90153  -0.906   8.272   0.682  1.7419  2.5169  2.0571
  668MOL0     H90154  -1.019   8.471   0.474  1.4027 -1.2514 -0.6623
  668MOL0     H90155  -0.998   8.511   0.646 -1.0693  2.5709 -2.0020
  668MOL0     H90156  -1.225   8.406   0.543  0.3268  1.8518  0.4976
  668MOL0     H90157  -1.126   8.258   0.537  0.5771 -1.4315  1.6883
  668MOL0     H90158  -1.107   8.401   0.799  1.0075 -2.4872  3.8212
  668MOL0     H90159  -1.140   8.231   0.777 -0.3990 -0.5162 -3.0175
  668MOL0     H90160  -1.313   8.319   0.898 -1.0219  0.2572  0.2169
  668MOL0     H90161  -1.372   8.228   0.762 -0.4474  1.0313 -2.1313
  668MOL0     H90162  -0.450   8.489   0.948  0.4054  3.6662 -1.1040
  668MOL0     H90163  -0.227   8.544   1.043  0.0510 -0.2598  0.5008
  668MOL0     H90164   0.329   8.702   0.893  1.4166 -0.1812 -2.2013
  668MOL0     H90165   0.561   8.645   0.915 -0.4895  0.8338  1.8993
  668MOL0     H90166   1.666   7.096   1.067 -1.9408 -1.2160 -1.6626
  668MOL0     H90167   1.914   7.033   1.113  1.6615 -1.3039 -1.8472
  668MOL0     H90168   2.259   6.677   1.064 -1.0443  0.4737  0.6851
  668MOL0     H90169   2.516   6.643   1.092  1.6318  1.3561  1.3956
  668MOL0     H90170   2.715   6.806   0.824  1.6344  0.1821 -1.0403
  668MOL0     H90171   2.796   6.934   0.899  0.0584  0.3606  0.2347
  668MOL0     H90172   2.957   6.777   0.828 -0.4853 -1.0804 -1.1322
  668MOL0     H90173   2.879   6.649   0.895  2.2310 -0.5200 -0.6553
  668MOL0     H90174   2.916   6.776   1.141 -1.6113  0.2517 -2.4614
  668MOL0     H90175   3.030   6.871   1.043  0.1457  0.5884  1.5084
  668MOL0     H90176   3.047   6.564   1.071  4.0618 -3.2250 -2.3700
  668MOL0     H90177   3.149   6.685   1.166  1.2978 -1.5670 -0.4963
  668MOL0     H90178   3.334   6.672   0.776 -0.6180  1.9365 -1.0493
  668MOL0     H90179   2.581   7.040   0.948 -0.0168  0.6094  2.4359
  668MOL0     H90180   2.344   7.082   0.965 -0.5851 -0.1412 -0.4551
  669MOL0     O90181  10.443   0.857   9.416 -0.5221 -0.1075 -0.2192
  669MOL0     C90182  10.504   0.789   9.497 -0.1346 -0.0418  0.9484
  669MOL0     O90183  10.499   0.801   9.625 -0.5941  0.1704  0.2236
  669MOL0     C90184  10.437   0.919   9.685  0.6601  0.2095 -0.9048
  669MOL0     C90185  10.302   0.919   9.734  0.3550 -0.1848 -0.2504
  669MOL0     C90186  10.244   1.037   9.784  0.5188 -0.6409  0.2802
  669MOL0     C90187  10.316   1.162   9.789  0.2386  0.4580  0.0025
  669MOL0     O90188  10.251   1.271   9.840 -0.1143  0.8470 -0.4725
  669MOL0     C90189  10.317   1.373   9.923 -0.6022  1.0322  0.0479
  669MOL0     C90190  10.210   1.452  10.002  0.2772  0.6622 -0.0492
  669MOL0     C90191  10.137   1.538   9.907 -0.2807  0.1040 -0.6478
  669MOL0     C90192  10.026   1.626   9.971 -0.1503  0.2023 -0.2481
  669MOL0     C90193   9.990   1.737   9.878  0.0914 -0.2739  1.3989
  669MOL0     C90194   9.888   1.708   9.757 -0.1632  0.5279 -0.3286
  669MOL0     C90195   9.749   1.686   9.815 -0.5713  0.2493 -0.1975
  669MOL0     C90196   9.635   1.637   9.710 -0.4344 -0.2901  0.3886
  669MOL0     N90197   9.626   1.737   9.600 -0.1659  0.2855  0.6946
  669MOL0     C90198   9.671   1.722   9.470 -0.4094  0.0609 -0.4337
  669MOL0     C90199   9.623   1.820   9.401  0.8031 -0.4995  0.6840
  669MOL0     C90200   9.640   1.834   9.255  0.5435 -0.6050  1.0232
  669MOL0     C90201   9.507   1.852   9.175 -0.3048  0.8654  0.8509
  669MOL0     C90202   9.543   1.830   9.028  0.5213 -0.2978 -0.3007
  669MOL0     C90203   9.417   1.837   8.935  0.0001 -0.0724  0.5621
  669MOL0     O90204   9.363   1.973   8.940  0.2222  0.0214 -0.3999
  669MOL0     C90205   9.279   2.010   8.837  0.1704 -0.6143 -0.4164
  669MOL0     C90206   9.237   1.931   8.730 -1.6107 -1.3610 -0.4025
  669MOL0     C90207   9.148   1.978   8.623 -0.1735  0.5445 -0.2061
  669MOL0     C90208   9.103   1.878   8.517  0.1979  0.5716 -0.6837
  669MOL0     C90209   9.107   2.116   8.623  0.3408 -0.2947  0.1226
  669MOL0     C90210   9.013   2.174   8.518 -0.5955 -0.2655  0.7388
  669MOL0     O90211   8.933   2.285   8.558  0.2313  0.4916  0.2126
  669MOL0     C90212   8.805   2.300   8.511 -0.3172 -0.7419 -0.1649
  669MOL0     C90213   8.716   2.193   8.471 -0.3364  0.3069 -0.4186
  669MOL0     C90214   8.585   2.232   8.434  0.6849  0.9029 -0.1549
  669MOL0     C90215   8.537   2.361   8.430  0.9774 -0.0657 -0.1557
  669MOL0     O90216   8.409   2.376   8.379  0.5126 -0.0226  0.0998
  669MOL0     C90217   8.331   2.496   8.414 -0.1433  0.0688  0.3578
  669MOL0     C90218   8.191   2.506   8.354 -0.2859 -0.3009  0.4496
  669MOL0     C90219   8.086   2.424   8.441  0.8194  0.3846  0.6486
  669MOL0     C90220   7.957   2.444   8.366  0.3575 -0.3387 -0.0161
  669MOL0     C90221   7.835   2.372   8.432 -0.6264 -0.0085 -0.3318
  669MOL0     C90222   7.708   2.404   8.342 -0.6021 -0.5157 -0.2231
  669MOL0     C90223   7.576   2.369   8.425 -0.0196  0.7992  0.4493
  669MOL0     C90224   7.459   2.412   8.340 -0.0017 -0.3558 -0.1066
  669MOL0    Cl90225   7.301   2.385   8.424 -0.2457  0.1652  0.3174
  669MOL0     C90226   8.626   2.458   8.465 -0.5773 -0.6435  0.9309
  669MOL0     C90227   8.759   2.436   8.507  0.5574  0.4310 -0.4072
  669MOL0     O90228   9.004   2.115   8.407  0.1305  0.1887  0.0992
  669MOL0     C90229   9.145   2.193   8.737 -0.3152 -0.5818  0.9697
  669MOL0     C90230   9.236   2.145   8.833  1.0615  0.4835  0.2491
  669MOL0     N90231   9.547   1.903   9.484 -0.1466  0.1149  0.1364
  669MOL0     N90232   9.548   1.851   9.600  0.1513 -0.2141 -0.4187
  669MOL0     C90233  10.447   1.170   9.739 -0.3558  0.6700 -0.6485
  669MOL0     C90234  10.507   1.042   9.686  0.2949  0.4734 -0.7217
  669MOL0     C90235  10.574   0.670   9.449 -0.1464  0.8058  0.1309
  669MOL0     C90236  10.627   0.576   9.544  0.5766  0.4491  0.6549
  669MOL0     C90237  10.684   0.457   9.506 -0.2349  0.3778  1.0262
  669MOL0     C90238  10.718   0.429   9.369  0.5329 -0.3718  0.5305
  669MOL0     O90239  10.781   0.308   9.330 -0.7487 -0.1074  0.2387
  669MOL0     C90240  10.822   0.295   9.190 -0.2357 -0.0757  0.1919
  669MOL0     C90241  10.946   0.199   9.162  0.0183  0.0717  0.0031
  669MOL0     C90242  11.073   0.218   9.249  0.3768 -0.1855 -0.3252
  669MOL0     C90243  11.180   0.102   9.254  0.5247 -0.4918  0.5729
  669MOL0     C90244  11.136  -0.022   9.313  0.2177  0.2443 -0.6287
  669MOL0     C90245  11.102  -0.134   9.344  1.4317 -0.2269  0.0762
  669MOL0     C90246  10.663   0.524   9.282 -0.2769  0.1967  0.1286
  669MOL0     C90247  10.594   0.640   9.316  0.0319  0.8851 -0.5595
  669MOL0     H90248  10.246   0.826   9.725  2.7611 -1.5095 -3.1145
  669MOL0     H90249  10.138   1.048   9.806  0.6711  1.3768  0.1861
  669MOL0     H90250  10.398   1.332   9.982 -0.9271  1.0738  0.5273
  669MOL0     H90251  10.371   1.435   9.851 -0.1338  0.3237 -0.2179
  669MOL0     H90252  10.142   1.377  10.045  0.0821  0.2597 -1.0169
  669MOL0     H90253  10.252   1.504  10.088 -0.1166 -1.1849  1.3070
  669MOL0     H90254  10.209   1.596   9.847 -0.2236  1.7656  0.9387
  669MOL0     H90255  10.089   1.476   9.831 -0.4806  2.0098 -2.1552
  669MOL0     H90256   9.942   1.562  10.002 -0.2366  0.4843  0.0990
  669MOL0     H90257  10.066   1.680  10.057  1.9862 -3.3558  1.2377
  669MOL0     H90258   9.958   1.825   9.936  2.3980  1.8644 -0.3203
  669MOL0     H90259  10.084   1.768   9.831 -0.6921  1.5971  0.9347
  669MOL0     H90260   9.897   1.786   9.681  1.1365  1.2340  0.5054
  669MOL0     H90261   9.924   1.616   9.710  4.1342  2.1956 -0.7328
  669MOL0     H90262   9.753   1.617   9.899 -3.4079  1.5466  1.1188
  669MOL0     H90263   9.720   1.780   9.861 -2.2426 -0.9632  1.3467
  669MOL0     H90264   9.541   1.636   9.766 -0.6856 -2.0753  0.0131
  669MOL0     H90265   9.651   1.538   9.667 -0.1503 -0.9789  1.9849
  669MOL0     H90266   9.744   1.647   9.439  0.0198  0.1142  0.4133
  669MOL0     H90267   9.706   1.919   9.236 -0.3467 -0.0052  0.5397
  669MOL0     H90268   9.692   1.746   9.216 -1.1812 -1.1197 -0.2434
  669MOL0     H90269   9.464   1.948   9.204 -1.1352  0.8756 -0.3875
  669MOL0     H90270   9.435   1.776   9.209  0.4255 -0.2349  0.0244
  669MOL0     H90271   9.592   1.733   9.012  1.4007 -0.4670  2.7585
  669MOL0     H90272   9.602   1.913   8.987  0.3496 -0.4047 -0.7652
  669MOL0     H90273   9.342   1.764   8.965 -0.5830 -0.1663 -1.0466
  669MOL0     H90274   9.440   1.805   8.833  0.5243 -0.6025  0.8378
  669MOL0     H90275   9.259   1.825   8.739 -1.7150 -1.1983  2.4593
  669MOL0     H90276   8.995   1.880   8.500  0.0804  0.4691  0.0141
  669MOL0     H90277   9.148   1.887   8.418 -1.5991  0.0658 -1.5918
  669MOL0     H90278   9.131   1.780   8.557  1.9911  1.7844  1.2495
  669MOL0     H90279   8.749   2.090   8.460  1.1429  0.6741  0.2549
  669MOL0     H90280   8.511   2.158   8.408  1.0211 -0.1936  1.7955
  669MOL0     H90281   8.327   2.509   8.523  0.6465 -0.3380  0.4444
  669MOL0     H90282   8.383   2.583   8.375 -1.2922  0.2038 -0.9661
  669MOL0     H90283   8.170   2.613   8.344  1.6596  0.1288  0.5101
  669MOL0     H90284   8.196   2.463   8.254  0.9987  2.9679 -1.0374
  669MOL0     H90285   8.078   2.453   8.546  1.3253 -1.6888  1.3175
  669MOL0     H90286   8.112   2.317   8.445  1.2016  0.4455 -0.0202
  669MOL0     H90287   7.940   2.552   8.356  0.0228  0.2476  4.8277
  669MOL0     H90288   7.976   2.399   8.268  1.1735 -1.1999  0.5208
  669MOL0     H90289   7.833   2.411   8.534  2.3643 -0.5280  0.0298
  669MOL0     H90290   7.854   2.264   8.440  4.9023  0.7368  0.8880
  669MOL0     H90291   7.714   2.509   8.314 -1.8379  0.0788  1.5795
  669MOL0     H90292   7.710   2.340   8.254 -2.4355  0.0386 -0.6941
  669MOL0     H90293   7.580   2.418   8.523  1.7791  1.5908  0.0013
  669MOL0     H90294   7.559   2.263   8.447  3.4341  0.1251  0.3753
  669MOL0     H90295   7.453   2.360   8.244 -2.2745  1.6889 -1.1947
  669MOL0     H90296   7.467   2.516   8.307 -1.9046 -0.7761 -2.1234
  669MOL0     H90297   8.608   2.565   8.457 -1.6005 -0.8457  0.4737
  669MOL0     H90298   8.835   2.505   8.543  0.0286  0.4426  0.7320
  669MOL0     H90299   9.107   2.295   8.740 -3.1029 -1.5477  1.4019
  669MOL0     H90300   9.268   2.211   8.914 -1.8219 -0.4993  2.3893
  669MOL0     H90301  10.511   1.258   9.734 -0.2072  0.5018 -3.7947
  669MOL0     H90302  10.608   1.048   9.647  1.2627 -2.0965  1.1131
  669MOL0     H90303  10.637   0.589   9.651 -2.1609 -1.5980  1.2467
  669MOL0     H90304  10.733   0.393   9.580  1.6279 -1.1161 -1.3638
  669MOL0     H90305  10.736   0.263   9.131 -0.3678  1.0894 -0.2836
  669MOL0     H90306  10.859   0.397   9.172 -0.9472  0.6523  2.4966
  669MOL0     H90307  10.980   0.208   9.058 -0.0618 -0.2339 -0.0487
  669MOL0     H90308  10.911   0.096   9.175  0.9294 -0.1053  1.3242
  669MOL0     H90309  11.044   0.235   9.353  0.5088  0.9693 -0.4684
  669MOL0     H90310  11.124   0.306   9.208 -0.2983  0.2710 -0.1889
  669MOL0     H90311  11.266   0.134   9.313  1.5623 -0.9399 -0.6311
  669MOL0     H90312  11.223   0.096   9.153 -1.1876  1.5994 -0.3414
  669MOL0     H90313  11.061  -0.227   9.378 -0.1753  1.0446  1.8059
  669MOL0     H90314  10.666   0.509   9.174  1.8716  0.0229  0.1610
  669MOL0     H90315  10.550   0.701   9.238 -0.2215  1.8968  0.3534
  670MOL0     O90316   1.718   4.885   7.829 -0.5149 -0.4962  0.1959
  670MOL0     C90317   1.765   4.956   7.918  0.0938  1.3999  0.8518
  670MOL0     O90318   1.691   5.004   8.035  0.3454  0.0320 -0.0439
  670MOL0     C90319   1.555   5.002   8.040 -0.5508  0.0648  0.9556
  670MOL0     C90320   1.470   5.046   7.935 -0.0794  0.8434  0.0635
  670MOL0     C90321   1.335   5.041   7.956  0.3817 -0.0507 -0.1113
  670MOL0     C90322   1.275   4.998   8.077  0.1480  0.7613 -0.2063
  670MOL0     O90323   1.136   4.997   8.097  0.3555 -0.0005 -1.0315
  670MOL0     C90324   1.079   4.893   8.024  0.2004 -0.4115  0.6255
  670MOL0     C90325   0.994   4.812   8.125 -0.7606 -1.0768  0.2324
  670MOL0     C90326   0.853   4.868   8.161  0.0022  0.1032  0.0103
  670MOL0     C90327   0.840   4.983   8.260 -0.2503  0.6944  0.1336
  670MOL0     C90328   0.688   5.039   8.283 -0.7085  0.2743 -0.2120
  670MOL0     C90329   0.601   4.944   8.380 -0.2643 -0.2143 -0.0569
  670MOL0     C90330   0.469   5.006   8.427 -0.7688 -0.6660 -0.0021
  670MOL0     C90331   0.404   4.905   8.517  0.9779 -0.7502  0.8887
  670MOL0     N90332   0.284   4.958   8.569  0.4132  0.1856  0.1036
  670MOL0     C90333   0.224   4.912   8.687 -0.5325  0.7777  0.2156
  670MOL0     C90334   0.104   4.973   8.696  0.8551 -1.1693  0.1421
  670MOL0     C90335   0.009   4.943   8.806 -0.3684  0.2469 -0.4852
  670MOL0     C90336  -0.133   4.928   8.756 -0.5188 -0.1804  0.0154
  670MOL0     C90337  -0.168   4.821   8.658  0.7573 -0.0101  0.1206
  670MOL0     C90338  -0.319   4.803   8.621 -0.1911  0.0770  0.0731
  670MOL0     O90339  -0.374   4.929   8.563  0.5583  0.2112  0.5434
  670MOL0     C90340  -0.499   4.925   8.512  0.5053 -0.0721 -0.0431
  670MOL0     C90341  -0.556   5.033   8.448  0.5705  1.0008  0.1558
  670MOL0     C90342  -0.692   5.034   8.394 -0.7872  0.5062 -0.1531
  670MOL0     C90343  -0.719   5.158   8.312  0.5114  0.2861 -0.3836
  670MOL0     C90344  -0.783   4.926   8.408 -0.8831 -0.4781 -0.0372
  670MOL0     C90345  -0.919   4.926   8.359  0.3433 -0.9860 -0.2959
  670MOL0     O90346  -0.996   4.825   8.402 -0.3382  0.1738 -0.5078
  670MOL0     C90347  -1.131   4.829   8.385  0.1193 -0.5121  0.5494
  670MOL0     C90348  -1.208   4.871   8.491 -0.2167 -0.0629  0.7591
  670MOL0     C90349  -1.349   4.880   8.475  0.0731  0.2639  0.2928
  670MOL0     C90350  -1.408   4.841   8.347 -0.9025 -0.3855  0.7403
  670MOL0     O90351  -1.542   4.826   8.318  0.2304 -0.3426  0.5207
  670MOL0     C90352  -1.632   4.818   8.429 -0.6698  0.9230 -0.1296
  670MOL0     C90353  -1.783   4.799   8.385 -0.1358  0.2627 -0.0095
  670MOL0     C90354  -1.887   4.782   8.506 -0.5879  0.3051  0.2610
  670MOL0     C90355  -2.028   4.789   8.441 -0.1275 -0.6536  0.3369
  670MOL0     C90356  -2.124   4.838   8.545  0.2972  0.3382  0.0357
  670MOL0     C90357  -2.257   4.891   8.486  0.7624 -0.3132 -0.2112
  670MOL0     C90358  -2.357   4.924   8.593  0.9929 -0.4443 -0.1011
  670MOL0     C90359  -2.476   5.011   8.538 -0.2613  0.2904  0.1087
  670MOL0    Cl90360  -2.532   4.941   8.381 -0.1411  0.5195  0.1879
  670MOL0     C90361  -1.330   4.801   8.237  0.5723 -0.4996 -0.1435
  670MOL0     C90362  -1.184   4.796   8.257  0.4162  0.6722  0.0438
  670MOL0     O90363  -0.957   5.014   8.283  0.2655  0.2096 -0.0482
  670MOL0     C90364  -0.716   4.816   8.463  0.4002 -0.9594  0.0120
  670MOL0     C90365  -0.581   4.812   8.512  0.7276 -1.3497  0.2597
  670MOL0     N90366   0.096   5.067   8.589  0.2980  0.2530 -0.3672
  670MOL0     N90367   0.207   5.058   8.528  0.5060 -0.1207 -0.6019
  670MOL0     C90368   1.354   4.944   8.176  1.0914  0.7579  0.7901
  670MOL0     C90369   1.495   4.958   8.160  0.3538 -0.8498  0.5300
  670MOL0     C90370   1.915   4.971   7.924 -0.5998  0.1077 -0.4242
  670MOL0     C90371   1.976   4.973   7.802 -0.8803  1.0342 -0.1932
  670MOL0     C90372   2.111   5.006   7.803  0.2938 -0.5692 -0.0173
  670MOL0     C90373   2.186   5.044   7.918 -0.4927 -0.5424  0.3359
  670MOL0     O90374   2.318   5.079   7.905 -0.2622  0.1915  0.4935
  670MOL0     C90375   2.398   5.054   8.023 -0.4957  1.0227 -0.6601
  670MOL0     C90376   2.539   5.082   7.996  0.0419 -0.0596  0.0306
  670MOL0     C90377   2.595   4.976   7.890  0.0646  0.5860 -0.4309
  670MOL0     C90378   2.703   5.036   7.818 -1.0121 -0.5851  0.4038
  670MOL0     C90379   2.767   4.927   7.737 -0.1880  0.3502 -0.2660
  670MOL0     C90380   2.823   4.834   7.680 -0.2604  0.4389  0.6217
  670MOL0     C90381   2.121   5.032   8.039 -0.4415 -0.0027  0.1781
  670MOL0     C90382   1.984   4.991   8.046  0.0092 -0.3199 -0.5560
  670MOL0     H90383   1.515   5.078   7.841  0.9236  2.7797  1.1263
  670MOL0     H90384   1.257   5.072   7.887 -0.3925  0.6865  1.0618
  670MOL0     H90385   1.008   4.931   7.950 -1.3855 -1.2438  1.6629
  670MOL0     H90386   1.153   4.832   7.970  1.3395  1.0050  0.5493
  670MOL0     H90387   0.968   4.712   8.090 -2.1622 -1.3350  1.8848
  670MOL0     H90388   1.051   4.797   8.217 -0.2395  0.5548  0.2085
  670MOL0     H90389   0.806   4.898   8.067  1.3438  0.5942 -0.5274
  670MOL0     H90390   0.793   4.786   8.201 -0.0561  1.4353  2.9055
  670MOL0     H90391   0.886   4.945   8.352  1.1595  1.1166 -0.3794
  670MOL0     H90392   0.909   5.062   8.227 -0.7279  1.0001 -0.1533
  670MOL0     H90393   0.701   5.137   8.328  2.1305 -1.2027  2.5525
  670MOL0     H90394   0.642   5.061   8.186 -1.4265  1.7775  0.4434
  670MOL0     H90395   0.595   4.855   8.317  0.5761  0.3246 -0.9155
  670MOL0     H90396   0.661   4.936   8.471 -1.9731  3.0368  1.5471
  670MOL0     H90397   0.486   5.103   8.474  0.8000 -0.1463 -1.5343
  670MOL0     H90398   0.408   5.034   8.340  0.8871  2.3767 -0.3197
  670MOL0     H90399   0.468   4.886   8.604  0.4101  0.1696  1.5280
  670MOL0     H90400   0.386   4.809   8.468  0.0854  0.1482 -0.6098
  670MOL0     H90401   0.269   4.833   8.747  1.1119 -1.2130 -3.2858
  670MOL0     H90402   0.040   4.856   8.864 -0.3880  1.7588  1.9716
  670MOL0     H90403   0.011   5.029   8.875  2.9741 -0.9212  1.0565
  670MOL0     H90404  -0.158   5.025   8.712 -1.2922  0.1705  1.1673
  670MOL0     H90405  -0.197   4.926   8.844 -0.2689 -0.1891  0.1987
  670MOL0     H90406  -0.143   4.722   8.700 -1.0164 -1.8090 -2.7149
  670MOL0     H90407  -0.108   4.836   8.568  1.7092  0.4624  0.8201
  670MOL0     H90408  -0.371   4.776   8.713 -2.9711 -1.1131 -1.7104
  670MOL0     H90409  -0.327   4.725   8.544 -0.8231 -0.9184  1.1244
  670MOL0     H90410  -0.493   5.121   8.447  1.8382  0.1304 -0.9446
  670MOL0     H90411  -0.619   5.198   8.290  0.0998  2.2557  1.0612
  670MOL0     H90412  -0.765   5.131   8.217 -0.1839 -0.2221  0.0864
  670MOL0     H90413  -0.769   5.238   8.367  1.0213  1.5973 -1.7810
  670MOL0     H90414  -1.168   4.897   8.588 -1.4412  0.3128  1.1894
  670MOL0     H90415  -1.417   4.907   8.555  0.8976 -0.2145  1.1831
  670MOL0     H90416  -1.597   4.730   8.484  0.9800  2.4456  1.3825
  670MOL0     H90417  -1.621   4.904   8.495 -0.0478  0.2974  0.5919
  670MOL0     H90418  -1.820   4.887   8.331  2.5112  3.6963  3.2206
  670MOL0     H90419  -1.776   4.712   8.320 -2.2397 -0.2824  0.4183
  670MOL0     H90420  -1.864   4.868   8.570 -2.2314 -0.1368  1.5188
  670MOL0     H90421  -1.882   4.691   8.566 -0.9713  2.3218  3.6315
  670MOL0     H90422  -2.029   4.859   8.357 -0.7153  0.4681  1.2566
  670MOL0     H90423  -2.056   4.688   8.407  1.7007 -1.0386 -0.1268
  670MOL0     H90424  -2.083   4.908   8.617 -2.0253  1.5862  0.2507
  670MOL0     H90425  -2.147   4.753   8.611  0.4152 -1.1892 -1.7859
  670MOL0     H90426  -2.238   4.984   8.431  0.2994 -0.5880 -0.8559
  670MOL0     H90427  -2.302   4.813   8.424  0.3189 -0.3636  0.1706
  670MOL0     H90428  -2.313   4.979   8.677  0.6381  0.0563 -0.2376
  670MOL0     H90429  -2.405   4.834   8.633  2.0645 -0.8472  0.3203
  670MOL0     H90430  -2.447   5.113   8.511 -1.4940  0.0770 -2.2069
  670MOL0     H90431  -2.560   5.009   8.609  0.1403  1.7002  0.6498
  670MOL0     H90432  -1.377   4.780   8.141 -0.6927  0.6269  0.2140
  670MOL0     H90433  -1.120   4.776   8.172  0.5821  0.0301  0.3205
  670MOL0     H90434  -0.779   4.728   8.466 -1.5598  0.1345 -3.8220
  670MOL0     H90435  -0.548   4.724   8.566  2.1794  1.6578  4.8762
  670MOL0     H90436   1.303   4.920   8.269  0.3125  2.9189  0.9894
  670MOL0     H90437   1.554   4.916   8.241  1.2784 -3.3677 -1.3083
  670MOL0     H90438   1.925   4.955   7.709  1.7609 -1.6252 -1.2774
  670MOL0     H90439   2.159   5.018   7.706  0.7771  1.2383  0.3925
  670MOL0     H90440   2.370   5.117   8.108 -0.4017 -0.5530  0.5778
  670MOL0     H90441   2.393   4.947   8.046 -2.0843  1.5611  1.9177
  670MOL0     H90442   2.609   5.069   8.079 -0.9882 -0.3182  0.8869
  670MOL0     H90443   2.551   5.185   7.960  5.1878 -1.0072 -1.8398
  670MOL0     H90444   2.506   4.958   7.828 -1.7646  1.3574  1.8027
  670MOL0     H90445   2.621   4.885   7.944 -1.0034  0.1378 -0.6375
  670MOL0     H90446   2.772   5.073   7.894  1.6208 -2.3153 -0.9967
  670MOL0     H90447   2.673   5.117   7.751 -2.2499 -0.5317  0.9866
  670MOL0     H90448   2.879   4.763   7.623  0.4330 -0.1975  2.0330
  670MOL0     H90449   2.173   5.036   8.134 -2.9460  2.6266  1.5866
  670MOL0     H90450   1.935   4.984   8.142 -3.2048  0.6119 -1.9894
  671MOL0     O90451   3.783   6.173   6.050  0.5959  0.2941  0.0561
  671MOL0     C90452   3.866   6.135   6.139  0.3867 -0.1425  0.5627
  671MOL0     O90453   3.839   6.070   6.253 -0.2687 -0.0434 -0.3126
  671MOL0     C90454   3.706   6.040   6.277 -1.0272 -0.6998  0.9720
  671MOL0     C90455   3.631   6.114   6.362  0.0441  0.6188 -0.2039
  671MOL0     C90456   3.486   6.100   6.360 -0.0929  0.1503 -0.4088
  671MOL0     C90457   3.421   5.996   6.285  0.8718  0.9983 -0.1793
  671MOL0     O90458   3.287   5.958   6.301 -0.0135  0.0730 -0.2300
  671MOL0     C90459   3.212   6.040   6.387 -0.0613  0.4606  0.1059
  671MOL0     C90460   3.077   5.979   6.414  0.0041  0.1686 -0.2259
  671MOL0     C90461   2.970   6.007   6.319  0.2482  0.1838 -0.6193
  671MOL0     C90462   2.832   5.945   6.365 -0.6861 -0.3242  0.1661
  671MOL0     C90463   2.743   5.940   6.242  0.4646  0.4783  0.7576
  671MOL0     C90464   2.601   5.891   6.281  1.1898 -0.2682  1.0515
  671MOL0     C90465   2.514   5.900   6.148 -0.4593 -0.1625 -0.8098
  671MOL0     C90466   2.386   5.827   6.173 -0.1731 -0.0305 -0.1309
  671MOL0     N90467   2.295   5.821   6.055 -0.0918 -0.0059 -0.1168
  671MOL0     C90468   2.256   5.713   5.965 -0.5846  0.5861 -0.9622
  671MOL0     C90469   2.162   5.767   5.883 -0.3502  0.3124 -0.6326
  671MOL0     C90470   2.110   5.692   5.760 -0.6503  0.3034 -0.7305
  671MOL0     C90471   2.005   5.746   5.670  1.0589  0.0928 -0.1096
  671MOL0     C90472   1.877   5.797   5.744  0.6283 -0.7561  0.0800
  671MOL0     C90473   1.813   5.687   5.821 -0.0787  0.9466 -0.3972
  671MOL0     O90474   1.670   5.709   5.829  0.0443 -0.5450  0.6269
  671MOL0     C90475   1.572   5.619   5.863 -0.2258  0.2261  0.6759
  671MOL0     C90476   1.437   5.661   5.849 -0.4067 -0.2287  0.4281
  671MOL0     C90477   1.334   5.574   5.888  0.2220  0.3513 -0.6459
  671MOL0     C90478   1.203   5.628   5.851  0.3322 -0.2734 -0.6943
  671MOL0     C90479   1.361   5.437   5.928  1.1822 -1.5291  0.4045
  671MOL0     C90480   1.250   5.337   5.944 -0.3255  0.6323 -0.1693
  671MOL0     O90481   1.278   5.207   5.916  0.2522  0.1141  0.4511
  671MOL0     C90482   1.177   5.111   5.904  0.0264 -0.6383  0.3552
  671MOL0     C90483   1.190   4.986   5.958  0.6992  0.1032  0.0653
  671MOL0     C90484   1.085   4.896   5.967 -0.3439  0.6221 -0.8688
  671MOL0     C90485   0.967   4.923   5.912 -0.0355  0.5372 -0.0648
  671MOL0     O90486   0.869   4.835   5.916 -0.0827 -0.4082  0.0051
  671MOL0     C90487   0.783   4.862   6.027 -0.1686 -0.5592  0.4921
  671MOL0     C90488   0.654   4.787   5.994  0.9798 -0.2563  0.3698
  671MOL0     C90489   0.572   4.867   5.885  0.0275  0.4628  0.7896
  671MOL0     C90490   0.449   4.792   5.837  0.5116 -0.5877 -0.4807
  671MOL0     C90491   0.316   4.823   5.910 -0.7365 -0.1586 -0.2331
  671MOL0     C90492   0.192   4.748   5.869  0.1622 -0.0543 -0.1840
  671MOL0     C90493   0.218   4.594   5.864  0.4454  0.0029 -0.4524
  671MOL0     C90494   0.089   4.518   5.864 -0.0416  0.2439 -0.9360
  671MOL0    Cl90495   0.004   4.549   5.715  0.2169  0.3907  0.0244
  671MOL0     C90496   0.945   5.051   5.848  0.0300 -0.0030 -0.6413
  671MOL0     C90497   1.047   5.149   5.843 -0.1039 -0.6535  0.0034
  671MOL0     O90498   1.150   5.375   6.008 -0.2125  0.2851  0.4235
  671MOL0     C90499   1.497   5.403   5.939  0.2832 -0.0387 -0.8378
  671MOL0     C90500   1.597   5.493   5.902 -0.3720 -0.1559 -0.4654
  671MOL0     N90501   2.144   5.898   5.918 -0.0746  0.0673 -0.5992
  671MOL0     N90502   2.218   5.929   6.021 -0.0175 -0.4390 -0.8002
  671MOL0     C90503   3.502   5.910   6.213  0.0331 -0.0527  0.2711
  671MOL0     C90504   3.640   5.939   6.204  0.4771 -0.5473 -0.1017
  671MOL0     C90505   4.006   6.179   6.114  0.4157 -0.3590 -0.4887
  671MOL0     C90506   4.072   6.252   6.219 -0.4460 -0.0910  0.5481
  671MOL0     C90507   4.205   6.300   6.206 -0.7109 -0.2379 -0.7217
  671MOL0     C90508   4.273   6.278   6.087 -0.4995 -0.3718 -0.6553
  671MOL0     O90509   4.405   6.320   6.083 -0.1687 -0.8595  0.6335
  671MOL0     C90510   4.451   6.382   5.963  0.4211 -0.2991 -0.7363
  671MOL0     C90511   4.563   6.294   5.913 -0.5118  0.8087 -0.1937
  671MOL0     C90512   4.641   6.352   5.796  0.0113 -0.4796 -0.0015
  671MOL0     C90513   4.705   6.486   5.830 -0.6388 -0.5552  0.1750
  671MOL0     C90514   4.800   6.519   5.723  0.0307 -0.3795  0.2691
  671MOL0     C90515   4.874   6.526   5.631  0.0280 -0.2954 -0.8874
  671MOL0     C90516   4.207   6.218   5.977 -0.0301  0.2343 -0.3922
  671MOL0     C90517   4.078   6.166   5.992 -0.0375 -0.6050  0.2818
  671MOL0     H90518   3.681   6.187   6.423  0.0075 -1.2148  2.1435
  671MOL0     H90519   3.431   6.179   6.410  2.2555  1.7515 -0.1776
  671MOL0     H90520   3.264   6.045   6.483 -0.1656  0.5561  0.1571
  671MOL0     H90521   3.205   6.140   6.343  1.3488  0.2670 -0.6005
  671MOL0     H90522   3.088   5.870   6.416 -1.0929  0.0202 -1.1399
  671MOL0     H90523   3.040   6.006   6.513 -1.0948 -2.2606  0.1197
  671MOL0     H90524   2.963   6.116   6.317  0.2558  0.2173  0.4734
  671MOL0     H90525   3.000   5.965   6.222  2.5039  0.0892  0.0589
  671MOL0     H90526   2.841   5.844   6.405  0.2912 -0.8287 -1.2281
  671MOL0     H90527   2.783   6.013   6.435 -2.4198 -0.2785 -1.0210
  671MOL0     H90528   2.736   6.042   6.203 -0.5102  0.9178  2.0238
  671MOL0     H90529   2.775   5.875   6.159 -1.6532  2.8963 -2.1454
  671MOL0     H90530   2.617   5.788   6.317 -0.6305 -1.5099 -1.4071
  671MOL0     H90531   2.558   5.956   6.358  1.6833 -0.5779  1.6027
  671MOL0     H90532   2.509   6.003   6.113  1.4824  0.3817  0.3609
  671MOL0     H90533   2.572   5.851   6.069 -2.0412  0.1217 -2.2091
  671MOL0     H90534   2.331   5.880   6.251 -2.2504 -0.7098 -1.0504
  671MOL0     H90535   2.406   5.727   6.212 -1.0162  1.2827  4.1413
  671MOL0     H90536   2.311   5.619   5.963  0.8299  1.3636 -0.6301
  671MOL0     H90537   2.195   5.687   5.692 -0.2285 -0.6539 -0.1647
  671MOL0     H90538   2.081   5.591   5.793 -2.4138  0.5182 -1.5025
  671MOL0     H90539   1.987   5.661   5.604 -0.1342 -1.3730  1.9818
  671MOL0     H90540   2.033   5.837   5.616  0.2967  0.4859  0.1314
  671MOL0     H90541   1.809   5.853   5.680 -0.4524  0.8419  2.5186
  671MOL0     H90542   1.916   5.867   5.818  0.1722  0.2335 -0.5911
  671MOL0     H90543   1.847   5.687   5.925 -0.8390  2.4109 -0.1041
  671MOL0     H90544   1.839   5.588   5.783 -3.8390  0.6306 -2.6969
  671MOL0     H90545   1.408   5.762   5.822  1.5693  1.2468  3.2844
  671MOL0     H90546   1.155   5.681   5.934  3.3814 -2.5544  2.8671
  671MOL0     H90547   1.208   5.687   5.759 -0.2927  1.7050  0.4831
  671MOL0     H90548   1.140   5.543   5.825  1.1371 -1.8116  1.9579
  671MOL0     H90549   1.275   4.975   6.025 -0.1884  1.1717  1.4038
  671MOL0     H90550   1.105   4.797   6.005 -1.8338  0.0870 -1.4241
  671MOL0     H90551   0.834   4.818   6.114  0.2106 -4.3219 -1.4121
  671MOL0     H90552   0.768   4.969   6.043 -1.7523 -0.4804 -1.1836
  671MOL0     H90553   0.673   4.684   5.964 -0.0948 -0.2153 -0.5137
  671MOL0     H90554   0.589   4.785   6.081  0.0571 -0.2251 -0.3074
  671MOL0     H90555   0.638   4.878   5.798  0.1972 -0.6706  0.7602
  671MOL0     H90556   0.544   4.969   5.913  1.7560  0.8055  1.3719
  671MOL0     H90557   0.436   4.827   5.734 -1.3564 -0.5764 -0.2683
  671MOL0     H90558   0.483   4.688   5.847  2.0608  0.1333  3.6425
  671MOL0     H90559   0.299   4.928   5.883 -1.4834 -0.2869 -0.2901
  671MOL0     H90560   0.332   4.810   6.017 -1.2130 -0.5721 -0.2080
  671MOL0     H90561   0.118   4.778   5.944  2.2361  4.1681  0.4743
  671MOL0     H90562   0.182   4.791   5.768  1.8110  2.7330  0.7122
  671MOL0     H90563   0.291   4.547   5.931 -0.8917  0.1997  1.2036
  671MOL0     H90564   0.255   4.583   5.762 -1.3996  1.3084 -1.3116
  671MOL0     H90565   0.029   4.539   5.953 -4.2929 -0.1696 -3.4628
  671MOL0     H90566   0.109   4.411   5.864 -1.1957 -0.0210 -3.0000
  671MOL0     H90567   0.846   5.075   5.812 -0.9555 -0.7427  1.4065
  671MOL0     H90568   1.024   5.240   5.790  0.2161  0.0302  1.0119
  671MOL0     H90569   1.523   5.300   5.964 -1.0973 -0.6708 -1.9182
  671MOL0     H90570   1.700   5.465   5.925 -0.2028  1.3923  0.8681
  671MOL0     H90571   3.459   5.825   6.161 -0.0153  0.8046 -1.1613
  671MOL0     H90572   3.691   5.869   6.139  0.4782  1.4704 -2.3958
  671MOL0     H90573   4.027   6.269   6.316  2.0740  1.4581  1.5506
  671MOL0     H90574   4.255   6.357   6.284  1.6716 -1.3140 -1.3532
  671MOL0     H90575   4.371   6.402   5.891  1.4666  4.4645 -0.9632
  671MOL0     H90576   4.483   6.484   5.988 -2.7168  0.9476 -1.3125
  671MOL0     H90577   4.531   6.196   5.875 -0.2954 -0.0082  1.6305
  671MOL0     H90578   4.636   6.276   5.992 -0.7305  2.0113  0.2999
  671MOL0     H90579   4.576   6.370   5.710 -1.2728 -2.9505  0.3602
  671MOL0     H90580   4.718   6.280   5.770  0.4003 -0.9078  2.1569
  671MOL0     H90581   4.770   6.483   5.918 -1.5789 -2.0759  0.8666
  671MOL0     H90582   4.633   6.568   5.838  1.9415  2.3050 -3.0890
  671MOL0     H90583   4.943   6.522   5.550  2.8446 -2.1213  1.3987
  671MOL0     H90584   4.267   6.215   5.887 -1.4648  0.7891 -1.4107
  671MOL0     H90585   4.034   6.116   5.906  1.4502 -1.5188  0.0110
  672MOL0     O90586   1.505   5.747   9.097 -0.1215 -0.2889 -0.0402
  672MOL0     C90587   1.424   5.840   9.112  0.9034 -0.0365 -0.5831
  672MOL0     O90588   1.459   5.968   9.109  0.8724  0.5412  0.0372
  672MOL0     C90589   1.588   6.004   9.082  0.4205 -0.0147 -0.6413
  672MOL0     C90590   1.649   5.981   8.968  0.2100  0.0403 -0.5713
  672MOL0     C90591   1.782   6.012   8.948 -0.7886 -0.3728  0.2669
  672MOL0     C90592   1.853   6.088   9.040  0.1440 -0.0798 -0.9257
  672MOL0     O90593   1.974   6.147   9.020 -0.4573 -0.2412 -0.2029
  672MOL0     C90594   2.063   6.063   8.943 -0.8596 -0.0248 -0.6893
  672MOL0     C90595   2.194   6.139   8.927 -0.5339  0.2272  0.6082
  672MOL0     C90596   2.302   6.085   8.837 -0.0442  0.5127  0.4967
  672MOL0     C90597   2.418   6.181   8.821  0.1111 -0.3937  0.5262
  672MOL0     C90598   2.516   6.135   8.716  0.1851  0.3529 -0.7501
  672MOL0     C90599   2.650   6.211   8.728 -0.4618  0.0183  0.1317
  672MOL0     C90600   2.748   6.161   8.615  0.0034 -0.3474 -0.0653
  672MOL0     C90601   2.887   6.235   8.615  0.4252 -0.1389 -0.8381
  672MOL0     N90602   2.963   6.212   8.737 -0.4391  0.1453  0.3721
  672MOL0     C90603   3.014   6.085   8.771 -0.1118  0.4821  0.9679
  672MOL0     C90604   3.084   6.114   8.881 -0.4815 -0.5748 -0.4192
  672MOL0     C90605   3.176   6.033   8.963 -0.4981  0.2400 -0.8206
  672MOL0     C90606   3.288   6.112   9.033  0.3969  0.8580 -0.0698
  672MOL0     C90607   3.379   6.025   9.118  0.0750  1.5267 -0.6081
  672MOL0     C90608   3.301   5.960   9.226 -0.4375 -0.0064 -0.9018
  672MOL0     O90609   3.386   5.870   9.314 -0.3222 -0.0144  0.0190
  672MOL0     C90610   3.320   5.811   9.424  0.4782  0.4793  0.3484
  672MOL0     C90611   3.376   5.696   9.479 -0.2105 -0.5237  0.0300
  672MOL0     C90612   3.332   5.638   9.600 -0.5134  0.3835  0.4831
  672MOL0     C90613   3.390   5.510   9.643  0.2593 -0.5102 -0.4671
  672MOL0     C90614   3.220   5.703   9.668 -0.7607 -0.3732 -0.5749
  672MOL0     C90615   3.172   5.667   9.802 -0.1131 -0.1749  0.2022
  672MOL0     O90616   3.044   5.690   9.834  0.3780 -0.2559  0.1371
  672MOL0     C90617   2.998   5.633   9.954 -0.0783  0.3044 -1.5418
  672MOL0     C90618   3.033   5.701  10.072  0.3227 -0.3702 -0.8606
  672MOL0     C90619   2.975   5.661  10.193 -0.3361  0.6143 -0.1925
  672MOL0     C90620   2.871   5.570  10.197  1.6096  0.3547 -0.3681
  672MOL0     O90621   2.819   5.554  10.326  0.1228  0.4095  0.4607
  672MOL0     C90622   2.736   5.429  10.342  0.4467 -0.2932  0.2652
  672MOL0     C90623   2.739   5.376  10.479 -0.2942 -0.2050 -0.3572
  672MOL0     C90624   2.678   5.481  10.584 -0.1044 -0.0989 -0.4088
  672MOL0     C90625   2.672   5.422  10.725  0.1972  0.2049  1.0704
  672MOL0     C90626   2.778   5.465  10.825 -0.7631  0.5538 -0.4066
  672MOL0     C90627   2.773   5.380  10.949 -0.2308  0.2801 -0.0294
  672MOL0     C90628   2.870   5.411  11.065 -0.7062  0.6116  0.2526
  672MOL0     C90629   2.917   5.289  11.133 -1.2330  0.1153 -0.7178
  672MOL0    Cl90630   2.772   5.211  11.210 -0.4398 -0.2650 -0.0839
  672MOL0     C90631   2.831   5.510  10.080  0.9540  1.2916  0.4165
  672MOL0     C90632   2.904   5.535   9.959 -1.1012  0.0909 -0.1351
  672MOL0     O90633   3.254   5.606   9.867 -0.0805  0.1258 -0.3183
  672MOL0     C90634   3.157   5.804   9.599  0.6799 -1.6565  0.2065
  672MOL0     C90635   3.200   5.857   9.474 -0.3137 -0.3507  0.6214
  672MOL0     N90636   3.054   6.241   8.920 -0.3506  0.2755 -0.3300
  672MOL0     N90637   2.975   6.307   8.837 -0.3365  0.3026 -1.2989
  672MOL0     C90638   1.787   6.133   9.155  0.9584  0.1122 -0.0761
  672MOL0     C90639   1.659   6.081   9.179  0.1612 -0.0747 -0.3295
  672MOL0     C90640   1.275   5.813   9.131 -0.6338 -0.0428  0.1764
  672MOL0     C90641   1.221   5.698   9.081 -0.4690  0.0475  0.2063
  672MOL0     C90642   1.084   5.669   9.101 -0.4478 -0.4685 -1.2991
  672MOL0     C90643   1.003   5.758   9.178  0.5165 -0.1086  0.9645
  672MOL0     O90644   0.874   5.723   9.190 -0.5538  0.2045 -0.4404
  672MOL0     C90645   0.784   5.817   9.258 -0.8862 -0.4867  0.1354
  672MOL0     C90646   0.644   5.752   9.252 -0.2948  0.2831 -0.5870
  672MOL0     C90647   0.592   5.749   9.115 -0.3807 -0.4041 -0.2721
  672MOL0     C90648   0.443   5.698   9.137  0.4230 -0.1867  0.3226
  672MOL0     C90649   0.365   5.711   9.014  0.1023 -0.3426  0.2190
  672MOL0     C90650   0.284   5.703   8.924 -0.6189  0.1778 -0.2968
  672MOL0     C90651   1.060   5.875   9.233  0.3194 -0.2184  1.1522
  672MOL0     C90652   1.191   5.903   9.199  0.3989  0.1194  0.1001
  672MOL0     H90653   1.592   5.932   8.890 -3.3429  2.4079  0.2696
  672MOL0     H90654   1.818   5.974   8.853 -1.2803  0.8405 -0.4256
  672MOL0     H90655   2.088   5.970   8.995  0.0221 -0.0079 -1.0761
  672MOL0     H90656   2.033   6.037   8.841 -1.8109 -2.0708  0.0507
  672MOL0     H90657   2.161   6.234   8.883  0.3208 -0.9072 -2.7481
  672MOL0     H90658   2.238   6.149   9.027  0.6368 -1.1280  0.2623
  672MOL0     H90659   2.327   5.992   8.888 -0.3618  2.0817  3.7434
  672MOL0     H90660   2.258   6.050   8.743 -0.0547 -2.1590  1.4089
  672MOL0     H90661   2.381   6.280   8.791  0.3706 -0.2089  0.8040
  672MOL0     H90662   2.480   6.194   8.910 -1.9719  1.7183  1.7719
  672MOL0     H90663   2.544   6.030   8.728  0.9613  0.7317  1.0500
  672MOL0     H90664   2.477   6.142   8.615 -0.2254 -0.8243 -0.6910
  672MOL0     H90665   2.622   6.316   8.717 -0.0784  0.1270  0.1930
  672MOL0     H90666   2.690   6.208   8.830 -4.1342 -0.9483  1.7237
  672MOL0     H90667   2.781   6.058   8.634  0.4114 -0.3658 -0.7988
  672MOL0     H90668   2.698   6.174   8.518  0.1397  2.8230  0.1931
  672MOL0     H90669   2.872   6.343   8.601  0.7664 -0.0854 -0.8164
  672MOL0     H90670   2.946   6.213   8.525 -0.3571  0.0081 -1.3964
  672MOL0     H90671   3.017   5.995   8.711  2.0520 -1.8581  4.2703
  672MOL0     H90672   3.119   5.981   9.041  2.5825 -0.4110  1.1919
  672MOL0     H90673   3.221   5.951   8.907  1.4456  1.1557 -0.6943
  672MOL0     H90674   3.233   6.190   9.086 -1.6029  0.2674 -1.1465
  672MOL0     H90675   3.356   6.161   8.964  0.5676  0.7048 -0.0142
  672MOL0     H90676   3.466   6.082   9.153  2.8598 -2.6378  0.0916
  672MOL0     H90677   3.422   5.950   9.051  0.7651  0.9886  0.4169
  672MOL0     H90678   3.223   5.891   9.193  2.1726 -2.1311 -3.0109
  672MOL0     H90679   3.248   6.042   9.276 -2.5718 -2.5166  1.2679
  672MOL0     H90680   3.470   5.663   9.436  0.0306 -1.4097  1.1691
  672MOL0     H90681   3.456   5.463   9.569  0.7900 -1.1598  0.4047
  672MOL0     H90682   3.449   5.535   9.731  0.9878 -0.4130 -0.9773
  672MOL0     H90683   3.302   5.453   9.672  0.0505  0.0756  0.0661
  672MOL0     H90684   3.097   5.788  10.067 -1.5607  1.3424  1.8254
  672MOL0     H90685   3.006   5.712  10.283  0.9336  1.9583 -1.3257
  672MOL0     H90686   2.637   5.458  10.304  1.7640  1.1983 -2.2844
  672MOL0     H90687   2.776   5.352  10.276 -0.1558  0.4577 -1.0243
  672MOL0     H90688   2.676   5.287  10.484 -1.1176  0.4130  0.8267
  672MOL0     H90689   2.842   5.359  10.510  0.1368  0.1497 -1.5368
  672MOL0     H90690   2.580   5.509  10.545 -0.0472  0.6324 -0.0381
  672MOL0     H90691   2.736   5.573  10.586  1.8903 -1.2731 -1.0298
  672MOL0     H90692   2.572   5.440  10.767 -0.2112 -1.6328  0.9733
  672MOL0     H90693   2.676   5.313  10.719  2.1635  0.2015  1.7958
  672MOL0     H90694   2.768   5.572  10.849  3.4238  1.2460 -1.1112
  672MOL0     H90695   2.882   5.457  10.793 -0.3371 -2.5387  1.3859
  672MOL0     H90696   2.673   5.387  10.993 -0.7822  3.2180 -1.5085
  672MOL0     H90697   2.785   5.273  10.927  0.1370  0.4184 -0.5061
  672MOL0     H90698   2.824   5.464  11.149  1.3258 -0.1554  1.9418
  672MOL0     H90699   2.958   5.461  11.024  0.0403 -2.6019 -2.4607
  672MOL0     H90700   3.001   5.309  11.200 -1.4241 -2.0224  0.2458
  672MOL0     H90701   2.957   5.217  11.061 -0.1754 -0.1249  0.0736
  672MOL0     H90702   2.735   5.462  10.066 -0.2844  3.4315  1.2151
  672MOL0     H90703   2.875   5.479   9.870  1.1067 -3.6352  1.2195
  672MOL0     H90704   3.070   5.846   9.648  1.7304 -0.6921  1.3247
  672MOL0     H90705   3.147   5.943   9.435  1.4504  0.8290  0.6843
  672MOL0     H90706   1.838   6.191   9.232  3.5436 -0.5887 -1.1433
  672MOL0     H90707   1.601   6.119   9.263 -1.8422  0.0045 -1.6767
  672MOL0     H90708   1.284   5.634   9.020 -0.0263 -1.6312  2.2753
  672MOL0     H90709   1.027   5.579   9.080  1.4918 -1.7025 -1.6021
  672MOL0     H90710   0.813   5.827   9.363  0.6412 -0.4672 -0.2664
  672MOL0     H90711   0.763   5.915   9.213 -3.1695 -0.8300  0.3506
  672MOL0     H90712   0.570   5.797   9.318  1.1152 -0.3936  1.5778
  672MOL0     H90713   0.652   5.654   9.299 -0.1783  0.8205  0.5594
  672MOL0     H90714   0.642   5.681   9.044 -0.0307 -1.6552  1.1214
  672MOL0     H90715   0.584   5.849   9.072 -1.2162 -1.0233 -1.6621
  672MOL0     H90716   0.390   5.749   9.218  0.0852  0.6010 -0.3883
  672MOL0     H90717   0.455   5.594   9.169  2.7520  0.7573  2.8932
  672MOL0     H90718   0.223   5.685   8.838 -2.3761  0.7387  0.7900
  672MOL0     H90719   1.002   5.955   9.277 -0.0600  0.5792 -0.7462
  672MOL0     H90720   1.227   6.001   9.230  0.5676  0.2334 -0.4284
  673MOL0     O90721   4.770   9.455   1.695  0.6398  0.0420 -0.2336
  673MOL0     C90722   4.831   9.438   1.593 -0.7082  0.3024  0.1361
  673MOL0     O90723   4.769   9.419   1.473  0.0875 -0.0371  0.0315
  673MOL0     C90724   4.630   9.443   1.469 -0.5051  0.4215 -0.7845
  673MOL0     C90725   4.574   9.561   1.427 -0.2657 -0.1610  0.0513
  673MOL0     C90726   4.441   9.593   1.450  0.2168 -0.0679 -0.4080
  673MOL0     C90727   4.357   9.495   1.505  0.1588  0.7904  0.4617
  673MOL0     O90728   4.226   9.515   1.517 -0.7579  0.1746 -0.1167
  673MOL0     C90729   4.182   9.631   1.592 -0.2119 -0.8065 -0.5514
  673MOL0     C90730   4.037   9.612   1.648  0.0140  0.0304 -0.5137
  673MOL0     C90731   3.933   9.579   1.542 -0.2615  1.0145 -0.8444
  673MOL0     C90732   3.880   9.695   1.452 -1.1577 -0.2210 -0.1626
  673MOL0     C90733   3.733   9.656   1.401 -0.5634  0.5069  0.6853
  673MOL0     C90734   3.677   9.782   1.335 -0.5158  1.6302  0.1398
  673MOL0     C90735   3.525   9.767   1.310 -0.3883 -0.3247  0.0736
  673MOL0     C90736   3.472   9.899   1.246 -0.8718 -0.2780  0.3565
  673MOL0     N90737   3.331   9.918   1.235  0.0813 -0.3107  0.3624
  673MOL0     C90738   3.257   9.900   1.120  0.3841 -0.2185  0.7517
  673MOL0     C90739   3.129   9.918   1.156  0.5077 -0.3486  0.4083
  673MOL0     C90740   3.019   9.921   1.051  0.0275  0.6255  0.1535
  673MOL0     C90741   3.007   9.779   0.995 -0.0620 -0.0132  1.0276
  673MOL0     C90742   2.888   9.764   0.897 -0.2703  0.1045 -0.0635
  673MOL0     C90743   2.748   9.795   0.960  0.3024  0.1541 -0.3746
  673MOL0     O90744   2.653   9.727   0.873 -0.8882 -0.1999  0.0487
  673MOL0     C90745   2.520   9.761   0.902 -0.2867 -0.7473  0.0201
  673MOL0     C90746   2.433   9.688   0.815 -0.6513  1.6618 -1.2174
  673MOL0     C90747   2.297   9.687   0.842  0.3115  0.0776  0.3269
  673MOL0     C90748   2.209   9.605   0.753  0.7218  0.4878  0.3373
  673MOL0     C90749   2.245   9.777   0.945 -0.6567  0.0385 -0.8964
  673MOL0     C90750   2.098   9.799   0.968 -0.3394  0.0570  0.4733
  673MOL0     O90751   2.039   9.928   0.980 -0.2557 -0.2430  0.5209
  673MOL0     C90752   1.908   9.942   1.018 -0.3951  0.1335 -0.4826
  673MOL0     C90753   1.817   9.976   0.918  0.8508  0.2915 -0.2686
  673MOL0     C90754   1.688  10.002   0.969  0.9761  0.2039  1.3874
  673MOL0     C90755   1.643   9.988   1.098 -0.8759 -0.0222 -0.2892
  673MOL0     O90756   1.518  10.016   1.128  0.5875 -0.5629  0.0737
  673MOL0     C90757   1.468   9.969   1.257  0.0996  0.3893 -0.4911
  673MOL0     C90758   1.316  10.004   1.267  0.4505  0.1442 -0.5633
  673MOL0     C90759   1.227   9.945   1.165 -0.3009  0.8089 -0.4020
  673MOL0     C90760   1.081  10.000   1.190 -0.3046  0.1091 -0.5364
  673MOL0     C90761   0.997  10.019   1.061  0.9586 -0.5010  0.4455
  673MOL0     C90762   0.970   9.890   0.977  0.3439  0.1844  0.8172
  673MOL0     C90763   0.852   9.907   0.878  0.1058  0.3860  0.1218
  673MOL0     C90764   0.776   9.776   0.869 -0.3447  0.0000 -0.2114
  673MOL0    Cl90765   0.637   9.816   0.773 -0.1064 -0.1072  0.0951
  673MOL0     C90766   1.741   9.952   1.194  0.4844  0.1052  0.0776
  673MOL0     C90767   1.877   9.932   1.153  0.8561 -0.0772 -0.4264
  673MOL0     O90768   2.043   9.692   0.980 -0.6489  0.2901  0.2119
  673MOL0     C90769   2.333   9.856   1.027  0.0835 -0.2474  0.7382
  673MOL0     C90770   2.467   9.839   1.008  0.3219 -0.5701  0.7210
  673MOL0     N90771   3.126   9.944   1.292 -0.7129 -0.0479  0.3689
  673MOL0     N90772   3.245   9.936   1.340  0.1448  0.1196 -0.8450
  673MOL0     C90773   4.412   9.370   1.530  0.0400 -0.2792 -0.9462
  673MOL0     C90774   4.550   9.345   1.517  0.4664 -0.2758  0.2858
  673MOL0     C90775   4.982   9.433   1.609  0.1036  0.1492  0.1532
  673MOL0     C90776   5.060   9.464   1.494  0.5181  0.2566  0.6572
  673MOL0     C90777   5.201   9.456   1.510  0.1377 -0.0377  0.3198
  673MOL0     C90778   5.257   9.428   1.631 -0.1516  0.0280 -0.3690
  673MOL0     O90779   5.393   9.421   1.610 -0.0141  0.3468 -0.5769
  673MOL0     C90780   5.481   9.369   1.717  0.3989 -0.0347 -0.0399
  673MOL0     C90781   5.476   9.224   1.744 -0.6786  0.4854 -1.1637
  673MOL0     C90782   5.468   9.153   1.610  0.2062  0.0899 -0.1171
  673MOL0     C90783   5.456   9.006   1.638 -0.7040 -0.3588  0.0069
  673MOL0     C90784   5.432   8.920   1.525 -0.2526  0.9194  0.3558
  673MOL0     C90785   5.413   8.843   1.430 -0.2425 -0.0028  0.5444
  673MOL0     C90786   5.176   9.413   1.739 -0.3402  0.8543  0.1028
  673MOL0     C90787   5.042   9.428   1.731  0.5348 -0.7452 -0.1402
  673MOL0     H90788   4.650   9.631   1.394 -0.9597 -0.1061 -1.5119
  673MOL0     H90789   4.402   9.689   1.418 -3.1108 -0.9669  0.5566
  673MOL0     H90790   4.262   9.642   1.666  0.0038  0.4953 -0.9340
  673MOL0     H90791   4.183   9.716   1.523  1.7853 -1.2206 -1.1150
  673MOL0     H90792   4.043   9.547   1.735 -1.4296  1.0010  0.3571
  673MOL0     H90793   4.007   9.700   1.706 -2.9729 -2.7010  2.4977
  673MOL0     H90794   3.974   9.497   1.482 -0.9271 -0.9635  1.2745
  673MOL0     H90795   3.848   9.527   1.587  0.8097 -1.4400 -1.4414
  673MOL0     H90796   3.863   9.786   1.509 -0.2652  0.5878 -1.1669
  673MOL0     H90797   3.958   9.711   1.377 -2.1859 -2.2624 -1.7938
  673MOL0     H90798   3.744   9.573   1.330 -1.3006 -2.4159  3.7540
  673MOL0     H90799   3.668   9.624   1.482 -0.9032  2.3167  1.1531
  673MOL0     H90800   3.680   9.865   1.406 -2.3212 -0.6859  3.1887
  673MOL0     H90801   3.729   9.799   1.240  0.9043  0.7757  0.7401
  673MOL0     H90802   3.509   9.691   1.234  0.3338 -0.4183  0.0132
  673MOL0     H90803   3.469   9.732   1.398 -0.2348 -1.4133 -0.2438
  673MOL0     H90804   3.525   9.917   1.152 -0.8112  0.5630  0.5510
  673MOL0     H90805   3.499   9.972   1.323  0.2243  0.2531 -0.5117
  673MOL0     H90806   3.292   9.859   1.025  2.0380  2.5905  0.0216
  673MOL0     H90807   2.924   9.947   1.099 -1.1891 -1.7291 -0.8269
  673MOL0     H90808   3.031  10.000   0.976 -1.1601 -1.0205 -1.8408
  673MOL0     H90809   3.007   9.709   1.080  0.1050 -0.9965  0.2357
  673MOL0     H90810   3.093   9.748   0.935 -1.7961  0.1225 -1.7144
  673MOL0     H90811   2.889   9.659   0.864 -0.5633 -0.2668  1.0565
  673MOL0     H90812   2.907   9.840   0.822  1.6163 -0.5205 -0.2728
  673MOL0     H90813   2.734   9.903   0.957 -0.7096  0.2172  2.7207
  673MOL0     H90814   2.743   9.762   1.065  2.3752  0.5926 -0.0885
  673MOL0     H90815   2.480   9.618   0.746  1.5566  0.5612  1.2582
  673MOL0     H90816   2.261   9.573   0.662  3.0865 -1.8236  2.3682
  673MOL0     H90817   2.165   9.521   0.807  1.2608 -2.9962 -4.0588
  673MOL0     H90818   2.122   9.663   0.719  0.6637  0.6182  0.7123
  673MOL0     H90819   1.834   9.991   0.812 -1.0956  2.8619 -0.3202
  673MOL0     H90820   1.610  10.036   0.901  0.3669 -0.8467  1.5468
  673MOL0     H90821   1.474   9.860   1.249 -0.7604  0.3715 -1.0338
  673MOL0     H90822   1.528  10.008   1.340  0.9759 -1.9757  0.0728
  673MOL0     H90823   1.284   9.956   1.360  3.4913 -2.0179 -0.4769
  673MOL0     H90824   1.292  10.109   1.285 -1.3921 -0.4404  0.6843
  673MOL0     H90825   1.236   9.836   1.157  2.9190  0.8682  0.8475
  673MOL0     H90826   1.255   9.984   1.066 -0.1347  1.9200  0.0651
  673MOL0     H90827   1.039   9.931   1.264 -0.1958  1.7673  1.1470
  673MOL0     H90828   1.092  10.095   1.242 -1.4712  1.2280 -2.2186
  673MOL0     H90829   1.037  10.099   0.998 -0.8251  1.7343  1.9836
  673MOL0     H90830   0.900  10.054   1.098 -0.0756 -1.2838 -1.3652
  673MOL0     H90831   1.061   9.849   0.931 -1.6684 -2.5379 -1.0608
  673MOL0     H90832   0.949   9.814   1.053  1.9402 -0.1307  0.9964
  673MOL0     H90833   0.894   9.948   0.785  1.0044  1.7833  1.0869
  673MOL0     H90834   0.778   9.972   0.926 -0.9223 -1.1927  0.7532
  673MOL0     H90835   0.755   9.739   0.969 -2.5235 -3.9533 -1.8991
  673MOL0     H90836   0.837   9.702   0.815  1.1598  0.5781  0.6274
  673MOL0     H90837   1.723   9.945   1.300  1.2389 -1.5039  0.1181
  673MOL0     H90838   1.946   9.908   1.234 -0.5042 -1.3792  0.4040
  673MOL0     H90839   2.277   9.914   1.100 -1.5194 -0.3634 -0.3324
  673MOL0     H90840   2.538   9.905   1.056  0.1026  2.3044 -2.5116
  673MOL0     H90841   4.349   9.294   1.575  1.4146 -1.5547 -1.0772
  673MOL0     H90842   4.589   9.245   1.533 -0.6513 -1.2024 -2.2618
  673MOL0     H90843   5.009   9.491   1.402 -0.7319  0.2232  1.3135
  673MOL0     H90844   5.257   9.490   1.424 -2.3110 -1.4848 -1.9765
  673MOL0     H90845   5.581   9.397   1.684 -0.1005  1.6293 -0.2232
  673MOL0     H90846   5.465   9.422   1.812 -0.2413 -0.4808  0.1123
  673MOL0     H90847   5.385   9.202   1.800  0.9736  0.1349  1.5889
  673MOL0     H90848   5.561   9.190   1.804 -2.0202  3.0060  2.4793
  673MOL0     H90849   5.563   9.182   1.564  0.4450  2.9933  1.8719
  673MOL0     H90850   5.390   9.200   1.549  0.7076 -0.1757 -0.9811
  673MOL0     H90851   5.386   9.001   1.722  3.0902  0.5314  3.5304
  673MOL0     H90852   5.545   8.962   1.683 -1.2651  1.2695  2.9501
  673MOL0     H90853   5.433   8.783   1.344  4.0273  2.3214 -0.3700
  673MOL0     H90854   5.225   9.393   1.833  1.3590  1.6621 -0.5869
  673MOL0     H90855   4.993   9.423   1.828  5.2079  2.1294  2.7926
  674MOL0     O90856   2.842   5.735   2.128 -0.1964 -0.2184 -0.0634
  674MOL0     C90857   2.921   5.665   2.061  0.8025 -0.1210 -0.2433
  674MOL0     O90858   2.886   5.561   1.990  0.3753  0.1506  0.0819
  674MOL0     C90859   2.756   5.515   1.975 -0.8791 -0.0645 -1.2516
  674MOL0     C90860   2.705   5.493   1.848 -0.5184  0.7046 -0.4510
  674MOL0     C90861   2.573   5.469   1.827 -0.6344  0.7919 -0.2983
  674MOL0     C90862   2.483   5.466   1.936  0.0177  0.0955 -0.2348
  674MOL0     O90863   2.347   5.449   1.904  0.9456  0.3761  0.0953
  674MOL0     C90864   2.247   5.465   2.011 -1.0279 -0.4775  0.2323
  674MOL0     C90865   2.122   5.530   1.944 -0.2654  0.5870  0.2246
  674MOL0     C90866   2.039   5.421   1.877  0.0014 -0.4912  0.5509
  674MOL0     C90867   1.918   5.482   1.809  0.1498  0.2373 -0.5119
  674MOL0     C90868   1.844   5.366   1.734  0.0117 -1.0017 -0.4476
  674MOL0     C90869   1.777   5.261   1.826 -0.5966  0.3333  0.1085
  674MOL0     C90870   1.658   5.191   1.756  0.3956 -0.1022  0.0950
  674MOL0     C90871   1.565   5.112   1.857 -0.4036 -0.6310  0.2436
  674MOL0     N90872   1.444   5.080   1.786 -0.4897 -0.0505 -0.7964
  674MOL0     C90873   1.429   5.021   1.662  0.0425  0.6367 -0.3118
  674MOL0     C90874   1.295   5.033   1.633 -0.3743  0.2716 -0.2047
  674MOL0     C90875   1.223   4.974   1.511 -0.7311 -0.2102 -0.1318
  674MOL0     C90876   1.264   4.826   1.498  0.3025 -0.5925  0.2161
  674MOL0     C90877   1.183   4.762   1.384 -0.6918 -0.1279 -0.0797
  674MOL0     C90878   1.033   4.765   1.387 -0.4436  0.0323  0.8132
  674MOL0     O90879   0.973   4.703   1.504 -0.2790 -0.3460  0.3205
  674MOL0     C90880   0.837   4.703   1.504  0.6089 -0.0964 -0.3986
  674MOL0     C90881   0.748   4.717   1.396 -0.0552 -0.4089  0.0552
  674MOL0     C90882   0.611   4.720   1.421  0.0153 -0.6910 -0.5176
  674MOL0     C90883   0.524   4.744   1.302  0.4474 -0.3108  0.6215
  674MOL0     C90884   0.551   4.697   1.553  0.1377  0.3275  1.1445
  674MOL0     C90885   0.407   4.702   1.588 -0.1456  0.0052 -0.2535
  674MOL0     O90886   0.379   4.742   1.718  0.0458 -0.5907  0.1016
  674MOL0     C90887   0.250   4.752   1.768 -0.4882 -0.2325  0.4078
  674MOL0     C90888   0.172   4.635   1.768 -0.4065  0.0991  0.0568
  674MOL0     C90889   0.045   4.634   1.813  0.1121 -0.0114 -0.0912
  674MOL0     C90890  -0.017   4.757   1.858 -0.6849 -0.2322 -0.1707
  674MOL0     O90891  -0.152   4.751   1.886 -0.9376 -0.4313 -1.1008
  674MOL0     C90892  -0.220   4.869   1.929  0.1844  0.3118 -0.3094
  674MOL0     C90893  -0.360   4.822   1.972 -0.1898  0.0209 -0.0920
  674MOL0     C90894  -0.460   4.869   1.873 -0.5465 -0.1117  0.4624
  674MOL0     C90895  -0.601   4.825   1.913 -0.3918 -0.0916  1.0673
  674MOL0     C90896  -0.708   4.888   1.825  0.6957 -0.3552  0.2016
  674MOL0     C90897  -0.850   4.831   1.873 -1.1672 -1.1458 -0.1245
  674MOL0     C90898  -0.960   4.889   1.774  0.3512 -0.8278  0.7209
  674MOL0     C90899  -0.997   5.041   1.807  0.2293  0.0032 -0.2699
  674MOL0    Cl90900  -1.151   5.046   1.897  0.1059 -0.0377  0.2339
  674MOL0     C90901   0.066   4.878   1.864  0.5998  0.4459 -0.7506
  674MOL0     C90902   0.197   4.874   1.821  0.3131 -0.5888  0.4980
  674MOL0     O90903   0.323   4.685   1.501 -0.0062  0.1931  0.0445
  674MOL0     C90904   0.640   4.690   1.656  0.0337 -0.1614 -0.4611
  674MOL0     C90905   0.778   4.684   1.632  0.0904  0.4733  0.0388
  674MOL0     N90906   1.238   5.099   1.736  0.1759  0.3983  0.0375
  674MOL0     N90907   1.321   5.127   1.822  0.1348 -0.3146 -0.4085
  674MOL0     C90908   2.532   5.480   2.068 -0.4302 -0.3004  0.5880
  674MOL0     C90909   2.667   5.513   2.087 -0.5698 -0.1785 -0.6019
  674MOL0     C90910   3.060   5.677   2.093  0.2795  0.6647 -0.1476
  674MOL0     C90911   3.105   5.808   2.131 -0.8621  1.0223 -0.1699
  674MOL0     C90912   3.235   5.830   2.165 -0.1416 -0.2179  0.6786
  674MOL0     C90913   3.331   5.721   2.167  0.8282  0.6413  0.2646
  674MOL0     O90914   3.462   5.735   2.197  0.3711 -0.8990  0.8268
  674MOL0     C90915   3.507   5.870   2.220 -0.0499  0.3706 -0.0760
  674MOL0     C90916   3.661   5.880   2.223 -0.5048  0.1335 -0.2145
  674MOL0     C90917   3.697   6.033   2.237 -0.2184  0.0638 -0.5066
  674MOL0     C90918   3.848   6.034   2.257  0.0812 -0.2026 -0.6406
  674MOL0     C90919   3.887   6.022   2.399 -0.0067  0.1121 -0.3842
  674MOL0     C90920   3.939   6.012   2.511  1.2130 -0.2321 -0.3249
  674MOL0     C90921   3.282   5.596   2.124  0.4216  0.2127 -0.2041
  674MOL0     C90922   3.151   5.567   2.091 -0.5149 -0.7940 -0.2526
  674MOL0     H90923   2.763   5.516   1.759 -4.2508  0.5093 -3.1423
  674MOL0     H90924   2.523   5.463   1.731  1.3238  1.2254 -1.3930
  674MOL0     H90925   2.221   5.367   2.050 -0.0458 -1.1978 -0.8741
  674MOL0     H90926   2.277   5.532   2.093  2.0208 -1.7060  0.2597
  674MOL0     H90927   2.063   5.566   2.029 -2.9282  1.9969 -2.0333
  674MOL0     H90928   2.150   5.611   1.876  1.3062 -0.3512 -0.2929
  674MOL0     H90929   2.098   5.362   1.805  0.9137 -0.4428  1.2381
  674MOL0     H90930   1.997   5.351   1.950  0.4027 -1.6886 -0.3230
  674MOL0     H90931   1.854   5.524   1.887 -0.1722 -1.0181 -0.0868
  674MOL0     H90932   1.949   5.559   1.737 -0.1852 -0.9185 -1.9554
  674MOL0     H90933   1.759   5.412   1.683 -0.5933 -1.4603  0.1259
  674MOL0     H90934   1.912   5.326   1.658 -1.0929 -0.3526 -1.8083
  674MOL0     H90935   1.848   5.192   1.873  1.3172  3.1366  1.6966
  674MOL0     H90936   1.749   5.328   1.908  2.4851  2.7847 -0.6473
  674MOL0     H90937   1.604   5.269   1.701  1.6562  1.3400  0.8305
  674MOL0     H90938   1.698   5.115   1.688 -1.8208 -2.7484  1.5523
  674MOL0     H90939   1.547   5.168   1.950  1.5956 -1.0383  0.9201
  674MOL0     H90940   1.612   5.017   1.883 -2.5426 -1.6989  0.3454
  674MOL0     H90941   1.506   4.982   1.596  1.8965 -0.1949  2.1666
  674MOL0     H90942   1.114   4.986   1.510 -0.7892 -0.4464  0.9798
  674MOL0     H90943   1.269   5.026   1.427  2.0570 -0.6672  1.0012
  674MOL0     H90944   1.238   4.770   1.589  1.3892 -0.8201  0.3926
  674MOL0     H90945   1.371   4.811   1.482  1.0369  0.1982  3.4836
  674MOL0     H90946   1.206   4.657   1.363  1.0019  0.2217 -0.0729
  674MOL0     H90947   1.225   4.807   1.294 -0.6209 -0.9262 -0.4523
  674MOL0     H90948   0.997   4.704   1.304  2.7319 -2.4989  1.0932
  674MOL0     H90949   1.001   4.869   1.374  2.7683  1.0458  0.1879
  674MOL0     H90950   0.795   4.731   1.299 -1.8517 -0.3198 -0.8512
  674MOL0     H90951   0.456   4.828   1.320  1.0053  0.7952 -2.0793
  674MOL0     H90952   0.586   4.781   1.220  0.7327  0.6246  1.2411
  674MOL0     H90953   0.472   4.651   1.275 -0.2585  0.4552 -0.7303
  674MOL0     H90954   0.221   4.544   1.735  0.8159  0.0737  1.8008
  674MOL0     H90955  -0.012   4.541   1.814  2.2775 -1.4481 -1.3753
  674MOL0     H90956  -0.167   4.903   2.018  2.2370 -0.3427 -1.2074
  674MOL0     H90957  -0.221   4.948   1.853 -3.8152 -0.5244 -1.3511
  674MOL0     H90958  -0.373   4.714   1.986  0.9017  0.0531  1.3446
  674MOL0     H90959  -0.392   4.859   2.070  0.6158 -1.6631  0.8575
  674MOL0     H90960  -0.435   4.831   1.773  0.1019 -1.4128  1.0883
  674MOL0     H90961  -0.457   4.977   1.855  0.9790 -0.3417 -0.8845
  674MOL0     H90962  -0.610   4.716   1.904 -1.3097  0.0720 -0.4337
  674MOL0     H90963  -0.615   4.859   2.016  0.9691 -1.1814  1.6489
  674MOL0     H90964  -0.686   4.854   1.723  1.0879 -1.3727  0.6065
  674MOL0     H90965  -0.713   4.997   1.833  0.3624 -0.5029  2.8036
  674MOL0     H90966  -0.834   4.723   1.868  0.8351 -0.9735  1.1032
  674MOL0     H90967  -0.867   4.851   1.979  2.1367 -2.1453  0.7432
  674MOL0     H90968  -1.054   4.833   1.778 -2.2461  3.1266  0.6050
  674MOL0     H90969  -0.927   4.883   1.670 -1.1258  3.1697 -0.1674
  674MOL0     H90970  -1.017   5.087   1.710 -0.1191 -2.1230 -1.2662
  674MOL0     H90971  -0.917   5.094   1.860  1.3574 -1.9510  0.0815
  674MOL0     H90972   0.015   4.967   1.900 -0.1284 -0.0402 -0.5448
  674MOL0     H90973   0.255   4.966   1.824 -0.4037 -0.1093 -0.1995
  674MOL0     H90974   0.618   4.677   1.762 -3.7463 -1.7531 -1.2945
  674MOL0     H90975   0.850   4.679   1.712  0.6299 -1.1585 -0.5167
  674MOL0     H90976   2.464   5.474   2.152 -2.6588  0.6712 -1.0257
  674MOL0     H90977   2.700   5.520   2.191  0.6453 -0.2382 -0.9729
  674MOL0     H90978   3.042   5.895   2.147 -1.7098  0.1006  1.8002
  674MOL0     H90979   3.258   5.925   2.211  0.6730  0.2276 -0.5937
  674MOL0     H90980   3.464   5.942   2.150  0.8919 -0.3047 -1.3696
  674MOL0     H90981   3.467   5.895   2.319 -2.1515 -1.7869 -0.2664
  674MOL0     H90982   3.701   5.849   2.127  0.9082  2.9252 -0.6316
  674MOL0     H90983   3.698   5.825   2.310 -2.3692 -0.0334  0.5233
  674MOL0     H90984   3.645   6.077   2.323 -1.4495  0.5388 -1.4472
  674MOL0     H90985   3.674   6.092   2.147  1.5296  2.7674  0.7109
  674MOL0     H90986   3.886   6.124   2.207 -2.2316  0.9468 -0.4634
  674MOL0     H90987   3.897   5.953   2.202  2.6155  0.7832  0.0193
  674MOL0     H90988   4.000   6.009   2.600  1.4353  0.8523 -0.4281
  674MOL0     H90989   3.353   5.516   2.105  0.5018  0.3710 -0.5998
  674MOL0     H90990   3.124   5.469   2.053  4.7968 -2.4167 -0.6395
  675MOL0     O90991   2.448   1.761   4.952 -0.3357 -0.1518 -0.1401
  675MOL0     C90992   2.547   1.805   5.004 -0.5802  1.3591  0.3207
  675MOL0     O90993   2.548   1.886   5.104 -0.0532 -0.3586  0.2135
  675MOL0     C90994   2.419   1.928   5.148 -0.3616  0.3925 -0.2778
  675MOL0     C90995   2.364   1.870   5.261  0.0437 -0.3675 -0.5083
  675MOL0     C90996   2.248   1.911   5.327  0.0811  0.1208  0.1178
  675MOL0     C90997   2.162   2.009   5.258 -0.3777 -0.2947 -0.1804
  675MOL0     O90998   2.043   2.039   5.322 -0.0155 -0.3005  0.2134
  675MOL0     C90999   1.976   2.154   5.261 -0.1323 -0.7102 -0.7017
  675MOL0     C91000   1.839   2.176   5.331 -0.4496  0.5141 -0.2897
  675MOL0     C91001   1.756   2.278   5.262 -0.4433 -0.3527  0.2951
  675MOL0     C91002   1.815   2.414   5.257  0.1661  0.2351  0.5935
  675MOL0     C91003   1.741   2.520   5.174  0.3079  0.1330  0.4261
  675MOL0     C91004   1.590   2.539   5.189  0.9484 -0.0377 -0.4886
  675MOL0     C91005   1.536   2.630   5.073  0.0432  0.0895  0.2342
  675MOL0     C91006   1.386   2.626   5.050 -0.6345 -0.4121 -0.1657
  675MOL0     N91007   1.316   2.615   5.177 -0.4391 -0.4451 -0.7893
  675MOL0     C91008   1.273   2.507   5.254  0.3227 -0.4990  0.3735
  675MOL0     C91009   1.191   2.559   5.347 -0.3696 -0.3184  0.2992
  675MOL0     C91010   1.118   2.469   5.453  0.0053  0.2870  0.4373
  675MOL0     C91011   0.964   2.488   5.470 -0.0555 -1.2352  0.8829
  675MOL0     C91012   0.918   2.641   5.494 -0.2954 -0.0859  1.2736
  675MOL0     C91013   0.765   2.649   5.517 -0.1532 -0.3319 -0.6786
  675MOL0     O91014   0.693   2.541   5.453 -0.2862  0.9695 -0.2120
  675MOL0     C91015   0.561   2.526   5.468  0.0604  0.4800 -0.6245
  675MOL0     C91016   0.515   2.410   5.405  0.5077 -0.0647  0.2292
  675MOL0     C91017   0.378   2.369   5.413 -0.1715  0.1960  0.3791
  675MOL0     C91018   0.338   2.244   5.341 -0.1549  0.2075 -0.6107
  675MOL0     C91019   0.284   2.456   5.470  0.0241 -0.2000 -0.1468
  675MOL0     C91020   0.135   2.433   5.460 -0.1479 -0.6985  0.1651
  675MOL0     O91021   0.055   2.504   5.545  0.2226  0.0374 -0.0434
  675MOL0     C91022  -0.074   2.459   5.558  0.3000  0.9001 -0.0075
  675MOL0     C91023  -0.163   2.498   5.459  0.1988  0.3350 -0.0469
  675MOL0     C91024  -0.296   2.463   5.468  0.5255  0.0176 -0.1933
  675MOL0     C91025  -0.351   2.400   5.579 -0.7419 -0.7253  0.2400
  675MOL0     O91026  -0.482   2.376   5.581  0.3451 -0.4148 -0.4679
  675MOL0     C91027  -0.557   2.392   5.706  0.3540  0.3199 -0.0466
  675MOL0     C91028  -0.710   2.394   5.670  0.2991 -0.4659  0.2530
  675MOL0     C91029  -0.751   2.282   5.579  0.9528 -0.2770  0.5582
  675MOL0     C91030  -0.900   2.261   5.596  0.3022  0.0136  0.2811
  675MOL0     C91031  -0.953   2.164   5.496  0.1106 -0.1876 -0.6843
  675MOL0     C91032  -1.096   2.123   5.531  0.8922  0.4069  0.4104
  675MOL0     C91033  -1.165   2.002   5.456  0.2623 -0.0389 -0.0774
  675MOL0     C91034  -1.304   1.975   5.527 -0.0879  0.5331 -0.2128
  675MOL0    Cl91035  -1.270   1.915   5.688 -0.0496 -0.0749  0.0299
  675MOL0     C91036  -0.261   2.359   5.679 -0.1535 -0.1136 -0.6873
  675MOL0     C91037  -0.127   2.395   5.673  0.0341  0.3420 -0.6846
  675MOL0     O91038   0.091   2.363   5.368 -0.1457 -0.1952  0.4631
  675MOL0     C91039   0.332   2.572   5.540  0.0627 -0.1204  0.4691
  675MOL0     C91040   0.471   2.604   5.539 -0.0371  0.1221  0.7848
  675MOL0     N91041   1.178   2.691   5.319  0.4150  0.1533 -0.4763
  675MOL0     N91042   1.260   2.726   5.232  0.5041 -0.4400 -0.3934
  675MOL0     C91043   2.224   2.073   5.141  0.4159  0.2619  0.2314
  675MOL0     C91044   2.346   2.032   5.090  0.7142  0.2914 -0.0465
  675MOL0     C91045   2.678   1.782   4.949 -0.1047 -0.1295  0.1740
  675MOL0     C91046   2.803   1.809   5.024  0.7429  0.4881 -0.2573
  675MOL0     C91047   2.935   1.782   4.981  0.3664 -0.0184 -0.4473
  675MOL0     C91048   2.947   1.710   4.860  0.4286  0.2498 -0.1042
  675MOL0     O91049   3.067   1.681   4.797 -0.5066  0.7708  0.4092
  675MOL0     C91050   3.193   1.733   4.840  0.3498  0.3049 -0.1289
  675MOL0     C91051   3.252   1.620   4.926 -0.0226  0.2347 -0.0264
  675MOL0     C91052   3.398   1.663   4.963  0.3905  0.4850  0.1884
  675MOL0     C91053   3.496   1.543   4.943  0.0548  0.8000  0.7563
  675MOL0     C91054   3.630   1.574   5.000 -0.6168  0.3092 -0.3031
  675MOL0     C91055   3.742   1.597   5.046  0.5396  0.3184  0.7920
  675MOL0     C91056   2.833   1.667   4.792 -0.3138 -0.7010  0.0685
  675MOL0     C91057   2.706   1.717   4.830  0.0127  0.2552  0.2795
  675MOL0     H91058   2.425   1.787   5.297 -0.9611 -1.5757 -1.4751
  675MOL0     H91059   2.208   1.875   5.421 -2.3005  0.1992 -0.7842
  675MOL0     H91060   2.034   2.246   5.274 -2.8119  1.0153 -0.2043
  675MOL0     H91061   1.960   2.138   5.154  0.4662 -0.6988 -0.7986
  675MOL0     H91062   1.773   2.090   5.346 -3.1584  2.5438  0.3350
  675MOL0     H91063   1.860   2.210   5.433  1.0357 -1.3786  0.0875
  675MOL0     H91064   1.748   2.240   5.159 -0.1922 -1.0176  0.5175
  675MOL0     H91065   1.658   2.281   5.310 -1.5262 -1.8317 -1.6256
  675MOL0     H91066   1.844   2.447   5.357  0.2795 -0.3591  0.7631
  675MOL0     H91067   1.913   2.407   5.209  0.8780 -4.8726  2.1939
  675MOL0     H91068   1.781   2.621   5.193 -0.5085  0.5399  0.0292
  675MOL0     H91069   1.764   2.503   5.068 -0.7337  0.0369  0.2056
  675MOL0     H91070   1.543   2.440   5.187  1.1413 -0.1436  0.1457
  675MOL0     H91071   1.576   2.583   5.288  2.7439  1.6227 -0.9121
  675MOL0     H91072   1.576   2.730   5.091  0.8066  0.1135 -1.4816
  675MOL0     H91073   1.579   2.609   4.975 -0.0664  1.6560 -0.1765
  675MOL0     H91074   1.352   2.539   4.993  0.7001 -0.8036 -0.4060
  675MOL0     H91075   1.353   2.717   4.999 -2.6423 -3.2218 -4.4614
  675MOL0     H91076   1.292   2.402   5.234  2.2967 -0.1491  0.1758
  675MOL0     H91077   1.136   2.366   5.423  0.1874  0.7989 -1.3404
  675MOL0     H91078   1.165   2.492   5.549 -1.4514  1.2228  0.9599
  675MOL0     H91079   0.947   2.432   5.563  0.8590 -0.3149  1.6295
  675MOL0     H91080   0.913   2.458   5.378  0.3252  1.7957 -0.4393
  675MOL0     H91081   0.944   2.701   5.406  2.0645 -1.5070  0.9064
  675MOL0     H91082   0.981   2.672   5.578 -0.0213  0.1440  0.9855
  675MOL0     H91083   0.730   2.749   5.489 -3.3080 -1.3347 -0.7457
  675MOL0     H91084   0.738   2.655   5.623  0.7964  2.6713 -0.5241
  675MOL0     H91085   0.582   2.338   5.359 -0.1179 -0.7942  0.4355
  675MOL0     H91086   0.423   2.193   5.296 -0.9139 -1.7791  0.0973
  675MOL0     H91087   0.289   2.181   5.416  2.3799  1.2062  2.0506
  675MOL0     H91088   0.272   2.272   5.258 -1.9313 -1.1102  0.2879
  675MOL0     H91089  -0.120   2.540   5.369  1.1328 -2.2039 -0.8915
  675MOL0     H91090  -0.360   2.489   5.384  0.5900  2.3336  0.4351
  675MOL0     H91091  -0.533   2.311   5.775  1.0118  0.6838  0.1608
  675MOL0     H91092  -0.535   2.486   5.757  0.0912  0.7750 -0.7575
  675MOL0     H91093  -0.768   2.382   5.762  1.5203 -0.2486  1.0795
  675MOL0     H91094  -0.735   2.490   5.624  2.0602  0.6445  1.4869
  675MOL0     H91095  -0.697   2.189   5.593  0.4598 -0.5936  0.3795
  675MOL0     H91096  -0.739   2.317   5.476 -1.9534  1.4125  0.6817
  675MOL0     H91097  -0.908   2.223   5.698 -0.8607  4.9098  2.3202
  675MOL0     H91098  -0.957   2.354   5.604  0.5575  0.2084 -0.1336
  675MOL0     H91099  -0.889   2.075   5.496  2.7684  1.4529  3.2904
  675MOL0     H91100  -0.960   2.213   5.399  0.7189  0.3824 -0.4530
  675MOL0     H91101  -1.091   2.103   5.638 -0.6021  1.3855  0.6891
  675MOL0     H91102  -1.161   2.209   5.513 -0.5704 -0.4404  1.3868
  675MOL0     H91103  -1.100   1.917   5.479  0.4008  0.4343  1.4481
  675MOL0     H91104  -1.179   2.019   5.349 -1.4880 -1.4440 -0.1200
  675MOL0     H91105  -1.361   1.894   5.480  1.7777 -0.4585 -0.8512
  675MOL0     H91106  -1.364   2.067   5.531 -2.6174 -1.0723  1.4000
  675MOL0     H91107  -0.286   2.305   5.769 -0.2440 -0.8909 -1.1735
  675MOL0     H91108  -0.066   2.366   5.757  1.5206 -0.4171 -1.9855
  675MOL0     H91109   0.258   2.638   5.583 -1.9064  0.1841 -3.0468
  675MOL0     H91110   0.496   2.698   5.588  0.9305  2.3955 -3.5533
  675MOL0     H91111   2.171   2.157   5.096  0.7722 -0.6344 -1.9692
  675MOL0     H91112   2.374   2.078   4.996 -0.2513 -1.3339 -1.2044
  675MOL0     H91113   2.796   1.880   5.106  0.3373  2.8441 -2.2078
  675MOL0     H91114   3.022   1.807   5.041 -0.8655  0.7096  1.0791
  675MOL0     H91115   3.254   1.754   4.752 -0.8129  3.0539 -0.3918
  675MOL0     H91116   3.182   1.829   4.893  2.1019  1.0017 -0.9424
  675MOL0     H91117   3.260   1.528   4.867 -0.5032  0.1245  0.0744
  675MOL0     H91118   3.194   1.597   5.015 -1.1300 -0.9871 -1.0238
  675MOL0     H91119   3.394   1.711   5.061 -2.3333 -0.1077  0.4348
  675MOL0     H91120   3.429   1.737   4.888 -0.5503 -0.4519 -1.1580
  675MOL0     H91121   3.503   1.525   4.836  1.0729  1.1994  0.7461
  675MOL0     H91122   3.446   1.460   4.994  1.2396 -0.1992  0.3448
  675MOL0     H91123   3.836   1.617   5.094  1.4636 -2.4546  0.2651
  675MOL0     H91124   2.854   1.602   4.707  1.4454  1.5944 -1.3748
  675MOL0     H91125   2.622   1.680   4.772 -2.1651  1.7126  2.3006
  676MOL0     O91126   6.726   2.579   3.728  0.5293 -0.8172  0.0611
  676MOL0     C91127   6.732   2.485   3.646  1.0496  0.1505 -0.2150
  676MOL0     O91128   6.621   2.414   3.595 -0.2412 -0.0582  0.5880
  676MOL0     C91129   6.502   2.481   3.610  0.1948 -1.0125  0.4081
  676MOL0     C91130   6.411   2.474   3.718 -1.3274 -0.1707 -0.5102
  676MOL0     C91131   6.300   2.560   3.720 -0.6248 -0.5959  0.0248
  676MOL0     C91132   6.260   2.633   3.618  0.0499 -0.1731  0.2175
  676MOL0     O91133   6.150   2.718   3.608  0.2355  0.9069  0.1288
  676MOL0     C91134   6.054   2.706   3.722  0.7441  0.0112 -0.2815
  676MOL0     C91135   5.945   2.811   3.694 -0.8380  0.3816 -0.3979
  676MOL0     C91136   5.804   2.786   3.759  0.1857  0.4666  0.7599
  676MOL0     C91137   5.748   2.927   3.770 -0.8536 -0.8913 -0.0705
  676MOL0     C91138   5.597   2.916   3.788  0.2745  0.4675  0.3281
  676MOL0     C91139   5.541   3.061   3.803  0.6446  0.9182 -0.3322
  676MOL0     C91140   5.395   3.059   3.837  0.9532  0.8540  0.1671
  676MOL0     C91141   5.383   3.014   3.981  0.3925  0.2192  0.5570
  676MOL0     N91142   5.258   3.039   4.050 -0.2337 -0.3730  0.3499
  676MOL0     C91143   5.159   3.111   3.997 -0.2329 -0.3338  0.1534
  676MOL0     C91144   5.077   3.130   4.102 -0.5318  0.1591  0.4399
  676MOL0     C91145   4.949   3.207   4.092 -0.5529  0.0125  0.0503
  676MOL0     C91146   4.845   3.134   4.007  0.0529  0.0350 -0.0726
  676MOL0     C91147   4.721   3.222   3.974  0.4375  0.8026  0.2464
  676MOL0     C91148   4.618   3.240   4.095  0.3102  0.1797 -0.3464
  676MOL0     O91149   4.570   3.117   4.153  0.3853  0.5466  0.1860
  676MOL0     C91150   4.444   3.066   4.116  0.0029 -1.0836 -0.8545
  676MOL0     C91151   4.391   3.085   3.989  0.1485 -0.5534 -0.2499
  676MOL0     C91152   4.264   3.035   3.950 -0.2023 -0.1623  0.2439
  676MOL0     C91153   4.227   3.047   3.806  0.1808  0.1679 -0.4600
  676MOL0     C91154   4.186   2.972   4.047 -0.2047 -0.6418 -1.2024
  676MOL0     C91155   4.054   2.923   4.016 -0.2492  0.7514 -0.1786
  676MOL0     O91156   4.000   2.860   4.128  0.2905  1.0827 -0.0353
  676MOL0     C91157   3.856   2.840   4.125  0.4240 -0.4709  0.7347
  676MOL0     C91158   3.790   2.718   4.173  0.5677  0.0986 -0.1883
  676MOL0     C91159   3.646   2.709   4.182 -0.6529 -0.1091 -0.1185
  676MOL0     C91160   3.565   2.819   4.139 -0.1643  1.1933  0.6171
  676MOL0     O91161   3.426   2.816   4.143 -0.3319  0.1757 -0.8494
  676MOL0     C91162   3.350   2.700   4.115  0.0692  0.7979 -0.1678
  676MOL0     C91163   3.319   2.693   3.966 -0.2549 -0.5300  0.1482
  676MOL0     C91164   3.438   2.640   3.880 -0.7228  0.0086 -0.5398
  676MOL0     C91165   3.376   2.539   3.788  0.6773 -0.5382 -0.2919
  676MOL0     C91166   3.481   2.474   3.708 -0.7643  0.3831  0.4568
  676MOL0     C91167   3.419   2.392   3.595  0.6423 -0.8674 -0.1658
  676MOL0     C91168   3.532   2.306   3.547 -0.0842  0.9641 -0.3322
  676MOL0     C91169   3.543   2.292   3.388  0.6889  0.5759  0.2069
  676MOL0    Cl91170   3.536   2.456   3.296 -0.3191 -0.5212 -0.5301
  676MOL0     C91171   3.629   2.933   4.097  0.0068 -0.4266 -0.1222
  676MOL0     C91172   3.772   2.942   4.088 -0.2182  0.1024  0.0947
  676MOL0     O91173   4.000   2.927   3.909 -0.4802  0.1575  0.0081
  676MOL0     C91174   4.240   2.953   4.181  0.2075  0.1191 -0.0563
  676MOL0     C91175   4.370   2.998   4.211  0.0469  0.3324  0.5911
  676MOL0     N91176   5.128   3.051   4.211  0.3617  0.4317  0.1791
  676MOL0     N91177   5.242   3.000   4.178  0.0833  0.2043 -0.1219
  676MOL0     C91178   6.337   2.631   3.507 -0.5011 -0.1995  1.4988
  676MOL0     C91179   6.465   2.561   3.499  0.0413  0.7823 -0.4344
  676MOL0     C91180   6.861   2.443   3.595 -0.3434 -0.0262  0.2633
  676MOL0     C91181   6.972   2.495   3.659 -0.3481 -0.8395 -0.4047
  676MOL0     C91182   7.100   2.453   3.624 -0.5952 -0.3137  0.0375
  676MOL0     C91183   7.118   2.362   3.517  0.6505  0.0803  0.3047
  676MOL0     O91184   7.242   2.316   3.486  0.0569 -0.5830 -0.0662
  676MOL0     C91185   7.360   2.384   3.531  0.7437 -0.2471 -0.2933
  676MOL0     C91186   7.472   2.333   3.453  0.7523  0.6276  0.4705
  676MOL0     C91187   7.533   2.198   3.513 -0.4176 -0.0274 -0.9963
  676MOL0     C91188   7.437   2.083   3.469  0.3159 -1.3851 -0.2242
  676MOL0     C91189   7.499   1.961   3.514 -0.6460  0.5660  0.3235
  676MOL0     C91190   7.551   1.858   3.555 -0.1365  0.2149 -1.2129
  676MOL0     C91191   7.010   2.304   3.452  0.0253 -0.3919 -0.2177
  676MOL0     C91192   6.885   2.349   3.491  0.5216  0.6124 -0.2698
  676MOL0     H91193   6.438   2.407   3.799  0.6986 -0.9722 -1.7434
  676MOL0     H91194   6.241   2.565   3.811 -0.9499  1.2106 -0.2352
  676MOL0     H91195   6.010   2.606   3.731  2.2303 -0.7355 -0.9382
  676MOL0     H91196   6.094   2.726   3.821  1.4805 -0.9870 -0.3700
  676MOL0     H91197   5.981   2.911   3.720  1.7105 -0.3751 -0.7825
  676MOL0     H91198   5.929   2.803   3.586  0.4515 -1.3083 -0.5021
  676MOL0     H91199   5.735   2.728   3.697  0.4038  0.9402  0.0569
  676MOL0     H91200   5.807   2.742   3.859  3.3449  1.5082  1.2455
  676MOL0     H91201   5.798   2.981   3.851 -1.9182 -1.0046  0.6840
  676MOL0     H91202   5.773   2.997   3.690 -1.2018  0.3309  0.8558
  676MOL0     H91203   5.548   2.872   3.700  0.0723  0.6585  0.3425
  676MOL0     H91204   5.578   2.857   3.878 -1.1026  1.3299  0.6396
  676MOL0     H91205   5.606   3.113   3.875  3.7861 -0.0214 -2.2709
  676MOL0     H91206   5.553   3.115   3.709 -1.7099  1.6903 -0.2346
  676MOL0     H91207   5.353   3.159   3.827  0.6224  0.7197  0.1969
  676MOL0     H91208   5.341   2.995   3.767  1.8580  2.1771 -1.8556
  676MOL0     H91209   5.467   3.059   4.035  0.4741  0.2488  0.4038
  676MOL0     H91210   5.397   2.906   3.996  1.1260  0.4756  1.9407
  676MOL0     H91211   5.148   3.151   3.897 -0.8346 -0.4869  0.1500
  676MOL0     H91212   4.918   3.209   4.196  0.8334  2.9204  0.5021
  676MOL0     H91213   4.951   3.310   4.053 -0.0150 -0.1267 -0.3172
  676MOL0     H91214   4.813   3.040   4.052 -2.9127  0.3823 -1.2821
  676MOL0     H91215   4.892   3.114   3.911  0.3725  0.1779  0.0519
  676MOL0     H91216   4.667   3.185   3.886 -1.6926  3.1198  0.4410
  676MOL0     H91217   4.750   3.322   3.939 -0.9408  1.1089 -0.0781
  676MOL0     H91218   4.534   3.300   4.059 -0.7595 -0.0480  1.6183
  676MOL0     H91219   4.676   3.291   4.173  1.1345 -1.0183 -0.1642
  676MOL0     H91220   4.459   3.129   3.917 -1.2144  0.2201 -1.1142
  676MOL0     H91221   4.208   2.947   3.764  0.7685  0.1852 -0.7701
  676MOL0     H91222   4.130   3.098   3.799 -0.7368 -1.3186  0.5614
  676MOL0     H91223   4.309   3.092   3.749  1.9723 -0.5898  1.4108
  676MOL0     H91224   3.841   2.628   4.206 -3.1796 -1.2143  2.6851
  676MOL0     H91225   3.603   2.623   4.232 -1.6100  0.7471  0.5869
  676MOL0     H91226   3.395   2.606   4.149  2.0355  0.8799 -2.3229
  676MOL0     H91227   3.256   2.702   4.171 -0.5629 -2.8489 -0.8390
  676MOL0     H91228   3.231   2.633   3.940 -0.4377  0.5362 -1.9538
  676MOL0     H91229   3.309   2.796   3.931  0.3070  0.1845  1.9612
  676MOL0     H91230   3.514   2.600   3.947  1.5071  0.9457 -2.3957
  676MOL0     H91231   3.487   2.722   3.827 -0.1209 -1.0308 -1.6127
  676MOL0     H91232   3.317   2.467   3.846 -1.8443  2.0127  0.5394
  676MOL0     H91233   3.305   2.581   3.717 -0.3553 -1.6762  0.0222
  676MOL0     H91234   3.530   2.398   3.769 -1.7226  1.2887  2.4289
  676MOL0     H91235   3.546   2.552   3.667 -2.6988  1.7044 -0.2883
  676MOL0     H91236   3.347   2.317   3.627 -1.3394  1.0087  0.0228
  676MOL0     H91237   3.379   2.452   3.512 -0.5654 -1.2126  0.1478
  676MOL0     H91238   3.531   2.205   3.590 -2.1944  0.9123 -0.4101
  676MOL0     H91239   3.631   2.342   3.574 -0.1715  0.2943  0.9727
  676MOL0     H91240   3.466   2.222   3.353  0.2588  0.7980  0.6862
  676MOL0     H91241   3.644   2.255   3.371  1.9932  1.0276  5.3212
  676MOL0     H91242   3.574   3.019   4.059  0.2489 -0.5888 -0.8543
  676MOL0     H91243   3.812   3.035   4.049  0.8896  0.1974  1.3872
  676MOL0     H91244   4.192   2.909   4.267 -2.2081  3.6444  0.5948
  676MOL0     H91245   4.407   2.990   4.313  1.9716  0.7996 -0.0211
  676MOL0     H91246   6.306   2.691   3.422  0.9294 -2.2242 -0.5674
  676MOL0     H91247   6.510   2.564   3.401 -0.6812 -0.5665 -0.8440
  676MOL0     H91248   6.964   2.568   3.739  0.4486 -1.6914  0.4790
  676MOL0     H91249   7.187   2.493   3.675  1.8450 -3.5924 -1.2494
  676MOL0     H91250   7.352   2.491   3.510  1.5657 -0.6240 -2.9609
  676MOL0     H91251   7.388   2.370   3.635  1.4607  0.6530 -0.3568
  676MOL0     H91252   7.546   2.413   3.456 -1.6361  2.9918 -0.2220
  676MOL0     H91253   7.446   2.323   3.348 -0.7735  1.3858  0.7555
  676MOL0     H91254   7.534   2.203   3.622  0.8924 -1.2867 -0.9277
  676MOL0     H91255   7.636   2.178   3.485 -0.0971  0.5781 -0.3088
  676MOL0     H91256   7.419   2.092   3.362  1.1945  0.5202 -0.2568
  676MOL0     H91257   7.339   2.082   3.519  1.4112 -0.9120  2.0820
  676MOL0     H91258   7.601   1.772   3.596  1.3987  2.2254  1.4077
  676MOL0     H91259   7.011   2.225   3.377 -2.0749 -3.0578  2.3008
  676MOL0     H91260   6.804   2.331   3.421  0.7496 -0.1457 -0.3487
  677MOL0     O91261  10.011   0.037   0.784  0.3193  0.1429  0.1582
  677MOL0     C91262  10.074  -0.025   0.874  0.3088 -0.1983  0.2403
  677MOL0     O91263  10.013  -0.107   0.970 -0.7720  0.3454  0.0368
  677MOL0     C91264   9.878  -0.125   0.985  0.0821  0.2340  0.5242
  677MOL0     C91265   9.843  -0.257   0.994  0.7445 -0.4752 -0.0782
  677MOL0     C91266   9.704  -0.297   1.000  0.0754 -1.2278 -0.4507
  677MOL0     C91267   9.603  -0.196   0.970 -0.0292 -0.1837 -0.4115
  677MOL0     O91268   9.472  -0.215   0.950  0.3967 -0.1204  0.2439
  677MOL0     C91269   9.415  -0.352   0.954 -0.1844 -0.4086  1.4730
  677MOL0     C91270   9.265  -0.362   0.926 -0.0547 -0.6035  0.1521
  677MOL0     C91271   9.218  -0.501   0.895 -0.0585 -0.2506  0.1506
  677MOL0     C91272   9.063  -0.508   0.880  0.0179 -0.8080  0.5112
  677MOL0     C91273   9.016  -0.626   0.799 -0.6187  0.0627 -0.6838
  677MOL0     C91274   8.880  -0.622   0.722  0.5431  0.1364 -0.5643
  677MOL0     C91275   8.847  -0.754   0.644  0.5921  0.1452  0.3812
  677MOL0     C91276   8.705  -0.748   0.578  0.3448 -0.1604  0.3542
  677MOL0     N91277   8.692  -0.636   0.477  0.0868  0.3285  0.2229
  677MOL0     C91278   8.770  -0.600   0.379 -0.0605 -0.3711  1.0867
  677MOL0     C91279   8.700  -0.505   0.313 -0.0273  0.5314  0.0944
  677MOL0     C91280   8.734  -0.442   0.184 -0.9908  0.9833  0.5037
  677MOL0     C91281   8.685  -0.525   0.060  0.1844  0.8543  0.3613
  677MOL0     C91282   8.721  -0.679   0.033  0.3183  0.0520 -0.5704
  677MOL0     C91283   8.847  -0.699  -0.051 -0.4343  0.7091  0.0720
  677MOL0     O91284   8.950  -0.637   0.025 -0.0462 -0.6342  0.3166
  677MOL0     C91285   9.062  -0.590  -0.035  0.2356  0.6339 -0.1161
  677MOL0     C91286   9.134  -0.484   0.026  0.1324 -0.2763 -0.4522
  677MOL0     C91287   9.248  -0.433  -0.042  0.0064 -0.1263  0.4027
  677MOL0     C91288   9.333  -0.322   0.031 -0.1134  0.4978  0.3792
  677MOL0     C91289   9.299  -0.487  -0.161  0.0698 -0.1429  0.2807
  677MOL0     C91290   9.423  -0.456  -0.240 -0.2770 -0.7039 -0.0769
  677MOL0     O91291   9.493  -0.559  -0.279 -0.1978 -0.1619  0.2537
  677MOL0     C91292   9.630  -0.540  -0.300  0.2714  0.1474 -0.1323
  677MOL0     C91293   9.697  -0.642  -0.365 -0.4312  0.3718 -0.0207
  677MOL0     C91294   9.831  -0.644  -0.393  0.2368  0.3419  0.5717
  677MOL0     C91295   9.912  -0.540  -0.347  0.9332  0.5484  0.2381
  677MOL0     O91296  10.045  -0.546  -0.370  0.2916 -0.2408 -0.2341
  677MOL0     C91297  10.122  -0.658  -0.328 -0.0823 -0.3640  0.0063
  677MOL0     C91298  10.272  -0.629  -0.350 -0.3545  0.2050 -0.2982
  677MOL0     C91299  10.317  -0.519  -0.247 -0.7229  0.5655 -0.6558
  677MOL0     C91300  10.471  -0.539  -0.213  0.1746  0.4355  0.2469
  677MOL0     C91301  10.558  -0.560  -0.332 -0.0418 -0.5816  0.6227
  677MOL0     C91302  10.708  -0.546  -0.299 -0.7059  0.1250 -0.3937
  677MOL0     C91303  10.798  -0.563  -0.419 -0.2756 -0.0070 -0.5989
  677MOL0     C91304  10.940  -0.561  -0.376  0.6131 -0.0087 -0.7996
  677MOL0    Cl91305  11.045  -0.623  -0.503  0.2284  0.2828 -0.0585
  677MOL0     C91306   9.854  -0.442  -0.271  0.4613 -0.5640 -0.3303
  677MOL0     C91307   9.711  -0.441  -0.248 -0.3030 -0.1747 -0.7920
  677MOL0     O91308   9.436  -0.342  -0.282  0.8662 -0.0161 -0.1754
  677MOL0     C91309   9.225  -0.598  -0.213 -0.6003 -0.3475  0.1872
  677MOL0     C91310   9.103  -0.641  -0.154 -0.4045  0.0857  0.8790
  677MOL0     N91311   8.578  -0.490   0.367 -0.3530  0.2721  0.3990
  677MOL0     N91312   8.573  -0.572   0.465  0.0657  0.0598  0.0900
  677MOL0     C91313   9.644  -0.062   0.978 -0.2773  0.4667 -0.1363
  677MOL0     C91314   9.782  -0.025   0.984  0.2532  0.1461  0.2674
  677MOL0     C91315  10.221  -0.015   0.870  0.6107  0.1987  0.3886
  677MOL0     C91316  10.277   0.095   0.798 -0.7965 -0.4243 -0.4812
  677MOL0     C91317  10.417   0.113   0.802 -0.1995 -0.7376  1.0067
  677MOL0     C91318  10.503   0.030   0.868  0.5470  0.4129  0.2369
  677MOL0     O91319  10.639   0.042   0.872  0.0358 -0.1790  0.1596
  677MOL0     C91320  10.706   0.175   0.850 -0.4189  0.2282 -0.7498
  677MOL0     C91321  10.789   0.173   0.727  0.8343  0.8578 -0.6882
  677MOL0     C91322  10.887   0.285   0.719 -0.3577  0.2527 -0.0159
  677MOL0     C91323  10.986   0.245   0.611 -0.4487 -0.5590  0.3883
  677MOL0     C91324  11.088   0.347   0.584  0.0231 -0.0762  0.2768
  677MOL0     C91325  11.169   0.423   0.545 -1.3890 -0.5256  0.0481
  677MOL0     C91326  10.443  -0.078   0.934  0.2639  0.0148  0.3318
  677MOL0     C91327  10.306  -0.096   0.942 -0.1569  0.4627 -0.3214
  677MOL0     H91328   9.923  -0.330   0.993  2.1369  0.9121  2.3955
  677MOL0     H91329   9.681  -0.403   1.001  1.0084 -1.4548  0.9069
  677MOL0     H91330   9.466  -0.406   0.874  0.7869  2.8194 -0.2932
  677MOL0     H91331   9.432  -0.394   1.053  1.8309 -2.5131  0.3308
  677MOL0     H91332   9.218  -0.323   1.016  3.0541  0.4771  1.4569
  677MOL0     H91333   9.245  -0.307   0.834  0.2869  0.5483  0.7435
  677MOL0     H91334   9.266  -0.523   0.799  2.0486 -0.2002  1.1309
  677MOL0     H91335   9.259  -0.574   0.965 -0.3517 -0.9992 -0.4357
  677MOL0     H91336   9.005  -0.492   0.971 -1.1291  0.8351 -0.4328
  677MOL0     H91337   9.043  -0.418   0.820  2.7572 -1.3778 -1.4358
  677MOL0     H91338   9.093  -0.668   0.734 -0.8839 -3.0499  0.8477
  677MOL0     H91339   9.017  -0.713   0.865  1.3828 -1.8208 -3.0062
  677MOL0     H91340   8.807  -0.607   0.801  1.1765  0.2333  0.0052
  677MOL0     H91341   8.872  -0.541   0.648 -0.4876  1.2300  0.6963
  677MOL0     H91342   8.925  -0.776   0.570  0.2944  2.4732 -0.6933
  677MOL0     H91343   8.842  -0.842   0.709 -1.8356  1.0153  1.4986
  677MOL0     H91344   8.631  -0.727   0.655  2.6118  4.3835  1.6570
  677MOL0     H91345   8.675  -0.841   0.529 -0.1317  0.7606 -1.1713
  677MOL0     H91346   8.866  -0.644   0.355  0.0981 -1.1138  2.9915
  677MOL0     H91347   8.693  -0.340   0.188  1.9958  2.2775  0.2261
  677MOL0     H91348   8.842  -0.436   0.174 -1.1567  1.1473 -1.8456
  677MOL0     H91349   8.702  -0.462  -0.028 -2.7735  0.2336 -0.7725
  677MOL0     H91350   8.577  -0.526   0.076  0.3179 -0.4811  1.3213
  677MOL0     H91351   8.636  -0.722  -0.020  1.1280 -1.5363 -0.6297
  677MOL0     H91352   8.728  -0.719   0.135 -0.6069  0.6158 -0.2786
  677MOL0     H91353   8.838  -0.642  -0.144  1.2674  0.4775 -0.2711
  677MOL0     H91354   8.868  -0.805  -0.068 -1.2910  0.5790 -0.2492
  677MOL0     H91355   9.096  -0.436   0.115 -1.9302 -0.9898 -0.9081
  677MOL0     H91356   9.439  -0.338   0.009 -0.6971 -1.7389 -1.1750
  677MOL0     H91357   9.305  -0.223  -0.007 -1.7445  0.3367  1.0962
  677MOL0     H91358   9.310  -0.324   0.138  0.6422 -1.4716  0.5371
  677MOL0     H91359   9.638  -0.725  -0.403 -0.1809  0.2577 -0.1648
  677MOL0     H91360   9.878  -0.723  -0.451  2.2761  1.8333  0.0848
  677MOL0     H91361  10.103  -0.680  -0.223 -0.5435 -0.2197 -0.0466
  677MOL0     H91362  10.084  -0.749  -0.375  2.2924 -0.9333 -0.9753
  677MOL0     H91363  10.327  -0.723  -0.344  1.9541  1.4853 -0.4548
  677MOL0     H91364  10.291  -0.599  -0.453  1.0759  1.3789  0.2714
  677MOL0     H91365  10.257  -0.518  -0.155  1.6367  1.0894  0.9832
  677MOL0     H91366  10.295  -0.422  -0.293 -1.0206  0.3900 -0.8816
  677MOL0     H91367  10.506  -0.457  -0.149  0.9669 -1.0884  1.8474
  677MOL0     H91368  10.481  -0.637  -0.166 -2.6228 -1.5895 -2.8897
  677MOL0     H91369  10.541  -0.477  -0.400 -1.7340 -0.6161  0.9637
  677MOL0     H91370  10.544  -0.657  -0.380  3.1315 -0.5107 -0.7025
  677MOL0     H91371  10.734  -0.456  -0.242  1.6449 -0.4416 -0.4729
  677MOL0     H91372  10.729  -0.623  -0.224 -0.5507  1.0830  0.5743
  677MOL0     H91373  10.779  -0.487  -0.496 -3.4030  2.5655  2.4287
  677MOL0     H91374  10.792  -0.665  -0.457 -0.8414 -0.7909  1.4789
  677MOL0     H91375  10.955  -0.623  -0.287 -1.5117  0.6147  0.0636
  677MOL0     H91376  10.988  -0.467  -0.349  0.1870 -0.4061  1.5565
  677MOL0     H91377   9.906  -0.366  -0.213  0.2011  0.3185 -1.2460
  677MOL0     H91378   9.669  -0.374  -0.174  2.2158 -0.0907  0.6906
  677MOL0     H91379   9.256  -0.646  -0.305 -3.3691  0.8081 -1.4831
  677MOL0     H91380   9.066  -0.734  -0.197  1.4592 -0.7088  0.9041
  677MOL0     H91381   9.565   0.013   0.979 -0.0590  0.7414 -1.5813
  677MOL0     H91382   9.820   0.075   1.005 -1.1574  0.8885 -0.5480
  677MOL0     H91383  10.218   0.177   0.758 -0.5044 -0.0424 -0.1345
  677MOL0     H91384  10.451   0.197   0.743  0.8979 -1.2296  0.9256
  677MOL0     H91385  10.628   0.252   0.848 -1.9344 -1.2090  0.3427
  677MOL0     H91386  10.771   0.203   0.933 -0.8313  0.5422 -0.5277
  677MOL0     H91387  10.728   0.181   0.637  1.2494  1.8035 -0.8980
  677MOL0     H91388  10.842   0.077   0.727  0.5091  0.5267  3.1309
  677MOL0     H91389  10.934   0.301   0.817 -1.2077 -2.2135  0.8635
  677MOL0     H91390  10.839   0.380   0.692  1.6423  1.5926  0.8428
  677MOL0     H91391  10.935   0.237   0.514  0.6662  2.2073 -0.5344
  677MOL0     H91392  11.030   0.147   0.626  5.1425  1.3810 -0.8881
  677MOL0     H91393  11.251   0.489   0.524 -0.2625 -1.2025  2.0470
  677MOL0     H91394  10.503  -0.154   0.983 -0.0361 -0.2427  0.2990
  677MOL0     H91395  10.250  -0.168   1.002 -0.1004 -0.7016 -1.5997
  678MOL0     O91396  10.774   4.138   8.965 -0.0302  0.5514 -0.4997
  678MOL0     C91397  10.872   4.156   8.892 -0.4157 -0.3914 -0.2954
  678MOL0     O91398  10.875   4.245   8.789  0.6339 -0.3158  0.1469
  678MOL0     C91399  10.758   4.306   8.765 -0.1562 -0.3351  0.3142
  678MOL0     C91400  10.737   4.437   8.806 -0.9864 -0.6681 -0.3252
  678MOL0     C91401  10.625   4.506   8.751  0.2331  0.9100 -0.1413
  678MOL0     C91402  10.530   4.439   8.676 -0.1344  0.8848  0.3801
  678MOL0     O91403  10.413   4.506   8.653  0.0982  0.4515 -0.3233
  678MOL0     C91404  10.309   4.449   8.577  0.8434 -0.8971 -1.0473
  678MOL0     C91405  10.188   4.533   8.577  0.2753 -0.5551 -0.6149
  678MOL0     C91406  10.093   4.484   8.686  0.6795 -0.7385  0.0705
  678MOL0     C91407   9.961   4.565   8.695 -0.2062 -0.9379 -0.5261
  678MOL0     C91408   9.864   4.514   8.808 -0.0409  0.0046  0.4552
  678MOL0     C91409   9.791   4.389   8.764  0.1143  0.1713  0.7099
  678MOL0     C91410   9.719   4.392   8.630 -0.3949 -0.0880 -0.2046
  678MOL0     C91411   9.598   4.485   8.636  0.9263 -0.5967 -0.0696
  678MOL0     N91412   9.505   4.453   8.743  0.2502 -0.5168  0.3696
  678MOL0     C91413   9.430   4.342   8.736  0.0296  0.1050  1.1971
  678MOL0     C91414   9.361   4.327   8.848 -0.2012  0.5756 -0.3062
  678MOL0     C91415   9.272   4.208   8.893 -1.3450  0.8124  0.5503
  678MOL0     C91416   9.126   4.250   8.929  0.2758  1.2800  0.0981
  678MOL0     C91417   9.047   4.120   8.920  0.1857 -0.3443 -0.2648
  678MOL0     C91418   8.940   4.134   9.023  1.1558  0.1247 -0.4757
  678MOL0     O91419   8.863   4.256   8.994  0.4869 -0.2266  0.5034
  678MOL0     C91420   8.761   4.250   8.903 -0.3896 -0.1067 -0.3146
  678MOL0     C91421   8.691   4.376   8.891  0.0271 -0.3488 -0.8426
  678MOL0     C91422   8.574   4.388   8.812 -0.0300  0.0657  0.5270
  678MOL0     C91423   8.513   4.525   8.822  0.5395 -0.3982 -0.1036
  678MOL0     C91424   8.533   4.272   8.738  0.0796 -0.8008 -0.4545
  678MOL0     C91425   8.406   4.275   8.659  0.6439 -0.3158 -0.1051
  678MOL0     O91426   8.396   4.158   8.584 -0.1196  0.4543 -0.4003
  678MOL0     C91427   8.280   4.158   8.512  0.5227  0.4313  0.6187
  678MOL0     C91428   8.255   4.242   8.406  0.3866  0.1999 -0.3456
  678MOL0     C91429   8.132   4.238   8.343  0.1666  0.4018  0.0465
  678MOL0     C91430   8.040   4.140   8.373 -0.3494  0.2213  0.8490
  678MOL0     O91431   7.915   4.113   8.325 -0.0284  0.5083  1.0130
  678MOL0     C91432   7.855   4.227   8.265  0.7483  0.3366 -0.6496
  678MOL0     C91433   7.700   4.227   8.276 -0.0892  0.0431 -0.3471
  678MOL0     C91434   7.637   4.114   8.198 -0.0593  0.9159 -0.2074
  678MOL0     C91435   7.498   4.077   8.264 -0.9736  0.1433  0.3812
  678MOL0     C91436   7.430   3.975   8.163  0.6482  0.1055 -0.3675
  678MOL0     C91437   7.282   3.946   8.193  0.3452  0.2169 -0.5192
  678MOL0     C91438   7.192   4.065   8.192 -0.1732  0.4446 -0.1629
  678MOL0     C91439   7.040   4.044   8.175  0.5188 -0.2610  0.1009
  678MOL0    Cl91440   6.949   3.935   8.292  0.3929 -0.0113  0.5308
  678MOL0     C91441   8.071   4.051   8.473  0.3583 -0.1551 -0.0223
  678MOL0     C91442   8.191   4.060   8.549 -0.4075 -0.2614  0.0456
  678MOL0     O91443   8.318   4.362   8.665  0.3175  0.7611 -0.3006
  678MOL0     C91444   8.612   4.157   8.743  0.7845  0.1465 -0.4521
  678MOL0     C91445   8.724   4.146   8.819 -0.2743  0.0036  0.3977
  678MOL0     N91446   9.404   4.433   8.931 -0.0468  0.0008 -0.1786
  678MOL0     N91447   9.475   4.516   8.858 -0.2550 -0.2258  0.2526
  678MOL0     C91448  10.555   4.304   8.629 -0.4434 -1.0692 -0.0338
  678MOL0     C91449  10.669   4.240   8.675 -0.1635  0.1500 -0.0637
  678MOL0     C91450  11.002   4.078   8.907  0.0254  0.8274 -0.2245
  678MOL0     C91451  11.116   4.116   8.837  0.3543  0.4645 -0.1154
  678MOL0     C91452  11.228   4.043   8.842 -1.2402  0.5599 -1.0939
  678MOL0     C91453  11.234   3.917   8.911 -1.2006 -0.0501  0.0585
  678MOL0     O91454  11.349   3.836   8.911  0.6560  0.2356  0.0474
  678MOL0     C91455  11.453   3.869   8.817  0.5785  0.0612 -0.4195
  678MOL0     C91456  11.577   3.785   8.840  0.5347  0.5075 -0.0579
  678MOL0     C91457  11.562   3.642   8.775  0.2318 -0.1814  0.2776
  678MOL0     C91458  11.662   3.528   8.804 -0.4730  0.3071  0.0722
  678MOL0     C91459  11.812   3.556   8.795  0.3802 -0.7818 -0.5215
  678MOL0     C91460  11.932   3.576   8.789  0.1986  0.2022 -0.8310
  678MOL0     C91461  11.121   3.887   8.980  0.4736  0.2984 -0.2639
  678MOL0     C91462  10.999   3.958   8.975  0.4081 -1.3041 -0.7859
  678MOL0     H91463  10.811   4.488   8.867 -1.4281 -0.9909  0.4860
  678MOL0     H91464  10.608   4.612   8.768 -1.5054  0.5151  0.7549
  678MOL0     H91465  10.338   4.443   8.472 -2.5722  1.1233 -2.2670
  678MOL0     H91466  10.276   4.348   8.605  0.1169 -0.5404 -0.5849
  678MOL0     H91467  10.202   4.641   8.590 -2.5818 -0.3552  1.9118
  678MOL0     H91468  10.140   4.519   8.479  1.7348 -0.8252 -1.3187
  678MOL0     H91469  10.072   4.378   8.670  0.6227 -0.8911  1.0591
  678MOL0     H91470  10.154   4.490   8.777  0.7520 -1.2339  0.0605
  678MOL0     H91471   9.996   4.665   8.721  1.1564 -1.6248  0.4580
  678MOL0     H91472   9.916   4.567   8.596 -2.0607 -0.0883  0.2913
  678MOL0     H91473   9.921   4.496   8.900  2.7476  0.7785 -0.9922
  678MOL0     H91474   9.794   4.595   8.825 -2.2125 -1.1501 -2.2278
  678MOL0     H91475   9.865   4.308   8.770  1.2892  1.1625 -0.0448
  678MOL0     H91476   9.716   4.363   8.839  0.5990 -1.1129  0.7754
  678MOL0     H91477   9.788   4.420   8.550  2.8812 -0.8936  2.1359
  678MOL0     H91478   9.687   4.291   8.604  3.0523 -1.0388 -1.3568
  678MOL0     H91479   9.536   4.494   8.546 -3.8987 -0.8129  2.8682
  678MOL0     H91480   9.633   4.587   8.652 -0.6480  0.4175 -2.4647
  678MOL0     H91481   9.441   4.265   8.661  1.6686  0.3742  1.1286
  678MOL0     H91482   9.271   4.138   8.809  0.9696 -1.3418  2.1678
  678MOL0     H91483   9.325   4.160   8.975 -0.8201 -0.5343 -0.5322
  678MOL0     H91484   9.087   4.326   8.860  0.9340  0.0810 -1.6528
  678MOL0     H91485   9.121   4.288   9.031 -0.3790 -1.5983  1.2201
  678MOL0     H91486   9.110   4.034   8.943  0.9676  0.6963  1.6288
  678MOL0     H91487   9.000   4.118   8.821 -2.1628  1.1405  0.7264
  678MOL0     H91488   8.985   4.136   9.123 -1.2217 -0.3124  0.6727
  678MOL0     H91489   8.876   4.045   9.018  0.3383  0.7745 -3.8896
  678MOL0     H91490   8.737   4.462   8.940  1.0856 -0.9679 -0.7309
  678MOL0     H91491   8.454   4.551   8.733  0.4455  1.5942  0.4896
  678MOL0     H91492   8.437   4.529   8.901  0.3492 -1.5602 -0.1985
  678MOL0     H91493   8.593   4.597   8.837  0.9565 -0.2877 -2.5446
  678MOL0     H91494   8.329   4.313   8.371  0.8509  0.5701  1.2843
  678MOL0     H91495   8.125   4.306   8.258  3.9000  0.3615 -0.4771
  678MOL0     H91496   7.892   4.317   8.315  0.2147  0.0333  0.3219
  678MOL0     H91497   7.883   4.232   8.159  2.4589 -2.3099 -0.4163
  678MOL0     H91498   7.657   4.246   8.375  1.9428 -0.0281  0.5967
  678MOL0     H91499   7.672   4.315   8.218 -1.8003 -0.0754  0.2383
  678MOL0     H91500   7.695   4.022   8.205 -1.4037  0.1418  1.3845
  678MOL0     H91501   7.634   4.139   8.091 -3.7874 -1.0974 -0.7614
  678MOL0     H91502   7.517   4.023   8.358 -1.0982 -2.4679 -1.0204
  678MOL0     H91503   7.439   4.168   8.275  0.9692  1.6275 -0.8017
  678MOL0     H91504   7.489   3.884   8.178 -0.6032 -0.4817  1.2662
  678MOL0     H91505   7.443   4.003   8.058 -0.9484 -3.9527 -1.8324
  678MOL0     H91506   7.250   3.869   8.122  1.5747  0.6815 -1.6187
  678MOL0     H91507   7.276   3.902   8.293 -1.1177 -2.3217 -1.6285
  678MOL0     H91508   7.227   4.118   8.102 -1.1527  1.0226 -0.2167
  678MOL0     H91509   7.209   4.131   8.278 -0.3922  0.7932 -0.3820
  678MOL0     H91510   7.025   4.000   8.076 -1.9840  0.3758  0.1211
  678MOL0     H91511   6.988   4.140   8.189  1.2310  0.5440 -2.3179
  678MOL0     H91512   7.997   3.980   8.510  2.1987 -1.0815  2.1460
  678MOL0     H91513   8.216   3.995   8.633  0.6782 -1.1172 -0.9065
  678MOL0     H91514   8.596   4.078   8.669  0.5985  2.4088 -2.9883
  678MOL0     H91515   8.778   4.052   8.820 -3.4543 -2.0259 -1.1947
  678MOL0     H91516  10.486   4.251   8.564  2.0598  0.1984 -4.0630
  678MOL0     H91517  10.693   4.139   8.642  1.6857  0.2419  0.8917
  678MOL0     H91518  11.123   4.197   8.766 -1.3099 -1.1983 -2.3154
  678MOL0     H91519  11.298   4.074   8.765  0.7773  2.3519  1.2719
  678MOL0     H91520  11.418   3.839   8.718 -0.5398  1.2759 -0.4172
  678MOL0     H91521  11.483   3.974   8.818  0.2140  0.1634  0.3402
  678MOL0     H91522  11.600   3.785   8.947 -2.3626  1.4940  0.6600
  678MOL0     H91523  11.662   3.827   8.787  0.5724  0.9122  0.3200
  678MOL0     H91524  11.578   3.649   8.667 -0.6049 -1.1083  0.0838
  678MOL0     H91525  11.464   3.605   8.805  0.4946 -0.7469  0.4632
  678MOL0     H91526  11.644   3.445   8.735 -2.0374  0.6045  0.0869
  678MOL0     H91527  11.639   3.486   8.903 -1.4035 -2.1967 -1.1203
  678MOL0     H91528  12.038   3.591   8.789  0.0714  1.4933  0.9803
  678MOL0     H91529  11.120   3.793   9.035  0.1100  0.3151 -0.2379
  678MOL0     H91530  10.910   3.925   9.028 -0.6675 -0.2845 -1.8852
  679MOL0     O91531   3.043   6.078  11.138 -0.0469  0.3313 -0.6081
  679MOL0     C91532   3.101   6.141  11.050 -0.0167  0.3877 -0.2880
  679MOL0     O91533   3.069   6.269  11.013 -0.5847 -0.0460 -0.4902
  679MOL0     C91534   2.968   6.327  11.079  0.4227  0.0586  0.2336
  679MOL0     C91535   2.992   6.452  11.136 -0.2267 -0.4559 -1.0788
  679MOL0     C91536   2.888   6.529  11.193 -0.3261  0.8134  0.3227
  679MOL0     C91537   2.762   6.476  11.191  0.0023 -0.4360 -0.2397
  679MOL0     O91538   2.671   6.566  11.243 -0.5671 -0.0366  0.1267
  679MOL0     C91539   2.553   6.494  11.293  0.1906 -0.6686  0.4077
  679MOL0     C91540   2.462   6.585  11.386  0.2144 -0.4569 -0.5206
  679MOL0     C91541   2.329   6.526  11.453 -1.0438  1.5030  0.4288
  679MOL0     C91542   2.216   6.621  11.454  0.5506 -0.8638 -0.1774
  679MOL0     C91543   2.091   6.577  11.534  0.0120 -0.0231 -0.4445
  679MOL0     C91544   2.004   6.701  11.560  0.4332 -0.0434 -0.0065
  679MOL0     C91545   1.884   6.670  11.647 -0.8169  0.2925 -0.6992
  679MOL0     C91546   1.805   6.792  11.700  0.2721  1.2418 -0.2730
  679MOL0     N91547   1.704   6.744  11.791 -0.2896 -0.9655 -0.3719
  679MOL0     C91548   1.579   6.698  11.755 -0.6659  0.6572  0.3780
  679MOL0     C91549   1.509   6.698  11.868  0.7069 -0.8799 -0.4173
  679MOL0     C91550   1.368   6.629  11.883  0.5251  0.2491 -0.6177
  679MOL0     C91551   1.274   6.656  11.771 -0.0810  0.7554  0.1905
  679MOL0     C91552   1.241   6.800  11.763 -0.1121  0.3224 -0.7028
  679MOL0     C91553   1.134   6.828  11.661  0.0261  0.2570  1.1393
  679MOL0     O91554   1.022   6.743  11.683  0.0512 -0.4745  0.1301
  679MOL0     C91555   0.907   6.738  11.611 -0.5063  1.0234 -1.0742
  679MOL0     C91556   0.872   6.845  11.526 -0.0514  0.7123  0.2561
  679MOL0     C91557   0.748   6.846  11.463 -0.1110  0.4786  0.5674
  679MOL0     C91558   0.732   6.969  11.374 -0.4866 -0.1925 -0.9692
  679MOL0     C91559   0.653   6.737  11.482  0.3650 -0.1371  0.7677
  679MOL0     C91560   0.517   6.737  11.422  0.5704  1.0292 -0.4700
  679MOL0     O91561   0.444   6.626  11.435  0.3770 -0.0291  0.1290
  679MOL0     C91562   0.314   6.615  11.388  0.5674 -0.5980 -0.7384
  679MOL0     C91563   0.257   6.673  11.264 -0.2674 -0.0225 -1.2419
  679MOL0     C91564   0.126   6.638  11.221  0.7395 -0.0310  0.1936
  679MOL0     C91565   0.039   6.551  11.289 -0.4491 -0.6254  0.4390
  679MOL0     O91566  -0.086   6.523  11.239 -0.3712  0.1292  0.4516
  679MOL0     C91567  -0.177   6.454  11.327  0.0652  0.1744  0.4768
  679MOL0     C91568  -0.313   6.433  11.255 -0.9596 -0.6137  0.7345
  679MOL0     C91569  -0.401   6.334  11.338  0.4446  0.4231 -0.4968
  679MOL0     C91570  -0.503   6.277  11.239  0.0556 -0.1222 -0.7396
  679MOL0     C91571  -0.620   6.378  11.228  0.2679 -0.4812  0.0690
  679MOL0     C91572  -0.742   6.301  11.197  0.3647 -0.2224 -0.5788
  679MOL0     C91573  -0.855   6.393  11.159 -0.3126 -0.5983  0.3305
  679MOL0     C91574  -0.976   6.320  11.106  0.2014  0.0257  1.1919
  679MOL0    Cl91575  -0.927   6.224  10.953 -0.0133 -0.0683 -0.2316
  679MOL0     C91576   0.097   6.505  11.408 -0.2393 -0.0856 -0.1610
  679MOL0     C91577   0.228   6.537  11.458 -0.0736 -0.0313  0.0713
  679MOL0     O91578   0.480   6.839  11.372  0.3756  0.4946  0.6223
  679MOL0     C91579   0.694   6.628  11.557 -0.0331 -0.3744 -0.0881
  679MOL0     C91580   0.814   6.636  11.625 -0.1870  0.2396 -0.0840
  679MOL0     N91581   1.579   6.757  11.971 -0.3778 -0.6208 -0.6703
  679MOL0     N91582   1.699   6.780  11.924  0.3541 -0.0993  0.5631
  679MOL0     C91583   2.729   6.358  11.126 -0.1605  0.8186 -0.1401
  679MOL0     C91584   2.831   6.284  11.063 -0.5155  0.6882 -0.3324
  679MOL0     C91585   3.218   6.066  10.990  0.3949 -0.2391  0.2823
  679MOL0     C91586   3.288   6.116  10.884  0.7949 -0.1002 -0.3337
  679MOL0     C91587   3.393   6.043  10.825  0.5048 -0.5664  0.6932
  679MOL0     C91588   3.434   5.928  10.887 -0.3246  0.3331 -0.0302
  679MOL0     O91589   3.540   5.847  10.839 -0.0128 -0.5639 -0.0958
  679MOL0     C91590   3.609   5.898  10.723  0.5306  0.1156 -0.0348
  679MOL0     C91591   3.702   5.790  10.672  0.0906 -0.2321 -0.4260
  679MOL0     C91592   3.640   5.660  10.637  0.6689 -1.1434  0.6979
  679MOL0     C91593   3.665   5.541  10.730  0.0834  0.8187 -0.3811
  679MOL0     C91594   3.597   5.412  10.684 -0.3887 -0.4224  0.7095
  679MOL0     C91595   3.538   5.311  10.654  0.2692  0.0981  0.2446
  679MOL0     C91596   3.372   5.887  11.001 -0.2376 -0.1467  0.1373
  679MOL0     C91597   3.265   5.954  11.059 -0.1550  0.0875  0.0311
  679MOL0     H91598   3.090   6.492  11.157 -0.9046  0.2088  1.1027
  679MOL0     H91599   2.901   6.626  11.240 -2.4669  1.1198  0.4018
  679MOL0     H91600   2.489   6.456  11.213  0.1776  1.7475 -0.8427
  679MOL0     H91601   2.571   6.398  11.342 -4.2842 -0.4737  2.9421
  679MOL0     H91602   2.525   6.637  11.459 -0.8638  2.8403 -1.7280
  679MOL0     H91603   2.428   6.672  11.329 -1.8352  0.4887  1.9634
  679MOL0     H91604   2.291   6.436  11.405 -1.2939  0.0344  3.1583
  679MOL0     H91605   2.345   6.488  11.555 -0.7273  2.2353  0.6584
  679MOL0     H91606   2.256   6.713  11.497 -0.0866 -0.7864  0.2650
  679MOL0     H91607   2.174   6.639  11.354 -1.4355  0.3429  0.8026
  679MOL0     H91608   2.029   6.512  11.471  1.1013  2.7916 -4.8465
  679MOL0     H91609   2.126   6.528  11.626  0.8969  0.3770 -0.5566
  679MOL0     H91610   2.076   6.768  11.607  2.9223 -0.1343 -3.3304
  679MOL0     H91611   1.971   6.753  11.470 -3.3193  1.5345  2.0765
  679MOL0     H91612   1.812   6.599  11.604  0.5233 -2.3317  1.1317
  679MOL0     H91613   1.929   6.616  11.731 -1.2159  0.4894 -0.3569
  679MOL0     H91614   1.752   6.847  11.622 -0.6075 -0.4191 -0.9094
  679MOL0     H91615   1.872   6.863  11.749  0.3528  1.2845 -0.4431
  679MOL0     H91616   1.543   6.654  11.662  0.8028 -1.5007  0.7547
  679MOL0     H91617   1.379   6.521  11.892 -3.3948 -0.3030 -0.7521
  679MOL0     H91618   1.331   6.650  11.984 -1.4301 -2.4852 -0.6665
  679MOL0     H91619   1.180   6.599  11.778 -2.0048  3.3898 -2.1629
  679MOL0     H91620   1.320   6.625  11.677  1.0696  0.3181  0.8701
  679MOL0     H91621   1.324   6.860  11.724 -2.0562  3.4474 -0.4090
  679MOL0     H91622   1.210   6.845  11.858 -0.1690 -2.0490  0.4522
  679MOL0     H91623   1.176   6.808  11.562  1.1542  0.1914  1.6196
  679MOL0     H91624   1.109   6.934  11.657 -1.2027 -0.0405 -1.9178
  679MOL0     H91625   0.950   6.918  11.506 -0.3225  0.7906 -0.5765
  679MOL0     H91626   0.833   6.990  11.336 -0.6587 -0.1377 -1.4045
  679MOL0     H91627   0.666   6.953  11.288  1.0656  3.2565 -3.0399
  679MOL0     H91628   0.700   7.054  11.434 -0.2713  0.5225 -1.8400
  679MOL0     H91629   0.328   6.723  11.199 -1.5563  0.7634 -2.1110
  679MOL0     H91630   0.107   6.661  11.117  0.5581  1.0101  0.4505
  679MOL0     H91631  -0.147   6.357  11.369 -1.5081  0.5385  2.6396
  679MOL0     H91632  -0.192   6.517  11.416  0.0604  1.6111 -0.5135
  679MOL0     H91633  -0.353   6.527  11.217  1.8554 -0.0981 -1.3285
  679MOL0     H91634  -0.289   6.388  11.159 -2.9952  2.5679 -1.4438
  679MOL0     H91635  -0.451   6.375  11.426 -1.9288 -1.1323 -1.0102
  679MOL0     H91636  -0.344   6.244  11.364 -0.5924  0.0403  0.5124
  679MOL0     H91637  -0.457   6.247  11.144 -0.0660 -0.5781 -0.6572
  679MOL0     H91638  -0.546   6.185  11.281 -1.0370  0.1209 -1.2712
  679MOL0     H91639  -0.605   6.457  11.155  1.7941 -1.5985 -0.8889
  679MOL0     H91640  -0.629   6.429  11.324 -0.5963 -1.1619  0.3669
  679MOL0     H91641  -0.719   6.247  11.105 -1.2752  3.4422 -3.3981
  679MOL0     H91642  -0.781   6.236  11.276  0.6943 -0.3965 -0.5582
  679MOL0     H91643  -0.830   6.456  11.074 -1.5873 -1.6861 -0.8922
  679MOL0     H91644  -0.888   6.459  11.240 -1.2374  2.9610 -2.7122
  679MOL0     H91645  -1.061   6.387  11.091  0.2004 -0.3925 -1.0110
  679MOL0     H91646  -1.018   6.246  11.174 -1.9592 -0.4879 -0.5747
  679MOL0     H91647   0.046   6.436  11.474 -1.2261  1.0753  0.3329
  679MOL0     H91648   0.252   6.484  11.550  2.6079  1.5126  0.3818
  679MOL0     H91649   0.638   6.535  11.568 -0.9572  0.2642  0.8110
  679MOL0     H91650   0.830   6.561  11.702 -3.1586 -2.7445 -2.1268
  679MOL0     H91651   2.625   6.332  11.111  0.4024 -1.0781 -1.0518
  679MOL0     H91652   2.818   6.187  11.016  2.1586 -0.3222  0.8592
  679MOL0     H91653   3.247   6.211  10.850 -2.5053 -1.0204  0.7015
  679MOL0     H91654   3.432   6.090  10.735 -1.9179  0.4479  0.0989
  679MOL0     H91655   3.547   5.925  10.636  0.3232  2.8683  0.8498
  679MOL0     H91656   3.662   5.990  10.749  1.4628 -0.3428 -0.2833
  679MOL0     H91657   3.775   5.776  10.752  2.5908  1.1399 -2.3179
  679MOL0     H91658   3.759   5.836  10.590  1.2976  0.8317  0.9478
  679MOL0     H91659   3.682   5.640  10.538 -2.2306  1.9704 -1.4390
  679MOL0     H91660   3.532   5.668  10.621  0.8536  0.5164  0.0409
  679MOL0     H91661   3.641   5.563  10.835  0.3943 -2.0206  0.3768
  679MOL0     H91662   3.770   5.512  10.736 -0.4700 -1.5293 -0.9808
  679MOL0     H91663   3.483   5.222  10.631 -1.0292  1.4727 -2.4681
  679MOL0     H91664   3.407   5.791  11.039 -0.9486  0.2883  1.9981
  679MOL0     H91665   3.209   5.913  11.142 -1.0971  0.2220 -0.5177
  680MOL0     O91666   3.797   0.074   9.245 -0.4351  0.1092 -0.4154
  680MOL0     C91667   3.848  -0.005   9.328  0.1459  0.6356  0.6526
  680MOL0     O91668   3.764  -0.095   9.403  0.4056 -0.4652  0.0946
  680MOL0     C91669   3.623  -0.105   9.365 -0.9072 -0.0708 -0.0939
  680MOL0     C91670   3.522  -0.024   9.412 -0.4079  0.5853 -0.1173
  680MOL0     C91671   3.388  -0.045   9.386 -0.4572 -0.2963  0.5533
  680MOL0     C91672   3.352  -0.140   9.289  0.0869 -0.6796 -0.0401
  680MOL0     O91673   3.212  -0.146   9.280 -0.5171  0.3999 -0.5898
  680MOL0     C91674   3.165  -0.210   9.169  0.1778 -0.8411  0.1478
  680MOL0     C91675   3.011  -0.181   9.156 -0.0914 -0.7746  0.4686
  680MOL0     C91676   2.952  -0.279   9.052 -0.1944 -0.3419 -0.9229
  680MOL0     C91677   2.808  -0.248   9.019  0.1295 -0.4227  0.8817
  680MOL0     C91678   2.704  -0.280   9.121  0.4216  0.2538 -0.6754
  680MOL0     C91679   2.569  -0.224   9.069 -0.5824 -0.4858 -0.8004
  680MOL0     C91680   2.457  -0.261   9.157 -0.4136 -0.0530  0.0758
  680MOL0     C91681   2.331  -0.181   9.098 -0.3844  0.0075  0.4243
  680MOL0     N91682   2.206  -0.243   9.141 -0.7106 -0.2647 -0.4506
  680MOL0     C91683   2.092  -0.254   9.072  0.1891 -0.1217  0.3294
  680MOL0     C91684   2.006  -0.310   9.156  0.2467  0.3125  0.0417
  680MOL0     C91685   1.857  -0.333   9.128 -0.1901  0.1235 -0.7997
  680MOL0     C91686   1.778  -0.255   9.239  0.4732  0.4910  0.1715
  680MOL0     C91687   1.638  -0.257   9.208  0.7299 -0.5645 -0.5291
  680MOL0     C91688   1.560  -0.142   9.287  0.6029  0.4543  0.2438
  680MOL0     O91689   1.422  -0.135   9.240 -0.0316  0.3527 -0.2301
  680MOL0     C91690   1.330  -0.099   9.327 -0.8509 -0.5702  0.4958
  680MOL0     C91691   1.198  -0.073   9.278 -0.2911  0.1216 -0.0697
  680MOL0     C91692   1.090  -0.029   9.356 -0.4600  0.1987  0.3317
  680MOL0     C91693   0.951  -0.012   9.302 -0.3720 -0.1151  0.2662
  680MOL0     C91694   1.120   0.009   9.485  0.5582 -0.3311 -1.4307
  680MOL0     C91695   1.021   0.066   9.587 -0.4222  0.2399 -0.0266
  680MOL0     O91696   0.940   0.159   9.540  0.6949  0.0999  0.1052
  680MOL0     C91697   0.877   0.238   9.634  0.2286  0.0235  0.3027
  680MOL0     C91698   0.927   0.363   9.662 -0.7154  0.1399  0.2472
  680MOL0     C91699   0.848   0.446   9.734  0.2143 -0.3856  0.7190
  680MOL0     C91700   0.724   0.412   9.786 -0.0878  0.6405 -0.0873
  680MOL0     O91701   0.640   0.503   9.847  0.6133 -0.1024  0.5616
  680MOL0     C91702   0.586   0.604   9.760  0.1333  0.2055  0.8400
  680MOL0     C91703   0.478   0.544   9.656 -0.2453 -0.1604 -0.2368
  680MOL0     C91704   0.361   0.470   9.714 -0.1163  0.3257 -0.1873
  680MOL0     C91705   0.319   0.516   9.851 -0.3439 -0.5010 -0.0343
  680MOL0     C91706   0.249   0.656   9.840  0.0897  0.2257 -0.0416
  680MOL0     C91707   0.224   0.713   9.984  0.2581  0.5175  0.1118
  680MOL0     C91708   0.349   0.764  10.063  0.3875  0.2777  0.5729
  680MOL0     C91709   0.302   0.798  10.205  0.2338  0.5110  0.1523
  680MOL0    Cl91710   0.450   0.836  10.300  0.2731 -0.4047  0.1131
  680MOL0     C91711   0.673   0.281   9.763 -0.0608 -0.5365 -0.4039
  680MOL0     C91712   0.751   0.191   9.693  0.0605 -0.0013  0.0180
  680MOL0     O91713   1.027   0.015   9.697  0.5545 -0.2190  0.0179
  680MOL0     C91714   1.251  -0.009   9.539 -0.3103  0.7354 -0.8140
  680MOL0     C91715   1.353  -0.064   9.465 -0.6387 -0.0434 -0.0843
  680MOL0     N91716   2.067  -0.330   9.278 -0.6495  0.5964 -0.1747
  680MOL0     N91717   2.187  -0.277   9.272  1.2096 -0.2156 -0.4072
  680MOL0     C91718   3.452  -0.204   9.216  0.5225 -0.0453  0.6291
  680MOL0     C91719   3.582  -0.196   9.266 -0.2631  0.1272 -0.3707
  680MOL0     C91720   3.998  -0.015   9.338 -0.2328 -0.1002  0.7658
  680MOL0     C91721   4.058  -0.091   9.440 -0.6075 -0.0655  0.1923
  680MOL0     C91722   4.200  -0.109   9.446 -0.3887 -0.7722 -0.0025
  680MOL0     C91723   4.274  -0.059   9.339 -0.7714 -0.4058 -0.0189
  680MOL0     O91724   4.411  -0.091   9.330 -0.6209 -0.6582  0.5475
  680MOL0     C91725   4.456  -0.200   9.407 -0.7928 -0.4297 -0.6238
  680MOL0     C91726   4.599  -0.237   9.375  1.2901 -0.1371  0.2784
  680MOL0     C91727   4.646  -0.346   9.474  0.1885  1.0145  1.0202
  680MOL0     C91728   4.795  -0.374   9.442  0.0227 -0.7050  0.6386
  680MOL0     C91729   4.811  -0.470   9.330 -0.4935  0.0634  0.5364
  680MOL0     C91730   4.803  -0.561   9.250  0.2908 -0.4730  0.2953
  680MOL0     C91731   4.218   0.023   9.233 -0.0741 -0.2372 -0.6131
  680MOL0     C91732   4.079   0.046   9.235  0.0119  0.4321 -0.6511
  680MOL0     H91733   3.543   0.048   9.490 -0.2723  1.6454 -1.1137
  680MOL0     H91734   3.316   0.024   9.429  0.5806  1.2952 -0.1389
  680MOL0     H91735   3.203  -0.164   9.077 -2.8395  3.1410  0.5606
  680MOL0     H91736   3.194  -0.315   9.173 -0.2575 -0.9923 -0.4764
  680MOL0     H91737   2.954  -0.194   9.249 -0.8754  2.0504  0.4537
  680MOL0     H91738   2.998  -0.077   9.125  0.2673 -0.6300  0.7943
  680MOL0     H91739   3.003  -0.268   8.955  2.0668  3.7785  0.4827
  680MOL0     H91740   2.971  -0.375   9.100 -0.4172 -0.2845 -0.7182
  680MOL0     H91741   2.800  -0.150   8.971  0.5863 -0.6819  0.2593
  680MOL0     H91742   2.793  -0.315   8.935 -0.8854  0.7736  0.0742
  680MOL0     H91743   2.697  -0.384   9.156  1.0920  0.9919  1.8590
  680MOL0     H91744   2.726  -0.226   9.213  1.8266 -0.2386 -0.7035
  680MOL0     H91745   2.585  -0.117   9.054 -1.4010 -0.5271 -2.0420
  680MOL0     H91746   2.550  -0.258   8.967  0.8784  2.2146 -2.0783
  680MOL0     H91747   2.443  -0.369   9.151 -3.5229  0.3165 -1.7623
  680MOL0     H91748   2.481  -0.237   9.261  2.1093  0.4218 -0.5525
  680MOL0     H91749   2.333  -0.179   8.988  2.4837  0.0460  0.3910
  680MOL0     H91750   2.323  -0.075   9.125 -4.4841  0.7940 -2.7884
  680MOL0     H91751   2.071  -0.219   8.972  3.2332  0.4116 -0.2299
  680MOL0     H91752   1.828  -0.286   9.034 -3.5101  1.8243  0.8868
  680MOL0     H91753   1.832  -0.440   9.130  1.0367 -0.1687 -0.2850
  680MOL0     H91754   1.820  -0.156   9.256  1.3868  0.0629  0.4336
  680MOL0     H91755   1.790  -0.304   9.336  0.6327  1.0064  0.4171
  680MOL0     H91756   1.601  -0.354   9.245  2.9505 -1.1319  0.3282
  680MOL0     H91757   1.610  -0.255   9.102 -0.6531 -0.6660 -0.1852
  680MOL0     H91758   1.611  -0.045   9.288  1.0369  0.2313  1.5782
  680MOL0     H91759   1.558  -0.175   9.391 -1.6136  1.7142  0.6733
  680MOL0     H91760   1.183  -0.109   9.177  0.4906  0.1244 -0.1981
  680MOL0     H91761   0.935  -0.067   9.209  0.1009  0.1127  0.0419
  680MOL0     H91762   0.885  -0.058   9.375  0.4196 -2.9203 -0.6685
  680MOL0     H91763   0.931   0.095   9.293 -0.9238 -0.1639  0.9172
  680MOL0     H91764   1.017   0.400   9.614  0.3504 -0.2210  1.9032
  680MOL0     H91765   0.884   0.547   9.751 -2.2408  1.1811 -2.4345
  680MOL0     H91766   0.532   0.687   9.807 -0.2792 -0.5101  1.6646
  680MOL0     H91767   0.662   0.661   9.706 -1.5227  2.3275  0.6174
  680MOL0     H91768   0.440   0.631   9.602  0.5307  0.7558  0.6508
  680MOL0     H91769   0.524   0.469   9.591 -0.6291 -1.5942  1.1045
  680MOL0     H91770   0.377   0.363   9.730 -1.3469  0.2738  0.9163
  680MOL0     H91771   0.276   0.484   9.646  0.1052 -0.3970 -0.6188
  680MOL0     H91772   0.247   0.444   9.892 -1.9125 -1.1186 -3.5646
  680MOL0     H91773   0.403   0.516   9.922 -1.1793 -0.0654  0.9876
  680MOL0     H91774   0.159   0.644   9.779  0.4460 -1.2506 -0.3143
  680MOL0     H91775   0.324   0.718   9.789  2.4987 -3.7725 -1.8321
  680MOL0     H91776   0.162   0.801   9.967 -1.3663 -0.7216 -0.7071
  680MOL0     H91777   0.171   0.639  10.045 -0.9088  0.4567 -0.9459
  680MOL0     H91778   0.394   0.856  10.023 -0.6041  1.0799  1.2679
  680MOL0     H91779   0.428   0.688  10.056  0.4821  0.1830  2.2922
  680MOL0     H91780   0.251   0.712  10.250  1.1662  0.0351  0.3331
  680MOL0     H91781   0.236   0.885  10.209  1.3497  1.4740 -1.3690
  680MOL0     H91782   0.578   0.257   9.808  0.3934 -0.0238  0.8758
  680MOL0     H91783   0.719   0.088   9.678  0.5524 -0.0885 -0.4855
  680MOL0     H91784   1.276   0.016   9.642  0.3572 -2.3646 -0.1232
  680MOL0     H91785   1.441  -0.084   9.525 -0.6422  0.4820  0.0979
  680MOL0     H91786   3.433  -0.280   9.140 -1.7528  1.3556 -0.3233
  680MOL0     H91787   3.660  -0.262   9.230  0.2819 -0.1325  1.2051
  680MOL0     H91788   3.985  -0.139   9.504 -0.6414  2.0712  1.8849
  680MOL0     H91789   4.228  -0.153   9.541 -2.8085 -0.1924  1.0673
  680MOL0     H91790   4.461  -0.172   9.513 -0.1365 -3.8566  0.3628
  680MOL0     H91791   4.397  -0.290   9.389  0.1458 -0.9234 -1.3168
  680MOL0     H91792   4.653  -0.144   9.395  0.1908  0.1703  2.0141
  680MOL0     H91793   4.612  -0.262   9.269  0.6247 -0.0451  0.1698
  680MOL0     H91794   4.590  -0.440   9.471  0.2837  0.9706  0.3162
  680MOL0     H91795   4.639  -0.305   9.575  1.1321  0.9730  1.1158
  680MOL0     H91796   4.860  -0.412   9.521  2.0263  2.1033  0.4915
  680MOL0     H91797   4.844  -0.281   9.411 -2.1221  0.6059  0.9873
  680MOL0     H91798   4.797  -0.639   9.177 -2.7760 -0.2521  0.1831
  680MOL0     H91799   4.277   0.056   9.147 -2.0986  4.2337 -0.5883
  680MOL0     H91800   4.038   0.118   9.165  1.8957  1.8727 -0.3411
  681MOL0     O91801   1.458   2.982   4.952  0.2218  0.1845  0.8658
  681MOL0     C91802   1.450   3.015   4.833 -0.1728  0.1319  0.3297
  681MOL0     O91803   1.341   2.995   4.757 -0.1036 -0.2878 -0.0931
  681MOL0     C91804   1.233   2.921   4.800 -0.4172  0.3580  0.0520
  681MOL0     C91805   1.168   2.842   4.700  0.0165 -0.2243  0.8856
  681MOL0     C91806   1.064   2.758   4.730  0.3759 -1.3722  0.1179
  681MOL0     C91807   1.010   2.761   4.865  0.7639 -0.0731 -0.3853
  681MOL0     O91808   0.921   2.663   4.899 -0.7313  0.5776 -0.6177
  681MOL0     C91809   0.930   2.590   5.023  0.5996 -0.7625 -0.6486
  681MOL0     C91810   0.878   2.447   5.002 -0.2818  0.2059 -0.0458
  681MOL0     C91811   0.724   2.447   4.977 -0.2988 -0.5124 -0.3262
  681MOL0     C91812   0.669   2.301   4.946  0.7991 -1.0567  0.0211
  681MOL0     C91813   0.520   2.307   4.948  1.2143  0.3582  0.0141
  681MOL0     C91814   0.448   2.174   4.933  0.0495  0.9964  0.0658
  681MOL0     C91815   0.304   2.183   4.955 -0.3992 -0.5973  0.5429
  681MOL0     C91816   0.243   2.046   4.993 -0.0285  0.2452  0.7686
  681MOL0     N91817   0.103   2.061   5.024  0.2385  0.0260 -0.3515
  681MOL0     C91818   0.050   2.124   5.127  0.3441 -0.8922 -0.5669
  681MOL0     C91819  -0.086   2.123   5.107 -0.0456  0.0886  0.1103
  681MOL0     C91820  -0.181   2.198   5.200  0.1979  0.3504  0.1168
  681MOL0     C91821  -0.315   2.137   5.180  0.1266 -0.1077  0.2146
  681MOL0     C91822  -0.425   2.188   5.270  0.1619 -0.0640 -0.6240
  681MOL0     C91823  -0.561   2.134   5.226 -0.8079 -0.2068 -0.4571
  681MOL0     O91824  -0.587   2.005   5.284  0.3163 -0.0873 -0.2041
  681MOL0     C91825  -0.711   1.950   5.256 -0.9851 -0.0551 -0.5565
  681MOL0     C91826  -0.713   1.816   5.275 -0.0447 -0.7137 -0.5422
  681MOL0     C91827  -0.830   1.743   5.261 -0.2327 -0.6669  0.1234
  681MOL0     C91828  -0.813   1.603   5.293  0.0511  0.5789 -0.1775
  681MOL0     C91829  -0.948   1.811   5.224  0.6546  0.0851 -0.0172
  681MOL0     C91830  -1.088   1.744   5.205 -0.1210  0.0853  0.1029
  681MOL0     O91831  -1.173   1.810   5.122  0.0351  0.8390  0.0666
  681MOL0     C91832  -1.301   1.771   5.130  0.1680 -0.2100  0.0576
  681MOL0     C91833  -1.395   1.862   5.182  0.4009 -0.0376 -0.1981
  681MOL0     C91834  -1.530   1.831   5.212 -0.1660 -1.1176  0.2321
  681MOL0     C91835  -1.574   1.711   5.183 -0.0921  0.1991  0.3330
  681MOL0     O91836  -1.709   1.684   5.189 -0.3735 -0.3623  0.1336
  681MOL0     C91837  -1.745   1.679   5.329  0.0647  0.2281 -0.5657
  681MOL0     C91838  -1.888   1.630   5.337 -0.3705 -0.6297  0.0759
  681MOL0     C91839  -1.981   1.738   5.280  0.4050 -0.5396  0.7059
  681MOL0     C91840  -2.129   1.699   5.299  0.6620  0.0925 -0.1648
  681MOL0     C91841  -2.237   1.785   5.233  0.0638  0.1491 -0.0570
  681MOL0     C91842  -2.379   1.735   5.249  0.6793 -0.1278 -0.3169
  681MOL0     C91843  -2.474   1.819   5.172 -0.7445 -0.0931 -0.0239
  681MOL0     C91844  -2.617   1.778   5.203  0.2109 -0.2303  0.2171
  681MOL0    Cl91845  -2.718   1.893   5.113  0.2024  0.0891 -0.1263
  681MOL0     C91846  -1.490   1.617   5.120  0.2801  0.1251 -0.0268
  681MOL0     C91847  -1.350   1.647   5.096 -0.2237 -0.0575  0.1592
  681MOL0     O91848  -1.122   1.649   5.280  0.0815 -0.2761 -0.1761
  681MOL0     C91849  -0.932   1.948   5.188  0.1389 -0.0757 -0.0840
  681MOL0     C91850  -0.817   2.020   5.209 -0.0809  0.0940  0.2297
  681MOL0     N91851  -0.112   2.065   4.980 -0.2414 -0.0693  0.2745
  681MOL0     N91852   0.001   2.020   4.942  0.2343  0.1222  0.1533
  681MOL0     C91853   1.055   2.850   4.962 -0.5437 -0.7361  1.1196
  681MOL0     C91854   1.168   2.926   4.928 -0.5553  0.2092 -0.0338
  681MOL0     C91855   1.554   3.093   4.759 -0.4024  0.8860  0.3915
  681MOL0     C91856   1.551   3.105   4.616 -0.3380  0.0777 -0.0843
  681MOL0     C91857   1.643   3.186   4.552  1.1225 -0.8329  1.1094
  681MOL0     C91858   1.731   3.256   4.627 -0.5645  0.0251  0.0788
  681MOL0     O91859   1.814   3.341   4.557 -0.2342  0.8612  0.8628
  681MOL0     C91860   1.956   3.330   4.588  0.1709  0.4429 -0.3630
  681MOL0     C91861   2.022   3.411   4.473 -1.2241  0.4963 -0.2897
  681MOL0     C91862   2.177   3.417   4.499 -0.2086  0.6309  0.4105
  681MOL0     C91863   2.264   3.434   4.364  0.2663 -0.0662 -0.3345
  681MOL0     C91864   2.405   3.436   4.403  0.4884  0.4601 -0.6123
  681MOL0     C91865   2.518   3.429   4.457  0.0788  0.7384  0.7201
  681MOL0     C91866   1.748   3.234   4.762  0.6799  0.2983  0.7952
  681MOL0     C91867   1.657   3.148   4.829 -0.5181 -0.4185 -1.1218
  681MOL0     H91868   1.207   2.849   4.598 -1.9506  2.3712  0.2130
  681MOL0     H91869   1.013   2.706   4.649  1.3941 -1.4121 -0.5157
  681MOL0     H91870   1.030   2.595   5.068  1.0288  1.8123 -1.7640
  681MOL0     H91871   0.869   2.641   5.098  0.2983  2.5633 -2.9546
  681MOL0     H91872   0.922   2.403   4.912 -2.4674 -1.0431 -0.5780
  681MOL0     H91873   0.897   2.389   5.093 -2.3141  2.0854  1.6762
  681MOL0     H91874   0.675   2.502   5.057  0.1236  2.0189 -1.7049
  681MOL0     H91875   0.712   2.506   4.885  0.6141 -0.0661 -0.1698
  681MOL0     H91876   0.699   2.259   4.850  0.4544  0.6754 -0.8995
  681MOL0     H91877   0.694   2.232   5.027  0.3405 -0.2672  0.8611
  681MOL0     H91878   0.485   2.344   5.044  1.1410  0.6729 -0.1318
  681MOL0     H91879   0.484   2.379   4.874  0.0165 -0.9610 -0.7362
  681MOL0     H91880   0.451   2.141   4.829  0.4095  0.2327  0.3095
  681MOL0     H91881   0.496   2.097   4.995  2.0786  1.6517 -0.6121
  681MOL0     H91882   0.279   2.257   5.032  1.1939  1.0673 -0.4668
  681MOL0     H91883   0.259   2.222   4.863 -3.4618 -0.8298  1.8078
  681MOL0     H91884   0.295   2.002   5.079  3.2732  0.5151 -0.9320
  681MOL0     H91885   0.249   1.979   4.907 -2.4566 -0.6290  1.2059
  681MOL0     H91886   0.090   2.184   5.208 -4.7227  0.7070  1.1267
  681MOL0     H91887  -0.145   2.179   5.301  4.1832  3.0613 -0.5556
  681MOL0     H91888  -0.161   2.305   5.186  5.1310 -0.2467  0.6673
  681MOL0     H91889  -0.305   2.028   5.190  1.2481 -0.1727 -1.2328
  681MOL0     H91890  -0.352   2.144   5.078 -2.1510  0.7135  1.0330
  681MOL0     H91891  -0.430   2.298   5.273 -0.0686 -0.0903  2.1358
  681MOL0     H91892  -0.401   2.157   5.372 -1.1063  0.7796 -0.0330
  681MOL0     H91893  -0.576   2.137   5.118 -2.2552  0.4784 -0.2677
  681MOL0     H91894  -0.627   2.209   5.271  2.0550  3.1009 -1.3579
  681MOL0     H91895  -0.624   1.763   5.307  1.1746  1.7284  0.3493
  681MOL0     H91896  -0.863   1.533   5.225 -0.1993 -2.2956  2.7314
  681MOL0     H91897  -0.711   1.565   5.290 -0.4029 -0.6165 -1.8023
  681MOL0     H91898  -0.860   1.576   5.388 -0.3540  1.0261 -0.2412
  681MOL0     H91899  -1.356   1.961   5.205  2.1437 -0.8447  0.4230
  681MOL0     H91900  -1.589   1.916   5.244  0.4781 -0.7077  0.3448
  681MOL0     H91901  -1.682   1.608   5.383 -2.2686 -0.5532  1.3397
  681MOL0     H91902  -1.736   1.772   5.386 -1.8855  0.0051  0.1817
  681MOL0     H91903  -1.912   1.536   5.286 -1.6091 -0.4377  0.2779
  681MOL0     H91904  -1.929   1.611   5.436 -3.1683 -0.7168 -1.0154
  681MOL0     H91905  -1.959   1.740   5.172  0.0240  0.5226  0.6327
  681MOL0     H91906  -1.956   1.839   5.312 -0.1495  1.1267 -3.3965
  681MOL0     H91907  -2.136   1.599   5.255 -0.7547 -1.1332  2.6326
  681MOL0     H91908  -2.154   1.678   5.403 -0.0835 -0.1490 -0.3861
  681MOL0     H91909  -2.207   1.795   5.129  0.6081 -0.2859  0.0492
  681MOL0     H91910  -2.236   1.888   5.270  0.8883  0.3392 -0.5918
  681MOL0     H91911  -2.396   1.633   5.213  0.6918 -1.3074  2.7020
  681MOL0     H91912  -2.414   1.735   5.353 -1.6953 -0.8133 -1.0432
  681MOL0     H91913  -2.457   1.807   5.064  1.2110 -0.1394  0.2642
  681MOL0     H91914  -2.461   1.925   5.195 -0.7505 -0.4896  1.9612
  681MOL0     H91915  -2.635   1.779   5.311 -0.2654 -2.1607  0.1990
  681MOL0     H91916  -2.628   1.673   5.173 -1.9353 -0.1379  0.5359
  681MOL0     H91917  -1.518   1.519   5.085 -1.6134  2.0425 -4.7950
  681MOL0     H91918  -1.282   1.580   5.044 -0.9033  2.3421 -4.3494
  681MOL0     H91919  -1.008   2.012   5.144  1.4032  0.2701 -1.8364
  681MOL0     H91920  -0.810   2.126   5.185  3.2109 -0.0489  0.0077
  681MOL0     H91921   1.005   2.846   5.059 -0.7208 -0.5163  1.0375
  681MOL0     H91922   1.214   2.993   5.000  1.6839 -2.1751  0.8872
  681MOL0     H91923   1.477   3.052   4.557 -2.9841  3.5298 -0.2137
  681MOL0     H91924   1.637   3.199   4.444 -1.8362 -3.1333  0.8733
  681MOL0     H91925   1.973   3.377   4.686  1.6512 -2.6915  1.0471
  681MOL0     H91926   2.008   3.234   4.593  0.5312  0.6967  1.9804
  681MOL0     H91927   1.978   3.509   4.454  1.1293  1.6102 -0.2958
  681MOL0     H91928   2.010   3.349   4.384  2.0174  0.3336 -0.7397
  681MOL0     H91929   2.210   3.323   4.543 -1.3787 -0.4650 -0.9469
  681MOL0     H91930   2.203   3.496   4.570  1.4397  0.0979  0.4219
  681MOL0     H91931   2.242   3.530   4.316  1.6012  0.3532 -0.1426
  681MOL0     H91932   2.254   3.359   4.285  0.2659 -1.4218  0.9256
  681MOL0     H91933   2.615   3.428   4.502  0.1973 -3.0726  0.6979
  681MOL0     H91934   1.823   3.287   4.820  1.9687  0.1782 -0.7062
  681MOL0     H91935   1.672   3.146   4.936  3.3333  2.8084 -1.3784
  682MOL0     O91936   1.616   8.552   1.865 -0.0270  0.0186  0.0337
  682MOL0     C91937   1.700   8.489   1.798 -0.2650  0.3905  0.1680
  682MOL0     O91938   1.675   8.400   1.698 -0.3559 -0.1045  0.3021
  682MOL0     C91939   1.551   8.374   1.647  0.3071 -0.7810  0.1688
  682MOL0     C91940   1.435   8.363   1.724 -0.3703 -0.3162  0.1349
  682MOL0     C91941   1.307   8.348   1.669  0.4618  0.2615  0.0829
  682MOL0     C91942   1.295   8.345   1.531  0.1772  0.2826 -0.7844
  682MOL0     O91943   1.182   8.355   1.455 -0.4623  0.0871 -0.0809
  682MOL0     C91944   1.051   8.330   1.512  0.5252  0.4259 -0.0807
  682MOL0     C91945   0.973   8.253   1.406  0.4261  0.4100  0.2501
  682MOL0     C91946   0.846   8.193   1.467  0.8910  0.0832  0.2357
  682MOL0     C91947   0.734   8.146   1.375  0.1431 -0.3488 -0.5421
  682MOL0     C91948   0.604   8.098   1.443  0.2574  0.1211 -0.2421
  682MOL0     C91949   0.486   8.110   1.344  0.3058 -0.7786 -0.2069
  682MOL0     C91950   0.361   8.039   1.394  0.5043 -0.0082  0.1753
  682MOL0     C91951   0.319   8.082   1.538 -0.4311 -1.1464  0.0285
  682MOL0     N91952   0.265   8.216   1.514  0.2573  0.7000 -0.1086
  682MOL0     C91953   0.137   8.226   1.469 -0.2980 -1.0467  0.5294
  682MOL0     C91954   0.117   8.358   1.452  0.6431  0.3128 -0.4620
  682MOL0     C91955  -0.005   8.423   1.399  0.7008  0.4489  0.0348
  682MOL0     C91956  -0.133   8.380   1.467 -0.4329 -0.5982  0.0705
  682MOL0     C91957  -0.260   8.444   1.409 -0.3305  0.7079 -0.7528
  682MOL0     C91958  -0.378   8.348   1.416  0.4792 -0.3938 -0.5637
  682MOL0     O91959  -0.384   8.269   1.297  0.2288 -0.2722  0.2296
  682MOL0     C91960  -0.507   8.261   1.229  0.0242 -0.4662  0.3980
  682MOL0     C91961  -0.637   8.289   1.283 -0.3915  0.1973  0.0215
  682MOL0     C91962  -0.758   8.258   1.209 -0.4919  0.5602  0.7854
  682MOL0     C91963  -0.876   8.298   1.281  0.5429  0.5260 -0.3223
  682MOL0     C91964  -0.750   8.219   1.078 -0.5435  0.0950  0.3891
  682MOL0     C91965  -0.873   8.192   1.002 -0.6301  0.0672  1.3371
  682MOL0     O91966  -0.875   8.075   0.938 -0.4759 -0.2357  0.3064
  682MOL0     C91967  -0.984   8.032   0.862 -0.2264  0.8234  0.0199
  682MOL0     C91968  -1.115   7.998   0.911  0.3651 -0.7189 -0.7267
  682MOL0     C91969  -1.217   7.947   0.829  0.4377  0.6280  1.3430
  682MOL0     C91970  -1.189   7.932   0.687 -0.0524  0.1062  0.4371
  682MOL0     O91971  -1.289   7.924   0.592  0.1513 -0.4239  0.2216
  682MOL0     C91972  -1.425   7.898   0.633 -0.2698  0.3653 -0.3343
  682MOL0     C91973  -1.443   7.753   0.681  0.6202  0.1109  0.0319
  682MOL0     C91974  -1.554   7.729   0.780 -0.1143  0.2510 -0.2061
  682MOL0     C91975  -1.691   7.789   0.742  0.5681 -0.2666  0.0454
  682MOL0     C91976  -1.813   7.731   0.821  1.1633  0.3578  0.4509
  682MOL0     C91977  -1.812   7.788   0.962  0.1445  0.3244 -0.2301
  682MOL0     C91978  -1.942   7.741   1.028 -0.3079  0.9489 -0.2950
  682MOL0     C91979  -1.962   7.822   1.156  0.1624 -0.3277 -0.3958
  682MOL0    Cl91980  -1.873   7.749   1.299 -0.0817  0.1746 -0.2942
  682MOL0     C91981  -1.059   7.951   0.644 -0.9264 -0.0093  0.1899
  682MOL0     C91982  -0.952   7.990   0.729 -0.0585 -0.7829  0.5721
  682MOL0     O91983  -0.945   8.286   0.975  0.5058  0.1480 -0.1566
  682MOL0     C91984  -0.619   8.188   1.021 -0.0572 -0.4093  0.0229
  682MOL0     C91985  -0.502   8.212   1.098 -0.4858  0.0887  0.2149
  682MOL0     N91986   0.242   8.420   1.479 -0.0991 -0.0272  0.5845
  682MOL0     N91987   0.326   8.334   1.521  0.0748 -0.1522  0.1877
  682MOL0     C91988   1.418   8.339   1.466 -0.6110 -0.3175  0.5048
  682MOL0     C91989   1.541   8.352   1.514 -0.4002 -0.4727  0.2694
  682MOL0     C91990   1.844   8.494   1.836 -0.7124 -0.5197  0.2906
  682MOL0     C91991   1.940   8.447   1.744  0.4314  0.8057  0.3685
  682MOL0     C91992   2.074   8.445   1.777 -0.1192 -0.4394  0.1758
  682MOL0     C91993   2.122   8.509   1.899 -0.1391  0.1885  0.0874
  682MOL0     O91994   2.257   8.512   1.925  0.4314 -0.3896 -0.0476
  682MOL0     C91995   2.352   8.459   1.826  0.5478  0.8197 -0.1359
  682MOL0     C91996   2.472   8.539   1.851  0.3236 -0.4107 -0.0583
  682MOL0     C91997   2.455   8.688   1.818  0.1870  0.1573 -0.4426
  682MOL0     C91998   2.410   8.727   1.679  1.0954  0.0733 -0.0953
  682MOL0     C91999   2.504   8.681   1.581 -0.6694  0.7944 -1.0161
  682MOL0     C92000   2.585   8.663   1.492 -0.0675  0.7326  0.2117
  682MOL0     C92001   2.029   8.560   1.980 -0.4572  0.2256 -1.1207
  682MOL0     C92002   1.896   8.555   1.951  0.5361 -0.2254  0.0825
  682MOL0     H92003   1.439   8.357   1.832  1.5877 -3.1465  0.0339
  682MOL0     H92004   1.224   8.348   1.738 -0.7479 -1.4866 -1.2689
  682MOL0     H92005   1.052   8.277   1.607 -0.3917 -0.6642 -0.6568
  682MOL0     H92006   0.995   8.422   1.530 -0.2484  0.1983 -1.2037
  682MOL0     H92007   0.943   8.320   1.325 -5.0945  0.3175  1.7731
  682MOL0     H92008   1.030   8.167   1.369 -0.6566 -0.4185  0.4423
  682MOL0     H92009   0.881   8.109   1.526 -2.3171 -2.2760 -0.9164
  682MOL0     H92010   0.809   8.270   1.535  1.0751  1.6229 -1.3372
  682MOL0     H92011   0.707   8.227   1.307 -1.6095 -1.3060 -1.0448
  682MOL0     H92012   0.766   8.076   1.297 -0.9958 -1.7659  0.2140
  682MOL0     H92013   0.612   7.997   1.485  2.4926  1.0136  1.7125
  682MOL0     H92014   0.584   8.162   1.529 -1.6293  0.6681 -1.0305
  682MOL0     H92015   0.475   8.218   1.335 -0.4620 -0.6180  2.1074
  682MOL0     H92016   0.508   8.082   1.240  4.2894  0.4633  0.1389
  682MOL0     H92017   0.278   8.047   1.323 -1.9349 -0.4562  2.7874
  682MOL0     H92018   0.372   7.930   1.387 -3.0324 -0.5069  0.3153
  682MOL0     H92019   0.407   8.090   1.603 -1.4922  0.7222  1.3566
  682MOL0     H92020   0.237   8.023   1.580 -1.5686  0.2173 -0.1874
  682MOL0     H92021   0.065   8.145   1.460 -0.6202 -0.7884  0.7526
  682MOL0     H92022   0.004   8.532   1.399 -0.7292  0.5883  0.9552
  682MOL0     H92023  -0.014   8.386   1.296 -2.1337  1.2893 -0.0984
  682MOL0     H92024  -0.114   8.412   1.570 -0.0572 -0.2475 -0.1026
  682MOL0     H92025  -0.137   8.271   1.457 -3.4780 -0.8496  2.6174
  682MOL0     H92026  -0.252   8.486   1.309  0.2472 -1.2849 -1.5932
  682MOL0     H92027  -0.277   8.529   1.476  4.2049  0.3465  1.2490
  682MOL0     H92028  -0.465   8.414   1.408 -0.5364 -1.2104  2.3403
  682MOL0     H92029  -0.379   8.298   1.513  0.2068  1.5447  0.4928
  682MOL0     H92030  -0.668   8.339   1.375  0.1192 -0.2015  0.4146
  682MOL0     H92031  -0.953   8.221   1.267  0.9438 -0.3509  1.8674
  682MOL0     H92032  -0.873   8.285   1.390 -2.4830 -0.5699 -0.2793
  682MOL0     H92033  -0.911   8.398   1.253  0.2043  1.1359  2.0807
  682MOL0     H92034  -1.143   8.024   1.013 -2.1524  0.1324 -1.5623
  682MOL0     H92035  -1.315   7.916   0.861  0.5004 -2.1292 -0.7639
  682MOL0     H92036  -1.453   7.967   0.713  0.6538  0.5176 -0.1299
  682MOL0     H92037  -1.490   7.917   0.547 -1.5223  0.3287  0.5714
  682MOL0     H92038  -1.461   7.686   0.596 -1.1300  0.7139 -0.0981
  682MOL0     H92039  -1.351   7.712   0.726  0.5434  0.3595  0.4188
  682MOL0     H92040  -1.507   7.758   0.874  0.4173 -3.5643  0.8668
  682MOL0     H92041  -1.576   7.622   0.784  0.9760  0.0541  1.7615
  682MOL0     H92042  -1.688   7.897   0.761 -1.4682 -0.5095  2.2289
  682MOL0     H92043  -1.717   7.766   0.638  0.4493  1.1975 -0.2637
  682MOL0     H92044  -1.819   7.622   0.823 -1.9486  0.3858 -1.1182
  682MOL0     H92045  -1.897   7.763   0.760  1.4520 -2.6217 -1.7169
  682MOL0     H92046  -1.729   7.743   1.017  1.1590 -1.5863 -3.0906
  682MOL0     H92047  -1.814   7.897   0.965  1.4286  0.4101 -1.3389
  682MOL0     H92048  -1.927   7.634   1.047  1.4219  1.2063 -0.0160
  682MOL0     H92049  -2.021   7.757   0.954 -2.1851 -1.6218  0.9949
  682MOL0     H92050  -2.065   7.848   1.178  0.9295  1.7922  0.9755
  682MOL0     H92051  -1.907   7.914   1.134  0.0845 -0.0727  0.4409
  682MOL0     H92052  -1.030   7.936   0.541  1.2472 -0.7601  0.8533
  682MOL0     H92053  -0.850   8.006   0.697  0.6804 -1.6157  2.3423
  682MOL0     H92054  -0.598   8.141   0.926  0.2653 -0.4085  0.0936
  682MOL0     H92055  -0.399   8.206   1.062 -0.3668  1.2379  0.3268
  682MOL0     H92056   1.405   8.332   1.359 -3.6880  1.5010  0.6579
  682MOL0     H92057   1.627   8.339   1.451  1.7652 -1.8707  3.2774
  682MOL0     H92058   1.915   8.408   1.646  0.1375 -0.5378  0.9446
  682MOL0     H92059   2.139   8.405   1.701 -0.9661  0.6455 -1.1565
  682MOL0     H92060   2.359   8.350   1.836  0.8164  0.8034 -0.4976
  682MOL0     H92061   2.317   8.482   1.725 -3.4287  1.0728  1.1184
  682MOL0     H92062   2.546   8.487   1.789  1.1712  0.3178  0.3228
  682MOL0     H92063   2.499   8.518   1.955  2.1809 -0.9159 -0.6023
  682MOL0     H92064   2.553   8.732   1.838 -0.1044  1.4210 -1.6061
  682MOL0     H92065   2.383   8.727   1.890 -0.9207 -1.2166 -0.7637
  682MOL0     H92066   2.405   8.836   1.666  0.5585 -0.0463 -1.0415
  682MOL0     H92067   2.310   8.694   1.648  1.6842 -1.9283 -0.0106
  682MOL0     H92068   2.657   8.639   1.417  1.6186  1.7571  1.4328
  682MOL0     H92069   2.057   8.614   2.070  1.3008 -1.3760 -0.6629
  682MOL0     H92070   1.819   8.593   2.018  0.2702 -1.7300  0.6790
  683MOL0     O92071   6.003   0.332   1.946 -0.2781  0.2325  0.1595
  683MOL0     C92072   6.025   0.328   2.067  0.2634  0.1888  0.0021
  683MOL0     O92073   5.963   0.409   2.168 -0.0499  0.1807 -0.1808
  683MOL0     C92074   5.865   0.497   2.127 -0.7601 -0.4930  0.6601
  683MOL0     C92075   5.756   0.451   2.053 -0.0562  0.0339 -0.2858
  683MOL0     C92076   5.673   0.550   1.998  0.5093 -0.0221  1.1356
  683MOL0     C92077   5.672   0.682   2.037 -0.6588 -0.0505 -0.3003
  683MOL0     O92078   5.573   0.776   1.999  0.2926  0.3802  0.3276
  683MOL0     C92079   5.480   0.739   1.892 -0.3393 -0.1279 -0.4005
  683MOL0     C92080   5.387   0.863   1.856 -0.2547  0.6339 -0.2489
  683MOL0     C92081   5.252   0.841   1.932 -1.2877 -0.3017  0.2611
  683MOL0     C92082   5.162   0.956   1.881 -0.2834 -0.1462  0.1384
  683MOL0     C92083   5.018   0.925   1.912  0.9766 -0.2372 -0.8774
  683MOL0     C92084   4.937   1.027   1.833  0.6128 -0.3586 -0.1333
  683MOL0     C92085   4.786   0.983   1.846  0.1634  1.3348  0.1689
  683MOL0     C92086   4.700   1.096   1.789 -0.4180 -0.0246  0.2381
  683MOL0     N92087   4.562   1.037   1.777  1.0433  0.3887 -0.0512
  683MOL0     C92088   4.486   1.079   1.672  0.7619 -0.8764 -0.2389
  683MOL0     C92089   4.356   1.047   1.701  0.7695  0.4613  0.4639
  683MOL0     C92090   4.236   1.099   1.623 -0.7838 -0.2591  0.3948
  683MOL0     C92091   4.119   1.144   1.708 -0.3149 -0.4402  0.3567
  683MOL0     C92092   4.132   1.279   1.787  0.2011  0.0941  0.4435
  683MOL0     C92093   4.010   1.344   1.850  0.2319 -0.2058 -0.0759
  683MOL0     O92094   3.922   1.365   1.741  0.1158 -0.2877 -0.3289
  683MOL0     C92095   3.805   1.426   1.760  1.0212 -0.0416  0.4172
  683MOL0     C92096   3.766   1.477   1.884  0.7470 -0.2803  0.1156
  683MOL0     C92097   3.641   1.543   1.908 -0.2168 -0.2603  0.5174
  683MOL0     C92098   3.630   1.620   2.034 -0.2599  0.0257  0.8074
  683MOL0     C92099   3.549   1.535   1.804  0.8856 -1.1084  0.4666
  683MOL0     C92100   3.409   1.579   1.829  0.0700 -0.2450 -0.1542
  683MOL0     O92101   3.327   1.583   1.721  0.2917 -0.0422  0.0559
  683MOL0     C92102   3.190   1.578   1.724 -0.0790  0.3314  0.0189
  683MOL0     C92103   3.126   1.659   1.812  0.4506  0.6872  0.2791
  683MOL0     C92104   2.991   1.668   1.803  1.0616 -0.7495 -0.0113
  683MOL0     C92105   2.910   1.590   1.728  0.0280 -0.6402  0.0169
  683MOL0     O92106   2.774   1.605   1.745 -0.0981  0.0253 -0.3772
  683MOL0     C92107   2.699   1.526   1.655 -0.3409  0.6758 -0.6132
  683MOL0     C92108   2.566   1.584   1.673  0.3166  0.0962 -0.0754
  683MOL0     C92109   2.469   1.499   1.601  0.3906 -0.1141  0.4086
  683MOL0     C92110   2.329   1.583   1.610 -0.9057  0.6431 -0.9020
  683MOL0     C92111   2.232   1.532   1.503 -0.2775  0.4346 -0.3737
  683MOL0     C92112   2.097   1.593   1.517  0.9530 -0.0255 -0.8299
  683MOL0     C92113   2.006   1.564   1.394  0.0896 -1.0761  0.1974
  683MOL0     C92114   1.855   1.569   1.410 -0.4927  0.3829  0.4410
  683MOL0    Cl92115   1.804   1.398   1.480 -0.0228 -0.1750 -0.1342
  683MOL0     C92116   2.976   1.496   1.647  0.1804 -0.7381  0.0188
  683MOL0     C92117   3.118   1.497   1.636 -0.6813 -0.8297  0.0707
  683MOL0     O92118   3.371   1.597   1.948  0.6209  0.1298  0.2818
  683MOL0     C92119   3.583   1.478   1.679 -0.6266  0.6683 -0.2764
  683MOL0     C92120   3.710   1.425   1.649 -0.4525 -0.0612 -0.8219
  683MOL0     N92121   4.365   0.970   1.812 -0.3628  0.3827  0.4308
  683MOL0     N92122   4.480   0.965   1.865 -0.6404 -0.4375 -0.6445
  683MOL0     C92123   5.780   0.719   2.121  0.7639 -0.6622 -1.1740
  683MOL0     C92124   5.881   0.632   2.164  0.9261  0.2059 -0.4639
  683MOL0     C92125   6.145   0.248   2.109 -0.4747 -0.7291  0.2449
  683MOL0     C92126   6.204   0.268   2.229  0.6617  0.7870  0.4715
  683MOL0     C92127   6.327   0.198   2.263 -0.1532 -0.3652 -0.0989
  683MOL0     C92128   6.391   0.122   2.167  0.2194 -0.2623 -0.2026
  683MOL0     O92129   6.514   0.072   2.218 -0.2089  0.0132  0.1306
  683MOL0     C92130   6.574  -0.031   2.138 -0.4279 -0.0162  0.3922
  683MOL0     C92131   6.694  -0.083   2.226 -0.0663  0.2163  0.8781
  683MOL0     C92132   6.783  -0.183   2.146  0.1268 -0.3032  1.3782
  683MOL0     C92133   6.863  -0.265   2.235 -0.6640 -0.1230 -0.1455
  683MOL0     C92134   6.975  -0.336   2.176 -0.6353 -0.6251 -0.4348
  683MOL0     C92135   7.070  -0.393   2.123  0.5644  0.3740  0.1086
  683MOL0     C92136   6.327   0.095   2.039 -0.4278  0.0322 -0.6223
  683MOL0     C92137   6.208   0.164   2.012  0.4005  0.1817  0.5643
  683MOL0     H92138   5.764   0.348   2.020  2.1534 -0.1254  0.6102
  683MOL0     H92139   5.599   0.512   1.929 -0.8781  2.6460  1.0160
  683MOL0     H92140   5.532   0.714   1.799  0.3785 -0.2884  0.0366
  683MOL0     H92141   5.424   0.648   1.913 -2.1867  0.7205 -1.4722
  683MOL0     H92142   5.431   0.956   1.892  0.3129 -0.2123  1.3547
  683MOL0     H92143   5.386   0.858   1.747  2.2842 -0.0634 -0.3128
  683MOL0     H92144   5.222   0.744   1.893  0.4068  0.1498 -2.4726
  683MOL0     H92145   5.267   0.848   2.040 -2.3781 -2.4974  0.6085
  683MOL0     H92146   5.202   1.043   1.934  1.2102 -2.1082  2.4414
  683MOL0     H92147   5.174   0.967   1.772 -0.3066  0.7003  0.2116
  683MOL0     H92148   4.992   0.821   1.889  4.3898 -1.5070  0.3231
  683MOL0     H92149   4.992   0.948   2.016 -0.4820  1.1050 -1.5050
  683MOL0     H92150   4.944   1.132   1.864 -0.3597  0.0445 -1.1936
  683MOL0     H92151   4.976   1.021   1.731  3.9402 -0.5614  1.0362
  683MOL0     H92152   4.773   0.883   1.804  2.4657 -0.0158  2.3613
  683MOL0     H92153   4.757   0.960   1.949 -0.1332 -0.2379 -0.2392
  683MOL0     H92154   4.738   1.126   1.691 -0.8551 -1.5149 -0.4107
  683MOL0     H92155   4.695   1.186   1.851  2.1730  1.3247 -1.3572
  683MOL0     H92156   4.508   1.153   1.596 -3.6225  2.2703  1.1525
  683MOL0     H92157   4.265   1.178   1.554  0.5421 -2.3640 -1.6049
  683MOL0     H92158   4.198   1.013   1.567 -2.4127  1.1877 -0.8272
  683MOL0     H92159   4.087   1.068   1.781  2.0146  1.0724  3.1465
  683MOL0     H92160   4.040   1.160   1.634  0.9134  1.1724 -0.6741
  683MOL0     H92161   4.165   1.353   1.713  2.4072 -2.8810 -1.7890
  683MOL0     H92162   4.214   1.256   1.855  2.1919 -3.3339 -2.7592
  683MOL0     H92163   4.041   1.436   1.901  1.5190 -1.5047  1.6193
  683MOL0     H92164   3.966   1.278   1.926 -1.1161 -0.2220 -0.8460
  683MOL0     H92165   3.825   1.495   1.973 -0.6027  0.5847  0.8918
  683MOL0     H92166   3.582   1.718   2.025 -1.1771 -0.5602 -1.1241
  683MOL0     H92167   3.577   1.555   2.104 -1.7806  0.4565  0.1098
  683MOL0     H92168   3.728   1.654   2.070 -1.1742  2.6189  1.0610
  683MOL0     H92169   3.179   1.728   1.878 -1.4918  3.4467 -0.8487
  683MOL0     H92170   2.935   1.732   1.871 -0.8584 -2.6691  0.3241
  683MOL0     H92171   2.732   1.535   1.551  0.4894  0.6059 -0.3650
  683MOL0     H92172   2.712   1.422   1.687 -0.9933 -0.2684 -3.1572
  683MOL0     H92173   2.542   1.606   1.777 -0.9584  1.3462 -0.5990
  683MOL0     H92174   2.567   1.672   1.608  1.4336  1.0390  1.1723
  683MOL0     H92175   2.455   1.408   1.661  1.0830 -0.3626  0.1974
  683MOL0     H92176   2.506   1.478   1.501  0.9292 -0.1210  0.6082
  683MOL0     H92177   2.290   1.563   1.710  1.7700  1.1676  0.3247
  683MOL0     H92178   2.338   1.691   1.594 -1.1605  0.8018 -0.0009
  683MOL0     H92179   2.214   1.424   1.514 -3.4095  0.9917  1.0349
  683MOL0     H92180   2.277   1.543   1.404 -1.7234  0.8103 -1.0030
  683MOL0     H92181   2.049   1.558   1.609  1.3290  1.8452  0.1258
  683MOL0     H92182   2.105   1.702   1.529 -2.1922 -0.0378  3.4263
  683MOL0     H92183   2.030   1.462   1.361  1.9374 -0.7714  0.5344
  683MOL0     H92184   2.041   1.638   1.322  1.8421 -0.1142  1.9443
  683MOL0     H92185   1.809   1.592   1.314  1.6932  0.4237 -0.6704
  683MOL0     H92186   1.829   1.651   1.477  0.6642 -0.2411  1.7166
  683MOL0     H92187   2.930   1.421   1.584 -1.9218  0.6600 -0.2165
  683MOL0     H92188   3.165   1.419   1.578  0.6074  0.6437 -0.9637
  683MOL0     H92189   3.514   1.485   1.594  1.1901 -1.4568 -2.0542
  683MOL0     H92190   3.738   1.373   1.559 -0.2769  0.4782 -1.0861
  683MOL0     H92191   5.786   0.822   2.154  1.2322 -1.8166  2.9347
  683MOL0     H92192   5.965   0.671   2.221  0.0001  0.8557  0.4944
  683MOL0     H92193   6.162   0.333   2.305  0.1573 -1.6514  2.3983
  683MOL0     H92194   6.371   0.204   2.362  0.7450  2.1128 -0.5625
  683MOL0     H92195   6.497  -0.107   2.124 -0.2117 -0.0567 -0.6250
  683MOL0     H92196   6.597   0.006   2.038 -2.8992  0.9210  0.0818
  683MOL0     H92197   6.650  -0.139   2.309 -0.2734  2.1103  2.1166
  683MOL0     H92198   6.756   0.002   2.256  2.1545 -0.9162 -0.2288
  683MOL0     H92199   6.850  -0.129   2.078 -1.2625 -1.0407 -0.6664
  683MOL0     H92200   6.718  -0.254   2.095  0.0634 -1.6643  3.2282
  683MOL0     H92201   6.795  -0.338   2.279  0.4163 -1.0658  0.0132
  683MOL0     H92202   6.903  -0.200   2.314 -1.3869 -0.1694  0.2673
  683MOL0     H92203   7.155  -0.434   2.073  0.9879 -1.5732  2.2453
  683MOL0     H92204   6.384   0.043   1.963 -0.7491  0.7379 -1.3604
  683MOL0     H92205   6.176   0.152   1.909  4.0621 -0.1740 -0.6660
  684MOL0     O92206   7.546   2.580   8.034  0.4059  0.4245  1.0714
  684MOL0     C92207   7.600   2.656   7.952 -0.3047 -0.3310  0.1841
  684MOL0     O92208   7.535   2.737   7.870  0.0975  0.0928 -0.0671
  684MOL0     C92209   7.399   2.732   7.870 -0.8304  1.0446 -0.5151
  684MOL0     C92210   7.326   2.836   7.922 -0.4266  0.4551 -0.5114
  684MOL0     C92211   7.189   2.834   7.924  0.4485 -0.5723 -0.8401
  684MOL0     C92212   7.121   2.725   7.864  0.5858  0.0540 -0.7577
  684MOL0     O92213   6.980   2.720   7.855  0.2193 -0.5822  0.3266
  684MOL0     C92214   6.902   2.766   7.967  0.6004  0.1560  0.1829
  684MOL0     C92215   6.819   2.656   8.025  0.1001  0.1502  0.1232
  684MOL0     C92216   6.703   2.600   7.938  0.5318  0.8655 -0.0454
  684MOL0     C92217   6.611   2.506   8.023  0.1774 -0.4687 -0.6964
  684MOL0     C92218   6.480   2.578   8.058  0.1910  0.0834 -0.2554
  684MOL0     C92219   6.486   2.708   8.136 -0.1425 -0.1226  0.6271
  684MOL0     C92220   6.346   2.750   8.208 -0.5413 -1.5605  0.1485
  684MOL0     C92221   6.240   2.784   8.106 -0.4455 -0.3568  0.1586
  684MOL0     N92222   6.118   2.815   8.177  0.2927  0.8106  0.1309
  684MOL0     C92223   5.999   2.837   8.117 -0.6589 -0.2670  0.4264
  684MOL0     C92224   5.912   2.864   8.211 -0.4459 -0.8537 -0.4315
  684MOL0     C92225   5.771   2.904   8.195 -1.0297  0.0489  0.5494
  684MOL0     C92226   5.687   2.884   8.324 -0.2349 -0.3737  0.5701
  684MOL0     C92227   5.579   2.781   8.296 -0.4275 -0.2547  0.1256
  684MOL0     C92228   5.538   2.722   8.441 -0.4793 -0.1177 -0.1712
  684MOL0     O92229   5.446   2.614   8.429 -0.5309  0.7162  0.8647
  684MOL0     C92230   5.320   2.649   8.461 -0.8036  0.2110 -1.1940
  684MOL0     C92231   5.245   2.546   8.522 -0.7494 -0.1888 -0.7210
  684MOL0     C92232   5.106   2.565   8.530  0.3213 -0.4566 -0.2490
  684MOL0     C92233   5.012   2.454   8.584 -0.8964 -0.0013  0.3055
  684MOL0     C92234   5.046   2.689   8.495 -0.5124 -0.2830 -0.7781
  684MOL0     C92235   4.898   2.728   8.512 -0.1374  0.0779  0.4871
  684MOL0     O92236   4.857   2.826   8.425  0.1093 -0.0947 -0.7011
  684MOL0     C92237   4.732   2.879   8.450  0.2949 -0.3687 -0.5882
  684MOL0     C92238   4.628   2.837   8.364 -0.8756 -0.0582  0.5586
  684MOL0     C92239   4.502   2.890   8.375 -0.3376 -0.5481  0.7300
  684MOL0     C92240   4.478   2.988   8.474  0.2667  0.0480 -0.5943
  684MOL0     O92241   4.355   3.050   8.490 -0.1489 -0.4454  0.1062
  684MOL0     C92242   4.239   2.969   8.505  0.6747  1.3108  0.2970
  684MOL0     C92243   4.122   3.065   8.499 -0.6170 -0.6716  0.0983
  684MOL0     C92244   3.989   2.987   8.500  0.1857  0.3626 -0.1992
  684MOL0     C92245   3.969   2.914   8.629  0.3523 -0.5011 -0.2422
  684MOL0     C92246   3.834   2.853   8.659  0.2620 -0.5854  1.0440
  684MOL0     C92247   3.787   2.739   8.571 -1.1437 -0.8924 -0.0057
  684MOL0     C92248   3.865   2.610   8.589  0.1195  0.5167  0.2074
  684MOL0     C92249   3.817   2.506   8.489 -0.3086 -0.5861 -0.4454
  684MOL0    Cl92250   3.916   2.357   8.509  0.0473  0.3324 -0.2872
  684MOL0     C92251   4.575   3.021   8.573 -0.6507 -0.0770  0.5546
  684MOL0     C92252   4.704   2.969   8.557 -0.1186  0.5516  0.6215
  684MOL0     O92253   4.828   2.683   8.600  0.0153  0.2767 -0.3855
  684MOL0     C92254   5.127   2.788   8.445 -0.5775  0.0035 -0.3949
  684MOL0     C92255   5.259   2.762   8.420  0.2607 -0.9103 -0.6431
  684MOL0     N92256   5.979   2.873   8.331  0.3012  0.3322 -0.1522
  684MOL0     N92257   6.105   2.846   8.312  0.2060  0.1981  0.1666
  684MOL0     C92258   7.196   2.621   7.814  0.5727  0.1006 -0.3714
  684MOL0     C92259   7.336   2.621   7.810 -0.7079 -0.6076 -0.0769
  684MOL0     C92260   7.744   2.684   7.967 -0.2382  0.3621 -0.0548
  684MOL0     C92261   7.824   2.611   8.049  0.5894  0.2767  0.1069
  684MOL0     C92262   7.956   2.659   8.080 -0.7472  0.6214  0.2266
  684MOL0     C92263   8.008   2.773   8.019 -0.8442 -0.4294  1.3869
  684MOL0     O92264   8.139   2.817   8.042  0.1174 -0.1445 -0.1527
  684MOL0     C92265   8.187   2.941   7.995 -0.0863 -0.1222  0.4456
  684MOL0     C92266   8.324   2.977   8.049 -0.4832  0.1099 -0.0933
  684MOL0     C92267   8.316   2.983   8.206  0.1470 -0.1707  1.2199
  684MOL0     C92268   8.451   3.050   8.254 -0.5443  0.3437  0.1491
  684MOL0     C92269   8.557   2.948   8.275  0.2308  0.0200  0.2075
  684MOL0     C92270   8.643   2.865   8.262  0.4835 -0.0140 -0.3768
  684MOL0     C92271   7.920   2.827   7.918 -0.6792  0.0018 -1.2082
  684MOL0     C92272   7.797   2.784   7.890 -0.0458  1.1734 -0.4310
  684MOL0     H92273   7.386   2.912   7.972 -2.4134  2.9033 -1.5989
  684MOL0     H92274   7.130   2.912   7.971 -0.2003 -0.6419 -1.5172
  684MOL0     H92275   6.951   2.817   8.050 -0.1437  0.2685  0.5551
  684MOL0     H92276   6.837   2.842   7.924  0.7743 -0.9985 -2.3074
  684MOL0     H92277   6.874   2.574   8.072 -1.3537 -0.5208  0.7436
  684MOL0     H92278   6.764   2.692   8.113  1.2779 -2.2949  1.9944
  684MOL0     H92279   6.639   2.677   7.895 -2.7579 -1.6255 -0.0322
  684MOL0     H92280   6.750   2.555   7.850 -2.5196 -1.2214 -0.7526
  684MOL0     H92281   6.575   2.417   7.971 -1.8630 -0.9828  1.4073
  684MOL0     H92282   6.663   2.469   8.112  0.8390 -3.4250 -2.1773
  684MOL0     H92283   6.428   2.596   7.964  2.0073  1.1876 -1.0833
  684MOL0     H92284   6.424   2.497   8.108  1.4097 -1.0131 -0.6136
  684MOL0     H92285   6.566   2.698   8.209  0.3714  0.7601  0.2020
  684MOL0     H92286   6.519   2.791   8.073  1.2031  0.0078  1.4746
  684MOL0     H92287   6.311   2.670   8.274 -0.5537 -1.7029 -0.0305
  684MOL0     H92288   6.360   2.840   8.268 -0.6808 -0.4513 -1.4041
  684MOL0     H92289   6.229   2.694   8.045  0.8395 -1.4506  1.4412
  684MOL0     H92290   6.275   2.870   8.049 -1.9464 -0.1228 -0.4456
  684MOL0     H92291   5.975   2.831   8.011  2.0859 -0.9224 -0.2353
  684MOL0     H92292   5.764   3.006   8.157 -0.0590 -0.9568 -2.6651
  684MOL0     H92293   5.731   2.854   8.107  2.4759  2.8331 -2.9743
  684MOL0     H92294   5.645   2.979   8.357  0.1518  0.5558 -1.4178
  684MOL0     H92295   5.747   2.842   8.406 -0.6253 -0.2035  0.9436
  684MOL0     H92296   5.637   2.708   8.239 -0.3113  0.2220 -0.3713
  684MOL0     H92297   5.499   2.827   8.237  1.4776  3.3983  0.1341
  684MOL0     H92298   5.503   2.800   8.509  0.2403 -0.6490  0.8329
  684MOL0     H92299   5.628   2.680   8.488 -1.1620 -0.6531  0.6929
  684MOL0     H92300   5.295   2.460   8.564 -0.1506  0.6131  0.2595
  684MOL0     H92301   5.071   2.366   8.610 -2.0457 -0.7137  0.5773
  684MOL0     H92302   4.960   2.481   8.676 -1.1545 -0.4117  0.2832
  684MOL0     H92303   4.937   2.428   8.508  0.4589  3.0788 -2.3152
  684MOL0     H92304   4.644   2.762   8.287  1.7926  0.7238  0.2445
  684MOL0     H92305   4.427   2.865   8.301  1.0750  0.2010 -1.0518
  684MOL0     H92306   4.225   2.893   8.427  1.7461 -2.9608  3.8573
  684MOL0     H92307   4.245   2.922   8.603  3.4775 -2.9448 -1.6127
  684MOL0     H92308   4.137   3.131   8.585  0.6712 -1.7978  0.7854
  684MOL0     H92309   4.122   3.130   8.411  1.8074 -0.7008  0.0097
  684MOL0     H92310   3.984   2.917   8.417 -0.0933  1.3327 -1.0291
  684MOL0     H92311   3.909   3.061   8.491 -1.1283 -0.8036  1.3671
  684MOL0     H92312   4.038   2.829   8.630 -2.7752 -3.3490 -1.9601
  684MOL0     H92313   3.994   2.985   8.708  0.9587 -0.7585 -0.2020
  684MOL0     H92314   3.750   2.923   8.655 -0.5407 -1.5602  0.0655
  684MOL0     H92315   3.836   2.819   8.763 -1.3635 -0.3177  1.1964
  684MOL0     H92316   3.683   2.722   8.602 -1.8530  2.0355 -0.4672
  684MOL0     H92317   3.787   2.778   8.468 -0.7705 -0.8834 -0.0006
  684MOL0     H92318   3.855   2.567   8.689  1.6736 -2.3098 -0.7390
  684MOL0     H92319   3.972   2.628   8.577 -0.2413  1.9523 -1.3137
  684MOL0     H92320   3.836   2.542   8.388  1.7713 -0.5296 -0.0601
  684MOL0     H92321   3.715   2.469   8.503 -0.3039 -0.4340  0.0287
  684MOL0     H92322   4.556   3.088   8.656 -0.1570  1.8157 -0.7738
  684MOL0     H92323   4.789   3.005   8.615  1.0318 -2.0793  0.6921
  684MOL0     H92324   5.093   2.889   8.425  1.2522  0.9035  0.7591
  684MOL0     H92325   5.322   2.834   8.368  0.6483 -2.4859 -2.4522
  684MOL0     H92326   7.131   2.551   7.762 -0.1245 -0.1560  0.8167
  684MOL0     H92327   7.388   2.535   7.768 -0.9551 -0.4069 -0.8026
  684MOL0     H92328   7.788   2.518   8.093  2.3913  0.4011  2.0138
  684MOL0     H92329   8.017   2.603   8.150  0.3235  1.7526  0.2265
  684MOL0     H92330   8.198   2.937   7.886 -0.2861 -1.0829  0.4524
  684MOL0     H92331   8.115   3.019   8.022  3.0584  2.6911  1.4003
  684MOL0     H92332   8.366   3.066   8.002 -1.3599  0.6164  0.0610
  684MOL0     H92333   8.387   2.891   8.023 -2.0899 -1.8645  2.0840
  684MOL0     H92334   8.305   2.882   8.248 -0.7288 -0.0888  1.2219
  684MOL0     H92335   8.235   3.043   8.250  0.4452  0.5999  0.7288
  684MOL0     H92336   8.436   3.100   8.350  0.8592  3.1016 -0.9665
  684MOL0     H92337   8.480   3.132   8.188 -0.4484  0.2554  0.0798
  684MOL0     H92338   8.702   2.781   8.229  0.4472  0.1768 -0.9454
  684MOL0     H92339   7.961   2.906   7.856  1.5643 -0.7643 -0.8088
  684MOL0     H92340   7.743   2.842   7.816 -1.8829 -0.8490 -0.7744
  685MOL0     O92341   7.089   9.644   3.044  0.1024 -0.7051  0.1911
  685MOL0     C92342   7.201   9.654   2.999  0.7317  0.4007 -0.1130
  685MOL0     O92343   7.245   9.676   2.869 -0.0837  0.0457 -0.7834
  685MOL0     C92344   7.163   9.699   2.763 -0.2762 -0.2590 -0.0702
  685MOL0     C92345   7.027   9.644   2.749 -0.7206 -0.0660 -0.4118
  685MOL0     C92346   6.950   9.677   2.638  0.2064  0.0079  0.6718
  685MOL0     C92347   7.000   9.772   2.543  0.2850 -0.1272 -0.6546
  685MOL0     O92348   6.915   9.802   2.445  0.2550  0.0018 -0.5699
  685MOL0     C92349   6.972   9.866   2.331 -0.0538 -0.9208  0.2596
  685MOL0     C92350   6.874   9.866   2.220  0.1888 -0.0983 -0.0964
  685MOL0     C92351   6.761   9.964   2.238  0.0644  0.4567  0.1871
  685MOL0     C92352   6.680   9.986   2.114  0.0896 -0.3400  0.9202
  685MOL0     C92353   6.577  10.095   2.116 -0.5150 -0.7266  1.0878
  685MOL0     C92354   6.483  10.100   2.226  0.7615  1.1158 -0.5736
  685MOL0     C92355   6.390  10.220   2.227 -0.1418 -0.2655  0.3606
  685MOL0     C92356   6.294  10.220   2.118  0.3720 -0.1070  1.2632
  685MOL0     N92357   6.203  10.334   2.104 -0.6237  0.1995 -0.1107
  685MOL0     C92358   6.128  10.363   1.991 -0.0102 -0.4426  0.1817
  685MOL0     C92359   6.063  10.479   2.031 -0.4167  0.9470  0.1611
  685MOL0     C92360   5.958  10.564   1.953  0.8571 -0.1457  0.1107
  685MOL0     C92361   6.015  10.703   1.912 -0.7717 -0.4860  0.2361
  685MOL0     C92362   5.904  10.781   1.844  0.1238 -0.1451 -0.0290
  685MOL0     C92363   5.911  10.933   1.878  0.3427 -0.1200 -0.6576
  685MOL0     O92364   5.811  11.019   1.814  0.4993  0.0598 -0.0091
  685MOL0     C92365   5.694  11.054   1.879  0.1454  0.3404  0.8144
  685MOL0     C92366   5.663  11.031   2.012 -0.2550 -0.1882  0.2412
  685MOL0     C92367   5.537  11.057   2.054  0.6620  0.1673 -0.3047
  685MOL0     C92368   5.501  11.004   2.195 -0.4878 -0.5334 -0.1209
  685MOL0     C92369   5.434  11.116   1.968 -0.2787  0.6050 -0.2029
  685MOL0     C92370   5.292  11.150   2.016  0.2815  0.9264  0.6453
  685MOL0     O92371   5.242  11.088   2.122 -0.1865  0.7480 -0.0003
  685MOL0     C92372   5.131  11.127   2.203 -0.6427 -0.9983 -0.3454
  685MOL0     C92373   5.123  11.081   2.337 -1.2404 -0.4064  0.6211
  685MOL0     C92374   5.030  11.122   2.427  0.2141  0.1638 -0.4475
  685MOL0     C92375   4.941  11.223   2.387  0.6274  0.5468 -0.2873
  685MOL0     O92376   4.847  11.278   2.476  0.0598  0.1459 -0.7329
  685MOL0     C92377   4.899  11.292   2.615  0.3470  0.4412  0.1867
  685MOL0     C92378   4.827  11.413   2.675  0.8586  0.0683  0.5603
  685MOL0     C92379   4.675  11.386   2.694 -0.5911 -0.4473 -0.4652
  685MOL0     C92380   4.592  11.475   2.607  0.2735 -0.1685 -0.3509
  685MOL0     C92381   4.443  11.452   2.638  0.3006 -0.7304 -0.1357
  685MOL0     C92382   4.359  11.458   2.507  0.6825  0.5317 -0.4420
  685MOL0     C92383   4.210  11.482   2.548 -0.9183 -0.2127  1.0120
  685MOL0     C92384   4.123  11.542   2.447 -0.4819  0.0080  0.4557
  685MOL0    Cl92385   4.113  11.452   2.289 -0.1137 -0.0899  0.1003
  685MOL0     C92386   4.936  11.265   2.258  0.0024 -0.4041 -0.3491
  685MOL0     C92387   5.040  11.227   2.168  0.2635 -0.0109 -0.1855
  685MOL0     O92388   5.229  11.235   1.948 -0.3195 -0.5185 -0.1970
  685MOL0     C92389   5.469  11.149   1.841  0.2377 -0.2240 -0.7083
  685MOL0     C92390   5.594  11.114   1.798  0.4785  0.0753 -0.5062
  685MOL0     N92391   6.092  10.503   2.163 -0.4658  0.1540  0.2913
  685MOL0     N92392   6.180  10.415   2.202 -0.5160 -0.0422 -0.8973
  685MOL0     C92393   7.139   9.813   2.553  0.4566  0.2129 -0.3605
  685MOL0     C92394   7.213   9.788   2.664  0.1856 -0.4345 -0.3421
  685MOL0     C92395   7.305   9.638   3.097 -0.3672  0.8818 -0.2714
  685MOL0     C92396   7.445   9.641   3.057  0.4193 -0.4081 -0.0568
  685MOL0     C92397   7.552   9.608   3.144 -0.0934 -0.9955  0.5515
  685MOL0     C92398   7.515   9.575   3.271 -0.2634  0.1267 -0.8618
  685MOL0     O92399   7.606   9.539   3.370  0.3062 -0.1994 -0.6340
  685MOL0     C92400   7.742   9.530   3.331 -0.1878 -0.1459 -0.2423
  685MOL0     C92401   7.824   9.483   3.453  0.1227  0.1250  0.1520
  685MOL0     C92402   7.778   9.345   3.518  0.0344 -0.1081  0.3102
  685MOL0     C92403   7.864   9.320   3.638  0.4985 -0.2000  0.2131
  685MOL0     C92404   8.002   9.292   3.604 -0.3845 -0.2812  0.4520
  685MOL0     C92405   8.115   9.268   3.565 -0.1368  0.2984  1.2193
  685MOL0     C92406   7.381   9.568   3.317 -0.5283 -0.2886 -0.7210
  685MOL0     C92407   7.275   9.602   3.233 -0.3501  0.2281  0.7650
  685MOL0     H92408   6.977   9.592   2.830  0.7184 -2.0897 -0.7584
  685MOL0     H92409   6.851   9.635   2.626 -0.0151  0.1715  1.7697
  685MOL0     H92410   6.998   9.971   2.349 -0.5523 -0.8128  0.3782
  685MOL0     H92411   7.061   9.816   2.292  0.1993 -1.4989  1.5443
  685MOL0     H92412   6.927   9.903   2.132  0.0225  0.7340  0.1512
  685MOL0     H92413   6.834   9.765   2.201 -0.9479  0.7214 -2.4137
  685MOL0     H92414   6.697   9.926   2.318  0.9877 -0.8587  0.3290
  685MOL0     H92415   6.797  10.066   2.259  1.8250  0.7836 -3.4857
  685MOL0     H92416   6.724   9.998   2.014 -2.7839 -1.3430 -0.5534
  685MOL0     H92417   6.621   9.895   2.100 -3.3292  2.0356 -1.8189
  685MOL0     H92418   6.625  10.192   2.102 -0.6023 -0.8517 -0.2627
  685MOL0     H92419   6.525  10.074   2.022  3.2453  0.3701 -1.4742
  685MOL0     H92420   6.432  10.004   2.228  1.8548  0.5141  1.3066
  685MOL0     H92421   6.542  10.103   2.318 -0.8778  0.2654  0.5593
  685MOL0     H92422   6.339  10.211   2.323  0.2074  0.4351  0.6226
  685MOL0     H92423   6.445  10.314   2.229 -4.1635  2.3556  0.4115
  685MOL0     H92424   6.235  10.128   2.123  0.9912 -0.8403 -2.2223
  685MOL0     H92425   6.351  10.207   2.025 -1.4656  0.6739 -0.0478
  685MOL0     H92426   6.136  10.325   1.889 -1.1011  2.5240 -1.1068
  685MOL0     H92427   5.924  10.509   1.864  1.3874 -2.7479  1.4220
  685MOL0     H92428   5.868  10.577   2.013  0.5950 -0.8361 -0.1143
  685MOL0     H92429   6.100  10.697   1.843 -0.5507  2.0755  0.1817
  685MOL0     H92430   6.039  10.762   2.001 -4.8980  0.6029  0.8446
  685MOL0     H92431   5.807  10.744   1.877  0.0574  1.0393  1.1865
  685MOL0     H92432   5.897  10.766   1.736  2.6443  1.1970 -0.4738
  685MOL0     H92433   6.011  10.961   1.842  2.0704 -1.9455  2.3447
  685MOL0     H92434   5.906  10.933   1.987  1.4431  0.0065 -0.5900
  685MOL0     H92435   5.739  10.994   2.079 -0.7580 -2.9790 -0.6049
  685MOL0     H92436   5.427  10.924   2.191 -0.9875 -0.0649 -0.3526
  685MOL0     H92437   5.588  10.960   2.245  1.5390  1.9144 -1.2508
  685MOL0     H92438   5.471  11.087   2.259  1.4701 -0.1657  0.3976
  685MOL0     H92439   5.195  11.013   2.380  1.3408  2.3393  0.9620
  685MOL0     H92440   5.005  11.068   2.518 -1.5104 -0.6808 -1.3551
  685MOL0     H92441   4.885  11.204   2.677 -0.2621  0.7710  0.5247
  685MOL0     H92442   5.004  11.321   2.603  0.4303  1.6540  3.0683
  685MOL0     H92443   4.870  11.454   2.766 -0.7223  3.3812 -0.0416
  685MOL0     H92444   4.851  11.492   2.603  1.3276 -1.9908 -1.6805
  685MOL0     H92445   4.658  11.409   2.799  1.4464  0.0938 -0.2251
  685MOL0     H92446   4.653  11.281   2.672 -0.2379 -0.4886 -0.6298
  685MOL0     H92447   4.612  11.582   2.615  0.9279 -0.4161  2.1146
  685MOL0     H92448   4.617  11.438   2.507  0.9306 -0.1060 -0.2136
  685MOL0     H92449   4.417  11.522   2.717 -0.0428  1.1624 -1.8560
  685MOL0     H92450   4.445  11.345   2.660  1.2526 -0.8968 -0.9483
  685MOL0     H92451   4.401  11.541   2.450  0.7641  0.2548 -0.7857
  685MOL0     H92452   4.379  11.364   2.454 -1.8901  0.2609 -1.0527
  685MOL0     H92453   4.207  11.557   2.628  0.4854  0.5419  0.4081
  685MOL0     H92454   4.159  11.391   2.580 -3.3221  1.1125  1.2272
  685MOL0     H92455   4.173  11.639   2.436  0.7700 -0.3217  2.5536
  685MOL0     H92456   4.020  11.537   2.482 -0.6401 -0.4944 -0.0796
  685MOL0     H92457   4.853  11.329   2.230  1.3601  0.3507 -3.0474
  685MOL0     H92458   5.027  11.265   2.067 -2.3632 -1.1945 -0.3525
  685MOL0     H92459   5.395  11.198   1.778 -1.2192 -1.9202 -0.4114
  685MOL0     H92460   5.626  11.133   1.696  0.5862 -0.4093 -0.5665
  685MOL0     H92461   7.178   9.880   2.476 -0.0975  1.6396  0.5568
  685MOL0     H92462   7.315   9.820   2.679  0.2194  0.2437 -1.8097
  685MOL0     H92463   7.478   9.669   2.958  2.0786  0.9294  0.8132
  685MOL0     H92464   7.657   9.612   3.120  0.0086 -1.3644  0.9291
  685MOL0     H92465   7.752   9.459   3.249  0.2580 -0.9247  0.4688
  685MOL0     H92466   7.779   9.625   3.293  0.1458 -0.0982  0.1853
  685MOL0     H92467   7.807   9.563   3.526 -0.3687 -0.3222  0.5403
  685MOL0     H92468   7.929   9.479   3.424  0.0859  0.7272 -0.0951
  685MOL0     H92469   7.793   9.265   3.445 -0.0860 -2.0894  2.3164
  685MOL0     H92470   7.672   9.341   3.545 -0.6115 -3.9086 -2.0543
  685MOL0     H92471   7.826   9.227   3.680 -0.2583 -2.6172 -5.0693
  685MOL0     H92472   7.860   9.399   3.714  0.0117 -0.5283  0.5358
  685MOL0     H92473   8.205   9.238   3.516 -1.7862 -1.0436 -1.1850
  685MOL0     H92474   7.376   9.565   3.426 -1.2135  3.7238 -0.4778
  685MOL0     H92475   7.171   9.607   3.262 -1.6570 -0.6886 -3.1781
  686MOL0     O92476   9.140   9.908   5.874  0.1290 -0.4333  0.1588
  686MOL0     C92477   9.228   9.853   5.943  0.3558  0.1909  0.2442
  686MOL0     O92478   9.217   9.810   6.068 -0.2830  0.4902  0.5542
  686MOL0     C92479   9.090   9.779   6.117  0.7536  0.6880  0.4396
  686MOL0     C92480   9.057   9.795   6.254  0.5880 -0.4326  0.1140
  686MOL0     C92481   8.933   9.749   6.299 -0.3329  0.1216  0.4857
  686MOL0     C92482   8.835   9.691   6.213  0.0309 -0.5074 -0.2006
  686MOL0     O92483   8.718   9.655   6.276  0.1170 -0.6767  0.3069
  686MOL0     C92484   8.626   9.589   6.188  0.2721  0.0871  0.2711
  686MOL0     C92485   8.490   9.595   6.260 -0.6312  0.6771  0.3492
  686MOL0     C92486   8.385   9.534   6.160  0.6654  0.0622 -0.1071
  686MOL0     C92487   8.241   9.546   6.213 -0.7851  0.2286  0.0028
  686MOL0     C92488   8.151   9.488   6.104 -0.0000 -0.0018 -1.1217
  686MOL0     C92489   8.002   9.480   6.149 -0.7686 -0.1422  0.4978
  686MOL0     C92490   7.918   9.420   6.033  0.2395 -0.4955  0.4383
  686MOL0     C92491   7.768   9.431   6.054 -1.0895  0.7971  0.4545
  686MOL0     N92492   7.704   9.378   5.933 -0.6316  0.6036  0.4167
  686MOL0     C92493   7.581   9.313   5.940 -0.2095 -0.1845 -0.8382
  686MOL0     C92494   7.566   9.272   5.814  0.2273 -0.3794 -0.0425
  686MOL0     C92495   7.472   9.161   5.764  0.2074 -0.9800 -0.7604
  686MOL0     C92496   7.339   9.159   5.830 -0.5065 -0.2275  1.0992
  686MOL0     C92497   7.241   9.045   5.789 -0.8191 -0.2417  0.5864
  686MOL0     C92498   7.101   9.076   5.843  0.4771 -0.0810 -0.5053
  686MOL0     O92499   7.042   9.193   5.785  0.2203 -0.1920 -0.0169
  686MOL0     C92500   6.913   9.173   5.755  0.4452  0.3379 -0.3643
  686MOL0     C92501   6.818   9.154   5.855 -0.2079  1.0860 -0.2580
  686MOL0     C92502   6.681   9.124   5.820 -0.1432 -0.4861  0.0469
  686MOL0     C92503   6.579   9.113   5.933 -0.3952 -0.6350  0.5569
  686MOL0     C92504   6.652   9.116   5.678  0.3262  1.1263  0.2923
  686MOL0     C92505   6.508   9.080   5.627  0.0548 -0.0079  0.0734
  686MOL0     O92506   6.415   9.028   5.716 -0.0668 -0.5271 -0.5462
  686MOL0     C92507   6.288   8.993   5.671 -0.2985  0.1231 -0.0245
  686MOL0     C92508   6.247   8.972   5.540  0.0690 -0.9194 -0.1632
  686MOL0     C92509   6.107   8.956   5.523 -0.0030 -0.4386 -0.8561
  686MOL0     C92510   6.017   8.949   5.634  0.1705  0.1537  0.1756
  686MOL0     O92511   5.874   8.934   5.628 -0.5933  0.4107  0.7256
  686MOL0     C92512   5.827   8.941   5.491  0.2756  0.1532  0.3692
  686MOL0     C92513   5.678   8.922   5.501 -0.2781 -1.1180  0.5183
  686MOL0     C92514   5.607   9.049   5.549 -1.0027 -0.2234 -0.1630
  686MOL0     C92515   5.462   9.016   5.575 -0.3275 -0.1774 -0.1279
  686MOL0     C92516   5.393   9.141   5.636  0.5501  0.3092  0.0841
  686MOL0     C92517   5.244   9.119   5.660  0.3613  1.2894  0.7925
  686MOL0     C92518   5.154   9.062   5.549  0.4771 -0.1315  0.0355
  686MOL0     C92519   5.014   9.069   5.590 -0.5308 -0.8265 -0.2001
  686MOL0    Cl92520   4.913   9.014   5.447  0.1427 -0.0741  0.2337
  686MOL0     C92521   6.067   8.967   5.764 -0.0297 -0.2143 -0.8906
  686MOL0     C92522   6.196   8.999   5.783 -0.2226 -0.3481  0.5835
  686MOL0     O92523   6.494   9.089   5.504 -0.1780 -0.8400  0.5584
  686MOL0     C92524   6.749   9.146   5.586 -0.0828  0.1520  0.0494
  686MOL0     C92525   6.877   9.181   5.625  0.4541  0.5192  0.0538
  686MOL0     N92526   7.664   9.329   5.728 -0.0584  0.2196 -0.3856
  686MOL0     N92527   7.752   9.390   5.805 -0.0168  0.7033  0.0059
  686MOL0     C92528   8.871   9.669   6.075  0.0015 -0.7644 -0.0768
  686MOL0     C92529   8.996   9.714   6.038 -0.1772  0.4455  1.4272
  686MOL0     C92530   9.356   9.827   5.881 -0.4680 -0.6541  0.1054
  686MOL0     C92531   9.462   9.792   5.954  0.3746 -0.5883  0.0669
  686MOL0     C92532   9.581   9.756   5.892  0.1657  0.3695 -0.6075
  686MOL0     C92533   9.597   9.781   5.752  0.2225 -0.3862 -0.9142
  686MOL0     O92534   9.718   9.770   5.697 -0.5381 -0.2771 -0.6431
  686MOL0     C92535   9.751   9.815   5.570  0.2991  0.3676 -0.6783
  686MOL0     C92536   9.893   9.765   5.542  0.6658 -0.2780 -0.0060
  686MOL0     C92537   9.946   9.805   5.404  0.0639  0.8120  0.3021
  686MOL0     C92538  10.089   9.754   5.383  0.3580 -0.1765 -0.2540
  686MOL0     C92539  10.142   9.797   5.248  0.2825 -0.1437 -1.1454
  686MOL0     C92540  10.182   9.843   5.145  0.6826  0.1974  0.5343
  686MOL0     C92541   9.491   9.834   5.681  0.0419  0.5576  0.2930
  686MOL0     C92542   9.369   9.851   5.741 -0.3644 -0.5536 -0.8970
  686MOL0     H92543   9.127   9.839   6.324 -1.3969 -0.3166  2.1286
  686MOL0     H92544   8.903   9.769   6.401 -0.6487  2.0251  0.0696
  686MOL0     H92545   8.611   9.644   6.095  0.1380  2.7042  1.7285
  686MOL0     H92546   8.655   9.489   6.154 -2.7356 -0.6570 -0.3474
  686MOL0     H92547   8.496   9.539   6.353  0.3020 -0.6052 -0.4457
  686MOL0     H92548   8.473   9.701   6.279 -1.2298  1.0614 -2.0240
  686MOL0     H92549   8.397   9.577   6.060 -1.1197 -0.4900 -0.5898
  686MOL0     H92550   8.415   9.433   6.130 -0.9278  0.0368 -1.7964
  686MOL0     H92551   8.225   9.492   6.306  1.0585 -1.9120 -0.8484
  686MOL0     H92552   8.199   9.646   6.227 -2.4494 -0.3671 -0.4621
  686MOL0     H92553   8.149   9.553   6.016 -0.8453  2.0218  0.3028
  686MOL0     H92554   8.189   9.388   6.080 -2.0073 -1.1628  0.2663
  686MOL0     H92555   7.998   9.412   6.234 -1.3309 -2.0854 -1.0187
  686MOL0     H92556   7.963   9.581   6.166  0.8241  0.7242 -0.6505
  686MOL0     H92557   7.944   9.473   5.940  1.5161 -3.1199 -0.8043
  686MOL0     H92558   7.944   9.315   6.020 -1.3719 -0.8517 -0.0678
  686MOL0     H92559   7.730   9.532   6.065 -1.8801  0.5463  0.0273
  686MOL0     H92560   7.730   9.382   6.145 -0.9228  1.3729  0.8392
  686MOL0     H92561   7.510   9.309   6.022 -1.7513  0.1043 -2.1097
  686MOL0     H92562   7.453   9.175   5.657 -1.4325  2.9899 -0.1156
  686MOL0     H92563   7.517   9.063   5.782  0.6417 -0.8750 -1.2494
  686MOL0     H92564   7.289   9.253   5.805 -0.7994 -0.0486  2.2879
  686MOL0     H92565   7.357   9.161   5.938 -1.5545 -1.3622  1.3058
  686MOL0     H92566   7.260   8.944   5.827 -1.2564 -0.8560 -0.7667
  686MOL0     H92567   7.235   9.036   5.680 -0.9209  1.2093  0.4643
  686MOL0     H92568   7.122   9.099   5.947  0.7466  1.3181 -0.8530
  686MOL0     H92569   7.039   8.986   5.839 -0.5177  0.5251  0.6689
  686MOL0     H92570   6.847   9.172   5.958 -0.0368 -0.3258 -0.0367
  686MOL0     H92571   6.489   9.163   5.898 -1.1468 -0.8459  2.0916
  686MOL0     H92572   6.541   9.011   5.946 -6.2475  0.4787 -3.6861
  686MOL0     H92573   6.620   9.143   6.030 -1.5228 -2.4575  1.6681
  686MOL0     H92574   6.316   8.966   5.457  0.8123  2.1599  0.1184
  686MOL0     H92575   6.068   8.965   5.422  0.4705  2.7475 -0.8784
  686MOL0     H92576   5.855   9.036   5.443 -0.4642 -0.6533 -1.7937
  686MOL0     H92577   5.867   8.860   5.429 -0.7493  0.1879 -0.3655
  686MOL0     H92578   5.639   8.894   5.402  1.5505 -0.8571 -0.3205
  686MOL0     H92579   5.654   8.842   5.573 -1.6989  0.2275  1.6090
  686MOL0     H92580   5.623   9.126   5.472  3.7101  0.7734  1.4822
  686MOL0     H92581   5.658   9.096   5.633 -1.0609  0.0785 -0.2900
  686MOL0     H92582   5.406   9.001   5.483 -0.3784  0.2994 -0.1745
  686MOL0     H92583   5.465   8.931   5.644 -0.7800  0.3726  0.5812
  686MOL0     H92584   5.387   9.230   5.572 -0.3629  0.1515 -0.0715
  686MOL0     H92585   5.438   9.182   5.726 -0.1591 -0.1395  0.6499
  686MOL0     H92586   5.252   9.055   5.748  0.5126  1.7714  1.1328
  686MOL0     H92587   5.207   9.214   5.700 -3.1542  0.1550  0.5652
  686MOL0     H92588   5.166   8.953   5.545 -0.7361 -0.3597  1.4943
  686MOL0     H92589   5.153   9.106   5.449 -1.5286  0.3297  0.2120
  686MOL0     H92590   4.997   9.172   5.620 -1.6963 -0.8470 -0.7437
  686MOL0     H92591   4.997   9.008   5.679  0.3562 -0.0957  0.4953
  686MOL0     H92592   5.992   8.961   5.842  0.7564 -2.1975 -0.2137
  686MOL0     H92593   6.240   9.028   5.878  1.3343 -1.6356  0.3195
  686MOL0     H92594   6.725   9.154   5.480  4.3490 -0.9971 -1.2419
  686MOL0     H92595   6.953   9.203   5.551 -0.3682 -0.3569 -1.0895
  686MOL0     H92596   8.792   9.641   6.006 -0.9817  0.0005  0.6955
  686MOL0     H92597   9.008   9.681   5.935 -3.2342  0.5169  0.9508
  686MOL0     H92598   9.449   9.776   6.061 -0.4931 -0.2628  0.0174
  686MOL0     H92599   9.663   9.714   5.950 -0.5820 -1.6331 -0.9263
  686MOL0     H92600   9.679   9.782   5.495  0.6707  0.7107 -1.1930
  686MOL0     H92601   9.746   9.924   5.567  1.5628  0.4861  0.5390
  686MOL0     H92602   9.895   9.655   5.536  2.2081 -0.2727 -0.0117
  686MOL0     H92603   9.964   9.791   5.620  0.3336 -1.0848  0.5777
  686MOL0     H92604   9.949   9.915   5.400 -1.7109  0.9112  0.6970
  686MOL0     H92605   9.878   9.767   5.327 -0.6550 -0.0581  1.3331
  686MOL0     H92606  10.086   9.645   5.391 -3.0598 -0.1928 -0.5370
  686MOL0     H92607  10.148   9.780   5.471 -0.1304 -1.0589  0.3496
  686MOL0     H92608  10.224   9.877   5.053 -1.0616 -1.8786 -1.1272
  686MOL0     H92609   9.495   9.854   5.574  1.1468  1.5730  0.5136
  686MOL0     H92610   9.281   9.881   5.686 -1.9353  1.9737  2.6149
  687MOL0     O92611   6.062   4.748   4.407  0.3631 -0.2572  1.0093
  687MOL0     C92612   5.983   4.836   4.356 -0.8868  0.1085  0.2117
  687MOL0     O92613   5.889   4.919   4.423 -0.3006 -0.4528  0.5719
  687MOL0     C92614   5.891   4.924   4.562  0.7473 -0.1445 -0.0406
  687MOL0     C92615   5.775   4.987   4.612  0.4941  0.7803  0.1847
  687MOL0     C92616   5.769   5.010   4.749  0.5930  0.4646 -1.4232
  687MOL0     C92617   5.878   4.974   4.841  0.2958  0.0058 -0.1028
  687MOL0     O92618   5.881   4.982   4.981  0.3167  0.3071  0.2790
  687MOL0     C92619   5.774   5.048   5.062 -0.1812  0.5165  0.6544
  687MOL0     C92620   5.835   5.097   5.191 -0.1813  0.2001 -0.0075
  687MOL0     C92621   5.729   5.165   5.282 -0.8050  0.1660  0.3709
  687MOL0     C92622   5.779   5.209   5.420  0.0220 -0.1191  0.6058
  687MOL0     C92623   5.677   5.253   5.526 -0.8580  0.0545 -0.2738
  687MOL0     C92624   5.578   5.354   5.475  0.0927  0.1385 -0.0753
  687MOL0     C92625   5.489   5.410   5.587  0.4928  1.0377  0.0182
  687MOL0     C92626   5.415   5.530   5.541  0.0815  0.6432  0.4692
  687MOL0     N92627   5.322   5.506   5.430  0.8769 -0.6334 -0.0488
  687MOL0     C92628   5.189   5.490   5.451 -0.2454  0.6117 -0.6349
  687MOL0     C92629   5.138   5.451   5.338 -0.5425  0.5982 -0.5200
  687MOL0     C92630   4.990   5.421   5.329 -0.0278 -0.9465 -0.1591
  687MOL0     C92631   4.958   5.303   5.242 -0.5649  0.5678 -0.4197
  687MOL0     C92632   5.027   5.287   5.098  0.1268  0.0209  0.9505
  687MOL0     C92633   4.990   5.400   5.000 -0.4208  0.5885  0.2071
  687MOL0     O92634   4.848   5.406   4.970  0.1623  0.3357  0.0465
  687MOL0     C92635   4.793   5.314   4.887  0.1769 -0.3455  0.7490
  687MOL0     C92636   4.865   5.229   4.795 -0.6093  0.9575 -0.7464
  687MOL0     C92637   4.801   5.138   4.719  0.5978 -0.2851  0.4428
  687MOL0     C92638   4.893   5.020   4.660  0.7678 -0.2414 -0.3912
  687MOL0     C92639   4.663   5.138   4.711 -0.5087  0.1161 -0.4802
  687MOL0     C92640   4.593   5.059   4.600 -0.6215  0.1031 -0.3807
  687MOL0     O92641   4.459   5.061   4.610  0.0215  0.4573 -0.5680
  687MOL0     C92642   4.370   4.997   4.524 -0.3786 -0.4397 -0.7228
  687MOL0     C92643   4.391   4.901   4.428 -0.3298  1.3342  0.1566
  687MOL0     C92644   4.285   4.836   4.362  0.2858 -0.3847  0.1596
  687MOL0     C92645   4.152   4.886   4.375 -0.4780 -0.0584  0.7143
  687MOL0     O92646   4.052   4.849   4.283  0.0504  0.4658  0.1485
  687MOL0     C92647   3.937   4.768   4.328  1.1503 -0.6511 -0.6572
  687MOL0     C92648   3.825   4.807   4.231  0.3326  0.5047  0.2732
  687MOL0     C92649   3.797   4.954   4.215 -0.7795 -0.4341  0.7561
  687MOL0     C92650   3.734   5.017   4.338 -0.0058  0.5701 -0.0100
  687MOL0     C92651   3.692   5.166   4.323  0.0554  0.1955 -0.1123
  687MOL0     C92652   3.565   5.189   4.242  0.2638 -0.0557  0.7581
  687MOL0     C92653   3.446   5.151   4.334  0.7929 -0.3921  0.0181
  687MOL0     C92654   3.319   5.169   4.256  0.0412 -0.0883  0.1159
  687MOL0    Cl92655   3.306   5.047   4.122  0.2927  0.1956 -0.4685
  687MOL0     C92656   4.133   5.001   4.453  0.1944  1.3030  0.4004
  687MOL0     C92657   4.240   5.045   4.531 -0.5770  0.2024  0.1094
  687MOL0     O92658   4.659   4.997   4.516  0.0011  0.2373  0.0092
  687MOL0     C92659   4.588   5.215   4.797 -0.6134 -0.0055 -0.8488
  687MOL0     C92660   4.654   5.309   4.877 -0.7490  0.2046 -0.4219
  687MOL0     N92661   5.235   5.456   5.241  0.1220 -0.4129  0.0278
  687MOL0     N92662   5.341   5.492   5.295  0.5466  0.0863 -0.7776
  687MOL0     C92663   5.999   4.932   4.778  0.1335 -0.6672  0.4470
  687MOL0     C92664   6.007   4.902   4.642  0.0987 -0.1272 -0.2691
  687MOL0     C92665   6.001   4.860   4.210 -0.4309 -0.1164 -0.1932
  687MOL0     C92666   5.922   4.933   4.126  1.2859  0.0462 -0.4701
  687MOL0     C92667   5.952   4.965   3.996 -0.4820 -0.3185  1.0083
  687MOL0     C92668   6.070   4.922   3.936  0.4550  0.0958 -0.5518
  687MOL0     O92669   6.095   4.955   3.807 -0.7871  0.0088  0.4185
  687MOL0     C92670   6.198   4.887   3.728  0.2837 -0.5934  0.6049
  687MOL0     C92671   6.198   4.956   3.596 -0.4649  0.6817 -0.2559
  687MOL0     C92672   6.274   4.887   3.484  0.2156 -0.3840 -0.4479
  687MOL0     C92673   6.433   4.908   3.482  0.3662  0.8669 -0.3164
  687MOL0     C92674   6.492   4.837   3.372 -0.4644  0.3325  0.1577
  687MOL0     C92675   6.542   4.782   3.274 -0.0364  0.2766  0.1800
  687MOL0     C92676   6.148   4.839   4.006  0.0777 -1.5408  0.4813
  687MOL0     C92677   6.114   4.810   4.145 -0.5394  0.2956  0.4480
  687MOL0     H92678   5.694   5.011   4.543  0.8152  1.0977 -0.0855
  687MOL0     H92679   5.677   5.044   4.796 -0.0284 -0.2706 -2.0756
  687MOL0     H92680   5.741   5.126   4.992 -2.1852 -1.3850 -0.6325
  687MOL0     H92681   5.683   4.990   5.082 -0.5011  1.5401  2.4590
  687MOL0     H92682   5.875   5.010   5.243  1.1186  2.0561  2.2667
  687MOL0     H92683   5.905   5.178   5.169 -2.6977  2.3906 -0.4362
  687MOL0     H92684   5.694   5.254   5.229 -0.8796  1.5257  2.5704
  687MOL0     H92685   5.653   5.089   5.303  0.8868 -1.7280 -0.0154
  687MOL0     H92686   5.835   5.122   5.455  1.6088  0.3863 -0.5538
  687MOL0     H92687   5.852   5.290   5.410 -1.9430  1.6350 -0.2134
  687MOL0     H92688   5.615   5.171   5.562  0.2875 -0.7209 -0.0325
  687MOL0     H92689   5.731   5.293   5.612 -0.9571 -2.3849  0.9899
  687MOL0     H92690   5.637   5.432   5.425  0.3896 -0.6581 -0.9990
  687MOL0     H92691   5.514   5.312   5.397 -1.7857  3.1875 -0.3626
  687MOL0     H92692   5.410   5.335   5.600 -0.6603  1.9577 -1.3682
  687MOL0     H92693   5.542   5.434   5.679 -3.0293  0.5399  2.3470
  687MOL0     H92694   5.488   5.610   5.525 -0.8092  1.0897 -1.8854
  687MOL0     H92695   5.353   5.564   5.625  1.4577  1.1786  1.2942
  687MOL0     H92696   5.138   5.503   5.546  1.7286  0.4878  0.4854
  687MOL0     H92697   4.964   5.396   5.433  2.5488  1.4884  1.2148
  687MOL0     H92698   4.930   5.509   5.304  0.5066 -0.8208 -1.0217
  687MOL0     H92699   4.851   5.292   5.222 -0.9446 -1.3364  2.2433
  687MOL0     H92700   4.975   5.214   5.302  1.8437  1.4314  0.2660
  687MOL0     H92701   4.990   5.193   5.055  1.0016 -1.2003  2.7596
  687MOL0     H92702   5.134   5.267   5.095  0.3357 -0.2196  4.7709
  687MOL0     H92703   5.041   5.380   4.905 -0.2799  0.7354  0.2516
  687MOL0     H92704   5.029   5.493   5.043  1.5191  0.3781 -0.9958
  687MOL0     H92705   4.973   5.217   4.796 -0.7988 -3.3095 -3.2986
  687MOL0     H92706   4.966   5.003   4.740 -2.2582  1.2652  2.9555
  687MOL0     H92707   4.837   4.929   4.639 -0.9609  1.0620 -1.6235
  687MOL0     H92708   4.941   5.059   4.570  1.5065 -1.3760 -0.5067
  687MOL0     H92709   4.484   4.845   4.429 -1.3100 -0.3993  2.4725
  687MOL0     H92710   4.291   4.755   4.290  1.3532 -1.0955  1.0071
  687MOL0     H92711   3.964   4.662   4.325  0.5354 -0.9793  2.1508
  687MOL0     H92712   3.927   4.800   4.433  1.0133 -0.6095 -0.6826
  687MOL0     H92713   3.858   4.768   4.135  2.3791  2.0247  0.2948
  687MOL0     H92714   3.731   4.755   4.250 -0.5089  0.4198 -3.4024
  687MOL0     H92715   3.730   4.964   4.130 -0.5920  1.4453  0.7934
  687MOL0     H92716   3.881   5.019   4.188 -1.5431  0.8570  1.3957
  687MOL0     H92717   3.644   4.957   4.355  0.2696  0.2340  0.2850
  687MOL0     H92718   3.800   5.000   4.424  1.3530  1.2211 -0.8921
  687MOL0     H92719   3.768   5.225   4.271  0.1619  0.2435  0.0965
  687MOL0     H92720   3.672   5.211   4.420 -0.5834  0.3437 -0.3081
  687MOL0     H92721   3.560   5.296   4.219 -0.6136 -0.2432  0.0194
  687MOL0     H92722   3.566   5.129   4.151 -0.0748 -1.5744  1.7212
  687MOL0     H92723   3.451   5.234   4.405  2.1493  0.2245 -0.7655
  687MOL0     H92724   3.455   5.048   4.370  1.8146 -0.9633 -1.7436
  687MOL0     H92725   3.327   5.264   4.203 -0.1717 -0.3575 -0.4119
  687MOL0     H92726   3.229   5.166   4.317  0.2334 -3.7095  0.4685
  687MOL0     H92727   4.030   5.032   4.452  0.0568  0.8581  0.6426
  687MOL0     H92728   4.210   5.128   4.594  1.0845  0.8447  0.0912
  687MOL0     H92729   4.483   5.190   4.804 -0.2206 -1.6219 -0.1767
  687MOL0     H92730   4.600   5.379   4.939  0.4227  1.5211 -0.8247
  687MOL0     H92731   6.088   4.917   4.838  1.5604  1.4928 -0.9878
  687MOL0     H92732   6.100   4.856   4.611 -0.2512 -2.2686  1.6230
  687MOL0     H92733   5.827   4.968   4.167  0.8100 -2.9707  1.3504
  687MOL0     H92734   5.879   5.028   3.947 -0.5917 -3.0805 -2.8431
  687MOL0     H92735   6.297   4.884   3.775  1.4929  1.5537 -1.5535
  687MOL0     H92736   6.167   4.782   3.722  1.5975 -1.1384  2.4009
  687MOL0     H92737   6.228   5.061   3.605  0.8900  0.2721  0.3015
  687MOL0     H92738   6.097   4.960   3.555 -1.2862  1.2733  1.7272
  687MOL0     H92739   6.230   4.925   3.391  2.1822  0.8921 -0.8962
  687MOL0     H92740   6.252   4.780   3.491 -0.7479 -0.1172  1.2519
  687MOL0     H92741   6.485   4.887   3.576  0.0403 -0.5556 -0.4412
  687MOL0     H92742   6.439   5.013   3.450 -1.8918  0.0789 -3.8091
  687MOL0     H92743   6.595   4.733   3.195  0.8724  0.0322  0.9217
  687MOL0     H92744   6.230   4.784   3.962 -0.1897 -1.3375 -0.2923
  687MOL0     H92745   6.181   4.742   4.197  4.1001  2.4470 -2.1185
  688MOL0     O92746   2.370   7.831   1.904  0.2242 -0.1661 -0.0873
  688MOL0     C92747   2.455   7.910   1.860 -0.5132  0.5259  1.0181
  688MOL0     O92748   2.425   7.998   1.758  0.1633  1.1976 -0.3592
  688MOL0     C92749   2.290   8.024   1.730 -0.1235 -0.2821 -0.4937
  688MOL0     C92750   2.238   8.008   1.598 -1.3637 -0.1140  0.4969
  688MOL0     C92751   2.112   8.033   1.555  0.4311 -0.5664 -0.4452
  688MOL0     C92752   2.023   8.088   1.657 -0.4132 -0.6862 -0.0615
  688MOL0     O92753   1.904   8.142   1.632  0.3056  0.1191 -0.1658
  688MOL0     C92754   1.788   8.048   1.625 -0.7520 -0.2213  0.0304
  688MOL0     C92755   1.752   7.982   1.759 -0.8172  0.1022 -0.0604
  688MOL0     C92756   1.695   8.083   1.866 -0.5854 -0.3929 -0.5454
  688MOL0     C92757   1.648   7.997   1.983  0.3615 -0.4465  0.2803
  688MOL0     C92758   1.514   8.055   2.041 -0.0437  0.1410  0.5233
  688MOL0     C92759   1.536   8.201   2.086 -0.7232  0.2153 -0.4557
  688MOL0     C92760   1.413   8.274   2.134  0.7069 -0.0341  0.2356
  688MOL0     C92761   1.427   8.430   2.161  0.7371  0.6172 -0.3006
  688MOL0     N92762   1.528   8.452   2.265  0.0137 -0.4183 -0.0576
  688MOL0     C92763   1.657   8.502   2.258 -0.0558 -0.2486  0.4834
  688MOL0     C92764   1.704   8.505   2.384  1.3566  0.7784  0.1360
  688MOL0     C92765   1.828   8.568   2.428  0.6350  0.1874  0.0955
  688MOL0     C92766   1.937   8.466   2.482 -0.4102  0.0761  0.1296
  688MOL0     C92767   1.991   8.368   2.377  0.0047 -0.1406  0.2227
  688MOL0     C92768   2.107   8.291   2.444  0.0975  0.1961  0.1099
  688MOL0     O92769   2.153   8.179   2.366 -0.1231 -0.2204 -0.6887
  688MOL0     C92770   2.059   8.082   2.335  0.1293  0.0654 -0.5517
  688MOL0     C92771   2.082   8.015   2.214  0.8040  0.0374  0.1884
  688MOL0     C92772   1.985   7.921   2.167 -0.4819 -0.0858  0.6407
  688MOL0     C92773   2.014   7.849   2.042 -0.4279 -0.0619  0.1569
  688MOL0     C92774   1.873   7.893   2.253 -0.1902 -0.0075  0.0429
  688MOL0     C92775   1.793   7.770   2.235 -0.1688  0.1256  0.2884
  688MOL0     O92776   1.662   7.776   2.284 -0.4403 -0.2981 -0.0771
  688MOL0     C92777   1.574   7.668   2.280  0.0240  0.1341 -0.0654
  688MOL0     C92778   1.439   7.699   2.293  0.3150  0.1435  0.0968
  688MOL0     C92779   1.341   7.599   2.288 -0.0051  0.6794  0.0862
  688MOL0     C92780   1.366   7.469   2.246 -0.4596 -0.5625  0.2273
  688MOL0     O92781   1.251   7.396   2.218  0.1302  0.2148  0.2097
  688MOL0     C92782   1.277   7.264   2.173 -0.4341 -0.4396  0.5348
  688MOL0     C92783   1.172   7.210   2.082 -0.4092 -0.5691 -0.3035
  688MOL0     C92784   1.035   7.219   2.157 -0.8469 -0.3439 -0.3330
  688MOL0     C92785   0.932   7.167   2.052  0.0299  0.2444 -0.0764
  688MOL0     C92786   0.788   7.193   2.086 -0.0700  0.5460 -0.8612
  688MOL0     C92787   0.694   7.121   1.990  1.0483 -0.1120  0.3428
  688MOL0     C92788   0.546   7.137   2.022  0.1537  0.0632 -0.1271
  688MOL0     C92789   0.450   7.075   1.930 -0.4246  0.0401 -0.4469
  688MOL0    Cl92790   0.429   6.895   1.945  0.2105 -0.2722 -0.1224
  688MOL0     C92791   1.500   7.434   2.240 -0.0549 -0.8855 -0.1948
  688MOL0     C92792   1.604   7.529   2.262 -0.8118  0.4360 -0.3413
  688MOL0     O92793   1.847   7.669   2.188 -0.0068  0.4487 -0.5881
  688MOL0     C92794   1.853   7.961   2.374  1.1693  0.0738 -0.7009
  688MOL0     C92795   1.954   8.053   2.414  0.6529 -0.0840  0.3721
  688MOL0     N92796   1.609   8.440   2.467  0.0329 -0.2352  0.3386
  688MOL0     N92797   1.504   8.415   2.392  1.1109 -0.6646 -0.8825
  688MOL0     C92798   2.070   8.102   1.787  0.3039  0.4767  0.3552
  688MOL0     C92799   2.200   8.076   1.820  0.0883  0.6139  0.2738
  688MOL0     C92800   2.601   7.903   1.891  0.0159  0.3619  0.5857
  688MOL0     C92801   2.653   7.788   1.949  0.6711 -0.9283  0.1866
  688MOL0     C92802   2.788   7.788   1.967  0.3880 -0.0445  0.2420
  688MOL0     C92803   2.879   7.893   1.935 -0.1110  0.9034  0.5165
  688MOL0     O92804   3.013   7.892   1.964 -0.2365  0.1309  0.1922
  688MOL0     C92805   3.058   7.763   1.983  0.4939  0.2465 -0.0074
  688MOL0     C92806   3.212   7.774   2.010  0.1939 -0.5874 -0.2553
  688MOL0     C92807   3.283   7.826   1.876  0.1024  0.2788 -0.4498
  688MOL0     C92808   3.431   7.860   1.899  0.1232 -0.3237 -0.3806
  688MOL0     C92809   3.505   7.762   1.984  0.3385 -0.2965  0.0943
  688MOL0     C92810   3.577   7.691   2.050  0.1533  0.2219  0.0717
  688MOL0     C92811   2.825   8.004   1.877  0.4833  0.1677  0.3376
  688MOL0     C92812   2.685   8.011   1.858  0.1112 -0.0482 -0.2667
  688MOL0     H92813   2.314   7.972   1.529 -0.5559  0.3641  1.1120
  688MOL0     H92814   2.070   8.008   1.458  0.1080 -0.9099 -0.2177
  688MOL0     H92815   1.700   8.104   1.590  0.0842  0.1889 -1.5474
  688MOL0     H92816   1.799   7.976   1.543  1.9471 -1.0322  1.0014
  688MOL0     H92817   1.682   7.899   1.749 -0.8966  0.1984 -0.2945
  688MOL0     H92818   1.850   7.940   1.785 -0.5333 -0.9779 -2.6109
  688MOL0     H92819   1.765   8.157   1.905 -2.0168 -0.0768  1.5943
  688MOL0     H92820   1.620   8.146   1.818  1.0988  1.8871 -0.3460
  688MOL0     H92821   1.634   7.890   1.967  2.9606 -1.0662  1.7427
  688MOL0     H92822   1.725   8.013   2.059 -1.2065  3.3722  1.3325
  688MOL0     H92823   1.430   8.050   1.971 -1.0245 -0.2510  1.6762
  688MOL0     H92824   1.489   7.991   2.127  3.3419  1.4950  2.7165
  688MOL0     H92825   1.614   8.188   2.161 -2.6249 -3.2146  1.1303
  688MOL0     H92826   1.599   8.265   2.023 -0.3318  1.0100  0.7081
  688MOL0     H92827   1.344   8.269   2.049 -1.8554 -2.1125  2.2438
  688MOL0     H92828   1.348   8.225   2.208  0.2646  0.8833  0.4751
  688MOL0     H92829   1.326   8.464   2.187 -1.2817 -2.9483 -2.7154
  688MOL0     H92830   1.466   8.479   2.071 -1.6762  0.2124 -1.6326
  688MOL0     H92831   1.695   8.549   2.168  2.5191 -0.1174  1.5487
  688MOL0     H92832   1.876   8.617   2.343  1.8761 -1.2007 -0.0371
  688MOL0     H92833   1.812   8.648   2.501 -2.5161 -0.9495  0.8337
  688MOL0     H92834   1.889   8.411   2.563 -1.7032 -0.7139 -1.1125
  688MOL0     H92835   2.022   8.521   2.522  0.8186 -2.1070  0.6654
  688MOL0     H92836   2.042   8.428   2.302 -1.8733  1.9473  0.5226
  688MOL0     H92837   1.911   8.303   2.339 -0.0187  0.7500 -1.3166
  688MOL0     H92838   2.069   8.256   2.540  3.7685  0.0523  1.6629
  688MOL0     H92839   2.201   8.346   2.453 -0.0412  0.8379 -1.8290
  688MOL0     H92840   2.174   8.046   2.164  1.5322  1.5214  2.3052
  688MOL0     H92841   2.074   7.914   1.977 -2.5707  2.0159  0.1462
  688MOL0     H92842   2.064   7.753   2.059  1.7172  1.2669  1.9172
  688MOL0     H92843   1.925   7.836   1.980 -0.6246 -0.9965  0.6194
  688MOL0     H92844   1.415   7.797   2.332  0.8810  0.0829  0.6140
  688MOL0     H92845   1.243   7.628   2.324 -0.7513  0.8182 -1.9359
  688MOL0     H92846   1.372   7.245   2.123 -0.2849 -0.3639  0.7842
  688MOL0     H92847   1.285   7.198   2.260 -0.7749 -3.4878 -1.6047
  688MOL0     H92848   1.164   7.260   1.985 -1.7417 -1.7729 -0.8563
  688MOL0     H92849   1.197   7.104   2.071  0.5066 -0.4238  0.2696
  688MOL0     H92850   1.015   7.322   2.188 -2.1267 -0.2099 -1.5042
  688MOL0     H92851   1.030   7.170   2.255 -1.4121  0.4088  0.0281
  688MOL0     H92852   0.955   7.220   1.959  1.7463  4.2017  2.3440
  688MOL0     H92853   0.948   7.059   2.042 -1.5044 -0.1967  1.7950
  688MOL0     H92854   0.768   7.301   2.092  0.0819  0.5383 -0.0030
  688MOL0     H92855   0.772   7.158   2.189  2.0564  0.6197 -0.4599
  688MOL0     H92856   0.704   7.175   1.895 -1.9013  3.0889  1.5937
  688MOL0     H92857   0.720   7.016   1.976 -2.0357 -0.9997  0.5388
  688MOL0     H92858   0.501   7.237   2.015 -2.0664 -0.9743 -1.8146
  688MOL0     H92859   0.530   7.093   2.121 -0.4102 -1.2521 -0.7754
  688MOL0     H92860   0.486   7.093   1.828  0.6180 -1.1982 -0.3249
  688MOL0     H92861   0.357   7.130   1.947  1.1203  2.2577  1.4549
  688MOL0     H92862   1.538   7.334   2.226  0.6088 -0.6921  0.1667
  688MOL0     H92863   1.702   7.484   2.268 -0.9468  0.2925  2.5375
  688MOL0     H92864   1.773   7.930   2.440  0.4835  0.3679 -1.3843
  688MOL0     H92865   1.959   8.092   2.515  5.5768  0.5672  0.1204
  688MOL0     H92866   2.006   8.152   1.860  0.7900  2.0841 -0.2773
  688MOL0     H92867   2.232   8.108   1.919 -0.2717 -0.3486  0.7112
  688MOL0     H92868   2.586   7.705   1.964 -0.1789 -0.8831 -2.7227
  688MOL0     H92869   2.812   7.693   2.014  0.7355  0.0754  0.3130
  688MOL0     H92870   3.021   7.705   2.068 -2.7835 -1.3407 -2.3004
  688MOL0     H92871   3.026   7.702   1.898 -1.4752  2.2497 -0.7911
  688MOL0     H92872   3.264   7.682   2.038  1.4050  0.3613  0.7025
  688MOL0     H92873   3.231   7.844   2.091 -0.1127 -0.8774  0.0724
  688MOL0     H92874   3.245   7.915   1.826  2.2563  1.2641 -0.4660
  688MOL0     H92875   3.280   7.735   1.815  2.0455  0.6000 -1.0809
  688MOL0     H92876   3.428   7.957   1.950 -0.0544  0.6708 -2.2112
  688MOL0     H92877   3.482   7.867   1.803 -0.5497 -0.1356 -0.7247
  688MOL0     H92878   3.613   7.610   2.109 -1.6188  1.2725  2.7886
  688MOL0     H92879   2.879   8.091   1.840 -0.5669 -0.2020 -2.2575
  688MOL0     H92880   2.645   8.098   1.807  1.9875  0.9610 -0.1051
  689MOL0     O92881   5.261  10.103   9.250  0.7003 -0.1345 -0.0860
  689MOL0     C92882   5.363  10.039   9.228  0.3498 -0.5171 -0.4364
  689MOL0     O92883   5.381   9.905   9.260  0.3660  0.3558 -0.2174
  689MOL0     C92884   5.267   9.830   9.290 -0.3079  0.5965  0.1589
  689MOL0     C92885   5.206   9.753   9.188  0.2482  0.3808  0.0409
  689MOL0     C92886   5.096   9.672   9.223 -0.3834 -0.1262  0.4343
  689MOL0     C92887   5.048   9.664   9.355 -0.0181  0.6297 -0.3025
  689MOL0     O92888   4.937   9.594   9.381  0.9647 -0.5267  0.4193
  689MOL0     C92889   4.831   9.677   9.417 -0.6497 -0.6492  0.3563
  689MOL0     C92890   4.704   9.584   9.427 -0.8513 -0.2743 -0.0194
  689MOL0     C92891   4.740   9.450   9.500  0.3011 -0.0508  0.3430
  689MOL0     C92892   4.619   9.370   9.554  0.0839 -0.5365  0.6460
  689MOL0     C92893   4.523   9.319   9.441 -0.0928  0.4627 -0.2443
  689MOL0     C92894   4.417   9.221   9.498 -1.3371 -0.4611 -0.6204
  689MOL0     C92895   4.293   9.199   9.407 -1.1016 -0.1367  0.3575
  689MOL0     C92896   4.189   9.306   9.414  1.0182  1.0249  0.3888
  689MOL0     N92897   4.057   9.279   9.365 -0.5002  0.4548  0.5493
  689MOL0     C92898   3.978   9.167   9.390  0.5542  0.6937  1.0407
  689MOL0     C92899   3.881   9.179   9.295  0.6566  0.2981 -0.2039
  689MOL0     C92900   3.753   9.095   9.297  0.2389 -0.4543 -0.0198
  689MOL0     C92901   3.635   9.193   9.274 -1.0166 -0.0912 -0.4707
  689MOL0     C92902   3.507   9.118   9.241 -0.3287 -0.1315  0.2235
  689MOL0     C92903   3.460   9.017   9.341  0.4125 -0.0908 -0.1303
  689MOL0     O92904   3.321   8.990   9.312 -0.0519  0.2843  0.0057
  689MOL0     C92905   3.225   9.060   9.375 -0.0620 -0.1250  0.2505
  689MOL0     C92906   3.233   9.184   9.448  0.2279 -0.3316  0.2721
  689MOL0     C92907   3.124   9.261   9.497 -0.5249 -0.3626  0.3025
  689MOL0     C92908   3.167   9.397   9.544  0.1053  0.6081 -0.7224
  689MOL0     C92909   2.996   9.209   9.485 -0.5944  0.4773  0.1692
  689MOL0     C92910   2.870   9.282   9.527  0.9468 -0.0900 -0.0255
  689MOL0     O92911   2.874   9.359   9.644  1.2112 -0.6797  0.6056
  689MOL0     C92912   2.748   9.398   9.690  0.0589  0.8153  0.3039
  689MOL0     C92913   2.692   9.517   9.655 -0.0844  0.4112  0.0112
  689MOL0     C92914   2.570   9.560   9.709  0.9900  0.1648  1.2206
  689MOL0     C92915   2.494   9.468   9.782  0.3761  0.6171 -0.0753
  689MOL0     O92916   2.381   9.504   9.857 -0.4057  0.3983 -0.2108
  689MOL0     C92917   2.304   9.604   9.797 -0.2444 -0.7266 -0.0667
  689MOL0     C92918   2.168   9.617   9.870 -0.3576 -0.4680  0.5307
  689MOL0     C92919   2.077   9.720   9.825 -0.3522 -0.4272 -0.2466
  689MOL0     C92920   1.937   9.707   9.869  0.7305  0.5086  0.8571
  689MOL0     C92921   1.845   9.604   9.817 -0.3437  0.6196  0.4118
  689MOL0     C92922   1.790   9.645   9.679 -0.1859  0.1808  0.4036
  689MOL0     C92923   1.669   9.559   9.649 -0.5178 -0.5552  0.3055
  689MOL0     C92924   1.623   9.579   9.492 -0.0957 -0.1293 -1.2183
  689MOL0    Cl92925   1.581   9.747   9.454 -0.3852  0.6308  0.0620
  689MOL0     C92926   2.549   9.342   9.814 -0.2832  1.1855 -0.0128
  689MOL0     C92927   2.670   9.312   9.765 -0.2738 -0.0928  0.1173
  689MOL0     O92928   2.767   9.259   9.464 -0.7945  0.5156 -0.4133
  689MOL0     C92929   2.981   9.090   9.417 -0.2287 -0.4708 -0.7785
  689MOL0     C92930   3.088   9.024   9.358  0.2503  0.0834  0.1701
  689MOL0     N92931   3.896   9.296   9.224  0.1708  0.0209  0.4900
  689MOL0     N92932   4.006   9.358   9.265  1.1077  0.5631 -0.7778
  689MOL0     C92933   5.127   9.729   9.449 -0.1090  0.3270  0.0250
  689MOL0     C92934   5.233   9.816   9.416  0.1555 -0.1691 -0.3769
  689MOL0     C92935   5.482  10.122   9.195 -0.1433 -0.3272 -0.3662
  689MOL0     C92936   5.477  10.259   9.225  0.1447 -0.5910  0.4429
  689MOL0     C92937   5.589  10.338   9.184 -0.2939 -0.3051 -0.7240
  689MOL0     C92938   5.709  10.280   9.132  0.8823 -0.4427  0.4366
  689MOL0     O92939   5.830  10.343   9.116  0.2563  0.0034 -0.5240
  689MOL0     C92940   5.840  10.488   9.117 -1.0119 -0.0190 -0.6007
  689MOL0     C92941   5.862  10.538   9.263 -0.8771 -0.6354 -0.6537
  689MOL0     C92942   6.001  10.502   9.325 -0.4040 -0.2124 -0.0153
  689MOL0     C92943   6.132  10.545   9.252  0.3839  0.0239  0.2855
  689MOL0     C92944   6.257  10.505   9.322  0.4760  0.3374 -0.9296
  689MOL0     C92945   6.368  10.490   9.370  0.6476 -0.4679 -0.2739
  689MOL0     C92946   5.712  10.142   9.104 -0.6622 -0.5071  0.3435
  689MOL0     C92947   5.600  10.060   9.137  0.8480  0.8205  0.1093
  689MOL0     H92948   5.247   9.752   9.088  0.9901 -0.1165  0.3380
  689MOL0     H92949   5.040   9.624   9.143  0.2047  1.8601 -1.2641
  689MOL0     H92950   4.849   9.724   9.514  2.4785  0.4654 -0.6407
  689MOL0     H92951   4.805   9.755   9.344 -2.1552  0.0621  1.5916
  689MOL0     H92952   4.627   9.635   9.486 -3.6822 -3.9416 -0.1449
  689MOL0     H92953   4.682   9.567   9.321  1.8017  0.5546 -0.7744
  689MOL0     H92954   4.780   9.379   9.427 -1.7704 -0.7861 -0.1246
  689MOL0     H92955   4.804   9.476   9.586 -0.9022 -0.9258  1.5423
  689MOL0     H92956   4.661   9.282   9.603  0.3484 -1.5354 -1.2862
  689MOL0     H92957   4.562   9.426   9.629 -0.3461 -0.5215  0.3063
  689MOL0     H92958   4.454   9.397   9.407 -2.0114 -0.3220  1.5697
  689MOL0     H92959   4.581   9.281   9.357  1.8012 -1.5372  1.8140
  689MOL0     H92960   4.473   9.129   9.517 -0.4052 -0.0154 -1.1719
  689MOL0     H92961   4.377   9.250   9.596 -0.1301  0.4658 -0.3884
  689MOL0     H92962   4.336   9.175   9.309 -1.3677 -3.2610  0.8894
  689MOL0     H92963   4.240   9.109   9.441 -2.2304 -0.6195 -2.4454
  689MOL0     H92964   4.231   9.387   9.354  1.2837 -0.6291 -1.7594
  689MOL0     H92965   4.170   9.344   9.515 -0.8317  1.0175  0.0871
  689MOL0     H92966   3.990   9.093   9.468  1.2629  1.6248  1.8389
  689MOL0     H92967   3.754   9.023   9.215 -3.2097 -0.2798 -0.3816
  689MOL0     H92968   3.743   9.047   9.394 -0.7698  0.2689  0.2609
  689MOL0     H92969   3.660   9.252   9.185  0.0214  1.1210  0.5913
  689MOL0     H92970   3.613   9.264   9.354  0.2253  0.3241 -0.4850
  689MOL0     H92971   3.521   9.073   9.142  1.0893 -0.7046  0.6601
  689MOL0     H92972   3.430   9.194   9.225  1.5631  2.2397  1.7159
  689MOL0     H92973   3.461   9.060   9.441 -0.7139 -0.3641  0.0086
  689MOL0     H92974   3.520   8.926   9.350  3.9350  2.2378  3.0828
  689MOL0     H92975   3.325   9.234   9.475  0.7108  1.1735 -3.5841
  689MOL0     H92976   3.244   9.389   9.622 -1.8297 -1.7339  1.1076
  689MOL0     H92977   3.224   9.454   9.470  2.8424  0.0906  0.8333
  689MOL0     H92978   3.078   9.448   9.583 -0.1804  1.4105 -2.3277
  689MOL0     H92979   2.753   9.576   9.589  3.3672 -1.5834  1.1228
  689MOL0     H92980   2.554   9.661   9.672  2.6159  0.5554  1.4708
  689MOL0     H92981   2.348   9.703   9.814 -1.8472  0.3199 -1.6584
  689MOL0     H92982   2.278   9.599   9.691  1.8406 -0.4007 -0.6400
  689MOL0     H92983   2.119   9.523   9.841 -1.7294  0.5448 -0.6093
  689MOL0     H92984   2.175   9.608   9.979 -1.6850 -1.5634  0.5547
  689MOL0     H92985   2.086   9.708   9.716 -0.5301  1.4320 -0.5109
  689MOL0     H92986   2.118   9.818   9.852 -3.4173  0.6140  0.9970
  689MOL0     H92987   1.943   9.688   9.977 -1.3162  0.8487  1.0671
  689MOL0     H92988   1.890   9.805   9.859  1.1506  0.8812  2.2427
  689MOL0     H92989   1.772   9.594   9.897 -0.0044  1.6672  0.8636
  689MOL0     H92990   1.898   9.508   9.814  1.1417  1.3769  1.0543
  689MOL0     H92991   1.751   9.745   9.697 -1.7775 -0.4686  0.7246
  689MOL0     H92992   1.863   9.639   9.597 -0.0422 -0.2811  0.5609
  689MOL0     H92993   1.584   9.595   9.708 -0.4041  1.8954 -0.9204
  689MOL0     H92994   1.689   9.455   9.675 -0.4961 -0.6133  0.0530
  689MOL0     H92995   1.542   9.509   9.467 -1.6590  0.9832  0.4824
  689MOL0     H92996   1.701   9.553   9.420  2.0201 -2.0441  1.6016
  689MOL0     H92997   2.484   9.263   9.853  0.3138  1.1589  0.9588
  689MOL0     H92998   2.709   9.212   9.785 -0.5567 -0.1488  0.3947
  689MOL0     H92999   2.880   9.050   9.411 -1.7844  2.9118  0.4299
  689MOL0     H93000   3.065   8.941   9.293  1.2242  0.2906 -0.4675
  689MOL0     H93001   5.094   9.721   9.552 -2.9448  0.8009 -0.7621
  689MOL0     H93002   5.287   9.868   9.495 -0.1534 -0.4303  0.0113
  689MOL0     H93003   5.389  10.312   9.261  0.1262 -0.0726 -0.3271
  689MOL0     H93004   5.578  10.445   9.201  1.3831 -0.4978  2.2338
  689MOL0     H93005   5.923  10.534   9.063 -2.0297  2.6220 -0.0505
  689MOL0     H93006   5.746  10.535   9.088 -0.9103  0.7849  0.3368
  689MOL0     H93007   5.787  10.501   9.333  0.4625  1.6443  2.1745
  689MOL0     H93008   5.852  10.647   9.264  0.9351 -0.4469  0.2114
  689MOL0     H93009   5.992  10.393   9.315  2.0851 -0.5265  0.5173
  689MOL0     H93010   6.000  10.531   9.430 -1.8849 -0.8303  0.1672
  689MOL0     H93011   6.134  10.654   9.249  0.8555  0.0810  1.9689
  689MOL0     H93012   6.131  10.510   9.148 -0.1583  0.0754  0.2707
  689MOL0     H93013   6.469  10.483   9.403  1.5699 -1.9621 -3.1214
  689MOL0     H93014   5.806  10.112   9.060  0.8493  0.3274  2.8004
  689MOL0     H93015   5.602   9.953   9.117  1.7561  0.3079  2.5684
  690MOL0     O93016   6.558   0.998   2.598  0.6999 -0.7318  0.3177
  690MOL0     C93017   6.661   0.938   2.612 -0.4439 -0.1361 -0.9188
  690MOL0     O93018   6.676   0.828   2.690 -0.2775  0.2152 -0.1891
  690MOL0     C93019   6.583   0.770   2.774  0.3120  0.4309 -0.7103
  690MOL0     C93020   6.617   0.647   2.829  0.0804 -0.0653  0.0545
  690MOL0     C93021   6.529   0.576   2.910  0.4248  0.2167 -0.4637
  690MOL0     C93022   6.404   0.637   2.944  0.3287 -0.4642 -0.6578
  690MOL0     O93023   6.319   0.570   3.023  0.4029  0.3877 -0.1088
  690MOL0     C93024   6.225   0.484   2.960 -0.0364 -0.0868 -0.6103
  690MOL0     C93025   6.106   0.470   3.055 -0.2220  0.6160  0.5305
  690MOL0     C93026   6.001   0.571   3.026  0.1988  0.9379  0.1062
  690MOL0     C93027   5.880   0.563   3.116  0.1185 -0.1978  0.5621
  690MOL0     C93028   5.768   0.642   3.056 -0.6891 -0.1945  0.5178
  690MOL0     C93029   5.636   0.598   3.107 -0.1114 -0.0971 -0.5312
  690MOL0     C93030   5.530   0.707   3.071  0.9107  0.2784  0.2694
  690MOL0     C93031   5.397   0.668   3.133 -0.2124 -0.0620  0.3557
  690MOL0     N93032   5.303   0.773   3.099  0.2250  0.0881 -0.1321
  690MOL0     C93033   5.299   0.894   3.175  0.3579  0.5347  0.5403
  690MOL0     C93034   5.192   0.958   3.131  0.5092  0.4551 -0.3115
  690MOL0     C93035   5.140   1.091   3.184 -0.5295 -0.0326  0.2009
  690MOL0     C93036   5.036   1.079   3.301 -0.9427 -0.4313 -1.2443
  690MOL0     C93037   5.106   1.120   3.432  0.6580  0.1959 -0.1516
  690MOL0     C93038   4.994   1.140   3.541  0.1966  0.0214  0.7499
  690MOL0     O93039   4.916   1.255   3.504 -0.1559 -0.2426  0.7410
  690MOL0     C93040   4.786   1.250   3.546 -0.2062 -0.0158  0.1382
  690MOL0     C93041   4.693   1.305   3.458  0.5764  0.0249 -0.0674
  690MOL0     C93042   4.558   1.324   3.499 -0.2684  0.1206 -0.5438
  690MOL0     C93043   4.469   1.402   3.405 -1.2394  1.4948 -0.7697
  690MOL0     C93044   4.519   1.268   3.630  0.3138  0.5204 -0.0504
  690MOL0     C93045   4.373   1.272   3.680  0.2560 -0.3211  0.0219
  690MOL0     O93046   4.347   1.281   3.816  0.4260  0.7328 -0.0950
  690MOL0     C93047   4.217   1.307   3.859  0.1685 -0.2094 -0.0027
  690MOL0     C93048   4.098   1.244   3.823 -0.0820 -0.1566  0.1024
  690MOL0     C93049   3.977   1.285   3.867  0.4513  0.4172  0.5377
  690MOL0     C93050   3.964   1.401   3.940 -0.0004 -0.5144  0.9869
  690MOL0     O93051   3.838   1.453   3.973 -1.3605 -0.3813  0.1043
  690MOL0     C93052   3.812   1.591   3.994 -0.5132  0.1386  0.1037
  690MOL0     C93053   3.661   1.614   3.979  0.0044  0.3457 -0.2188
  690MOL0     C93054   3.575   1.522   4.059  0.3960  0.1472 -0.2488
  690MOL0     C93055   3.428   1.531   4.037  0.7562 -0.3957  0.8616
  690MOL0     C93056   3.355   1.475   4.167 -0.0705 -0.7110 -0.0771
  690MOL0     C93057   3.208   1.471   4.139 -0.5264  0.5136  0.1610
  690MOL0     C93058   3.126   1.375   4.227 -0.4430  0.7608 -1.0139
  690MOL0     C93059   2.993   1.331   4.163  0.3933 -0.1642 -0.5596
  690MOL0    Cl93060   2.920   1.184   4.247 -0.4238  0.3388  0.2937
  690MOL0     C93061   4.076   1.474   3.967 -1.0051 -0.2122  0.8950
  690MOL0     C93062   4.204   1.426   3.922  0.0064  0.5112 -0.6033
  690MOL0     O93063   4.290   1.250   3.594  0.0079 -0.2857  0.1249
  690MOL0     C93064   4.614   1.212   3.714  0.4683 -0.2113  0.0091
  690MOL0     C93065   4.748   1.197   3.668  0.3225 -0.7615 -0.1185
  690MOL0     N93066   5.133   0.882   3.040 -0.2120 -0.7201  0.0818
  690MOL0     N93067   5.202   0.771   3.015 -1.1047 -0.5643 -0.5704
  690MOL0     C93068   6.373   0.769   2.905  0.1243 -0.0298 -0.1969
  690MOL0     C93069   6.463   0.832   2.816  0.2662 -0.1070 -0.6242
  690MOL0     C93070   6.784   0.993   2.548  0.9631 -0.4715 -0.1671
  690MOL0     C93071   6.909   0.926   2.576  0.4036  0.0848  0.7350
  690MOL0     C93072   7.021   0.964   2.511 -0.7686 -0.7786 -0.1175
  690MOL0     C93073   7.034   1.060   2.408  0.1486 -0.0769 -0.2509
  690MOL0     O93074   7.149   1.093   2.337  0.6725 -0.1895  0.5544
  690MOL0     C93075   7.263   1.010   2.358  0.3104 -0.3588 -0.0707
  690MOL0     C93076   7.348   1.023   2.242 -0.6116 -0.1314 -0.3514
  690MOL0     C93077   7.424   1.155   2.225  0.1764  0.0402  0.5900
  690MOL0     C93078   7.518   1.169   2.109  0.4445 -0.1864  0.2543
  690MOL0     C93079   7.560   1.312   2.093  0.3104  0.0642 -0.3313
  690MOL0     C93080   7.607   1.424   2.072  0.7695 -0.8181  0.3602
  690MOL0     C93081   6.913   1.130   2.381 -0.3908 -0.5538  0.2206
  690MOL0     C93082   6.788   1.098   2.452  0.6295  0.6613  0.5706
  690MOL0     H93083   6.700   0.598   2.778  0.7308  1.5840 -0.5472
  690MOL0     H93084   6.553   0.474   2.936 -1.3966  0.0831  0.9585
  690MOL0     H93085   6.192   0.515   2.860 -2.8210  0.3467  0.3593
  690MOL0     H93086   6.272   0.385   2.955 -0.3712 -0.3063  0.3594
  690MOL0     H93087   6.069   0.369   3.034  0.7211  0.1927  0.8653
  690MOL0     H93088   6.129   0.472   3.162 -2.1798 -0.0915  1.0188
  690MOL0     H93089   6.041   0.672   3.037 -0.4751  1.1052  1.1469
  690MOL0     H93090   5.961   0.564   2.925 -0.8086  0.5765  0.5167
  690MOL0     H93091   5.845   0.459   3.120 -0.7573  0.0172 -0.7672
  690MOL0     H93092   5.902   0.604   3.215  0.1468  3.5894 -0.8379
  690MOL0     H93093   5.791   0.746   3.082 -2.5838  0.3131  0.2869
  690MOL0     H93094   5.763   0.640   2.946 -0.5310  1.7258  0.4338
  690MOL0     H93095   5.626   0.500   3.060 -0.0045 -1.2231  1.6725
  690MOL0     H93096   5.646   0.576   3.213  0.7606 -0.7527 -0.7417
  690MOL0     H93097   5.561   0.805   3.108 -0.7453  1.5676 -1.5558
  690MOL0     H93098   5.519   0.720   2.963 -0.0751  0.8607  0.4210
  690MOL0     H93099   5.399   0.652   3.241  0.1519  0.5848  0.4494
  690MOL0     H93100   5.354   0.576   3.093 -0.2993 -0.0884  0.5083
  690MOL0     H93101   5.367   0.927   3.253  3.3352 -0.1268 -1.6191
  690MOL0     H93102   5.234   1.135   3.220  1.3895 -3.1488 -0.7089
  690MOL0     H93103   5.088   1.153   3.110 -0.0024  1.3680  0.9476
  690MOL0     H93104   5.001   0.977   3.319 -0.1158 -0.1816  2.4803
  690MOL0     H93105   4.950   1.143   3.280 -0.2139  0.6729 -0.9494
  690MOL0     H93106   5.160   1.213   3.412  1.7219  0.3630  3.0437
  690MOL0     H93107   5.184   1.051   3.464  1.1257  1.7105  2.2679
  690MOL0     H93108   5.032   1.154   3.643  0.7838 -1.6411  0.7939
  690MOL0     H93109   4.932   1.050   3.538  0.4158 -0.1084 -2.2485
  690MOL0     H93110   4.740   1.354   3.374 -2.0020  1.9352 -0.5408
  690MOL0     H93111   4.526   1.434   3.317  1.3589  1.6072  0.8528
  690MOL0     H93112   4.402   1.327   3.361  2.1377  0.6219 -5.0966
  690MOL0     H93113   4.417   1.479   3.463 -1.6683 -0.8012  2.1237
  690MOL0     H93114   4.114   1.160   3.756  2.5850 -0.7006  1.2811
  690MOL0     H93115   3.891   1.225   3.836  1.3820 -0.9492  0.5126
  690MOL0     H93116   3.826   1.616   4.099  1.8581 -1.3053  0.2244
  690MOL0     H93117   3.861   1.661   3.925 -0.6222 -0.4618 -0.6010
  690MOL0     H93118   3.637   1.716   4.009  1.6667  0.5360  0.5743
  690MOL0     H93119   3.639   1.610   3.872  1.8174  0.4464 -0.6184
  690MOL0     H93120   3.588   1.552   4.163 -2.4141 -0.2518  0.3014
  690MOL0     H93121   3.615   1.420   4.063  3.4895  1.2858  0.0931
  690MOL0     H93122   3.414   1.638   4.020 -2.2356 -1.1305 -2.4236
  690MOL0     H93123   3.396   1.477   3.947 -1.2038  1.8893  0.1032
  690MOL0     H93124   3.379   1.533   4.256  0.9897  0.8599 -1.3264
  690MOL0     H93125   3.388   1.372   4.180 -2.2332 -1.5380 -0.6418
  690MOL0     H93126   3.164   1.570   4.156  1.2381  1.5215 -0.8685
  690MOL0     H93127   3.200   1.443   4.034  0.4246  2.3145 -0.4332
  690MOL0     H93128   3.106   1.431   4.319 -1.1210  0.4422 -0.9599
  690MOL0     H93129   3.181   1.281   4.239 -0.1503  1.0946  0.3441
  690MOL0     H93130   3.015   1.314   4.057  1.1555  3.0016 -1.0135
  690MOL0     H93131   2.920   1.412   4.171  0.3195 -0.4353  2.4615
  690MOL0     H93132   4.064   1.563   4.027 -2.1897  0.8328 -0.7913
  690MOL0     H93133   4.296   1.479   3.945  1.2164 -1.4644 -0.7526
  690MOL0     H93134   4.592   1.176   3.814 -4.2629  2.6553  0.2927
  690MOL0     H93135   4.819   1.162   3.742 -0.6028  4.2246  3.5937
  690MOL0     H93136   6.293   0.831   2.943  3.1807  2.6284  2.5770
  690MOL0     H93137   6.451   0.938   2.796 -1.9875 -0.1190  0.3835
  690MOL0     H93138   6.921   0.837   2.637 -1.1122 -0.6402  0.0563
  690MOL0     H93139   7.113   0.914   2.537  0.0400  0.9711  0.5198
  690MOL0     H93140   7.321   1.047   2.443  2.8884 -1.1286 -1.3773
  690MOL0     H93141   7.232   0.906   2.365 -3.5420  0.4826 -1.9986
  690MOL0     H93142   7.306   0.996   2.145 -2.6542 -1.6175  0.8730
  690MOL0     H93143   7.425   0.946   2.259  0.1798  0.4357 -1.2754
  690MOL0     H93144   7.479   1.172   2.318  0.8914  1.8404 -0.1323
  690MOL0     H93145   7.347   1.232   2.219 -0.7979 -0.9079  0.6766
  690MOL0     H93146   7.481   1.140   2.011  1.5862  1.6889 -0.7937
  690MOL0     H93147   7.606   1.108   2.130 -0.0147 -1.6683 -1.9129
  690MOL0     H93148   7.659   1.515   2.053 -0.6970 -0.2147 -0.9676
  690MOL0     H93149   6.899   1.217   2.317  1.2435  0.0113  0.5857
  690MOL0     H93150   6.702   1.157   2.423  1.5286  0.8404 -2.0113
  691MOL0     O93151   7.456   3.972   7.485 -0.2917  0.0121 -0.5921
  691MOL0     C93152   7.440   4.062   7.400  0.4673 -1.1794  0.1252
  691MOL0     O93153   7.329   4.083   7.324  0.4333  0.4761 -0.0755
  691MOL0     C93154   7.207   4.020   7.332  0.1288 -0.9683  0.2498
  691MOL0     C93155   7.107   4.069   7.238 -0.5066  0.3153 -0.0384
  691MOL0     C93156   6.978   4.015   7.243 -0.4681 -0.2366 -0.1795
  691MOL0     C93157   6.941   3.924   7.341  0.9878 -0.3962 -0.0472
  691MOL0     O93158   6.811   3.876   7.339  0.4597 -0.3010 -0.1253
  691MOL0     C93159   6.776   3.783   7.443  0.1215  0.0733  0.0629
  691MOL0     C93160   6.630   3.736   7.419  0.9054  0.0795  0.1581
  691MOL0     C93161   6.539   3.846   7.465  1.9469  0.0003  0.3024
  691MOL0     C93162   6.383   3.811   7.464 -0.2609 -0.6482 -0.2224
  691MOL0     C93163   6.306   3.919   7.541  0.6192  0.2113  0.9909
  691MOL0     C93164   6.159   3.886   7.529  0.4784  0.3020 -0.3306
  691MOL0     C93165   6.075   3.998   7.600 -0.2212  0.2143  0.7568
  691MOL0     C93166   5.921   3.979   7.594 -0.7470 -1.0753  1.0966
  691MOL0     N93167   5.843   4.061   7.690 -0.2969 -0.2452 -0.1563
  691MOL0     C93168   5.745   4.144   7.662 -0.5704 -0.4837  0.7775
  691MOL0     C93169   5.699   4.191   7.782  1.0417  0.1254  0.1366
  691MOL0     C93170   5.573   4.270   7.810 -1.4576  0.5702  0.6032
  691MOL0     C93171   5.451   4.185   7.774 -0.1184 -0.2607 -0.2254
  691MOL0     C93172   5.329   4.261   7.807 -0.2861  0.0814 -0.9302
  691MOL0     C93173   5.328   4.342   7.938  1.0179 -0.3226 -0.5883
  691MOL0     O93174   5.195   4.379   7.984 -0.2788 -0.4839  0.3966
  691MOL0     C93175   5.105   4.414   7.892 -0.2380 -0.4810  0.9291
  691MOL0     C93176   5.137   4.509   7.791 -0.1774  0.6567 -0.5504
  691MOL0     C93177   5.035   4.546   7.703 -0.1377  0.0418 -0.3096
  691MOL0     C93178   5.070   4.647   7.591 -0.2130 -0.7453  0.2703
  691MOL0     C93179   4.901   4.505   7.722  0.4271 -0.0066  0.0131
  691MOL0     C93180   4.783   4.553   7.645 -0.3882 -0.6595 -0.2965
  691MOL0     O93181   4.691   4.461   7.624  0.0753 -0.0211  0.3950
  691MOL0     C93182   4.559   4.505   7.588 -0.3670 -0.2115  0.0242
  691MOL0     C93183   4.529   4.553   7.462  0.2206  0.0052  0.7555
  691MOL0     C93184   4.392   4.593   7.428 -0.4693 -0.5125 -0.3695
  691MOL0     C93185   4.293   4.582   7.523  0.3730  0.4516 -0.6608
  691MOL0     O93186   4.162   4.620   7.483 -0.4332  0.2243 -0.7251
  691MOL0     C93187   4.047   4.607   7.573 -0.3412 -0.2124 -0.5424
  691MOL0     C93188   3.927   4.668   7.494  0.2142  0.6860 -0.1947
  691MOL0     C93189   3.806   4.694   7.598 -0.1775 -0.2960 -0.1338
  691MOL0     C93190   3.733   4.560   7.618  1.1275 -0.3106  1.4651
  691MOL0     C93191   3.597   4.567   7.693 -0.6935 -1.0216  0.3527
  691MOL0     C93192   3.539   4.423   7.721  0.2913 -0.2735  0.7190
  691MOL0     C93193   3.389   4.415   7.719  0.1340  0.3538  0.1177
  691MOL0     C93194   3.338   4.466   7.853  0.5012  0.2093  0.2641
  691MOL0    Cl93195   3.380   4.345   7.982  0.4602 -0.2326  0.5346
  691MOL0     C93196   4.323   4.531   7.650  0.3846  1.8764 -0.0105
  691MOL0     C93197   4.456   4.497   7.681 -0.2928  0.3847 -0.5551
  691MOL0     O93198   4.779   4.669   7.601  0.1232 -0.1707  0.4815
  691MOL0     C93199   4.874   4.420   7.828 -0.0283 -0.4198  0.7058
  691MOL0     C93200   4.978   4.377   7.917 -0.0963  0.8898  0.7434
  691MOL0     N93201   5.773   4.124   7.881  0.1569 -0.1526 -0.4273
  691MOL0     N93202   5.869   4.051   7.825  0.7367  0.0687 -0.4944
  691MOL0     C93203   7.037   3.882   7.429  0.5936  0.0769 -0.9969
  691MOL0     C93204   7.167   3.919   7.426 -0.2466 -1.0780  0.2345
  691MOL0     C93205   7.548   4.167   7.390  0.3523  0.2031 -0.1792
  691MOL0     C93206   7.523   4.290   7.337  0.9834 -0.2533 -0.0175
  691MOL0     C93207   7.630   4.384   7.339  0.8753 -0.1874  0.5592
  691MOL0     C93208   7.764   4.359   7.387  0.2735  0.1814 -1.0323
  691MOL0     O93209   7.875   4.443   7.389  0.6484  0.2489  0.2427
  691MOL0     C93210   7.862   4.574   7.337 -0.3265 -0.5434  0.2880
  691MOL0     C93211   7.964   4.647   7.420 -0.6523  0.0622  0.1051
  691MOL0     C93212   8.017   4.780   7.356  1.1738  0.5902  0.3420
  691MOL0     C93213   7.918   4.899   7.370 -0.7508  0.4518 -0.4368
  691MOL0     C93214   7.866   4.934   7.505 -0.2433  0.6149  1.2969
  691MOL0     C93215   7.824   4.968   7.609 -0.5216  0.3807  0.1307
  691MOL0     C93216   7.792   4.222   7.424  0.2823  0.7283  0.1192
  691MOL0     C93217   7.685   4.130   7.424  0.0777 -1.1445  1.2873
  691MOL0     H93218   7.137   4.126   7.151 -0.4499 -0.9654 -0.8993
  691MOL0     H93219   6.903   4.058   7.178 -1.4363 -0.7727  0.5478
  691MOL0     H93220   6.845   3.699   7.432  1.8303  1.3590  0.6036
  691MOL0     H93221   6.789   3.833   7.540 -1.4574 -0.0836  0.3968
  691MOL0     H93222   6.613   3.719   7.312 -2.5585  1.8960  0.2747
  691MOL0     H93223   6.610   3.644   7.474 -1.2090 -0.2000 -0.9616
  691MOL0     H93224   6.556   3.862   7.572 -1.2001 -0.1749  0.9485
  691MOL0     H93225   6.551   3.933   7.400  1.0478  0.8224  1.1997
  691MOL0     H93226   6.344   3.811   7.362 -1.5178  4.1641  0.0443
  691MOL0     H93227   6.368   3.713   7.511 -0.0023  0.2044  1.7403
  691MOL0     H93228   6.330   3.926   7.647  0.9050  3.9152  0.8109
  691MOL0     H93229   6.322   4.019   7.499 -0.0200 -0.6889 -1.5833
  691MOL0     H93230   6.124   3.876   7.426  1.0894  1.2778 -0.6327
  691MOL0     H93231   6.144   3.790   7.580  2.7466  0.7844  1.3678
  691MOL0     H93232   6.108   4.013   7.704  5.3239 -1.2031 -0.4304
  691MOL0     H93233   6.109   4.086   7.545  2.1436  0.0943  1.8788
  691MOL0     H93234   5.895   3.878   7.627  0.8818 -1.8554  0.1341
  691MOL0     H93235   5.887   3.996   7.492 -0.6667  1.5615  1.4472
  691MOL0     H93236   5.709   4.157   7.560  4.9351  1.2740 -1.3176
  691MOL0     H93237   5.577   4.313   7.910 -1.1295  1.0422  0.3906
  691MOL0     H93238   5.571   4.361   7.748  0.1266  0.9602  1.0923
  691MOL0     H93239   5.469   4.086   7.818  0.6341 -0.3430 -0.6981
  691MOL0     H93240   5.459   4.172   7.666 -1.4300 -3.0882 -0.0678
  691MOL0     H93241   5.244   4.192   7.802  0.0304 -0.2432 -1.9070
  691MOL0     H93242   5.314   4.335   7.728  0.1361  0.9479 -0.2217
  691MOL0     H93243   5.384   4.435   7.924  1.1594 -0.5996 -2.0317
  691MOL0     H93244   5.371   4.287   8.022 -1.0076  1.3022  1.7041
  691MOL0     H93245   5.239   4.548   7.798 -0.5630  1.5327  0.6552
  691MOL0     H93246   5.179   4.642   7.579 -0.4684 -1.7309 -2.1708
  691MOL0     H93247   5.029   4.618   7.494  1.0742 -0.1518 -0.4790
  691MOL0     H93248   5.033   4.746   7.619 -0.9600 -0.7603 -0.6286
  691MOL0     H93249   4.603   4.549   7.383  0.0826  0.1945  0.6169
  691MOL0     H93250   4.370   4.637   7.331  0.5156 -0.5204 -0.6062
  691MOL0     H93251   4.034   4.500   7.591  0.5163 -0.2948 -0.3585
  691MOL0     H93252   4.060   4.671   7.661  0.2774  0.8233 -1.3650
  691MOL0     H93253   3.955   4.759   7.440 -2.8820  0.0537 -3.1623
  691MOL0     H93254   3.897   4.588   7.426 -0.1034  1.1149 -0.5624
  691MOL0     H93255   3.732   4.764   7.557 -1.3188 -1.1670  0.4062
  691MOL0     H93256   3.839   4.739   7.691 -1.3365  0.6694 -0.1576
  691MOL0     H93257   3.712   4.517   7.519 -0.0856  1.3359  0.9583
  691MOL0     H93258   3.805   4.496   7.670  0.7352  0.8200  3.4956
  691MOL0     H93259   3.523   4.625   7.637 -2.7165 -1.6392  2.2610
  691MOL0     H93260   3.614   4.613   7.791  3.1286 -2.9416  0.7840
  691MOL0     H93261   3.584   4.357   7.647 -1.2013 -0.6866  0.1566
  691MOL0     H93262   3.587   4.393   7.815  1.7117 -0.5830 -0.0623
  691MOL0     H93263   3.349   4.314   7.702 -2.6386  1.5420 -1.1142
  691MOL0     H93264   3.360   4.474   7.632 -2.4283 -0.3241  0.4108
  691MOL0     H93265   3.230   4.481   7.854  0.4382 -0.2229  0.2416
  691MOL0     H93266   3.379   4.566   7.869 -0.4024  0.5706  0.3644
  691MOL0     H93267   4.241   4.512   7.719 -0.3980  2.3009 -0.8155
  691MOL0     H93268   4.482   4.467   7.782  0.9594 -1.2419 -1.3128
  691MOL0     H93269   4.773   4.390   7.854  0.1015  0.0039  1.7548
  691MOL0     H93270   4.969   4.292   7.983  0.8694  0.3043  0.1405
  691MOL0     H93271   7.016   3.815   7.512 -1.0548  2.8167  0.9608
  691MOL0     H93272   7.241   3.892   7.501 -0.6152  0.3299  1.1579
  691MOL0     H93273   7.428   4.320   7.295  0.0815  0.5552  2.4384
  691MOL0     H93274   7.601   4.478   7.294  0.7539 -1.0347 -1.2309
  691MOL0     H93275   7.898   4.569   7.234 -0.3613 -1.3714  0.3069
  691MOL0     H93276   7.759   4.612   7.342  0.7662  2.5357  1.3777
  691MOL0     H93277   8.046   4.575   7.434 -1.4857 -1.8078 -3.3735
  691MOL0     H93278   7.933   4.667   7.523  0.0612 -0.1869  0.3768
  691MOL0     H93279   8.031   4.767   7.248  3.1394  0.9414  0.5158
  691MOL0     H93280   8.112   4.808   7.402  1.0293  0.4931  0.7004
  691MOL0     H93281   7.837   4.883   7.299  0.0934 -1.7567 -0.9942
  691MOL0     H93282   7.974   4.984   7.329 -0.8431  0.8966  0.3392
  691MOL0     H93283   7.788   5.017   7.698  0.0962 -1.3917  1.3964
  691MOL0     H93284   7.896   4.195   7.441  0.4353  0.8301 -0.6080
  691MOL0     H93285   7.713   4.026   7.443  1.9372 -1.2626 -1.5495
  692MOL0     O93286   1.165   6.516   2.272 -0.9686  0.2508 -0.8839
  692MOL0     C93287   1.211   6.407   2.305  0.1054 -0.2369 -0.1012
  692MOL0     O93288   1.154   6.279   2.297 -0.0668  0.6824 -0.0322
  692MOL0     C93289   1.030   6.258   2.241  0.8450  0.3820  0.1515
  692MOL0     C93290   0.978   6.134   2.279  0.5145  0.6267  0.1600
  692MOL0     C93291   0.845   6.098   2.250 -0.2922  0.6195  0.0938
  692MOL0     C93292   0.764   6.176   2.160  0.2844 -0.1610  0.9226
  692MOL0     O93293   0.642   6.122   2.120 -0.5979 -0.5927  0.3041
  692MOL0     C93294   0.588   6.181   2.001  0.1211  0.0796 -0.3345
  692MOL0     C93295   0.468   6.096   1.955 -0.2077  0.1011 -0.7031
  692MOL0     C93296   0.456   6.072   1.803  0.1644 -0.6361  0.1428
  692MOL0     C93297   0.339   5.976   1.762  0.8745 -0.6785 -0.1500
  692MOL0     C93298   0.194   6.042   1.781 -0.4831 -1.0209 -0.5441
  692MOL0     C93299   0.091   5.950   1.718  0.2244 -0.2232 -0.2054
  692MOL0     C93300   0.048   5.839   1.811  0.0897  0.1262 -1.1238
  692MOL0     C93301  -0.049   5.737   1.742 -0.0130 -0.2274 -0.9258
  692MOL0     N93302  -0.127   5.668   1.836 -0.0327 -0.7552  0.0221
  692MOL0     C93303  -0.220   5.719   1.921  0.5526  0.2084 -1.0996
  692MOL0     C93304  -0.265   5.614   1.998 -0.1901 -0.3022  0.3256
  692MOL0     C93305  -0.361   5.621   2.111 -0.4361 -0.5019 -0.3790
  692MOL0     C93306  -0.494   5.670   2.051 -0.2462  0.7987 -0.2202
  692MOL0     C93307  -0.593   5.659   2.160 -0.4770  0.3311 -1.2503
  692MOL0     C93308  -0.731   5.675   2.109 -0.3839  0.0456 -0.7681
  692MOL0     O93309  -0.803   5.733   2.217 -0.6243  0.2858  1.0205
  692MOL0     C93310  -0.933   5.756   2.206  0.3229 -0.4829 -0.1841
  692MOL0     C93311  -0.981   5.834   2.310 -0.7657  0.5693  0.9609
  692MOL0     C93312  -1.111   5.878   2.312 -0.0571  0.5345 -0.5069
  692MOL0     C93313  -1.144   5.968   2.423 -0.3471 -0.0392  0.4655
  692MOL0     C93314  -1.199   5.836   2.217 -0.0265 -0.0517 -0.2972
  692MOL0     C93315  -1.343   5.884   2.200 -0.1308  0.0367 -0.7996
  692MOL0     O93316  -1.396   5.900   2.072 -0.3042  0.1465 -0.1322
  692MOL0     C93317  -1.520   5.958   2.062 -0.6488 -0.2281 -0.7353
  692MOL0     C93318  -1.622   5.881   2.009 -0.3119 -0.3329  0.4188
  692MOL0     C93319  -1.756   5.923   2.007  1.0853  0.4252 -0.2535
  692MOL0     C93320  -1.785   6.050   2.073  0.2256  1.2949  0.3861
  692MOL0     O93321  -1.916   6.078   2.074  0.0477 -0.3360 -0.3789
  692MOL0     C93322  -1.960   6.220   2.090 -0.2927 -0.4367  0.7981
  692MOL0     C93323  -2.107   6.223   2.126 -0.3165 -0.4017  0.7435
  692MOL0     C93324  -2.194   6.175   2.005  0.3422  0.6197 -0.0812
  692MOL0     C93325  -2.347   6.181   2.059 -0.1009  0.1293  0.5146
  692MOL0     C93326  -2.439   6.106   1.968 -0.4463 -0.3552 -1.0029
  692MOL0     C93327  -2.585   6.137   1.998  0.1872  0.5509 -0.9543
  692MOL0     C93328  -2.683   6.088   1.897  1.0723 -0.3748  0.2689
  692MOL0     C93329  -2.662   6.170   1.770 -0.2255  0.2280 -0.0914
  692MOL0    Cl93330  -2.728   6.326   1.785  0.1069 -0.0955  0.2807
  692MOL0     C93331  -1.680   6.132   2.121 -0.6537  0.4794  0.5974
  692MOL0     C93332  -1.553   6.081   2.116 -0.0489 -0.6245  0.4557
  692MOL0     O93333  -1.413   5.897   2.296 -0.6731 -0.3145 -0.4830
  692MOL0     C93334  -1.148   5.764   2.111  0.4614 -0.8621  0.3007
  692MOL0     C93335  -1.016   5.724   2.097  0.0670  0.0481 -0.1395
  692MOL0     N93336  -0.198   5.502   1.950 -0.7190  0.3828 -0.1152
  692MOL0     N93337  -0.110   5.532   1.857  0.1089  0.8106 -0.2402
  692MOL0     C93338   0.828   6.297   2.111 -0.2131  0.9735  1.0730
  692MOL0     C93339   0.956   6.335   2.148  0.2755  0.1661 -0.1523
  692MOL0     C93340   1.352   6.404   2.360 -0.3445  0.3240 -0.1148
  692MOL0     C93341   1.421   6.521   2.403 -0.7641  0.3008  0.0190
  692MOL0     C93342   1.556   6.531   2.444  0.4860 -0.6087  0.6132
  692MOL0     C93343   1.625   6.408   2.465 -0.3045 -0.3260  0.3653
  692MOL0     O93344   1.754   6.412   2.512 -0.1947  0.1908  0.5688
  692MOL0     C93345   1.814   6.302   2.589 -0.1792 -0.8125 -0.3329
  692MOL0     C93346   1.961   6.355   2.626 -0.1412 -0.3782 -0.7706
  692MOL0     C93347   1.946   6.476   2.727 -0.2054 -0.3076 -0.4330
  692MOL0     C93348   2.078   6.552   2.749  0.1810  0.7496 -0.7121
  692MOL0     C93349   2.058   6.648   2.856 -0.6161 -0.3202  0.3145
  692MOL0     C93350   2.055   6.719   2.954  0.3372 -1.1180 -0.2753
  692MOL0     C93351   1.559   6.289   2.421  1.1523  0.8659  0.7784
  692MOL0     C93352   1.427   6.286   2.373 -0.3375 -0.0740  0.0511
  692MOL0     H93353   1.048   6.064   2.326  0.9469  0.8383 -0.1591
  692MOL0     H93354   0.794   6.007   2.281 -0.6577  0.5721 -0.6079
  692MOL0     H93355   0.549   6.282   2.016  2.5820  1.2641 -1.3623
  692MOL0     H93356   0.660   6.192   1.919  0.0112  0.4877 -0.3784
  692MOL0     H93357   0.477   6.004   2.014  1.9302  0.9684  0.4387
  692MOL0     H93358   0.377   6.145   1.991  0.6040  0.4239  1.0567
  692MOL0     H93359   0.441   6.173   1.762  2.0757 -0.3382  0.0487
  692MOL0     H93360   0.551   6.036   1.760 -0.3912 -0.3690 -1.3761
  692MOL0     H93361   0.353   5.951   1.657  2.5998  2.7526 -0.8784
  692MOL0     H93362   0.339   5.885   1.823 -0.1491 -1.4493 -1.2428
  692MOL0     H93363   0.163   6.075   1.880 -0.3575  1.5614 -1.3047
  692MOL0     H93364   0.186   6.139   1.732 -1.4770 -0.6808  0.2646
  692MOL0     H93365   0.013   6.011   1.672  0.7290 -1.4710 -2.9209
  692MOL0     H93366   0.136   5.898   1.633  1.9962  1.3804 -0.3181
  692MOL0     H93367   0.138   5.785   1.844  0.9990  1.8071 -0.7419
  692MOL0     H93368  -0.007   5.892   1.889  0.1601  1.5971 -2.0396
  692MOL0     H93369   0.018   5.671   1.686  0.1210  0.7362 -1.9237
  692MOL0     H93370  -0.097   5.787   1.657 -0.8765 -1.6375 -1.2967
  692MOL0     H93371  -0.250   5.823   1.929 -1.8653 -0.4925 -0.3915
  692MOL0     H93372  -0.375   5.526   2.164  0.6148  0.5259  1.8755
  692MOL0     H93373  -0.327   5.689   2.190  1.0039 -1.2481 -0.3223
  692MOL0     H93374  -0.519   5.589   1.982 -0.5206 -1.4800  2.3428
  692MOL0     H93375  -0.491   5.765   1.999  0.7527  1.0588  0.2825
  692MOL0     H93376  -0.568   5.737   2.233 -0.1170  1.0627 -2.1453
  692MOL0     H93377  -0.604   5.565   2.216 -1.6671  1.3831  0.3787
  692MOL0     H93378  -0.761   5.574   2.077  4.4626 -1.2719 -1.9796
  692MOL0     H93379  -0.743   5.737   2.020  1.6179  0.3371 -0.8844
  692MOL0     H93380  -0.903   5.861   2.381  2.1365 -0.2012 -1.7071
  692MOL0     H93381  -1.226   5.929   2.484 -0.9679  1.1583  0.4303
  692MOL0     H93382  -1.067   5.960   2.500  1.0560  1.2320 -0.7304
  692MOL0     H93383  -1.165   6.067   2.381  0.7950  0.3831  0.8532
  692MOL0     H93384  -1.593   5.781   1.980  0.7633 -0.0984  0.6303
  692MOL0     H93385  -1.833   5.855   1.972  1.0090  0.8335 -0.8886
  692MOL0     H93386  -1.907   6.272   2.170 -2.3955  0.1286  1.8992
  692MOL0     H93387  -1.959   6.271   1.993 -2.5939 -3.1406 -0.8066
  692MOL0     H93388  -2.115   6.158   2.213  1.9308  1.3089  2.3527
  692MOL0     H93389  -2.130   6.327   2.152 -0.0595  0.1296 -1.0228
  692MOL0     H93390  -2.172   6.077   1.962  1.5219  1.6866 -2.0677
  692MOL0     H93391  -2.187   6.243   1.919 -1.9653 -0.9033 -1.5871
  692MOL0     H93392  -2.359   6.138   2.159 -1.0649  1.7475  1.1231
  692MOL0     H93393  -2.372   6.287   2.064 -1.2111 -0.1910  3.4164
  692MOL0     H93394  -2.420   5.999   1.978  0.7316 -0.0150  0.7104
  692MOL0     H93395  -2.409   6.130   1.866  1.2450  0.4435 -0.3515
  692MOL0     H93396  -2.605   6.083   2.091 -4.3950 -0.0432 -2.0184
  692MOL0     H93397  -2.614   6.238   2.028  1.1588 -0.2249  3.2971
  692MOL0     H93398  -2.783   6.108   1.937  0.8330  0.5785 -0.7304
  692MOL0     H93399  -2.673   5.981   1.880  0.7375 -0.0150 -2.8083
  692MOL0     H93400  -2.710   6.116   1.688 -1.0902 -0.0094  0.5517
  692MOL0     H93401  -2.559   6.168   1.734 -1.0019 -0.7076 -2.4845
  692MOL0     H93402  -1.706   6.232   2.153 -2.1081  0.4481 -0.4091
  692MOL0     H93403  -1.480   6.153   2.151 -0.5459  0.1949 -0.1480
  692MOL0     H93404  -1.227   5.733   2.043  0.3156  1.5658 -0.7259
  692MOL0     H93405  -0.987   5.658   2.015  1.4107  0.8511 -0.3464
  692MOL0     H93406   0.768   6.358   2.044  1.4787  0.3146 -1.1766
  692MOL0     H93407   0.989   6.434   2.115 -0.5173  1.0279  1.5255
  692MOL0     H93408   1.366   6.613   2.385 -2.9217 -1.1691 -1.4076
  692MOL0     H93409   1.602   6.628   2.460 -1.4453 -0.0841  4.2612
  692MOL0     H93410   1.748   6.280   2.673  0.8154 -1.0381  0.4125
  692MOL0     H93411   1.811   6.219   2.519  0.0298 -1.2108  0.1282
  692MOL0     H93412   2.006   6.389   2.532 -0.7186  1.9523 -0.2643
  692MOL0     H93413   2.025   6.284   2.679  0.6087  0.7137 -0.1904
  692MOL0     H93414   1.910   6.438   2.823  1.2329  1.9180  1.0674
  692MOL0     H93415   1.866   6.542   2.692 -3.0498 -2.7868  0.9568
  692MOL0     H93416   2.118   6.602   2.660  1.1885  0.9045 -0.1944
  692MOL0     H93417   2.144   6.469   2.778 -2.7708 -1.6777 -0.5044
  692MOL0     H93418   2.064   6.781   3.040  0.2940 -0.1654 -0.9407
  692MOL0     H93419   1.603   6.190   2.419 -1.7607 -0.6064  2.9094
  692MOL0     H93420   1.376   6.191   2.360  0.0834 -0.0702 -2.0280
  693MOL0     O93421   3.776  10.032  11.008  0.2525 -0.3308 -0.7459
  693MOL0     C93422   3.799  10.103  11.105 -0.5062 -0.2584 -0.1185
  693MOL0     O93423   3.707  10.139  11.200 -0.1104 -0.7724  0.1990
  693MOL0     C93424   3.583  10.089  11.197  0.6206 -0.4750  0.0673
  693MOL0     C93425   3.476  10.175  11.160  0.1043  0.9920  0.2156
  693MOL0     C93426   3.349  10.134  11.157  0.3324  1.2881  0.2076
  693MOL0     C93427   3.321  10.001  11.206  0.5463 -0.9120  0.6436
  693MOL0     O93428   3.192   9.972  11.181  0.5107  0.0863 -0.5100
  693MOL0     C93429   3.173   9.835  11.137  0.7099 -0.4152 -0.2585
  693MOL0     C93430   3.046   9.832  11.058  0.6019  0.1351  0.1355
  693MOL0     C93431   2.923   9.828  11.140 -0.2790 -0.1260 -0.2162
  693MOL0     C93432   2.802   9.848  11.054  1.2125 -0.0884  0.7310
  693MOL0     C93433   2.669   9.871  11.133 -0.7435 -0.4369 -0.3359
  693MOL0     C93434   2.559   9.898  11.032 -0.1632  0.9144 -1.2066
  693MOL0     C93435   2.426   9.924  11.099  0.1177  0.8769 -0.8838
  693MOL0     C93436   2.321  10.003  11.014 -1.1004 -1.0003 -0.3036
  693MOL0     N93437   2.191   9.996  11.069  0.4258  0.1588 -0.7420
  693MOL0     C93438   2.121   9.884  11.098  0.6475  0.6479 -0.3618
  693MOL0     C93439   1.992   9.915  11.134 -0.2536  0.2490  0.7231
  693MOL0     C93440   1.886   9.815  11.172  0.6459 -0.4726 -0.1227
  693MOL0     C93441   1.896   9.675  11.114  0.5261 -0.2716 -0.9453
  693MOL0     C93442   1.768   9.590  11.105 -0.4552  0.6293 -0.2813
  693MOL0     C93443   1.678   9.597  11.229 -0.1716  0.7351  0.2798
  693MOL0     O93444   1.601   9.711  11.212  0.5473 -0.0808 -0.6077
  693MOL0     C93445   1.481   9.734  11.275  1.1147  0.0581  0.4805
  693MOL0     C93446   1.418   9.641  11.359  0.7703 -1.0791  0.6478
  693MOL0     C93447   1.293   9.672  11.422  0.3337 -0.8075 -0.1711
  693MOL0     C93448   1.231   9.564  11.509  0.1071 -0.8064 -1.0496
  693MOL0     C93449   1.233   9.799  11.408  0.2220  0.5792 -0.1270
  693MOL0     C93450   1.103   9.849  11.477  0.2404 -0.6588  0.5133
  693MOL0     O93451   1.088   9.981  11.497 -0.2189 -0.2568 -0.2764
  693MOL0     C93452   0.983  10.034  11.566 -0.3588 -1.4634  0.3667
  693MOL0     C93453   0.937   9.974  11.681  0.0964 -0.3674  0.3134
  693MOL0     C93454   0.822  10.018  11.740 -0.0610 -0.0352 -0.0489
  693MOL0     C93455   0.747  10.125  11.695 -0.0681 -0.4410  0.9014
  693MOL0     O93456   0.637  10.168  11.758 -0.6518 -0.4332 -0.4733
  693MOL0     C93457   0.608  10.127  11.891  0.2427 -0.3604 -0.5785
  693MOL0     C93458   0.487  10.209  11.940  0.1579 -0.4205 -0.1711
  693MOL0     C93459   0.441  10.158  12.082  0.1519 -0.6925 -0.2231
  693MOL0     C93460   0.335  10.268  12.135  1.0854 -0.1327  0.2051
  693MOL0     C93461   0.293  10.243  12.278 -0.4157  0.0822  0.1100
  693MOL0     C93462   0.188  10.346  12.328 -0.4445 -0.1667  0.0817
  693MOL0     C93463   0.181  10.331  12.487 -0.0669 -0.3072  0.2465
  693MOL0     C93464   0.286  10.419  12.556 -0.0743 -0.1220 -0.0289
  693MOL0    Cl93465   0.230  10.594  12.531 -0.2272  0.0158 -0.0441
  693MOL0     C93466   0.790  10.198  11.585 -0.0423 -0.1342  0.1276
  693MOL0     C93467   0.916  10.155  11.521  0.4456  0.0072 -0.4014
  693MOL0     O93468   1.022   9.761  11.501 -0.5470  0.0957 -0.2285
  693MOL0     C93469   1.295   9.880  11.318 -0.9543  0.6342 -0.7278
  693MOL0     C93470   1.417   9.854  11.257 -0.2308  0.6713  0.7711
  693MOL0     N93471   1.992  10.055  11.136  0.2493 -0.2186  0.0513
  693MOL0     N93472   2.103  10.100  11.095 -0.6200  0.1076 -0.4906
  693MOL0     C93473   3.423   9.919  11.253  0.2057 -0.2144 -0.7298
  693MOL0     C93474   3.559   9.956  11.243  0.3897  0.4050  0.7331
  693MOL0     C93475   3.950  10.130  11.125  0.1500  0.7190  0.0869
  693MOL0     C93476   4.003  10.199  11.231 -0.6285  0.0253  0.2027
  693MOL0     C93477   4.143  10.227  11.237  0.7054  0.1080 -0.5362
  693MOL0     C93478   4.230  10.177  11.140  0.3697  0.7513 -0.3929
  693MOL0     O93479   4.362  10.215  11.144 -0.0153 -0.1379  0.0113
  693MOL0     C93480   4.437  10.224  11.022 -0.3765 -0.6033 -0.7332
  693MOL0     C93481   4.566  10.291  11.027  0.4848 -0.3484 -0.3749
  693MOL0     C93482   4.625  10.297  11.167  0.1230  0.1324  0.5588
  693MOL0     C93483   4.766  10.347  11.168  0.2611  0.1650 -0.2116
  693MOL0     C93484   4.828  10.346  11.301  1.0801  0.3396 -0.1669
  693MOL0     C93485   4.894  10.334  11.403  0.3489 -0.6864 -0.1574
  693MOL0     C93486   4.177  10.106  11.034  0.0266  0.1271  0.4258
  693MOL0     C93487   4.040  10.089  11.022 -0.1191 -0.0969  1.0819
  693MOL0     H93488   3.496  10.281  11.145 -1.5360  1.2934 -0.0751
  693MOL0     H93489   3.268  10.197  11.123 -1.3878 -1.5463 -1.3360
  693MOL0     H93490   3.261   9.805  11.079 -1.6029 -2.0340 -3.2252
  693MOL0     H93491   3.159   9.768  11.223  0.6437  2.3289  1.9913
  693MOL0     H93492   3.042   9.910  10.982 -0.0726 -0.8214 -0.8413
  693MOL0     H93493   3.037   9.740  11.000 -0.5930 -0.9104  1.8920
  693MOL0     H93494   2.906   9.731  11.187  0.5040 -0.2332 -0.1462
  693MOL0     H93495   2.926   9.907  11.215 -0.1007  1.4061 -1.7815
  693MOL0     H93496   2.826   9.935  10.991  0.5473  1.0268  1.9513
  693MOL0     H93497   2.794   9.764  10.985 -0.2561 -0.0491  0.8276
  693MOL0     H93498   2.655   9.776  11.185  0.7237 -0.3755  0.2084
  693MOL0     H93499   2.690   9.954  11.202 -1.5188  0.4112 -1.0809
  693MOL0     H93500   2.587   9.981  10.966 -0.5935  1.8968 -0.1960
  693MOL0     H93501   2.567   9.811  10.967  1.0721 -3.1086  3.6440
  693MOL0     H93502   2.374   9.832  11.127 -5.0342  4.0384  1.4212
  693MOL0     H93503   2.441   9.980  11.192 -0.4517 -1.9355  1.0330
  693MOL0     H93504   2.321   9.951  10.918  1.6039  0.9326 -1.4858
  693MOL0     H93505   2.353  10.106  10.996  1.2791 -1.4592  0.8747
  693MOL0     H93506   2.153   9.780  11.102  1.0331  0.8017  1.7630
  693MOL0     H93507   1.878   9.805  11.281 -0.1685  0.3497 -0.0878
  693MOL0     H93508   1.792   9.863  11.141  1.2737 -0.5226 -2.2023
  693MOL0     H93509   1.966   9.612  11.170  0.7530 -1.5830 -2.6295
  693MOL0     H93510   1.922   9.676  11.008 -0.4795 -3.5653 -1.3355
  693MOL0     H93511   1.801   9.486  11.094  0.4575  0.8883 -0.0938
  693MOL0     H93512   1.708   9.625  11.021 -0.8448  0.7196  0.0280
  693MOL0     H93513   1.731   9.602  11.325 -1.6834  1.9994  1.0882
  693MOL0     H93514   1.617   9.507  11.238  1.1812 -0.3242 -0.7806
  693MOL0     H93515   1.466   9.548  11.387  0.3386 -0.8583  2.2124
  693MOL0     H93516   1.128   9.541  11.483 -0.0927 -0.3175 -0.7091
  693MOL0     H93517   1.288   9.470  11.504 -1.6398 -2.1047  1.4181
  693MOL0     H93518   1.227   9.590  11.615  0.7390 -0.9500 -0.9880
  693MOL0     H93519   0.984   9.892  11.735  0.5926 -0.4877 -0.2847
  693MOL0     H93520   0.810   9.968  11.836  3.0396 -0.3163  0.2743
  693MOL0     H93521   0.589  10.020  11.896  4.1877 -1.1219  1.0061
  693MOL0     H93522   0.692  10.163  11.951  1.3489  0.3640 -2.4855
  693MOL0     H93523   0.505  10.316  11.938  0.1934 -0.4239  0.0161
  693MOL0     H93524   0.410  10.191  11.863  0.2742  1.8177 -0.8716
  693MOL0     H93525   0.526  10.136  12.148  0.6995 -0.7419 -0.9365
  693MOL0     H93526   0.388  10.063  12.068 -0.1028 -0.4902 -0.6445
  693MOL0     H93527   0.379  10.367  12.124 -1.1656  0.7408 -1.8994
  693MOL0     H93528   0.251  10.264  12.064  1.5895  0.3154 -0.4205
  693MOL0     H93529   0.386  10.251  12.335 -1.7398  0.6581  2.3016
  693MOL0     H93530   0.261  10.139  12.289  4.1393 -1.5606 -0.1059
  693MOL0     H93531   0.214  10.449  12.302 -0.8223  0.2569  1.3081
  693MOL0     H93532   0.091  10.318  12.286 -0.9132 -0.0152  1.0408
  693MOL0     H93533   0.201  10.227  12.511  0.4086 -0.1267  0.6439
  693MOL0     H93534   0.076  10.354  12.508 -0.5281  0.5561 -2.5480
  693MOL0     H93535   0.385  10.399  12.515  0.5139 -0.6371  1.5923
  693MOL0     H93536   0.285  10.394  12.662  0.0926 -1.2016 -0.2738
  693MOL0     H93537   0.731  10.286  11.560 -0.7683  0.2418  2.8735
  693MOL0     H93538   0.951  10.210  11.434 -0.1222  2.0195  0.6046
  693MOL0     H93539   1.270   9.984  11.298 -1.4851  0.9681  1.4785
  693MOL0     H93540   1.461   9.920  11.183 -0.1234  0.0934  0.3065
  693MOL0     H93541   3.406   9.818  11.287 -0.7335 -0.1865 -1.0706
  693MOL0     H93542   3.635   9.881  11.263  0.5349  0.0840 -0.8643
  693MOL0     H93543   3.943  10.224  11.318  1.3771 -0.7444  1.8787
  693MOL0     H93544   4.174  10.296  11.314  0.4535 -1.2001  0.7944
  693MOL0     H93545   4.454  10.118  10.997  0.3493 -0.4969 -0.7274
  693MOL0     H93546   4.382  10.258  10.935 -1.4216 -2.8726 -1.0413
  693MOL0     H93547   4.551  10.396  10.999 -1.3341 -1.0729 -2.4518
  693MOL0     H93548   4.627  10.240  10.952 -0.9362  2.7739 -3.9860
  693MOL0     H93549   4.629  10.197  11.212  0.2246  0.2134  0.7324
  693MOL0     H93550   4.558  10.358  11.228  0.6431  1.8012 -0.4828
  693MOL0     H93551   4.760  10.449  11.128 -0.6872  0.5376  0.8460
  693MOL0     H93552   4.832  10.285  11.106  0.9528  0.5328  0.1473
  693MOL0     H93553   4.954  10.315  11.489 -1.6773 -2.0438  1.0684
  693MOL0     H93554   4.248  10.073  10.960  0.8837 -0.9356  1.6735
  693MOL0     H93555   4.009  10.041  10.929  4.6758 -1.6586 -0.0426
  694MOL0     O93556  10.909   8.562   0.059  0.5958  0.0335 -0.3089
  694MOL0     C93557  10.938   8.585   0.174  0.1067  0.3635 -0.0504
  694MOL0     O93558  10.850   8.631   0.268 -0.1730 -0.4364 -0.0520
  694MOL0     C93559  10.723   8.659   0.246  0.1473 -0.4345 -0.1956
  694MOL0     C93560  10.666   8.713   0.127 -0.3892  0.6969 -0.2972
  694MOL0     C93561  10.537   8.749   0.121 -0.7331  0.4853 -0.3067
  694MOL0     C93562  10.447   8.731   0.227 -0.4884  0.3128  0.2970
  694MOL0     O93563  10.318   8.774   0.198  0.2729 -0.4486 -1.2183
  694MOL0     C93564  10.220   8.723   0.288 -0.2762 -0.4893  1.0338
  694MOL0     C93565  10.092   8.803   0.256 -0.3902 -0.0825  0.3333
  694MOL0     C93566   9.966   8.719   0.287 -0.6334 -0.4509  0.1062
  694MOL0     C93567   9.843   8.810   0.285  0.2044  0.4375 -0.6189
  694MOL0     C93568   9.713   8.728   0.312 -0.2156 -0.3483  0.0203
  694MOL0     C93569   9.597   8.822   0.356 -1.3568 -0.3449  0.1626
  694MOL0     C93570   9.462   8.748   0.371 -0.5132 -0.1148  1.0243
  694MOL0     C93571   9.343   8.845   0.356 -0.1700  0.5037  0.5898
  694MOL0     N93572   9.214   8.786   0.401 -0.8644  0.3466  0.9196
  694MOL0     C93573   9.200   8.661   0.446  0.3317 -0.3738 -0.3157
  694MOL0     C93574   9.070   8.655   0.488 -0.2829  0.7937 -1.0210
  694MOL0     C93575   9.000   8.535   0.538 -1.3434  0.1378 -0.5638
  694MOL0     C93576   9.079   8.484   0.654 -0.5438  0.2432 -0.0467
  694MOL0     C93577   9.010   8.376   0.734  0.1963 -0.5036  0.6537
  694MOL0     C93578   9.035   8.239   0.676 -0.3640  0.5763  0.2346
  694MOL0     O93579   8.973   8.213   0.545  0.4921 -0.7339 -0.3657
  694MOL0     C93580   8.835   8.195   0.535 -0.6106  0.2222  0.7707
  694MOL0     C93581   8.741   8.197   0.641 -0.3408 -0.2605  0.0508
  694MOL0     C93582   8.611   8.160   0.628 -0.3755  0.0869 -0.1480
  694MOL0     C93583   8.521   8.147   0.749  0.4467 -0.0143 -0.1247
  694MOL0     C93584   8.567   8.120   0.503 -0.1001 -1.0305  0.1292
  694MOL0     C93585   8.432   8.089   0.480 -0.1263 -0.7323 -0.4055
  694MOL0     O93586   8.336   8.171   0.540  0.1894  0.3518  0.0437
  694MOL0     C93587   8.209   8.139   0.518 -0.1129 -0.5008  0.5550
  694MOL0     C93588   8.148   8.023   0.568  0.2158 -0.6102  0.2018
  694MOL0     C93589   8.011   7.999   0.542  0.6427  0.6258 -0.0616
  694MOL0     C93590   7.936   8.092   0.467  0.4240  0.0868 -0.5464
  694MOL0     O93591   7.808   8.056   0.429  0.2789 -0.4811 -0.0626
  694MOL0     C93592   7.715   8.147   0.365  0.2986  0.3968  1.2216
  694MOL0     C93593   7.574   8.078   0.365  0.0555 -0.0577 -0.1089
  694MOL0     C93594   7.459   8.181   0.367  0.0265 -0.4682 -0.5098
  694MOL0     C93595   7.340   8.139   0.281  0.0671  0.0942 -0.0801
  694MOL0     C93596   7.241   8.049   0.349 -0.3399 -0.3946  0.0944
  694MOL0     C93597   7.168   8.128   0.465 -0.3152  0.5609 -0.9702
  694MOL0     C93598   7.106   8.264   0.428 -0.8118 -0.7358 -0.0347
  694MOL0     C93599   7.047   8.338   0.550 -0.0586  0.5059 -0.0798
  694MOL0    Cl93600   7.163   8.371   0.685 -0.2675 -0.5146  0.4230
  694MOL0     C93601   7.995   8.216   0.446  0.5965  0.1311 -0.3638
  694MOL0     C93602   8.131   8.236   0.471 -0.8294 -0.5779  0.4384
  694MOL0     O93603   8.410   8.011   0.387 -0.2636 -0.1541 -0.0178
  694MOL0     C93604   8.655   8.129   0.391  0.5655  0.2380 -0.5520
  694MOL0     C93605   8.788   8.162   0.411 -0.0183  0.2766  0.5342
  694MOL0     N93606   9.012   8.775   0.468  0.0739  0.1181  0.9759
  694MOL0     N93607   9.100   8.854   0.419 -0.2336 -0.0351 -0.7540
  694MOL0     C93608  10.504   8.686   0.344  0.0307  0.2330 -0.5909
  694MOL0     C93609  10.640   8.649   0.357  0.9880  0.3718  0.1855
  694MOL0     C93610  11.069   8.553   0.237 -0.5955 -0.0182  0.0495
  694MOL0     C93611  11.100   8.584   0.370  0.0390 -0.4633 -0.5816
  694MOL0     C93612  11.229   8.554   0.421 -0.7386 -0.2235 -0.1808
  694MOL0     C93613  11.324   8.494   0.342 -0.2001  0.3284 -0.0025
  694MOL0     O93614  11.459   8.485   0.369 -0.0939 -0.1864  0.3366
  694MOL0     C93615  11.494   8.503   0.506  0.3830 -0.1761  0.3758
  694MOL0     C93616  11.636   8.453   0.530 -0.9675 -0.6759 -0.0666
  694MOL0     C93617  11.669   8.307   0.494 -0.0033 -0.9344 -0.4971
  694MOL0     C93618  11.614   8.212   0.601 -0.3084  0.8314 -0.5864
  694MOL0     C93619  11.471   8.168   0.581 -0.1247 -0.7596 -1.0241
  694MOL0     C93620  11.359   8.121   0.576 -0.3451 -0.0792  0.1573
  694MOL0     C93621  11.288   8.465   0.213 -0.4000  0.1375  0.4583
  694MOL0     C93622  11.163   8.484   0.163 -0.4555  0.2148  0.1120
  694MOL0     H93623  10.728   8.729   0.039 -1.0820 -4.9910 -2.1802
  694MOL0     H93624  10.512   8.803   0.029  4.5148  1.2206 -1.6121
  694MOL0     H93625  10.199   8.617   0.267 -2.1528 -0.1815  1.2424
  694MOL0     H93626  10.245   8.743   0.392  4.2516 -1.5862  0.4018
  694MOL0     H93627  10.089   8.889   0.322  0.3861 -1.7839  2.7098
  694MOL0     H93628  10.087   8.834   0.151 -0.1965  0.3600  0.4520
  694MOL0     H93629   9.959   8.639   0.212 -0.3431  0.0292 -0.4374
  694MOL0     H93630   9.976   8.667   0.382 -0.6203 -0.8654 -0.1194
  694MOL0     H93631   9.854   8.897   0.350 -0.1200  0.7461 -0.9793
  694MOL0     H93632   9.835   8.859   0.188 -0.4128 -0.9892 -1.3217
  694MOL0     H93633   9.690   8.662   0.228  0.5955 -2.4926  1.3995
  694MOL0     H93634   9.724   8.667   0.402  0.4417 -0.5926 -0.2276
  694MOL0     H93635   9.626   8.881   0.443 -0.2260  0.5945 -0.8166
  694MOL0     H93636   9.579   8.900   0.281 -4.1987 -0.4718  0.6114
  694MOL0     H93637   9.453   8.674   0.291  1.4292  0.7917 -0.0927
  694MOL0     H93638   9.452   8.692   0.465 -2.5625  1.3786  1.7823
  694MOL0     H93639   9.337   8.874   0.251  1.3386 -0.6028  0.1563
  694MOL0     H93640   9.346   8.932   0.421  0.8440  0.6844  0.3075
  694MOL0     H93641   9.272   8.580   0.445 -0.2538 -0.9025 -1.4790
  694MOL0     H93642   8.904   8.564   0.582  0.4804  1.8496  2.6352
  694MOL0     H93643   9.000   8.458   0.460  1.1618  1.2130 -1.7316
  694MOL0     H93644   9.094   8.560   0.732  1.7910 -1.5641  1.4157
  694MOL0     H93645   9.182   8.457   0.628 -1.5597 -0.9780 -3.1844
  694MOL0     H93646   8.901   8.387   0.737 -0.3620 -3.9616 -1.5476
  694MOL0     H93647   9.049   8.374   0.836 -2.7678  0.4632  1.9140
  694MOL0     H93648   8.996   8.161   0.742  1.8695 -0.2702  0.6377
  694MOL0     H93649   9.140   8.211   0.665 -0.8165 -2.5792  2.4578
  694MOL0     H93650   8.780   8.220   0.740  1.2727  0.7449 -0.7661
  694MOL0     H93651   8.587   8.112   0.829  0.0997 -1.3902 -0.4037
  694MOL0     H93652   8.485   8.247   0.773  2.7719  0.3425  2.2460
  694MOL0     H93653   8.443   8.072   0.733  3.0001 -3.2818  1.3566
  694MOL0     H93654   8.201   7.940   0.613  0.1979 -0.6381  0.1718
  694MOL0     H93655   7.962   7.905   0.563 -1.5328  1.9573  1.2129
  694MOL0     H93656   7.713   8.246   0.411  3.3422  1.4988 -0.7000
  694MOL0     H93657   7.748   8.163   0.262 -0.5980  1.1377  1.0379
  694MOL0     H93658   7.557   8.016   0.277  0.5644  1.6870 -1.4792
  694MOL0     H93659   7.561   8.020   0.457  0.3236  2.5683  1.7014
  694MOL0     H93660   7.508   8.267   0.320  3.0660 -0.0373  2.9502
  694MOL0     H93661   7.439   8.213   0.470 -1.4263 -3.1652  0.1215
  694MOL0     H93662   7.279   8.219   0.240  0.6504  1.0592  0.8739
  694MOL0     H93663   7.388   8.091   0.195  1.7505 -0.8979  1.3350
  694MOL0     H93664   7.285   7.960   0.395 -1.0465 -0.5510  0.4927
  694MOL0     H93665   7.170   8.018   0.272 -0.7047  0.9092 -0.1103
  694MOL0     H93666   7.090   8.059   0.501  0.6728  0.3905  1.0010
  694MOL0     H93667   7.241   8.133   0.546  0.2895 -1.2959 -1.3493
  694MOL0     H93668   7.029   8.255   0.351 -0.8130 -1.6832  0.0692
  694MOL0     H93669   7.188   8.330   0.396 -0.5551 -1.3061 -0.5744
  694MOL0     H93670   6.958   8.284   0.584  1.0884 -0.9691  0.7525
  694MOL0     H93671   7.008   8.434   0.517  1.8352  1.3476 -0.0194
  694MOL0     H93672   7.933   8.287   0.393 -0.6359  0.3333  1.2819
  694MOL0     H93673   8.188   8.324   0.444  1.4680 -1.3607  2.3973
  694MOL0     H93674   8.616   8.116   0.291 -3.9772  1.5341  0.8176
  694MOL0     H93675   8.850   8.177   0.323 -0.7080  0.8129  0.1388
  694MOL0     H93676  10.429   8.677   0.423 -0.1029  2.1520 -0.4523
  694MOL0     H93677  10.677   8.610   0.452  2.7602  1.3047 -0.0722
  694MOL0     H93678  11.035   8.640   0.437 -0.3137  0.4055 -1.6007
  694MOL0     H93679  11.250   8.588   0.521 -1.6989  1.8419 -0.6314
  694MOL0     H93680  11.493   8.611   0.521  0.6842 -0.1853  0.4804
  694MOL0     H93681  11.427   8.455   0.578 -0.5669  2.0429  1.0507
  694MOL0     H93682  11.655   8.478   0.635 -0.3662 -1.8556  0.1189
  694MOL0     H93683  11.703   8.512   0.467  0.5021 -1.4783  0.6890
  694MOL0     H93684  11.775   8.284   0.477  0.5357  0.9312  0.1444
  694MOL0     H93685  11.620   8.283   0.399 -0.2616 -0.0171 -0.6005
  694MOL0     H93686  11.633   8.259   0.698 -1.7887  0.2203  0.0231
  694MOL0     H93687  11.672   8.120   0.611  0.6434  1.4854  0.2010
  694MOL0     H93688  11.258   8.086   0.575 -0.2172 -0.4711  0.4618
  694MOL0     H93689  11.363   8.420   0.148 -0.1197 -0.8455  1.4364
  694MOL0     H93690  11.146   8.453   0.060  1.6785 -0.8262  0.0416
  695MOL0     O93691   4.961   5.948   1.134  0.2063 -0.0277 -0.6036
  695MOL0     C93692   5.078   5.940   1.161 -1.5528  0.2514  0.1394
  695MOL0     O93693   5.135   5.963   1.281  0.4027 -0.1366  0.3607
  695MOL0     C93694   5.052   5.982   1.385 -0.1576  0.4243  0.2291
  695MOL0     C93695   4.942   5.899   1.413  0.0520 -0.1086 -1.0098
  695MOL0     C93696   4.856   5.924   1.523  0.4279 -0.7934  0.9285
  695MOL0     C93697   4.873   6.036   1.603 -0.2860 -0.6972 -0.4278
  695MOL0     O93698   4.784   6.070   1.706 -0.5418  0.7779 -0.1500
  695MOL0     C93699   4.729   5.962   1.783 -0.1168  0.5490 -0.2719
  695MOL0     C93700   4.665   6.004   1.921  0.0846  0.0651  0.1279
  695MOL0     C93701   4.772   6.081   2.004  0.4691  0.4918  0.2095
  695MOL0     C93702   4.724   6.093   2.149  0.5290 -0.3448 -0.3541
  695MOL0     C93703   4.809   6.190   2.226  0.0515 -0.0766  0.6614
  695MOL0     C93704   4.759   6.225   2.369  0.1720  0.6073 -0.1260
  695MOL0     C93705   4.615   6.249   2.390  0.6691  0.3725 -0.0438
  695MOL0     C93706   4.560   6.376   2.330  0.5389  0.1011  0.7070
  695MOL0     N93707   4.414   6.373   2.318 -0.2095 -0.4971 -0.0573
  695MOL0     C93708   4.328   6.372   2.420 -1.0475  0.1206 -0.5764
  695MOL0     C93709   4.209   6.371   2.370 -0.0904  0.1026  0.9445
  695MOL0     C93710   4.088   6.360   2.444  0.6572 -1.4249 -0.2683
  695MOL0     C93711   3.977   6.444   2.380 -0.0350  0.3537  0.0928
  695MOL0     C93712   3.838   6.441   2.448  0.1461 -0.3652  0.1233
  695MOL0     C93713   3.825   6.529   2.576  0.4454  0.9387  0.2764
  695MOL0     O93714   3.765   6.652   2.538 -0.5508 -0.6586  0.0752
  695MOL0     C93715   3.627   6.646   2.512  0.5582 -0.3245 -0.5166
  695MOL0     C93716   3.576   6.645   2.380  0.5891  0.4406 -0.2770
  695MOL0     C93717   3.447   6.627   2.364  0.2706 -0.1410  0.6010
  695MOL0     C93718   3.407   6.612   2.219 -0.6649 -0.1485  0.2478
  695MOL0     C93719   3.353   6.612   2.471 -0.6497 -0.4443 -0.2458
  695MOL0     C93720   3.204   6.595   2.440  0.4595  0.7006  0.1336
  695MOL0     O93721   3.132   6.571   2.552  0.1460 -0.1312 -1.0363
  695MOL0     C93722   2.999   6.526   2.547  0.5076  0.0187 -0.3320
  695MOL0     C93723   2.910   6.556   2.658 -0.5887  0.0143 -0.1291
  695MOL0     C93724   2.782   6.511   2.665 -0.1765 -0.0374 -0.3257
  695MOL0     C93725   2.726   6.446   2.553 -0.3385 -0.4363  0.3981
  695MOL0     O93726   2.596   6.417   2.562  0.2382 -0.8341  0.3494
  695MOL0     C93727   2.542   6.314   2.487 -0.0247  1.0765  0.3152
  695MOL0     C93728   2.424   6.259   2.572  0.1848 -0.1333 -0.2244
  695MOL0     C93729   2.345   6.143   2.509 -0.2279  0.6965  0.3492
  695MOL0     C93730   2.263   6.194   2.391  0.0878  0.2548  0.2252
  695MOL0     C93731   2.172   6.072   2.344  0.0129 -0.0936  0.3786
  695MOL0     C93732   2.028   6.096   2.387  0.1889  0.4782 -0.0253
  695MOL0     C93733   1.936   5.981   2.360 -0.6000  0.0464  0.2719
  695MOL0     C93734   1.910   5.960   2.206  0.2201  1.3381 -0.0193
  695MOL0    Cl93735   1.766   5.846   2.200 -0.1760 -0.2718 -0.0897
  695MOL0     C93736   2.808   6.418   2.440 -0.1993  1.7014  0.0824
  695MOL0     C93737   2.946   6.446   2.448 -0.6597 -0.2793 -0.0147
  695MOL0     O93738   3.156   6.607   2.326  0.0439  0.1069 -1.0956
  695MOL0     C93739   3.409   6.604   2.600  0.2465  0.7476  0.0189
  695MOL0     C93740   3.546   6.630   2.623  0.7956  0.1976 -0.7072
  695MOL0     N93741   4.230   6.369   2.231 -0.4830  0.0588  0.1799
  695MOL0     N93742   4.358   6.366   2.195  0.6788 -0.7402  0.4639
  695MOL0     C93743   4.985   6.116   1.580 -0.3555 -0.3738 -0.1078
  695MOL0     C93744   5.074   6.091   1.469 -0.0518  0.3035 -0.1137
  695MOL0     C93745   5.168   5.913   1.049 -0.3274 -0.5822  0.0752
  695MOL0     C93746   5.299   5.956   1.054 -0.1688  0.2256 -0.7379
  695MOL0     C93747   5.388   5.927   0.947 -0.2879  0.1266  0.0907
  695MOL0     C93748   5.337   5.859   0.837 -0.8687  0.6894  0.3504
  695MOL0     O93749   5.414   5.841   0.725  0.3147 -0.0138  0.5358
  695MOL0     C93750   5.557   5.827   0.735 -0.1786  0.0078  0.0449
  695MOL0     C93751   5.607   5.728   0.625  0.8314 -0.8814  0.3827
  695MOL0     C93752   5.561   5.579   0.648 -0.7934  0.1262  0.2395
  695MOL0     C93753   5.567   5.485   0.520  0.3620 -0.6036  0.1632
  695MOL0     C93754   5.478   5.541   0.415  0.6788  0.5111 -0.1518
  695MOL0     C93755   5.393   5.593   0.342  0.2361  0.5804  1.1529
  695MOL0     C93756   5.200   5.820   0.831 -0.5743 -0.2134 -0.4276
  695MOL0     C93757   5.117   5.854   0.933  0.4591 -0.3261 -0.9679
  695MOL0     H93758   4.918   5.817   1.347 -0.9991  0.5510 -1.4728
  695MOL0     H93759   4.769   5.864   1.548  1.6334 -1.7820  3.0680
  695MOL0     H93760   4.647   5.912   1.730  0.9843 -1.6960  0.0184
  695MOL0     H93761   4.821   5.908   1.806  1.4270  3.2551  0.2874
  695MOL0     H93762   4.577   6.067   1.907  0.8631  1.2995  0.6676
  695MOL0     H93763   4.639   5.914   1.977 -1.3481  1.9447  2.6698
  695MOL0     H93764   4.875   6.043   2.009  0.2010 -0.1306  1.3446
  695MOL0     H93765   4.781   6.181   1.962  3.2142  0.0773 -0.4068
  695MOL0     H93766   4.621   6.130   2.144 -0.0613 -2.0353 -1.7987
  695MOL0     H93767   4.710   5.998   2.203 -0.1118  0.9556  1.8942
  695MOL0     H93768   4.913   6.160   2.216  0.4771  1.4105  0.2467
  695MOL0     H93769   4.810   6.284   2.169  2.2389 -0.5855 -0.2109
  695MOL0     H93770   4.777   6.134   2.428 -1.5959 -1.1159 -2.0984
  695MOL0     H93771   4.821   6.307   2.407  1.9793 -0.6090 -0.2857
  695MOL0     H93772   4.555   6.168   2.346  1.4317 -0.5842  0.6238
  695MOL0     H93773   4.595   6.264   2.497  1.8699  0.3694  0.1909
  695MOL0     H93774   4.617   6.394   2.238 -0.1627 -1.0561  0.0179
  695MOL0     H93775   4.578   6.456   2.402  0.9272  2.1301 -1.5248
  695MOL0     H93776   4.359   6.367   2.525  0.4537  1.2984 -0.9178
  695MOL0     H93777   4.060   6.255   2.455  0.4995 -1.2874  0.7454
  695MOL0     H93778   4.105   6.400   2.544  1.1440  0.6311 -1.1375
  695MOL0     H93779   3.962   6.419   2.274 -3.0180  0.3860  0.4241
  695MOL0     H93780   4.010   6.548   2.388  3.3250 -0.5847  0.0982
  695MOL0     H93781   3.824   6.335   2.471 -1.1138 -0.8732 -2.6518
  695MOL0     H93782   3.757   6.457   2.377 -0.0085  2.3962  0.7936
  695MOL0     H93783   3.922   6.545   2.623  1.0529  0.4739 -0.7841
  695MOL0     H93784   3.752   6.473   2.635 -0.0841 -0.9720 -2.0455
  695MOL0     H93785   3.636   6.655   2.290  1.1989 -0.2492  0.0431
  695MOL0     H93786   3.339   6.694   2.195 -1.5131 -1.3393 -1.6280
  695MOL0     H93787   3.486   6.618   2.143 -1.6215 -2.0136 -0.9577
  695MOL0     H93788   3.353   6.520   2.196 -1.5647  0.5662 -0.5460
  695MOL0     H93789   2.951   6.615   2.739  0.2180 -0.1572 -0.4036
  695MOL0     H93790   2.716   6.528   2.750  1.6602 -2.1017  1.6666
  695MOL0     H93791   2.515   6.343   2.385  1.0728 -0.5868 -0.5017
  695MOL0     H93792   2.608   6.227   2.479 -2.2863 -0.6177 -1.7803
  695MOL0     H93793   2.467   6.217   2.663  0.2508 -2.0920 -1.1069
  695MOL0     H93794   2.355   6.341   2.593 -0.2550 -0.2175 -1.2651
  695MOL0     H93795   2.286   6.088   2.583 -0.0126 -1.0529 -0.7105
  695MOL0     H93796   2.405   6.059   2.474  0.6023  1.5297 -0.2660
  695MOL0     H93797   2.199   6.280   2.409  0.7704  1.0795 -1.1254
  695MOL0     H93798   2.331   6.223   2.311  2.4701 -3.3293  0.7160
  695MOL0     H93799   2.207   5.980   2.391 -3.7522 -1.4532  0.8781
  695MOL0     H93800   2.185   6.058   2.236  1.0580  0.9030  0.3446
  695MOL0     H93801   2.032   6.124   2.493  2.4267  0.5082 -0.0743
  695MOL0     H93802   2.002   6.185   2.329  1.1869 -0.1747 -1.5323
  695MOL0     H93803   1.839   5.992   2.410 -0.3513  0.9252  0.5756
  695MOL0     H93804   1.990   5.893   2.396  0.7599 -0.8092 -3.4383
  695MOL0     H93805   1.998   5.917   2.156 -0.5904  0.6226 -0.8725
  695MOL0     H93806   1.886   6.044   2.140 -0.7532  0.5589 -0.6865
  695MOL0     H93807   2.773   6.350   2.363 -0.9742 -1.1659  2.8026
  695MOL0     H93808   3.020   6.412   2.377  0.7064  2.5964 -0.1082
  695MOL0     H93809   3.349   6.597   2.691  0.9483  2.2258  0.6370
  695MOL0     H93810   3.585   6.643   2.723 -1.5642 -1.7868  0.5792
  695MOL0     H93811   5.011   6.195   1.651  1.4881 -0.9353 -0.1103
  695MOL0     H93812   5.166   6.146   1.452 -1.3057  2.2042 -1.1310
  695MOL0     H93813   5.330   6.007   1.144 -0.7072  1.6929 -1.3580
  695MOL0     H93814   5.489   5.963   0.964 -0.3976  0.2286  0.5470
  695MOL0     H93815   5.609   5.924   0.727  2.1979 -1.1501  0.3587
  695MOL0     H93816   5.575   5.786   0.835  0.2021  0.8689  0.3447
  695MOL0     H93817   5.716   5.737   0.631  0.8313 -1.3942  1.4811
  695MOL0     H93818   5.564   5.769   0.533 -1.1595  1.6748  2.3209
  695MOL0     H93819   5.457   5.583   0.682 -0.9874  0.7333 -0.3872
  695MOL0     H93820   5.631   5.536   0.719  1.2287  1.7252 -0.6794
  695MOL0     H93821   5.529   5.387   0.550  0.2373 -0.0184  2.0085
  695MOL0     H93822   5.672   5.468   0.493  0.9871 -0.2162  2.2102
  695MOL0     H93823   5.325   5.648   0.280  1.2619 -1.1351 -1.6679
  695MOL0     H93824   5.187   5.760   0.742  3.5877 -0.9736 -0.7297
  695MOL0     H93825   5.011   5.835   0.926 -0.5791  2.2671  3.6117
  696MOL0     O93826   3.567   0.903   5.481 -0.2234 -0.4420  0.1773
  696MOL0     C93827   3.582   0.944   5.599 -0.2041 -0.0641 -0.0797
  696MOL0     O93828   3.479   0.958   5.692 -0.1775 -0.4096  0.2350
  696MOL0     C93829   3.350   0.927   5.648  0.8700 -0.0721  0.5345
  696MOL0     C93830   3.270   0.830   5.714 -0.9299 -0.2820  0.1375
  696MOL0     C93831   3.133   0.813   5.684 -0.0161  0.4253  0.1740
  696MOL0     C93832   3.068   0.881   5.573 -1.3578 -0.4778 -0.1938
  696MOL0     O93833   2.931   0.876   5.548  0.0590 -0.6280  0.5771
  696MOL0     C93834   2.893   0.746   5.499 -0.1520 -0.3225  0.3018
  696MOL0     C93835   2.769   0.767   5.411  0.1098 -0.3056 -0.3237
  696MOL0     C93836   2.632   0.775   5.494 -0.8204 -0.1946  0.0825
  696MOL0     C93837   2.507   0.791   5.405 -0.1853  0.1587  0.2197
  696MOL0     C93838   2.386   0.793   5.495 -0.0856 -0.0891  0.5507
  696MOL0     C93839   2.253   0.778   5.428  0.4505 -0.3178 -0.0680
  696MOL0     C93840   2.203   0.646   5.374 -0.6520  0.2228  0.7625
  696MOL0     C93841   2.061   0.652   5.341  0.3927  0.4109  1.0050
  696MOL0     N93842   2.028   0.741   5.230 -0.3711  0.0216 -0.0833
  696MOL0     C93843   1.960   0.864   5.244 -0.1503 -0.3074 -0.1910
  696MOL0     C93844   1.946   0.903   5.118 -0.3538  0.5886  0.7690
  696MOL0     C93845   1.870   1.018   5.054 -0.1465  0.3968  0.3542
  696MOL0     C93846   1.730   0.980   5.004  0.2274 -0.3419 -0.2841
  696MOL0     C93847   1.636   0.953   5.131  0.3767  0.0327  0.3400
  696MOL0     C93848   1.504   0.900   5.088 -0.1398 -0.3756  0.9485
  696MOL0     O93849   1.428   0.885   5.206 -0.8197 -0.0923 -0.1761
  696MOL0     C93850   1.294   0.923   5.202 -0.2333  0.6894 -1.2238
  696MOL0     C93851   1.233   0.954   5.321  0.3010  0.1110  0.7925
  696MOL0     C93852   1.099   0.944   5.336 -0.7087 -0.8210  0.0587
  696MOL0     C93853   1.045   0.974   5.478  0.6037 -0.4076  0.2757
  696MOL0     C93854   1.012   0.931   5.222 -0.2399 -0.5672 -0.3194
  696MOL0     C93855   0.865   0.922   5.220 -0.2968  0.5544  0.1435
  696MOL0     O93856   0.807   0.939   5.091 -0.0399 -0.1292  0.6248
  696MOL0     C93857   0.672   0.924   5.094  0.6974 -1.1268  0.3849
  696MOL0     C93858   0.618   0.805   5.083  0.2701  0.4709  0.1932
  696MOL0     C93859   0.480   0.786   5.066 -0.6628 -0.6866  0.5170
  696MOL0     C93860   0.391   0.888   5.077  0.5570 -0.0449  0.2875
  696MOL0     O93861   0.253   0.878   5.075 -0.1558  0.1160 -0.0980
  696MOL0     C93862   0.202   0.743   5.068  0.2659  0.0287 -0.9414
  696MOL0     C93863   0.053   0.759   5.056 -0.4178 -0.3338  0.0908
  696MOL0     C93864  -0.024   0.628   5.050 -0.9851  0.5968  0.7818
  696MOL0     C93865  -0.171   0.654   5.010  0.2712  0.5352  0.1504
  696MOL0     C93866  -0.237   0.517   4.981 -0.3972  0.0971 -0.3252
  696MOL0     C93867  -0.396   0.523   5.005 -0.1094  0.3499 -0.6743
  696MOL0     C93868  -0.450   0.400   4.929 -0.6013  0.2224 -1.1122
  696MOL0     C93869  -0.601   0.408   4.921 -0.2126 -0.1265  0.0420
  696MOL0    Cl93870  -0.650   0.287   4.810  0.0043 -0.5060 -0.2808
  696MOL0     C93871   0.447   1.017   5.100 -0.5029  0.3954 -1.1080
  696MOL0     C93872   0.588   1.037   5.097 -0.2805 -0.0858 -0.4596
  696MOL0     O93873   0.806   0.883   5.318 -0.4254 -0.6922 -0.0396
  696MOL0     C93874   1.077   0.917   5.098  0.3908 -0.5634  0.3257
  696MOL0     C93875   1.217   0.908   5.088  0.0350  0.5834  0.2900
  696MOL0     N93876   2.011   0.812   5.036  0.7514  0.0104  0.1052
  696MOL0     N93877   2.058   0.713   5.104  0.0113 -0.6813  0.0146
  696MOL0     C93878   3.153   0.969   5.501  0.2337  0.2420 -0.0859
  696MOL0     C93879   3.287   0.997   5.533 -0.5867 -0.1378  0.2839
  696MOL0     C93880   3.715   0.979   5.630 -0.7078  0.5956 -0.7094
  696MOL0     C93881   3.824   0.942   5.542  0.1365 -0.1637  0.3488
  696MOL0     C93882   3.959   0.971   5.583  0.9479  0.4969  0.1673
  696MOL0     C93883   3.982   1.045   5.693 -0.4035  0.1503 -0.1807
  696MOL0     O93884   4.114   1.085   5.714 -0.3445  0.1049  0.2388
  696MOL0     C93885   4.139   1.157   5.834 -0.0294  0.5243  0.5201
  696MOL0     C93886   4.288   1.198   5.846 -0.0355  0.4487  0.3977
  696MOL0     C93887   4.380   1.079   5.811  0.2468  0.5070 -0.1908
  696MOL0     C93888   4.526   1.091   5.839  0.2311  0.1788 -0.3642
  696MOL0     C93889   4.548   1.121   5.984 -0.4831 -0.0605 -0.0335
  696MOL0     C93890   4.546   1.156   6.097 -1.5852  1.2001 -0.5047
  696MOL0     C93891   3.872   1.063   5.787 -0.1110 -0.5975 -0.6454
  696MOL0     C93892   3.743   1.026   5.756  0.8029 -0.2875  0.0430
  696MOL0     H93893   3.305   0.796   5.811  0.2121 -1.8598 -0.7958
  696MOL0     H93894   3.083   0.743   5.750  0.8449 -0.0637  0.3304
  696MOL0     H93895   2.970   0.692   5.443  0.2607 -2.2241  2.5473
  696MOL0     H93896   2.871   0.681   5.584  0.2141  0.5228  1.0624
  696MOL0     H93897   2.782   0.860   5.356  2.0132 -0.0244  0.5293
  696MOL0     H93898   2.756   0.684   5.340 -0.5302 -0.7129  0.2605
  696MOL0     H93899   2.628   0.687   5.558 -3.3700 -0.9655 -1.0056
  696MOL0     H93900   2.629   0.859   5.563 -1.2910  0.1491 -0.3499
  696MOL0     H93901   2.505   0.876   5.337  1.2622  0.3346  0.3694
  696MOL0     H93902   2.509   0.705   5.338  2.9850 -0.4930  1.0080
  696MOL0     H93903   2.398   0.713   5.569  1.9135  1.0047  1.4919
  696MOL0     H93904   2.392   0.893   5.539 -1.2788 -0.2180  1.0535
  696MOL0     H93905   2.177   0.819   5.495  0.6329 -1.0288  0.6032
  696MOL0     H93906   2.254   0.849   5.345 -0.4827  1.0704  1.0578
  696MOL0     H93907   2.266   0.625   5.287 -2.0313 -2.6597  0.3396
  696MOL0     H93908   2.212   0.565   5.447 -3.1644 -3.2056 -2.3632
  696MOL0     H93909   1.991   0.653   5.425  0.9121  0.4608  1.4509
  696MOL0     H93910   2.034   0.553   5.306  0.3101  1.3323 -1.7420
  696MOL0     H93911   1.922   0.910   5.334  2.2200  0.1560  0.6439
  696MOL0     H93912   1.866   1.098   5.129  1.1684 -0.5541  1.5068
  696MOL0     H93913   1.913   1.066   4.966  0.6224  0.5119  0.7769
  696MOL0     H93914   1.730   0.887   4.948 -1.0952 -0.5857  0.0890
  696MOL0     H93915   1.687   1.061   4.945  1.7515  2.1697  1.8168
  696MOL0     H93916   1.627   1.054   5.173  1.1485 -0.2264  1.1419
  696MOL0     H93917   1.683   0.887   5.204  0.1443 -0.4966  0.0222
  696MOL0     H93918   1.513   0.804   5.037 -1.5041 -0.7097  1.2879
  696MOL0     H93919   1.459   0.970   5.016 -0.3208 -1.8975 -0.4632
  696MOL0     H93920   1.291   0.968   5.412  0.0833  1.0135  0.8017
  696MOL0     H93921   1.118   0.995   5.557  0.0497 -0.3126  0.7708
  696MOL0     H93922   0.987   1.066   5.470 -0.2907 -0.9245  0.7358
  696MOL0     H93923   0.990   0.895   5.530  1.4334 -0.1340  1.6080
  696MOL0     H93924   0.689   0.723   5.082 -0.8453 -0.5625 -1.7908
  696MOL0     H93925   0.453   0.682   5.049 -0.9132 -1.4060  4.3973
  696MOL0     H93926   0.244   0.695   4.978  0.3037  2.9935 -2.6292
  696MOL0     H93927   0.225   0.691   5.161 -1.5357  1.4096  0.3316
  696MOL0     H93928   0.007   0.818   5.136 -1.5966 -0.9922 -0.0810
  696MOL0     H93929   0.034   0.804   4.958 -4.6189  0.0681  0.9027
  696MOL0     H93930  -0.023   0.585   5.150 -4.0742  0.1613  0.7032
  696MOL0     H93931   0.032   0.575   4.972 -1.0727  4.4188 -2.2159
  696MOL0     H93932  -0.225   0.700   5.093 -2.3888 -4.6275  1.6853
  696MOL0     H93933  -0.178   0.710   4.916  0.6926  2.0816  1.0045
  696MOL0     H93934  -0.193   0.444   5.049 -2.8546  1.2384  2.7150
  696MOL0     H93935  -0.218   0.477   4.881  1.7485 -0.2480  0.1801
  696MOL0     H93936  -0.433   0.512   5.107 -0.7658 -3.7800 -1.1852
  696MOL0     H93937  -0.434   0.620   4.972  0.8647  0.7587 -0.6492
  696MOL0     H93938  -0.420   0.308   4.979 -4.9204 -0.8409 -0.0710
  696MOL0     H93939  -0.414   0.418   4.827  1.8747  0.7942 -0.2077
  696MOL0     H93940  -0.630   0.500   4.869  0.9458 -0.8596 -2.0003
  696MOL0     H93941  -0.650   0.406   5.019  0.9864  2.2824  0.7983
  696MOL0     H93942   0.379   1.102   5.100 -4.3940 -2.4143  0.3865
  696MOL0     H93943   0.633   1.136   5.103 -1.6233  0.5541 -0.4280
  696MOL0     H93944   1.023   0.892   5.008 -2.8266 -0.2935  2.0346
  696MOL0     H93945   1.262   0.880   4.994  0.1052  2.2716 -0.2048
  696MOL0     H93946   3.094   1.010   5.420 -2.2617 -3.5897 -0.5117
  696MOL0     H93947   3.347   1.072   5.482 -0.6399 -0.4479 -0.2484
  696MOL0     H93948   3.801   0.904   5.443  0.1556 -2.4990  1.1841
  696MOL0     H93949   4.047   0.964   5.520  0.5864  2.4634 -0.6391
  696MOL0     H93950   4.088   1.254   5.835  0.6286  0.8792  0.1394
  696MOL0     H93951   4.109   1.091   5.916 -0.2137 -0.1657 -0.0894
  696MOL0     H93952   4.299   1.220   5.953  2.1478 -0.4164  0.4061
  696MOL0     H93953   4.306   1.289   5.788 -0.0409  0.8805  1.0644
  696MOL0     H93954   4.372   1.071   5.702  0.1702 -0.9505 -0.1065
  696MOL0     H93955   4.340   0.985   5.852 -1.0845  1.3063  0.4143
  696MOL0     H93956   4.581   1.166   5.782 -0.2279  0.2209 -0.7599
  696MOL0     H93957   4.565   0.992   5.814 -0.1519  0.4284 -2.0919
  696MOL0     H93958   4.543   1.173   6.203 -0.1225 -0.8386 -0.0786
  696MOL0     H93959   3.886   1.107   5.885 -1.4434  2.0788 -1.5573
  696MOL0     H93960   3.669   1.056   5.830  5.1036  1.5457  4.1425
  697MOL0     O93961   0.473   8.652   7.492 -0.5124  0.2403  0.0881
  697MOL0     C93962   0.534   8.666   7.388 -0.1162 -0.6072 -0.6292
  697MOL0     O93963   0.531   8.786   7.312  0.4233  0.6429 -0.8334
  697MOL0     C93964   0.453   8.883   7.370  0.2420  0.0642  0.1752
  697MOL0     C93965   0.316   8.901   7.340 -0.6787 -0.0983  0.2328
  697MOL0     C93966   0.242   8.995   7.402  0.6119  0.3577 -0.0102
  697MOL0     C93967   0.294   9.054   7.512  0.3658 -0.1575  0.1379
  697MOL0     O93968   0.202   9.120   7.590 -0.1051 -0.3183  0.4384
  697MOL0     C93969   0.230   9.176   7.723  0.2674 -0.5443  0.1595
  697MOL0     C93970   0.093   9.206   7.789 -0.3908 -0.0219  0.0436
  697MOL0     C93971   0.006   9.309   7.716  0.0079  0.7032  1.0670
  697MOL0     C93972  -0.121   9.330   7.796  1.2973 -0.3295 -0.4213
  697MOL0     C93973  -0.241   9.362   7.700 -0.0621 -0.2687  0.4489
  697MOL0     C93974  -0.364   9.392   7.800 -0.4752 -0.7343  0.0382
  697MOL0     C93975  -0.486   9.440   7.727  0.7524 -1.1772 -0.7528
  697MOL0     C93976  -0.564   9.316   7.672 -0.6559 -0.2356 -0.3764
  697MOL0     N93977  -0.679   9.366   7.603  0.9026 -0.3440 -0.3147
  697MOL0     C93978  -0.667   9.425   7.482 -0.4526 -0.0391  0.6164
  697MOL0     C93979  -0.797   9.468   7.450  0.3631 -0.0862 -0.1398
  697MOL0     C93980  -0.835   9.524   7.317  0.1380 -1.0729 -0.7878
  697MOL0     C93981  -0.928   9.425   7.246 -0.7477  0.0508 -0.6221
  697MOL0     C93982  -0.984   9.489   7.123  0.2760 -0.4145 -0.9843
  697MOL0     C93983  -1.102   9.411   7.058  0.5216  0.0796  0.0766
  697MOL0     O93984  -1.054   9.270   7.043 -0.2957  0.1945  0.9720
  697MOL0     C93985  -1.155   9.177   7.025  0.7026  0.2817 -0.2949
  697MOL0     C93986  -1.121   9.044   6.999 -0.4418  0.1709  0.7377
  697MOL0     C93987  -1.216   8.938   6.993 -0.4113  0.4718 -0.3369
  697MOL0     C93988  -1.167   8.798   6.958 -0.2851 -0.4298 -0.1779
  697MOL0     C93989  -1.355   8.970   6.986  0.2295 -0.3619 -0.2956
  697MOL0     C93990  -1.466   8.878   6.958  0.3319 -0.9820 -0.1351
  697MOL0     O93991  -1.448   8.769   6.879  0.4475 -0.1834  0.8328
  697MOL0     C93992  -1.554   8.684   6.864 -0.3003 -0.2353  0.1498
  697MOL0     C93993  -1.567   8.581   6.952 -0.5696 -0.5143 -0.2451
  697MOL0     C93994  -1.681   8.502   6.951  0.9024  0.2995  0.5152
  697MOL0     C93995  -1.783   8.510   6.852  0.1928 -0.3669 -0.1336
  697MOL0     O93996  -1.896   8.437   6.882 -0.2023  0.8250  0.5366
  697MOL0     C93997  -2.005   8.465   6.789  0.4868 -1.2978 -0.5212
  697MOL0     C93998  -2.125   8.377   6.820  0.1327 -0.0793 -0.4894
  697MOL0     C93999  -2.262   8.418   6.755  0.1120 -0.3201  0.5884
  697MOL0     C94000  -2.389   8.350   6.793 -0.1592  0.0936 -0.1984
  697MOL0     C94001  -2.419   8.395   6.932 -0.4564  0.1885  0.0212
  697MOL0     C94002  -2.560   8.341   6.967 -0.8113 -0.1080 -0.4360
  697MOL0     C94003  -2.618   8.406   7.087 -0.9936  0.8787 -0.5013
  697MOL0     C94004  -2.776   8.406   7.088 -0.7073 -0.1890  0.6762
  697MOL0    Cl94005  -2.838   8.241   7.069 -0.0846  0.3115  0.3743
  697MOL0     C94006  -1.764   8.610   6.756 -0.4456 -0.1651  0.2066
  697MOL0     C94007  -1.649   8.695   6.763  0.9250 -0.1293 -1.4738
  697MOL0     O94008  -1.574   8.915   7.014 -1.1891 -0.3044  0.2845
  697MOL0     C94009  -1.385   9.111   7.000 -1.4278 -0.8435  0.5644
  697MOL0     C94010  -1.288   9.207   7.032  0.9550 -0.2504 -0.6014
  697MOL0     N94011  -0.884   9.430   7.557 -0.5221 -0.5590 -0.1441
  697MOL0     N94012  -0.805   9.377   7.652  0.3413 -0.2906 -0.2761
  697MOL0     C94013   0.430   9.036   7.556  0.4380 -0.1204 -0.2811
  697MOL0     C94014   0.507   8.957   7.475  0.3264  0.5655  0.0078
  697MOL0     C94015   0.616   8.558   7.337  0.6628 -0.2164 -0.1984
  697MOL0     C94016   0.607   8.426   7.380 -0.5107 -0.1993 -0.6428
  697MOL0     C94017   0.678   8.327   7.321 -0.5526  0.3924 -0.3525
  697MOL0     C94018   0.769   8.356   7.217 -0.0854  0.5205 -0.1842
  697MOL0     O94019   0.855   8.267   7.165  0.5159 -0.3572  0.3422
  697MOL0     C94020   0.878   8.136   7.215 -0.4776 -0.0266  0.2332
  697MOL0     C94021   0.979   8.142   7.334 -1.3248 -0.6319  0.5246
  697MOL0     C94022   1.116   8.194   7.290  0.5428  0.4074  0.4042
  697MOL0     C94023   1.232   8.175   7.392  0.5494 -0.5016  0.1767
  697MOL0     C94024   1.357   8.231   7.337 -0.6248 -0.1534  0.5177
  697MOL0     C94025   1.449   8.309   7.305  0.2893 -0.0995  0.5619
  697MOL0     C94026   0.776   8.484   7.170  0.1543 -0.2940 -0.3786
  697MOL0     C94027   0.695   8.586   7.226 -0.0065  0.3840 -0.5493
  697MOL0     H94028   0.269   8.836   7.267 -1.6915 -0.5270  1.2345
  697MOL0     H94029   0.141   9.023   7.373  1.2154  1.0540 -1.5957
  697MOL0     H94030   0.288   9.113   7.791 -0.0123 -1.3103 -0.2901
  697MOL0     H94031   0.280   9.273   7.720  0.7495 -0.5719  3.5414
  697MOL0     H94032   0.044   9.109   7.806  2.5596 -1.3050  1.9634
  697MOL0     H94033   0.116   9.250   7.886  0.2632  0.7485 -0.4498
  697MOL0     H94034   0.054   9.405   7.698  0.3282  0.6693  1.6884
  697MOL0     H94035  -0.015   9.268   7.617  0.9094  4.3304 -0.8154
  697MOL0     H94036  -0.159   9.250   7.860 -0.5562  0.4698 -0.4535
  697MOL0     H94037  -0.100   9.413   7.863 -0.2251  1.1307 -1.6595
  697MOL0     H94038  -0.225   9.438   7.623 -3.1378 -0.3142 -0.3424
  697MOL0     H94039  -0.262   9.274   7.638  2.7455 -0.9473  0.3383
  697MOL0     H94040  -0.402   9.304   7.852  0.9000 -1.2452  0.2337
  697MOL0     H94041  -0.328   9.468   7.870  3.0496 -1.0243 -1.2613
  697MOL0     H94042  -0.550   9.504   7.788  0.5531 -1.8659 -0.2287
  697MOL0     H94043  -0.446   9.499   7.644 -0.5380  0.7098 -0.0806
  697MOL0     H94044  -0.596   9.245   7.748 -1.1801  0.0062 -0.3652
  697MOL0     H94045  -0.499   9.261   7.604  1.0411  0.8993  0.2323
  697MOL0     H94046  -0.575   9.448   7.429 -1.4393 -0.3619 -1.3348
  697MOL0     H94047  -0.888   9.618   7.336 -0.4271 -1.7616  1.3996
  697MOL0     H94048  -0.745   9.541   7.257 -1.3300  0.6859 -2.6295
  697MOL0     H94049  -1.011   9.389   7.307 -2.5278  1.7577 -1.9203
  697MOL0     H94050  -0.871   9.337   7.213  1.3825  0.7278  1.0097
  697MOL0     H94051  -0.903   9.513   7.054  0.1562 -1.3366 -1.4569
  697MOL0     H94052  -1.027   9.587   7.143  1.0524 -0.1826 -0.4144
  697MOL0     H94053  -1.119   9.446   6.955  1.0127  1.2017  0.3742
  697MOL0     H94054  -1.187   9.428   7.124  0.7912  1.8589  0.0083
  697MOL0     H94055  -1.014   9.023   6.996 -0.3621  0.2177  2.3376
  697MOL0     H94056  -1.243   8.720   6.971 -2.3488  1.2085 -1.8050
  697MOL0     H94057  -1.129   8.805   6.855 -0.7226 -0.6524 -0.3532
  697MOL0     H94058  -1.073   8.773   7.009  0.5008 -1.2418 -1.9459
  697MOL0     H94059  -1.492   8.577   7.030 -3.3302 -1.9820  2.5435
  697MOL0     H94060  -1.695   8.423   7.025 -2.0048 -0.9159 -1.1610
  697MOL0     H94061  -2.033   8.569   6.808  1.1150 -0.8796 -1.7302
  697MOL0     H94062  -1.981   8.459   6.682 -0.2166  1.2977 -0.8953
  697MOL0     H94063  -2.106   8.276   6.785  0.9779  1.4345 -5.0437
  697MOL0     H94064  -2.144   8.371   6.928  0.9989 -1.9588 -0.3999
  697MOL0     H94065  -2.245   8.397   6.649  0.8895  1.5352  0.3081
  697MOL0     H94066  -2.287   8.525   6.754  2.0718  0.2037 -1.2894
  697MOL0     H94067  -2.474   8.380   6.731  0.5863 -0.6544 -1.6314
  697MOL0     H94068  -2.371   8.242   6.794 -1.2582 -0.1031 -0.1583
  697MOL0     H94069  -2.423   8.503   6.950  0.0550  0.0458  1.0910
  697MOL0     H94070  -2.345   8.346   6.997  0.9873  2.9739  0.6445
  697MOL0     H94071  -2.634   8.363   6.890 -2.4690 -0.6281  0.9586
  697MOL0     H94072  -2.553   8.234   6.986  5.6738 -0.1010 -0.6960
  697MOL0     H94073  -2.581   8.508   7.086  2.1195 -0.0487 -4.3567
  697MOL0     H94074  -2.575   8.359   7.176  0.5301  2.5356 -0.3111
  697MOL0     H94075  -2.804   8.459   6.996  4.7847 -2.5305 -2.9102
  697MOL0     H94076  -2.816   8.461   7.173  1.1489  1.8219  0.3592
  697MOL0     H94077  -1.826   8.632   6.669 -1.1310  0.8007  0.9191
  697MOL0     H94078  -1.640   8.786   6.704  0.4306  0.8417 -0.1034
  697MOL0     H94079  -1.485   9.152   7.010 -1.0698  1.2487 -2.6588
  697MOL0     H94080  -1.328   9.305   7.057  0.7349  0.6656 -3.9560
  697MOL0     H94081   0.463   9.093   7.642 -2.6085  0.9441  0.3242
  697MOL0     H94082   0.611   8.942   7.501 -0.3407 -1.1970  1.9352
  697MOL0     H94083   0.545   8.403   7.466  1.3734  2.0408  1.4897
  697MOL0     H94084   0.660   8.230   7.365  0.0601  0.0348 -0.8824
  697MOL0     H94085   0.785   8.093   7.251  0.9316 -0.0738  4.3338
  697MOL0     H94086   0.912   8.068   7.136 -1.9539  0.4474 -0.8513
  697MOL0     H94087   0.988   8.045   7.383  1.2013 -0.8546 -0.2453
  697MOL0     H94088   0.943   8.216   7.406  1.1624  2.6891 -1.3248
  697MOL0     H94089   1.112   8.301   7.265  0.0573  0.4336  0.5844
  697MOL0     H94090   1.152   8.141   7.202  0.4565  0.5365  0.2909
  697MOL0     H94091   1.243   8.069   7.414  0.3595  0.0914  3.6019
  697MOL0     H94092   1.203   8.230   7.482  1.7001  0.3421  0.0649
  697MOL0     H94093   1.541   8.358   7.280 -0.7333  1.0097 -1.2235
  697MOL0     H94094   0.848   8.501   7.091  0.7492 -0.1399  0.1853
  697MOL0     H94095   0.692   8.683   7.178 -3.3436 -1.1632 -3.9886
  698MOL0     O94096   1.476   8.861   6.215  0.2625  0.9599 -0.6790
  698MOL0     C94097   1.504   8.970   6.266 -1.2224  0.0454 -0.0660
  698MOL0     O94098   1.458   9.084   6.232 -0.2868 -0.1652 -0.1993
  698MOL0     C94099   1.348   9.090   6.148 -0.0289  0.3930 -0.5955
  698MOL0     C94100   1.340   9.193   6.056 -0.3922  0.0230  0.7342
  698MOL0     C94101   1.235   9.196   5.963 -1.1953 -0.2401 -0.0657
  698MOL0     C94102   1.138   9.099   5.958 -0.5407  0.1544 -0.2965
  698MOL0     O94103   1.048   9.114   5.860  0.9006 -0.2417 -0.2023
  698MOL0     C94104   0.941   9.017   5.845 -0.5765 -0.0600 -0.3946
  698MOL0     C94105   0.860   9.051   5.716 -0.5490  0.6794 -0.7828
  698MOL0     C94106   0.763   9.168   5.727  0.6322 -0.2110 -0.1977
  698MOL0     C94107   0.667   9.169   5.603 -0.0273 -0.2541  0.1877
  698MOL0     C94108   0.581   9.300   5.617 -0.1997  0.1591  0.7290
  698MOL0     C94109   0.473   9.337   5.511  0.1958 -0.7907  0.3980
  698MOL0     C94110   0.377   9.447   5.556  0.5867 -0.0621 -0.0319
  698MOL0     C94111   0.284   9.484   5.433  0.1914 -0.3259  0.3378
  698MOL0     N94112   0.189   9.589   5.466  0.4795  0.8071  0.3980
  698MOL0     C94113   0.209   9.718   5.441  1.3062  0.0948  0.0382
  698MOL0     C94114   0.094   9.787   5.457  0.4771 -0.6228 -0.4262
  698MOL0     C94115   0.051   9.935   5.430 -0.2254 -0.3085 -0.3413
  698MOL0     C94116  -0.100   9.961   5.417  0.2571 -0.5018 -0.1034
  698MOL0     C94117  -0.161   9.881   5.301 -0.3822 -0.2677 -0.1383
  698MOL0     C94118  -0.308   9.906   5.291 -0.1141 -0.4820  0.0292
  698MOL0     O94119  -0.338  10.051   5.297  0.3738  0.5676  0.6239
  698MOL0     C94120  -0.462  10.100   5.334 -0.4603  0.5792  0.3765
  698MOL0     C94121  -0.573  10.014   5.347 -0.5333 -1.0155 -0.6789
  698MOL0     C94122  -0.702  10.063   5.376 -0.5828 -1.0231 -0.0945
  698MOL0     C94123  -0.802   9.959   5.368 -1.1638  0.3466  0.4853
  698MOL0     C94124  -0.721  10.204   5.408 -0.0597 -0.0416 -0.1391
  698MOL0     C94125  -0.853  10.266   5.446 -0.3696  0.7373 -0.1338
  698MOL0     O94126  -0.972  10.193   5.440  1.0629  0.3525  0.7644
  698MOL0     C94127  -1.097  10.258   5.447 -0.4409  0.7690 -0.6633
  698MOL0     C94128  -1.203  10.178   5.392  0.6516  0.2207 -0.1106
  698MOL0     C94129  -1.337  10.216   5.396 -0.3382 -0.3960 -0.0552
  698MOL0     C94130  -1.366  10.343   5.448  0.1230  0.4740 -0.7892
  698MOL0     O94131  -1.493  10.391   5.476 -0.1294  0.6359 -0.4508
  698MOL0     C94132  -1.594  10.326   5.399 -0.3765  0.5495 -0.9632
  698MOL0     C94133  -1.713  10.419   5.410 -0.1972  0.6128  0.5590
  698MOL0     C94134  -1.826  10.375   5.318  0.1503 -0.0011  0.3456
  698MOL0     C94135  -1.943  10.474   5.327  0.1495  0.6988  0.6136
  698MOL0     C94136  -2.060  10.459   5.236  0.0565  0.1579  0.0363
  698MOL0     C94137  -2.171  10.566   5.259 -0.8523  0.2176 -0.5291
  698MOL0     C94138  -2.288  10.542   5.161  0.0259  0.6428 -0.1813
  698MOL0     C94139  -2.403  10.638   5.184  0.4130 -0.1442 -0.8745
  698MOL0    Cl94140  -2.557  10.559   5.125  0.2577 -0.1099  0.0263
  698MOL0     C94141  -1.271  10.416   5.513  0.2815 -0.9537  0.0340
  698MOL0     C94142  -1.135  10.376   5.511  0.7641 -0.6649  0.3941
  698MOL0     O94143  -0.847  10.386   5.476 -0.1483  0.0786  0.1109
  698MOL0     C94144  -0.603  10.285   5.398  0.3575  0.4572  0.2938
  698MOL0     C94145  -0.477  10.236   5.367  0.2553 -0.1414  0.3256
  698MOL0     N94146   0.007   9.691   5.515 -0.5670  0.0237 -0.5351
  698MOL0     N94147   0.060   9.570   5.516 -0.1365 -0.6424 -0.8323
  698MOL0     C94148   1.134   9.000   6.063 -0.1009 -0.7763  0.2667
  698MOL0     C94149   1.239   9.001   6.161  0.0029  0.0243  0.3978
  698MOL0     C94150   1.606   8.968   6.371  0.0021 -0.1177 -0.4709
  698MOL0     C94151   1.671   9.090   6.398 -0.9727  0.4276  0.2427
  698MOL0     C94152   1.757   9.099   6.504  0.3493  0.3628 -0.3345
  698MOL0     C94153   1.782   8.986   6.594  0.3316 -0.1634 -1.0133
  698MOL0     O94154   1.862   8.989   6.711 -0.3388 -0.4727  0.3889
  698MOL0     C94155   1.930   9.114   6.746 -0.1298 -0.1924  0.7958
  698MOL0     C94156   2.064   9.106   6.676 -0.3018  0.3093  0.4572
  698MOL0     C94157   2.134   9.231   6.713 -0.6650  0.2394  0.3133
  698MOL0     C94158   2.275   9.224   6.658 -0.3167 -0.4467 -0.0633
  698MOL0     C94159   2.361   9.125   6.717 -0.3445 -0.5284 -0.3287
  698MOL0     C94160   2.439   9.039   6.747 -0.7495 -0.5326 -0.2337
  698MOL0     C94161   1.719   8.865   6.554  1.0819  0.4851 -0.7784
  698MOL0     C94162   1.627   8.852   6.451 -0.7265 -0.5229 -0.0277
  698MOL0     H94163   1.416   9.270   6.048 -2.0199  1.4438 -3.1249
  698MOL0     H94164   1.227   9.285   5.902 -3.1926  0.1397  0.6777
  698MOL0     H94165   0.985   8.916   5.845  0.7045  0.4723  0.3019
  698MOL0     H94166   0.882   9.029   5.936 -0.9536  2.8948 -0.9231
  698MOL0     H94167   0.924   9.064   5.628  0.7707 -1.0337 -0.1331
  698MOL0     H94168   0.808   8.960   5.687  2.5304 -1.1903 -0.9476
  698MOL0     H94169   0.700   9.148   5.815  1.8543 -1.3808  0.4425
  698MOL0     H94170   0.822   9.259   5.743  1.4915 -0.7672 -0.1439
  698MOL0     H94171   0.717   9.172   5.505  0.2009 -0.0799  0.3087
  698MOL0     H94172   0.613   9.074   5.592  1.0791 -0.9317  0.4735
  698MOL0     H94173   0.530   9.292   5.713 -0.0761 -0.0364  0.7786
  698MOL0     H94174   0.653   9.382   5.633 -0.3143 -0.2036  3.6667
  698MOL0     H94175   0.524   9.356   5.416  0.4886  0.0988  0.7201
  698MOL0     H94176   0.414   9.246   5.496  1.5872 -1.4234 -1.5992
  698MOL0     H94177   0.319   9.406   5.640  0.1698  1.3938  0.4318
  698MOL0     H94178   0.427   9.540   5.586 -1.4754  0.8952  0.6634
  698MOL0     H94179   0.232   9.393   5.401  1.8800 -0.8015 -1.2649
  698MOL0     H94180   0.333   9.524   5.344 -0.5651  0.1612  0.1323
  698MOL0     H94181   0.300   9.767   5.409  0.7259  1.0386 -0.2302
  698MOL0     H94182   0.101  10.003   5.500  0.0625 -0.3917 -0.4647
  698MOL0     H94183   0.095   9.965   5.335  1.8610 -0.2068  0.6082
  698MOL0     H94184  -0.123  10.067   5.413 -0.0545 -0.6113 -1.8936
  698MOL0     H94185  -0.149   9.922   5.508 -1.0290 -0.8550 -0.9212
  698MOL0     H94186  -0.139   9.776   5.319 -0.6036 -0.3935 -0.5794
  698MOL0     H94187  -0.110   9.911   5.209 -1.2122 -0.2790 -0.6077
  698MOL0     H94188  -0.363   9.857   5.372  1.0576 -0.6933  0.7152
  698MOL0     H94189  -0.347   9.868   5.197 -0.5099 -0.2584  0.0992
  698MOL0     H94190  -0.557   9.911   5.314 -0.9021 -1.6728  1.0685
  698MOL0     H94191  -0.852   9.950   5.465  1.8282 -2.5028  1.9780
  698MOL0     H94192  -0.881   9.981   5.296 -1.0688  0.0491  0.2885
  698MOL0     H94193  -0.764   9.863   5.332 -0.7474  0.9333 -0.6854
  698MOL0     H94194  -1.193  10.087   5.334 -3.4817 -1.1777  0.9880
  698MOL0     H94195  -1.414  10.153   5.354 -1.1394  0.1615  0.5559
  698MOL0     H94196  -1.564  10.312   5.295 -0.0357  0.7334 -0.8881
  698MOL0     H94197  -1.608  10.230   5.451 -0.0819  0.3309 -1.2833
  698MOL0     H94198  -1.736  10.423   5.517 -0.2150  1.1405  0.5381
  698MOL0     H94199  -1.689  10.519   5.373  0.1291  0.6411  0.8380
  698MOL0     H94200  -1.866  10.278   5.350  1.4885  0.2972  3.2179
  698MOL0     H94201  -1.796  10.375   5.213 -0.5483 -1.1408  0.1231
  698MOL0     H94202  -1.975  10.471   5.432 -1.2224  4.3507  0.4460
  698MOL0     H94203  -1.909  10.576   5.308  0.0774  0.1301 -3.5131
  698MOL0     H94204  -2.105  10.360   5.248 -1.3716  0.9850  2.2021
  698MOL0     H94205  -2.035  10.469   5.130 -1.8240  0.0523 -0.4585
  698MOL0     H94206  -2.195  10.567   5.365 -0.9491  1.3113 -0.5543
  698MOL0     H94207  -2.131  10.668   5.250  0.2612 -0.1365  0.1605
  698MOL0     H94208  -2.308  10.435   5.173 -0.3764  0.9785  2.6927
  698MOL0     H94209  -2.255  10.564   5.059  0.3296  2.1564  0.2166
  698MOL0     H94210  -2.392  10.726   5.120 -0.2635 -0.5179 -1.5192
  698MOL0     H94211  -2.406  10.667   5.290  0.7347 -1.7783 -0.3845
  698MOL0     H94212  -1.298  10.519   5.534 -0.3951 -0.7991 -1.4478
  698MOL0     H94213  -1.063  10.441   5.560 -0.3940  0.4182  0.7031
  698MOL0     H94214  -0.621  10.388   5.425 -1.8738  0.3402 -0.5453
  698MOL0     H94215  -0.399  10.310   5.356 -1.3771  1.3047 -3.0867
  698MOL0     H94216   1.049   8.933   6.068 -1.3138  0.8058  2.0240
  698MOL0     H94217   1.222   8.930   6.241  0.3364 -0.4938  0.0147
  698MOL0     H94218   1.667   9.175   6.331 -1.5513  0.9092  0.8678
  698MOL0     H94219   1.817   9.189   6.501 -3.1393  2.9281 -0.1043
  698MOL0     H94220   1.871   9.190   6.695 -2.0889 -1.0206  1.7355
  698MOL0     H94221   1.942   9.128   6.854  2.1796  1.3837  0.4069
  698MOL0     H94222   2.044   9.094   6.569 -1.1203  1.0284  0.5196
  698MOL0     H94223   2.108   9.013   6.712  0.8815  0.6603 -0.0390
  698MOL0     H94224   2.136   9.232   6.822  1.7830 -0.5845  0.3248
  698MOL0     H94225   2.079   9.319   6.676 -2.7332 -1.1809 -0.1629
  698MOL0     H94226   2.322   9.320   6.678 -0.4424 -0.5897  1.0307
  698MOL0     H94227   2.272   9.218   6.549 -0.8576  1.4770 -0.1832
  698MOL0     H94228   2.500   8.960   6.786 -4.0585 -2.2711  1.8965
  698MOL0     H94229   1.737   8.782   6.622 -0.8294  1.4240  0.9815
  698MOL0     H94230   1.575   8.757   6.447 -0.0597 -0.9181  0.4410
  699MOL0     O94231   8.836   2.432   9.426 -0.2847 -0.0733  0.1336
  699MOL0     C94232   8.859   2.450   9.545 -0.5472 -0.0408 -0.4462
  699MOL0     O94233   8.780   2.424   9.648 -0.1178  0.1269 -0.1259
  699MOL0     C94234   8.645   2.390   9.643 -0.1160  0.1309 -0.2005
  699MOL0     C94235   8.583   2.308   9.751  0.3507 -0.2941  1.0079
  699MOL0     C94236   8.452   2.265   9.746  0.1465  0.3569  0.0869
  699MOL0     C94237   8.374   2.307   9.636  0.3835 -0.8650 -0.4282
  699MOL0     O94238   8.244   2.265   9.642 -0.8109  0.0863 -0.0153
  699MOL0     C94239   8.170   2.266   9.518 -0.6675  0.0326 -0.5129
  699MOL0     C94240   8.049   2.166   9.527 -0.0704 -0.3958 -0.2113
  699MOL0     C94241   7.927   2.228   9.600 -1.4501  0.4505  0.0976
  699MOL0     C94242   7.832   2.119   9.631  0.0158  0.0385  0.1015
  699MOL0     C94243   7.727   2.171   9.731 -0.0611 -0.7490 -0.5018
  699MOL0     C94244   7.607   2.075   9.744 -0.4954  0.9383 -0.0238
  699MOL0     C94245   7.504   2.132   9.832 -0.2388 -0.1734  0.0171
  699MOL0     C94246   7.416   2.228   9.749 -0.0275 -0.8863  0.4201
  699MOL0     N94247   7.290   2.167   9.714 -0.0155  0.5427 -0.2537
  699MOL0     C94248   7.276   2.060   9.636 -0.1972  0.8677 -0.0131
  699MOL0     C94249   7.143   2.026   9.639  0.0170 -0.3625 -0.9374
  699MOL0     C94250   7.106   1.906   9.559 -0.3837 -0.1091  0.5463
  699MOL0     C94251   6.964   1.867   9.579  0.5040  0.2814  1.0441
  699MOL0     C94252   6.944   1.802   9.714  0.7957  0.3118 -0.5652
  699MOL0     C94253   6.793   1.797   9.755  0.1446 -0.3062 -0.2845
  699MOL0     O94254   6.726   1.698   9.667 -0.6431  0.3152 -0.1238
  699MOL0     C94255   6.596   1.720   9.622  0.0169  0.1510 -0.0907
  699MOL0     C94256   6.508   1.800   9.690 -0.1913 -0.9225  1.1646
  699MOL0     C94257   6.368   1.793   9.649  0.0812 -0.2885 -0.1933
  699MOL0     C94258   6.267   1.872   9.730  0.5046  0.6526  0.2158
  699MOL0     C94259   6.327   1.724   9.531 -0.0595  0.3420  0.2249
  699MOL0     C94260   6.194   1.734   9.474  0.0150 -0.4678 -0.0665
  699MOL0     O94261   6.158   1.631   9.397  0.0961  0.8041 -0.2754
  699MOL0     C94262   6.030   1.637   9.350  0.0923 -0.4360 -0.4979
  699MOL0     C94263   5.936   1.532   9.394 -0.8592  0.0442  1.0405
  699MOL0     C94264   5.803   1.540   9.347  0.2697 -0.0823  0.4676
  699MOL0     C94265   5.758   1.655   9.280  0.1538  1.0073  0.6331
  699MOL0     O94266   5.631   1.663   9.242 -0.4847 -0.3730 -0.2925
  699MOL0     C94267   5.584   1.548   9.171 -0.0246  0.2859  0.2709
  699MOL0     C94268   5.502   1.590   9.048  0.5246  0.7096  0.8749
  699MOL0     C94269   5.570   1.693   8.954  0.4256 -0.1126  0.2900
  699MOL0     C94270   5.524   1.664   8.813  0.2063 -0.5322  0.7448
  699MOL0     C94271   5.389   1.701   8.776  0.1280  0.6639 -0.3534
  699MOL0     C94272   5.282   1.588   8.792 -0.0217 -0.1219  0.3981
  699MOL0     C94273   5.176   1.590   8.687 -0.0371  0.5226 -0.6581
  699MOL0     C94274   5.146   1.453   8.624  0.2038  0.1357  0.4742
  699MOL0    Cl94275   5.040   1.357   8.737  0.3053 -0.0378  0.2570
  699MOL0     C94276   5.847   1.752   9.244 -0.9263 -0.1911  0.7430
  699MOL0     C94277   5.989   1.741   9.264 -0.0988  0.9808  0.0395
  699MOL0     O94278   6.137   1.839   9.486 -0.0449 -0.4403 -0.2414
  699MOL0     C94279   6.422   1.643   9.471  0.1048 -0.0055 -0.6605
  699MOL0     C94280   6.556   1.644   9.514 -0.3078  0.4393 -0.6055
  699MOL0     N94281   7.087   2.099   9.744 -0.4403  0.1150 -0.1549
  699MOL0     N94282   7.174   2.183   9.784 -1.3684 -0.2221  0.0596
  699MOL0     C94283   8.425   2.384   9.532  0.1912  0.2702  0.3791
  699MOL0     C94284   8.558   2.428   9.540  0.2904 -0.0521  0.3440
  699MOL0     C94285   8.997   2.484   9.578  0.0754 -0.3572 -0.0294
  699MOL0     C94286   9.094   2.527   9.481 -0.5543  0.1099 -0.0389
  699MOL0     C94287   9.225   2.569   9.522  0.4408 -0.0257 -0.3342
  699MOL0     C94288   9.262   2.555   9.653 -1.1411 -0.3394  0.0474
  699MOL0     O94289   9.391   2.601   9.700 -0.1062 -1.0052  0.3152
  699MOL0     C94290   9.465   2.691   9.609 -0.1117  0.5594  0.2279
  699MOL0     C94291   9.587   2.718   9.685  0.1216 -0.4074 -0.3296
  699MOL0     C94292   9.686   2.808   9.614  0.7626  0.7205 -0.0607
  699MOL0     C94293   9.724   2.944   9.680  0.6453 -0.3920 -0.0000
  699MOL0     C94294   9.622   3.051   9.671  0.7055 -0.1738 -0.4428
  699MOL0     C94295   9.532   3.135   9.655  0.3809 -0.4196 -0.2962
  699MOL0     C94296   9.170   2.503   9.745  0.0759  0.6980  0.1944
  699MOL0     C94297   9.042   2.470   9.707 -0.1717 -0.8381 -1.4658
  699MOL0     H94298   8.654   2.276   9.827  1.1342 -0.7527  0.0903
  699MOL0     H94299   8.404   2.205   9.822  1.0558  1.4846  1.5926
  699MOL0     H94300   8.135   2.368   9.497  2.9058  1.4619 -0.1442
  699MOL0     H94301   8.233   2.229   9.437  0.3690  2.0707 -0.7027
  699MOL0     H94302   8.018   2.135   9.427 -1.5699  0.8183 -0.1648
  699MOL0     H94303   8.093   2.078   9.575  2.6837  1.6303  1.2395
  699MOL0     H94304   7.963   2.285   9.686  1.1498  1.6922 -1.6550
  699MOL0     H94305   7.878   2.304   9.539 -0.6584  0.2333 -0.8346
  699MOL0     H94306   7.790   2.093   9.534 -0.6552 -1.5573  0.7903
  699MOL0     H94307   7.880   2.031   9.675 -2.4305 -1.2641  0.3406
  699MOL0     H94308   7.780   2.195   9.824  0.1369 -2.1873 -0.2170
  699MOL0     H94309   7.691   2.266   9.691 -0.1580 -0.6362 -0.1461
  699MOL0     H94310   7.560   2.041   9.651 -4.1600  0.0756  1.9214
  699MOL0     H94311   7.644   1.983   9.790 -0.1393  0.7134 -0.7431
  699MOL0     H94312   7.445   2.060   9.889 -1.3147  0.8131  0.1748
  699MOL0     H94313   7.552   2.200   9.904  0.1063  0.5664 -0.8968
  699MOL0     H94314   7.467   2.262   9.659  4.1369 -1.4576  2.3077
  699MOL0     H94315   7.398   2.317   9.810  1.2479 -0.3150 -0.0079
  699MOL0     H94316   7.353   1.999   9.591 -0.7148 -0.9677  1.4399
  699MOL0     H94317   7.120   1.939   9.455 -0.0277  1.7855  1.1566
  699MOL0     H94318   7.173   1.825   9.587 -1.3852 -1.6164 -1.1884
  699MOL0     H94319   6.944   1.783   9.513  1.0031 -0.7476  2.1598
  699MOL0     H94320   6.901   1.955   9.561  0.4400 -0.5172 -4.1500
  699MOL0     H94321   6.991   1.869   9.787  2.2648 -0.0024 -1.2069
  699MOL0     H94322   6.996   1.706   9.718  0.4585  0.1205 -0.6458
  699MOL0     H94323   6.755   1.899   9.747 -0.4251 -0.5577 -0.9382
  699MOL0     H94324   6.779   1.769   9.860 -1.5039  5.7940  1.5192
  699MOL0     H94325   6.543   1.852   9.778 -2.6488 -0.8100  2.1576
  699MOL0     H94326   6.178   1.816   9.762  1.4339 -1.4953 -0.8105
  699MOL0     H94327   6.312   1.899   9.826 -1.9065 -0.7228  1.8371
  699MOL0     H94328   6.248   1.966   9.676  3.1587  0.4216 -1.3017
  699MOL0     H94329   5.970   1.454   9.461  0.0288 -0.3532  0.1472
  699MOL0     H94330   5.722   1.473   9.376 -1.2486 -0.1922 -3.5009
  699MOL0     H94331   5.664   1.488   9.126 -0.8442 -0.2311 -0.5323
  699MOL0     H94332   5.518   1.483   9.229 -1.2790 -0.0152 -1.4030
  699MOL0     H94333   5.485   1.493   9.001  1.9958  2.0540 -2.7231
  699MOL0     H94334   5.403   1.626   9.080  1.0432  1.7019  1.4287
  699MOL0     H94335   5.676   1.670   8.958  0.2561 -1.1032 -0.5290
  699MOL0     H94336   5.552   1.797   8.981  1.3547  0.3099 -0.6547
  699MOL0     H94337   5.593   1.724   8.751 -0.4037 -0.0817  0.4912
  699MOL0     H94338   5.544   1.560   8.786 -2.2122 -0.1820 -3.0769
  699MOL0     H94339   5.388   1.714   8.667 -3.9563  0.5224 -0.4856
  699MOL0     H94340   5.358   1.788   8.833 -1.3393 -1.8388  2.9805
  699MOL0     H94341   5.331   1.491   8.779 -1.6419 -1.0497  0.8450
  699MOL0     H94342   5.231   1.595   8.889  0.3662 -1.1258  0.6847
  699MOL0     H94343   5.218   1.646   8.603  1.7061 -1.4216 -1.1760
  699MOL0     H94344   5.084   1.639   8.719 -0.4362 -0.1484 -0.7651
  699MOL0     H94345   5.236   1.398   8.594  0.9620  1.7869 -0.4275
  699MOL0     H94346   5.097   1.472   8.528  1.8497  2.3570 -0.0015
  699MOL0     H94347   5.813   1.847   9.203  2.3726  0.0872 -1.7039
  699MOL0     H94348   6.063   1.816   9.241 -0.3086  1.5960  1.2704
  699MOL0     H94349   6.398   1.596   9.376  0.1493  1.3112 -1.3477
  699MOL0     H94350   6.630   1.583   9.464  1.7258 -1.4722  4.1057
  699MOL0     H94351   8.367   2.408   9.444 -2.2564 -0.8463  1.5919
  699MOL0     H94352   8.603   2.500   9.471  0.6733  1.3778  2.0262
  699MOL0     H94353   9.042   2.554   9.390 -2.5408 -0.8442  0.7430
  699MOL0     H94354   9.276   2.627   9.445  0.7326  1.1581  0.7172
  699MOL0     H94355   9.496   2.642   9.516 -1.7850  0.1276 -0.1446
  699MOL0     H94356   9.412   2.786   9.593  3.3952  2.6453 -0.0439
  699MOL0     H94357   9.643   2.626   9.705  0.6118  0.2542  1.6422
  699MOL0     H94358   9.564   2.755   9.786  2.4354 -2.3209  1.0295
  699MOL0     H94359   9.645   2.833   9.515  1.9114 -1.2148 -1.0898
  699MOL0     H94360   9.772   2.743   9.596 -0.9140 -1.4035 -0.9111
  699MOL0     H94361   9.808   2.994   9.631 -0.9505  2.6133  0.1014
  699MOL0     H94362   9.743   2.930   9.787 -0.5323  2.0902  0.6218
  699MOL0     H94363   9.460   3.213   9.642 -1.4858 -1.1582  3.9981
  699MOL0     H94364   9.199   2.498   9.849  1.8918 -1.2066 -0.3409
  699MOL0     H94365   8.968   2.439   9.780  1.3187 -0.8897  0.0820
  700MOL0     O94366   2.962   5.989  10.468  0.0083  0.1551  0.5888
  700MOL0     C94367   2.913   6.011  10.359 -0.7485 -0.9071  0.4208
  700MOL0     O94368   2.786   6.034  10.333 -0.0052 -0.1400 -0.3634
  700MOL0     C94369   2.695   5.997  10.428  0.0081 -0.2219 -0.1359
  700MOL0     C94370   2.675   5.866  10.471  0.6726 -0.3235 -0.1407
  700MOL0     C94371   2.574   5.832  10.562  0.2504 -0.3579  0.1305
  700MOL0     C94372   2.497   5.938  10.619 -0.2572  0.3520  0.5553
  700MOL0     O94373   2.406   5.907  10.715 -0.3034 -0.4753  0.0910
  700MOL0     C94374   2.267   5.908  10.662 -0.6467  0.9677  0.1066
  700MOL0     C94375   2.176   5.930  10.778  0.3658  0.1751  0.1208
  700MOL0     C94376   2.026   5.954  10.748  0.5099 -0.7735  0.1652
  700MOL0     C94377   1.940   5.943  10.877  0.5126  0.2387 -0.2533
  700MOL0     C94378   1.815   6.037  10.869  0.3680 -0.1559  0.6777
  700MOL0     C94379   1.723   6.010  10.991  0.3187  0.2163  0.8753
  700MOL0     C94380   1.582   6.063  10.993  0.6658  0.0612 -0.1801
  700MOL0     C94381   1.503   6.030  10.873  0.5549 -0.3175 -0.3560
  700MOL0     N94382   1.365   6.081  10.867  0.5418  0.0386  0.1287
  700MOL0     C94383   1.318   6.211  10.862 -0.2115  0.0375  0.1371
  700MOL0     C94384   1.187   6.186  10.832 -0.5600  0.6880 -0.4115
  700MOL0     C94385   1.086   6.300  10.815  0.3560 -0.0132  0.2890
  700MOL0     C94386   1.006   6.290  10.686 -0.4341 -0.7940  0.8346
  700MOL0     C94387   0.890   6.185  10.704 -0.1944 -0.3461 -0.3586
  700MOL0     C94388   0.794   6.173  10.583  0.3372 -0.4915 -0.1265
  700MOL0     O94389   0.717   6.295  10.575 -0.4549 -0.0308 -0.0365
  700MOL0     C94390   0.630   6.308  10.471  0.0203  0.1406 -0.3872
  700MOL0     C94391   0.607   6.221  10.365 -0.4854  0.0992 -0.5451
  700MOL0     C94392   0.506   6.256  10.270 -0.6271  0.4852  0.1103
  700MOL0     C94393   0.477   6.148  10.163 -0.5981 -1.2150  0.5203
  700MOL0     C94394   0.446   6.380  10.271  0.1113 -0.0207  0.3226
  700MOL0     C94395   0.331   6.412  10.175  0.0008  0.1000  0.9742
  700MOL0     O94396   0.243   6.517  10.206 -0.9837  0.1943  0.1531
  700MOL0     C94397   0.121   6.528  10.148  0.6826  0.5465 -0.2935
  700MOL0     C94398   0.083   6.639  10.061 -0.1385  0.4747 -0.3507
  700MOL0     C94399  -0.044   6.645  10.007  0.1241  0.5556  0.2062
  700MOL0     C94400  -0.142   6.545  10.028 -0.1922  0.0546  0.8376
  700MOL0     O94401  -0.261   6.564   9.963 -0.4489  1.1296  0.4075
  700MOL0     C94402  -0.360   6.457   9.955  0.1891 -0.2528  0.6079
  700MOL0     C94403  -0.467   6.479   9.850  0.6118 -0.0575  0.0060
  700MOL0     C94404  -0.593   6.398   9.894  0.2099 -0.1112  0.6819
  700MOL0     C94405  -0.713   6.426   9.797  0.6189 -0.0956 -0.8216
  700MOL0     C94406  -0.839   6.352   9.848  0.1244 -0.5177 -0.0275
  700MOL0     C94407  -0.951   6.421   9.783  0.5482 -0.2238  0.0605
  700MOL0     C94408  -1.087   6.338   9.810 -0.6087  0.3079  0.1891
  700MOL0     C94409  -1.204   6.435   9.785 -0.4927  0.4998  0.3541
  700MOL0    Cl94410  -1.357   6.352   9.767  0.0344  0.4925 -0.0546
  700MOL0     C94411  -0.102   6.437  10.102  0.5627 -0.5296  0.2648
  700MOL0     C94412   0.027   6.424  10.154  1.0449 -0.3250  0.8753
  700MOL0     O94413   0.323   6.339  10.072  0.0685  0.2853  0.8222
  700MOL0     C94414   0.479   6.471  10.375  0.2727 -0.2879  0.5949
  700MOL0     C94415   0.575   6.432  10.475  0.1358  0.0641  0.6925
  700MOL0     N94416   1.150   6.054  10.832 -0.1307 -0.8329  0.2987
  700MOL0     N94417   1.262   5.992  10.845  0.7946 -0.5508  0.7215
  700MOL0     C94418   2.522   6.076  10.581 -0.5135 -0.3659  0.1721
  700MOL0     C94419   2.628   6.103  10.491  0.4891  0.5143 -0.1637
  700MOL0     C94420   3.010   6.027  10.247  0.2190  0.4302  0.6273
  700MOL0     C94421   3.148   6.021  10.270 -0.5779 -0.4233 -0.1484
  700MOL0     C94422   3.235   6.032  10.157 -0.2940 -1.4522  0.3666
  700MOL0     C94423   3.199   6.059  10.027  0.0432  0.3874 -0.5708
  700MOL0     O94424   3.285   6.062   9.915  0.1567 -0.1071  0.1016
  700MOL0     C94425   3.428   6.058   9.935  0.6459  0.5689 -0.1456
  700MOL0     C94426   3.508   6.052   9.802 -0.0974  0.5498 -0.2056
  700MOL0     C94427   3.662   6.054   9.811 -0.2054  0.2368  0.1425
  700MOL0     C94428   3.734   6.030   9.674 -0.0979 -0.3825 -0.2091
  700MOL0     C94429   3.743   5.886   9.632  0.1269  0.7646 -0.1460
  700MOL0     C94430   3.750   5.759   9.622 -0.1316 -0.3751 -0.9016
  700MOL0     C94431   3.055   6.074  10.015 -0.6140  0.7459 -0.7893
  700MOL0     C94432   2.966   6.071  10.122  0.0067  0.7204 -0.2156
  700MOL0     H94433   2.733   5.786  10.426  2.1247  1.1791 -1.0657
  700MOL0     H94434   2.554   5.733  10.601 -2.0789 -0.0527 -0.1397
  700MOL0     H94435   2.263   5.994  10.595 -0.6840  0.7381 -0.1897
  700MOL0     H94436   2.240   5.812  10.616  0.8351  0.1205  0.9572
  700MOL0     H94437   2.175   5.844  10.846  0.3400 -0.4482 -0.6522
  700MOL0     H94438   2.208   6.021  10.830 -1.1297  0.7253  0.1327
  700MOL0     H94439   2.010   6.045  10.690  1.2385 -0.3260  0.6464
  700MOL0     H94440   2.009   5.878  10.671 -0.4201 -1.1457  0.7313
  700MOL0     H94441   1.918   5.836  10.881 -3.2673  0.9333  2.5585
  700MOL0     H94442   2.002   5.966  10.964  1.9273 -3.5936 -0.0417
  700MOL0     H94443   1.838   6.144  10.869 -1.2858  0.2471 -0.8181
  700MOL0     H94444   1.767   6.018  10.772 -0.1135  0.2764  0.8262
  700MOL0     H94445   1.712   5.902  11.002 -2.5544 -0.0803 -2.8316
  700MOL0     H94446   1.779   6.044  11.078 -1.2414 -0.6040  2.2673
  700MOL0     H94447   1.528   6.029  11.082  0.2878 -0.6258 -0.6730
  700MOL0     H94448   1.581   6.172  11.006 -3.3834  0.0471  0.7388
  700MOL0     H94449   1.508   5.921  10.859  3.3975 -0.1166 -1.5927
  700MOL0     H94450   1.553   6.075  10.787 -0.1805 -4.1443 -3.0754
  700MOL0     H94451   1.375   6.303  10.867  0.1296 -0.1824  0.3428
  700MOL0     H94452   1.021   6.302  10.903 -1.0152  1.4209 -0.6916
  700MOL0     H94453   1.143   6.394  10.816  0.9390 -0.3638  0.3446
  700MOL0     H94454   1.062   6.268  10.595  0.1899  1.0148  0.7398
  700MOL0     H94455   0.959   6.384  10.656 -0.1339 -1.2066 -1.0653
  700MOL0     H94456   0.846   6.215  10.800 -0.7023  0.2467 -0.7667
  700MOL0     H94457   0.930   6.084  10.707  3.5666  0.8522 -2.9467
  700MOL0     H94458   0.734   6.084  10.605 -0.5004  0.3001  0.8665
  700MOL0     H94459   0.855   6.148  10.495  1.6929 -0.2108  0.7005
  700MOL0     H94460   0.656   6.124  10.364  0.5396  0.5932  0.0002
  700MOL0     H94461   0.506   6.193  10.068 -0.2257 -1.0807  0.6930
  700MOL0     H94462   0.549   6.066  10.174 -0.5490 -1.2761 -0.2564
  700MOL0     H94463   0.376   6.107  10.163 -1.4043  0.5633  2.2172
  700MOL0     H94464   0.153   6.722  10.055 -1.9164  2.3918  2.7806
  700MOL0     H94465  -0.064   6.730   9.943  1.4031 -1.0312 -2.4868
  700MOL0     H94466  -0.298   6.371   9.927 -0.1114  0.1763 -1.5582
  700MOL0     H94467  -0.407   6.444  10.053 -1.2254 -1.1789 -0.1510
  700MOL0     H94468  -0.487   6.586   9.847  0.3771  0.0118  2.2520
  700MOL0     H94469  -0.418   6.451   9.757  1.2967  0.0180  0.3417
  700MOL0     H94470  -0.619   6.415   9.999 -2.2553 -0.0408  0.1230
  700MOL0     H94471  -0.571   6.292   9.885  0.3300  0.0505 -1.1682
  700MOL0     H94472  -0.733   6.533   9.789  1.2164  0.0494 -0.5347
  700MOL0     H94473  -0.688   6.384   9.699  2.4765  0.2841 -0.5626
  700MOL0     H94474  -0.858   6.354   9.956  0.0592  0.1769 -0.0474
  700MOL0     H94475  -0.838   6.247   9.819 -1.0938 -0.7759  0.8141
  700MOL0     H94476  -0.962   6.518   9.831 -0.6983  0.1719 -0.9583
  700MOL0     H94477  -0.943   6.432   9.674  0.6813  2.1966  0.2737
  700MOL0     H94478  -1.100   6.311   9.916  2.7347  0.0868  0.6310
  700MOL0     H94479  -1.096   6.251   9.745  0.6487 -1.0262  1.7266
  700MOL0     H94480  -1.185   6.499   9.698 -1.3900  2.6435  1.6551
  700MOL0     H94481  -1.211   6.505   9.869  0.7870 -2.9582  3.6159
  700MOL0     H94482  -0.161   6.346  10.096  2.0260 -1.4100 -2.1166
  700MOL0     H94483   0.058   6.335  10.207  0.5367 -0.7306  0.5012
  700MOL0     H94484   0.437   6.570  10.388 -1.2004 -0.4931 -1.9210
  700MOL0     H94485   0.606   6.494  10.558 -0.8486  0.9192  0.4425
  700MOL0     H94486   2.463   6.159  10.618 -3.2281 -1.3164 -1.6450
  700MOL0     H94487   2.654   6.206  10.465 -1.6710  1.1963  0.1664
  700MOL0     H94488   3.188   5.995  10.367 -1.5912 -0.4444  0.2795
  700MOL0     H94489   3.341   6.020  10.177 -0.0400  0.9705  0.7192
  700MOL0     H94490   3.467   6.143   9.991 -5.7854  2.0378  3.0735
  700MOL0     H94491   3.446   5.959   9.978  1.5696  0.8988  0.2465
  700MOL0     H94492   3.474   6.131   9.734  2.8709  0.4110 -2.0112
  700MOL0     H94493   3.486   5.954   9.758  0.0215  0.4409 -0.0193
  700MOL0     H94494   3.698   5.984   9.888 -0.0337  1.4989  1.2388
  700MOL0     H94495   3.695   6.151   9.848 -0.2350  0.7325 -1.0874
  700MOL0     H94496   3.838   6.063   9.677 -0.1901 -0.1277  0.9427
  700MOL0     H94497   3.684   6.083   9.592  2.9824 -1.5432 -3.0497
  700MOL0     H94498   3.754   5.653   9.610 -0.6368 -0.3550 -1.2595
  700MOL0     H94499   3.015   6.092   9.915  0.9053  2.0744 -1.2018
  700MOL0     H94500   2.860   6.081  10.100  0.2991  0.9540 -1.6382
  701MOL0     O94501   1.182   6.544   8.968  0.1215  0.1929 -0.0252
  701MOL0     C94502   1.258   6.471   9.023 -0.1873 -0.1360  0.3036
  701MOL0     O94503   1.227   6.346   9.072  0.1279 -0.2701  0.6339
  701MOL0     C94504   1.096   6.302   9.096 -0.6139  0.3685  0.4297
  701MOL0     C94505   1.020   6.267   8.983  0.2335 -0.6966 -0.1161
  701MOL0     C94506   0.885   6.236   9.005 -0.3608  0.2145  0.0783
  701MOL0     C94507   0.828   6.230   9.133  0.7471 -0.0747  0.1620
  701MOL0     O94508   0.696   6.192   9.127  0.3494 -0.3495 -0.2773
  701MOL0     C94509   0.615   6.186   9.246 -0.1210  0.1205 -0.5460
  701MOL0     C94510   0.480   6.120   9.208 -0.3144  0.0320 -0.0280
  701MOL0     C94511   0.418   6.181   9.084 -0.2730 -0.0017 -0.0042
  701MOL0     C94512   0.270   6.176   9.095  0.2378 -0.3606  0.2541
  701MOL0     C94513   0.207   6.265   8.987 -0.0952 -0.3948  0.1238
  701MOL0     C94514   0.066   6.227   8.986  0.2604 -0.5889  0.4712
  701MOL0     C94515  -0.015   6.305   8.877 -0.1545  0.0313 -0.1714
  701MOL0     C94516  -0.164   6.313   8.918 -1.3467 -0.3445 -0.4679
  701MOL0     N94517  -0.235   6.185   8.904  0.0585  0.5892  0.0873
  701MOL0     C94518  -0.221   6.094   8.804 -0.2920  0.5097  0.8326
  701MOL0     C94519  -0.285   5.989   8.850  0.0685  0.7703  0.2181
  701MOL0     C94520  -0.311   5.855   8.776  0.1515  0.3105  0.7583
  701MOL0     C94521  -0.459   5.843   8.723 -0.3567  0.7170 -0.9224
  701MOL0     C94522  -0.496   5.955   8.628  0.6690 -0.2266 -0.1554
  701MOL0     C94523  -0.626   5.925   8.554 -0.3616 -0.7017  0.1478
  701MOL0     O94524  -0.649   6.039   8.476 -0.0069  0.2175 -0.4413
  701MOL0     C94525  -0.767   6.059   8.405  0.1981 -0.2293  0.7715
  701MOL0     C94526  -0.798   6.184   8.350 -0.2038  0.7618 -0.0803
  701MOL0     C94527  -0.918   6.208   8.284  0.5025 -0.0744 -0.3714
  701MOL0     C94528  -0.921   6.344   8.222 -0.2227 -0.3210 -0.2847
  701MOL0     C94529  -1.022   6.111   8.273 -1.0989  0.0425 -0.3849
  701MOL0     C94530  -1.150   6.129   8.200  0.2431  0.9004 -0.2587
  701MOL0     O94531  -1.214   6.015   8.147 -0.1813  0.3460 -0.0961
  701MOL0     C94532  -1.339   6.008   8.106 -0.1907 -0.5624  0.0090
  701MOL0     C94533  -1.444   6.106   8.124 -0.7580 -0.1775 -0.3157
  701MOL0     C94534  -1.575   6.072   8.090 -0.1548  0.2157 -0.1231
  701MOL0     C94535  -1.602   5.951   8.019 -0.3822 -0.1593  0.1123
  701MOL0     O94536  -1.731   5.923   7.992 -0.2125  0.1590  0.2504
  701MOL0     C94537  -1.746   5.866   7.857  0.6289  0.7414 -0.2774
  701MOL0     C94538  -1.783   5.711   7.869 -0.5331  0.2907 -0.6574
  701MOL0     C94539  -1.937   5.686   7.887  0.9495 -0.1938 -0.3593
  701MOL0     C94540  -1.975   5.541   7.903 -0.1129 -0.1347 -0.6690
  701MOL0     C94541  -2.122   5.519   7.939 -0.2169 -0.5682  0.6758
  701MOL0     C94542  -2.167   5.379   7.921  0.0503 -0.3741  0.3932
  701MOL0     C94543  -2.118   5.269   8.017 -0.0425  0.0200 -0.8133
  701MOL0     C94544  -2.155   5.277   8.164 -0.1620 -0.2462 -0.2055
  701MOL0    Cl94545  -2.331   5.277   8.201  0.1582 -0.3637 -0.0920
  701MOL0     C94546  -1.497   5.869   7.993  0.6725  0.6992 -0.9401
  701MOL0     C94547  -1.370   5.886   8.035 -0.1731 -0.5195 -0.7648
  701MOL0     O94548  -1.194   6.240   8.190 -0.0618  0.0097  0.9624
  701MOL0     C94549  -0.992   5.986   8.338 -0.2213 -0.1028  0.1341
  701MOL0     C94550  -0.864   5.962   8.394 -0.4916  0.6547  0.1491
  701MOL0     N94551  -0.330   6.008   8.972  0.0038  0.4862  1.2667
  701MOL0     N94552  -0.294   6.130   9.009  0.6628 -0.3135 -0.2002
  701MOL0     C94553   0.908   6.258   9.252 -0.6182 -0.2487  0.1621
  701MOL0     C94554   1.044   6.298   9.227  0.0383 -0.0355 -0.3141
  701MOL0     C94555   1.406   6.512   9.016 -0.3811 -0.0243  0.4599
  701MOL0     C94556   1.508   6.416   9.056 -1.7540 -1.0409 -0.4226
  701MOL0     C94557   1.647   6.446   9.037 -0.2224  0.1306  0.0658
  701MOL0     C94558   1.689   6.568   8.988 -0.1398  0.3192  0.1077
  701MOL0     O94559   1.817   6.610   8.977 -0.4243 -0.5188  0.5095
  701MOL0     C94560   1.850   6.649   8.844 -0.2337  0.1161  0.0428
  701MOL0     C94561   1.992   6.607   8.813  1.3053 -1.2949  0.4346
  701MOL0     C94562   2.097   6.697   8.884 -0.5622  0.7377 -0.2554
  701MOL0     C94563   2.226   6.632   8.871 -0.6318  0.3423  0.1576
  701MOL0     C94564   2.330   6.699   8.948  0.0755  0.1265  0.1583
  701MOL0     C94565   2.426   6.757   8.999  0.0063  0.7372 -0.2165
  701MOL0     C94566   1.585   6.665   8.950  0.6902  0.2594  0.0410
  701MOL0     C94567   1.448   6.634   8.966 -1.1474 -0.7409 -0.1266
  701MOL0     H94568   1.066   6.294   8.888  4.3977  0.6326  2.0108
  701MOL0     H94569   0.826   6.213   8.917  0.0930 -2.2727  0.3340
  701MOL0     H94570   0.661   6.121   9.322 -1.6062 -0.8671 -0.4439
  701MOL0     H94571   0.605   6.285   9.292 -1.3606 -0.2418  0.0062
  701MOL0     H94572   0.500   6.016   9.181 -3.8920 -0.9115  0.4219
  701MOL0     H94573   0.412   6.122   9.293 -0.6856  1.2895 -0.3337
  701MOL0     H94574   0.448   6.284   9.063  0.5228 -0.3591 -0.7261
  701MOL0     H94575   0.448   6.122   8.997  0.5254  0.7592 -0.2629
  701MOL0     H94576   0.227   6.075   9.102 -2.6101  0.2970 -4.0626
  701MOL0     H94577   0.241   6.220   9.191 -0.7581 -1.6376  0.5725
  701MOL0     H94578   0.239   6.367   9.011  0.5479 -0.7861  0.9844
  701MOL0     H94579   0.243   6.250   8.885 -4.4387 -1.3425 -1.4746
  701MOL0     H94580   0.045   6.119   8.984  0.0394 -0.6291  2.5450
  701MOL0     H94581   0.019   6.249   9.083  0.5853  0.0039  0.4997
  701MOL0     H94582   0.005   6.413   8.873 -4.0265  0.9034  0.2395
  701MOL0     H94583   0.006   6.250   8.784  0.1961 -1.9776  1.0374
  701MOL0     H94584  -0.211   6.377   8.843  1.8178 -0.2995 -2.6032
  701MOL0     H94585  -0.175   6.348   9.021 -3.8313 -0.7240 -0.5435
  701MOL0     H94586  -0.161   6.104   8.714  0.8451  0.1327  1.5214
  701MOL0     H94587  -0.241   5.855   8.692  1.3191 -0.8035  1.6913
  701MOL0     H94588  -0.286   5.774   8.844 -3.3956  0.3376  2.3165
  701MOL0     H94589  -0.527   5.841   8.809 -0.1473 -0.0274 -0.7758
  701MOL0     H94590  -0.482   5.750   8.670  1.0954 -2.5152  3.5139
  701MOL0     H94591  -0.415   5.979   8.558 -1.2147 -2.4008 -3.3177
  701MOL0     H94592  -0.522   6.040   8.691 -0.2301 -0.5542 -0.0768
  701MOL0     H94593  -0.703   5.925   8.632  0.9504  0.5991  1.5340
  701MOL0     H94594  -0.620   5.828   8.503  0.3900 -0.9906  0.7482
  701MOL0     H94595  -0.718   6.258   8.345 -0.7083  1.3168 -0.0214
  701MOL0     H94596  -0.986   6.407   8.282  1.5015  0.1964  1.1157
  701MOL0     H94597  -0.826   6.398   8.218  0.9136 -2.2318 -0.6135
  701MOL0     H94598  -0.950   6.332   8.117 -1.7512  3.0620 -0.3863
  701MOL0     H94599  -1.431   6.205   8.169 -1.5720 -0.0585 -0.3237
  701MOL0     H94600  -1.649   6.147   8.119  2.6942  4.0963 -1.9420
  701MOL0     H94601  -1.829   5.923   7.815 -0.6183  1.7609  3.2095
  701MOL0     H94602  -1.663   5.885   7.789  0.2235  1.9148 -0.4552
  701MOL0     H94603  -1.773   5.664   7.771 -2.3815  1.6395 -1.5468
  701MOL0     H94604  -1.723   5.665   7.949 -1.7149 -0.1997 -0.0350
  701MOL0     H94605  -1.982   5.722   7.794  0.9103 -2.8593 -1.4596
  701MOL0     H94606  -1.983   5.738   7.972 -0.2222  1.7997 -2.1362
  701MOL0     H94607  -1.949   5.489   7.810 -2.9706  0.5206 -1.9487
  701MOL0     H94608  -1.912   5.503   7.984  0.8923  1.0883 -0.8591
  701MOL0     H94609  -2.183   5.587   7.880  0.0585  1.1970  2.2931
  701MOL0     H94610  -2.136   5.555   8.042 -1.1293  1.2870 -0.0601
  701MOL0     H94611  -2.276   5.377   7.920 -0.0255  1.5312 -0.1796
  701MOL0     H94612  -2.124   5.356   7.824 -0.2981  0.2077  0.0913
  701MOL0     H94613  -2.009   5.274   8.008  0.1490 -1.7701  0.2345
  701MOL0     H94614  -2.145   5.168   7.985  0.0071  0.5300 -2.5496
  701MOL0     H94615  -2.110   5.360   8.219 -2.0024 -2.1419  4.7945
  701MOL0     H94616  -2.107   5.193   8.215  0.7203  0.8419  0.8159
  701MOL0     H94617  -1.536   5.780   7.944 -3.1232  0.6384  1.7402
  701MOL0     H94618  -1.296   5.813   8.007 -0.5393 -0.3911 -2.1599
  701MOL0     H94619  -1.064   5.905   8.335 -0.7324  0.2932  1.2174
  701MOL0     H94620  -0.845   5.866   8.440  0.7150 -0.1598 -1.9037
  701MOL0     H94621   0.865   6.257   9.351 -2.1601  2.2027 -0.3815
  701MOL0     H94622   1.109   6.334   9.306  0.3987  0.7690 -0.9703
  701MOL0     H94623   1.476   6.316   9.084 -0.3119 -1.3395  0.2112
  701MOL0     H94624   1.725   6.374   9.059 -1.9260 -1.8085  0.1047
  701MOL0     H94625   1.782   6.599   8.775 -2.3555  2.0793  0.5690
  701MOL0     H94626   1.833   6.754   8.817 -4.0207 -1.0806 -3.1968
  701MOL0     H94627   2.006   6.631   8.707  1.6387  1.9203  1.0790
  701MOL0     H94628   2.016   6.503   8.835  2.4910 -1.1154  0.0509
  701MOL0     H94629   2.061   6.694   8.987  0.0299 -2.3532 -0.0416
  701MOL0     H94630   2.101   6.800   8.846  1.3025  0.1998 -1.7036
  701MOL0     H94631   2.257   6.623   8.766  1.0520  1.7311  0.4948
  701MOL0     H94632   2.229   6.531   8.914  0.1138  0.4550  0.3853
  701MOL0     H94633   2.519   6.792   9.037 -0.6098  0.5338  1.6006
  701MOL0     H94634   1.609   6.766   8.920  0.2267  0.9633  1.9096
  701MOL0     H94635   1.374   6.708   8.940 -1.2243 -0.3734  1.0839
  702MOL0     O94636   4.228   6.727  10.845  0.0711 -0.2751 -0.6432
  702MOL0     C94637   4.281   6.679  10.744  0.1915  0.1850  0.0654
  702MOL0     O94638   4.219   6.651  10.633 -0.5428  0.1051 -0.5066
  702MOL0     C94639   4.092   6.682  10.616 -0.0893 -0.1961  0.4464
  702MOL0     C94640   4.021   6.592  10.534  0.3745 -1.0012 -0.0883
  702MOL0     C94641   3.884   6.614  10.501 -0.4911  0.2413  0.6079
  702MOL0     C94642   3.820   6.728  10.542  0.6328 -0.2669 -0.5026
  702MOL0     O94643   3.703   6.763  10.483 -0.4032  0.2533  0.2923
  702MOL0     C94644   3.584   6.730  10.554  0.1323 -0.1184  0.4118
  702MOL0     C94645   3.556   6.844  10.650  0.5276  0.3742  0.1320
  702MOL0     C94646   3.408   6.833  10.700 -0.2022 -0.1346  0.0524
  702MOL0     C94647   3.307   6.886  10.589  0.5510 -0.8216 -1.1611
  702MOL0     C94648   3.156   6.903  10.630  0.3150 -0.3088  0.0460
  702MOL0     C94649   3.099   6.789  10.726 -0.2767 -0.4174 -0.0193
  702MOL0     C94650   2.951   6.799  10.768 -0.0408  0.0620 -0.2043
  702MOL0     C94651   2.930   6.897  10.889 -0.0944  0.1878  0.7007
  702MOL0     N94652   2.782   6.893  10.913 -0.1387 -0.1429 -1.0028
  702MOL0     C94653   2.700   6.778  10.929 -0.2622  0.1269 -0.9115
  702MOL0     C94654   2.583   6.828  10.972 -0.6644  0.3207 -0.3522
  702MOL0     C94655   2.459   6.740  10.983  0.1274  0.7415 -0.1576
  702MOL0     C94656   2.344   6.810  11.049  0.9775  0.0719  0.2152
  702MOL0     C94657   2.212   6.728  11.044  0.1585  0.3050  0.2436
  702MOL0     C94658   2.094   6.814  11.092 -0.3611  0.3071  0.3431
  702MOL0     O94659   1.980   6.737  11.111  0.1072 -0.1844 -0.6944
  702MOL0     C94660   1.870   6.782  11.177  0.2039  0.4999 -0.2422
  702MOL0     C94661   1.783   6.688  11.235  0.9226  0.1553 -0.1289
  702MOL0     C94662   1.670   6.728  11.307  0.4018 -0.7831  0.4793
  702MOL0     C94663   1.566   6.620  11.336 -0.9608  0.1138  0.0377
  702MOL0     C94664   1.644   6.867  11.325  0.2799  0.3463  0.3305
  702MOL0     C94665   1.523   6.918  11.398 -0.3609 -0.0146 -0.4575
  702MOL0     O94666   1.480   7.038  11.357 -0.0728 -0.3045 -0.1516
  702MOL0     C94667   1.377   7.093  11.421  0.0301  0.8474  0.3552
  702MOL0     C94668   1.250   7.056  11.379  0.5758  0.3935  0.1203
  702MOL0     C94669   1.139   7.104  11.449 -0.5702 -0.0661  0.3808
  702MOL0     C94670   1.159   7.193  11.554 -0.4327  0.1909 -0.1628
  702MOL0     O94671   1.051   7.246  11.617 -0.0694 -0.4540 -0.1460
  702MOL0     C94672   1.051   7.296  11.748  0.3129 -0.7064  0.5779
  702MOL0     C94673   0.928   7.245  11.827  0.0017 -0.0327 -0.0923
  702MOL0     C94674   0.793   7.254  11.761 -0.9030  0.2697 -0.0103
  702MOL0     C94675   0.698   7.225  11.866 -0.2209 -0.0246 -0.6036
  702MOL0     C94676   0.559   7.197  11.797  0.3782 -0.0915  0.3173
  702MOL0     C94677   0.450   7.170  11.908  0.6847 -0.1567 -0.3363
  702MOL0     C94678   0.394   7.317  11.954  0.8187  0.0894 -0.6581
  702MOL0     C94679   0.284   7.299  12.066 -0.9333 -0.1156 -1.1064
  702MOL0    Cl94680   0.230   7.456  12.123  0.0340 -0.1948  0.3528
  702MOL0     C94681   1.288   7.224  11.593 -0.0987 -1.1810 -0.2281
  702MOL0     C94682   1.399   7.174  11.529  0.3808 -0.2357 -1.2447
  702MOL0     O94683   1.475   6.855  11.493 -0.0535 -0.7524 -0.4108
  702MOL0     C94684   1.726   6.962  11.264 -0.0486 -0.2713 -0.5428
  702MOL0     C94685   1.847   6.918  11.198 -0.3062  0.4315 -0.8351
  702MOL0     N94686   2.602   6.961  10.992  0.6128 -0.4576  0.3237
  702MOL0     N94687   2.721   7.004  10.955  0.1377  0.0829 -0.4728
  702MOL0     C94688   3.887   6.826  10.618  0.4655  0.2270 -0.2323
  702MOL0     C94689   4.029   6.805  10.646  0.2120 -0.6968  0.1787
  702MOL0     C94690   4.423   6.677  10.745  0.1975  0.7100 -0.6403
  702MOL0     C94691   4.495   6.732  10.850 -0.4690 -0.1758 -0.0199
  702MOL0     C94692   4.638   6.732  10.849 -0.3243  0.3751  0.3958
  702MOL0     C94693   4.709   6.672  10.744 -0.2081 -0.0760  1.1445
  702MOL0     O94694   4.843   6.677  10.747  0.1154  0.5458  0.5249
  702MOL0     C94695   4.913   6.583  10.666 -0.5265  1.1059  0.3508
  702MOL0     C94696   5.058   6.583  10.737  0.5965 -0.4654  0.2742
  702MOL0     C94697   5.141   6.458  10.684 -0.7041 -0.4196 -0.6149
  702MOL0     C94698   5.274   6.445  10.751 -1.2960  0.4626 -0.7895
  702MOL0     C94699   5.268   6.442  10.896 -0.8525 -0.2135  0.2683
  702MOL0     C94700   5.269   6.435  11.020  0.8737 -0.5660  0.6161
  702MOL0     C94701   4.634   6.607  10.645  0.2855 -0.6245 -0.5058
  702MOL0     C94702   4.495   6.599  10.650  0.6581 -0.2353 -0.0455
  702MOL0     H94703   4.075   6.512  10.485  0.0411 -1.1107 -0.2763
  702MOL0     H94704   3.834   6.552  10.428  1.8895 -1.2644  0.1380
  702MOL0     H94705   3.506   6.735  10.478 -0.8011  2.2026  1.4456
  702MOL0     H94706   3.591   6.638  10.612  0.4423 -1.4359 -1.6261
  702MOL0     H94707   3.618   6.837  10.739  0.3382 -1.4961  0.1585
  702MOL0     H94708   3.584   6.939  10.602  2.4989 -1.1836 -2.0546
  702MOL0     H94709   3.374   6.732  10.724 -0.0679 -0.1928 -0.0002
  702MOL0     H94710   3.388   6.897  10.787  1.7135  0.8440 -0.1702
  702MOL0     H94711   3.348   6.979  10.550  0.3609 -0.4825 -0.5653
  702MOL0     H94712   3.300   6.821  10.502  0.0421 -0.2388 -1.5595
  702MOL0     H94713   3.145   7.002  10.674 -0.8291 -0.5252  0.3020
  702MOL0     H94714   3.097   6.899  10.538  3.8660 -2.3741 -2.3807
  702MOL0     H94715   3.109   6.693  10.673 -2.4054 -1.0111  0.5731
  702MOL0     H94716   3.168   6.782  10.811 -0.5967 -1.2024  0.1798
  702MOL0     H94717   2.890   6.822  10.680 -0.9506  0.7983  0.6048
  702MOL0     H94718   2.936   6.697  10.805  1.6760  0.5812  2.1660
  702MOL0     H94719   2.966   6.999  10.870 -1.1773  0.3165 -0.9293
  702MOL0     H94720   2.980   6.859  10.978 -0.2531 -0.8235  0.3731
  702MOL0     H94721   2.732   6.679  10.899 -2.1297 -0.1828 -2.0267
  702MOL0     H94722   2.425   6.733  10.879 -0.3122 -0.0473  0.0321
  702MOL0     H94723   2.473   6.638  11.020 -1.3960  1.2573  2.0754
  702MOL0     H94724   2.330   6.907  11.000  2.5059  0.8991  1.3119
  702MOL0     H94725   2.371   6.823  11.155 -2.3886 -0.3777  1.2468
  702MOL0     H94726   2.216   6.644  11.115  2.6784 -0.1067 -0.3156
  702MOL0     H94727   2.195   6.699  10.940 -2.7932  2.9951 -0.1694
  702MOL0     H94728   2.070   6.889  11.017  2.0524  0.4334 -0.4053
  702MOL0     H94729   2.113   6.866  11.186 -1.1889  2.0542 -0.4131
  702MOL0     H94730   1.794   6.581  11.222  0.5695  0.0728  0.2209
  702MOL0     H94731   1.461   6.650  11.322 -1.0694 -0.5027 -0.5176
  702MOL0     H94732   1.568   6.531  11.273 -2.3432 -0.6145  0.9585
  702MOL0     H94733   1.579   6.581  11.437 -0.2311 -0.1638 -0.1623
  702MOL0     H94734   1.233   6.999  11.288 -1.1159 -0.1357  0.7336
  702MOL0     H94735   1.036   7.081  11.423  0.3713 -4.3688 -0.1978
  702MOL0     H94736   1.136   7.270  11.812 -0.1741  0.5238  1.8047
  702MOL0     H94737   1.044   7.406  11.748  2.1738 -0.4713  3.5842
  702MOL0     H94738   0.948   7.139  11.850 -2.3128 -0.9336 -1.8089
  702MOL0     H94739   0.921   7.307  11.917  1.9506  1.2795 -0.7877
  702MOL0     H94740   0.790   7.171  11.689  0.3253 -1.7303  2.0837
  702MOL0     H94741   0.778   7.350  11.713  1.1651  0.8212  0.3554
  702MOL0     H94742   0.725   7.131  11.914 -0.1416 -1.1242 -2.7080
  702MOL0     H94743   0.697   7.306  11.940  0.3536 -0.1385 -0.4683
  702MOL0     H94744   0.566   7.101  11.745 -0.8773  0.0993 -0.2333
  702MOL0     H94745   0.520   7.277  11.733 -0.2180 -1.5506 -1.2266
  702MOL0     H94746   0.360   7.118  11.874 -0.8848 -0.0842  3.3205
  702MOL0     H94747   0.493   7.113  11.991 -0.7442 -0.5164  0.1773
  702MOL0     H94748   0.352   7.374  11.871  1.6214 -0.8929 -1.7860
  702MOL0     H94749   0.474   7.371  12.004  1.9781 -1.9553 -0.2053
  702MOL0     H94750   0.333   7.244  12.148  3.3714  0.4354 -3.0351
  702MOL0     H94751   0.201   7.235  12.035 -0.5767 -2.1010  1.6805
  702MOL0     H94752   1.320   7.300  11.663  0.9804 -0.6922 -1.2293
  702MOL0     H94753   1.494   7.195  11.577 -1.0329  1.2027  1.1290
  702MOL0     H94754   1.704   7.066  11.285 -1.5998 -0.4120 -1.3631
  702MOL0     H94755   1.909   7.002  11.166  1.4768 -1.1063 -1.6436
  702MOL0     H94756   3.843   6.921  10.648  0.6909  0.3976 -0.4487
  702MOL0     H94757   4.082   6.889  10.691  1.1833  1.0982 -3.8310
  702MOL0     H94758   4.444   6.772  10.936  0.6478  0.0326  0.5628
  702MOL0     H94759   4.685   6.766  10.941  0.6147 -2.3560  1.0354
  702MOL0     H94760   4.874   6.481  10.675  0.4255  0.8003  1.2984
  702MOL0     H94761   4.911   6.618  10.562  1.4172  2.3326  0.6805
  702MOL0     H94762   5.047   6.574  10.845  0.7017  1.0408  0.4282
  702MOL0     H94763   5.102   6.681  10.716 -0.3132 -0.0776  0.0977
  702MOL0     H94764   5.164   6.456  10.577  0.5675 -3.1368 -0.3857
  702MOL0     H94765   5.089   6.364  10.706  0.3620 -0.9195 -0.0906
  702MOL0     H94766   5.343   6.522  10.715 -0.6679 -0.0768 -0.7540
  702MOL0     H94767   5.331   6.356  10.724  1.5349  0.9689  2.7155
  702MOL0     H94768   5.277   6.436  11.127 -2.3560 -1.0438  0.9803
  702MOL0     H94769   4.684   6.553  10.565 -1.5500 -0.4305 -1.8513
  702MOL0     H94770   4.443   6.552  10.567  0.0922 -0.6822  0.5570
  703MOL0     O94771   1.321   6.799   3.355  0.4624 -0.5234  1.1765
  703MOL0     C94772   1.423   6.754   3.400  0.0852  0.7096 -0.2544
  703MOL0     O94773   1.450   6.616   3.405 -0.4678  0.3171  0.1335
  703MOL0     C94774   1.348   6.536   3.352  0.1960 -0.1079  0.0068
  703MOL0     C94775   1.340   6.502   3.221 -0.6679  0.0182 -0.1914
  703MOL0     C94776   1.252   6.399   3.170 -0.1208 -0.6495  0.3537
  703MOL0     C94777   1.158   6.341   3.255  0.2504  1.6129 -0.0099
  703MOL0     O94778   1.051   6.252   3.216 -0.0870  0.6233  0.2341
  703MOL0     C94779   1.001   6.276   3.088 -0.0332  1.3714 -0.5661
  703MOL0     C94780   0.873   6.194   3.064 -0.6476 -0.7967 -0.1697
  703MOL0     C94781   0.754   6.259   3.127  0.5191 -0.1620  0.1328
  703MOL0     C94782   0.618   6.181   3.103 -0.9854  0.3204 -0.2703
  703MOL0     C94783   0.567   6.178   2.955  0.5249 -0.8926 -0.6915
  703MOL0     C94784   0.528   6.323   2.911 -0.1234 -0.5947 -0.2896
  703MOL0     C94785   0.452   6.330   2.781 -0.2743 -0.2464  0.6651
  703MOL0     C94786   0.307   6.264   2.806 -0.3445  0.2327  0.8716
  703MOL0     N94787   0.207   6.328   2.731  0.3054 -1.1470 -0.7845
  703MOL0     C94788   0.166   6.456   2.764 -0.3378  0.1518 -0.6700
  703MOL0     C94789   0.085   6.493   2.662 -0.9603  0.6382  0.5698
  703MOL0     C94790  -0.002   6.607   2.657  0.2295  0.8746 -0.6069
  703MOL0     C94791   0.070   6.726   2.597  0.4021  0.0172  0.8171
  703MOL0     C94792   0.007   6.860   2.635 -0.1569  0.6824  0.2229
  703MOL0     C94793  -0.120   6.896   2.554  0.4903  0.3351 -0.7035
  703MOL0     O94794  -0.230   6.824   2.612  0.1010  0.1150  0.0281
  703MOL0     C94795  -0.359   6.859   2.559  0.0905 -0.4033 -0.5608
  703MOL0     C94796  -0.381   6.952   2.461 -0.5054  0.7645  0.5307
  703MOL0     C94797  -0.503   6.970   2.408 -0.7316  0.0935  0.0735
  703MOL0     C94798  -0.518   7.061   2.289  0.6288  0.1423 -0.4125
  703MOL0     C94799  -0.611   6.896   2.455  0.3811 -0.1369  0.8398
  703MOL0     C94800  -0.751   6.911   2.422  0.1058 -0.3820  0.5924
  703MOL0     O94801  -0.842   6.832   2.491 -0.0890  0.6419 -0.1776
  703MOL0     C94802  -0.972   6.808   2.445 -1.0629  0.0998  0.2229
  703MOL0     C94803  -1.073   6.782   2.539  0.3877 -0.1483  0.4227
  703MOL0     C94804  -1.204   6.756   2.500  0.2289 -0.4783 -0.0152
  703MOL0     C94805  -1.243   6.770   2.373  0.1319  0.5181  0.2323
  703MOL0     O94806  -1.377   6.747   2.335 -0.0801  0.0112  0.0607
  703MOL0     C94807  -1.461   6.859   2.366 -0.2503 -0.0311  0.6645
  703MOL0     C94808  -1.441   6.969   2.258 -0.0237  0.5025  0.3571
  703MOL0     C94809  -1.534   7.079   2.294  0.4519 -0.5688 -0.5849
  703MOL0     C94810  -1.682   7.050   2.257  0.8435 -1.1839 -0.0822
  703MOL0     C94811  -1.774   7.171   2.298 -0.0974 -0.1921 -0.1028
  703MOL0     C94812  -1.924   7.131   2.297 -0.8783 -0.0402 -0.0780
  703MOL0     C94813  -2.019   7.254   2.322  0.5933 -0.1088 -0.0034
  703MOL0     C94814  -2.166   7.215   2.269  0.7926  0.3962 -0.1904
  703MOL0    Cl94815  -2.229   7.085   2.384  0.5077  0.3681 -0.2927
  703MOL0     C94816  -1.149   6.790   2.272 -0.2236  0.2751 -0.1299
  703MOL0     C94817  -1.014   6.819   2.308  0.2586  0.9110 -0.6271
  703MOL0     O94818  -0.784   6.991   2.335  0.0858 -0.2317 -0.6070
  703MOL0     C94819  -0.591   6.799   2.556  0.5590 -0.4149  0.4034
  703MOL0     C94820  -0.462   6.782   2.603  0.3639 -0.1244 -0.7881
  703MOL0     N94821   0.076   6.390   2.569  0.1367 -0.5608 -0.5857
  703MOL0     N94822   0.151   6.297   2.616  0.8742 -0.3262  0.2649
  703MOL0     C94823   1.170   6.370   3.394  0.0926 -0.5702  0.2794
  703MOL0     C94824   1.258   6.471   3.436 -0.1480 -0.5620 -0.4617
  703MOL0     C94825   1.520   6.841   3.467 -0.1621  0.2665 -0.8487
  703MOL0     C94826   1.611   6.796   3.559 -0.8945 -0.3500  1.0823
  703MOL0     C94827   1.690   6.883   3.636  0.1988 -0.2576 -0.5304
  703MOL0     C94828   1.673   7.023   3.632 -0.2878 -0.1439  0.6411
  703MOL0     O94829   1.758   7.117   3.695  0.2557 -0.2833 -0.3186
  703MOL0     C94830   1.833   7.072   3.811 -0.5151  0.3010 -0.6310
  703MOL0     C94831   1.951   7.164   3.827 -0.4246 -0.9781 -0.0807
  703MOL0     C94832   1.899   7.301   3.880  0.3540 -0.7649 -0.1558
  703MOL0     C94833   2.006   7.371   3.971 -0.2088 -0.3226 -0.0974
  703MOL0     C94834   1.951   7.487   4.039  0.2114 -0.1223 -0.0337
  703MOL0     C94835   1.888   7.588   4.078 -0.1990  0.0175  0.6393
  703MOL0     C94836   1.591   7.070   3.534 -0.2352  0.4142  0.2182
  703MOL0     C94837   1.513   6.980   3.452 -0.3687 -0.3260 -0.9012
  703MOL0     H94838   1.404   6.567   3.164  0.4502 -0.4825  0.4692
  703MOL0     H94839   1.248   6.378   3.064 -2.0256  0.2427  0.2066
  703MOL0     H94840   0.988   6.381   3.060 -1.2033  1.5162  0.4333
  703MOL0     H94841   1.072   6.226   3.023  0.1306 -0.4245  0.9328
  703MOL0     H94842   0.863   6.173   2.957  2.1820  0.6007 -0.8132
  703MOL0     H94843   0.894   6.095   3.106 -0.3885 -0.3784  0.7131
  703MOL0     H94844   0.770   6.271   3.235  3.7700 -0.2320 -0.2514
  703MOL0     H94845   0.739   6.359   3.086  0.9640 -1.3312 -3.1915
  703MOL0     H94846   0.629   6.081   3.148 -2.4832 -0.1171 -0.7949
  703MOL0     H94847   0.545   6.236   3.163 -1.0957 -0.1116  0.0034
  703MOL0     H94848   0.632   6.133   2.879  0.5964 -0.1298 -1.0894
  703MOL0     H94849   0.478   6.114   2.962  0.3117 -0.6599 -1.1906
  703MOL0     H94850   0.483   6.379   2.994  1.0838 -0.3277  0.2125
  703MOL0     H94851   0.619   6.381   2.891 -0.2403 -0.5908 -0.8277
  703MOL0     H94852   0.443   6.432   2.742 -0.0262 -1.2092 -2.0962
  703MOL0     H94853   0.496   6.274   2.698 -2.5293  0.7569 -1.3408
  703MOL0     H94854   0.283   6.270   2.912 -2.3556 -0.5172  0.4944
  703MOL0     H94855   0.307   6.159   2.775  0.2957  0.4425  0.1270
  703MOL0     H94856   0.185   6.512   2.856 -2.2353  1.7236 -1.1778
  703MOL0     H94857  -0.091   6.580   2.599 -2.5207  2.7795  2.3958
  703MOL0     H94858  -0.038   6.630   2.758 -0.4190 -1.3058 -0.2953
  703MOL0     H94859   0.053   6.729   2.489  0.4115  2.0640  0.8235
  703MOL0     H94860   0.176   6.738   2.621 -0.2137  2.8698  2.7773
  703MOL0     H94861   0.078   6.941   2.618 -1.8600  2.0613 -0.7322
  703MOL0     H94862  -0.021   6.861   2.740 -3.3290  1.9121 -0.5245
  703MOL0     H94863  -0.105   6.872   2.448  2.4139  2.1050 -0.9033
  703MOL0     H94864  -0.141   7.003   2.553  0.9463  0.6129  3.4199
  703MOL0     H94865  -0.307   7.022   2.424 -1.4952  0.9264 -1.2416
  703MOL0     H94866  -0.425   7.117   2.280  0.7671 -0.3067 -1.9676
  703MOL0     H94867  -0.542   7.003   2.199 -2.7921  0.0712  0.3807
  703MOL0     H94868  -0.598   7.135   2.300  0.9810  0.8335 -2.1564
  703MOL0     H94869  -1.047   6.770   2.643  0.0198  0.4915  0.5913
  703MOL0     H94870  -1.274   6.725   2.576  0.3794 -0.9997 -0.0830
  703MOL0     H94871  -1.568   6.842   2.355 -0.2228  0.9076 -1.5432
  703MOL0     H94872  -1.438   6.888   2.469  2.1276 -3.2558  1.2330
  703MOL0     H94873  -1.337   7.000   2.248  0.2845  0.1852  2.1083
  703MOL0     H94874  -1.470   6.933   2.159 -1.4219  1.5977  0.3302
  703MOL0     H94875  -1.524   7.169   2.233 -0.2101  0.0305  0.1785
  703MOL0     H94876  -1.522   7.112   2.397 -0.4491 -1.8045 -0.0540
  703MOL0     H94877  -1.694   7.037   2.149  2.0189  0.8832 -0.5146
  703MOL0     H94878  -1.707   6.956   2.307  5.4262 -1.5439  2.0411
  703MOL0     H94879  -1.755   7.255   2.231 -0.6137 -0.7111 -0.9159
  703MOL0     H94880  -1.755   7.202   2.401 -0.9397  0.7187 -0.2074
  703MOL0     H94881  -1.934   7.094   2.194 -1.7563 -2.3082  0.7526
  703MOL0     H94882  -1.930   7.050   2.370  1.5207 -1.3826 -1.2223
  703MOL0     H94883  -1.990   7.338   2.257 -1.7414  2.3885  1.9768
  703MOL0     H94884  -2.027   7.285   2.426 -1.1881 -4.3504  1.3279
  703MOL0     H94885  -2.165   7.166   2.171 -2.3548 -0.6481  0.1746
  703MOL0     H94886  -2.229   7.304   2.270  1.3424  0.7794  0.6085
  703MOL0     H94887  -1.192   6.786   2.172  0.4343 -0.2116 -0.4045
  703MOL0     H94888  -0.945   6.858   2.234  1.2707 -0.2690 -0.3336
  703MOL0     H94889  -0.667   6.738   2.602  0.4326 -0.1601  0.5320
  703MOL0     H94890  -0.463   6.709   2.684 -1.7053  1.7199  0.9910
  703MOL0     H94891   1.098   6.322   3.459  0.7479 -2.5148 -0.3424
  703MOL0     H94892   1.268   6.492   3.542 -0.0716 -0.3230 -0.5171
  703MOL0     H94893   1.619   6.688   3.566 -1.4046 -0.5934 -1.2705
  703MOL0     H94894   1.762   6.831   3.698  0.7520 -1.3393 -2.0219
  703MOL0     H94895   1.763   7.074   3.895  0.8114  0.6260  0.5060
  703MOL0     H94896   1.874   6.971   3.811 -1.6317 -0.1671 -0.5095
  703MOL0     H94897   2.000   7.193   3.734  2.1136 -0.4295  1.3423
  703MOL0     H94898   2.031   7.119   3.886 -0.7236  0.1357  1.2329
  703MOL0     H94899   1.821   7.288   3.956  1.8596  3.0080  2.3425
  703MOL0     H94900   1.863   7.362   3.796 -0.9481 -1.2698  0.0067
  703MOL0     H94901   2.079   7.409   3.899  1.8935 -1.7435  1.1807
  703MOL0     H94902   2.058   7.298   4.034 -0.0720  1.5221  2.0535
  703MOL0     H94903   1.838   7.679   4.106 -0.1016  0.0548  0.6941
  703MOL0     H94904   1.571   7.176   3.517 -0.3673  0.4718  0.7128
  703MOL0     H94905   1.446   7.029   3.382 -1.3395 -0.8697 -0.3704
  704MOL0     O94906   0.596   9.761   5.141  0.1512  0.5068 -0.0525
  704MOL0     C94907   0.552   9.649   5.126  0.9997  0.5481 -0.4298
  704MOL0     O94908   0.433   9.627   5.064 -0.4009  0.3482  0.0704
  704MOL0     C94909   0.373   9.729   4.994 -0.1982  0.8288  0.4148
  704MOL0     C94910   0.244   9.771   5.041  0.5196 -0.2922  0.1123
  704MOL0     C94911   0.174   9.871   4.974  0.7482 -0.2660  0.2336
  704MOL0     C94912   0.225   9.931   4.860  0.7674 -0.1234  0.3408
  704MOL0     O94913   0.148  10.027   4.803 -0.6885 -0.1647 -0.1615
  704MOL0     C94914   0.220  10.135   4.737 -0.5461 -0.0685 -0.2428
  704MOL0     C94915   0.119  10.250   4.723 -0.4726 -0.4567  0.2147
  704MOL0     C94916   0.008  10.216   4.623 -0.4505 -0.0884 -0.7907
  704MOL0     C94917  -0.080  10.346   4.629 -0.2224  0.1005 -0.4452
  704MOL0     C94918  -0.209  10.327   4.547 -0.3740  0.8555  0.5773
  704MOL0     C94919  -0.186  10.299   4.399 -0.5656 -0.0131  0.2239
  704MOL0     C94920  -0.097  10.409   4.324  0.3693  0.2657 -0.3507
  704MOL0     C94921  -0.145  10.556   4.331  0.7719  0.4204 -0.6889
  704MOL0     N94922  -0.293  10.552   4.293 -0.1259 -0.3275 -0.2911
  704MOL0     C94923  -0.341  10.525   4.168 -0.1061 -0.8165  0.2567
  704MOL0     C94924  -0.479  10.511   4.180  0.2827  0.0173 -0.5754
  704MOL0     C94925  -0.580  10.488   4.073 -0.1583 -0.1431  0.3107
  704MOL0     C94926  -0.664  10.360   4.095  0.1707  0.3242 -0.3900
  704MOL0     C94927  -0.787  10.396   4.178 -0.3625 -0.7252  0.0648
  704MOL0     C94928  -0.900  10.459   4.099  0.0829 -0.2301 -0.6349
  704MOL0     O94929  -1.016  10.472   4.182  0.2347 -0.2692  0.2727
  704MOL0     C94930  -1.104  10.364   4.191  0.5065 -0.3010  0.3207
  704MOL0     C94931  -1.090  10.234   4.144  0.3499  0.1856  0.7658
  704MOL0     C94932  -1.176  10.128   4.178  0.9637 -0.1874 -0.1836
  704MOL0     C94933  -1.139   9.990   4.123  0.3571  0.7664 -0.3697
  704MOL0     C94934  -1.299  10.159   4.240 -0.1781  0.6264 -0.1300
  704MOL0     C94935  -1.405  10.058   4.278  0.5773  0.5255 -0.4320
  704MOL0     O94936  -1.502  10.108   4.359 -0.0693 -0.0622 -0.1135
  704MOL0     C94937  -1.623  10.055   4.390 -0.5286 -1.1212 -0.6933
  704MOL0     C94938  -1.676   9.935   4.328  0.1655  0.6231  0.3331
  704MOL0     C94939  -1.799   9.888   4.382 -0.1088 -0.2035  0.7131
  704MOL0     C94940  -1.868   9.948   4.486 -0.3837  0.5046  0.0619
  704MOL0     O94941  -1.978   9.887   4.544  0.0933  0.3939 -1.1534
  704MOL0     C94942  -2.065   9.811   4.458  0.1074 -0.5208 -0.0416
  704MOL0     C94943  -2.214   9.800   4.506 -0.0352 -0.1686  0.1975
  704MOL0     C94944  -2.301   9.927   4.496  0.1172  0.1077 -0.4135
  704MOL0     C94945  -2.410   9.921   4.614  0.5157 -0.0771  0.5705
  704MOL0     C94946  -2.507  10.041   4.619  0.3646  0.5411  0.0205
  704MOL0     C94947  -2.598  10.009   4.738  0.0435 -0.0407 -0.4129
  704MOL0     C94948  -2.703  10.123   4.764  0.3270  1.0356 -0.0851
  704MOL0     C94949  -2.750  10.112   4.908  0.0032 -0.9043 -0.1581
  704MOL0    Cl94950  -2.861   9.984   4.943  0.0810 -0.0910 -0.4174
  704MOL0     C94951  -1.819  10.062   4.537  0.4781  0.3726 -0.4847
  704MOL0     C94952  -1.698  10.117   4.494 -0.1417 -0.0912 -0.1809
  704MOL0     O94953  -1.404   9.944   4.234 -1.0213 -0.4985  0.4147
  704MOL0     C94954  -1.311  10.288   4.293  0.0491  0.2983  0.4098
  704MOL0     C94955  -1.216  10.384   4.270 -0.6467  0.2361  0.2264
  704MOL0     N94956  -0.507  10.530   4.318  0.1388  0.0222 -0.2710
  704MOL0     N94957  -0.401  10.569   4.377  0.0838 -0.3946  0.0630
  704MOL0     C94958   0.348   9.888   4.808  0.1041  0.6059  0.3651
  704MOL0     C94959   0.424   9.794   4.874 -0.0789  0.6280 -0.7118
  704MOL0     C94960   0.633   9.533   5.169 -1.0260  0.0301  0.2961
  704MOL0     C94961   0.587   9.403   5.153  0.2772 -0.4867 -0.1474
  704MOL0     C94962   0.656   9.295   5.204 -0.3398  0.4883  0.1996
  704MOL0     C94963   0.788   9.313   5.251 -0.6685  0.3002  0.1710
  704MOL0     O94964   0.847   9.188   5.284 -0.1135 -0.0369 -0.2466
  704MOL0     C94965   0.975   9.187   5.351 -0.1870 -0.0191 -0.1057
  704MOL0     C94966   1.079   9.180   5.238 -0.8714  0.1484  0.3712
  704MOL0     C94967   1.221   9.166   5.302  0.4736 -0.0125  0.6027
  704MOL0     C94968   1.326   9.158   5.199 -0.1271  0.1420  0.7983
  704MOL0     C94969   1.453   9.134   5.258  0.0940  0.2403 -0.3207
  704MOL0     C94970   1.560   9.113   5.307  0.1526  0.3722  1.2743
  704MOL0     C94971   0.838   9.438   5.264 -0.3377 -0.1075 -0.1980
  704MOL0     C94972   0.764   9.547   5.216  1.0269 -0.1746 -0.4245
  704MOL0     H94973   0.197   9.726   5.128  0.7852  1.3418  1.1471
  704MOL0     H94974   0.079   9.901   5.018 -0.7500 -0.9187 -2.3603
  704MOL0     H94975   0.302  10.165   4.803 -0.9704 -0.4518  0.4738
  704MOL0     H94976   0.264  10.117   4.639 -2.8459  1.4246 -1.6626
  704MOL0     H94977   0.073  10.264   4.821 -4.9231  0.1487 -1.6965
  704MOL0     H94978   0.179  10.340   4.703 -0.6067 -0.4600 -0.2123
  704MOL0     H94979   0.055  10.214   4.525 -2.5308 -0.4846 -1.8237
  704MOL0     H94980  -0.047  10.124   4.647 -1.7307  0.4067 -1.7267
  704MOL0     H94981  -0.115  10.357   4.732 -0.7741 -0.5998 -0.5497
  704MOL0     H94982  -0.029  10.440   4.608  0.6555  0.0526  1.3072
  704MOL0     H94983  -0.266  10.245   4.590  1.7920 -0.5053  1.0392
  704MOL0     H94984  -0.264  10.419   4.564 -1.3483  0.2799  0.6185
  704MOL0     H94985  -0.134  10.205   4.381 -1.6631 -0.4258 -0.9887
  704MOL0     H94986  -0.278  10.288   4.340  1.0117 -1.1553 -2.1616
  704MOL0     H94987   0.008  10.418   4.355  0.2907  0.7095 -0.1960
  704MOL0     H94988  -0.090  10.382   4.219  2.8634 -0.8551  0.0151
  704MOL0     H94989  -0.096  10.626   4.262 -1.9848  0.8431 -2.3394
  704MOL0     H94990  -0.133  10.599   4.431  1.9925  0.3130 -0.7715
  704MOL0     H94991  -0.282  10.521   4.077 -0.1632 -0.8374  0.2201
  704MOL0     H94992  -0.647  10.572   4.050 -1.6923 -1.0029  1.4099
  704MOL0     H94993  -0.518  10.467   3.986  0.5904 -1.6106  1.1533
  704MOL0     H94994  -0.616  10.290   4.164  1.5570 -1.3705 -2.9264
  704MOL0     H94995  -0.686  10.316   3.997  1.0035  0.9398 -0.8724
  704MOL0     H94996  -0.763  10.460   4.264 -2.2732 -1.7346  1.4260
  704MOL0     H94997  -0.829  10.308   4.228  0.5046 -0.8868  0.5367
  704MOL0     H94998  -0.922  10.393   4.014  0.9179 -1.7976  0.3272
  704MOL0     H94999  -0.876  10.558   4.057 -2.4424  1.0190  0.6084
  704MOL0     H95000  -1.001  10.200   4.092 -0.3114  1.4578 -1.3568
  704MOL0     H95001  -1.222   9.952   4.063 -0.2035  1.4248 -0.0274
  704MOL0     H95002  -1.050   9.991   4.058  0.6951 -0.3941  0.0546
  704MOL0     H95003  -1.117   9.920   4.204 -0.0496 -1.6161 -2.2157
  704MOL0     H95004  -1.627   9.896   4.240 -0.0475  1.0029  0.0432
  704MOL0     H95005  -1.826   9.793   4.336  0.9632 -0.4169  0.4918
  704MOL0     H95006  -2.063   9.839   4.352 -1.5436 -2.4279 -0.6465
  704MOL0     H95007  -2.031   9.708   4.449  0.9027 -0.2731  0.0587
  704MOL0     H95008  -2.258   9.716   4.452 -1.3009 -0.0835  1.0506
  704MOL0     H95009  -2.210   9.773   4.612  0.5226 -2.0399 -0.2613
  704MOL0     H95010  -2.350   9.925   4.398 -1.1042 -0.3309  0.1796
  704MOL0     H95011  -2.243  10.020   4.501  1.0862 -0.3719 -2.0178
  704MOL0     H95012  -2.473   9.833   4.601 -0.9775  1.1237 -0.7150
  704MOL0     H95013  -2.355   9.915   4.708  0.1522 -1.5758  0.7100
  704MOL0     H95014  -2.557  10.048   4.522  0.1505  0.2919  0.1116
  704MOL0     H95015  -2.459  10.137   4.640  0.3522  0.4672  0.3959
  704MOL0     H95016  -2.649   9.914   4.720  1.2694 -0.7323 -0.3918
  704MOL0     H95017  -2.541   9.990   4.830 -2.1367 -2.1244  0.6195
  704MOL0     H95018  -2.784  10.094   4.696 -0.2167 -3.4424  2.1271
  704MOL0     H95019  -2.657  10.220   4.740  1.4655  0.4971 -0.1487
  704MOL0     H95020  -2.809  10.203   4.923  0.6430 -0.5531  0.2698
  704MOL0     H95021  -2.673  10.116   4.986 -2.0411 -0.4942  1.9698
  704MOL0     H95022  -1.883  10.115   4.607  0.1284 -0.7299  0.0445
  704MOL0     H95023  -1.663  10.211   4.536  1.4105 -0.2710 -1.0243
  704MOL0     H95024  -1.401  10.323   4.343 -1.5023 -2.0924 -0.5419
  704MOL0     H95025  -1.218  10.482   4.315  1.3000 -0.6134  2.3771
  704MOL0     H95026   0.391   9.931   4.718  0.0631 -1.6481 -0.8013
  704MOL0     H95027   0.521   9.763   4.838 -0.5770  0.3543 -1.8858
  704MOL0     H95028   0.485   9.393   5.117 -0.1504 -1.8714  1.3383
  704MOL0     H95029   0.617   9.194   5.201  0.7384  0.0605  0.3005
  704MOL0     H95030   0.992   9.261   5.431  3.4786 -0.5449 -0.2558
  704MOL0     H95031   0.984   9.094   5.407 -1.4143  1.1214  2.1706
  704MOL0     H95032   1.078   9.270   5.176  1.0682  0.9641  1.4541
  704MOL0     H95033   1.061   9.097   5.169 -1.3610  1.6398 -1.3910
  704MOL0     H95034   1.227   9.080   5.370  0.9127 -0.7140 -0.2908
  704MOL0     H95035   1.245   9.248   5.369  1.9603 -0.8197  1.1106
  704MOL0     H95036   1.334   9.247   5.135  1.8065 -0.0782  0.6761
  704MOL0     H95037   1.310   9.071   5.135 -0.6877  0.3815  0.6065
  704MOL0     H95038   1.660   9.086   5.337  1.1928 -2.4479 -3.5664
  704MOL0     H95039   0.937   9.457   5.305 -1.2471  1.5334  1.3575
  704MOL0     H95040   0.813   9.644   5.221 -1.0929  0.9172  0.4245
  705MOL0     O95041   9.822   1.500   0.290 -0.3089 -0.3469 -0.2419
  705MOL0     C95042   9.909   1.423   0.319  0.4577  0.3930  0.0782
  705MOL0     O95043   9.888   1.299   0.359 -0.0591  0.0396 -0.0236
  705MOL0     C95044   9.767   1.229   0.372 -1.1011 -0.6885  0.6120
  705MOL0     C95045   9.793   1.095   0.407  0.0777 -0.3025 -0.0169
  705MOL0     C95046   9.683   1.012   0.431 -0.3126  0.4407 -0.3181
  705MOL0     C95047   9.547   1.057   0.414  0.2494  0.5460 -0.7019
  705MOL0     O95048   9.447   0.966   0.444 -0.2926 -0.6749 -0.2011
  705MOL0     C95049   9.312   1.005   0.412 -0.1898 -0.8167 -0.7359
  705MOL0     C95050   9.220   0.897   0.418 -0.7586  0.3075  0.3889
  705MOL0     C95051   9.235   0.819   0.546  0.5317  1.0191  0.3808
  705MOL0     C95052   9.217   0.902   0.675  0.9327 -0.2730 -0.0919
  705MOL0     C95053   9.299   0.851   0.794  0.6749  0.6627  0.1481
  705MOL0     C95054   9.233   0.902   0.922 -0.4940  0.2624 -0.9498
  705MOL0     C95055   9.315   0.896   1.056  0.6032 -0.0783 -0.2026
  705MOL0     C95056   9.241   0.934   1.182 -0.1429  0.0308 -0.0537
  705MOL0     N95057   9.119   0.853   1.199 -1.0464 -0.4550  1.4056
  705MOL0     C95058   8.997   0.910   1.231  0.3929 -0.5938 -0.5309
  705MOL0     C95059   8.908   0.809   1.240 -0.2907  0.5997  0.3274
  705MOL0     C95060   8.766   0.815   1.285 -0.3605  0.1266 -0.0424
  705MOL0     C95061   8.672   0.706   1.234  0.0289  0.1065  0.9039
  705MOL0     C95062   8.524   0.742   1.230  0.3565  1.0486  0.0314
  705MOL0     C95063   8.445   0.627   1.171 -0.0726  0.2536  0.8025
  705MOL0     O95064   8.442   0.526   1.273  0.3617  0.1816  0.5027
  705MOL0     C95065   8.339   0.438   1.286  0.4056  0.3946  0.5829
  705MOL0     C95066   8.273   0.390   1.168 -0.4466  0.7684  0.3424
  705MOL0     C95067   8.163   0.297   1.180  0.5050 -0.0383 -0.2866
  705MOL0     C95068   8.114   0.249   1.044  0.0995 -0.7683 -0.2851
  705MOL0     C95069   8.111   0.251   1.304 -0.2798 -0.3286 -0.0044
  705MOL0     C95070   8.000   0.154   1.328  0.2141  0.2313 -0.1079
  705MOL0     O95071   7.938   0.096   1.213  0.7676  0.5181  0.0812
  705MOL0     C95072   7.845  -0.010   1.219  0.3051  0.4635  0.7548
  705MOL0     C95073   7.765  -0.040   1.334  0.4866  0.3673  0.8116
  705MOL0     C95074   7.659  -0.138   1.325 -0.3489 -0.2045  1.1014
  705MOL0     C95075   7.644  -0.207   1.205  0.0774 -0.4058 -0.2608
  705MOL0     O95076   7.560  -0.313   1.204  0.5795 -0.5862 -1.1786
  705MOL0     C95077   7.522  -0.391   1.089  0.5462 -0.7196  0.1591
  705MOL0     C95078   7.375  -0.434   1.087 -0.2412  0.0414 -0.3855
  705MOL0     C95079   7.359  -0.543   1.185  0.7198 -0.6496 -0.5457
  705MOL0     C95080   7.219  -0.613   1.182  0.8348  0.3565 -0.2780
  705MOL0     C95081   7.199  -0.718   1.294  0.1707  0.3906  0.3808
  705MOL0     C95082   7.048  -0.749   1.305  0.1456  0.5886  0.2145
  705MOL0     C95083   7.023  -0.866   1.398 -0.4761 -0.1486  0.0570
  705MOL0     C95084   6.881  -0.913   1.417  0.5424 -0.1011 -0.7308
  705MOL0    Cl95085   6.888  -1.086   1.462 -0.0666 -0.3272  0.1702
  705MOL0     C95086   7.729  -0.172   1.099 -0.3153  0.5271  0.1299
  705MOL0     C95087   7.825  -0.074   1.102 -0.1062  0.0385  0.2403
  705MOL0     O95088   7.975   0.128   1.448  0.0010 -0.4093  0.2923
  705MOL0     C95089   8.191   0.303   1.417  0.0990 -0.3328 -0.6340
  705MOL0     C95090   8.285   0.399   1.410  0.4224  0.2554 -0.2288
  705MOL0     N95091   8.971   0.694   1.206  0.0332  0.7324  0.0809
  705MOL0     N95092   9.099   0.718   1.185  0.1682  0.0803 -0.9877
  705MOL0     C95093   9.527   1.192   0.379 -0.1471 -0.9129  0.0137
  705MOL0     C95094   9.639   1.276   0.358 -0.1732 -0.4698  0.4092
  705MOL0     C95095  10.052   1.465   0.317  0.9997  0.7052  0.4733
  705MOL0     C95096  10.078   1.599   0.306  0.0288  0.4670  0.2883
  705MOL0     C95097  10.207   1.646   0.297 -0.8101 -0.4146  0.0160
  705MOL0     C95098  10.313   1.553   0.299  0.3960 -0.9530  0.1457
  705MOL0     O95099  10.439   1.615   0.297  0.4632  0.6415 -0.7745
  705MOL0     C95100  10.554   1.531   0.302 -0.4807  0.5010 -0.3852
  705MOL0     C95101  10.693   1.609   0.291  0.0450 -0.2188  0.0448
  705MOL0     C95102  10.737   1.660   0.431 -0.0491 -0.2139  0.0110
  705MOL0     C95103  10.856   1.752   0.423 -0.9779 -0.1269  0.1866
  705MOL0     C95104  10.900   1.782   0.563 -0.2226 -0.5983  0.5075
  705MOL0     C95105  10.935   1.815   0.669 -0.5815  0.4420 -0.2159
  705MOL0     C95106  10.286   1.419   0.319  0.1506  0.8608  0.3398
  705MOL0     C95107  10.154   1.370   0.332  0.2319 -0.2831  1.0781
  705MOL0     H95108   9.889   1.047   0.420 -0.5461 -1.5554  0.0841
  705MOL0     H95109   9.697   0.911   0.469 -0.6220  0.6444  0.3455
  705MOL0     H95110   9.269   1.091   0.464 -1.9244 -0.4427 -2.6473
  705MOL0     H95111   9.320   1.049   0.313  2.4131  2.1226  0.6388
  705MOL0     H95112   9.116   0.927   0.405 -0.0945  2.6609 -0.0689
  705MOL0     H95113   9.261   0.830   0.342 -1.2329 -2.4606  2.4083
  705MOL0     H95114   9.166   0.736   0.555 -0.5016  1.3264 -3.1134
  705MOL0     H95115   9.338   0.781   0.547  0.3761 -0.0203 -3.6317
  705MOL0     H95116   9.259   1.003   0.670 -0.1025  0.3530  2.3965
  705MOL0     H95117   9.109   0.906   0.689  0.2467 -4.9740 -2.1414
  705MOL0     H95118   9.296   0.741   0.794 -0.6888  0.6874 -0.8096
  705MOL0     H95119   9.403   0.880   0.773 -0.3432  1.6032 -4.6030
  705MOL0     H95120   9.212   1.007   0.901 -0.4799  0.2807 -0.8711
  705MOL0     H95121   9.141   0.848   0.946 -0.6475  1.3619  1.1852
  705MOL0     H95122   9.342   0.790   1.067  1.2520  0.3472  3.5127
  705MOL0     H95123   9.414   0.939   1.041  1.0340 -1.2437 -0.8269
  705MOL0     H95124   9.210   1.038   1.164  1.2105  0.9665  2.4460
  705MOL0     H95125   9.311   0.929   1.266 -1.6440 -2.0249  1.1500
  705MOL0     H95126   8.986   1.016   1.250  1.3292 -0.9016  2.0723
  705MOL0     H95127   8.779   0.803   1.393 -0.4575 -1.5014 -0.1772
  705MOL0     H95128   8.729   0.915   1.261 -0.3634  0.5290  1.5158
  705MOL0     H95129   8.684   0.616   1.294  1.7894  0.1478  0.6706
  705MOL0     H95130   8.701   0.684   1.131  0.4168  0.7196  0.8777
  705MOL0     H95131   8.514   0.819   1.153  1.5011 -0.1086 -1.3252
  705MOL0     H95132   8.491   0.775   1.329  1.5718 -0.7594  1.0798
  705MOL0     H95133   8.491   0.588   1.080 -1.1863  0.0991  0.2956
  705MOL0     H95134   8.342   0.653   1.147 -1.2054 -0.8331  3.9852
  705MOL0     H95135   8.323   0.422   1.077  0.3503  0.7219  0.7534
  705MOL0     H95136   8.012   0.289   1.038  0.6147  1.3105  2.6590
  705MOL0     H95137   8.180   0.289   0.966  0.9859 -1.7769 -0.0703
  705MOL0     H95138   8.123   0.142   1.025  1.5266 -0.6264 -0.5299
  705MOL0     H95139   7.786  -0.003   1.434 -0.7098  1.9475  0.5050
  705MOL0     H95140   7.598  -0.165   1.410 -1.9587 -0.8553 -0.2057
  705MOL0     H95141   7.552  -0.339   0.997  0.7563  1.5403  1.4265
  705MOL0     H95142   7.592  -0.475   1.084  3.2313  1.3101 -4.5200
  705MOL0     H95143   7.315  -0.345   1.109 -1.7091 -1.1590  0.6092
  705MOL0     H95144   7.345  -0.472   0.989  0.5562  0.5090 -0.8210
  705MOL0     H95145   7.363  -0.498   1.285  0.3687  1.3614 -1.4049
  705MOL0     H95146   7.432  -0.624   1.172 -1.5510 -2.8852 -0.3497
  705MOL0     H95147   7.146  -0.533   1.198  1.7724  1.3229 -0.6631
  705MOL0     H95148   7.202  -0.652   1.081 -0.7779  3.6081 -1.4356
  705MOL0     H95149   7.233  -0.694   1.395 -0.1300  1.0657  0.3310
  705MOL0     H95150   7.264  -0.804   1.277  0.9367  0.9306  0.5165
  705MOL0     H95151   6.991  -0.660   1.334  0.6211  0.5306  1.3390
  705MOL0     H95152   7.026  -0.784   1.204  0.6604 -1.2844  0.7126
  705MOL0     H95153   7.061  -0.835   1.496 -1.6622 -2.1870  1.2081
  705MOL0     H95154   7.079  -0.949   1.354 -0.8391  0.3329 -1.3752
  705MOL0     H95155   6.816  -0.898   1.331 -1.8821 -0.8734  0.8396
  705MOL0     H95156   6.834  -0.851   1.495 -0.4882  2.0029 -2.8862
  705MOL0     H95157   7.721  -0.225   1.005 -1.9963  3.0858 -1.2931
  705MOL0     H95158   7.887  -0.045   1.017  3.8064 -0.1059  2.7963
  705MOL0     H95159   8.176   0.272   1.520 -0.0292  0.4475 -0.4086
  705MOL0     H95160   8.332   0.424   1.505 -1.3381  1.4079  0.3865
  705MOL0     H95161   9.433   1.246   0.366  1.5403  1.5372 -4.0780
  705MOL0     H95162   9.637   1.370   0.303  0.0873 -0.3601  0.5861
  705MOL0     H95163   9.996   1.670   0.298  0.2895  0.6945 -0.4529
  705MOL0     H95164  10.234   1.751   0.287  0.9630 -1.0023 -2.1110
  705MOL0     H95165  10.558   1.476   0.396 -2.9348  2.2796  0.8713
  705MOL0     H95166  10.561   1.460   0.219  3.1720 -0.6650  0.7411
  705MOL0     H95167  10.694   1.682   0.210 -0.2975 -3.0241 -2.6395
  705MOL0     H95168  10.772   1.545   0.251  0.9979  0.1631  1.2334
  705MOL0     H95169  10.758   1.577   0.500 -2.6306  0.6818  2.0047
  705MOL0     H95170  10.653   1.708   0.482 -0.7352 -2.2886  0.9608
  705MOL0     H95171  10.836   1.847   0.372 -0.0195  0.4549  0.8433
  705MOL0     H95172  10.946   1.711   0.377 -1.9326 -1.7052 -0.3392
  705MOL0     H95173  10.966   1.843   0.768 -1.4447 -1.5849  0.6980
  705MOL0     H95174  10.366   1.349   0.341 -1.0349 -0.9504 -0.8325
  705MOL0     H95175  10.127   1.265   0.346 -0.6014 -0.3142 -0.4760
  706MOL0     O95176  10.374   9.264   1.423 -0.4053 -0.0695 -0.6149
  706MOL0     C95177  10.450   9.313   1.513 -0.2123 -0.4163  0.2378
  706MOL0     O95178  10.433   9.305   1.649  0.0049 -1.0534  0.1477
  706MOL0     C95179  10.344   9.213   1.706  0.5688  0.6164  0.8400
  706MOL0     C95180  10.203   9.210   1.692 -0.5693  0.1195 -0.3468
  706MOL0     C95181  10.127   9.116   1.758  0.6421  0.2064  0.4598
  706MOL0     C95182  10.184   9.015   1.832 -0.6168 -1.0051 -0.1190
  706MOL0     O95183  10.116   8.921   1.899 -0.2843 -0.3428  0.1833
  706MOL0     C95184   9.986   8.883   1.832 -0.9045  0.3751  0.0505
  706MOL0     C95185   9.930   8.751   1.898 -0.0823 -0.7207 -0.3001
  706MOL0     C95186   9.780   8.746   1.857  0.4733  0.6884  0.0811
  706MOL0     C95187   9.727   8.606   1.903  0.6874  0.3319 -0.3155
  706MOL0     C95188   9.577   8.585   1.882 -0.0406 -0.6987  0.2989
  706MOL0     C95189   9.513   8.460   1.949  0.3349 -0.0433 -0.3563
  706MOL0     C95190   9.367   8.502   2.003 -0.1852  0.1719  0.4855
  706MOL0     C95191   9.259   8.538   1.898  0.0470  0.5471  0.0680
  706MOL0     N95192   9.129   8.574   1.950 -0.0218 -0.2624 -0.1552
  706MOL0     C95193   9.105   8.642   2.065  0.2165 -0.0746 -0.3326
  706MOL0     C95194   8.973   8.648   2.080 -0.5984  0.2721 -0.6173
  706MOL0     C95195   8.893   8.723   2.174 -0.5970 -0.2249 -0.6798
  706MOL0     C95196   8.808   8.623   2.246  0.1288  0.2619  0.2471
  706MOL0     C95197   8.700   8.681   2.336  0.4432 -0.9058 -0.6226
  706MOL0     C95198   8.630   8.578   2.423  0.2002  0.7742  0.6179
  706MOL0     O95199   8.545   8.632   2.527  0.4581 -0.4966 -0.1549
  706MOL0     C95200   8.521   8.551   2.634 -0.1901  1.0120  0.2305
  706MOL0     C95201   8.521   8.607   2.762 -0.4460 -0.0522  0.2704
  706MOL0     C95202   8.510   8.530   2.876 -0.9296 -0.3072 -0.1376
  706MOL0     C95203   8.525   8.599   3.001  0.0408  0.6118 -0.8860
  706MOL0     C95204   8.486   8.393   2.869 -0.3488 -0.2188  0.4812
  706MOL0     C95205   8.459   8.310   2.986 -0.1438 -0.0817  0.2615
  706MOL0     O95206   8.501   8.181   2.989 -0.8816  0.2875 -0.2165
  706MOL0     C95207   8.518   8.100   3.093 -0.1040  0.2034  0.1204
  706MOL0     C95208   8.505   8.138   3.221 -0.1684  0.6168 -0.3855
  706MOL0     C95209   8.549   8.045   3.319  0.6611 -0.4617 -0.2570
  706MOL0     C95210   8.589   7.909   3.291 -1.4898 -0.2596 -1.0791
  706MOL0     O95211   8.631   7.828   3.394 -0.6262  0.2318 -0.3955
  706MOL0     C95212   8.702   7.700   3.378  0.2487  0.5414 -0.1638
  706MOL0     C95213   8.784   7.678   3.504 -0.4427  0.7477  0.3161
  706MOL0     C95214   8.906   7.764   3.507 -0.1817 -0.1822 -0.4789
  706MOL0     C95215   8.992   7.725   3.638  0.2902 -0.3582 -0.5441
  706MOL0     C95216   9.123   7.812   3.655 -0.4526 -0.5068  0.0781
  706MOL0     C95217   9.201   7.809   3.519 -0.3420 -0.2014 -0.2138
  706MOL0     C95218   9.354   7.828   3.550  0.4509  0.3381  0.1085
  706MOL0     C95219   9.395   7.963   3.592  0.8480  0.1656  0.1169
  706MOL0    Cl95220   9.393   8.066   3.437 -0.1825 -0.1220  0.1252
  706MOL0     C95221   8.600   7.876   3.157  0.2105  0.0946 -0.2554
  706MOL0     C95222   8.568   7.972   3.064 -0.0645 -0.0132  0.0432
  706MOL0     O95223   8.378   8.362   3.061 -0.3804  0.3686 -0.6463
  706MOL0     C95224   8.473   8.338   2.742 -0.1896 -0.1800 -0.7124
  706MOL0     C95225   8.487   8.412   2.627  0.4204 -0.6244  0.8651
  706MOL0     N95226   8.914   8.570   1.988  0.5118  0.0279 -0.4055
  706MOL0     N95227   9.006   8.528   1.906 -0.1117 -1.0460  0.0243
  706MOL0     C95228  10.328   9.004   1.834 -0.1564 -0.2159  0.1370
  706MOL0     C95229  10.401   9.113   1.779 -0.0989  0.8339 -0.6398
  706MOL0     C95230  10.581   9.357   1.470  0.1525 -0.4031  0.9100
  706MOL0     C95231  10.685   9.357   1.560  0.2170 -0.6776  0.7931
  706MOL0     C95232  10.804   9.422   1.537 -0.7644  0.6995  0.3770
  706MOL0     C95233  10.826   9.480   1.412  0.0139 -0.3719  0.4757
  706MOL0     O95234  10.947   9.543   1.386  0.5741  0.7576  0.3642
  706MOL0     C95235  10.945   9.646   1.288 -0.6171  0.1882 -0.4603
  706MOL0     C95236  11.009   9.592   1.151  0.4286  0.6038 -0.3625
  706MOL0     C95237  11.143   9.535   1.171 -0.2342  0.4727 -0.6576
  706MOL0     C95238  11.215   9.482   1.052  0.5001  0.6463 -0.5761
  706MOL0     C95239  11.153   9.360   0.999  0.1423  0.1658  0.2274
  706MOL0     C95240  11.096   9.273   0.945  0.4445  0.5973  0.9697
  706MOL0     C95241  10.733   9.468   1.307  0.2646  0.5312 -0.5103
  706MOL0     C95242  10.608   9.410   1.340 -0.7370 -0.3990  0.3368
  706MOL0     H95243  10.144   9.280   1.633 -1.4440  0.9690  1.4470
  706MOL0     H95244  10.021   9.120   1.734  0.2507  2.8597  2.1482
  706MOL0     H95245   9.909   8.959   1.848 -1.4537  0.1561 -1.4146
  706MOL0     H95246   9.984   8.866   1.724 -1.0081  1.2268 -0.0889
  706MOL0     H95247   9.999   8.670   1.873  2.7595  0.5940  2.4308
  706MOL0     H95248   9.939   8.761   2.007  1.7076  1.2524 -0.5608
  706MOL0     H95249   9.738   8.829   1.915  1.3578  1.0404  0.2281
  706MOL0     H95250   9.754   8.758   1.751 -1.0053 -1.3752  0.1342
  706MOL0     H95251   9.765   8.521   1.845 -3.6333 -1.2545 -1.1726
  706MOL0     H95252   9.744   8.601   2.011 -0.7824  0.2351 -0.0777
  706MOL0     H95253   9.526   8.675   1.918 -1.3430 -1.7848  1.3074
  706MOL0     H95254   9.563   8.576   1.774  0.0229 -2.1092  0.3892
  706MOL0     H95255   9.490   8.386   1.872  2.4915 -1.7105  0.5259
  706MOL0     H95256   9.574   8.417   2.029  0.8570  0.8434 -0.2618
  706MOL0     H95257   9.331   8.425   2.072 -0.1775 -1.0362 -0.8119
  706MOL0     H95258   9.391   8.576   2.079 -1.0454 -1.9629  3.0099
  706MOL0     H95259   9.243   8.452   1.833  2.5128 -1.3606  1.7670
  706MOL0     H95260   9.295   8.620   1.835  1.2762 -0.3223 -0.4037
  706MOL0     H95261   9.168   8.710   2.122 -1.7146  1.8673 -0.3968
  706MOL0     H95262   8.949   8.779   2.249 -2.2795  3.1052 -1.6985
  706MOL0     H95263   8.826   8.793   2.125 -1.0652 -1.5760 -2.0668
  706MOL0     H95264   8.868   8.552   2.305  1.7323  0.9676 -0.4598
  706MOL0     H95265   8.756   8.562   2.171  1.9830 -0.2435 -0.6997
  706MOL0     H95266   8.619   8.718   2.273  0.2585 -1.7678 -0.9070
  706MOL0     H95267   8.748   8.759   2.396 -0.3606  1.0577 -2.4314
  706MOL0     H95268   8.706   8.513   2.468 -0.0381  0.5300  0.6689
  706MOL0     H95269   8.570   8.511   2.361 -1.2253  2.6667 -0.1282
  706MOL0     H95270   8.540   8.713   2.767 -2.6388  0.3563  0.4842
  706MOL0     H95271   8.423   8.609   3.042 -0.8229 -2.2012 -2.1340
  706MOL0     H95272   8.587   8.537   3.066  0.6785  1.6106 -0.5287
  706MOL0     H95273   8.573   8.697   2.991 -1.0037  1.1118 -1.1638
  706MOL0     H95274   8.471   8.232   3.264 -0.4617  0.1342  0.4762
  706MOL0     H95275   8.530   8.096   3.413 -2.4064 -0.0237 -0.9732
  706MOL0     H95276   8.632   7.618   3.362 -0.3731  1.4192 -2.4949
  706MOL0     H95277   8.770   7.699   3.292  0.1004  2.3610 -0.3545
  706MOL0     H95278   8.721   7.685   3.592 -0.0760 -1.2421  0.7945
  706MOL0     H95279   8.817   7.574   3.497 -2.6173  0.1209 -3.1187
  706MOL0     H95280   8.874   7.869   3.516  2.0367  0.6124 -1.1631
  706MOL0     H95281   8.957   7.757   3.411 -2.5293 -1.4032 -1.7324
  706MOL0     H95282   8.933   7.730   3.730  0.9783 -4.2588  0.3079
  706MOL0     H95283   9.021   7.620   3.625 -0.1280 -0.5228 -0.1998
  706MOL0     H95284   9.187   7.771   3.734  0.3862 -0.8596 -0.7721
  706MOL0     H95285   9.103   7.917   3.677 -0.2776  0.7062 -4.4814
  706MOL0     H95286   9.197   7.707   3.480 -0.0224  0.4300 -1.9867
  706MOL0     H95287   9.163   7.886   3.452 -2.9425 -0.4854  0.8216
  706MOL0     H95288   9.412   7.793   3.464 -0.6606 -1.6175  0.0944
  706MOL0     H95289   9.379   7.759   3.631  1.0508  0.2434 -0.1533
  706MOL0     H95290   9.497   7.966   3.634  0.5525  2.1898  0.7985
  706MOL0     H95291   9.319   8.012   3.654  0.5352  0.7539 -0.7198
  706MOL0     H95292   8.621   7.779   3.114  2.2368  1.9697 -4.0172
  706MOL0     H95293   8.579   7.948   2.959 -0.9494  1.5601 -0.4242
  706MOL0     H95294   8.445   8.235   2.723 -0.2390 -0.0959 -1.1049
  706MOL0     H95295   8.475   8.367   2.529 -0.8286  3.6220 -1.1874
  706MOL0     H95296  10.385   8.933   1.894  0.5606  0.3509  0.1337
  706MOL0     H95297  10.507   9.123   1.802 -0.7362  3.4593  1.7340
  706MOL0     H95298  10.683   9.319   1.661  0.9210  0.1313  1.1282
  706MOL0     H95299  10.891   9.422   1.603 -1.3695  0.4238  1.2018
  706MOL0     H95300  10.844   9.684   1.269 -1.4441 -1.0151  1.3127
  706MOL0     H95301  11.019   9.722   1.316 -1.0993  1.2666 -1.9708
  706MOL0     H95302  11.010   9.682   1.090 -0.9755  2.1452  1.7665
  706MOL0     H95303  10.945   9.508   1.120  0.5517  0.3489  0.0717
  706MOL0     H95304  11.142   9.453   1.243  1.0956  0.5479 -0.5332
  706MOL0     H95305  11.206   9.613   1.215  2.8109 -0.7228 -2.5640
  706MOL0     H95306  11.318   9.466   1.086  0.3509  4.3592  2.2805
  706MOL0     H95307  11.224   9.564   0.979  0.6658  1.5341  0.4223
  706MOL0     H95308  11.032   9.209   0.887  0.6646  0.6130  0.7060
  706MOL0     H95309  10.762   9.493   1.205  3.3719 -1.0593 -0.1422
  706MOL0     H95310  10.540   9.409   1.256 -2.4251 -1.7799  1.6302
  707MOL0     O95311   2.439   8.241   3.689  0.7046 -0.0077  0.5342
  707MOL0     C95312   2.459   8.160   3.599  0.3799  0.7582 -0.1717
  707MOL0     O95313   2.367   8.138   3.501 -0.6137 -0.2321  0.1119
  707MOL0     C95314   2.236   8.182   3.516 -0.4346 -0.4155  0.1579
  707MOL0     C95315   2.161   8.144   3.628 -0.0017  0.8222 -0.0230
  707MOL0     C95316   2.021   8.161   3.628  0.9952  0.6772 -0.4319
  707MOL0     C95317   1.949   8.225   3.520  1.3046  0.8415 -0.6904
  707MOL0     O95318   1.809   8.233   3.526 -1.1244 -0.4335 -0.5899
  707MOL0     C95319   1.752   8.158   3.416  0.3595 -0.0326  0.6789
  707MOL0     C95320   1.614   8.225   3.409 -0.0544  0.7513 -0.1169
  707MOL0     C95321   1.524   8.166   3.519 -0.1830 -0.2364  0.3112
  707MOL0     C95322   1.402   8.104   3.454  0.2385  0.1932 -0.1031
  707MOL0     C95323   1.291   8.081   3.546 -0.2076  0.4008 -0.3279
  707MOL0     C95324   1.162   8.046   3.470  0.2459 -0.0386 -0.3127
  707MOL0     C95325   1.058   7.968   3.545  0.4571  0.3144  0.0454
  707MOL0     C95326   0.931   7.918   3.464 -0.1141 -0.7944 -1.1866
  707MOL0     N95327   0.813   7.886   3.552  0.5975 -0.5734 -1.2456
  707MOL0     C95328   0.785   7.764   3.617  0.3053  0.7691 -1.0415
  707MOL0     C95329   0.664   7.796   3.683 -0.7964 -0.7068  0.5343
  707MOL0     C95330   0.606   7.709   3.797 -0.4920  0.2120  0.3592
  707MOL0     C95331   0.456   7.709   3.810 -0.1883 -0.5032  0.0117
  707MOL0     C95332   0.369   7.688   3.682 -0.1174 -0.6205 -0.1109
  707MOL0     C95333   0.422   7.579   3.595  0.5036 -0.6826  0.8215
  707MOL0     O95334   0.423   7.453   3.669 -0.8187  0.3142  0.6805
  707MOL0     C95335   0.304   7.394   3.675  0.4229  0.2613 -0.0577
  707MOL0     C95336   0.272   7.287   3.591  0.5132  0.4653 -0.7548
  707MOL0     C95337   0.141   7.227   3.608 -0.5480  0.2227 -0.4729
  707MOL0     C95338   0.108   7.116   3.503  0.0230  0.2299  0.2927
  707MOL0     C95339   0.045   7.280   3.699 -0.5840  0.2485  0.1664
  707MOL0     C95340  -0.095   7.238   3.718  0.4355  0.3809 -0.2806
  707MOL0     O95341  -0.123   7.115   3.684 -0.3310  0.3116  0.2690
  707MOL0     C95342  -0.248   7.074   3.710  0.6505  0.0264  0.3669
  707MOL0     C95343  -0.340   7.064   3.610 -0.1817 -0.3275 -0.1717
  707MOL0     C95344  -0.478   7.030   3.623 -0.1897 -0.1429 -0.0438
  707MOL0     C95345  -0.516   6.993   3.755 -0.6710  0.1050 -0.0400
  707MOL0     O95346  -0.653   6.981   3.776  0.0633  0.1507 -0.5844
  707MOL0     C95347  -0.701   6.894   3.880 -0.5373  0.7476  0.1723
  707MOL0     C95348  -0.854   6.860   3.843 -0.6407  0.2320  0.0900
  707MOL0     C95349  -0.856   6.777   3.712  0.3726  0.5179 -0.2316
  707MOL0     C95350  -1.003   6.734   3.672  0.4115 -0.3997  0.0345
  707MOL0     C95351  -1.085   6.851   3.611  0.8307  0.3481 -0.0086
  707MOL0     C95352  -1.235   6.818   3.581 -0.1662  0.1784  0.2273
  707MOL0     C95353  -1.327   6.809   3.700 -0.4132 -0.0185  1.0340
  707MOL0     C95354  -1.471   6.777   3.649  0.9510 -0.0238 -0.0652
  707MOL0    Cl95355  -1.464   6.615   3.569 -0.0667 -0.0258  0.2410
  707MOL0     C95356  -0.419   6.985   3.859  0.7185  0.5457 -0.0030
  707MOL0     C95357  -0.290   7.027   3.838 -0.4671 -0.1373  0.5641
  707MOL0     O95358  -0.181   7.324   3.765 -0.2567  0.7095  0.2789
  707MOL0     C95359   0.091   7.391   3.781 -0.6997  0.3520  0.5246
  707MOL0     C95360   0.215   7.446   3.769  0.1545 -0.2542 -0.2451
  707MOL0     N95361   0.637   7.928   3.671  0.7103 -0.9881 -0.7209
  707MOL0     N95362   0.724   7.982   3.598  0.1291 -0.0038  0.8209
  707MOL0     C95363   2.023   8.275   3.418 -0.0527 -1.1306  0.1494
  707MOL0     C95364   2.171   8.254   3.418  0.0727 -0.5358  0.1544
  707MOL0     C95365   2.558   8.056   3.623 -0.1633  0.3620  0.0335
  707MOL0     C95366   2.634   8.044   3.743  0.3448 -0.0514 -0.8728
  707MOL0     C95367   2.736   7.946   3.760  0.3872  0.6531  0.5133
  707MOL0     C95368   2.764   7.851   3.656  0.1888 -0.4313  0.0602
  707MOL0     O95369   2.870   7.758   3.664 -0.2495 -0.4171  0.3668
  707MOL0     C95370   2.855   7.638   3.591  0.5135  0.4636 -0.8121
  707MOL0     C95371   2.746   7.549   3.645  0.1742 -1.0818 -0.3411
  707MOL0     C95372   2.735   7.407   3.595 -0.4625  0.2160 -0.3918
  707MOL0     C95373   2.700   7.418   3.450  1.0707 -0.2951 -1.0480
  707MOL0     C95374   2.705   7.290   3.386  0.8894  0.0452  0.2809
  707MOL0     C95375   2.726   7.199   3.311  0.1209  0.0099 -0.0253
  707MOL0     C95376   2.683   7.865   3.544 -0.4163  0.6965 -0.4275
  707MOL0     C95377   2.587   7.964   3.527 -0.3132  0.0163  1.4627
  707MOL0     H95378   2.217   8.096   3.708 -0.6238  0.8390  0.4370
  707MOL0     H95379   1.967   8.126   3.716 -1.3551 -0.1307 -2.0976
  707MOL0     H95380   1.813   8.171   3.325 -2.8297 -1.0803 -1.8034
  707MOL0     H95381   1.735   8.051   3.433 -1.7679  0.0173 -0.7883
  707MOL0     H95382   1.631   8.332   3.426 -0.1406  0.6027  1.0235
  707MOL0     H95383   1.568   8.205   3.312 -0.6962 -0.3668  0.4037
  707MOL0     H95384   1.577   8.097   3.584  2.3269  0.5350 -0.7929
  707MOL0     H95385   1.492   8.249   3.583  2.0549  1.4923 -0.6412
  707MOL0     H95386   1.372   8.179   3.380  1.5821  0.6412 -0.2296
  707MOL0     H95387   1.419   8.013   3.395  0.0043  0.0395  0.0650
  707MOL0     H95388   1.322   7.994   3.605  1.8771  0.8580 -0.6905
  707MOL0     H95389   1.276   8.168   3.611  0.8011  0.4340 -0.1265
  707MOL0     H95390   1.113   8.139   3.437  2.1556  0.9905 -0.4195
  707MOL0     H95391   1.187   7.992   3.378 -0.9602  1.4203 -1.5685
  707MOL0     H95392   1.111   7.880   3.582 -1.5348 -1.3205 -0.8176
  707MOL0     H95393   1.022   8.028   3.629 -1.6161  0.5293 -0.9281
  707MOL0     H95394   0.946   7.830   3.401 -0.6086 -0.2399 -2.1045
  707MOL0     H95395   0.900   8.007   3.408 -0.6192  0.2359  0.6251
  707MOL0     H95396   0.827   7.664   3.608 -3.7003 -0.9819 -2.6864
  707MOL0     H95397   0.627   7.604   3.775  1.5741  0.6969 -0.2292
  707MOL0     H95398   0.650   7.729   3.895  0.9852  1.9906 -0.5795
  707MOL0     H95399   0.433   7.809   3.849  1.2711 -1.0690  2.4834
  707MOL0     H95400   0.420   7.636   3.883 -2.0494  0.5207  0.2031
  707MOL0     H95401   0.380   7.779   3.621  0.1543 -0.0504  0.7683
  707MOL0     H95402   0.262   7.684   3.704 -0.0427  0.3743  0.5149
  707MOL0     H95403   0.521   7.602   3.555  0.1470 -0.6943 -0.0872
  707MOL0     H95404   0.355   7.570   3.510  4.3468 -1.7403 -2.3957
  707MOL0     H95405   0.333   7.229   3.522 -1.3200 -0.5100 -1.6218
  707MOL0     H95406   0.186   7.047   3.471 -1.3809 -0.5806 -1.5693
  707MOL0     H95407   0.022   7.058   3.538  1.7941 -0.5904  3.7582
  707MOL0     H95408   0.076   7.162   3.409 -1.4495  0.1995  0.7537
  707MOL0     H95409  -0.299   7.089   3.512  2.7391 -2.7569  0.2735
  707MOL0     H95410  -0.555   7.045   3.549  1.3328 -0.2128 -1.7062
  707MOL0     H95411  -0.643   6.802   3.888 -1.5553 -0.4133 -3.5968
  707MOL0     H95412  -0.695   6.952   3.972  0.2542  0.0058  0.5914
  707MOL0     H95413  -0.911   6.802   3.916  2.2516 -1.4052  1.2136
  707MOL0     H95414  -0.900   6.957   3.821  0.0988 -0.1146 -3.5899
  707MOL0     H95415  -0.802   6.684   3.732  0.6202  0.7813  0.3286
  707MOL0     H95416  -0.813   6.834   3.629  0.7399 -2.1624 -2.0284
  707MOL0     H95417  -0.997   6.645   3.609  2.2714 -1.6510  1.8426
  707MOL0     H95418  -1.061   6.686   3.751  3.7521  0.4508  3.2649
  707MOL0     H95419  -1.030   6.862   3.517  2.7344 -3.9555  0.3684
  707MOL0     H95420  -1.073   6.944   3.668  1.3867  0.7563 -0.7698
  707MOL0     H95421  -1.277   6.897   3.518  1.1589 -1.6186 -3.1945
  707MOL0     H95422  -1.246   6.727   3.521 -1.6526  0.2243  0.3934
  707MOL0     H95423  -1.325   6.897   3.765  2.7540 -2.1647  4.2373
  707MOL0     H95424  -1.289   6.729   3.765  0.9792 -1.1279 -1.0512
  707MOL0     H95425  -1.513   6.850   3.579  2.2184 -1.1257 -2.0714
  707MOL0     H95426  -1.537   6.765   3.736  0.0063 -0.0171 -0.7594
  707MOL0     H95427  -0.446   6.968   3.962  3.1650 -0.2478  0.5830
  707MOL0     H95428  -0.224   7.039   3.924  0.6581 -2.8102  0.1565
  707MOL0     H95429   0.021   7.427   3.856 -0.1340  1.5568  0.4873
  707MOL0     H95430   0.255   7.514   3.843  0.8037 -2.4612  1.5494
  707MOL0     H95431   1.982   8.331   3.335  0.0071  1.0272  1.4933
  707MOL0     H95432   2.227   8.281   3.329 -0.4381 -1.1173 -0.3577
  707MOL0     H95433   2.604   8.103   3.829  0.8410 -0.1059 -0.6593
  707MOL0     H95434   2.782   7.944   3.859 -1.2824 -1.2463  1.3422
  707MOL0     H95435   2.835   7.653   3.484  0.6957  1.0655 -0.7639
  707MOL0     H95436   2.949   7.587   3.612  0.9903  2.1907  1.7603
  707MOL0     H95437   2.648   7.597   3.643  0.1207 -1.1771 -3.0667
  707MOL0     H95438   2.761   7.540   3.753  0.4328  0.2467 -0.2489
  707MOL0     H95439   2.654   7.357   3.650  0.2803 -1.1200 -0.4732
  707MOL0     H95440   2.824   7.349   3.622  0.7558  1.3739 -1.7318
  707MOL0     H95441   2.767   7.485   3.394  1.2162  0.8078  0.3779
  707MOL0     H95442   2.598   7.454   3.440  0.6447 -1.4693 -1.0953
  707MOL0     H95443   2.763   7.105   3.275 -0.9258 -1.7179  2.9935
  707MOL0     H95444   2.679   7.788   3.468 -3.7509 -0.8235  1.1080
  707MOL0     H95445   2.530   7.974   3.435  3.3014  0.1912 -0.9889
  708MOL0     O95446   0.409   1.424   9.198 -0.0797 -1.1158 -0.0652
  708MOL0     C95447   0.450   1.456   9.309  0.1695  0.4180  0.1220
  708MOL0     O95448   0.377   1.532   9.402  0.3993  0.4670  0.0957
  708MOL0     C95449   0.250   1.563   9.373 -0.2658  1.1210 -0.2461
  708MOL0     C95450   0.208   1.692   9.412 -0.7627  0.8774 -1.0256
  708MOL0     C95451   0.075   1.719   9.390  0.0452  0.1317 -0.1047
  708MOL0     C95452  -0.014   1.631   9.337 -0.6216  0.6621 -0.9614
  708MOL0     O95453  -0.143   1.672   9.317 -0.2008  0.4179 -1.2232
  708MOL0     C95454  -0.243   1.572   9.301  0.0517 -0.4150 -0.2497
  708MOL0     C95455  -0.359   1.650   9.250  0.4754 -0.1128  0.4642
  708MOL0     C95456  -0.482   1.552   9.232 -0.2431 -0.4898 -1.0419
  708MOL0     C95457  -0.577   1.634   9.141 -0.0082  1.4093 -0.4984
  708MOL0     C95458  -0.690   1.545   9.091 -0.1243 -0.5811 -0.2565
  708MOL0     C95459  -0.787   1.618   8.991 -0.8096  0.3544  0.4956
  708MOL0     C95460  -0.910   1.530   8.973 -0.8707 -0.3888  0.0906
  708MOL0     C95461  -1.003   1.571   8.862  0.4180  0.4461 -0.2232
  708MOL0     N95462  -0.949   1.541   8.726  0.0882 -0.0838 -0.3642
  708MOL0     C95463  -0.950   1.418   8.671 -0.3406 -0.2308  0.2567
  708MOL0     C95464  -0.910   1.435   8.535  0.4776 -0.0544 -0.6834
  708MOL0     C95465  -0.887   1.334   8.428  0.1032  0.2927 -0.0300
  708MOL0     C95466  -1.007   1.344   8.336  0.1635 -0.0987  0.1555
  708MOL0     C95467  -1.026   1.217   8.247  0.0608  0.3005 -0.3406
  708MOL0     C95468  -1.077   1.087   8.323 -0.0952 -0.0588  0.5075
  708MOL0     O95469  -1.170   1.125   8.425  0.0214 -0.2440 -0.5992
  708MOL0     C95470  -1.302   1.135   8.392  0.3078  0.3248  0.7680
  708MOL0     C95471  -1.395   1.171   8.483 -0.2946  0.0540  0.3951
  708MOL0     C95472  -1.531   1.178   8.449  0.5170 -0.3841 -0.1326
  708MOL0     C95473  -1.620   1.219   8.559  0.2953 -0.5033 -0.4612
  708MOL0     C95474  -1.581   1.147   8.320  0.4670  0.6204 -1.3411
  708MOL0     C95475  -1.725   1.147   8.274  0.0918  0.2421  0.1169
  708MOL0     O95476  -1.753   1.065   8.161  0.6070  0.6138  0.0004
  708MOL0     C95477  -1.885   1.081   8.111 -0.6100 -0.2281  0.0626
  708MOL0     C95478  -1.896   1.124   7.984 -0.3807  0.1656  0.8796
  708MOL0     C95479  -2.022   1.160   7.943  0.7450 -0.4895 -0.2433
  708MOL0     C95480  -2.137   1.145   8.034  0.0242 -0.5009  0.1116
  708MOL0     O95481  -2.264   1.172   8.002 -0.1206  0.2747  0.1578
  708MOL0     C95482  -2.293   1.115   7.867 -0.0029  0.7029 -0.0197
  708MOL0     C95483  -2.431   1.155   7.837  0.2262 -0.3939 -0.1130
  708MOL0     C95484  -2.520   1.104   7.952  0.1916  0.2492  0.6632
  708MOL0     C95485  -2.670   1.136   7.923  0.3461 -0.1139  0.7453
  708MOL0     C95486  -2.763   1.058   8.019 -0.5543  0.1630  0.1419
  708MOL0     C95487  -2.907   1.093   7.989 -0.2260 -0.4546  0.9314
  708MOL0     C95488  -2.951   1.241   8.010  0.0370 -0.2189  0.8529
  708MOL0     C95489  -3.087   1.279   7.966 -0.3688 -0.5519 -0.0930
  708MOL0    Cl95490  -3.211   1.185   8.064  0.1157 -0.1133  0.5679
  708MOL0     C95491  -2.124   1.079   8.157 -0.5280 -1.0529  0.1399
  708MOL0     C95492  -1.992   1.048   8.202  0.1517 -0.2715 -1.0541
  708MOL0     O95493  -1.809   1.216   8.332  0.2878  0.1308 -0.0904
  708MOL0     C95494  -1.481   1.103   8.232  0.5253  0.0844 -0.2169
  708MOL0     C95495  -1.349   1.105   8.266  0.1725  0.3944  0.3273
  708MOL0     N95496  -0.873   1.567   8.527 -0.1887 -0.5870 -0.9480
  708MOL0     N95497  -0.897   1.632   8.640  0.8899  0.4370 -0.4639
  708MOL0     C95498   0.030   1.500   9.304  0.5374  0.9264 -0.2631
  708MOL0     C95499   0.157   1.468   9.331 -1.4044  0.3409  0.8820
  708MOL0     C95500   0.573   1.394   9.347 -0.5108 -0.8236  0.8230
  708MOL0     C95501   0.658   1.342   9.258  0.1096 -0.2225  0.0012
  708MOL0     C95502   0.783   1.295   9.304  0.3619  0.0369 -0.0449
  708MOL0     C95503   0.834   1.315   9.433  0.1956  0.7406  0.3064
  708MOL0     O95504   0.965   1.288   9.451 -0.7896 -0.9496  0.3053
  708MOL0     C95505   1.022   1.290   9.584  0.1471 -0.3698  0.2322
  708MOL0     C95506   1.074   1.434   9.616  0.5188  0.5859  0.2304
  708MOL0     C95507   1.151   1.457   9.742  0.0014  0.2293 -0.2739
  708MOL0     C95508   1.249   1.346   9.790  0.5100  0.3298 -1.0034
  708MOL0     C95509   1.190   1.218   9.841 -0.6896 -0.1419  1.0444
  708MOL0     C95510   1.148   1.113   9.889  1.2635 -1.0277  0.0566
  708MOL0     C95511   0.745   1.377   9.525 -0.1458  0.1456 -0.0017
  708MOL0     C95512   0.611   1.407   9.484 -0.9048 -0.2697 -0.9708
  708MOL0     H95513   0.284   1.754   9.459 -0.4800  0.1853 -0.5589
  708MOL0     H95514   0.035   1.817   9.411  2.6005  0.7495  2.5286
  708MOL0     H95515  -0.202   1.500   9.230  4.4505 -1.5789  3.0403
  708MOL0     H95516  -0.259   1.518   9.395  0.2791 -0.0298  0.0148
  708MOL0     H95517  -0.388   1.721   9.328  1.3402 -0.3023  0.9738
  708MOL0     H95518  -0.329   1.711   9.165 -2.3043 -0.9902 -1.2816
  708MOL0     H95519  -0.447   1.455   9.194  1.4089 -0.3241 -0.0525
  708MOL0     H95520  -0.533   1.527   9.325 -2.7649  0.8348 -1.9972
  708MOL0     H95521  -0.621   1.717   9.197  1.5413  1.8600  0.1063
  708MOL0     H95522  -0.525   1.685   9.059  3.1862 -1.5387 -0.5705
  708MOL0     H95523  -0.643   1.459   9.043  0.6345 -0.6344  0.5673
  708MOL0     H95524  -0.757   1.506   9.168 -1.5052  0.2530 -0.9873
  708MOL0     H95525  -0.826   1.712   9.030  0.5877  1.3224 -0.3430
  708MOL0     H95526  -0.729   1.637   8.900  0.8867 -4.2554  0.3261
  708MOL0     H95527  -0.869   1.431   8.949  1.1736 -0.1058  2.0700
  708MOL0     H95528  -0.968   1.528   9.065  0.4356 -0.3003  0.9545
  708MOL0     H95529  -1.032   1.675   8.880 -1.5767 -0.3932  1.9027
  708MOL0     H95530  -1.096   1.515   8.881  0.7563 -0.9174 -2.2531
  708MOL0     H95531  -0.983   1.333   8.731 -1.8423 -0.3700 -0.7002
  708MOL0     H95532  -0.787   1.351   8.386  1.6144  2.1110  3.8617
  708MOL0     H95533  -0.879   1.231   8.465 -0.7975 -0.1025 -0.8996
  708MOL0     H95534  -0.987   1.430   8.272  0.4181 -0.0187  0.3415
  708MOL0     H95535  -1.102   1.356   8.389 -2.0899 -2.3772 -2.9877
  708MOL0     H95536  -0.932   1.198   8.195 -1.4733 -0.1711 -3.1465
  708MOL0     H95537  -1.093   1.238   8.162 -1.1864 -1.2758  0.2075
  708MOL0     H95538  -0.991   1.045   8.376 -0.9110 -0.0117  1.9004
  708MOL0     H95539  -1.110   1.005   8.257  3.3037 -0.6819 -0.6228
  708MOL0     H95540  -1.368   1.214   8.579 -5.2464  4.0149  0.4425
  708MOL0     H95541  -1.556   1.264   8.635  0.9034  0.0075 -1.2589
  708MOL0     H95542  -1.682   1.299   8.517  1.3711  0.5092 -0.1818
  708MOL0     H95543  -1.679   1.135   8.598  1.7770 -0.3977  2.2320
  708MOL0     H95544  -1.812   1.134   7.916 -0.5383  0.1709  0.6840
  708MOL0     H95545  -2.040   1.191   7.841 -2.6359  0.0714  0.3941
  708MOL0     H95546  -2.225   1.151   7.789 -0.2148  2.4546  0.5469
  708MOL0     H95547  -2.292   1.007   7.881  1.9748  0.4887 -1.4236
  708MOL0     H95548  -2.433   1.264   7.830  0.7468 -0.4575 -1.5987
  708MOL0     H95549  -2.471   1.116   7.743 -1.5500  1.9055 -0.3927
  708MOL0     H95550  -2.500   1.144   8.052  1.1809 -0.2517  0.6821
  708MOL0     H95551  -2.508   0.996   7.947 -1.2596  0.0319  1.4145
  708MOL0     H95552  -2.672   1.245   7.933  0.4543 -0.1689  1.4132
  708MOL0     H95553  -2.701   1.107   7.822  1.4502 -1.2333  0.6976
  708MOL0     H95554  -2.751   1.080   8.125 -1.9622  0.8215  0.1870
  708MOL0     H95555  -2.765   0.950   8.003 -1.4823 -0.0726  1.6754
  708MOL0     H95556  -2.906   1.064   7.884  2.2630 -1.2487  1.1123
  708MOL0     H95557  -2.976   1.028   8.044 -1.1063 -0.9900 -0.7389
  708MOL0     H95558  -2.885   1.319   7.973  0.1831 -0.5513  0.4039
  708MOL0     H95559  -2.948   1.255   8.119  3.8366  1.0816  0.7027
  708MOL0     H95560  -3.097   1.254   7.860 -1.6344  1.0411 -0.3924
  708MOL0     H95561  -3.098   1.387   7.979  4.4265  0.2448 -0.8923
  708MOL0     H95562  -2.210   1.059   8.221 -0.4921 -0.2092  0.4671
  708MOL0     H95563  -1.976   1.026   8.307  2.0926 -0.9392 -1.4418
  708MOL0     H95564  -1.504   1.075   8.130  1.2140 -0.7228 -0.1689
  708MOL0     H95565  -1.280   1.068   8.191 -0.4620 -0.4653  0.1464
  708MOL0     H95566  -0.020   1.414   9.261  3.0752 -1.0463  0.5213
  708MOL0     H95567   0.186   1.365   9.314 -1.7814  0.5428 -1.2137
  708MOL0     H95568   0.637   1.321   9.153 -1.8310 -2.5320  0.7531
  708MOL0     H95569   0.844   1.238   9.235  3.4700 -0.2084  2.6778
  708MOL0     H95570   0.949   1.257   9.658  0.3684 -0.1028  0.5726
  708MOL0     H95571   1.100   1.213   9.585  0.5593 -0.0150 -1.3322
  708MOL0     H95572   0.990   1.504   9.616  0.1370  0.2090 -2.2942
  708MOL0     H95573   1.138   1.479   9.540  3.0285  1.9797  2.9974
  708MOL0     H95574   1.094   1.485   9.831  2.2540  1.0822  0.9827
  708MOL0     H95575   1.210   1.547   9.721 -1.2760  0.8111 -1.5437
  708MOL0     H95576   1.312   1.393   9.866 -2.5673  2.3370  0.5404
  708MOL0     H95577   1.322   1.324   9.711 -3.6171  0.5892 -5.3628
  708MOL0     H95578   1.115   1.016   9.922 -1.5437 -1.1252 -2.5798
  708MOL0     H95579   0.778   1.392   9.628 -0.2355  0.6445 -0.0470
  708MOL0     H95580   0.538   1.448   9.553  0.2396 -0.8256  0.6201
  709MOL0     O95581   4.770   5.282   7.159 -0.6188 -1.1015  1.0013
  709MOL0     C95582   4.817   5.180   7.213 -1.0941 -0.4662 -0.2167
  709MOL0     O95583   4.743   5.071   7.251 -0.0607  0.2381 -0.0387
  709MOL0     C95584   4.607   5.080   7.226 -1.1249 -0.0540 -0.2082
  709MOL0     C95585   4.518   5.166   7.296 -1.1333  0.1134  0.0157
  709MOL0     C95586   4.386   5.166   7.261 -0.5791 -0.4967 -0.8769
  709MOL0     C95587   4.336   5.100   7.152  0.0417  0.8764 -0.6100
  709MOL0     O95588   4.207   5.112   7.132 -0.0219 -0.6887 -0.3654
  709MOL0     C95589   4.151   5.091   7.002 -0.0808  0.0686 -0.0222
  709MOL0     C95590   4.014   5.160   6.998  0.4540  0.9072 -0.4186
  709MOL0     C95591   3.945   5.132   6.862  0.6189 -0.3950 -0.3581
  709MOL0     C95592   3.791   5.151   6.874 -0.9619 -0.4848  0.1669
  709MOL0     C95593   3.715   5.109   6.749 -0.2832  0.1532  0.0872
  709MOL0     C95594   3.564   5.075   6.798  0.4279  0.8554  0.1440
  709MOL0     C95595   3.472   5.028   6.687 -0.2418 -0.0008 -0.2775
  709MOL0     C95596   3.478   4.878   6.661 -0.5378  0.6767 -0.3589
  709MOL0     N95597   3.343   4.817   6.667  0.4587 -0.9603  0.8466
  709MOL0     C95598   3.259   4.820   6.557 -0.1225 -0.3845  0.1119
  709MOL0     C95599   3.144   4.789   6.603  0.6715 -0.1055  0.2489
  709MOL0     C95600   3.025   4.782   6.505  0.3871  1.0800 -0.4684
  709MOL0     C95601   3.006   4.920   6.441 -0.2643 -0.0629  0.1432
  709MOL0     C95602   2.889   4.907   6.343 -0.1610 -0.5743  0.1749
  709MOL0     C95603   2.857   5.031   6.252  0.0889 -0.2038  0.4805
  709MOL0     O95604   2.739   5.003   6.163 -0.0980 -0.0066  0.0437
  709MOL0     C95605   2.611   5.000   6.213 -0.1214  1.1617 -1.0951
  709MOL0     C95606   2.512   4.943   6.134 -0.3881  0.1915  0.3196
  709MOL0     C95607   2.379   4.940   6.170  0.5282 -0.2728 -0.2417
  709MOL0     C95608   2.281   4.877   6.074  0.4137  0.5235  0.6682
  709MOL0     C95609   2.339   4.998   6.290  1.0223 -0.5724 -1.1030
  709MOL0     C95610   2.206   4.985   6.352  0.7791 -0.3129 -0.5723
  709MOL0     O95611   2.102   5.029   6.272 -0.0191  0.0342 -0.1283
  709MOL0     C95612   1.975   5.018   6.306  0.0155 -0.2984  0.0507
  709MOL0     C95613   1.927   5.095   6.414 -0.6753 -0.1542 -0.4718
  709MOL0     C95614   1.794   5.075   6.451  0.3546 -0.4972  0.1165
  709MOL0     C95615   1.703   4.999   6.376 -0.2036  0.8403  0.2342
  709MOL0     O95616   1.585   4.980   6.436  0.2917 -0.7137  1.0036
  709MOL0     C95617   1.508   4.872   6.385 -0.7050  0.6620 -0.6355
  709MOL0     C95618   1.360   4.892   6.425  0.0884 -0.2954 -0.2330
  709MOL0     C95619   1.275   4.930   6.307 -0.1676 -0.2257 -0.0447
  709MOL0     C95620   1.129   4.967   6.344 -1.0090 -0.1126 -0.5527
  709MOL0     C95621   1.058   4.833   6.375  0.7496 -0.6958  0.1856
  709MOL0     C95622   0.912   4.859   6.411  0.7091  0.6789 -0.0369
  709MOL0     C95623   0.829   4.728   6.408 -0.3754 -0.1742 -0.3808
  709MOL0     C95624   0.673   4.750   6.429  0.7249 -0.2217  0.0901
  709MOL0    Cl95625   0.598   4.593   6.439 -0.0223 -0.0266 -0.4664
  709MOL0     C95626   1.742   4.950   6.247 -0.1121 -0.2220 -0.0070
  709MOL0     C95627   1.883   4.959   6.217  0.4483  0.6010 -0.0925
  709MOL0     O95628   2.193   4.942   6.467 -0.8859 -0.3216 -0.0339
  709MOL0     C95629   2.439   5.045   6.380 -0.0491  0.3164  0.1453
  709MOL0     C95630   2.576   5.037   6.341 -0.0712  0.1972 -0.1974
  709MOL0     N95631   3.151   4.773   6.738  0.4710  0.7054 -0.2041
  709MOL0     N95632   3.276   4.782   6.776 -0.1816 -0.0044 -0.6275
  709MOL0     C95633   4.429   5.018   7.072 -0.3283 -0.0947 -0.0735
  709MOL0     C95634   4.566   5.002   7.117  0.6055 -0.0136  0.1906
  709MOL0     C95635   4.958   5.174   7.259 -0.2483  0.0262 -0.5878
  709MOL0     C95636   5.009   5.070   7.337  0.0359  0.0114  0.3074
  709MOL0     C95637   5.137   5.071   7.385 -0.3492 -0.0740 -0.0124
  709MOL0     C95638   5.221   5.178   7.374 -1.4971  0.3651  0.4716
  709MOL0     O95639   5.349   5.168   7.422  0.6004 -0.1594 -0.5152
  709MOL0     C95640   5.438   5.277   7.401 -0.2173  0.3480 -0.0661
  709MOL0     C95641   5.577   5.250   7.469  0.7061 -0.2572 -0.5447
  709MOL0     C95642   5.561   5.165   7.591 -0.0608 -0.0534 -0.6555
  709MOL0     C95643   5.698   5.124   7.645 -0.0686  0.4554  0.4158
  709MOL0     C95644   5.704   5.089   7.788 -0.3128  0.0428  0.0704
  709MOL0     C95645   5.702   5.070   7.908  0.4861  0.3209 -0.3496
  709MOL0     C95646   5.172   5.286   7.299  0.7530 -0.8868 -0.1706
  709MOL0     C95647   5.035   5.288   7.246  0.0056 -0.0961 -0.4001
  709MOL0     H95648   4.561   5.228   7.374 -1.0153 -0.6027  0.5299
  709MOL0     H95649   4.328   5.219   7.336 -0.3427 -0.6518 -0.5837
  709MOL0     H95650   4.220   5.129   6.926  1.1586  0.9265  1.4797
  709MOL0     H95651   4.130   4.985   6.983  0.5772 -0.3815  1.6008
  709MOL0     H95652   3.943   5.140   7.078  1.6434 -2.2510 -0.0219
  709MOL0     H95653   4.027   5.268   7.009  1.1739  0.7639  0.2511
  709MOL0     H95654   3.972   5.201   6.781  4.2942  2.3573  2.8695
  709MOL0     H95655   3.971   5.028   6.843  1.0815 -0.8226  2.2886
  709MOL0     H95656   3.759   5.093   6.961  0.3844  1.2483  1.9094
  709MOL0     H95657   3.777   5.258   6.892  0.7328 -0.2833  0.4744
  709MOL0     H95658   3.706   5.192   6.678  2.2613  1.0587  0.7049
  709MOL0     H95659   3.749   5.016   6.703  0.2456 -0.1390  1.0415
  709MOL0     H95660   3.569   5.015   6.889  2.0731  2.1337  0.9368
  709MOL0     H95661   3.518   5.169   6.828 -0.8274  0.6207 -0.9349
  709MOL0     H95662   3.369   5.060   6.707 -0.6350 -0.3767 -1.6017
  709MOL0     H95663   3.505   5.080   6.597 -0.5106  0.7377  0.0479
  709MOL0     H95664   3.544   4.828   6.733 -1.9377  1.4129  1.5249
  709MOL0     H95665   3.517   4.862   6.560 -2.0865  4.3294 -1.7158
  709MOL0     H95666   3.286   4.854   6.457  2.6611 -0.2715  0.8079
  709MOL0     H95667   3.042   4.702   6.433  0.9357  1.8141 -1.1806
  709MOL0     H95668   2.941   4.758   6.570  0.5870 -2.3965 -1.3207
  709MOL0     H95669   3.091   4.945   6.377 -3.0762  0.2746 -3.9227
  709MOL0     H95670   2.988   5.000   6.513  0.5452 -0.5255  0.8756
  709MOL0     H95671   2.800   4.882   6.402 -1.3013 -1.1270 -1.6923
  709MOL0     H95672   2.915   4.821   6.281  2.9621  0.6244 -0.3462
  709MOL0     H95673   2.944   5.056   6.190 -0.2699  0.8735  0.3902
  709MOL0     H95674   2.845   5.122   6.311  0.2061  0.9430 -1.1942
  709MOL0     H95675   2.530   4.909   6.033 -1.1431  0.9194 -0.0728
  709MOL0     H95676   2.245   4.778   6.105 -0.3486  0.5490 -0.0872
  709MOL0     H95677   2.191   4.939   6.067 -0.5960 -0.9374  0.4146
  709MOL0     H95678   2.323   4.871   5.974 -0.1821 -1.6106  0.4889
  709MOL0     H95679   2.002   5.153   6.468 -0.3979  1.2817 -2.2919
  709MOL0     H95680   1.762   5.133   6.537  3.0353  0.5302  0.5193
  709MOL0     H95681   1.508   4.858   6.277 -1.3845 -0.5580 -0.4965
  709MOL0     H95682   1.546   4.777   6.422 -1.9115  0.4280  0.0807
  709MOL0     H95683   1.317   4.797   6.458  0.0021 -0.3701 -0.5530
  709MOL0     H95684   1.354   4.967   6.505  0.5198 -0.5833  0.0734
  709MOL0     H95685   1.283   4.859   6.224 -0.6034  1.5988 -1.7118
  709MOL0     H95686   1.318   5.023   6.269  0.0239  0.3643  1.5469
  709MOL0     H95687   1.121   5.036   6.429  2.2278  1.0200 -1.0371
  709MOL0     H95688   1.083   5.016   6.258  0.3849  1.4884 -0.4271
  709MOL0     H95689   1.104   4.774   6.455  2.3002  1.8511  1.3266
  709MOL0     H95690   1.068   4.772   6.285  0.9420 -1.7524  0.9053
  709MOL0     H95691   0.912   4.900   6.512  0.4695  1.6842 -0.4244
  709MOL0     H95692   0.870   4.930   6.339 -0.1758 -0.8486 -1.0851
  709MOL0     H95693   0.864   4.661   6.488 -2.5738 -1.1730 -0.1859
  709MOL0     H95694   0.834   4.677   6.312 -1.3466 -0.3650 -0.3414
  709MOL0     H95695   0.635   4.802   6.341  0.9419 -2.2481 -1.2596
  709MOL0     H95696   0.637   4.797   6.521  0.4317  1.0829 -0.6653
  709MOL0     H95697   1.676   4.917   6.168  1.4044  1.9004 -2.3143
  709MOL0     H95698   1.936   4.917   6.132  0.7762 -0.2689  0.5331
  709MOL0     H95699   2.412   5.100   6.470 -0.3255  2.5373 -1.2155
  709MOL0     H95700   2.654   5.064   6.412 -0.9641  2.7741 -0.1136
  709MOL0     H95701   4.389   4.946   7.001  0.3778 -1.0039  0.4325
  709MOL0     H95702   4.616   4.916   7.072 -0.7292 -1.2873  1.0578
  709MOL0     H95703   4.950   4.982   7.362  1.4565 -2.2837 -3.5255
  709MOL0     H95704   5.167   4.985   7.444 -1.4123 -0.9877 -0.7783
  709MOL0     H95705   5.444   5.285   7.292 -2.3364 -0.4524 -0.2973
  709MOL0     H95706   5.405   5.376   7.434  2.5278  0.9887  0.9521
  709MOL0     H95707   5.626   5.345   7.492  0.3352  0.1124 -1.2669
  709MOL0     H95708   5.645   5.193   7.404  0.5033 -0.8376 -0.2568
  709MOL0     H95709   5.505   5.074   7.567 -0.9606  0.3034  0.0585
  709MOL0     H95710   5.496   5.220   7.660 -1.4063 -0.7840 -1.3178
  709MOL0     H95711   5.763   5.211   7.639 -1.5099  1.7338  2.1221
  709MOL0     H95712   5.747   5.042   7.591  0.1105  0.5538  0.4280
  709MOL0     H95713   5.689   5.052   8.013 -1.8344  0.3756 -0.5618
  709MOL0     H95714   5.218   5.383   7.284 -2.2385  0.2610 -3.3552
  709MOL0     H95715   5.005   5.381   7.199  1.6226  0.1799 -0.9687
  710MOL0     O95716  10.064   2.040   2.287 -0.4208  0.3736  0.0411
  710MOL0     C95717  10.133   2.142   2.322  0.7096  0.5781 -1.3389
  710MOL0     O95718  10.092   2.275   2.297  0.4885  0.0867  0.0198
  710MOL0     C95719  10.003   2.291   2.189  0.1083 -0.7121  0.6980
  710MOL0     C95720  10.028   2.226   2.067 -0.7361 -0.3052 -0.4802
  710MOL0     C95721   9.941   2.250   1.959  0.2224 -0.6844 -0.4460
  710MOL0     C95722   9.835   2.342   1.973 -0.5178  0.6750 -0.0347
  710MOL0     O95723   9.766   2.370   1.861  0.2081 -0.4302  0.3652
  710MOL0     C95724   9.627   2.378   1.891 -0.0781  0.2310  0.1072
  710MOL0     C95725   9.541   2.358   1.769 -0.2440  0.4067  0.1708
  710MOL0     C95726   9.595   2.243   1.673 -0.4161 -0.2267 -0.9351
  710MOL0     C95727   9.523   2.230   1.534  0.1012  0.0188 -0.4902
  710MOL0     C95728   9.394   2.156   1.554  0.0016  0.1463 -0.9541
  710MOL0     C95729   9.288   2.175   1.447 -0.0843 -0.1878  0.2054
  710MOL0     C95730   9.339   2.115   1.327 -0.0361  0.4832  0.3956
  710MOL0     C95731   9.228   2.102   1.217  0.0028  0.2820 -0.5869
  710MOL0     N95732   9.163   2.232   1.182  0.1021  0.8185 -0.0944
  710MOL0     C95733   9.041   2.267   1.228  0.0951  0.5969 -0.4639
  710MOL0     C95734   9.004   2.374   1.163 -0.6956 -0.4275  0.4074
  710MOL0     C95735   8.871   2.436   1.172  0.8478  0.0289 -0.3278
  710MOL0     C95736   8.753   2.362   1.107 -0.1846 -0.3851  0.6578
  710MOL0     C95737   8.610   2.398   1.150 -0.2477 -0.1564 -0.0729
  710MOL0     C95738   8.576   2.541   1.095 -0.2458  0.1971 -0.0450
  710MOL0     O95739   8.442   2.575   1.127  0.3081  0.1295 -0.2745
  710MOL0     C95740   8.347   2.519   1.037  0.6734  0.5757  0.2537
  710MOL0     C95741   8.378   2.436   0.931  0.0559 -0.4332 -0.1594
  710MOL0     C95742   8.280   2.398   0.832  0.2187 -0.8026 -0.8642
  710MOL0     C95743   8.318   2.328   0.707 -0.2164  0.2985 -0.1644
  710MOL0     C95744   8.138   2.433   0.850 -0.9808  0.1852 -0.5842
  710MOL0     C95745   8.032   2.374   0.773  0.3248 -0.6504 -0.4474
  710MOL0     O95746   7.921   2.327   0.845  0.4511 -0.2348 -0.7381
  710MOL0     C95747   7.801   2.302   0.781 -0.7575 -0.3557  0.5729
  710MOL0     C95748   7.682   2.371   0.801  0.2048 -0.2985  0.1355
  710MOL0     C95749   7.571   2.333   0.728  0.2413  0.8170 -0.8186
  710MOL0     C95750   7.574   2.216   0.645  0.2247 -0.4511  0.3998
  710MOL0     O95751   7.452   2.179   0.591 -0.3450  0.1729 -0.9851
  710MOL0     C95752   7.446   2.075   0.497 -0.1372  0.4891 -0.3339
  710MOL0     C95753   7.293   2.035   0.490  0.0689  0.1785 -0.2976
  710MOL0     C95754   7.190   2.151   0.458  0.8895 -0.4397 -0.2597
  710MOL0     C95755   7.086   2.116   0.347 -0.6895 -0.5138 -0.6572
  710MOL0     C95756   6.998   2.000   0.406 -0.3156 -0.1356  0.1667
  710MOL0     C95757   6.904   1.938   0.298 -0.1823  0.9667 -0.1451
  710MOL0     C95758   6.969   1.813   0.220 -0.2584  0.0155  0.3820
  710MOL0     C95759   7.097   1.852   0.147  0.3258  0.2840  0.1037
  710MOL0    Cl95760   7.063   1.986   0.044 -0.5722  0.0380  0.0962
  710MOL0     C95761   7.698   2.150   0.627 -0.3282  0.8637 -0.9121
  710MOL0     C95762   7.810   2.192   0.700  0.3082  0.3615 -0.3523
  710MOL0     O95763   8.030   2.418   0.654  0.2999  0.0576 -0.5073
  710MOL0     C95764   8.111   2.508   0.961 -0.0341 -0.0448 -0.3611
  710MOL0     C95765   8.214   2.553   1.055 -0.4848  0.1297 -0.4186
  710MOL0     N95766   9.119   2.427   1.091 -0.3050  0.2920  0.3451
  710MOL0     N95767   9.210   2.329   1.102  0.1210 -0.7697  0.5052
  710MOL0     C95768   9.818   2.415   2.088 -0.3121  0.1975 -0.3941
  710MOL0     C95769   9.905   2.394   2.195  0.0439 -0.7014  0.0936
  710MOL0     C95770  10.246   2.121   2.413 -0.2522  0.1392 -0.8234
  710MOL0     C95771  10.317   2.235   2.455 -0.5193  1.3139  0.4808
  710MOL0     C95772  10.426   2.231   2.541  0.1842  0.5977 -0.1210
  710MOL0     C95773  10.479   2.105   2.581 -0.4837 -0.1777 -0.0978
  710MOL0     O95774  10.601   2.094   2.651  0.0620 -0.6119  0.5907
  710MOL0     C95775  10.661   1.965   2.666 -0.8124 -0.3803  0.0003
  710MOL0     C95776  10.804   1.982   2.701 -0.4440  0.0421  0.2274
  710MOL0     C95777  10.864   2.092   2.610 -0.2325 -0.6407  0.2539
  710MOL0     C95778  11.006   2.040   2.585 -1.1919 -0.4240  0.9215
  710MOL0     C95779  11.101   2.033   2.700 -0.2071  0.2497 -0.0604
  710MOL0     C95780  11.188   2.048   2.785 -0.0756  0.7129  0.4199
  710MOL0     C95781  10.406   1.989   2.536  1.2889 -0.2108 -0.5013
  710MOL0     C95782  10.294   1.995   2.452 -0.4632  0.3316  0.2140
  710MOL0     H95783  10.103   2.150   2.054  1.0506  1.4402 -0.8366
  710MOL0     H95784   9.945   2.191   1.868 -1.0869 -1.4566 -0.0232
  710MOL0     H95785   9.585   2.309   1.965 -2.8104  2.6824  1.0099
  710MOL0     H95786   9.600   2.474   1.936  0.4136  0.9851 -1.1554
  710MOL0     H95787   9.435   2.343   1.793 -0.5392  2.8389  0.6324
  710MOL0     H95788   9.545   2.451   1.711 -0.5724  0.3888  0.1187
  710MOL0     H95789   9.697   2.266   1.643 -0.3013 -1.4423 -1.5499
  710MOL0     H95790   9.590   2.142   1.715 -3.5376 -1.1427 -3.1526
  710MOL0     H95791   9.514   2.335   1.504  0.0455  0.5688  1.3406
  710MOL0     H95792   9.582   2.180   1.456  0.5250  0.1743 -0.2732
  710MOL0     H95793   9.412   2.052   1.583 -2.2668 -0.2113 -0.6506
  710MOL0     H95794   9.357   2.196   1.649  2.6997 -1.9511  1.1765
  710MOL0     H95795   9.190   2.136   1.478 -1.7193  3.8452  0.6917
  710MOL0     H95796   9.262   2.279   1.427 -2.6261 -0.9149 -0.7389
  710MOL0     H95797   9.429   2.155   1.278  0.3343 -1.3595 -0.5081
  710MOL0     H95798   9.375   2.017   1.357 -1.1108 -0.1476 -0.3088
  710MOL0     H95799   9.144   2.040   1.251 -2.0150  0.6404 -4.3759
  710MOL0     H95800   9.274   2.054   1.129 -0.4733  1.5127 -1.5296
  710MOL0     H95801   8.983   2.211   1.301 -0.3867  1.3036 -0.2943
  710MOL0     H95802   8.844   2.439   1.278  1.6962 -0.2183 -0.0978
  710MOL0     H95803   8.865   2.540   1.137 -1.1242  0.1698  0.3171
  710MOL0     H95804   8.771   2.261   1.146  0.5080  0.2489  2.0273
  710MOL0     H95805   8.753   2.349   0.998 -2.0278 -1.6301  0.7656
  710MOL0     H95806   8.599   2.387   1.259  0.1213 -0.8506 -0.0963
  710MOL0     H95807   8.542   2.319   1.116  0.5290 -0.4761 -0.9259
  710MOL0     H95808   8.593   2.530   0.988 -0.0615 -1.7828  0.1546
  710MOL0     H95809   8.641   2.612   1.148 -0.5809  0.6077 -0.1811
  710MOL0     H95810   8.478   2.408   0.900 -0.4444 -2.0342 -0.4004
  710MOL0     H95811   8.276   2.228   0.711 -1.2103  0.7407  1.0964
  710MOL0     H95812   8.279   2.378   0.618 -0.5645  0.2392 -0.0447
  710MOL0     H95813   8.428   2.332   0.702  0.0593 -0.1558  3.3166
  710MOL0     H95814   7.678   2.454   0.871  1.6953  1.4615 -1.7514
  710MOL0     H95815   7.482   2.393   0.742  1.3309  2.4974 -0.9272
  710MOL0     H95816   7.473   2.100   0.394  1.5346  1.1393  0.2223
  710MOL0     H95817   7.510   1.995   0.534  1.2663  1.1652 -1.2076
  710MOL0     H95818   7.284   1.962   0.409 -0.6905  0.4393 -0.4463
  710MOL0     H95819   7.270   1.988   0.586  3.1658  0.2959  0.6279
  710MOL0     H95820   7.242   2.239   0.421  0.0268  0.0342 -0.3677
  710MOL0     H95821   7.129   2.163   0.548 -0.7428 -3.9772 -0.6894
  710MOL0     H95822   7.018   2.198   0.326 -2.0557 -1.4275 -0.0045
  710MOL0     H95823   7.150   2.103   0.260  1.2241  2.5916  0.1439
  710MOL0     H95824   6.939   2.039   0.489  1.5077  0.0815  1.4437
  710MOL0     H95825   7.059   1.917   0.444 -0.1812 -0.6848 -1.1838
  710MOL0     H95826   6.818   1.898   0.352  0.5311 -0.1265  0.2071
  710MOL0     H95827   6.872   2.010   0.222 -0.2631  1.4017  0.2973
  710MOL0     H95828   6.892   1.783   0.149 -2.7674  0.0557  2.8961
  710MOL0     H95829   6.992   1.739   0.297  1.5447 -0.7222 -0.7960
  710MOL0     H95830   7.144   1.767   0.098 -1.1716 -0.7922  0.4425
  710MOL0     H95831   7.174   1.882   0.218  0.3979 -0.5863  0.3989
  710MOL0     H95832   7.717   2.072   0.555 -0.8400  0.0139 -0.1482
  710MOL0     H95833   7.904   2.142   0.681  0.5644 -0.2243  2.1300
  710MOL0     H95834   8.012   2.537   0.997  0.1587 -0.3033  0.3924
  710MOL0     H95835   8.184   2.611   1.141 -0.1456  2.0338 -1.5246
  710MOL0     H95836   9.734   2.479   2.111 -0.8639 -1.6848  3.6886
  710MOL0     H95837   9.901   2.464   2.278 -4.0756  1.1038 -1.3611
  710MOL0     H95838  10.288   2.337   2.433 -1.5942  0.6693 -1.2683
  710MOL0     H95839  10.483   2.310   2.589  1.5859  0.0908 -0.9060
  710MOL0     H95840  10.620   1.908   2.751  0.3241  0.3799  1.0883
  710MOL0     H95841  10.643   1.904   2.577 -0.6519  2.8846 -2.4248
  710MOL0     H95842  10.850   1.883   2.703 -1.4409 -0.6081 -3.2272
  710MOL0     H95843  10.809   2.020   2.803 -0.9985 -1.2168  0.7515
  710MOL0     H95844  10.857   2.183   2.669 -2.5646 -1.3418  1.1614
  710MOL0     H95845  10.817   2.106   2.512  1.1472 -2.5179 -0.7517
  710MOL0     H95846  11.046   2.101   2.504  0.4372  1.9336  3.3638
  710MOL0     H95847  11.009   1.936   2.551 -2.6822 -0.4211  0.6982
  710MOL0     H95848  11.262   2.076   2.858  0.2614  2.4595 -0.5458
  710MOL0     H95849  10.430   1.888   2.568  0.4670 -0.5912 -1.0602
  710MOL0     H95850  10.234   1.910   2.419 -1.9624  1.2580  0.4376
  711MOL0     O95851   4.464   0.614   6.600 -0.0457 -0.0238 -0.3595
  711MOL0     C95852   4.496   0.550   6.498  0.5333 -0.0190  0.2044
  711MOL0     O95853   4.407   0.479   6.420 -0.4565 -0.2852 -0.2438
  711MOL0     C95854   4.281   0.455   6.468 -0.5742  0.3235 -0.3815
  711MOL0     C95855   4.175   0.535   6.438  0.7345 -0.3195  0.0231
  711MOL0     C95856   4.047   0.500   6.488 -1.0481 -0.2786 -0.3348
  711MOL0     C95857   4.035   0.387   6.577  0.5327 -0.5796  0.4115
  711MOL0     O95858   3.907   0.368   6.624 -0.2493  0.5807  0.0051
  711MOL0     C95859   3.840   0.280   6.532 -0.0167  0.4342  0.1839
  711MOL0     C95860   3.691   0.284   6.545  0.1876  0.5279  0.2859
  711MOL0     C95861   3.634   0.407   6.492  0.3944 -0.2089 -0.9081
  711MOL0     C95862   3.477   0.407   6.509 -0.2129  0.6925  0.4168
  711MOL0     C95863   3.412   0.536   6.463  0.0906  0.3897  0.9267
  711MOL0     C95864   3.262   0.528   6.484  0.3844  0.0182 -0.0250
  711MOL0     C95865   3.179   0.424   6.408 -0.2113  0.1274 -1.0947
  711MOL0     C95866   3.209   0.403   6.261 -0.0384  0.5724  0.3550
  711MOL0     N95867   3.100   0.327   6.196  0.0532 -0.4177 -0.9234
  711MOL0     C95868   2.998   0.400   6.144  0.2809 -0.0384 -0.4810
  711MOL0     C95869   2.917   0.305   6.102 -0.2473 -0.5539  0.3403
  711MOL0     C95870   2.798   0.322   6.013 -0.5031 -0.8214 -0.4253
  711MOL0     C95871   2.788   0.222   5.901  0.5224 -0.2716  0.2007
  711MOL0     C95872   2.902   0.235   5.810  0.8018  0.5370  0.8606
  711MOL0     C95873   2.936   0.381   5.753  0.2338 -0.3574  1.0689
  711MOL0     O95874   2.822   0.457   5.707 -0.6158 -0.2785  0.1693
  711MOL0     C95875   2.739   0.393   5.622 -1.1566 -0.0001  0.2966
  711MOL0     C95876   2.785   0.309   5.519 -0.0610  0.0594 -0.5494
  711MOL0     C95877   2.685   0.250   5.439  0.1587  0.8135 -0.4157
  711MOL0     C95878   2.729   0.140   5.345 -0.0954  0.2190 -0.5985
  711MOL0     C95879   2.546   0.284   5.447 -0.0688 -0.2923 -0.1654
  711MOL0     C95880   2.431   0.222   5.372 -0.9403  0.0465 -0.0120
  711MOL0     O95881   2.313   0.222   5.433 -0.0028 -0.3666 -0.1861
  711MOL0     C95882   2.193   0.190   5.365  0.2597 -0.2202  0.4503
  711MOL0     C95883   2.108   0.106   5.435 -0.5517  0.5558 -0.0585
  711MOL0     C95884   1.987   0.060   5.381 -0.2107  0.3698  0.8085
  711MOL0     C95885   1.943   0.108   5.253 -1.2622  0.4051  0.9338
  711MOL0     O95886   1.822   0.075   5.213  0.3840  0.1399 -1.0623
  711MOL0     C95887   1.798   0.051   5.079  0.4721  0.0109 -0.0888
  711MOL0     C95888   1.659   0.011   5.059 -0.2890  0.1042 -0.1919
  711MOL0     C95889   1.562   0.116   5.041  0.0665 -0.2726  0.0153
  711MOL0     C95890   1.427   0.053   5.023  0.3744 -0.4143  0.1571
  711MOL0     C95891   1.323   0.167   4.993  0.2327 -0.3420  0.2628
  711MOL0     C95892   1.175   0.115   4.976  0.0567  0.0128  0.1793
  711MOL0     C95893   1.128   0.003   5.075 -0.7059  0.1279 -0.5908
  711MOL0     C95894   0.982  -0.008   5.089  0.1074 -0.2704 -0.5632
  711MOL0    Cl95895   0.923  -0.128   4.979  0.3821  0.3616  0.4249
  711MOL0     C95896   2.034   0.195   5.184  0.0052 -0.3424  0.3614
  711MOL0     C95897   2.154   0.231   5.232  0.1283  0.1339 -0.2957
  711MOL0     O95898   2.451   0.173   5.261  0.2636  0.0356  0.5028
  711MOL0     C95899   2.517   0.372   5.553 -0.0116  0.0374 -0.1338
  711MOL0     C95900   2.610   0.426   5.637 -0.1367  0.1516  1.0765
  711MOL0     N95901   2.976   0.179   6.134 -0.1027 -0.3629 -0.1501
  711MOL0     N95902   3.083   0.197   6.188 -0.6666 -0.2118 -0.0978
  711MOL0     C95903   4.141   0.308   6.609 -0.9724  0.3290 -0.0712
  711MOL0     C95904   4.263   0.339   6.551 -0.1324  0.0673  0.3615
  711MOL0     C95905   4.637   0.539   6.450 -0.1207 -1.3289  0.2078
  711MOL0     C95906   4.728   0.610   6.518  0.9974 -0.5509 -0.1004
  711MOL0     C95907   4.859   0.614   6.470 -0.3659  0.4340  0.1616
  711MOL0     C95908   4.902   0.554   6.354 -0.2438 -0.0241 -0.3056
  711MOL0     O95909   5.029   0.564   6.315  0.0200  0.1564  0.1835
  711MOL0     C95910   5.100   0.688   6.333 -0.2389 -0.8463  0.6215
  711MOL0     C95911   5.193   0.719   6.212 -0.6975 -0.2065  0.7462
  711MOL0     C95912   5.298   0.818   6.266  0.0511  0.3705 -0.0403
  711MOL0     C95913   5.412   0.843   6.166  0.6043  0.1777 -0.3551
  711MOL0     C95914   5.517   0.923   6.233  0.1267  0.2692  0.0272
  711MOL0     C95915   5.609   0.989   6.279 -0.2613  0.2128  0.0173
  711MOL0     C95916   4.810   0.468   6.292  0.5513  0.6934 -0.9913
  711MOL0     C95917   4.676   0.463   6.337  0.2451 -0.3914  0.3648
  711MOL0     H95918   4.175   0.626   6.378 -1.7406  1.9644  3.1669
  711MOL0     H95919   3.956   0.554   6.466 -1.6707 -1.5158 -0.9212
  711MOL0     H95920   3.847   0.318   6.430 -1.6831 -0.7270 -0.4037
  711MOL0     H95921   3.881   0.179   6.536 -1.6566 -0.3107 -1.0762
  711MOL0     H95922   3.655   0.198   6.487 -1.8578 -0.9326  3.3979
  711MOL0     H95923   3.662   0.258   6.648  2.6505  3.7756  1.9689
  711MOL0     H95924   3.680   0.492   6.543 -0.7747 -0.6114  0.9113
  711MOL0     H95925   3.658   0.429   6.387 -2.2461 -2.3501 -2.0730
  711MOL0     H95926   3.444   0.313   6.464  0.0650  0.0370  1.5492
  711MOL0     H95927   3.444   0.396   6.613 -2.3375  1.5991 -0.0985
  711MOL0     H95928   3.448   0.623   6.519  1.2554  1.2462 -1.0065
  711MOL0     H95929   3.434   0.555   6.357 -1.7294 -1.0845  0.2263
  711MOL0     H95930   3.237   0.501   6.587 -2.5585 -5.0887 -1.7545
  711MOL0     H95931   3.226   0.630   6.466 -0.4921  0.0940  1.8907
  711MOL0     H95932   3.194   0.328   6.459  1.3066  2.4795  3.4271
  711MOL0     H95933   3.073   0.449   6.422 -0.0521 -0.3080  1.4258
  711MOL0     H95934   3.297   0.338   6.255 -1.2468 -1.3383  1.9943
  711MOL0     H95935   3.236   0.489   6.200  2.4577 -0.2576  0.1709
  711MOL0     H95936   2.989   0.506   6.124 -1.4960 -0.3227 -1.3385
  711MOL0     H95937   2.711   0.312   6.078  0.0872 -3.9250  0.0266
  711MOL0     H95938   2.792   0.426   5.979  0.5438 -0.2561  1.0197
  711MOL0     H95939   2.694   0.240   5.850 -0.3898 -0.6346  1.6994
  711MOL0     H95940   2.790   0.120   5.940  0.8447 -1.1239 -1.9272
  711MOL0     H95941   2.888   0.170   5.723  1.8854 -0.0141  1.0768
  711MOL0     H95942   2.996   0.202   5.855  1.6214 -0.0113 -1.1438
  711MOL0     H95943   3.009   0.394   5.672 -1.2690  6.5491  0.2354
  711MOL0     H95944   2.979   0.422   5.845  0.5435  0.0048  0.7643
  711MOL0     H95945   2.892   0.291   5.508  0.4210  1.4659  1.3946
  711MOL0     H95946   2.650   0.067   5.327 -2.3356  2.2413  0.4147
  711MOL0     H95947   2.756   0.190   5.251  2.6307  2.3901  1.2015
  711MOL0     H95948   2.814   0.089   5.390 -1.3333 -0.8290  0.6857
  711MOL0     H95949   2.133   0.074   5.536 -0.0719  0.0618 -0.3255
  711MOL0     H95950   1.924  -0.007   5.439 -0.0290  1.7359  2.6965
  711MOL0     H95951   1.808   0.142   5.019 -0.6723 -0.7945 -1.5865
  711MOL0     H95952   1.867  -0.021   5.034 -1.5570 -0.2929 -3.0018
  711MOL0     H95953   1.661  -0.059   4.976 -2.4052  0.7456 -0.8571
  711MOL0     H95954   1.631  -0.055   5.142  0.3733 -2.0021 -1.5769
  711MOL0     H95955   1.595   0.169   4.951 -0.6391 -1.6589 -1.1088
  711MOL0     H95956   1.572   0.183   5.127  1.0292 -0.6505  0.2134
  711MOL0     H95957   1.433  -0.006   4.931  0.1745  0.6195 -0.5323
  711MOL0     H95958   1.397  -0.008   5.109  3.4292 -2.8170 -0.3153
  711MOL0     H95959   1.350   0.220   4.902 -3.6608 -2.2843 -2.2838
  711MOL0     H95960   1.329   0.240   5.074  0.2688 -0.4040  0.3169
  711MOL0     H95961   1.111   0.203   4.978  1.7854  1.4106 -1.4983
  711MOL0     H95962   1.169   0.077   4.873  0.7574 -3.2060  1.2105
  711MOL0     H95963   1.160   0.027   5.177  0.3320 -0.9232 -0.6540
  711MOL0     H95964   1.173  -0.093   5.050 -3.1920 -0.5543 -2.7713
  711MOL0     H95965   0.928   0.085   5.072 -0.4924 -0.4385  0.3899
  711MOL0     H95966   0.950  -0.042   5.188 -1.7227  3.0789  0.1307
  711MOL0     H95967   2.009   0.249   5.093 -0.6704 -1.8074 -0.3612
  711MOL0     H95968   2.218   0.307   5.187  1.1863  0.3827  1.5085
  711MOL0     H95969   2.413   0.392   5.574 -0.1448 -1.4020  0.7299
  711MOL0     H95970   2.573   0.487   5.719 -1.5725 -1.2094  1.4891
  711MOL0     H95971   4.133   0.219   6.670 -0.3277  1.0159  1.0460
  711MOL0     H95972   4.351   0.283   6.579  0.2596  0.5527  0.1148
  711MOL0     H95973   4.701   0.670   6.604  2.2386  2.1949 -1.4907
  711MOL0     H95974   4.933   0.673   6.524  1.2884 -2.3735  1.2000
  711MOL0     H95975   5.023   0.765   6.342  1.0761  0.6375 -0.4067
  711MOL0     H95976   5.159   0.676   6.424  0.3676  0.8739  0.4997
  711MOL0     H95977   5.130   0.767   6.137 -0.3822 -1.0802 -0.1034
  711MOL0     H95978   5.248   0.627   6.191  2.2883  1.1618  2.0781
  711MOL0     H95979   5.331   0.780   6.363 -2.2916  1.6994  1.3692
  711MOL0     H95980   5.254   0.917   6.283 -0.3752 -0.2043  2.6780
  711MOL0     H95981   5.372   0.892   6.077 -4.7345 -1.7927  0.6319
  711MOL0     H95982   5.451   0.747   6.129  0.2409 -0.7211  1.4789
  711MOL0     H95983   5.697   1.030   6.325  1.2053 -1.8647 -0.7580
  711MOL0     H95984   4.836   0.423   6.197  1.2933  2.0960 -1.4785
  711MOL0     H95985   4.604   0.414   6.273  1.5248 -0.5879 -0.9632
  712MOL0     O95986   9.700   8.807   2.579 -0.0764  0.9459 -0.4113
  712MOL0     C95987   9.764   8.855   2.668 -1.0143 -0.6013  0.0293
  712MOL0     O95988   9.744   8.841   2.810  0.4593  0.3246  0.4050
  712MOL0     C95989   9.661   8.746   2.861  0.3227  0.5057 -0.1780
  712MOL0     C95990   9.658   8.749   3.000 -0.5393 -0.6163  0.1540
  712MOL0     C95991   9.589   8.651   3.078 -0.1004  0.3859 -0.9354
  712MOL0     C95992   9.503   8.562   3.011  0.4896 -0.3297  0.3243
  712MOL0     O95993   9.422   8.472   3.071 -0.2923 -0.1410  0.3387
  712MOL0     C95994   9.386   8.493   3.208  0.3532  0.2139  0.0350
  712MOL0     C95995   9.276   8.394   3.244  0.9139 -0.1939 -0.4493
  712MOL0     C95996   9.221   8.428   3.389 -0.1044  0.4457 -0.4231
  712MOL0     C95997   9.105   8.326   3.421  0.5817 -0.6940  0.4230
  712MOL0     C95998   9.028   8.376   3.543 -0.0391  0.4121 -0.2822
  712MOL0     C95999   8.940   8.267   3.595 -0.1316  0.9560 -0.8374
  712MOL0     C96000   8.823   8.329   3.677  0.1370 -0.1541 -0.0571
  712MOL0     C96001   8.718   8.226   3.724 -0.1281 -0.0492 -0.3112
  712MOL0     N96002   8.636   8.284   3.830 -0.2981 -0.3096  0.4605
  712MOL0     C96003   8.499   8.318   3.823  0.7806  1.1041  0.3866
  712MOL0     C96004   8.475   8.368   3.949 -0.3463 -0.6498  0.2138
  712MOL0     C96005   8.345   8.442   3.977 -0.7413 -0.9133  0.9634
  712MOL0     C96006   8.238   8.341   4.023 -0.4513  0.2620  0.0215
  712MOL0     C96007   8.104   8.409   4.055 -0.1503  0.0855  0.4669
  712MOL0     C96008   8.029   8.484   3.944 -0.4721 -0.2049  0.2626
  712MOL0     O96009   7.982   8.387   3.847  0.3361  0.0291 -0.1921
  712MOL0     C96010   7.867   8.318   3.874  0.3091  0.0647  0.0722
  712MOL0     C96011   7.773   8.341   3.977 -0.0545  0.0182 -0.9785
  712MOL0     C96012   7.655   8.268   3.982  0.4279 -0.4606 -0.1920
  712MOL0     C96013   7.560   8.286   4.104  0.4204  0.2608  0.0421
  712MOL0     C96014   7.634   8.163   3.882  0.2572 -1.0783  0.3205
  712MOL0     C96015   7.518   8.079   3.889  0.2401 -0.2530  0.1841
  712MOL0     O96016   7.539   7.961   3.834  0.0718  0.5851  0.3467
  712MOL0     C96017   7.428   7.894   3.795 -0.4709  0.4001  0.4027
  712MOL0     C96018   7.340   7.950   3.700 -0.1786  0.1926  0.8548
  712MOL0     C96019   7.231   7.880   3.649  0.3819  0.3525  0.2440
  712MOL0     C96020   7.212   7.745   3.694 -0.9416 -0.1170  0.3752
  712MOL0     O96021   7.092   7.694   3.659  0.2437 -0.0012  0.1227
  712MOL0     C96022   7.079   7.546   3.675  0.3139 -0.4057  0.3584
  712MOL0     C96023   6.931   7.515   3.623 -0.0383 -0.0979  0.2976
  712MOL0     C96024   6.824   7.615   3.672  0.0836 -0.4359  0.9753
  712MOL0     C96025   6.688   7.553   3.701 -0.6113 -0.3999 -0.2498
  712MOL0     C96026   6.638   7.502   3.563 -0.0670  0.1177  0.3367
  712MOL0     C96027   6.483   7.507   3.558 -0.0021  0.1779  0.1081
  712MOL0     C96028   6.426   7.398   3.662 -0.4445 -0.7016 -0.2772
  712MOL0     C96029   6.269   7.422   3.661 -0.7398  0.0103 -0.6844
  712MOL0    Cl96030   6.198   7.399   3.509 -0.4299 -0.1768  0.2330
  712MOL0     C96031   7.299   7.687   3.774  0.1869  0.1486 -0.3948
  712MOL0     C96032   7.407   7.759   3.833 -0.1411 -0.3731  0.1361
  712MOL0     O96033   7.408   8.121   3.929 -0.4875  0.1941 -0.6637
  712MOL0     C96034   7.727   8.154   3.774  0.1591  0.6682 -0.3552
  712MOL0     C96035   7.836   8.232   3.766  0.0582 -0.5392 -0.0884
  712MOL0     N96036   8.590   8.368   4.026  0.1636  0.7914  1.1438
  712MOL0     N96037   8.691   8.321   3.951  0.2230 -0.8489  0.1411
  712MOL0     C96038   9.496   8.575   2.867 -0.6246 -0.8748  0.2057
  712MOL0     C96039   9.576   8.667   2.795  0.1444  0.3549  0.1940
  712MOL0     C96040   9.879   8.943   2.618  0.1843  0.6385 -0.5296
  712MOL0     C96041   9.904   8.970   2.486  0.7300  0.1715  0.3778
  712MOL0     C96042  10.014   9.041   2.440 -0.1461  0.0178 -0.1213
  712MOL0     C96043  10.102   9.106   2.536 -0.1116  0.3056  0.9164
  712MOL0     O96044  10.207   9.184   2.484 -0.5317  0.1554 -0.2906
  712MOL0     C96045  10.225   9.297   2.569 -0.4148 -0.4987  0.0100
  712MOL0     C96046  10.343   9.382   2.528 -0.1555  0.2881  1.0112
  712MOL0     C96047  10.340   9.436   2.382 -0.1120 -0.4466  0.5051
  712MOL0     C96048  10.474   9.511   2.343 -0.2408 -0.0798 -0.2891
  712MOL0     C96049  10.486   9.634   2.420  0.7686 -0.4096  0.2148
  712MOL0     C96050  10.514   9.743   2.471 -0.5798  0.6329 -0.1687
  712MOL0     C96051  10.071   9.086   2.670  0.2168  0.4036 -0.1258
  712MOL0     C96052   9.967   8.998   2.713 -0.4793  0.1575  0.4163
  712MOL0     H96053   9.727   8.810   3.057 -2.3265  1.0499  0.6214
  712MOL0     H96054   9.600   8.645   3.186  0.8560 -0.5041 -1.0626
  712MOL0     H96055   9.474   8.462   3.265 -0.5703  0.1125  1.4535
  712MOL0     H96056   9.351   8.593   3.236  0.9334  0.0703  1.3759
  712MOL0     H96057   9.191   8.409   3.176 -0.5659  1.4886  1.6218
  712MOL0     H96058   9.318   8.294   3.237 -1.8002 -1.6662  1.8052
  712MOL0     H96059   9.293   8.418   3.471 -0.0059  2.3500 -0.2448
  712MOL0     H96060   9.189   8.532   3.396 -0.3454  0.4794 -1.8066
  712MOL0     H96061   9.040   8.329   3.332 -0.6130 -0.2737  1.2845
  712MOL0     H96062   9.161   8.232   3.422  2.7615  0.4855 -1.4589
  712MOL0     H96063   9.099   8.405   3.621 -1.8549  1.6373  1.0162
  712MOL0     H96064   8.971   8.462   3.507 -0.4323  0.0355 -0.5667
  712MOL0     H96065   8.898   8.213   3.510 -2.3814  3.9135 -1.7825
  712MOL0     H96066   9.004   8.202   3.656 -2.2052  0.1216  0.5557
  712MOL0     H96067   8.872   8.373   3.764  0.2377 -0.1854 -0.0974
  712MOL0     H96068   8.774   8.405   3.616  0.2334 -0.3950 -0.4416
  712MOL0     H96069   8.766   8.137   3.765 -1.2968 -1.6519 -2.2632
  712MOL0     H96070   8.658   8.191   3.639 -1.5764 -1.7349  1.3438
  712MOL0     H96071   8.435   8.298   3.737 -1.0454 -1.4253  2.1977
  712MOL0     H96072   8.371   8.506   4.061  0.9051 -1.8936  1.2568
  712MOL0     H96073   8.314   8.500   3.890 -1.3566 -4.9698 -1.8502
  712MOL0     H96074   8.269   8.288   4.114  0.2860  0.1180 -0.3120
  712MOL0     H96075   8.223   8.266   3.945 -0.0049 -0.7343  0.8691
  712MOL0     H96076   8.127   8.473   4.141  0.2360  0.3105  0.1980
  712MOL0     H96077   8.038   8.329   4.091 -0.5978  0.3125  0.1572
  712MOL0     H96078   8.088   8.553   3.883 -2.2162  1.4973  0.3929
  712MOL0     H96079   7.951   8.543   3.993  0.4895  0.9178  0.4811
  712MOL0     H96080   7.793   8.407   4.061 -0.1331  1.1084 -1.7914
  712MOL0     H96081   7.544   8.191   4.155 -3.0585  1.3373  1.2770
  712MOL0     H96082   7.596   8.362   4.173  0.7611  1.6031 -1.5348
  712MOL0     H96083   7.459   8.319   4.074  1.2730  1.9113 -1.1684
  712MOL0     H96084   7.363   8.045   3.655 -1.0708 -0.2476 -0.5768
  712MOL0     H96085   7.162   7.940   3.592 -1.2670 -0.4762  1.2751
  712MOL0     H96086   7.154   7.488   3.619 -0.0088  0.6042 -1.1765
  712MOL0     H96087   7.080   7.516   3.780  2.2602 -2.2853 -0.1049
  712MOL0     H96088   6.929   7.526   3.514 -2.3758  1.9408  0.4421
  712MOL0     H96089   6.898   7.411   3.637 -1.7675  0.4450  0.5438
  712MOL0     H96090   6.811   7.701   3.606 -3.8421 -0.0098  2.0055
  712MOL0     H96091   6.839   7.656   3.772 -1.5367  0.7076  0.7906
  712MOL0     H96092   6.703   7.473   3.774 -1.2961  1.7996  2.4637
  712MOL0     H96093   6.622   7.631   3.741  0.0261  1.1083 -2.0038
  712MOL0     H96094   6.679   7.404   3.537 -0.1206  0.7234 -2.2719
  712MOL0     H96095   6.679   7.568   3.487  0.6800 -0.8069 -0.0872
  712MOL0     H96096   6.447   7.607   3.584  0.1553  0.3897 -0.4682
  712MOL0     H96097   6.452   7.499   3.453 -1.1141  1.9333  0.2609
  712MOL0     H96098   6.477   7.403   3.758  3.8807 -2.0307 -2.2426
  712MOL0     H96099   6.450   7.299   3.622 -1.2167 -0.2169 -2.0257
  712MOL0     H96100   6.241   7.524   3.689  1.5416 -0.3245  3.7462
  712MOL0     H96101   6.231   7.352   3.736  1.1298  2.4690  2.8479
  712MOL0     H96102   7.281   7.589   3.815  1.7362 -1.1240 -2.5538
  712MOL0     H96103   7.480   7.702   3.891 -0.5164 -0.3973  0.5891
  712MOL0     H96104   7.705   8.075   3.703  0.4727 -0.2215  0.5053
  712MOL0     H96105   7.900   8.221   3.679 -2.6049  3.6596 -2.9453
  712MOL0     H96106   9.418   8.517   2.818 -1.5011  0.4336 -0.0004
  712MOL0     H96107   9.549   8.669   2.690 -2.3816  0.2437  0.7645
  712MOL0     H96108   9.835   8.934   2.409 -0.2417  1.4477  0.6299
  712MOL0     H96109  10.023   9.078   2.339  0.4920  1.6855  0.5122
  712MOL0     H96110  10.137   9.359   2.588  0.2821 -0.4047  3.4238
  712MOL0     H96111  10.270   9.260   2.661  2.7961  3.0205  0.1009
  712MOL0     H96112  10.431   9.322   2.551 -0.0947  0.6689  1.7949
  712MOL0     H96113  10.347   9.474   2.587 -0.6501  0.4740  0.7618
  712MOL0     H96114  10.254   9.501   2.362 -0.5444 -0.9387  0.7357
  712MOL0     H96115  10.336   9.351   2.314 -1.9427  0.5646 -0.7541
  712MOL0     H96116  10.480   9.528   2.235  3.8411 -2.4951 -0.6520
  712MOL0     H96117  10.567   9.455   2.360  0.4933  0.1991 -2.9159
  712MOL0     H96118  10.531   9.835   2.522  2.8339  0.5503 -0.8933
  712MOL0     H96119  10.131   9.138   2.744 -0.3382  0.6200  0.1807
  712MOL0     H96120   9.947   8.988   2.819  0.0741 -0.9351  0.4279
  713MOL0     O96121   2.809   0.507   0.875 -0.6043 -0.1543  0.5311
  713MOL0     C96122   2.854   0.542   0.982 -0.0755  0.4600 -0.5521
  713MOL0     O96123   2.773   0.583   1.085 -0.5026 -0.0358  0.2764
  713MOL0     C96124   2.640   0.592   1.058  0.7931  0.1579  0.1076
  713MOL0     C96125   2.578   0.713   1.025 -0.1594 -0.1254  0.3799
  713MOL0     C96126   2.442   0.709   0.997  0.5638  0.0134 -0.0335
  713MOL0     C96127   2.365   0.589   1.006  0.0583 -1.2495 -0.5788
  713MOL0     O96128   2.236   0.582   0.968  0.0045 -0.4617  0.2898
  713MOL0     C96129   2.149   0.686   1.024 -0.8327  0.6618 -0.7213
  713MOL0     C96130   2.028   0.615   1.066  0.3228  0.7427  0.6643
  713MOL0     C96131   1.909   0.703   1.117 -0.7650 -0.2836  0.0233
  713MOL0     C96132   1.781   0.614   1.133  0.1590 -0.7780 -0.7817
  713MOL0     C96133   1.664   0.684   1.192  0.3959 -0.3443 -0.3491
  713MOL0     C96134   1.533   0.605   1.180  0.5190 -0.1936 -0.2358
  713MOL0     C96135   1.414   0.678   1.243 -0.1234 -0.2546  0.2097
  713MOL0     C96136   1.283   0.606   1.225 -0.7144  0.3775  0.2443
  713MOL0     N96137   1.169   0.690   1.270  0.5313  0.2818  0.7695
  713MOL0     C96138   1.140   0.825   1.243  0.3733  0.0766  0.0374
  713MOL0     C96139   1.029   0.859   1.312 -0.0149  0.1245  0.4373
  713MOL0     C96140   0.954   0.988   1.321 -0.4022  0.0126 -0.4413
  713MOL0     C96141   0.799   0.989   1.341  0.2562  0.2822  0.1319
  713MOL0     C96142   0.729   0.927   1.220 -0.5510  0.2354  1.5090
  713MOL0     C96143   0.572   0.941   1.228  0.2177  0.9861 -0.5174
  713MOL0     O96144   0.534   0.861   1.346 -0.2140  0.2117  0.2844
  713MOL0     C96145   0.400   0.881   1.388 -0.7874  0.0834  0.1398
  713MOL0     C96146   0.307   0.972   1.328  0.3280 -0.0441  0.2043
  713MOL0     C96147   0.175   0.975   1.383  0.3053  0.7836  0.8951
  713MOL0     C96148   0.082   1.076   1.317 -1.1533 -1.1168 -0.3737
  713MOL0     C96149   0.136   0.888   1.494  0.0077  0.4008 -0.6474
  713MOL0     C96150   0.001   0.871   1.539 -0.4520  0.0826 -0.1192
  713MOL0     O96151  -0.076   0.980   1.527  0.2609 -0.0377  0.0499
  713MOL0     C96152  -0.211   0.968   1.547 -0.0923  0.4800 -0.2501
  713MOL0     C96153  -0.286   1.038   1.453  0.2759 -0.0965  0.6061
  713MOL0     C96154  -0.428   1.039   1.460  0.0389 -0.0065 -0.4774
  713MOL0     C96155  -0.499   0.980   1.560 -0.8250  0.5005 -0.5469
  713MOL0     O96156  -0.637   0.982   1.559 -0.0727 -0.2850  0.8755
  713MOL0     C96157  -0.706   0.871   1.599  0.4693 -0.6181  0.8296
  713MOL0     C96158  -0.825   0.914   1.677  1.4213 -0.2887 -0.4446
  713MOL0     C96159  -0.925   1.007   1.603 -0.2935  0.5813 -0.0865
  713MOL0     C96160  -1.046   1.044   1.690 -1.0796 -0.5809  0.9229
  713MOL0     C96161  -1.128   1.153   1.623 -0.4373 -0.3057  0.4720
  713MOL0     C96162  -1.251   1.201   1.708  0.1762  0.3563  0.3424
  713MOL0     C96163  -1.327   1.303   1.627  0.5564 -0.4298 -0.1586
  713MOL0     C96164  -1.441   1.369   1.705 -0.3797  0.0115  0.3162
  713MOL0    Cl96165  -1.547   1.433   1.577 -0.0139  0.0929 -0.2365
  713MOL0     C96166  -0.418   0.919   1.670 -0.0440 -0.6046 -0.5527
  713MOL0     C96167  -0.282   0.910   1.661  0.3390 -0.0752 -0.1685
  713MOL0     O96168  -0.027   0.767   1.597  0.3915  0.6779  0.7038
  713MOL0     C96169   0.233   0.798   1.533  0.7867 -0.3009  0.3373
  713MOL0     C96170   0.359   0.799   1.491  1.0361 -0.6003 -0.0626
  713MOL0     N96171   0.987   0.741   1.371 -0.7408 -0.0988  0.2059
  713MOL0     N96172   1.077   0.645   1.361 -0.3855  0.0219  0.3668
  713MOL0     C96173   2.427   0.470   1.035 -0.1629  0.7893  0.3112
  713MOL0     C96174   2.569   0.474   1.061 -0.0115 -0.1871  0.4607
  713MOL0     C96175   3.004   0.524   1.015  0.1341 -0.1652 -0.5341
  713MOL0     C96176   3.103   0.510   0.910 -0.6041 -0.0351 -0.5706
  713MOL0     C96177   3.244   0.495   0.943 -0.0466  0.4360 -0.2244
  713MOL0     C96178   3.280   0.492   1.083  0.5783  0.8338  0.1288
  713MOL0     O96179   3.403   0.460   1.135 -0.5733  0.4368  0.7060
  713MOL0     C96180   3.522   0.448   1.049  1.1815  0.2328  0.9191
  713MOL0     C96181   3.646   0.404   1.125  0.3111  0.2520  0.4345
  713MOL0     C96182   3.615   0.293   1.228 -0.6358 -0.0851  0.3605
  713MOL0     C96183   3.578   0.161   1.165  0.6103 -0.3210 -0.0647
  713MOL0     C96184   3.546   0.065   1.258 -0.3666  0.2520  0.3557
  713MOL0     C96185   3.494  -0.006   1.336 -0.3547  0.5466  0.4006
  713MOL0     C96186   3.181   0.509   1.180 -0.4698 -0.2656 -0.5382
  713MOL0     C96187   3.046   0.522   1.148 -0.0895 -0.1059 -0.8223
  713MOL0     H96188   2.633   0.807   1.025  0.3892 -0.4435  0.2220
  713MOL0     H96189   2.407   0.808   0.970  0.5928 -0.4959 -2.1559
  713MOL0     H96190   2.202   0.744   1.100  0.1211 -0.2978 -0.6217
  713MOL0     H96191   2.122   0.747   0.937  2.8896  2.1922 -1.0014
  713MOL0     H96192   1.995   0.563   0.976 -0.3686 -1.1478  1.9558
  713MOL0     H96193   2.049   0.547   1.149  0.5650  1.1219  0.9157
  713MOL0     H96194   1.932   0.750   1.213  1.0742  0.6762 -0.8316
  713MOL0     H96195   1.896   0.781   1.041  2.1146  0.5745  0.2872
  713MOL0     H96196   1.747   0.569   1.039 -1.3840 -1.8356  0.2347
  713MOL0     H96197   1.801   0.542   1.212  0.3751  0.9104  0.7770
  713MOL0     H96198   1.683   0.720   1.294 -0.4867  0.8309 -0.5805
  713MOL0     H96199   1.647   0.774   1.133 -0.3621 -0.9620 -1.0964
  713MOL0     H96200   1.517   0.588   1.074  0.2119 -0.9761 -0.0688
  713MOL0     H96201   1.536   0.511   1.236 -1.3845 -1.0390 -1.4571
  713MOL0     H96202   1.435   0.681   1.350 -0.3244 -0.9093  0.2698
  713MOL0     H96203   1.419   0.781   1.205  3.5209 -0.4896 -0.3371
  713MOL0     H96204   1.283   0.516   1.288 -1.0910  1.4233  1.7927
  713MOL0     H96205   1.287   0.582   1.118 -0.6308 -1.9298  0.7043
  713MOL0     H96206   1.192   0.892   1.175  1.1914 -0.9071 -0.3297
  713MOL0     H96207   1.008   1.043   1.399 -0.7244  2.2909 -1.7344
  713MOL0     H96208   0.965   1.046   1.229 -0.5988 -0.7837 -0.9786
  713MOL0     H96209   0.772   1.093   1.362 -1.8193 -0.1757 -0.0694
  713MOL0     H96210   0.783   0.933   1.434 -0.0338 -2.2320 -1.3363
  713MOL0     H96211   0.757   0.822   1.207 -1.2003  0.2037  0.1573
  713MOL0     H96212   0.754   0.968   1.122 -1.2075  0.2978  1.3606
  713MOL0     H96213   0.523   0.911   1.135 -0.7385  0.0268  0.2745
  713MOL0     H96214   0.556   1.047   1.248 -3.2413  0.3929  0.3901
  713MOL0     H96215   0.322   1.040   1.244  0.4784 -0.0583  0.2191
  713MOL0     H96216   0.002   1.013   1.276 -0.5128 -2.5795  0.5282
  713MOL0     H96217   0.026   1.140   1.385 -0.5101  0.0404 -0.8994
  713MOL0     H96218   0.121   1.125   1.227  0.9543 -0.0058  1.0595
  713MOL0     H96219  -0.240   1.100   1.377 -3.5080  2.3377  0.0356
  713MOL0     H96220  -0.476   1.102   1.386  0.4061 -0.4826 -1.1352
  713MOL0     H96221  -0.730   0.810   1.512 -0.8042 -1.8105  1.9579
  713MOL0     H96222  -0.646   0.802   1.660  1.4160  0.7159  1.4500
  713MOL0     H96223  -0.865   0.824   1.725  1.9765 -0.2356  0.1320
  713MOL0     H96224  -0.795   0.969   1.766  1.4476 -1.7238  0.4729
  713MOL0     H96225  -0.964   0.951   1.518 -2.2384  3.0956 -0.9549
  713MOL0     H96226  -0.870   1.092   1.561  2.6190 -1.2691 -0.3154
  713MOL0     H96227  -1.110   0.958   1.711 -1.1188 -0.4376  1.4105
  713MOL0     H96228  -1.009   1.070   1.790  1.2177 -1.3484  0.3278
  713MOL0     H96229  -1.170   1.104   1.535  0.3995  0.9539 -0.6678
  713MOL0     H96230  -1.067   1.237   1.587 -2.2448  0.7655 -0.2103
  713MOL0     H96231  -1.318   1.117   1.725  1.1325 -0.7658 -1.2264
  713MOL0     H96232  -1.212   1.245   1.801  2.1669 -1.0928  0.2605
  713MOL0     H96233  -1.365   1.255   1.537 -3.1513  3.1388 -0.8064
  713MOL0     H96234  -1.253   1.380   1.605  0.4072 -0.4944 -0.8990
  713MOL0     H96235  -1.411   1.444   1.779  1.1008 -2.2692  2.1922
  713MOL0     H96236  -1.487   1.294   1.770 -0.1726  0.3356  0.8424
  713MOL0     H96237  -0.463   0.876   1.759 -1.4435  1.1667 -0.3388
  713MOL0     H96238  -0.229   0.857   1.740 -3.6420 -1.5441  1.8298
  713MOL0     H96239   0.208   0.716   1.600 -1.3426  1.1208  1.4340
  713MOL0     H96240   0.426   0.723   1.529  0.1216 -1.4960 -0.2102
  713MOL0     H96241   2.361   0.384   1.033  0.5119  0.2509  0.6600
  713MOL0     H96242   2.617   0.381   1.091  1.1786  1.2567  3.4660
  713MOL0     H96243   3.083   0.509   0.803 -1.1815 -0.1836 -0.4671
  713MOL0     H96244   3.319   0.465   0.870  1.6800  0.0583  1.6098
  713MOL0     H96245   3.502   0.374   0.971  1.0837 -0.1647  1.3163
  713MOL0     H96246   3.542   0.543   0.999  2.5987 -1.3356 -1.7030
  713MOL0     H96247   3.691   0.488   1.177  0.1367  0.1460  0.7596
  713MOL0     H96248   3.726   0.367   1.060 -0.9696 -1.1854 -0.4112
  713MOL0     H96249   3.535   0.338   1.287  0.4434  0.3457  1.5566
  713MOL0     H96250   3.709   0.278   1.283 -0.7281 -0.6243  0.3771
  713MOL0     H96251   3.650   0.125   1.092 -0.1059 -0.4178 -0.7416
  713MOL0     H96252   3.485   0.177   1.109 -0.2997 -2.7675  0.6056
  713MOL0     H96253   3.463  -0.068   1.417  2.2125 -2.2392 -0.5482
  713MOL0     H96254   3.210   0.508   1.285 -2.3611  1.9429  0.0835
  713MOL0     H96255   2.974   0.514   1.229  1.1626  1.0172  0.4539
  714MOL0     O96256   9.041   9.591   3.189  0.0146  0.7999 -0.1013
  714MOL0     C96257   9.148   9.552   3.133 -0.2676  0.2902 -0.2575
  714MOL0     O96258   9.168   9.431   3.070 -0.6587 -0.4472  0.2600
  714MOL0     C96259   9.068   9.339   3.069  0.3475 -0.2074 -0.2576
  714MOL0     C96260   9.045   9.262   3.183 -0.1992  0.1109  0.5308
  714MOL0     C96261   8.946   9.173   3.187 -0.2680 -0.9182 -0.3717
  714MOL0     C96262   8.867   9.145   3.074 -0.5779  0.2169  0.2436
  714MOL0     O96263   8.768   9.044   3.073 -0.1829 -0.2473 -0.0963
  714MOL0     C96264   8.673   9.065   3.184 -0.5495  0.1476  0.6099
  714MOL0     C96265   8.545   8.995   3.142 -0.1635 -0.1538  0.2617
  714MOL0     C96266   8.453   8.985   3.272 -0.2014  0.0879  1.1131
  714MOL0     C96267   8.332   8.898   3.231  1.0216  0.0690 -0.5677
  714MOL0     C96268   8.233   8.914   3.343 -0.0220  0.3926 -0.1872
  714MOL0     C96269   8.092   8.863   3.299  0.7497  0.3505  0.0931
  714MOL0     C96270   7.986   8.912   3.403  0.5859  0.3939 -0.6937
  714MOL0     C96271   7.843   8.878   3.348  0.1717  0.2734  0.9269
  714MOL0     N96272   7.721   8.903   3.429  0.3988 -0.2158  0.6570
  714MOL0     C96273   7.588   8.906   3.388 -0.4045 -0.6563  0.5064
  714MOL0     C96274   7.523   8.907   3.506 -0.6134 -0.1204 -0.1295
  714MOL0     C96275   7.377   8.902   3.536  0.3082  0.5756  0.0774
  714MOL0     C96276   7.299   8.863   3.413 -1.2061  0.4509 -0.4464
  714MOL0     C96277   7.148   8.878   3.438 -0.0712  0.3485  0.0198
  714MOL0     C96278   7.054   8.813   3.342 -0.2378  0.2431 -0.0430
  714MOL0     O96279   6.921   8.856   3.379  0.0897  0.3046 -0.1913
  714MOL0     C96280   6.813   8.811   3.314 -0.1997 -0.3323 -0.7506
  714MOL0     C96281   6.826   8.731   3.196  0.1450 -0.4476 -0.5245
  714MOL0     C96282   6.706   8.665   3.152  0.6175  0.1500  0.0258
  714MOL0     C96283   6.708   8.566   3.032 -0.7470  0.8508  0.1743
  714MOL0     C96284   6.575   8.697   3.209  0.4541 -0.4041 -0.1581
  714MOL0     C96285   6.443   8.649   3.163  1.0800 -0.6332 -0.5594
  714MOL0     O96286   6.346   8.675   3.252  0.0920 -0.1438 -0.0118
  714MOL0     C96287   6.206   8.667   3.215 -0.6343  0.2926 -0.4972
  714MOL0     C96288   6.143   8.547   3.226  0.6829  0.5744 -0.0936
  714MOL0     C96289   6.005   8.531   3.192  0.8008  0.3008 -0.5550
  714MOL0     C96290   5.936   8.636   3.133 -0.6377 -1.0735  0.4950
  714MOL0     O96291   5.801   8.630   3.110  0.2754 -0.8118 -0.1420
  714MOL0     C96292   5.747   8.702   3.001  0.3154  0.3696 -0.8586
  714MOL0     C96293   5.595   8.698   3.012 -0.2537 -0.9399 -0.4208
  714MOL0     C96294   5.536   8.769   2.882 -0.3371 -0.5558  0.0714
  714MOL0     C96295   5.562   8.920   2.884  0.4609 -1.1383  0.3972
  714MOL0     C96296   5.465   8.992   2.795  0.4624 -1.7798 -1.2651
  714MOL0     C96297   5.485   9.140   2.822 -0.1389 -0.3324  0.5591
  714MOL0     C96298   5.400   9.229   2.735  0.5022 -0.4471  0.5870
  714MOL0     C96299   5.258   9.186   2.715  0.3714 -0.4046 -0.9708
  714MOL0    Cl96300   5.175   9.175   2.881 -0.2777 -0.2481 -0.1815
  714MOL0     C96301   6.014   8.750   3.106  0.4521 -0.2461 -0.0233
  714MOL0     C96302   6.143   8.772   3.158 -0.6179  0.4629  0.2709
  714MOL0     O96303   6.420   8.614   3.049  0.0977  0.1865 -0.6482
  714MOL0     C96304   6.576   8.781   3.321 -0.0984  0.5197 -0.2621
  714MOL0     C96305   6.693   8.830   3.380  0.1731 -0.1561  1.2263
  714MOL0     N96306   7.617   8.923   3.608  0.4067  0.8719 -0.1275
  714MOL0     N96307   7.734   8.905   3.564 -0.1923  0.2046 -0.3162
  714MOL0     C96308   8.892   9.215   2.957 -0.4780 -0.7712 -0.1688
  714MOL0     C96309   8.988   9.320   2.954 -0.3059  0.1168  0.4182
  714MOL0     C96310   9.257   9.646   3.109 -1.0903 -0.1785 -0.5110
  714MOL0     C96311   9.247   9.784   3.144  0.7632  0.0143  0.8595
  714MOL0     C96312   9.348   9.882   3.115 -0.8825  0.2108  0.3213
  714MOL0     C96313   9.462   9.835   3.062 -0.1620 -0.6651  0.2193
  714MOL0     O96314   9.567   9.920   3.036 -0.6151 -0.3800 -0.1796
  714MOL0     C96315   9.564  10.065   3.046 -0.3131  0.0998 -0.1334
  714MOL0     C96316   9.703  10.133   3.037  0.3358  0.1831  0.2529
  714MOL0     C96317   9.809  10.059   3.134  0.2319 -0.1960 -0.2932
  714MOL0     C96318   9.781  10.060   3.287 -0.6246  0.5484 -0.6855
  714MOL0     C96319   9.850  10.170   3.356 -0.0129  0.5010  0.4001
  714MOL0     C96320   9.910  10.262   3.398  0.2726 -0.3249 -0.6495
  714MOL0     C96321   9.475   9.704   3.019  0.3969 -0.0057  0.8622
  714MOL0     C96322   9.371   9.610   3.029 -0.4579 -0.0826  0.3760
  714MOL0     H96323   9.103   9.280   3.273  0.8356  3.0244 -0.5854
  714MOL0     H96324   8.939   9.111   3.276 -0.2198  2.8852  2.5151
  714MOL0     H96325   8.709   9.013   3.273  0.4276 -0.0839  0.0926
  714MOL0     H96326   8.654   9.168   3.215  2.6054  1.2774 -0.7448
  714MOL0     H96327   8.488   9.052   3.067  0.7310 -0.0943 -0.3856
  714MOL0     H96328   8.566   8.897   3.100 -1.6347  0.7640 -2.9338
  714MOL0     H96329   8.492   8.941   3.364 -0.8472  0.8776  1.7833
  714MOL0     H96330   8.422   9.088   3.293 -0.7827  0.7967 -2.5415
  714MOL0     H96331   8.293   8.938   3.136  0.2308 -0.7849 -0.6061
  714MOL0     H96332   8.352   8.793   3.207  0.0678 -0.2871  0.1929
  714MOL0     H96333   8.266   8.865   3.435  2.2617  2.0886 -0.0207
  714MOL0     H96334   8.221   9.018   3.377 -1.1467  0.1108  0.3092
  714MOL0     H96335   8.059   8.899   3.201  1.9118 -0.0587 -0.4661
  714MOL0     H96336   8.082   8.754   3.297 -1.0787  0.5021 -0.3653
  714MOL0     H96337   7.998   8.870   3.503 -0.3699 -2.9870 -1.8604
  714MOL0     H96338   7.980   9.021   3.397 -2.1546  0.5115  1.6945
  714MOL0     H96339   7.838   8.770   3.330  1.0861  0.2265  0.8990
  714MOL0     H96340   7.828   8.928   3.252 -0.5178  0.5712  1.1789
  714MOL0     H96341   7.554   8.886   3.287  5.0561 -3.2411 -1.2353
  714MOL0     H96342   7.347   8.836   3.618 -1.7803  0.2792 -0.8393
  714MOL0     H96343   7.347   9.007   3.548 -3.7573 -0.1136 -2.1624
  714MOL0     H96344   7.319   8.759   3.388 -2.3425  0.0408  0.2786
  714MOL0     H96345   7.326   8.933   3.333 -0.6441  2.2122  1.1951
  714MOL0     H96346   7.123   8.983   3.421 -1.4304  0.1622  0.7411
  714MOL0     H96347   7.124   8.855   3.542  0.3204 -0.6720 -0.1042
  714MOL0     H96348   7.070   8.705   3.348  0.9586  0.4428  0.5599
  714MOL0     H96349   7.077   8.834   3.237 -0.8653 -2.3802 -0.7851
  714MOL0     H96350   6.922   8.704   3.153 -0.6508 -1.2458 -1.8919
  714MOL0     H96351   6.809   8.538   2.998 -0.6343 -0.2196  1.3048
  714MOL0     H96352   6.658   8.469   3.035  2.0263 -0.7925 -1.7541
  714MOL0     H96353   6.665   8.616   2.945  4.2542  0.9346 -2.6311
  714MOL0     H96354   6.187   8.461   3.276 -2.1280  0.3031  2.2297
  714MOL0     H96355   5.947   8.445   3.221 -1.7271  2.9713  3.2073
  714MOL0     H96356   5.776   8.807   2.992 -3.3594  1.7837  1.7161
  714MOL0     H96357   5.783   8.641   2.917 -0.5448 -3.1175  1.1284
  714MOL0     H96358   5.560   8.595   3.020 -1.6021 -0.5792 -1.3242
  714MOL0     H96359   5.561   8.759   3.097  0.7376  0.5367 -1.0337
  714MOL0     H96360   5.429   8.743   2.886 -0.3571 -0.4204  3.3800
  714MOL0     H96361   5.577   8.713   2.797 -0.9177 -1.8112  0.5905
  714MOL0     H96362   5.551   8.958   2.986 -1.7610 -0.7722  0.0704
  714MOL0     H96363   5.663   8.945   2.850 -0.0195  1.2811  0.5909
  714MOL0     H96364   5.363   8.968   2.824 -0.0502 -0.4500 -1.8685
  714MOL0     H96365   5.492   8.966   2.692 -0.8624  0.5190 -2.2773
  714MOL0     H96366   5.448   9.156   2.924 -1.9341 -0.0961 -0.1056
  714MOL0     H96367   5.590   9.169   2.807 -0.6958  1.6845  0.2413
  714MOL0     H96368   5.459   9.234   2.643  2.6809 -2.9609  1.6909
  714MOL0     H96369   5.398   9.329   2.779  1.7261  0.6625 -1.6911
  714MOL0     H96370   5.257   9.086   2.672 -0.9769 -1.2233  0.8186
  714MOL0     H96371   5.204   9.244   2.639 -0.5224  0.3061  0.1600
  714MOL0     H96372   5.974   8.841   3.062 -1.9222 -0.5352  1.3601
  714MOL0     H96373   6.198   8.865   3.150  0.4565 -0.0716  1.1621
  714MOL0     H96374   6.484   8.799   3.376  1.9532  2.9848  2.7642
  714MOL0     H96375   6.686   8.889   3.471 -1.2659  2.6148 -0.5347
  714MOL0     H96376   8.825   9.196   2.874 -3.1034  1.8151  1.1455
  714MOL0     H96377   8.994   9.378   2.862 -0.0063 -0.0844  0.3111
  714MOL0     H96378   9.158   9.816   3.198 -1.3731 -0.8677 -1.8684
  714MOL0     H96379   9.356   9.985   3.148  3.9962 -0.0505  0.7615
  714MOL0     H96380   9.496  10.091   2.964 -0.4419  1.1537  0.2924
  714MOL0     H96381   9.509  10.103   3.134 -2.4508  2.2265 -2.2123
  714MOL0     H96382   9.704  10.235   3.077 -1.3320 -0.2342  1.4990
  714MOL0     H96383   9.731  10.125   2.932  0.5022 -0.7408  0.3592
  714MOL0     H96384   9.908  10.103   3.116 -0.8749  3.4496  1.4708
  714MOL0     H96385   9.809   9.952   3.112 -1.4389  0.1681 -2.4450
  714MOL0     H96386   9.819   9.969   3.334  2.8337  2.0234 -0.3225
  714MOL0     H96387   9.675  10.060   3.316 -0.8868 -4.1866 -0.9106
  714MOL0     H96388   9.971  10.348   3.416  0.4256  0.0733 -2.8445
  714MOL0     H96389   9.559   9.677   2.956 -0.8333 -2.2340  0.0499
  714MOL0     H96390   9.388   9.508   2.995 -1.4441 -0.0068 -0.3930
  715MOL0     O96391   8.021   1.586   7.675 -1.0257 -0.3008  0.3503
  715MOL0     C96392   8.016   1.535   7.562 -0.4853 -0.1613 -0.6244
  715MOL0     O96393   7.909   1.462   7.509 -0.1198  0.4787 -0.1673
  715MOL0     C96394   7.812   1.418   7.596 -0.3887  0.3908  0.2122
  715MOL0     C96395   7.682   1.416   7.541  0.6251  0.8195  0.3576
  715MOL0     C96396   7.570   1.371   7.618 -0.0353  0.4516  0.3008
  715MOL0     C96397   7.587   1.323   7.756  0.0237  0.1114  1.1438
  715MOL0     O96398   7.473   1.296   7.824  0.3896  0.3350  0.7666
  715MOL0     C96399   7.474   1.262   7.962 -0.8396  0.5221  0.2291
  715MOL0     C96400   7.347   1.317   8.034  0.3947  0.7798  0.1378
  715MOL0     C96401   7.223   1.236   7.990  0.1610 -0.5973  0.1500
  715MOL0     C96402   7.107   1.293   8.072 -0.1004 -0.3598  0.3494
  715MOL0     C96403   6.979   1.211   8.048 -0.7193  0.4582  0.2619
  715MOL0     C96404   6.958   1.075   8.141  0.3545  0.0874 -0.0974
  715MOL0     C96405   6.807   1.042   8.159 -0.0974  0.2798 -1.3248
  715MOL0     C96406   6.742   1.003   8.028 -0.1048  0.1601  0.5272
  715MOL0     N96407   6.606   0.955   8.067  0.8345 -0.0070  0.3513
  715MOL0     C96408   6.477   0.992   8.020 -0.0302  0.4933 -0.0064
  715MOL0     C96409   6.392   0.898   8.070 -0.1146  0.4641 -0.0179
  715MOL0     C96410   6.249   0.871   8.053 -0.1582 -0.2917 -0.0104
  715MOL0     C96411   6.163   0.990   8.070 -0.7415 -0.1934 -0.1087
  715MOL0     C96412   6.094   0.993   8.205  0.9528 -0.6517 -1.1520
  715MOL0     C96413   5.998   1.114   8.227 -0.0555 -0.0026  0.4215
  715MOL0     O96414   5.874   1.079   8.158 -1.1811 -0.8374  0.8083
  715MOL0     C96415   5.762   1.137   8.198  0.3263 -0.1625 -0.2061
  715MOL0     C96416   5.755   1.255   8.276  0.5430  0.9363 -0.3890
  715MOL0     C96417   5.634   1.300   8.326  0.8127 -0.1688 -0.3616
  715MOL0     C96418   5.652   1.416   8.424 -0.3213  0.4329  0.7365
  715MOL0     C96419   5.510   1.243   8.277 -1.1463 -0.5923  0.3819
  715MOL0     C96420   5.377   1.304   8.301  0.0651 -0.3930  0.3743
  715MOL0     O96421   5.270   1.237   8.250 -0.1339  0.7416 -0.1188
  715MOL0     C96422   5.147   1.275   8.276 -1.0253 -0.7398  0.4668
  715MOL0     C96423   5.099   1.400   8.229 -0.6434  0.4674  0.0212
  715MOL0     C96424   4.969   1.443   8.253  0.0418 -0.0988 -0.7661
  715MOL0     C96425   4.884   1.360   8.324 -0.5222  0.3903  0.0889
  715MOL0     O96426   4.760   1.408   8.344 -0.3751 -0.9740 -0.4165
  715MOL0     C96427   4.749   1.507   8.445 -0.7679 -0.3034 -0.7355
  715MOL0     C96428   4.650   1.455   8.538  0.2028 -0.0948 -0.1952
  715MOL0     C96429   4.594   1.564   8.638 -0.1828  0.3834  0.2283
  715MOL0     C96430   4.703   1.623   8.735  0.2422 -0.4860 -0.1303
  715MOL0     C96431   4.643   1.709   8.849 -0.6811  0.5514  0.5197
  715MOL0     C96432   4.606   1.627   8.973 -0.2600  0.0067 -0.4544
  715MOL0     C96433   4.468   1.667   9.025  0.1503  0.4486  0.4109
  715MOL0     C96434   4.400   1.580   9.126 -0.5479  0.9256 -0.7930
  715MOL0    Cl96435   4.381   1.400   9.074  0.1236 -0.0523 -0.0413
  715MOL0     C96436   4.927   1.235   8.380 -0.7599  0.5549  0.4015
  715MOL0     C96437   5.060   1.196   8.356  0.5544 -0.2259 -0.1759
  715MOL0     O96438   5.365   1.401   8.379  0.4102  0.1190 -0.3758
  715MOL0     C96439   5.519   1.120   8.204 -0.7957  0.7873 -0.5739
  715MOL0     C96440   5.645   1.069   8.168 -0.0792  0.0777  0.5622
  715MOL0     N96441   6.469   0.800   8.146 -0.0579  0.0041  0.1089
  715MOL0     N96442   6.592   0.831   8.130  0.4723  0.2216  0.5919
  715MOL0     C96443   7.727   1.326   7.803  0.2622  0.3601  0.0992
  715MOL0     C96444   7.833   1.373   7.726 -0.8825 -0.4996  0.6919
  715MOL0     C96445   8.131   1.549   7.469 -0.5093  0.3078 -0.2251
  715MOL0     C96446   8.248   1.607   7.513 -0.1870 -0.3768 -1.0102
  715MOL0     C96447   8.359   1.618   7.430  0.3904 -0.4545  0.0883
  715MOL0     C96448   8.356   1.572   7.298 -0.1418  0.3260  0.0008
  715MOL0     O96449   8.463   1.569   7.210 -0.5285 -0.6148  0.0704
  715MOL0     C96450   8.594   1.590   7.267 -0.6302 -0.3479  0.3938
  715MOL0     C96451   8.650   1.740   7.249 -0.6536  0.0809  0.4263
  715MOL0     C96452   8.804   1.742   7.267  0.4963  0.0362  0.4570
  715MOL0     C96453   8.853   1.887   7.251  0.0056  0.3530  0.7368
  715MOL0     C96454   8.839   1.938   7.113 -0.0948  0.6082 -0.5483
  715MOL0     C96455   8.814   1.974   7.004  0.6479  0.0636 -0.6659
  715MOL0     C96456   8.231   1.520   7.257  0.1837  0.4796 -0.1898
  715MOL0     C96457   8.122   1.502   7.336 -0.1218  0.6340 -0.3361
  715MOL0     H96458   7.664   1.445   7.438  0.2470  3.2935  1.0545
  715MOL0     H96459   7.476   1.366   7.564 -0.2503  2.3390  0.4515
  715MOL0     H96460   7.482   1.156   7.987  1.2236  0.7968  0.9627
  715MOL0     H96461   7.563   1.309   8.006 -0.5207  0.2225 -0.0946
  715MOL0     H96462   7.359   1.315   8.143 -2.5451 -0.6866  0.5318
  715MOL0     H96463   7.331   1.422   8.007  1.4564  0.6704 -1.0225
  715MOL0     H96464   7.206   1.227   7.883  5.2311  0.0267 -0.9899
  715MOL0     H96465   7.237   1.135   8.031  1.8101 -1.3831 -2.1224
  715MOL0     H96466   7.132   1.295   8.178 -0.3816 -2.2575  0.4820
  715MOL0     H96467   7.097   1.395   8.031  1.5997 -1.1750 -2.3882
  715MOL0     H96468   6.894   1.279   8.061 -1.0904  0.1229 -0.3432
  715MOL0     H96469   6.979   1.188   7.941 -0.4828  2.9105 -0.3289
  715MOL0     H96470   7.004   0.991   8.089  2.0439  0.2610  1.0429
  715MOL0     H96471   7.012   1.071   8.236 -2.4147 -0.6960  1.5624
  715MOL0     H96472   6.798   0.962   8.232 -0.3550  1.8699  0.4791
  715MOL0     H96473   6.750   1.130   8.193 -3.5596 -1.8740 -1.1081
  715MOL0     H96474   6.796   0.916   7.990  2.5263  1.3895  1.2026
  715MOL0     H96475   6.740   1.084   7.954 -0.0878 -0.9434 -0.7197
  715MOL0     H96476   6.450   1.084   7.969 -0.4829  0.7948  0.7672
  715MOL0     H96477   6.233   0.839   7.949 -0.7420  0.3033 -0.1098
  715MOL0     H96478   6.210   0.792   8.118 -2.9175  1.9964  1.3205
  715MOL0     H96479   6.094   0.991   7.985 -0.4553  2.0154 -0.3617
  715MOL0     H96480   6.224   1.081   8.065 -1.9484  0.8510  2.4227
  715MOL0     H96481   6.169   0.988   8.285  0.5529 -2.7113 -0.8278
  715MOL0     H96482   6.037   0.900   8.219 -1.2497  1.0614  3.2790
  715MOL0     H96483   6.056   1.203   8.201  0.5471 -0.1774  1.1024
  715MOL0     H96484   5.984   1.142   8.332 -1.8787  0.9553 -0.0391
  715MOL0     H96485   5.842   1.308   8.313 -0.1739  2.5673 -0.9351
  715MOL0     H96486   5.755   1.450   8.439  0.1314 -0.8573  0.6742
  715MOL0     H96487   5.586   1.501   8.407  0.3213  1.2568  2.1815
  715MOL0     H96488   5.612   1.378   8.518 -0.3792 -0.3968  0.3805
  715MOL0     H96489   5.167   1.455   8.165 -0.5496  1.2692  0.7988
  715MOL0     H96490   4.937   1.536   8.207  0.0865  2.3162  3.5000
  715MOL0     H96491   4.847   1.533   8.486 -0.8428  0.8754 -1.2673
  715MOL0     H96492   4.717   1.600   8.398 -2.3062 -0.7497 -0.6346
  715MOL0     H96493   4.571   1.409   8.477  0.7528 -0.6901 -0.4682
  715MOL0     H96494   4.703   1.379   8.596 -0.5806 -1.3660 -1.0681
  715MOL0     H96495   4.514   1.511   8.691 -0.4316  0.0581 -0.4638
  715MOL0     H96496   4.548   1.649   8.588  1.2314  4.4655  5.0228
  715MOL0     H96497   4.773   1.548   8.774 -1.0268 -1.7784 -0.2562
  715MOL0     H96498   4.764   1.692   8.675 -0.8008  1.5280  1.0260
  715MOL0     H96499   4.549   1.755   8.817 -1.7314 -0.5375  1.9016
  715MOL0     H96500   4.714   1.790   8.871 -0.5909  0.7579 -0.5064
  715MOL0     H96501   4.602   1.522   8.945 -0.4575  0.0459 -0.5754
  715MOL0     H96502   4.683   1.636   9.050 -0.7573  0.9267 -0.0477
  715MOL0     H96503   4.397   1.675   8.943 -0.9351  2.8634  1.4722
  715MOL0     H96504   4.471   1.764   9.076  1.8623 -0.4932  2.2520
  715MOL0     H96505   4.305   1.624   9.158 -1.0426 -1.8216  2.0357
  715MOL0     H96506   4.467   1.586   9.212  0.2403  1.5823 -1.4417
  715MOL0     H96507   4.855   1.165   8.420 -2.0485  1.6123  0.0071
  715MOL0     H96508   5.093   1.096   8.382  1.3816 -0.7094 -2.8348
  715MOL0     H96509   5.429   1.063   8.181 -1.3843  1.7368 -0.6519
  715MOL0     H96510   5.654   0.974   8.117 -0.0961 -0.2691  1.1933
  715MOL0     H96511   7.753   1.282   7.899 -2.2578 -3.8026 -0.8644
  715MOL0     H96512   7.934   1.365   7.763 -0.4923  1.8587  0.2637
  715MOL0     H96513   8.251   1.630   7.619  0.4395 -1.9489 -0.6567
  715MOL0     H96514   8.446   1.666   7.474 -0.2471 -0.3035  1.2438
  715MOL0     H96515   8.603   1.558   7.371 -3.0462 -2.8232 -0.0309
  715MOL0     H96516   8.662   1.530   7.206  0.7528  0.8842  0.6592
  715MOL0     H96517   8.599   1.813   7.312  1.0723 -0.5588  2.6491
  715MOL0     H96518   8.625   1.774   7.148  3.8315  2.2779 -0.1677
  715MOL0     H96519   8.849   1.677   7.192 -1.3340 -2.6044  1.5001
  715MOL0     H96520   8.831   1.696   7.362  0.3840 -4.1849 -1.3424
  715MOL0     H96521   8.961   1.889   7.268  0.7638 -2.4124 -2.4863
  715MOL0     H96522   8.801   1.957   7.317  1.2229  1.6332  0.3889
  715MOL0     H96523   8.808   1.999   6.900  2.6502  2.5979 -0.2724
  715MOL0     H96524   8.226   1.491   7.152  2.9496 -0.6658 -0.0837
  715MOL0     H96525   8.027   1.468   7.296 -0.6999  0.0310  1.4770
  716MOL0     O96526   0.924   8.408   4.391  0.0281  0.4991  0.2967
  716MOL0     C96527   0.969   8.482   4.476  0.4193 -0.0636  0.6490
  716MOL0     O96528   0.899   8.585   4.538 -0.5278  0.1849 -0.3375
  716MOL0     C96529   0.760   8.590   4.528 -0.6365  0.1650 -0.0563
  716MOL0     C96530   0.684   8.510   4.605  0.4257 -0.4301 -0.9032
  716MOL0     C96531   0.544   8.509   4.603 -0.7692  0.0058  0.1563
  716MOL0     C96532   0.478   8.599   4.516  0.0456 -0.4635  0.0861
  716MOL0     O96533   0.341   8.602   4.514  0.6819  0.1081 -0.9601
  716MOL0     C96534   0.270   8.688   4.428 -0.0090 -0.4452 -0.3381
  716MOL0     C96535   0.126   8.652   4.426 -0.9779 -0.2205  0.2626
  716MOL0     C96536   0.071   8.678   4.288  0.5233  0.3993 -0.1039
  716MOL0     C96537  -0.081   8.642   4.274  0.6378  0.1185 -0.2940
  716MOL0     C96538  -0.120   8.497   4.305 -0.0551  0.3180  0.1516
  716MOL0     C96539  -0.274   8.493   4.270  0.1472 -0.1883  0.1726
  716MOL0     C96540  -0.321   8.349   4.287  0.3361 -0.3293  0.0208
  716MOL0     C96541  -0.476   8.344   4.295  0.2409 -0.6821  0.3193
  716MOL0     N96542  -0.537   8.216   4.319 -0.2316  0.7204 -0.3420
  716MOL0     C96543  -0.558   8.115   4.235 -0.1950  0.5311  0.1173
  716MOL0     C96544  -0.593   8.007   4.306  0.6637 -0.2301  0.0539
  716MOL0     C96545  -0.612   7.875   4.242  0.3715 -0.2689 -0.5501
  716MOL0     C96546  -0.736   7.803   4.310 -0.7027  0.1551  0.7080
  716MOL0     C96547  -0.756   7.674   4.231  0.4443 -0.3695 -0.3988
  716MOL0     C96548  -0.876   7.588   4.283 -0.1527 -0.4255 -0.4653
  716MOL0     O96549  -0.989   7.671   4.284  0.1548 -0.3651  0.0970
  716MOL0     C96550  -1.107   7.606   4.309  0.7851  1.0165 -0.1289
  716MOL0     C96551  -1.137   7.558   4.430  0.2806  0.3279  0.0815
  716MOL0     C96552  -1.268   7.520   4.464 -0.2134  0.7954 -0.1656
  716MOL0     C96553  -1.291   7.453   4.595 -0.4320 -0.2828  0.1478
  716MOL0     C96554  -1.375   7.532   4.374  0.7000 -0.6779 -0.6513
  716MOL0     C96555  -1.520   7.495   4.398 -0.9786 -0.2561 -0.2919
  716MOL0     O96556  -1.595   7.464   4.285  0.0723 -0.1157  0.4198
  716MOL0     C96557  -1.708   7.389   4.310 -0.3433 -0.8815 -0.4604
  716MOL0     C96558  -1.819   7.459   4.357  0.3137  0.2682 -0.6074
  716MOL0     C96559  -1.934   7.386   4.380  0.3687  0.8263 -0.4590
  716MOL0     C96560  -1.943   7.248   4.370  0.3938  0.8287 -0.9018
  716MOL0     O96561  -2.051   7.169   4.392  0.5377  0.2933 -0.0859
  716MOL0     C96562  -2.177   7.239   4.379  0.4003  0.5651  0.1397
  716MOL0     C96563  -2.291   7.140   4.356 -0.0523  0.2235  0.4860
  716MOL0     C96564  -2.322   7.049   4.474 -0.1733  0.3723 -0.2779
  716MOL0     C96565  -2.456   6.967   4.456 -0.5393 -0.2005  0.1344
  716MOL0     C96566  -2.461   6.850   4.554  0.3444 -0.0908  0.0308
  716MOL0     C96567  -2.593   6.775   4.558  0.6591  0.2745  0.4243
  716MOL0     C96568  -2.595   6.679   4.671  0.5204 -0.3452 -0.4466
  716MOL0     C96569  -2.711   6.576   4.664  0.2299 -0.0589 -0.8882
  716MOL0    Cl96570  -2.874   6.661   4.663  0.1148  0.0098 -0.0591
  716MOL0     C96571  -1.830   7.175   4.328 -0.3146 -0.7106 -0.0166
  716MOL0     C96572  -1.715   7.249   4.296 -0.6853  0.2635  0.3617
  716MOL0     O96573  -1.564   7.499   4.511  0.2811 -0.0889 -0.0010
  716MOL0     C96574  -1.332   7.564   4.242 -0.2069  0.6387 -0.5547
  716MOL0     C96575  -1.210   7.607   4.213 -0.5332  0.5817 -0.3100
  716MOL0     N96576  -0.605   8.046   4.439 -0.5609 -0.0611 -0.0499
  716MOL0     N96577  -0.566   8.172   4.442  0.0595 -0.2801 -1.1180
  716MOL0     C96578   0.560   8.682   4.436  0.1697  0.6883  1.4401
  716MOL0     C96579   0.702   8.680   4.440 -0.6539  0.0350 -0.1263
  716MOL0     C96580   1.113   8.469   4.523 -0.0852 -0.1207  0.1976
  716MOL0     C96581   1.155   8.519   4.650  0.1048  0.6511  0.3485
  716MOL0     C96582   1.284   8.491   4.699 -0.0926 -0.1322  0.1854
  716MOL0     C96583   1.375   8.428   4.621  0.2783 -0.3392 -0.1741
  716MOL0     O96584   1.490   8.410   4.688  0.2128  0.6205 -0.6815
  716MOL0     C96585   1.598   8.361   4.615  0.6304  0.4050 -0.2349
  716MOL0     C96586   1.728   8.372   4.682 -1.2702  0.2422 -0.3581
  716MOL0     C96587   1.787   8.512   4.713 -0.4371 -0.2762 -0.1344
  716MOL0     C96588   1.943   8.517   4.727 -0.2385 -0.5518  0.0751
  716MOL0     C96589   1.995   8.448   4.840 -0.6083 -0.2420 -0.3886
  716MOL0     C96590   2.015   8.383   4.945  0.2438 -0.1507 -0.5037
  716MOL0     C96591   1.332   8.375   4.501  0.1305  0.5352  0.7034
  716MOL0     C96592   1.208   8.398   4.443  0.9289 -0.1618 -0.4603
  716MOL0     H96593   0.732   8.447   4.681 -2.1228  1.0818  2.1977
  716MOL0     H96594   0.491   8.450   4.677  0.3275 -0.1837  0.8096
  716MOL0     H96595   0.289   8.792   4.456  2.2085 -0.3166 -2.0348
  716MOL0     H96596   0.311   8.673   4.327  2.6872 -2.9292  0.9696
  716MOL0     H96597   0.116   8.544   4.439 -0.5776 -0.3000 -0.0753
  716MOL0     H96598   0.070   8.700   4.507 -3.2557  0.8739 -1.8397
  716MOL0     H96599   0.056   8.786   4.277 -1.8454  0.3315  1.5813
  716MOL0     H96600   0.125   8.627   4.209  2.7363 -0.9959  2.1802
  716MOL0     H96601  -0.135   8.694   4.354  0.3700 -1.1028  0.3328
  716MOL0     H96602  -0.125   8.674   4.179  1.9889  2.1156 -0.3251
  716MOL0     H96603  -0.060   8.424   4.249  0.7006  0.8883  0.2073
  716MOL0     H96604  -0.105   8.474   4.410 -0.1253  1.6254  0.4637
  716MOL0     H96605  -0.340   8.562   4.323 -0.9178 -0.9438 -0.1254
  716MOL0     H96606  -0.299   8.515   4.166 -0.7718  1.5596  0.7212
  716MOL0     H96607  -0.282   8.273   4.219 -1.8970 -0.5613 -1.0739
  716MOL0     H96608  -0.290   8.320   4.388  1.0408 -1.1135 -0.4061
  716MOL0     H96609  -0.519   8.383   4.202  0.7221 -1.3109 -0.1740
  716MOL0     H96610  -0.510   8.410   4.375 -0.3626  1.1532 -1.3596
  716MOL0     H96611  -0.543   8.115   4.128 -1.6645 -1.2618 -0.1340
  716MOL0     H96612  -0.627   7.896   4.136 -0.7748  3.4222  0.2000
  716MOL0     H96613  -0.518   7.823   4.258  0.7730  0.2969 -1.0560
  716MOL0     H96614  -0.827   7.863   4.303 -0.4084  0.5583  0.3003
  716MOL0     H96615  -0.713   7.779   4.414 -1.7253  1.3990  1.2419
  716MOL0     H96616  -0.664   7.616   4.240  0.3686 -0.7747 -2.0072
  716MOL0     H96617  -0.771   7.695   4.125 -0.3962 -0.2496 -0.2703
  716MOL0     H96618  -0.868   7.549   4.385 -1.7519 -0.5211 -0.3513
  716MOL0     H96619  -0.898   7.510   4.209 -0.9221  1.3823 -2.2153
  716MOL0     H96620  -1.058   7.554   4.505  1.1219  1.6727 -0.6795
  716MOL0     H96621  -1.196   7.448   4.651  0.1234 -2.6394 -0.8736
  716MOL0     H96622  -1.356   7.523   4.649  0.2706  1.5917 -1.3377
  716MOL0     H96623  -1.333   7.352   4.589 -1.5104  0.0880  1.1146
  716MOL0     H96624  -1.814   7.567   4.372 -0.0587  0.2023  0.0122
  716MOL0     H96625  -2.013   7.434   4.438  1.8269  0.7702  1.6995
  716MOL0     H96626  -2.196   7.306   4.464 -0.1415  1.0730 -0.3793
  716MOL0     H96627  -2.178   7.302   4.290 -1.2022  0.8563  0.3376
  716MOL0     H96628  -2.382   7.192   4.326 -1.1553 -1.9391 -0.1028
  716MOL0     H96629  -2.270   7.085   4.265  0.4685  0.9818  0.1327
  716MOL0     H96630  -2.338   7.109   4.564  0.2992  0.1820 -0.0653
  716MOL0     H96631  -2.229   6.992   4.482  0.4453  1.4482  0.5627
  716MOL0     H96632  -2.543   7.030   4.477  0.5638  0.8832  1.6114
  716MOL0     H96633  -2.462   6.929   4.353 -1.0426  0.3387 -0.0412
  716MOL0     H96634  -2.443   6.893   4.653  0.1707 -0.1244  0.0761
  716MOL0     H96635  -2.378   6.785   4.525 -0.1493 -0.3254 -0.9037
  716MOL0     H96636  -2.679   6.842   4.566  2.5886  2.7004  3.1967
  716MOL0     H96637  -2.602   6.721   4.463  0.1016 -0.1885  0.7377
  716MOL0     H96638  -2.609   6.730   4.767 -0.5080 -0.0061 -0.7643
  716MOL0     H96639  -2.497   6.632   4.659  1.4906  0.9654  1.6821
  716MOL0     H96640  -2.704   6.518   4.756 -0.0112 -0.9320 -1.4079
  716MOL0     H96641  -2.703   6.496   4.590 -0.3664  1.0427 -2.1906
  716MOL0     H96642  -1.829   7.067   4.312 -1.8936 -0.7360 -0.0952
  716MOL0     H96643  -1.622   7.206   4.260 -0.2329  1.3884  0.1293
  716MOL0     H96644  -1.405   7.550   4.163 -2.0326 -2.0972  1.4159
  716MOL0     H96645  -1.190   7.620   4.108  1.2331  1.0743  0.0587
  716MOL0     H96646   0.521   8.759   4.371 -0.3731  0.4139  1.4377
  716MOL0     H96647   0.765   8.745   4.380  1.2448 -0.2642  1.4628
  716MOL0     H96648   1.088   8.568   4.720  0.5703 -2.5564  3.2733
  716MOL0     H96649   1.302   8.527   4.799 -1.9374 -5.0540  2.6528
  716MOL0     H96650   1.577   8.259   4.581  0.0354  0.4548 -0.0276
  716MOL0     H96651   1.598   8.419   4.522 -1.6813  1.3793  0.3028
  716MOL0     H96652   1.793   8.330   4.605  0.0330  0.1954  0.7334
  716MOL0     H96653   1.739   8.309   4.771 -1.7237  2.8389  1.6709
  716MOL0     H96654   1.746   8.553   4.806 -1.3406 -1.2670 -0.0786
  716MOL0     H96655   1.751   8.579   4.635 -1.2730 -0.8232 -0.2278
  716MOL0     H96656   1.988   8.617   4.732 -0.6760 -0.2607 -1.2865
  716MOL0     H96657   1.972   8.465   4.635 -1.3192 -0.5508 -0.2834
  716MOL0     H96658   2.018   8.320   5.032  1.9986 -0.6141 -0.8801
  716MOL0     H96659   1.392   8.305   4.445 -0.3558  0.3981  0.3424
  716MOL0     H96660   1.180   8.352   4.349  0.0077  1.5086 -1.0487
  717MOL0     O96661   2.111  10.638   5.161  0.7412 -0.5649 -0.0453
  717MOL0     C96662   2.145  10.642   5.278  0.2977  0.0659  0.0083
  717MOL0     O96663   2.058  10.654   5.389  0.7780 -0.0069  0.0848
  717MOL0     C96664   1.924  10.693   5.373 -0.4171 -0.2083 -0.0659
  717MOL0     C96665   1.883  10.785   5.280  0.4580 -0.4051  0.6717
  717MOL0     C96666   1.757  10.851   5.295  0.0670  0.0911 -0.6082
  717MOL0     C96667   1.665  10.793   5.377  0.0091 -0.3795 -0.2642
  717MOL0     O96668   1.534  10.835   5.354 -0.2546  0.0968  0.1786
  717MOL0     C96669   1.440  10.728   5.361  0.2651 -0.4440  0.3112
  717MOL0     C96670   1.302  10.775   5.312 -0.0924 -0.6224  0.2578
  717MOL0     C96671   1.304  10.805   5.155  0.3498 -0.3012 -0.1914
  717MOL0     C96672   1.160  10.819   5.098  0.5540 -0.6990  0.2098
  717MOL0     C96673   1.170  10.851   4.949  0.2219  0.8202  0.4659
  717MOL0     C96674   1.033  10.838   4.879 -0.4854  0.2024  0.2466
  717MOL0     C96675   1.023  10.914   4.742  0.0801  0.0583  0.0415
  717MOL0     C96676   0.878  10.896   4.685 -0.6094  0.0255 -0.8385
  717MOL0     N96677   0.851  10.919   4.539  0.4438 -0.6271 -0.2777
  717MOL0     C96678   0.825  11.040   4.477 -0.0299 -0.3354 -0.1236
  717MOL0     C96679   0.826  11.013   4.345 -0.3424  0.4284 -0.2428
  717MOL0     C96680   0.824  11.123   4.239 -0.2829  0.5457 -0.6112
  717MOL0     C96681   0.684  11.178   4.214  0.7524 -0.1355  1.1239
  717MOL0     C96682   0.583  11.080   4.142  0.3381  0.5097 -0.2884
  717MOL0     C96683   0.444  11.140   4.114 -0.3382 -0.9528 -0.1535
  717MOL0     O96684   0.357  11.047   4.049  0.4895 -0.5624 -0.4165
  717MOL0     C96685   0.240  11.089   3.988  0.3237 -0.7653  0.3962
  717MOL0     C96686   0.167  10.998   3.918 -0.6475  0.2936 -0.4460
  717MOL0     C96687   0.044  11.023   3.858  0.0460 -0.0707  0.0280
  717MOL0     C96688  -0.021  10.917   3.785 -1.0782  0.3015 -0.1733
  717MOL0     C96689  -0.005  11.149   3.874 -0.0263 -0.4888 -0.2731
  717MOL0     C96690  -0.138  11.187   3.831 -0.1522 -0.4413 -0.3048
  717MOL0     O96691  -0.199  11.291   3.895  0.2003 -0.2402  0.2793
  717MOL0     C96692  -0.331  11.316   3.895  0.0355  0.3679  0.3456
  717MOL0     C96693  -0.443  11.246   3.849  0.7702 -0.0072 -0.7717
  717MOL0     C96694  -0.570  11.294   3.857  0.6825 -0.2809  0.1045
  717MOL0     C96695  -0.597  11.423   3.916  0.4068  0.3001 -0.5406
  717MOL0     O96696  -0.731  11.464   3.930  0.1941  0.4468 -0.7340
  717MOL0     C96697  -0.787  11.460   4.063  0.7671 -0.0384 -0.4798
  717MOL0     C96698  -0.868  11.582   4.091 -0.4339 -0.0981 -0.2188
  717MOL0     C96699  -0.974  11.629   3.985  0.4636 -0.9023  0.0941
  717MOL0     C96700  -1.101  11.535   3.979 -0.7844 -0.1115 -0.1709
  717MOL0     C96701  -1.211  11.595   3.891  0.8622 -0.1322 -0.1745
  717MOL0     C96702  -1.192  11.559   3.741 -0.4751 -0.6403  0.0841
  717MOL0     C96703  -1.326  11.559   3.659  0.6802  0.7170 -0.2711
  717MOL0     C96704  -1.379  11.704   3.657 -0.8707  0.4856 -0.4239
  717MOL0    Cl96705  -1.494  11.712   3.531 -0.1699  0.4130 -0.0135
  717MOL0     C96706  -0.491  11.487   3.970 -0.7218 -0.1716  0.7222
  717MOL0     C96707  -0.357  11.440   3.957  0.1891 -0.0333 -0.2164
  717MOL0     O96708  -0.189  11.132   3.738  0.7622 -0.5626  0.2348
  717MOL0     C96709   0.057  11.240   3.958  0.4370  0.1517  0.3195
  717MOL0     C96710   0.187  11.213   4.009  1.2305 -0.1636  0.0318
  717MOL0     N96711   0.840  10.873   4.329 -0.5488 -0.3632 -0.3392
  717MOL0     N96712   0.854  10.818   4.449 -0.5334 -0.2629 -0.0123
  717MOL0     C96713   1.703  10.702   5.475 -0.1725 -0.4454  0.1342
  717MOL0     C96714   1.833  10.649   5.471  0.7351 -0.2363 -0.2732
  717MOL0     C96715   2.288  10.647   5.300 -0.1401  0.1105  0.2204
  717MOL0     C96716   2.342  10.684   5.426  0.4149  0.6514  0.1306
  717MOL0     C96717   2.483  10.684   5.436  0.7723  0.8639 -1.5401
  717MOL0     C96718   2.565  10.654   5.327  1.2432  0.6218  0.3649
  717MOL0     O96719   2.699  10.637   5.333  0.5997  0.0056 -0.2631
  717MOL0     C96720   2.760  10.589   5.454 -0.1890 -1.1567  0.4541
  717MOL0     C96721   2.895  10.513   5.436  0.3720  0.2697 -0.3377
  717MOL0     C96722   2.856  10.371   5.389  0.2983 -0.0329 -0.1130
  717MOL0     C96723   2.980  10.291   5.359  0.1522 -0.4352  0.8751
  717MOL0     C96724   3.051  10.331   5.241 -0.6347 -0.2779 -0.5701
  717MOL0     C96725   3.121  10.366   5.149 -1.1816 -0.2983 -0.0681
  717MOL0     C96726   2.510  10.619   5.201  0.2190  0.4005 -0.2256
  717MOL0     C96727   2.370  10.617   5.188 -0.0070  0.0437 -0.5958
  717MOL0     H96728   1.940  10.822   5.196 -3.6534  1.8803 -1.4099
  717MOL0     H96729   1.743  10.927   5.218  2.0830 -1.2597 -2.4199
  717MOL0     H96730   1.485  10.652   5.296  4.0497  1.7489  0.0798
  717MOL0     H96731   1.433  10.694   5.464 -1.8519  0.9216  0.6693
  717MOL0     H96732   1.238  10.688   5.328 -0.4657 -0.1560  1.5035
  717MOL0     H96733   1.266  10.865   5.363 -1.7491 -0.7050 -0.7017
  717MOL0     H96734   1.346  10.906   5.145 -1.1311  0.2821 -0.8604
  717MOL0     H96735   1.367  10.734   5.101 -0.8450  0.2479 -2.4020
  717MOL0     H96736   1.103  10.727   5.112 -0.6283 -0.1230 -0.6635
  717MOL0     H96737   1.105  10.898   5.149 -1.7259 -1.0440 -1.5343
  717MOL0     H96738   1.210  10.951   4.935 -1.1651  1.5482  1.4021
  717MOL0     H96739   1.233  10.778   4.897 -0.9690 -0.0851  0.2383
  717MOL0     H96740   1.005  10.734   4.859  2.5079 -0.8794  1.1371
  717MOL0     H96741   0.954  10.879   4.943  0.7525  0.4312  1.6748
  717MOL0     H96742   1.048  11.021   4.746  2.2809 -0.3278 -1.2723
  717MOL0     H96743   1.087  10.873   4.663 -1.3539 -0.6365 -0.7982
  717MOL0     H96744   0.801  10.941   4.749 -0.2457  2.1482 -1.8105
  717MOL0     H96745   0.860  10.789   4.699 -0.0607  0.0864  0.5598
  717MOL0     H96746   0.818  11.136   4.527 -1.0715 -1.4160  1.9274
  717MOL0     H96747   0.888  11.203   4.275  0.5249  1.1100 -3.0866
  717MOL0     H96748   0.872  11.089   4.146  3.8917  0.0741  1.4808
  717MOL0     H96749   0.688  11.277   4.167  2.5264  0.1206  1.7373
  717MOL0     H96750   0.640  11.201   4.312 -2.1693  1.2425 -0.3573
  717MOL0     H96751   0.577  10.993   4.208  1.6569  1.2744  0.8909
  717MOL0     H96752   0.627  11.046   4.047 -1.0103 -2.1067 -0.0649
  717MOL0     H96753   0.451  11.238   4.067  3.1739 -1.0620 -0.1588
  717MOL0     H96754   0.394  11.167   4.207 -1.4399 -1.2674 -0.6304
  717MOL0     H96755   0.207  10.897   3.911 -0.2877  0.3778  0.2989
  717MOL0     H96756   0.025  10.822   3.815 -0.6082 -0.2167 -2.3829
  717MOL0     H96757  -0.127  10.903   3.805 -0.5867 -2.3281  1.0993
  717MOL0     H96758  -0.002  10.940   3.680  0.3833  1.3736  0.2792
  717MOL0     H96759  -0.423  11.158   3.788  1.7949  0.9266 -1.8535
  717MOL0     H96760  -0.655  11.237   3.819 -1.6134  1.9181  1.6027
  717MOL0     H96761  -0.852  11.372   4.053  1.5706 -1.1555  2.8246
  717MOL0     H96762  -0.712  11.437   4.138  0.1804 -2.2302 -0.5031
  717MOL0     H96763  -0.922  11.574   4.186 -2.8610  2.1478 -1.2503
  717MOL0     H96764  -0.802  11.668   4.106  2.3168 -2.1172 -0.0100
  717MOL0     H96765  -0.930  11.628   3.885  1.5525 -1.8241  0.5591
  717MOL0     H96766  -1.011  11.731   3.997 -2.3128 -2.1394  3.6354
  717MOL0     H96767  -1.066  11.438   3.944 -2.1026 -0.3524 -0.8627
  717MOL0     H96768  -1.128  11.532   4.085 -0.1017  1.8534  0.1012
  717MOL0     H96769  -1.211  11.704   3.899 -0.7491  0.0752 -2.2240
  717MOL0     H96770  -1.303  11.551   3.932  0.2661  1.1727 -0.0639
  717MOL0     H96771  -1.117  11.631   3.705  0.7092 -0.4484  2.6649
  717MOL0     H96772  -1.141  11.462   3.744  1.3767  0.2905  0.2394
  717MOL0     H96773  -1.397  11.491   3.707  0.4229  0.4141 -1.0646
  717MOL0     H96774  -1.309  11.517   3.559 -1.0563 -1.1801  0.1704
  717MOL0     H96775  -1.299  11.773   3.630  0.6611 -0.1017  2.2707
  717MOL0     H96776  -1.412  11.728   3.758  0.5312  2.9277 -0.4661
  717MOL0     H96777  -0.499  11.584   4.018 -1.5155 -0.4264  1.1263
  717MOL0     H96778  -0.274  11.504   3.984  0.4167 -0.2483 -0.4023
  717MOL0     H96779   0.015  11.338   3.978 -1.5376 -0.6352  0.2717
  717MOL0     H96780   0.232  11.287   4.074  1.2160  0.2931 -0.4732
  717MOL0     H96781   1.637  10.664   5.553 -0.1499 -0.4794  0.1369
  717MOL0     H96782   1.868  10.578   5.545 -0.6793 -0.7611 -0.0600
  717MOL0     H96783   2.269  10.713   5.501 -3.9099  2.2061 -4.1485
  717MOL0     H96784   2.535  10.714   5.526  2.0993 -1.4809 -1.4642
  717MOL0     H96785   2.773  10.671   5.525 -1.9265 -0.3296 -0.1291
  717MOL0     H96786   2.693  10.519   5.505  0.1525 -0.4694  1.9144
  717MOL0     H96787   2.947  10.494   5.530  1.6268 -0.7233 -1.2007
  717MOL0     H96788   2.974  10.557   5.375 -0.7561  2.1284 -0.5573
  717MOL0     H96789   2.798  10.374   5.296 -1.3361 -1.3015  0.7960
  717MOL0     H96790   2.798  10.313   5.462  2.2882 -1.9335  0.0614
  717MOL0     H96791   2.947  10.188   5.339  1.4966 -0.9002  0.9162
  717MOL0     H96792   3.042  10.291   5.449  0.7151  2.2252  0.5472
  717MOL0     H96793   3.188  10.400   5.073  2.0883 -1.2304  2.1727
  717MOL0     H96794   2.576  10.596   5.119 -1.0709 -0.0458 -1.1730
  717MOL0     H96795   2.338  10.596   5.086  0.3314 -1.0591 -0.4947
  718MOL0     O96796   9.181   3.198   2.492  0.0785  0.3705  0.0350
  718MOL0     C96797   9.247   3.277   2.423  0.1545  0.2317 -0.3348
  718MOL0     O96798   9.214   3.312   2.293  0.8690  0.0008  0.3088
  718MOL0     C96799   9.125   3.238   2.218  0.9214 -0.4443  0.0900
  718MOL0     C96800   8.991   3.269   2.202  0.5360  0.2357 -0.1253
  718MOL0     C96801   8.900   3.189   2.139  0.1960  0.3247  0.6836
  718MOL0     C96802   8.942   3.063   2.091 -0.5696 -0.1929 -0.1125
  718MOL0     O96803   8.837   2.986   2.056 -0.7516  0.8493  0.0207
  718MOL0     C96804   8.855   2.840   2.047 -0.3779  0.4136 -0.4757
  718MOL0     C96805   8.739   2.780   1.964 -0.4966  0.1346 -0.0903
  718MOL0     C96806   8.731   2.631   1.981 -0.3846 -0.1999 -0.1016
  718MOL0     C96807   8.592   2.575   1.942 -0.2978  0.7019 -0.2583
  718MOL0     C96808   8.585   2.418   1.945  0.4469 -0.3711  0.0307
  718MOL0     C96809   8.443   2.366   1.925 -0.4020 -0.4879 -0.2491
  718MOL0     C96810   8.435   2.218   1.975 -0.3209  0.0502 -0.2774
  718MOL0     C96811   8.291   2.164   1.986 -0.6177  0.2211 -0.2764
  718MOL0     N96812   8.209   2.196   1.873 -0.0810 -0.1816 -0.0587
  718MOL0     C96813   8.207   2.117   1.762 -0.3148 -0.0423 -0.3678
  718MOL0     C96814   8.107   2.169   1.679  0.7704  0.9485 -0.8103
  718MOL0     C96815   8.072   2.115   1.547  0.1580 -0.8072  0.3161
  718MOL0     C96816   7.927   2.057   1.530  0.1458 -0.2602 -0.3102
  718MOL0     C96817   7.815   2.162   1.558  0.3225  0.7210 -0.0483
  718MOL0     C96818   7.687   2.086   1.522 -0.1491  0.5141  0.1518
  718MOL0     O96819   7.647   2.005   1.633  0.0733 -0.0445 -0.7945
  718MOL0     C96820   7.510   1.974   1.662  0.0428  0.2570 -0.4959
  718MOL0     C96821   7.475   1.905   1.776 -0.3298  0.2257 -0.0853
  718MOL0     C96822   7.351   1.841   1.798 -0.5327 -0.1428  0.0041
  718MOL0     C96823   7.346   1.739   1.918 -0.1451  0.4321  1.1531
  718MOL0     C96824   7.248   1.864   1.707 -0.0521 -0.7513 -0.0600
  718MOL0     C96825   7.112   1.801   1.697  0.6227 -0.5881 -0.0242
  718MOL0     O96826   7.030   1.835   1.594  0.2709 -0.3088 -0.0962
  718MOL0     C96827   6.902   1.771   1.573  0.3760  0.5226  0.5749
  718MOL0     C96828   6.787   1.822   1.628  0.2865 -0.5905 -0.1001
  718MOL0     C96829   6.660   1.784   1.593 -0.4537  0.4520 -0.7716
  718MOL0     C96830   6.644   1.683   1.504  0.1125 -0.6344 -1.3662
  718MOL0     O96831   6.520   1.629   1.471 -0.3283  0.5528 -0.0520
  718MOL0     C96832   6.387   1.684   1.509 -0.3553  0.9277  0.0641
  718MOL0     C96833   6.308   1.575   1.586 -0.0126 -0.6063 -1.0945
  718MOL0     C96834   6.176   1.641   1.633  0.4736 -0.0405 -0.9936
  718MOL0     C96835   6.084   1.547   1.713 -0.4907  0.6845  0.6015
  718MOL0     C96836   5.951   1.615   1.734  0.0492  0.2875  0.3704
  718MOL0     C96837   5.859   1.541   1.826 -0.3457  0.6120 -0.1932
  718MOL0     C96838   5.734   1.618   1.863 -0.2797  0.2071  0.4561
  718MOL0     C96839   5.657   1.543   1.972  0.0485  1.2497  0.2219
  718MOL0    Cl96840   5.486   1.587   1.962  0.4674 -0.1381  0.3301
  718MOL0     C96841   6.756   1.630   1.444  0.1343  0.7609  0.1879
  718MOL0     C96842   6.883   1.677   1.467 -0.4275 -0.4757 -0.0257
  718MOL0     O96843   7.076   1.722   1.777  0.3938  0.2490  0.3996
  718MOL0     C96844   7.280   1.935   1.591  0.1567 -0.2816 -0.4803
  718MOL0     C96845   7.407   1.983   1.567  0.7919  0.0367 -0.1568
  718MOL0     N96846   8.059   2.277   1.742  0.5054 -0.3323 -0.2913
  718MOL0     N96847   8.120   2.298   1.848 -0.2321 -0.2670 -0.6047
  718MOL0     C96848   9.082   3.030   2.100  0.4058  0.4057 -0.0059
  718MOL0     C96849   9.173   3.122   2.162 -0.0367 -0.4980  0.4155
  718MOL0     C96850   9.370   3.342   2.477  0.4718  0.1536 -0.2062
  718MOL0     C96851   9.408   3.331   2.612 -1.1429 -0.0360 -0.2034
  718MOL0     C96852   9.531   3.386   2.658 -0.4257  0.0460  0.0713
  718MOL0     C96853   9.611   3.449   2.565 -0.6137 -0.2393 -0.1598
  718MOL0     O96854   9.715   3.524   2.612 -0.4281  0.1048 -0.2802
  718MOL0     C96855   9.829   3.569   2.530  0.0095  0.7473 -0.3616
  718MOL0     C96856   9.960   3.543   2.597 -0.0673  0.0121 -0.3209
  718MOL0     C96857  10.015   3.396   2.574  0.0006  0.4142  0.0694
  718MOL0     C96858   9.927   3.286   2.631 -0.3337 -0.3191 -0.0630
  718MOL0     C96859  10.013   3.161   2.643  0.1166  0.3760  0.2697
  718MOL0     C96860  10.090   3.068   2.670  1.2812  0.0809 -0.0462
  718MOL0     C96861   9.571   3.455   2.430  0.2763  0.4079 -0.4009
  718MOL0     C96862   9.450   3.411   2.388 -0.1866  0.3457  0.1928
  718MOL0     H96863   8.960   3.364   2.245  2.9012  2.5540 -3.0476
  718MOL0     H96864   8.794   3.214   2.144 -0.1528 -1.0188  0.3287
  718MOL0     H96865   8.953   2.804   2.016 -0.5166 -1.2882  0.9187
  718MOL0     H96866   8.851   2.797   2.147 -2.6760  0.9366 -0.2879
  718MOL0     H96867   8.643   2.824   1.992 -0.4815 -0.6493  1.3006
  718MOL0     H96868   8.755   2.788   1.856 -1.1602 -1.9522 -0.3819
  718MOL0     H96869   8.806   2.576   1.923 -0.3078 -0.0562 -0.1373
  718MOL0     H96870   8.750   2.602   2.085 -2.5712  0.5828  0.5783
  718MOL0     H96871   8.523   2.613   2.018  2.8331  1.3569  2.4537
  718MOL0     H96872   8.561   2.608   1.842  1.2250  0.2366 -0.9063
  718MOL0     H96873   8.653   2.363   1.878 -0.5538  0.1434 -1.4688
  718MOL0     H96874   8.626   2.394   2.044 -0.7086  1.3622  0.9653
  718MOL0     H96875   8.370   2.423   1.983 -0.7923 -4.1235  3.2484
  718MOL0     H96876   8.421   2.373   1.818 -1.2998 -1.3276 -0.1352
  718MOL0     H96877   8.504   2.164   1.910  0.0355  1.4778 -1.1408
  718MOL0     H96878   8.479   2.207   2.075  0.7348 -0.5085 -0.7801
  718MOL0     H96879   8.240   2.209   2.071  1.8203  2.0800  0.3032
  718MOL0     H96880   8.307   2.056   1.998  1.3180  0.5438  0.2846
  718MOL0     H96881   8.271   2.033   1.737 -1.2633 -0.3618 -1.8323
  718MOL0     H96882   8.081   2.191   1.469 -1.3192 -0.0953  0.7912
  718MOL0     H96883   8.151   2.042   1.527  0.1297 -1.5547  2.6990
  718MOL0     H96884   7.922   1.980   1.608  1.2307 -0.4747 -0.4316
  718MOL0     H96885   7.919   2.008   1.432  1.6968 -1.3528  0.0645
  718MOL0     H96886   7.834   2.250   1.495  0.1780  2.2404  1.9120
  718MOL0     H96887   7.827   2.191   1.663 -0.0069  0.3325  0.0952
  718MOL0     H96888   7.711   2.025   1.435  0.4931  1.1447 -0.1213
  718MOL0     H96889   7.604   2.147   1.483 -1.5119 -1.9567 -1.0245
  718MOL0     H96890   7.562   1.890   1.839  0.0168  0.8450 -0.4033
  718MOL0     H96891   7.428   1.755   1.988 -0.3335 -0.0618  1.4891
  718MOL0     H96892   7.253   1.741   1.975 -1.0320  1.9485 -0.2733
  718MOL0     H96893   7.367   1.641   1.874 -0.3898  0.7652  0.2587
  718MOL0     H96894   6.788   1.898   1.706 -3.2912 -1.5887  1.1430
  718MOL0     H96895   6.578   1.836   1.643 -1.5554 -2.4734  0.6788
  718MOL0     H96896   6.382   1.776   1.567 -0.2049  0.4307  0.8767
  718MOL0     H96897   6.348   1.710   1.410  2.7860 -0.2769 -1.6266
  718MOL0     H96898   6.283   1.484   1.531 -1.6901 -1.1696  0.4582
  718MOL0     H96899   6.364   1.550   1.676 -0.1585 -1.6611 -1.2785
  718MOL0     H96900   6.127   1.688   1.548  1.1078 -0.6994 -1.7406
  718MOL0     H96901   6.201   1.723   1.701  0.9923 -1.3728  0.4972
  718MOL0     H96902   6.072   1.450   1.663  0.5183 -0.1536  1.8971
  718MOL0     H96903   6.127   1.519   1.810 -0.7846  2.4853  1.2791
  718MOL0     H96904   5.904   1.639   1.639  0.0662  1.0696  0.5598
  718MOL0     H96905   5.964   1.709   1.788 -2.2805  0.2771  1.0552
  718MOL0     H96906   5.831   1.456   1.764  0.3085 -0.6532  1.1882
  718MOL0     H96907   5.908   1.512   1.919 -0.7921 -0.7077 -0.3545
  718MOL0     H96908   5.677   1.614   1.770 -0.0397  0.8589  0.2805
  718MOL0     H96909   5.745   1.723   1.890 -0.9197  1.1811 -2.7598
  718MOL0     H96910   5.699   1.567   2.070  1.2194  0.7292 -0.1371
  718MOL0     H96911   5.676   1.435   1.965  0.6413  1.4228 -1.1924
  718MOL0     H96912   6.732   1.553   1.372 -1.5782  1.6432 -0.2277
  718MOL0     H96913   6.961   1.635   1.405  0.0285  0.5093 -0.1390
  718MOL0     H96914   7.218   1.953   1.504  1.3654 -1.3059 -1.6139
  718MOL0     H96915   7.419   2.031   1.470 -1.5628 -1.9690 -1.5563
  718MOL0     H96916   9.108   2.935   2.053  1.4139  0.4315  0.4721
  718MOL0     H96917   9.281   3.112   2.169  0.8185  5.7105  1.4318
  718MOL0     H96918   9.341   3.281   2.681 -1.5374  1.6529  0.6923
  718MOL0     H96919   9.554   3.388   2.764 -1.1673  3.0781  0.2839
  718MOL0     H96920   9.829   3.526   2.429  0.9866  0.1000 -0.0997
  718MOL0     H96921   9.811   3.677   2.531 -2.9225  0.3820  2.4074
  718MOL0     H96922   9.939   3.551   2.704  0.3932 -2.7192  0.0659
  718MOL0     H96923  10.035   3.616   2.567 -1.4650  1.2754 -0.8160
  718MOL0     H96924  10.112   3.387   2.624 -0.0056  0.2533  0.0562
  718MOL0     H96925  10.029   3.374   2.468  2.0229 -0.6400  0.5062
  718MOL0     H96926   9.842   3.269   2.564 -1.8642  1.5357  1.3111
  718MOL0     H96927   9.896   3.308   2.733  4.6876 -0.8691  1.8564
  718MOL0     H96928  10.155   2.987   2.696 -0.6947 -2.2349 -1.7494
  718MOL0     H96929   9.629   3.520   2.364  4.4859 -0.1833  2.2881
  718MOL0     H96930   9.424   3.425   2.283  3.0987 -0.2853 -0.8246
  719MOL0     O96931  10.217   3.834   0.842  0.2853  0.2096 -0.0579
  719MOL0     C96932  10.319   3.905   0.850  0.5298  0.0886 -0.1068
  719MOL0     O96933  10.334   4.040   0.815  0.4334 -0.4667 -0.2611
  719MOL0     C96934  10.214   4.106   0.786 -0.1000 -0.0336 -0.1016
  719MOL0     C96935  10.169   4.200   0.875  0.0901  0.6587 -0.0658
  719MOL0     C96936  10.034   4.254   0.868 -0.4111  0.4396 -0.5710
  719MOL0     C96937   9.951   4.212   0.756  0.2965  0.9742 -0.2214
  719MOL0     O96938   9.821   4.245   0.730 -0.2617  0.1914  0.3069
  719MOL0     C96939   9.750   4.274   0.847  0.4159  0.1130 -0.3662
  719MOL0     C96940   9.599   4.281   0.819 -0.2648 -0.3598  0.1338
  719MOL0     C96941   9.548   4.138   0.785  0.1949 -0.6438 -0.3502
  719MOL0     C96942   9.387   4.152   0.776 -0.3135 -0.2519 -0.0842
  719MOL0     C96943   9.324   4.016   0.742 -0.5950 -0.1183 -0.9476
  719MOL0     C96944   9.165   4.030   0.743  0.2116 -0.4557 -0.6029
  719MOL0     C96945   9.121   4.089   0.608 -0.2068 -0.3599  0.3015
  719MOL0     C96946   9.099   3.985   0.495  0.3202 -0.2720  0.0398
  719MOL0     N96947   8.970   3.912   0.509  0.3352 -0.0101  0.3148
  719MOL0     C96948   8.952   3.780   0.524 -0.4214  0.9121  0.3999
  719MOL0     C96949   8.816   3.761   0.494  0.2995  0.0081 -0.1632
  719MOL0     C96950   8.744   3.634   0.496  0.1081 -0.4641  0.2748
  719MOL0     C96951   8.724   3.579   0.633 -0.1435 -0.4290 -0.6725
  719MOL0     C96952   8.654   3.669   0.740  0.0115 -0.8675 -0.3551
  719MOL0     C96953   8.503   3.704   0.710 -0.0184 -0.0140  0.4056
  719MOL0     O96954   8.427   3.582   0.680 -0.0391 -0.0612  0.0489
  719MOL0     C96955   8.299   3.596   0.646 -0.2678  0.4180  1.2291
  719MOL0     C96956   8.233   3.714   0.620  0.2098  0.4724  0.0267
  719MOL0     C96957   8.098   3.720   0.579  0.5543 -0.8258 -0.2433
  719MOL0     C96958   8.041   3.861   0.568 -0.8780 -0.5335 -0.0122
  719MOL0     C96959   8.025   3.602   0.561 -0.1587 -0.8281  0.6123
  719MOL0     C96960   7.887   3.590   0.517 -0.8200 -0.0971  0.7000
  719MOL0     O96961   7.859   3.487   0.432  0.0041 -0.0164  0.4675
  719MOL0     C96962   7.728   3.485   0.393 -0.2867  0.3182 -0.3629
  719MOL0     C96963   7.686   3.542   0.273  0.0934  0.3428  0.6080
  719MOL0     C96964   7.549   3.519   0.241 -0.5682 -0.6021  0.9997
  719MOL0     C96965   7.467   3.455   0.316  0.8840  0.4278 -0.0699
  719MOL0     O96966   7.335   3.426   0.288  0.2186 -0.1613  0.5462
  719MOL0     C96967   7.267   3.500   0.188  0.9973  0.0045 -0.7371
  719MOL0     C96968   7.134   3.429   0.163  0.6718 -0.0055  0.9954
  719MOL0     C96969   7.021   3.477   0.256 -0.7672 -0.5780 -1.3752
  719MOL0     C96970   6.904   3.385   0.227  0.2487  0.9129 -0.2378
  719MOL0     C96971   6.768   3.419   0.307  0.5197  0.5888  0.4553
  719MOL0     C96972   6.709   3.556   0.277 -0.5877  0.6451 -0.0095
  719MOL0     C96973   6.579   3.593   0.350 -0.6727 -0.0150  0.4786
  719MOL0     C96974   6.570   3.742   0.396  0.0981  0.5784 -0.2095
  719MOL0    Cl96975   6.546   3.866   0.261 -0.2804  0.1478 -0.2944
  719MOL0     C96976   7.510   3.396   0.434  1.7708 -0.3511  0.6364
  719MOL0     C96977   7.640   3.412   0.475  0.6856 -0.6354  0.9549
  719MOL0     O96978   7.806   3.669   0.567  0.1076  0.0450 -0.2689
  719MOL0     C96979   8.091   3.476   0.578  0.9033  0.0358  1.0274
  719MOL0     C96980   8.222   3.482   0.617 -0.0601  0.8786  0.7878
  719MOL0     N96981   8.768   3.878   0.447 -0.8224  0.3785 -0.2223
  719MOL0     N96982   8.859   3.970   0.458  0.2004 -0.5820  0.4732
  719MOL0     C96983  10.007   4.134   0.653 -0.5217 -0.4664  0.6170
  719MOL0     C96984  10.141   4.085   0.666 -0.2282  0.6849 -0.4960
  719MOL0     C96985  10.433   3.841   0.919  0.1451 -0.0397  0.3962
  719MOL0     C96986  10.420   3.727   0.990 -0.6734  0.1373  0.3502
  719MOL0     C96987  10.528   3.666   1.053 -0.6745 -0.2607  0.4473
  719MOL0     C96988  10.657   3.714   1.034 -0.0011 -0.1388  0.0933
  719MOL0     O96989  10.760   3.656   1.101 -0.6618 -0.3260 -0.2675
  719MOL0     C96990  10.871   3.743   1.145  0.8609 -0.0386 -0.2416
  719MOL0     C96991  10.897   3.721   1.291  0.6316 -0.2120  1.3096
  719MOL0     C96992  11.027   3.776   1.349 -0.3408 -0.4445 -1.1201
  719MOL0     C96993  11.022   3.925   1.405 -0.1258 -0.1597 -0.9691
  719MOL0     C96994  11.075   4.018   1.298  1.0794 -0.3351  0.9567
  719MOL0     C96995  11.116   4.095   1.207  0.3313 -0.0149  0.1773
  719MOL0     C96996  10.670   3.820   0.946 -0.0806 -1.0893 -0.0050
  719MOL0     C96997  10.558   3.889   0.890 -0.6192 -0.6193  0.5974
  719MOL0     H96998  10.233   4.234   0.956 -0.0338  0.4218  0.1332
  719MOL0     H96999  10.017   4.331   0.943  0.2307 -0.9594  1.0903
  719MOL0     H97000   9.776   4.203   0.926  1.6658  0.2055 -0.6713
  719MOL0     H97001   9.784   4.372   0.883 -1.7095  0.5214  0.6626
  719MOL0     H97002   9.567   4.311   0.919  3.3410  0.8600  1.0583
  719MOL0     H97003   9.576   4.351   0.738  2.2183  0.9306  0.4690
  719MOL0     H97004   9.595   4.100   0.693  1.9047 -1.4345  0.7990
  719MOL0     H97005   9.571   4.060   0.857  3.7206 -1.2300 -1.8845
  719MOL0     H97006   9.354   4.188   0.874  3.2013 -0.0347  1.1732
  719MOL0     H97007   9.371   4.211   0.685  1.1054 -0.5274 -0.5364
  719MOL0     H97008   9.368   3.966   0.655  0.1612 -0.3902 -0.4257
  719MOL0     H97009   9.344   3.957   0.832 -2.0779  1.0518  0.1923
  719MOL0     H97010   9.123   3.930   0.760 -0.5205  0.2494  2.1627
  719MOL0     H97011   9.127   4.094   0.823  1.2214  1.0560 -1.2946
  719MOL0     H97012   9.029   4.146   0.622  0.2873  0.4421  0.3563
  719MOL0     H97013   9.188   4.161   0.561 -3.4485  1.3142 -2.2232
  719MOL0     H97014   9.181   3.916   0.475 -0.5617 -0.5912 -3.1035
  719MOL0     H97015   9.092   4.042   0.402 -2.2528 -1.0196 -0.3274
  719MOL0     H97016   9.026   3.711   0.565  0.6942  1.2521 -0.9595
  719MOL0     H97017   8.659   3.638   0.427  0.9174 -0.3849 -0.7469
  719MOL0     H97018   8.809   3.567   0.440  0.1493  0.6238 -1.0298
  719MOL0     H97019   8.818   3.540   0.673 -0.0293 -0.1070 -0.6259
  719MOL0     H97020   8.661   3.489   0.621  1.9362 -1.8057 -1.9508
  719MOL0     H97021   8.713   3.759   0.758 -0.8209 -0.3594 -0.1109
  719MOL0     H97022   8.651   3.618   0.837 -0.8880  1.7019  1.0521
  719MOL0     H97023   8.501   3.770   0.623  2.5437  1.2211  1.1926
  719MOL0     H97024   8.477   3.752   0.805  0.3773  0.6659  0.1757
  719MOL0     H97025   8.295   3.799   0.643  0.5543  0.4076 -0.6411
  719MOL0     H97026   8.037   3.881   0.461  0.3404  0.5070  0.1068
  719MOL0     H97027   7.942   3.864   0.615 -1.7896 -0.4943 -1.8633
  719MOL0     H97028   8.108   3.940   0.604  1.4982 -0.8823 -3.2911
  719MOL0     H97029   7.760   3.600   0.218 -0.1920 -0.4158 -0.6141
  719MOL0     H97030   7.517   3.548   0.141  0.3902 -2.1028  0.2203
  719MOL0     H97031   7.240   3.595   0.235  0.7620 -1.2563  1.8200
  719MOL0     H97032   7.316   3.511   0.091  1.6596  0.6325 -0.3391
  719MOL0     H97033   7.094   3.450   0.063  1.8742  0.3541  0.5652
  719MOL0     H97034   7.141   3.320   0.175  0.0806 -0.0423  1.0017
  719MOL0     H97035   6.999   3.581   0.229  2.9930  1.0746  1.2226
  719MOL0     H97036   7.058   3.476   0.359  0.1347 -2.0273 -1.6879
  719MOL0     H97037   6.882   3.370   0.121  0.8572  0.7541 -0.3496
  719MOL0     H97038   6.936   3.287   0.265 -0.7281  0.9473  0.7065
  719MOL0     H97039   6.768   3.384   0.411 -1.8894 -1.7520 -0.2118
  719MOL0     H97040   6.704   3.345   0.258  2.0910  0.1801 -1.0457
  719MOL0     H97041   6.784   3.634   0.297  1.4300 -1.3335  0.5697
  719MOL0     H97042   6.685   3.557   0.170 -1.7480 -1.8012  0.1713
  719MOL0     H97043   6.559   3.524   0.432  0.2898 -0.4706  0.3382
  719MOL0     H97044   6.494   3.581   0.282 -1.2653 -1.5173  1.4348
  719MOL0     H97045   6.662   3.766   0.450  1.0677 -1.3895 -0.8895
  719MOL0     H97046   6.490   3.753   0.469 -0.7480  0.0814 -1.0415
  719MOL0     H97047   7.433   3.347   0.492  1.3349  0.8758  1.1314
  719MOL0     H97048   7.674   3.375   0.571  1.2922 -0.3087  0.8702
  719MOL0     H97049   8.044   3.378   0.572  2.7484 -0.8691  0.4506
  719MOL0     H97050   8.277   3.388   0.620 -1.7001 -0.1543 -0.0042
  719MOL0     H97051   9.953   4.123   0.560 -2.4772  1.5254  1.4112
  719MOL0     H97052  10.201   4.037   0.590 -0.4710  1.0589 -0.9287
  719MOL0     H97053  10.326   3.673   0.998  0.7508 -2.4905  0.2120
  719MOL0     H97054  10.512   3.584   1.123 -0.7034 -2.2528 -1.7783
  719MOL0     H97055  10.962   3.708   1.094 -0.6804 -5.2441 -0.0221
  719MOL0     H97056  10.842   3.847   1.130 -0.3360 -0.1784  0.9493
  719MOL0     H97057  10.874   3.616   1.310 -0.5610 -0.1557  0.2797
  719MOL0     H97058  10.817   3.772   1.346  0.7655  1.3253  0.1398
  719MOL0     H97059  11.104   3.756   1.274 -1.2856  1.3691 -2.6425
  719MOL0     H97060  11.055   3.713   1.435  0.0985  0.4210 -0.6205
  719MOL0     H97061  11.099   3.939   1.480 -0.1915 -0.1871 -0.8971
  719MOL0     H97062  10.921   3.957   1.434 -1.3165 -0.7812 -4.0285
  719MOL0     H97063  11.161   4.153   1.130  1.7850  0.1825  1.1392
  719MOL0     H97064  10.767   3.856   0.914  0.2136 -2.0650 -0.2298
  719MOL0     H97065  10.568   3.975   0.824 -3.8124  1.0312  2.0539
  720MOL0     O97066   5.300   0.881  10.907 -0.3514  0.8702  0.2332
  720MOL0     C97067   5.339   0.873  10.795 -0.5358  0.2066 -0.6220
  720MOL0     O97068   5.268   0.927  10.684 -0.6002 -0.3333 -0.5434
  720MOL0     C97069   5.136   0.972  10.683 -1.1412 -0.4564  0.3266
  720MOL0     C97070   5.040   0.949  10.785  0.9345  0.5962 -0.2395
  720MOL0     C97071   4.911   1.004  10.781 -0.5707  0.5982  1.2339
  720MOL0     C97072   4.875   1.087  10.670  0.5407  0.6250 -0.9101
  720MOL0     O97073   4.748   1.132  10.655 -0.2207 -0.7930  0.4281
  720MOL0     C97074   4.635   1.048  10.675 -0.2442 -0.0481  0.2976
  720MOL0     C97075   4.525   1.095  10.581  0.6636  0.5580  0.3966
  720MOL0     C97076   4.400   1.110  10.664 -0.5015 -0.5151 -0.2405
  720MOL0     C97077   4.407   1.234  10.744  0.1893  0.2152 -0.3195
  720MOL0     C97078   4.273   1.269  10.800 -0.6942  0.1529 -1.0838
  720MOL0     C97079   4.268   1.409  10.851 -0.3709  0.1016  0.0374
  720MOL0     C97080   4.132   1.461  10.879 -0.4529 -0.1769  0.1455
  720MOL0     C97081   4.131   1.602  10.926 -0.5501  0.4666  0.5426
  720MOL0     N97082   3.997   1.654  10.932  0.8787 -0.2752  0.1873
  720MOL0     C97083   3.871   1.599  10.909  0.6541  0.2461 -0.2573
  720MOL0     C97084   3.776   1.694  10.941 -0.2582 -0.3184  0.1849
  720MOL0     C97085   3.630   1.675  10.957  0.1741 -0.4165  0.6115
  720MOL0     C97086   3.555   1.778  10.869 -0.2878  0.2215  0.2080
  720MOL0     C97087   3.406   1.753  10.876  0.3916 -0.4821  0.1280
  720MOL0     C97088   3.322   1.825  10.764 -0.3203  0.1472 -0.7323
  720MOL0     O97089   3.193   1.773  10.779  0.2327 -0.2116  0.7595
  720MOL0     C97090   3.093   1.841  10.716  0.0314  0.4145 -0.2251
  720MOL0     C97091   3.102   1.955  10.627 -0.4931 -0.0734 -0.9034
  720MOL0     C97092   2.988   2.018  10.582 -0.6499 -0.9116 -0.1510
  720MOL0     C97093   2.999   2.140  10.494 -0.2302 -0.1356  0.2496
  720MOL0     C97094   2.861   1.980  10.642  0.0050  0.5269  0.4844
  720MOL0     C97095   2.731   2.048  10.614  0.1014  0.3074  0.2835
  720MOL0     O97096   2.622   1.967  10.627 -0.5139 -0.1525  0.4197
  720MOL0     C97097   2.497   2.021  10.637 -0.4874 -0.5887 -0.0311
  720MOL0     C97098   2.470   2.136  10.721  0.5911  0.0651  0.4336
  720MOL0     C97099   2.342   2.185  10.731 -0.3588  0.1359 -0.2224
  720MOL0     C97100   2.249   2.147  10.641  0.6470 -0.2334  1.0601
  720MOL0     O97101   2.134   2.223  10.643  0.2698 -0.0909 -0.6568
  720MOL0     C97102   2.043   2.203  10.533  0.7376 -1.0455 -0.7738
  720MOL0     C97103   1.918   2.280  10.577 -0.4706  0.5122 -0.2514
  720MOL0     C97104   1.932   2.431  10.533  0.3863 -0.5318  0.1165
  720MOL0     C97105   1.815   2.516  10.592  0.8476 -0.1491 -0.5210
  720MOL0     C97106   1.861   2.659  10.585 -0.4284  0.2058  0.0561
  720MOL0     C97107   1.849   2.716  10.443  0.3091  0.9203  0.2721
  720MOL0     C97108   1.864   2.871  10.447  0.4394 -0.0299  0.7683
  720MOL0     C97109   1.807   2.930  10.314  0.4109 -0.0818 -0.1327
  720MOL0    Cl97110   1.631   2.890  10.305  0.2503  0.0082  0.1424
  720MOL0     C97111   2.274   2.047  10.543  0.1357 -0.4381 -0.6628
  720MOL0     C97112   2.403   1.980  10.547  0.7468 -0.3913 -0.2134
  720MOL0     O97113   2.731   2.168  10.582 -0.2680  0.5365 -0.3033
  720MOL0     C97114   2.859   1.866  10.724 -0.3111  0.7854  0.3426
  720MOL0     C97115   2.968   1.788  10.744 -0.3680  0.1305  0.2113
  720MOL0     N97116   3.847   1.809  10.974 -0.7672 -0.5226 -1.4292
  720MOL0     N97117   3.971   1.791  10.957 -0.8319  0.0775  0.2174
  720MOL0     C97118   4.960   1.115  10.570 -0.1121  0.5489 -0.6279
  720MOL0     C97119   5.095   1.062  10.576  0.5369 -0.1149  0.0930
  720MOL0     C97120   5.469   0.805  10.771 -0.4028 -0.6108  0.2885
  720MOL0     C97121   5.559   0.767  10.872 -0.6385 -0.0147  0.6681
  720MOL0     C97122   5.684   0.702  10.834 -0.4501 -0.5301  0.4235
  720MOL0     C97123   5.710   0.664  10.700  0.5792 -0.1142 -0.5673
  720MOL0     O97124   5.819   0.587  10.676  0.1352 -0.2514  0.5542
  720MOL0     C97125   5.843   0.517  10.548  0.3230 -0.5889  0.2536
  720MOL0     C97126   5.979   0.437  10.529 -0.4072  0.0850 -0.1997
  720MOL0     C97127   6.101   0.522  10.562 -0.3565 -0.0755  0.7880
  720MOL0     C97128   6.235   0.470  10.510  0.3639 -0.0399  0.1018
  720MOL0     C97129   6.333   0.532  10.598 -0.0393  0.0737  0.0886
  720MOL0     C97130   6.406   0.572  10.690  0.2550  0.8382  0.4232
  720MOL0     C97131   5.623   0.696  10.600  0.4616 -0.7922  0.0513
  720MOL0     C97132   5.503   0.768  10.642 -0.4550 -0.8792 -0.0717
  720MOL0     H97133   5.049   0.879  10.868  2.1123  0.2121 -0.6702
  720MOL0     H97134   4.837   0.989  10.859 -0.6831  1.7119  1.3482
  720MOL0     H97135   4.663   0.945  10.650 -2.5103 -0.6974  0.2141
  720MOL0     H97136   4.613   1.038  10.782 -0.3242 -0.9766  0.2025
  720MOL0     H97137   4.560   1.187  10.532  0.4797 -0.2722 -1.3803
  720MOL0     H97138   4.517   1.021  10.501  1.0539 -0.2637  1.1030
  720MOL0     H97139   4.316   1.113  10.593 -0.6360 -0.3127 -0.0705
  720MOL0     H97140   4.381   1.025  10.730  0.1515 -0.4383  0.0484
  720MOL0     H97141   4.481   1.226  10.824 -2.3447 -2.7733  1.9486
  720MOL0     H97142   4.437   1.309  10.669  0.3617 -1.1641 -1.6698
  720MOL0     H97143   4.201   1.262  10.719 -0.6801 -2.5930 -0.9730
  720MOL0     H97144   4.256   1.196  10.881  2.3597  0.0368 -0.4322
  720MOL0     H97145   4.322   1.415  10.946  2.0057  0.2942 -1.2516
  720MOL0     H97146   4.326   1.480  10.791  1.3354 -0.7808  0.5876
  720MOL0     H97147   4.069   1.456  10.790  0.6209  1.7297 -0.7701
  720MOL0     H97148   4.098   1.390  10.955  2.0385 -2.1514 -0.4479
  720MOL0     H97149   4.186   1.659  10.850 -1.1078  0.2941  0.0008
  720MOL0     H97150   4.184   1.608  11.021 -1.7917  0.4983  1.2501
  720MOL0     H97151   3.849   1.493  10.896  1.8264 -0.6739  3.8556
  720MOL0     H97152   3.605   1.574  10.922 -0.2318 -0.1061 -0.0070
  720MOL0     H97153   3.614   1.683  11.065  0.7390  0.9105  0.6109
  720MOL0     H97154   3.586   1.763  10.765 -2.1125  2.9993 -0.8312
  720MOL0     H97155   3.578   1.882  10.894 -1.9342  0.1564  2.1948
  720MOL0     H97156   3.366   1.793  10.970 -2.8982  0.6362 -1.6055
  720MOL0     H97157   3.391   1.645  10.873 -2.1519 -0.1493 -1.2492
  720MOL0     H97158   3.366   1.804  10.666  1.2332 -1.2180  0.1983
  720MOL0     H97159   3.313   1.932  10.786  0.4497  0.1286 -0.3171
  720MOL0     H97160   3.201   1.989  10.598 -1.0452 -0.0396 -2.8869
  720MOL0     H97161   3.091   2.148  10.435 -1.0258  1.2296 -0.8613
  720MOL0     H97162   2.923   2.133  10.415  0.6032 -0.1822 -0.5659
  720MOL0     H97163   2.992   2.233  10.551  0.5603  0.2913 -0.3278
  720MOL0     H97164   2.536   2.165  10.802  1.4003  0.7628 -0.4575
  720MOL0     H97165   2.325   2.267  10.801  1.1712  1.4586 -1.3155
  720MOL0     H97166   2.085   2.225  10.434  1.6652 -2.3282 -0.6883
  720MOL0     H97167   2.017   2.097  10.539  0.4374 -0.9124  0.4442
  720MOL0     H97168   1.831   2.235  10.528  0.6414 -0.3385 -1.5097
  720MOL0     H97169   1.899   2.272  10.684  0.7679  0.0056 -0.0559
  720MOL0     H97170   1.929   2.446  10.425 -2.1790 -0.7744  0.0871
  720MOL0     H97171   2.023   2.477  10.572  0.6691 -0.1079 -1.0043
  720MOL0     H97172   1.728   2.497  10.529 -0.1422  0.2883  0.6822
  720MOL0     H97173   1.802   2.478  10.694  0.6586 -1.6090 -1.0596
  720MOL0     H97174   1.963   2.664  10.625 -0.8882 -3.7574  2.2758
  720MOL0     H97175   1.788   2.710  10.648 -0.4496 -2.2303  2.1965
  720MOL0     H97176   1.933   2.677  10.385  2.5076  1.8154  2.6653
  720MOL0     H97177   1.756   2.680  10.398 -0.3639 -0.5650  2.6636
  720MOL0     H97178   1.968   2.907  10.451  1.4834 -2.2890 -2.1010
  720MOL0     H97179   1.812   2.911  10.534 -2.9700 -0.8806 -0.7353
  720MOL0     H97180   1.852   2.888  10.224 -1.5893 -0.0251 -1.2107
  720MOL0     H97181   1.818   3.039  10.316  0.0457  0.0091  3.1916
  720MOL0     H97182   2.206   2.018  10.463 -1.4146 -1.6370  0.9994
  720MOL0     H97183   2.428   1.901  10.477  1.8746  0.0398 -0.3077
  720MOL0     H97184   2.769   1.835  10.776 -1.0273 -1.3611 -1.9969
  720MOL0     H97185   2.969   1.701  10.808  1.2983  0.6931  1.0186
  720MOL0     H97186   4.918   1.179  10.493 -0.0253  0.8862 -0.3964
  720MOL0     H97187   5.173   1.081  10.503  1.4476 -1.6997  0.5811
  720MOL0     H97188   5.555   0.791  10.978  1.4413  1.2301  0.5323
  720MOL0     H97189   5.764   0.684  10.905  0.3103 -2.3485 -0.8129
  720MOL0     H97190   5.765   0.441  10.540  0.1898 -0.3740 -0.5569
  720MOL0     H97191   5.842   0.579  10.458 -1.5136 -5.5646 -3.6452
  720MOL0     H97192   5.987   0.392  10.430  0.8521  1.4239 -0.7421
  720MOL0     H97193   5.995   0.360  10.605 -0.3428  1.4197  1.2134
  720MOL0     H97194   6.108   0.534  10.670 -3.8352  0.0220  1.1323
  720MOL0     H97195   6.088   0.626  10.529  0.4019 -0.4216 -0.7171
  720MOL0     H97196   6.252   0.494  10.404  1.8639 -0.3357  0.2581
  720MOL0     H97197   6.235   0.362  10.523 -2.0074 -0.3465 -1.7880
  720MOL0     H97198   6.468   0.622  10.762 -0.7462  3.4780 -0.4351
  720MOL0     H97199   5.640   0.675  10.495 -2.0343  0.1219 -0.6127
  720MOL0     H97200   5.436   0.790  10.559 -0.0572  3.1136  0.4797
  721MOL0     O97201  10.932   6.705   7.097 -0.4292 -0.6085  0.1905
  721MOL0     C97202  11.021   6.740   7.023 -0.5307  0.0343 -0.6475
  721MOL0     O97203  11.007   6.814   6.904 -0.5771 -0.2473  0.0848
  721MOL0     C97204  10.888   6.881   6.877  0.3356 -0.1028  0.3213
  721MOL0     C97205  10.799   6.838   6.778  0.0445 -0.4143  0.8095
  721MOL0     C97206  10.687   6.910   6.744 -0.2718 -0.0912 -0.0779
  721MOL0     C97207  10.653   7.030   6.825 -0.4646  0.9324 -0.7792
  721MOL0     O97208  10.528   7.082   6.802  0.6259  0.4326 -0.9921
  721MOL0     C97209  10.450   7.114   6.929 -0.3181  0.2199  1.0926
  721MOL0     C97210  10.319   7.174   6.873 -1.2354 -0.4688  0.3856
  721MOL0     C97211  10.208   7.073   6.844 -0.2641 -0.3989  0.4382
  721MOL0     C97212  10.072   7.143   6.790  0.4864  0.8867  0.5416
  721MOL0     C97213   9.978   7.040   6.718  0.3438 -1.0219  0.2079
  721MOL0     C97214   9.860   7.107   6.645  1.2529  0.1387  0.3432
  721MOL0     C97215   9.788   7.017   6.541 -0.0870 -0.5072 -0.1423
  721MOL0     C97216   9.667   7.085   6.476 -0.1847  0.3008  0.6295
  721MOL0     N97217   9.553   7.100   6.566  0.8356 -0.1831 -0.4730
  721MOL0     C97218   9.530   7.203   6.652 -0.1303 -0.3943  0.0186
  721MOL0     C97219   9.422   7.160   6.735 -0.2531  0.1768  0.1371
  721MOL0     C97220   9.361   7.242   6.847 -0.0003  0.5929  0.4846
  721MOL0     C97221   9.232   7.187   6.898 -0.2045 -0.0607  0.4073
  721MOL0     C97222   9.123   7.202   6.801 -0.2693 -1.0108  0.5564
  721MOL0     C97223   8.993   7.127   6.828 -0.9549 -0.1964 -0.5694
  721MOL0     O97224   8.928   7.185   6.936  0.1936  0.3887  0.0827
  721MOL0     C97225   8.797   7.144   6.956  0.4788  0.0883  0.9742
  721MOL0     C97226   8.734   7.036   6.877 -0.5031 -0.4557  0.4502
  721MOL0     C97227   8.600   6.998   6.902  0.0416  0.6334  0.1650
  721MOL0     C97228   8.550   6.876   6.826 -0.7773  0.3276 -0.0711
  721MOL0     C97229   8.524   7.062   6.997 -0.3253 -0.0449  0.1061
  721MOL0     C97230   8.376   7.041   7.019  0.8846  1.0577 -0.2641
  721MOL0     O97231   8.310   7.148   7.055 -0.0169  0.0067 -0.6404
  721MOL0     C97232   8.171   7.152   7.035  0.0634 -0.0648 -0.7306
  721MOL0     C97233   8.115   7.134   6.914 -0.0039  0.3994  0.3480
  721MOL0     C97234   7.975   7.153   6.891 -0.0227 -0.0847 -0.2360
  721MOL0     C97235   7.891   7.201   6.996 -0.5158 -0.1548 -0.2737
  721MOL0     O97236   7.756   7.218   6.968 -0.2541 -0.4141  0.1997
  721MOL0     C97237   7.665   7.148   7.047 -0.1948 -0.3181 -0.9143
  721MOL0     C97238   7.538   7.177   6.975  0.4307  0.2707 -0.7503
  721MOL0     C97239   7.417   7.130   7.055  0.3360  0.1779 -0.6054
  721MOL0     C97240   7.309   7.084   6.957  0.0151 -0.1648  0.4728
  721MOL0     C97241   7.188   7.038   7.026 -0.3849 -0.7737  0.0904
  721MOL0     C97242   7.108   7.154   7.074  0.6911  0.1835  0.6469
  721MOL0     C97243   6.986   7.105   7.163 -0.0264  0.4998  0.3915
  721MOL0     C97244   6.881   7.024   7.081 -0.4830 -0.1438  0.6703
  721MOL0    Cl97245   6.727   7.021   7.186 -0.1938  0.3536  0.2064
  721MOL0     C97246   7.954   7.225   7.117  0.7954  0.4279 -0.2275
  721MOL0     C97247   8.093   7.205   7.134 -0.0618  0.3804  0.2101
  721MOL0     O97248   8.319   6.931   6.988  0.4644  0.1592 -0.2997
  721MOL0     C97249   8.589   7.163   7.074  0.2583  0.3290 -0.3576
  721MOL0     C97250   8.722   7.201   7.054 -0.1661 -0.3033 -0.0929
  721MOL0     N97251   9.391   7.031   6.697  0.1895 -0.7831 -0.7161
  721MOL0     N97252   9.470   7.001   6.601  0.1352  0.6825 -1.1487
  721MOL0     C97253  10.734   7.059   6.934 -0.9927 -0.4666 -0.6595
  721MOL0     C97254  10.853   6.992   6.959  0.2536 -0.8678  0.5704
  721MOL0     C97255  11.151   6.684   7.059  0.0848 -0.4757  0.0184
  721MOL0     C97256  11.256   6.668   6.967  0.9220 -0.1144 -0.0345
  721MOL0     C97257  11.383   6.642   6.999 -0.4671  0.3349  0.1229
  721MOL0     C97258  11.412   6.607   7.132 -0.2675  0.3789 -0.4713
  721MOL0     O97259  11.541   6.563   7.176  0.5222  0.3026 -0.2115
  721MOL0     C97260  11.635   6.497   7.089  0.3280  0.4451  0.0188
  721MOL0     C97261  11.731   6.599   7.021  0.2743  0.0593 -0.2042
  721MOL0     C97262  11.836   6.646   7.120 -0.4667 -0.0574 -0.3924
  721MOL0     C97263  11.947   6.718   7.050 -0.1270  0.1586  0.0427
  721MOL0     C97264  12.071   6.728   7.134 -0.3403 -0.1088  0.6743
  721MOL0     C97265  12.163   6.732   7.214  0.2859  0.3449 -0.3077
  721MOL0     C97266  11.312   6.614   7.231  0.6505  0.1861 -0.3229
  721MOL0     C97267  11.183   6.652   7.194 -0.7134 -0.9406 -0.0973
  721MOL0     H97268  10.831   6.748   6.725  1.7476  1.7562 -2.1174
  721MOL0     H97269  10.622   6.875   6.665  0.6218 -1.3504 -0.2846
  721MOL0     H97270  10.433   7.021   6.984 -1.7682 -0.7875 -0.8991
  721MOL0     H97271  10.508   7.187   6.986 -0.1596 -0.5121  1.8916
  721MOL0     H97272  10.296   7.246   6.952 -0.4910 -1.5245  1.6106
  721MOL0     H97273  10.344   7.235   6.786  0.3796 -0.3264  0.9155
  721MOL0     H97274  10.244   7.009   6.763  0.9634  2.4442 -1.4500
  721MOL0     H97275  10.184   7.023   6.938  2.0537 -1.4679  0.5454
  721MOL0     H97276  10.013   7.193   6.867  1.1560 -0.2915  1.8586
  721MOL0     H97277  10.102   7.220   6.718 -0.9029  1.2131  0.2904
  721MOL0     H97278  10.049   7.002   6.644  0.9013  0.4257 -0.0266
  721MOL0     H97279   9.945   6.956   6.779 -0.3323  0.0385  1.3504
  721MOL0     H97280   9.786   7.136   6.721  1.0593  1.1480 -0.2206
  721MOL0     H97281   9.900   7.201   6.607  0.8526  0.3222  0.3730
  721MOL0     H97282   9.859   6.981   6.466  0.1870 -2.9866  1.1826
  721MOL0     H97283   9.751   6.923   6.583 -0.2547 -0.4904 -0.2539
  721MOL0     H97284   9.643   7.017   6.395  2.2279 -1.0064  0.9372
  721MOL0     H97285   9.687   7.184   6.433 -2.4079 -0.3231 -2.1390
  721MOL0     H97286   9.588   7.294   6.649  0.7564 -0.9643 -2.5546
  721MOL0     H97287   9.433   7.228   6.928  1.2717 -0.2660 -0.7303
  721MOL0     H97288   9.356   7.349   6.824  0.9732  0.3741 -0.8855
  721MOL0     H97289   9.209   7.244   6.988 -1.0415  2.1759 -1.1324
  721MOL0     H97290   9.242   7.081   6.925 -0.6776 -0.4045 -0.6889
  721MOL0     H97291   9.166   7.160   6.710  3.2769  1.8418  0.6408
  721MOL0     H97292   9.106   7.310   6.789 -1.2047 -1.3156 -1.2069
  721MOL0     H97293   9.008   7.021   6.853  0.2931 -0.3256 -1.7581
  721MOL0     H97294   8.941   7.144   6.734 -0.7675  0.3597 -0.5744
  721MOL0     H97295   8.786   6.994   6.792 -0.8156 -0.3625  0.2113
  721MOL0     H97296   8.466   6.897   6.759 -1.0014  0.1083  0.1395
  721MOL0     H97297   8.631   6.839   6.762  0.8816  3.0928  0.2768
  721MOL0     H97298   8.528   6.800   6.901  1.0214 -0.9284 -0.7392
  721MOL0     H97299   8.184   7.095   6.839  0.4162  1.0485  0.3932
  721MOL0     H97300   7.939   7.140   6.789  1.1794  0.3235 -0.7292
  721MOL0     H97301   7.682   7.040   7.055 -2.2934 -0.6628 -0.6282
  721MOL0     H97302   7.662   7.189   7.148  3.3653 -1.9190 -0.0002
  721MOL0     H97303   7.535   7.285   6.957  1.6310  0.4849  0.2327
  721MOL0     H97304   7.550   7.126   6.880 -0.6666 -0.9820 -0.2496
  721MOL0     H97305   7.372   7.214   7.109 -0.8918 -0.0324 -1.2487
  721MOL0     H97306   7.440   7.052   7.128  2.6150 -0.2339 -1.6869
  721MOL0     H97307   7.287   7.156   6.877 -0.3677 -0.5685  0.2090
  721MOL0     H97308   7.354   6.994   6.916  0.4354 -0.7393  2.0983
  721MOL0     H97309   7.202   6.963   7.105 -3.7131 -2.6003 -0.8466
  721MOL0     H97310   7.129   6.984   6.951 -1.2122 -0.6720  0.6550
  721MOL0     H97311   7.161   7.220   7.144 -0.4524  0.7974  0.9673
  721MOL0     H97312   7.071   7.209   6.987 -2.6109  0.0837  1.8258
  721MOL0     H97313   6.947   7.200   7.201 -2.5487 -0.3668  0.1556
  721MOL0     H97314   7.014   7.037   7.244  1.3908 -2.7314 -2.5659
  721MOL0     H97315   6.915   6.921   7.065 -0.6072 -0.0717 -0.0805
  721MOL0     H97316   6.867   7.074   6.985  0.0397  2.3070  1.8124
  721MOL0     H97317   7.891   7.270   7.193 -3.1466 -1.2348 -2.1946
  721MOL0     H97318   8.131   7.219   7.235  0.8002 -3.2032  0.5472
  721MOL0     H97319   8.537   7.195   7.164 -2.4922 -1.5044 -1.1491
  721MOL0     H97320   8.764   7.274   7.122 -0.9797 -0.1194  0.2236
  721MOL0     H97321  10.718   7.152   6.987  2.0823  0.2262 -0.7633
  721MOL0     H97322  10.925   7.009   7.039 -1.7219 -2.4765  2.8393
  721MOL0     H97323  11.231   6.687   6.863 -0.0597 -0.6332  0.0942
  721MOL0     H97324  11.457   6.633   6.921  0.5220 -1.2097  1.1726
  721MOL0     H97325  11.694   6.418   7.138  1.2257  0.3923 -1.1233
  721MOL0     H97326  11.581   6.452   7.005 -1.9137  2.9642 -0.0376
  721MOL0     H97327  11.675   6.690   6.999 -2.3319 -0.9689  1.6771
  721MOL0     H97328  11.772   6.544   6.936  3.1036 -1.1425  1.7595
  721MOL0     H97329  11.877   6.571   7.188  1.5048  0.5027 -0.8829
  721MOL0     H97330  11.783   6.717   7.184 -2.6688 -1.3635 -0.6687
  721MOL0     H97331  11.905   6.817   7.033 -0.1203 -0.1164 -1.7736
  721MOL0     H97332  11.972   6.670   6.955 -2.7977  1.0346 -1.1884
  721MOL0     H97333  12.252   6.734   7.274 -0.1736  0.4110  0.3921
  721MOL0     H97334  11.335   6.588   7.333  4.1215 -0.1773 -1.0607
  721MOL0     H97335  11.112   6.671   7.274 -0.8997 -1.2064 -0.1989
  722MOL0     O97336   2.743  10.515   0.493 -0.0634 -0.0046 -1.0535
  722MOL0     C97337   2.761  10.507   0.614  0.1568 -0.4748  0.0395
  722MOL0     O97338   2.668  10.498   0.713  0.0492  0.1424  0.1074
  722MOL0     C97339   2.533  10.530   0.683 -0.3527 -0.4243 -0.1011
  722MOL0     C97340   2.468  10.476   0.568  0.2305 -0.3409 -0.7006
  722MOL0     C97341   2.345  10.515   0.535  0.0621  0.0796 -0.5533
  722MOL0     C97342   2.283  10.615   0.610 -0.3346 -0.5257 -0.5294
  722MOL0     O97343   2.163  10.670   0.575  0.7351 -0.6132  0.0192
  722MOL0     C97344   2.062  10.681   0.674  0.0888  0.2700  0.6241
  722MOL0     C97345   1.921  10.688   0.608 -0.4212 -0.2601  0.4930
  722MOL0     C97346   1.805  10.647   0.695  0.2543 -0.6427 -0.2823
  722MOL0     C97347   1.675  10.652   0.616 -0.0260  0.3899  0.3096
  722MOL0     C97348   1.548  10.624   0.696 -0.5439 -0.2983  0.3091
  722MOL0     C97349   1.421  10.652   0.612  0.5774  0.5633 -0.3757
  722MOL0     C97350   1.297  10.672   0.702  0.0591  1.2578  1.3999
  722MOL0     C97351   1.250  10.817   0.713  0.8949  0.2024  0.0750
  722MOL0     N97352   1.182  10.856   0.590  0.5476 -0.4545 -0.1140
  722MOL0     C97353   1.239  10.914   0.479  0.1379  0.4691 -0.4111
  722MOL0     C97354   1.143  10.930   0.387  0.1285  0.7018  1.3837
  722MOL0     C97355   1.148  10.985   0.243  0.1140 -0.1843 -0.0950
  722MOL0     C97356   1.147  11.133   0.249 -1.1944 -0.9701 -0.8158
  722MOL0     C97357   1.023  11.199   0.295 -0.5432 -0.5596 -0.0867
  722MOL0     C97358   1.050  11.354   0.294 -0.0136 -0.4719  0.3621
  722MOL0     O97359   0.951  11.415   0.373 -0.7212 -0.0534 -0.3757
  722MOL0     C97360   0.851  11.477   0.305 -0.2194  0.6207  0.2013
  722MOL0     C97361   0.799  11.580   0.370 -0.7106  0.5339  0.2576
  722MOL0     C97362   0.683  11.639   0.333  0.5974  0.0001  0.4886
  722MOL0     C97363   0.630  11.741   0.430 -0.1507  0.9211  0.5111
  722MOL0     C97364   0.606  11.604   0.215  0.4715  0.6129  0.1036
  722MOL0     C97365   0.478  11.655   0.166 -0.0270  0.4557  0.0252
  722MOL0     O97366   0.442  11.598   0.052 -0.1631  0.2752  0.1409
  722MOL0     C97367   0.342  11.648  -0.028  0.3526 -0.0760  0.2442
  722MOL0     C97368   0.200  11.655  -0.005 -0.2054 -0.3533  0.1944
  722MOL0     C97369   0.111  11.742  -0.083 -0.2387  0.0781  0.8131
  722MOL0     C97370   0.160  11.811  -0.196 -0.1699  0.8853 -1.2131
  722MOL0     O97371   0.086  11.882  -0.284  0.5167 -0.7092 -0.4851
  722MOL0     C97372  -0.049  11.832  -0.313 -0.5207 -0.0417  0.0989
  722MOL0     C97373  -0.130  11.944  -0.389 -0.0094 -0.0235 -0.2364
  722MOL0     C97374  -0.268  11.878  -0.435 -0.3998  0.3357 -0.2006
  722MOL0     C97375  -0.358  11.967  -0.519  0.5167 -0.1001 -0.0136
  722MOL0     C97376  -0.295  11.986  -0.663  0.3741 -0.1096  0.5699
  722MOL0     C97377  -0.381  12.051  -0.767 -0.1527  0.4369  1.1214
  722MOL0     C97378  -0.421  12.192  -0.734 -0.3433 -0.7473  0.6195
  722MOL0     C97379  -0.317  12.299  -0.742  0.1571  0.1099  0.9007
  722MOL0    Cl97380  -0.295  12.360  -0.903 -0.2391 -0.4878 -0.0872
  722MOL0     C97381   0.303  11.794  -0.222 -0.5830  0.2839 -0.4671
  722MOL0     C97382   0.393  11.722  -0.141  0.4464  0.3342  0.0796
  722MOL0     O97383   0.419  11.752   0.213  0.5852 -0.5170  0.9348
  722MOL0     C97384   0.669  11.494   0.142  0.0439  0.0687  0.1815
  722MOL0     C97385   0.793  11.433   0.179 -0.2107  0.5843 -0.4788
  722MOL0     N97386   1.027  10.877   0.437  0.0252  0.0617 -0.5426
  722MOL0     N97387   1.048  10.844   0.564 -0.2788  0.0871  0.1680
  722MOL0     C97388   2.341  10.663   0.724 -0.6723 -0.8815  0.0245
  722MOL0     C97389   2.469  10.627   0.761  0.0566  0.4478  0.5984
  722MOL0     C97390   2.896  10.505   0.660 -0.3821  0.3986 -0.4669
  722MOL0     C97391   2.927  10.459   0.789 -0.3232 -0.6908  0.1777
  722MOL0     C97392   3.060  10.452   0.825 -0.6342 -0.3999  0.2031
  722MOL0     C97393   3.168  10.501   0.747  0.5918  0.0778  0.8771
  722MOL0     O97394   3.292  10.511   0.802  0.1735 -0.4303  0.0257
  722MOL0     C97395   3.397  10.572   0.732 -0.0292 -0.0665 -0.4680
  722MOL0     C97396   3.461  10.467   0.649  0.0110 -0.4560 -0.4863
  722MOL0     C97397   3.574  10.392   0.714 -0.6867  0.8758  0.7790
  722MOL0     C97398   3.645  10.277   0.628 -0.7118  0.0323 -0.1907
  722MOL0     C97399   3.763  10.232   0.701  0.5853  0.2048  0.7438
  722MOL0     C97400   3.851  10.179   0.755 -0.7509  0.5003  0.4042
  722MOL0     C97401   3.132  10.557   0.624 -1.1792 -0.1242  0.2562
  722MOL0     C97402   2.998  10.549   0.574  0.0600 -0.6182 -0.6334
  722MOL0     H97403   2.524  10.407   0.506  2.4821  1.4228 -0.8104
  722MOL0     H97404   2.291  10.465   0.455 -0.5419  1.6166 -1.1408
  722MOL0     H97405   2.072  10.607   0.754  1.7389 -0.0384  0.1792
  722MOL0     H97406   2.065  10.774   0.732  0.6916 -0.5064  1.8764
  722MOL0     H97407   1.915  10.795   0.587 -0.7475 -0.7743 -2.4637
  722MOL0     H97408   1.919  10.643   0.509 -2.0030  3.1331 -1.1667
  722MOL0     H97409   1.817  10.543   0.726  0.9256 -0.0099  1.7869
  722MOL0     H97410   1.801  10.714   0.782 -0.7356 -0.4699 -0.4410
  722MOL0     H97411   1.662  10.749   0.568  1.8385  0.5986  0.1661
  722MOL0     H97412   1.681  10.575   0.539 -0.4650 -0.7871  1.4043
  722MOL0     H97413   1.550  10.517   0.720  2.6791 -0.0969  1.3245
  722MOL0     H97414   1.542  10.688   0.785 -2.0319  3.4910 -2.2421
  722MOL0     H97415   1.438  10.739   0.548  1.5562  0.7032  0.0547
  722MOL0     H97416   1.402  10.566   0.548 -0.9879  1.3619 -1.0460
  722MOL0     H97417   1.210  10.624   0.656 -0.6627  0.5396  3.4440
  722MOL0     H97418   1.316  10.629   0.800  0.2271 -0.0474  0.8173
  722MOL0     H97419   1.332  10.882   0.743  2.7736 -2.5046  1.2762
  722MOL0     H97420   1.182  10.804   0.798  1.8635 -2.7994  0.5383
  722MOL0     H97421   1.344  10.943   0.481  0.5914 -0.9364 -1.7324
  722MOL0     H97422   1.234  10.943   0.191 -0.9908 -2.8314  0.0154
  722MOL0     H97423   1.056  10.953   0.194 -0.7824  1.5169  0.3839
  722MOL0     H97424   1.192  11.177   0.159  1.6438 -0.4335  0.7274
  722MOL0     H97425   1.226  11.158   0.321 -0.6837 -3.6718 -0.3230
  722MOL0     H97426   0.987  11.163   0.391  0.2619 -1.1788 -0.0071
  722MOL0     H97427   0.952  11.181   0.214  0.4544 -0.3757 -1.0272
  722MOL0     H97428   1.052  11.389   0.190  0.0772 -0.1161  0.4844
  722MOL0     H97429   1.145  11.375   0.343 -0.2539  0.6247  0.3805
  722MOL0     H97430   0.859  11.609   0.455  0.4775 -0.8089 -0.0909
  722MOL0     H97431   0.521  11.739   0.433 -0.2952  1.3633 -1.9131
  722MOL0     H97432   0.679  11.739   0.527 -0.2927 -4.2533  0.7639
  722MOL0     H97433   0.639  11.844   0.395  0.2194  1.1105  1.1480
  722MOL0     H97434   0.178  11.592   0.080  1.1070 -0.1069  0.7309
  722MOL0     H97435   0.007  11.747  -0.051 -0.2052  1.7856  0.7658
  722MOL0     H97436  -0.043  11.739  -0.369  4.3197  1.2404 -2.0390
  722MOL0     H97437  -0.106  11.816  -0.221 -1.1115 -0.2358 -0.2938
  722MOL0     H97438  -0.148  12.029  -0.321 -2.5387 -1.7380  1.4022
  722MOL0     H97439  -0.070  11.970  -0.477 -0.7848  0.8298 -0.5252
  722MOL0     H97440  -0.318  11.846  -0.343  0.2746 -1.7560 -0.5103
  722MOL0     H97441  -0.236  11.789  -0.491 -2.2685 -1.1165  0.9172
  722MOL0     H97442  -0.454  11.916  -0.530  1.3827 -1.3826 -2.0662
  722MOL0     H97443  -0.379  12.069  -0.486  0.2128 -1.2397  3.9494
  722MOL0     H97444  -0.275  11.888  -0.706 -2.0010 -0.1070 -0.7349
  722MOL0     H97445  -0.199  12.037  -0.651 -0.0458  0.7024  0.5215
  722MOL0     H97446  -0.317  12.065  -0.854 -0.7282  0.6721  0.7320
  722MOL0     H97447  -0.472  11.992  -0.786  0.3637 -0.6201  1.8440
  722MOL0     H97448  -0.475  12.188  -0.639  1.4507 -2.0268  1.6651
  722MOL0     H97449  -0.489  12.232  -0.809  0.6659  0.6139  0.3927
  722MOL0     H97450  -0.216  12.273  -0.708 -0.4731 -1.7750  1.4074
  722MOL0     H97451  -0.355  12.389  -0.692 -2.7003 -0.3959 -0.2166
  722MOL0     H97452   0.343  11.837  -0.313  1.3649  1.6824  0.9566
  722MOL0     H97453   0.499  11.728  -0.166  1.8161  2.9935  5.2542
  722MOL0     H97454   0.629  11.457   0.048  1.7827  1.1204 -1.0143
  722MOL0     H97455   0.841  11.360   0.114 -1.5853 -0.5256 -0.3122
  722MOL0     H97456   2.296  10.743   0.782  1.7303  2.2010 -2.0331
  722MOL0     H97457   2.509  10.650   0.860  0.9519 -2.4654  1.0099
  722MOL0     H97458   2.849  10.429   0.859  3.1401 -0.9257  4.3795
  722MOL0     H97459   3.085  10.396   0.915  3.5916  1.4633  0.4428
  722MOL0     H97460   3.364  10.653   0.666  0.2864  0.6100  0.1932
  722MOL0     H97461   3.464  10.620   0.804 -0.1261  1.5247 -1.3817
  722MOL0     H97462   3.497  10.522   0.562  0.4731  1.9059  1.0993
  722MOL0     H97463   3.380  10.398   0.622 -1.0598  0.5685  0.0394
  722MOL0     H97464   3.540  10.331   0.798 -1.5698  0.9223  0.4698
  722MOL0     H97465   3.651  10.464   0.743  1.1390 -0.6420 -0.0905
  722MOL0     H97466   3.665  10.313   0.527 -1.4555 -0.4665 -0.5257
  722MOL0     H97467   3.578  10.191   0.635  0.5247 -0.9833 -0.3830
  722MOL0     H97468   3.933  10.125   0.797 -0.4318  1.3547  0.9036
  722MOL0     H97469   3.201  10.601   0.553 -0.3863 -1.6709  0.0326
  722MOL0     H97470   2.960  10.589   0.481  0.9629  0.7253 -0.4627
  723MOL0     O97471   8.501   3.820   9.400  0.9808 -0.3057 -0.9730
  723MOL0     C97472   8.569   3.923   9.409 -0.7341 -0.1203 -0.0709
  723MOL0     O97473   8.516   4.041   9.460  0.3341  0.2998  0.1160
  723MOL0     C97474   8.382   4.055   9.490 -0.4562  0.3444 -0.4596
  723MOL0     C97475   8.319   3.988   9.597 -0.6048  0.1487 -0.5330
  723MOL0     C97476   8.187   4.021   9.636 -0.4780 -0.4357 -0.6229
  723MOL0     C97477   8.120   4.122   9.574  0.3026  0.9324 -0.1229
  723MOL0     O97478   7.989   4.137   9.603 -0.5195 -0.0200 -0.4667
  723MOL0     C97479   7.904   4.205   9.516  0.5736  0.2263  0.1574
  723MOL0     C97480   7.774   4.211   9.604 -0.3942 -0.2279  0.6505
  723MOL0     C97481   7.645   4.278   9.556 -0.5585  0.6170 -0.5418
  723MOL0     C97482   7.534   4.302   9.666 -0.0195 -0.6306  0.8505
  723MOL0     C97483   7.430   4.402   9.605  0.0016  0.0958 -0.1449
  723MOL0     C97484   7.306   4.409   9.690  1.0963 -0.1615 -0.1103
  723MOL0     C97485   7.184   4.471   9.609  0.0843  0.2449  0.3491
  723MOL0     C97486   7.068   4.530   9.700  0.3096  0.1395  0.0262
  723MOL0     N97487   6.953   4.566   9.614  0.8163  0.3951 -0.4872
  723MOL0     C97488   6.843   4.482   9.586 -0.2190  0.7324  0.0822
  723MOL0     C97489   6.739   4.557   9.540  0.6258 -0.6364  0.2967
  723MOL0     C97490   6.595   4.521   9.507  0.4425 -0.8940  0.3297
  723MOL0     C97491   6.508   4.558   9.624 -0.1561 -0.4381  0.2309
  723MOL0     C97492   6.497   4.702   9.661  0.4651 -0.1137 -0.0224
  723MOL0     C97493   6.408   4.718   9.782  0.3197  0.3751  0.2768
  723MOL0     O97494   6.274   4.669   9.759 -0.4682 -1.0317 -0.2713
  723MOL0     C97495   6.170   4.701   9.847 -0.6138  0.1683 -0.0787
  723MOL0     C97496   6.185   4.757   9.980  0.0900  0.4787  0.3057
  723MOL0     C97497   6.070   4.803  10.046  0.0807 -0.8870 -0.0851
  723MOL0     C97498   6.088   4.875  10.173  0.2493 -0.1357 -0.7858
  723MOL0     C97499   5.943   4.774  10.001  0.4867 -0.7740 -0.2092
  723MOL0     C97500   5.807   4.812  10.069 -0.1484 -0.2553 -0.9160
  723MOL0     O97501   5.695   4.766   9.998  0.6737  0.0009  0.0282
  723MOL0     C97502   5.570   4.758  10.064 -0.7522  0.1594  0.2782
  723MOL0     C97503   5.464   4.828  10.017 -0.2653  0.5377 -0.5271
  723MOL0     C97504   5.343   4.823  10.082  0.3911 -0.1003 -0.1724
  723MOL0     C97505   5.320   4.751  10.193 -0.6073  0.2967 -0.2125
  723MOL0     O97506   5.196   4.742  10.247 -0.4816  0.1755  0.1150
  723MOL0     C97507   5.126   4.619  10.232 -0.7964 -0.2846  0.3680
  723MOL0     C97508   5.037   4.596  10.359  0.6115 -0.1707  0.3186
  723MOL0     C97509   4.945   4.477  10.331 -0.0842 -0.1378  0.3177
  723MOL0     C97510   4.824   4.472  10.422  0.1665  0.2606 -0.8143
  723MOL0     C97511   4.734   4.355  10.389  0.3694  0.3721 -0.1357
  723MOL0     C97512   4.614   4.364  10.493  0.0117  0.7107  0.0689
  723MOL0     C97513   4.559   4.229  10.530 -0.4583  0.0572 -0.1077
  723MOL0     C97514   4.415   4.229  10.577  0.3430 -0.1816  0.3635
  723MOL0    Cl97515   4.296   4.284  10.456  0.1958  0.1465  0.1335
  723MOL0     C97516   5.430   4.674  10.248  1.0178 -0.2318 -0.2627
  723MOL0     C97517   5.554   4.685  10.188  0.4919  0.0370 -0.1565
  723MOL0     O97518   5.795   4.865  10.181  0.7462 -0.6099 -0.2296
  723MOL0     C97519   5.934   4.696   9.885 -0.1228  0.7011 -0.7495
  723MOL0     C97520   6.046   4.660   9.813  0.5237  1.0006 -0.4376
  723MOL0     N97521   6.794   4.685   9.542  0.7460 -0.6132  0.5354
  723MOL0     N97522   6.910   4.691   9.583 -0.2043  0.8263 -0.0291
  723MOL0     C97523   8.188   4.190   9.471  0.1593  0.0665 -0.0649
  723MOL0     C97524   8.311   4.161   9.422 -0.3454  0.2274 -1.1469
  723MOL0     C97525   8.715   3.926   9.381 -0.6571  0.9018  0.4713
  723MOL0     C97526   8.785   4.046   9.382 -0.5088  0.7914  0.6826
  723MOL0     C97527   8.930   4.040   9.378  0.1308 -0.2616  0.2697
  723MOL0     C97528   9.000   3.926   9.336  0.8920  0.1882  1.2681
  723MOL0     O97529   9.135   3.941   9.311 -0.0319  0.2086  0.6823
  723MOL0     C97530   9.192   3.822   9.258  1.0452  0.4948 -1.0384
  723MOL0     C97531   9.314   3.872   9.188  0.3015  0.6587  0.5574
  723MOL0     C97532   9.428   3.919   9.271  0.4344 -0.1349 -0.6531
  723MOL0     C97533   9.573   3.909   9.207 -0.0121  0.0935  0.4400
  723MOL0     C97534   9.575   3.972   9.074 -0.1733  0.6871  0.3351
  723MOL0     C97535   9.582   4.030   8.968 -0.0474 -0.0277 -0.0646
  723MOL0     C97536   8.922   3.816   9.322  0.7662  1.1227  0.5278
  723MOL0     C97537   8.784   3.814   9.334  0.9104  0.7311  0.2976
  723MOL0     H97538   8.384   3.913   9.643  0.4344  1.6271  0.5089
  723MOL0     H97539   8.134   3.958   9.706  0.3432 -0.3326  0.1179
  723MOL0     H97540   7.935   4.309   9.507  2.1800 -0.1142  1.2639
  723MOL0     H97541   7.901   4.154   9.419 -2.7166 -1.0594  0.8135
  723MOL0     H97542   7.754   4.108   9.635  0.5491 -1.4571 -2.4097
  723MOL0     H97543   7.800   4.272   9.692 -1.5874  0.5523  0.4799
  723MOL0     H97544   7.683   4.360   9.494  2.0726  1.3639  1.8201
  723MOL0     H97545   7.597   4.208   9.488 -0.7510 -2.2214  2.2754
  723MOL0     H97546   7.478   4.210   9.687  1.1894 -2.4219 -2.9392
  723MOL0     H97547   7.593   4.334   9.753 -0.8145  1.0783  0.7934
  723MOL0     H97548   7.478   4.500   9.597 -2.2869  1.3060  0.0251
  723MOL0     H97549   7.395   4.366   9.508 -1.9784 -0.0824  0.5923
  723MOL0     H97550   7.272   4.313   9.728  0.4975 -0.0913 -0.4562
  723MOL0     H97551   7.317   4.479   9.773 -2.5339  1.0604 -0.5036
  723MOL0     H97552   7.212   4.555   9.546 -1.9564  1.4951  0.9830
  723MOL0     H97553   7.150   4.384   9.552  0.1229  1.8572 -2.3056
  723MOL0     H97554   7.099   4.624   9.746 -0.6832  2.8617 -4.2665
  723MOL0     H97555   7.033   4.470   9.784  0.5158  1.2240  0.9089
  723MOL0     H97556   6.835   4.376   9.609  2.5102  0.4441  0.0716
  723MOL0     H97557   6.560   4.570   9.416  2.0705  0.5342  0.4291
  723MOL0     H97558   6.588   4.412   9.497  2.1651 -0.9970 -0.1426
  723MOL0     H97559   6.539   4.504   9.714  0.0118 -0.9071 -0.1069
  723MOL0     H97560   6.409   4.524   9.593  0.0258  1.6991 -3.2702
  723MOL0     H97561   6.456   4.761   9.578 -0.5121 -0.8393 -0.0657
  723MOL0     H97562   6.599   4.735   9.681  0.2704  1.3139 -1.2198
  723MOL0     H97563   6.398   4.824   9.807  2.6521  0.7376 -0.0691
  723MOL0     H97564   6.458   4.675   9.869 -2.0197  0.8865  1.9714
  723MOL0     H97565   6.284   4.772  10.022  1.0387 -3.1353 -0.3003
  723MOL0     H97566   6.065   4.981  10.164 -2.4602 -0.7437 -1.9373
  723MOL0     H97567   6.017   4.831  10.244  0.3300 -0.0529 -0.6525
  723MOL0     H97568   6.188   4.854  10.212  0.3086  1.6438  0.1088
  723MOL0     H97569   5.466   4.883   9.924 -1.8501  0.6484 -0.5225
  723MOL0     H97570   5.256   4.873  10.041  0.9609  1.1431  0.0743
  723MOL0     H97571   5.064   4.638  10.144 -0.8457  2.4373  0.8908
  723MOL0     H97572   5.192   4.533  10.217  0.5785  0.6423  0.8468
  723MOL0     H97573   5.111   4.585  10.438  0.3956  0.5148  0.6173
  723MOL0     H97574   4.976   4.684  10.380 -0.1980 -0.2594 -1.4813
  723MOL0     H97575   5.006   4.388  10.346  0.1179  0.2158  1.7764
  723MOL0     H97576   4.910   4.472  10.227 -2.3512  0.3346  0.9945
  723MOL0     H97577   4.861   4.464  10.524 -0.5807  0.0576 -0.5504
  723MOL0     H97578   4.775   4.570  10.415  1.5526  1.2165  1.6877
  723MOL0     H97579   4.793   4.263  10.386  1.4228  1.0445 -3.4300
  723MOL0     H97580   4.688   4.369  10.291  0.6793  0.6846 -0.2384
  723MOL0     H97581   4.650   4.416  10.583 -0.3203  0.9603  0.0582
  723MOL0     H97582   4.539   4.431  10.450 -0.6201  1.0161  1.5583
  723MOL0     H97583   4.635   4.190  10.599 -0.4250 -2.0346 -1.2395
  723MOL0     H97584   4.568   4.171  10.438  1.8918  1.6354 -0.9873
  723MOL0     H97585   4.399   4.285  10.670 -2.5685  0.5944 -0.4806
  723MOL0     H97586   4.390   4.130  10.616  0.2282 -0.4143 -0.2967
  723MOL0     H97587   5.416   4.608  10.333 -2.5338 -0.2560 -0.7019
  723MOL0     H97588   5.627   4.618  10.231  0.2902 -2.4368 -3.2999
  723MOL0     H97589   5.834   4.661   9.859 -0.4876  2.6339 -2.2144
  723MOL0     H97590   6.023   4.608   9.721 -3.5243  2.1673 -0.3134
  723MOL0     H97591   8.146   4.276   9.420  2.4888 -0.0811 -2.4636
  723MOL0     H97592   8.348   4.233   9.349  3.0137  1.5241  1.5468
  723MOL0     H97593   8.743   4.140   9.414 -0.3858  0.8796  0.5871
  723MOL0     H97594   8.991   4.125   9.406 -0.6670 -0.6355  3.4789
  723MOL0     H97595   9.204   3.749   9.338  1.1076  0.2790 -1.2419
  723MOL0     H97596   9.126   3.777   9.182 -0.8657  0.1057  0.7611
  723MOL0     H97597   9.290   3.950   9.115  1.3915 -2.0659 -3.0008
  723MOL0     H97598   9.346   3.791   9.121 -0.5557  1.6393 -1.1139
  723MOL0     H97599   9.436   3.877   9.372 -0.3007  2.7015  0.6825
  723MOL0     H97600   9.395   4.020   9.298 -3.1487 -2.0533  3.5903
  723MOL0     H97601   9.605   3.805   9.200  1.6319  0.5433  0.8696
  723MOL0     H97602   9.640   3.967   9.271 -1.1851  0.8745  0.9904
  723MOL0     H97603   9.587   4.101   8.888 -0.0317 -0.2560 -0.2640
  723MOL0     H97604   8.959   3.719   9.288 -0.3844  0.7507  0.2701
  723MOL0     H97605   8.736   3.717   9.328 -1.7494  2.0598 -1.2919
  724MOL0     O97606   2.187   5.070   2.266 -0.5909 -0.2488  0.0193
  724MOL0     C97607   2.175   5.034   2.382 -0.1171  0.0431  0.5066
  724MOL0     O97608   2.065   4.978   2.429 -0.1445 -0.4601  0.3269
  724MOL0     C97609   1.944   4.970   2.354  0.5593 -0.2673  0.0690
  724MOL0     C97610   1.938   4.878   2.245  0.7706 -0.5560 -0.7526
  724MOL0     C97611   1.814   4.854   2.183  0.3599 -0.0487 -0.7870
  724MOL0     C97612   1.705   4.926   2.232  0.4146 -0.0586  0.2037
  724MOL0     O97613   1.584   4.910   2.165  0.2805 -0.4501  0.4201
  724MOL0     C97614   1.562   4.799   2.075 -0.5005  0.0006  0.3174
  724MOL0     C97615   1.410   4.768   2.085 -0.6615 -0.1504  0.4093
  724MOL0     C97616   1.320   4.883   2.026 -0.3199  0.3142 -0.5463
  724MOL0     C97617   1.204   4.896   2.122 -0.7028 -0.3219  0.4933
  724MOL0     C97618   1.091   4.969   2.047  0.6989 -0.0497 -0.6801
  724MOL0     C97619   0.985   4.876   1.974 -0.1214 -0.4810  0.9614
  724MOL0     C97620   0.863   4.942   1.903 -0.8740  0.7789 -0.3602
  724MOL0     C97621   0.910   5.046   1.789 -1.5384  0.8882 -0.1274
  724MOL0     N97622   0.785   5.101   1.738  0.1014  0.5363 -0.8097
  724MOL0     C97623   0.718   5.043   1.630 -1.1744 -0.1939 -0.4057
  724MOL0     C97624   0.625   5.134   1.595 -0.2317 -0.1740  0.8707
  724MOL0     C97625   0.524   5.120   1.489 -0.4339  0.0091  0.6102
  724MOL0     C97626   0.391   5.062   1.531  0.5433 -0.2061 -0.3268
  724MOL0     C97627   0.291   5.055   1.409 -0.4356  0.2513  0.0597
  724MOL0     C97628   0.156   4.996   1.443  0.3622 -0.4539 -0.0881
  724MOL0     O97629   0.104   5.058   1.563 -0.0618 -0.0327  0.0403
  724MOL0     C97630  -0.028   5.074   1.592 -0.0009  0.2740  0.5667
  724MOL0     C97631  -0.129   4.986   1.547 -0.0069 -0.9430 -0.4913
  724MOL0     C97632  -0.265   5.022   1.563 -0.2953 -0.2575  0.4469
  724MOL0     C97633  -0.370   4.954   1.482 -0.7154  0.7902 -0.2107
  724MOL0     C97634  -0.302   5.137   1.646  0.2871 -0.6713  0.2554
  724MOL0     C97635  -0.441   5.190   1.665 -1.1631 -0.2911  0.7700
  724MOL0     O97636  -0.452   5.259   1.782  0.2836  0.3641  0.0748
  724MOL0     C97637  -0.571   5.333   1.796 -0.3787  0.1167  0.3234
  724MOL0     C97638  -0.685   5.283   1.859 -0.0988  0.3694 -0.3527
  724MOL0     C97639  -0.810   5.355   1.855 -0.3938 -0.3375  0.1672
  724MOL0     C97640  -0.824   5.477   1.788 -0.3210 -0.2337 -0.2934
  724MOL0     O97641  -0.945   5.545   1.793  0.4239  0.1316 -0.6102
  724MOL0     C97642  -1.042   5.501   1.700  0.5855 -0.7172 -0.0241
  724MOL0     C97643  -1.183   5.550   1.745 -0.6194  0.6010 -0.0084
  724MOL0     C97644  -1.192   5.700   1.745 -0.5163 -0.3142 -0.1357
  724MOL0     C97645  -1.326   5.746   1.741  0.3199 -0.1693  0.1758
  724MOL0     C97646  -1.394   5.744   1.598 -0.3361 -1.0845  0.1315
  724MOL0     C97647  -1.536   5.793   1.596 -0.3435 -0.1070  0.2581
  724MOL0     C97648  -1.635   5.710   1.679 -0.1490  0.1813  0.6084
  724MOL0     C97649  -1.760   5.788   1.691  0.3923 -0.7578  0.4193
  724MOL0    Cl97650  -1.820   5.829   1.524 -0.0273  0.1402  0.1470
  724MOL0     C97651  -0.712   5.532   1.732 -0.8011  0.2935 -0.1737
  724MOL0     C97652  -0.586   5.458   1.740  1.0415 -0.2940  0.6893
  724MOL0     O97653  -0.519   5.178   1.569 -0.3651 -0.9308  0.2641
  724MOL0     C97654  -0.199   5.204   1.716  0.6794 -0.6450  1.0091
  724MOL0     C97655  -0.063   5.176   1.675  0.1491 -0.2205  0.1780
  724MOL0     N97656   0.634   5.239   1.692 -1.0098  0.4758 -0.2250
  724MOL0     N97657   0.721   5.208   1.784 -0.4941  0.8796  0.8090
  724MOL0     C97658   1.707   5.017   2.333  0.8963  0.2355  0.1132
  724MOL0     C97659   1.826   5.042   2.393  0.3293 -0.4579 -0.1738
  724MOL0     C97660   2.292   5.036   2.473  0.5200 -0.1906 -0.6134
  724MOL0     C97661   2.286   4.996   2.612  0.5641  0.0074  1.1692
  724MOL0     C97662   2.388   5.003   2.703  0.7220 -0.3364  0.0540
  724MOL0     C97663   2.508   5.058   2.659 -0.2713  0.1852  0.3400
  724MOL0     O97664   2.613   5.043   2.748  0.0274 -0.7105 -0.0110
  724MOL0     C97665   2.728   5.125   2.728  0.7362 -0.1074  0.0513
  724MOL0     C97666   2.814   5.114   2.843  0.4153  0.1214  0.2563
  724MOL0     C97667   2.950   5.174   2.813 -1.3879 -0.5328 -0.3206
  724MOL0     C97668   3.031   5.200   2.937 -0.3057 -0.2064  0.0351
  724MOL0     C97669   3.171   5.237   2.911 -0.3978  0.8648 -0.0892
  724MOL0     C97670   3.288   5.271   2.888 -0.6135  0.7893  0.5138
  724MOL0     C97671   2.518   5.107   2.524 -0.0309 -1.2941 -0.1714
  724MOL0     C97672   2.417   5.097   2.432 -0.1572  0.5204 -0.9719
  724MOL0     H97673   2.028   4.831   2.209  0.0590 -0.1640 -3.2025
  724MOL0     H97674   1.804   4.786   2.099 -3.3763 -0.2216 -0.3919
  724MOL0     H97675   1.579   4.833   1.973  1.4249  0.8331  0.8629
  724MOL0     H97676   1.625   4.713   2.099 -0.8117 -1.6354 -3.9431
  724MOL0     H97677   1.400   4.674   2.029  1.2883 -0.4294  0.4408
  724MOL0     H97678   1.397   4.745   2.191  0.6349  0.8239  0.8052
  724MOL0     H97679   1.377   4.976   2.033  0.1992 -0.0882  0.8406
  724MOL0     H97680   1.291   4.861   1.923 -0.4189 -2.1618 -0.0433
  724MOL0     H97681   1.168   4.802   2.165  0.4266 -0.5214  1.0216
  724MOL0     H97682   1.236   4.959   2.204  0.2708 -1.5954  1.1321
  724MOL0     H97683   1.034   5.025   2.122 -0.4476 -1.5117 -0.4175
  724MOL0     H97684   1.142   5.037   1.979  3.5367 -0.3709  0.9808
  724MOL0     H97685   1.048   4.820   1.904 -0.9625 -1.5885  1.0669
  724MOL0     H97686   0.950   4.799   2.044  1.5614 -1.5545  0.6875
  724MOL0     H97687   0.799   4.869   1.854 -0.2207 -0.2712  0.2894
  724MOL0     H97688   0.804   4.999   1.975  1.6349  3.1610 -0.0383
  724MOL0     H97689   0.956   4.999   1.702  1.2971 -0.4119  1.9022
  724MOL0     H97690   0.972   5.127   1.830 -0.5487 -0.5542  1.3628
  724MOL0     H97691   0.742   4.955   1.572  0.8946  0.9401 -1.3813
  724MOL0     H97692   0.523   5.218   1.441  1.6816  0.1567  0.7836
  724MOL0     H97693   0.563   5.049   1.415 -0.7776  1.1589 -0.7239
  724MOL0     H97694   0.356   5.130   1.609  0.4204 -3.3086  2.5352
  724MOL0     H97695   0.404   4.964   1.578  2.9774  0.8640  1.4296
  724MOL0     H97696   0.333   4.993   1.329  0.0980  0.8119 -0.1063
  724MOL0     H97697   0.285   5.157   1.369 -2.7394 -0.3132 -1.1730
  724MOL0     H97698   0.165   4.887   1.454 -0.1375 -0.6382 -1.3384
  724MOL0     H97699   0.086   5.014   1.361  1.7167 -0.2894 -1.2556
  724MOL0     H97700  -0.107   4.905   1.478  1.8512  0.1669 -1.2837
  724MOL0     H97701  -0.458   4.919   1.537  0.1732  0.3525  0.9930
  724MOL0     H97702  -0.408   5.013   1.398 -2.6735  0.2030  0.2045
  724MOL0     H97703  -0.312   4.866   1.452 -0.2890  0.1323  2.3226
  724MOL0     H97704  -0.692   5.188   1.911 -0.7766 -0.4740 -1.9095
  724MOL0     H97705  -0.899   5.312   1.898  0.5156 -0.7497  1.7441
  724MOL0     H97706  -1.011   5.546   1.605 -0.6005 -2.1901 -1.1473
  724MOL0     H97707  -1.036   5.392   1.701  0.9592 -0.7047 -0.5490
  724MOL0     H97708  -1.250   5.504   1.671  2.1995 -3.8134 -0.2149
  724MOL0     H97709  -1.220   5.508   1.838 -2.4819  0.9343 -0.5665
  724MOL0     H97710  -1.137   5.749   1.664  1.3058 -3.3715 -0.8859
  724MOL0     H97711  -1.139   5.741   1.831  1.0294  2.0922 -2.0792
  724MOL0     H97712  -1.383   5.670   1.796  2.4297 -2.5975 -0.7751
  724MOL0     H97713  -1.326   5.840   1.797 -0.2218 -1.1321  1.8658
  724MOL0     H97714  -1.382   5.646   1.550  3.6497 -1.3847  1.3651
  724MOL0     H97715  -1.344   5.812   1.528 -1.9921  1.4820  1.2968
  724MOL0     H97716  -1.550   5.896   1.629 -1.2734 -0.0064 -0.4128
  724MOL0     H97717  -1.563   5.795   1.490 -0.4168  0.9901  0.2926
  724MOL0     H97718  -1.607   5.699   1.784  5.0383  0.4070 -0.4719
  724MOL0     H97719  -1.653   5.614   1.631  2.3691 -0.2209  0.3040
  724MOL0     H97720  -1.741   5.882   1.744 -0.7299 -0.6405  0.6367
  724MOL0     H97721  -1.833   5.731   1.749  2.0261  1.1107  4.6918
  724MOL0     H97722  -0.721   5.630   1.685 -1.1486  0.9634  1.2472
  724MOL0     H97723  -0.497   5.500   1.693  1.6894 -0.2076  1.9468
  724MOL0     H97724  -0.227   5.287   1.780  1.6737 -0.6715  1.5022
  724MOL0     H97725   0.011   5.248   1.706 -0.2543 -0.8716  2.8800
  724MOL0     H97726   1.612   5.062   2.361  0.2199 -2.3698  2.5280
  724MOL0     H97727   1.845   5.115   2.470 -1.6902 -0.6963  0.6013
  724MOL0     H97728   2.189   4.959   2.641  0.0685 -1.6254 -2.1331
  724MOL0     H97729   2.383   4.952   2.799 -1.3451  2.5527  1.6468
  724MOL0     H97730   2.784   5.080   2.645  0.6177 -1.2249  0.5532
  724MOL0     H97731   2.700   5.226   2.698  0.5512  0.0410  0.7133
  724MOL0     H97732   2.819   5.010   2.877 -2.3061  0.1373  0.9283
  724MOL0     H97733   2.771   5.180   2.919 -2.2037  2.0689 -2.6417
  724MOL0     H97734   2.947   5.270   2.761  3.7634  0.2950  0.3625
  724MOL0     H97735   3.002   5.114   2.738 -0.9847 -2.6598  1.5599
  724MOL0     H97736   3.040   5.108   2.995  0.3157 -0.6486 -0.7395
  724MOL0     H97737   2.986   5.284   2.990  0.7438  0.2680  0.1944
  724MOL0     H97738   3.390   5.292   2.861 -0.7497 -1.9733 -2.9933
  724MOL0     H97739   2.612   5.152   2.496 -0.1702  1.4225  3.0349
  724MOL0     H97740   2.429   5.129   2.329  0.1836  0.9410 -0.8040
  725MOL0     O97741   6.048  10.279   5.709 -0.1455 -0.1096  0.0931
  725MOL0     C97742   6.101  10.270   5.820 -0.5979 -1.1790 -0.4866
  725MOL0     O97743   6.026  10.250   5.935 -0.3363 -0.3214 -0.2039
  725MOL0     C97744   5.892  10.212   5.929 -0.3494 -0.0524 -1.2513
  725MOL0     C97745   5.857  10.111   6.025  0.0478  0.6261 -1.3470
  725MOL0     C97746   5.731  10.066   6.039  0.3805  0.2927 -0.5343
  725MOL0     C97747   5.629  10.110   5.965  0.0527 -0.3097 -0.0674
  725MOL0     O97748   5.503  10.060   5.976 -0.1867 -0.2018  0.5161
  725MOL0     C97749   5.394  10.126   5.909  0.5281  0.1541  0.3392
  725MOL0     C97750   5.252  10.066   5.929 -0.0715 -0.3159  0.1064
  725MOL0     C97751   5.137  10.131   5.861  0.2726 -0.4141  0.4496
  725MOL0     C97752   5.000  10.069   5.898  0.5442 -0.9923 -0.2207
  725MOL0     C97753   4.872  10.153   5.846  0.5589  0.2186  0.0997
  725MOL0     C97754   4.745  10.073   5.842 -0.6894 -0.4722 -0.0402
  725MOL0     C97755   4.637  10.168   5.802 -0.3953 -0.6051 -0.4221
  725MOL0     C97756   4.497  10.112   5.809  0.1714 -0.2119 -0.9414
  725MOL0     N97757   4.481  10.013   5.695  0.5750  0.1295 -0.2344
  725MOL0     C97758   4.424  10.038   5.567  1.7620  0.3694  0.1827
  725MOL0     C97759   4.465   9.949   5.476 -0.0794  0.3341  0.3832
  725MOL0     C97760   4.439   9.947   5.331  0.2083  0.3666 -0.3516
  725MOL0     C97761   4.301   9.890   5.303  0.5455  0.2739 -0.0606
  725MOL0     C97762   4.265   9.892   5.159 -0.2582 -0.1253 -0.2519
  725MOL0     C97763   4.130   9.820   5.133 -1.1571 -0.3962  0.1200
  725MOL0     O97764   4.091   9.897   5.020  0.7477  0.0219 -0.0851
  725MOL0     C97765   3.956   9.911   4.993 -0.1656  0.4695 -0.3598
  725MOL0     C97766   3.916  10.005   4.901 -0.0016 -0.0710 -0.1665
  725MOL0     C97767   3.782  10.034   4.878  0.7369 -0.1367 -0.2439
  725MOL0     C97768   3.756  10.140   4.783  0.0699  0.0033 -0.2712
  725MOL0     C97769   3.677   9.951   4.942 -0.1195  0.9372 -0.1993
  725MOL0     C97770   3.520   9.963   4.920 -0.4765 -0.5487  0.3353
  725MOL0     O97771   3.430   9.907   5.016 -0.0135 -0.5571  0.3771
  725MOL0     C97772   3.297   9.876   4.993  0.2013  0.7311  0.4325
  725MOL0     C97773   3.192   9.940   5.047 -0.1250 -0.2637 -0.0882
  725MOL0     C97774   3.062   9.916   5.011 -0.4576 -1.0640  0.4726
  725MOL0     C97775   3.030   9.825   4.910 -0.0559  0.1671  0.6509
  725MOL0     O97776   2.911   9.795   4.851 -0.2763 -0.7318  1.3925
  725MOL0     C97777   2.803   9.876   4.896 -0.3431 -0.5708 -0.2620
  725MOL0     C97778   2.672   9.815   4.838 -0.4716  0.8069  0.2616
  725MOL0     C97779   2.554   9.896   4.873 -0.8405  0.3936 -0.5975
  725MOL0     C97780   2.421   9.838   4.815 -0.6492  0.2173 -0.3789
  725MOL0     C97781   2.294   9.901   4.870  0.1213 -0.4999 -0.1087
  725MOL0     C97782   2.273   9.862   5.019 -0.1464 -0.4114 -0.9618
  725MOL0     C97783   2.144   9.931   5.073  0.0874  1.0582 -0.2572
  725MOL0     C97784   2.106   9.875   5.213 -0.2379  0.0837  0.5442
  725MOL0    Cl97785   1.948   9.952   5.265  0.2037 -0.1543 -0.4444
  725MOL0     C97786   3.143   9.756   4.851 -0.9126 -0.3893 -0.7259
  725MOL0     C97787   3.271   9.771   4.903  0.1527  0.0448  0.1420
  725MOL0     O97788   3.481  10.026   4.822 -0.6492 -0.2331 -0.0536
  725MOL0     C97789   3.724   9.846   5.033 -0.9633  0.0065  0.2202
  725MOL0     C97790   3.858   9.828   5.052  0.2320 -0.0497  0.1697
  725MOL0     N97791   4.537   9.859   5.549 -0.5434  0.2350  0.1780
  725MOL0     N97792   4.545   9.897   5.670 -0.3408 -0.0795 -0.7219
  725MOL0     C97793   5.657  10.214   5.868 -0.2184 -0.2188 -0.1650
  725MOL0     C97794   5.783  10.262   5.860 -0.6468 -0.0029  0.1081
  725MOL0     C97795   6.246  10.278   5.829 -0.4678 -0.3511  0.7753
  725MOL0     C97796   6.309  10.227   5.945  0.0614  0.8238 -0.0386
  725MOL0     C97797   6.448  10.255   5.965  0.9314  0.3575  0.2202
  725MOL0     C97798   6.521  10.311   5.862 -0.4552  0.0831 -0.6446
  725MOL0     O97799   6.650  10.334   5.906  0.4857  0.6604  0.3310
  725MOL0     C97800   6.752  10.350   5.813  0.7769  0.1642 -0.1854
  725MOL0     C97801   6.767  10.498   5.787 -0.7696 -0.0067  0.3861
  725MOL0     C97802   6.878  10.563   5.862  0.0419  0.5306 -0.8561
  725MOL0     C97803   6.916  10.700   5.795  0.8674  0.5549 -0.0034
  725MOL0     C97804   6.802  10.802   5.773 -0.7752  0.2659 -0.0573
  725MOL0     C97805   6.715  10.884   5.758 -0.1298  0.5236  0.0901
  725MOL0     C97806   6.461  10.354   5.737 -0.0170  0.6023 -0.5632
  725MOL0     C97807   6.321  10.332   5.721  0.3728  0.5097 -0.6568
  725MOL0     H97808   5.934  10.079   6.095 -2.9329  5.0124  4.7686
  725MOL0     H97809   5.702   9.994   6.114  2.2521 -0.1344 -0.1565
  725MOL0     H97810   5.393  10.232   5.936 -0.6046  0.6844 -1.6473
  725MOL0     H97811   5.412  10.117   5.801 -2.4953  0.9566 -0.3086
  725MOL0     H97812   5.244   9.964   5.892 -2.3312 -1.0647  2.3908
  725MOL0     H97813   5.226  10.053   6.035 -0.2041  1.6859  0.3628
  725MOL0     H97814   5.134  10.238   5.884 -2.6420  0.1190 -1.7600
  725MOL0     H97815   5.148  10.117   5.753 -0.0249  0.0345  0.3580
  725MOL0     H97816   4.993   9.971   5.850 -0.5314 -1.5809  1.0749
  725MOL0     H97817   4.986  10.058   6.006  3.1608  1.2446  0.4384
  725MOL0     H97818   4.860  10.250   5.894 -1.4749  1.2009 -2.1888
  725MOL0     H97819   4.883  10.169   5.738 -0.6590  1.9681  0.1973
  725MOL0     H97820   4.752  10.001   5.760 -0.7263 -0.4471 -0.0652
  725MOL0     H97821   4.727  10.020   5.937 -1.4430  1.6059  1.0313
  725MOL0     H97822   4.643  10.252   5.873  0.6026 -1.2441  0.2809
  725MOL0     H97823   4.645  10.216   5.704 -1.9324  1.4817  0.3920
  725MOL0     H97824   4.430  10.198   5.816 -1.9830 -1.9187  2.8060
  725MOL0     H97825   4.485  10.063   5.906  0.2054  0.9716 -0.3183
  725MOL0     H97826   4.364  10.125   5.541  0.4075  0.0034  1.8555
  725MOL0     H97827   4.467  10.044   5.287 -0.2820  0.2018 -1.0429
  725MOL0     H97828   4.518   9.883   5.290 -0.9852 -2.2716  1.2456
  725MOL0     H97829   4.231   9.953   5.358  0.6683 -0.1059  0.5384
  725MOL0     H97830   4.304   9.791   5.349 -3.3281 -0.1173 -0.3182
  725MOL0     H97831   4.340   9.848   5.093  2.9236 -0.2682  3.0973
  725MOL0     H97832   4.263  10.001   5.143  0.8273  0.2920  1.9630
  725MOL0     H97833   4.068   9.846   5.219  0.1074  1.5460  0.5041
  725MOL0     H97834   4.143   9.713   5.111  1.3301  0.0864 -1.1175
  725MOL0     H97835   3.997  10.058   4.852  1.0796  0.5072  2.0876
  725MOL0     H97836   3.721  10.087   4.695  0.3782 -0.3762 -0.1688
  725MOL0     H97837   3.681  10.215   4.809  0.0652  1.1884 -3.3477
  725MOL0     H97838   3.850  10.190   4.754 -1.0450  1.2453 -1.9390
  725MOL0     H97839   3.219  10.025   5.110 -3.4340  0.3059  0.7529
  725MOL0     H97840   2.979   9.971   5.055 -1.3253 -1.3762 -0.7131
  725MOL0     H97841   2.797   9.871   5.005 -2.3908 -2.4909 -0.4055
  725MOL0     H97842   2.817   9.976   4.853  1.9577 -1.7479 -2.5146
  725MOL0     H97843   2.678   9.796   4.731  3.5112  1.9489  0.1472
  725MOL0     H97844   2.648   9.720   4.887 -0.8319  1.0755  0.6199
  725MOL0     H97845   2.574   9.995   4.833 -0.7389  0.3182 -0.7353
  725MOL0     H97846   2.547   9.903   4.982  0.6489 -0.2403 -0.4332
  725MOL0     H97847   2.431   9.846   4.707 -1.3113  1.2434 -0.3777
  725MOL0     H97848   2.415   9.728   4.819  2.1256 -0.0195 -0.8462
  725MOL0     H97849   2.206   9.868   4.815 -0.2533 -3.9730  2.2819
  725MOL0     H97850   2.290  10.010   4.861  1.0772 -0.4780 -0.4129
  725MOL0     H97851   2.257   9.754   5.025  1.1430 -0.5939 -0.5923
  725MOL0     H97852   2.360   9.876   5.083  0.8683  0.6638 -2.5153
  725MOL0     H97853   2.057   9.920   5.008  0.4504  1.4082 -0.8137
  725MOL0     H97854   2.175  10.033   5.099  2.6137  0.5623 -1.0030
  725MOL0     H97855   2.188   9.894   5.283  3.2268  1.1548 -3.3399
  725MOL0     H97856   2.104   9.767   5.199  0.9791  0.1933 -0.8378
  725MOL0     H97857   3.120   9.687   4.770 -0.2733  0.2259 -1.4505
  725MOL0     H97858   3.355   9.716   4.861  0.6505  0.1333  0.9901
  725MOL0     H97859   3.652   9.786   5.087 -1.2950 -0.8525 -1.1293
  725MOL0     H97860   3.876   9.751   5.126  1.6282  1.6810  1.7052
  725MOL0     H97861   5.583  10.266   5.807  0.8450  1.1505 -0.3468
  725MOL0     H97862   5.809  10.340   5.789 -0.4933  2.7454  2.9437
  725MOL0     H97863   6.252  10.193   6.031 -0.9152  1.5397 -0.3845
  725MOL0     H97864   6.504  10.246   6.057 -0.0983  0.4414  0.8773
  725MOL0     H97865   6.844  10.316   5.861  0.5205 -0.7712 -0.3356
  725MOL0     H97866   6.740  10.298   5.717 -0.4140  0.8893 -0.4549
  725MOL0     H97867   6.676  10.554   5.807 -0.4543  0.7653 -0.2534
  725MOL0     H97868   6.793  10.518   5.682 -0.3043 -0.6868  0.3661
  725MOL0     H97869   6.961  10.492   5.865 -2.0167 -1.9795  0.1432
  725MOL0     H97870   6.834  10.569   5.962 -1.0407 -3.9229 -0.8753
  725MOL0     H97871   6.951  10.681   5.693 -2.3611 -1.7889 -0.8500
  725MOL0     H97872   6.992  10.732   5.867  0.4791 -0.1224  0.7235
  725MOL0     H97873   6.638  10.954   5.731  0.4210  0.9130 -0.5041
  725MOL0     H97874   6.523  10.414   5.672 -1.1149  3.2456  0.6484
  725MOL0     H97875   6.271  10.378   5.636 -1.5562  0.2943  0.3195
  726MOL0     O97876   5.766   2.596   4.825 -0.3464 -0.1885 -0.4997
  726MOL0     C97877   5.857   2.666   4.872  0.4298 -0.0311 -0.3507
  726MOL0     O97878   5.872   2.711   5.003  0.9322 -0.0240  0.3341
  726MOL0     C97879   5.761   2.739   5.077  0.7108  0.1061  0.4732
  726MOL0     C97880   5.633   2.764   5.021 -0.3054  0.0472  0.0010
  726MOL0     C97881   5.523   2.788   5.108 -0.2742  0.6298  0.0189
  726MOL0     C97882   5.552   2.800   5.244  0.1750  0.6363 -0.2376
  726MOL0     O97883   5.454   2.823   5.334 -0.2890 -0.5141  0.0093
  726MOL0     C97884   5.333   2.760   5.321 -0.2675  0.9369 -0.3357
  726MOL0     C97885   5.224   2.868   5.311  0.4362  0.2344  0.5367
  726MOL0     C97886   5.081   2.814   5.339  0.1831 -0.5045  0.7163
  726MOL0     C97887   5.028   2.709   5.237  0.2290  0.0579 -0.7118
  726MOL0     C97888   4.870   2.708   5.243 -0.7846 -0.3240 -0.2519
  726MOL0     C97889   4.812   2.615   5.349 -0.1389 -0.6922 -0.1142
  726MOL0     C97890   4.805   2.473   5.298  0.1430 -0.3543  0.1389
  726MOL0     C97891   4.714   2.451   5.176  0.5035  0.7553  0.1574
  726MOL0     N97892   4.592   2.525   5.175 -0.6111  0.6498  0.6685
  726MOL0     C97893   4.482   2.480   5.247  0.5089 -0.0406 -0.0007
  726MOL0     C97894   4.400   2.586   5.224  0.8660  0.0086 -0.6187
  726MOL0     C97895   4.257   2.597   5.265  0.0379  0.6089  1.0422
  726MOL0     C97896   4.247   2.599   5.415  0.3429 -0.7364  0.1288
  726MOL0     C97897   4.303   2.729   5.469  0.3737  0.2198  0.0192
  726MOL0     C97898   4.217   2.843   5.425 -0.0036 -0.4314 -0.5678
  726MOL0     O97899   4.079   2.820   5.413  0.4194 -0.1179 -0.1701
  726MOL0     C97900   3.989   2.835   5.517  0.0101 -0.9192  0.2170
  726MOL0     C97901   4.014   2.854   5.659  1.0444  0.7573  0.0444
  726MOL0     C97902   3.911   2.858   5.752 -0.0358 -0.7658 -0.9722
  726MOL0     C97903   3.954   2.868   5.897 -0.4789  0.3515  0.2206
  726MOL0     C97904   3.777   2.855   5.706 -0.0992 -0.3597 -0.6786
  726MOL0     C97905   3.663   2.856   5.803 -0.5094 -0.7047  0.4752
  726MOL0     O97906   3.540   2.821   5.754 -0.5398 -0.8875 -0.4227
  726MOL0     C97907   3.427   2.870   5.812  1.0415  0.1295  0.0893
  726MOL0     C97908   3.374   2.844   5.936  0.3007  0.6949  0.2365
  726MOL0     C97909   3.247   2.891   5.972  0.0826  0.6388  0.3179
  726MOL0     C97910   3.173   2.977   5.883  0.4902  0.0661 -0.9073
  726MOL0     O97911   3.060   3.033   5.933 -0.0229  0.1111 -0.1780
  726MOL0     C97912   2.946   3.022   5.849  0.4211 -0.4833  0.7265
  726MOL0     C97913   2.834   3.053   5.950 -0.3871  0.6612  0.9600
  726MOL0     C97914   2.698   3.061   5.878 -0.4871  1.0439  0.1891
  726MOL0     C97915   2.679   3.167   5.763 -1.0755  0.3683  0.7200
  726MOL0     C97916   2.691   3.307   5.816 -0.9410  0.0688 -0.1825
  726MOL0     C97917   2.646   3.408   5.712  0.6884 -0.4523  0.5514
  726MOL0     C97918   2.758   3.437   5.611  0.1646  0.0973 -0.1850
  726MOL0     C97919   2.712   3.513   5.488  0.3652 -0.3285 -0.0803
  726MOL0    Cl97920   2.603   3.402   5.402 -0.2164 -0.0899 -0.0735
  726MOL0     C97921   3.231   3.008   5.760 -1.3988 -0.1972  0.1000
  726MOL0     C97922   3.347   2.946   5.721 -0.6045  0.2999  0.5444
  726MOL0     O97923   3.682   2.897   5.916 -0.2280 -0.8777 -0.4106
  726MOL0     C97924   3.755   2.824   5.569 -0.3253  0.1042  0.6882
  726MOL0     C97925   3.858   2.817   5.478 -0.0310  0.4319  0.8617
  726MOL0     N97926   4.460   2.683   5.145 -0.2408  0.1671  0.7261
  726MOL0     N97927   4.577   2.645   5.119  0.0217  0.0408 -0.3354
  726MOL0     C97928   5.683   2.806   5.295 -0.4189 -1.1604  0.7021
  726MOL0     C97929   5.789   2.778   5.204 -0.3113 -0.3371 -0.4464
  726MOL0     C97930   5.969   2.669   4.782 -0.5644 -0.2248  0.9232
  726MOL0     C97931   6.101   2.702   4.819  0.1412 -0.0781 -0.2489
  726MOL0     C97932   6.205   2.727   4.732 -0.4972 -0.3850 -0.5536
  726MOL0     C97933   6.186   2.691   4.602 -0.5289 -0.6745  0.3512
  726MOL0     O97934   6.295   2.712   4.516 -1.1583 -1.0565 -0.5613
  726MOL0     C97935   6.289   2.678   4.381 -0.0664  0.0916  0.4944
  726MOL0     C97936   6.421   2.720   4.325  0.0908  0.9689 -0.2130
  726MOL0     C97937   6.449   2.644   4.197  0.8748 -0.8617  0.0970
  726MOL0     C97938   6.577   2.675   4.131 -0.0227  0.1123  0.3628
  726MOL0     C97939   6.694   2.629   4.209 -0.2114 -0.7573  0.0940
  726MOL0     C97940   6.782   2.583   4.281  0.0090  0.1636  0.5039
  726MOL0     C97941   6.063   2.648   4.553  0.6136 -0.7635 -0.3273
  726MOL0     C97942   5.958   2.643   4.643 -1.0709  0.0670 -0.5480
  726MOL0     H97943   5.610   2.753   4.916  0.5275 -1.5270 -0.0314
  726MOL0     H97944   5.425   2.799   5.061  0.5337  3.3668 -1.2706
  726MOL0     H97945   5.336   2.689   5.239  0.5370  1.4767 -0.7919
  726MOL0     H97946   5.313   2.704   5.413 -1.0698  0.5700 -0.7291
  726MOL0     H97947   5.248   2.943   5.387  0.4033  0.8767 -0.0668
  726MOL0     H97948   5.232   2.925   5.217  1.8706  0.5295  0.8130
  726MOL0     H97949   5.085   2.773   5.441 -0.1642 -0.1547  0.8739
  726MOL0     H97950   5.013   2.899   5.335  0.5912 -0.1437  1.2132
  726MOL0     H97951   5.063   2.747   5.141 -0.1729 -0.8994 -1.2422
  726MOL0     H97952   5.062   2.609   5.264  0.1025  0.4613  1.1152
  726MOL0     H97953   4.841   2.811   5.264 -0.5463  0.1130 -1.9440
  726MOL0     H97954   4.826   2.689   5.145  1.1328  0.5445 -1.3204
  726MOL0     H97955   4.871   2.626   5.441  1.2336 -4.1287 -0.4556
  726MOL0     H97956   4.708   2.640   5.371 -0.5506 -1.7962 -0.7175
  726MOL0     H97957   4.908   2.442   5.278 -0.6242 -3.5153  0.5767
  726MOL0     H97958   4.765   2.411   5.378 -0.1824 -0.4800 -0.1183
  726MOL0     H97959   4.684   2.346   5.168 -1.6718  1.3615 -0.3120
  726MOL0     H97960   4.768   2.472   5.084 -0.0894 -0.9886 -0.6148
  726MOL0     H97961   4.456   2.389   5.300 -1.8044  0.7196  0.2865
  726MOL0     H97962   4.218   2.680   5.205  0.2063  0.0304  0.0952
  726MOL0     H97963   4.205   2.507   5.232  1.7764 -0.6711  1.6610
  726MOL0     H97964   4.297   2.512   5.458  2.7764  0.5369  0.0853
  726MOL0     H97965   4.146   2.582   5.451 -0.0273 -2.7865 -1.6941
  726MOL0     H97966   4.408   2.747   5.443  1.4443 -2.1667  2.2287
  726MOL0     H97967   4.302   2.728   5.579  0.5060  3.4654  0.1634
  726MOL0     H97968   4.259   2.883   5.332  0.6541 -0.2650 -0.2073
  726MOL0     H97969   4.218   2.930   5.492 -1.6579 -0.3865 -0.5554
  726MOL0     H97970   4.120   2.871   5.678  0.8475  2.8917 -0.4881
  726MOL0     H97971   3.903   2.793   5.959 -0.1347  1.3101  1.6949
  726MOL0     H97972   4.057   2.839   5.920 -0.5074  1.8154  2.3722
  726MOL0     H97973   3.934   2.968   5.936 -0.0306  0.2317  0.7708
  726MOL0     H97974   3.444   2.792   6.001  2.1288 -1.3634 -3.1299
  726MOL0     H97975   3.221   2.878   6.077 -2.1375  3.1985  0.1786
  726MOL0     H97976   2.960   3.100   5.773  1.1469 -0.8676  0.4522
  726MOL0     H97977   2.933   2.931   5.790 -2.2403  0.1225  0.2679
  726MOL0     H97978   2.830   2.976   6.027 -0.5345 -1.7595 -1.3465
  726MOL0     H97979   2.855   3.151   5.993  1.4512  2.9296 -4.2114
  726MOL0     H97980   2.630   3.087   5.959 -0.3018 -1.5372  1.2774
  726MOL0     H97981   2.667   2.960   5.850 -0.8554  0.6918  1.8006
  726MOL0     H97982   2.759   3.146   5.691  0.5599  1.9182  1.9776
  726MOL0     H97983   2.584   3.149   5.713 -0.0285 -1.2168 -0.8413
  726MOL0     H97984   2.795   3.326   5.842 -1.3538  2.0324  0.1954
  726MOL0     H97985   2.633   3.317   5.909  1.7861  1.2906  1.5254
  726MOL0     H97986   2.556   3.361   5.672  0.4841  0.7670 -0.5154
  726MOL0     H97987   2.610   3.498   5.763  0.4937 -1.3900  2.1459
  726MOL0     H97988   2.810   3.346   5.580 -1.5532 -1.9591  2.5622
  726MOL0     H97989   2.829   3.502   5.664  0.9036 -2.0314  1.5586
  726MOL0     H97990   2.792   3.552   5.424  1.0510  1.9231  2.0140
  726MOL0     H97991   2.662   3.604   5.524  1.6042  0.2017  0.3493
  726MOL0     H97992   3.172   3.079   5.702  0.1232  0.8859 -0.1829
  726MOL0     H97993   3.393   2.964   5.625  0.9815  0.7374  1.3474
  726MOL0     H97994   3.651   2.812   5.543 -1.3036  1.5665  3.5208
  726MOL0     H97995   3.837   2.811   5.372  0.3868  1.9750  0.6623
  726MOL0     H97996   5.700   2.817   5.401 -0.8728 -1.6843  0.8350
  726MOL0     H97997   5.889   2.786   5.245 -0.3815 -0.7850 -0.1715
  726MOL0     H97998   6.112   2.727   4.924  4.7477 -0.1256 -0.5339
  726MOL0     H97999   6.300   2.767   4.765 -1.4731  0.7276  1.0427
  726MOL0     H98000   6.259   2.574   4.363  0.3447 -0.1242  1.0396
  726MOL0     H98001   6.215   2.736   4.325 -0.2975  0.3230  1.0390
  726MOL0     H98002   6.504   2.712   4.395  0.3930 -2.8176 -0.7791
  726MOL0     H98003   6.401   2.824   4.296 -1.9988  0.7067  0.0785
  726MOL0     H98004   6.363   2.656   4.130 -0.0740  0.4563  1.4620
  726MOL0     H98005   6.448   2.538   4.223 -0.6913 -0.7756  0.4979
  726MOL0     H98006   6.576   2.782   4.108 -2.1300 -0.5714 -3.5501
  726MOL0     H98007   6.569   2.620   4.037  0.7625  0.4400  0.0969
  726MOL0     H98008   6.845   2.533   4.352  1.8830 -0.3389 -1.3967
  726MOL0     H98009   6.030   2.630   4.451 -3.1473  0.5518  0.5001
  726MOL0     H98010   5.867   2.601   4.600  0.2315 -2.3894 -1.0429
  727MOL0     O98011   4.503   3.586   5.877 -0.0434  0.3360  0.5705
  727MOL0     C98012   4.496   3.702   5.843  0.2393  0.6663 -0.1493
  727MOL0     O98013   4.385   3.784   5.855 -0.1945 -0.0118 -0.2941
  727MOL0     C98014   4.269   3.722   5.879 -0.1614 -0.1141 -0.4568
  727MOL0     C98015   4.187   3.775   5.982  0.6967 -0.3547  0.1367
  727MOL0     C98016   4.069   3.716   6.019 -0.8935 -0.1780 -0.1546
  727MOL0     C98017   4.015   3.608   5.947  0.5614 -0.7048  0.4343
  727MOL0     O98018   3.897   3.553   5.978 -0.2744 -0.1280 -0.8064
  727MOL0     C98019   3.793   3.563   5.877  0.3304  0.8349 -0.0149
  727MOL0     C98020   3.660   3.533   5.940 -1.0088  0.2452 -1.1982
  727MOL0     C98021   3.549   3.553   5.832 -0.3446  0.7970 -0.6000
  727MOL0     C98022   3.413   3.503   5.877  0.2382 -0.1488  0.2730
  727MOL0     C98023   3.311   3.510   5.758 -0.0879 -0.4190 -0.9006
  727MOL0     C98024   3.191   3.416   5.778  0.2483  0.1519 -0.2890
  727MOL0     C98025   3.114   3.439   5.910  0.8329  0.0400 -0.7582
  727MOL0     C98026   3.028   3.561   5.904  0.4392  0.5509 -1.1195
  727MOL0     N98027   2.935   3.558   6.019 -0.5506  0.1776 -0.2470
  727MOL0     C98028   2.961   3.591   6.148 -0.3428 -0.1072 -0.7782
  727MOL0     C98029   2.843   3.615   6.207 -0.4037  0.3160 -0.6671
  727MOL0     C98030   2.835   3.682   6.345  0.0152 -0.3760 -0.1952
  727MOL0     C98031   2.689   3.701   6.388  0.0595  0.7745  0.1850
  727MOL0     C98032   2.691   3.758   6.529 -0.6087 -0.1700  0.2815
  727MOL0     C98033   2.573   3.791   6.598  0.6769  0.7793 -0.2810
  727MOL0     O98034   2.472   3.693   6.578  0.2039 -0.7344  0.1346
  727MOL0     C98035   2.355   3.728   6.643  0.5241  0.1308  0.1586
  727MOL0     C98036   2.313   3.648   6.758 -0.0623  0.3237 -0.2388
  727MOL0     C98037   2.186   3.661   6.814 -0.2941  0.7509  0.0690
  727MOL0     C98038   2.138   3.567   6.918  1.1007 -0.5682  0.1782
  727MOL0     C98039   2.092   3.758   6.759 -0.8266 -0.9733 -0.3305
  727MOL0     C98040   1.960   3.795   6.820 -0.1965  0.3280 -0.4576
  727MOL0     O98041   1.885   3.887   6.749 -0.3151 -0.3282 -0.0239
  727MOL0     C98042   1.758   3.917   6.786 -0.0891  0.0432 -0.0972
  727MOL0     C98043   1.660   3.828   6.841 -0.3946  0.3213  0.4875
  727MOL0     C98044   1.530   3.879   6.867 -0.2929  0.6213  0.1606
  727MOL0     C98045   1.490   4.002   6.829  0.5784 -0.4209  0.2989
  727MOL0     O98046   1.353   4.035   6.836  0.6617  0.6244 -0.1098
  727MOL0     C98047   1.253   3.955   6.913  0.4790  0.1278 -0.9077
  727MOL0     C98048   1.115   4.014   6.874  0.3825  0.3309 -0.1182
  727MOL0     C98049   1.005   3.989   6.982 -0.1733 -0.5705 -0.6381
  727MOL0     C98050   0.877   4.067   6.952 -0.1960  0.5938  0.2080
  727MOL0     C98051   0.770   4.061   7.066 -0.1498 -0.2744  0.1656
  727MOL0     C98052   0.705   3.923   7.069  0.2839  0.3113 -0.7599
  727MOL0     C98053   0.649   3.896   7.206  0.0975 -0.3379 -0.1364
  727MOL0     C98054   0.541   3.786   7.224 -0.0993  0.3313 -0.2659
  727MOL0    Cl98055   0.396   3.818   7.122  0.2136  0.2350 -0.0430
  727MOL0     C98056   1.592   4.076   6.768  0.1238 -0.6050  0.2975
  727MOL0     C98057   1.721   4.045   6.755  0.5265  0.4966  0.5467
  727MOL0     O98058   1.925   3.748   6.932 -0.2169  0.4557 -0.5996
  727MOL0     C98059   2.146   3.834   6.654 -0.8440  0.0029  0.1579
  727MOL0     C98060   2.267   3.814   6.591 -0.0879  0.1744  0.3846
  727MOL0     N98061   2.742   3.594   6.114 -0.0317 -0.0489 -0.1477
  727MOL0     N98062   2.799   3.568   6.000 -0.0984 -0.4056 -0.5761
  727MOL0     C98063   4.092   3.554   5.836  0.0117  0.1759  0.4775
  727MOL0     C98064   4.222   3.612   5.806  0.1474 -0.2624 -0.2639
  727MOL0     C98065   4.627   3.765   5.811 -0.9984 -0.2542 -0.0126
  727MOL0     C98066   4.745   3.729   5.882  0.0691  0.0728 -0.0291
  727MOL0     C98067   4.861   3.795   5.860 -0.5109  1.1251  0.1564
  727MOL0     C98068   4.872   3.907   5.773  0.0063 -0.3483 -0.2675
  727MOL0     O98069   4.977   3.989   5.747  0.6518 -0.3671  0.2465
  727MOL0     C98070   5.094   3.973   5.830  0.8594  0.1525  0.4169
  727MOL0     C98071   5.191   4.085   5.797 -0.7732  0.1804 -0.9628
  727MOL0     C98072   5.327   4.080   5.876 -0.0612  0.2897 -0.2492
  727MOL0     C98073   5.422   4.201   5.867 -0.2760  0.3362  0.6487
  727MOL0     C98074   5.460   4.240   5.731  0.8884 -0.4157 -0.8580
  727MOL0     C98075   5.494   4.283   5.625 -0.5060  0.6918 -1.0473
  727MOL0     C98076   4.748   3.952   5.721 -0.0735 -0.3004 -0.7220
  727MOL0     C98077   4.630   3.887   5.742  0.0639  0.3142  0.9016
  727MOL0     H98078   4.230   3.862   6.030  1.3040  0.3570 -1.6088
  727MOL0     H98079   4.013   3.755   6.103 -0.2394 -0.2907  0.3416
  727MOL0     H98080   3.791   3.663   5.833  3.1696  1.6627  1.4924
  727MOL0     H98081   3.811   3.479   5.809  0.1506  0.4601  0.3951
  727MOL0     H98082   3.664   3.434   5.987 -0.4917 -0.1036 -1.9659
  727MOL0     H98083   3.651   3.611   6.016  1.2911 -1.3626  0.8559
  727MOL0     H98084   3.553   3.656   5.795  2.0251  1.3026  0.8344
  727MOL0     H98085   3.576   3.489   5.748 -1.4252  1.3125 -1.3578
  727MOL0     H98086   3.424   3.398   5.904  1.0412 -0.6994 -2.0277
  727MOL0     H98087   3.382   3.567   5.961  3.7569  5.0461 -1.9032
  727MOL0     H98088   3.260   3.606   5.748 -1.7609 -1.2937 -1.1866
  727MOL0     H98089   3.358   3.488   5.661 -1.4594 -1.0705 -1.4485
  727MOL0     H98090   3.120   3.417   5.695  1.4296 -4.6558 -1.6796
  727MOL0     H98091   3.227   3.313   5.772 -0.4318 -0.2382  1.6506
  727MOL0     H98092   3.049   3.352   5.927  1.2955 -0.0221  0.7822
  727MOL0     H98093   3.176   3.447   5.999 -0.2303 -1.0202  0.1142
  727MOL0     H98094   2.973   3.565   5.809  0.5374  1.9686 -1.1245
  727MOL0     H98095   3.086   3.653   5.907  2.6333 -0.7766  0.4401
  727MOL0     H98096   3.056   3.609   6.198 -1.2301 -0.9016  1.3004
  727MOL0     H98097   2.884   3.616   6.416  2.3129  0.0269 -1.3170
  727MOL0     H98098   2.884   3.780   6.337 -0.5180 -0.2373 -2.5992
  727MOL0     H98099   2.649   3.600   6.394  2.7147 -0.7773 -3.7948
  727MOL0     H98100   2.625   3.760   6.321 -2.7641 -0.2962  1.7856
  727MOL0     H98101   2.749   3.851   6.534 -1.2834  0.2331  0.7240
  727MOL0     H98102   2.749   3.689   6.590  0.6198  0.8374  0.2952
  727MOL0     H98103   2.539   3.893   6.577 -3.5152 -0.2043  0.7723
  727MOL0     H98104   2.598   3.781   6.704  3.3752 -1.2749 -1.0033
  727MOL0     H98105   2.385   3.572   6.788  1.9227  2.7006  1.4083
  727MOL0     H98106   2.034   3.545   6.894 -0.0392  0.4428  3.5053
  727MOL0     H98107   2.198   3.475   6.919  2.2709  0.1714  0.2204
  727MOL0     H98108   2.122   3.618   7.014 -2.1588  0.3054 -0.7074
  727MOL0     H98109   1.694   3.726   6.856 -1.6673 -0.5620 -2.0722
  727MOL0     H98110   1.459   3.808   6.909 -1.5060  0.9922 -1.1984
  727MOL0     H98111   1.233   3.849   6.891 -2.4212  0.6059 -0.9707
  727MOL0     H98112   1.265   3.958   7.022  2.6071 -2.8979 -0.9195
  727MOL0     H98113   1.115   4.122   6.859  2.8468  1.0522  3.6754
  727MOL0     H98114   1.098   3.963   6.779  1.2936 -0.4394  0.1203
  727MOL0     H98115   1.040   4.005   7.085  0.1745  0.4671 -0.9076
  727MOL0     H98116   0.979   3.884   6.969  1.2593 -0.8484 -1.4745
  727MOL0     H98117   0.904   4.173   6.958 -2.4582  1.1674  1.3730
  727MOL0     H98118   0.836   4.054   6.851 -0.9305  2.7114  0.1755
  727MOL0     H98119   0.696   4.140   7.055  1.4718  1.0241 -2.6232
  727MOL0     H98120   0.825   4.085   7.158  1.0298  0.8673 -0.7997
  727MOL0     H98121   0.622   3.912   7.000 -1.5642 -2.1103  1.6107
  727MOL0     H98122   0.776   3.841   7.051 -0.9308 -0.7890 -0.6361
  727MOL0     H98123   0.611   3.989   7.249 -0.4963 -0.3422 -0.6389
  727MOL0     H98124   0.730   3.851   7.264 -0.6578  0.4592  1.6197
  727MOL0     H98125   0.516   3.788   7.330 -0.0755  0.1766 -0.2573
  727MOL0     H98126   0.597   3.694   7.204  0.4021  0.8065 -1.1262
  727MOL0     H98127   1.560   4.176   6.740 -2.2254 -1.0684  1.1200
  727MOL0     H98128   1.798   4.108   6.712  2.3976 -2.5695 -0.9251
  727MOL0     H98129   2.084   3.915   6.616  1.0047  2.2600  1.6874
  727MOL0     H98130   2.299   3.861   6.498  1.7925 -0.3661  0.7173
  727MOL0     H98131   4.052   3.479   5.769  1.4942 -0.5762  0.3976
  727MOL0     H98132   4.275   3.574   5.720 -0.0207 -1.2476  0.0618
  727MOL0     H98133   4.738   3.665   5.969 -0.1300  0.2151  0.0635
  727MOL0     H98134   4.944   3.757   5.918  1.6435  3.0080 -1.5284
  727MOL0     H98135   5.069   3.987   5.935 -0.8809  1.9153 -0.1817
  727MOL0     H98136   5.146   3.877   5.820  1.7310  0.6856 -0.3709
  727MOL0     H98137   5.138   4.179   5.815 -0.9184  0.2869 -1.8976
  727MOL0     H98138   5.215   4.077   5.691 -1.2756 -2.5684 -0.9190
  727MOL0     H98139   5.376   3.989   5.841  1.1326  0.0709  1.8402
  727MOL0     H98140   5.306   4.059   5.981  0.7177 -1.8428 -0.4704
  727MOL0     H98141   5.502   4.176   5.938 -0.5868  1.7184  1.5243
  727MOL0     H98142   5.387   4.298   5.904  0.4164  1.5229 -1.6490
  727MOL0     H98143   5.534   4.320   5.533  1.1021  1.8442  0.0647
  727MOL0     H98144   4.749   4.020   5.636 -0.5351  0.6807  0.0477
  727MOL0     H98145   4.537   3.930   5.706  1.1943  1.7748 -0.3584
  728MOL0     O98146  10.763   3.221   8.863  0.0516 -0.7072 -0.0004
  728MOL0     C98147  10.834   3.317   8.831 -0.0133  0.2485  0.1092
  728MOL0     O98148  10.791   3.415   8.736 -0.2457 -0.0265 -0.3485
  728MOL0     C98149  10.667   3.409   8.673  0.6274 -0.4526  0.1554
  728MOL0     C98150  10.659   3.457   8.542 -0.1099 -0.5301 -0.3461
  728MOL0     C98151  10.539   3.464   8.475 -0.0277  0.1379  0.4029
  728MOL0     C98152  10.424   3.409   8.532  0.8885  0.0564  0.2273
  728MOL0     O98153  10.303   3.388   8.461  0.1599 -0.1872 -0.6343
  728MOL0     C98154  10.260   3.255   8.423 -1.7001 -0.2649  0.7520
  728MOL0     C98155  10.146   3.213   8.502  0.6014  0.0964  0.2059
  728MOL0     C98156  10.019   3.297   8.477  1.0396 -0.2525  0.1241
  728MOL0     C98157   9.889   3.219   8.509 -0.5113 -0.4679 -1.0809
  728MOL0     C98158   9.757   3.289   8.447 -0.2510 -0.2455 -0.0218
  728MOL0     C98159   9.634   3.196   8.467 -0.0459 -0.2996 -0.1084
  728MOL0     C98160   9.508   3.253   8.405  1.3505 -0.0324  1.1264
  728MOL0     C98161   9.394   3.147   8.426  0.0754 -0.4872  0.1805
  728MOL0     N98162   9.360   3.146   8.564 -1.0086  0.2351 -0.1479
  728MOL0     C98163   9.370   3.032   8.638 -1.1386 -1.1018 -0.1113
  728MOL0     C98164   9.354   3.074   8.767 -0.2699 -0.3833  0.7439
  728MOL0     C98165   9.353   2.978   8.883  0.4614  0.2848 -0.0230
  728MOL0     C98166   9.219   2.917   8.883  0.3324  0.2680  0.2377
  728MOL0     C98167   9.193   2.824   9.001 -0.4163 -0.5375 -0.0742
  728MOL0     C98168   9.050   2.814   9.044 -0.3159  0.1050  0.1256
  728MOL0     O98169   8.999   2.732   8.939  0.0238  0.5873 -0.1215
  728MOL0     C98170   8.866   2.702   8.936 -0.2569 -0.9017 -0.7429
  728MOL0     C98171   8.767   2.795   8.958 -0.4077 -1.0104  0.0601
  728MOL0     C98172   8.632   2.775   8.933 -0.2653  0.6085 -0.0839
  728MOL0     C98173   8.534   2.891   8.961 -0.6534  0.9306 -0.2024
  728MOL0     C98174   8.593   2.648   8.897  0.7342  0.0691  0.9793
  728MOL0     C98175   8.450   2.622   8.866  0.8332  0.7465  0.4766
  728MOL0     O98176   8.375   2.724   8.822 -0.3212 -0.5532  0.5215
  728MOL0     C98177   8.247   2.696   8.784  0.4164 -0.5805  0.4643
  728MOL0     C98178   8.151   2.648   8.871  0.9908 -0.5103 -0.3962
  728MOL0     C98179   8.016   2.645   8.831  0.4762 -0.4713 -0.3901
  728MOL0     C98180   7.980   2.700   8.701 -0.3434  0.3396 -0.1480
  728MOL0     O98181   7.845   2.718   8.658  0.2051  0.0781  0.3743
  728MOL0     C98182   7.738   2.661   8.741 -0.6988  0.0008  0.8508
  728MOL0     C98183   7.610   2.726   8.676 -0.0492 -0.6261 -0.1619
  728MOL0     C98184   7.480   2.686   8.741 -0.3876  0.3262  0.5054
  728MOL0     C98185   7.468   2.759   8.874 -0.4244 -0.2300 -0.0370
  728MOL0     C98186   7.378   2.683   8.967  0.0583 -1.1677 -0.2188
  728MOL0     C98187   7.371   2.749   9.111  0.2183  0.0797 -0.2783
  728MOL0     C98188   7.321   2.887   9.107 -0.4632 -0.0090 -0.5297
  728MOL0     C98189   7.168   2.900   9.084 -0.4749  0.5093 -0.5850
  728MOL0    Cl98190   7.078   2.827   9.230  0.3017 -0.6604 -0.0592
  728MOL0     C98191   8.081   2.747   8.616  0.5782 -0.4151 -1.1733
  728MOL0     C98192   8.215   2.741   8.657  0.6185  0.8453 -0.6816
  728MOL0     O98193   8.404   2.509   8.884 -0.6889  0.5930 -0.3148
  728MOL0     C98194   8.688   2.549   8.887  0.2249 -0.4960  0.1462
  728MOL0     C98195   8.821   2.578   8.915  0.1901  0.5474 -0.2936
  728MOL0     N98196   9.315   3.210   8.761 -0.2322  0.0704  0.1154
  728MOL0     N98197   9.316   3.245   8.639  0.3614 -0.1143 -0.0113
  728MOL0     C98198  10.439   3.357   8.657 -0.0655  0.4276  0.6546
  728MOL0     C98199  10.553   3.349   8.729  0.1544  0.0958 -0.2674
  728MOL0     C98200  10.969   3.342   8.895 -0.1871  0.0606  0.3859
  728MOL0     C98201  11.029   3.261   8.988  0.1922  0.6681  0.1055
  728MOL0     C98202  11.148   3.298   9.050 -0.1829  0.0466 -0.6666
  728MOL0     C98203  11.221   3.406   9.000 -0.9537 -0.2782  0.4608
  728MOL0     O98204  11.341   3.450   9.047 -0.1524 -0.1245  0.0883
  728MOL0     C98205  11.383   3.423   9.184  0.5332 -1.5526 -0.8627
  728MOL0     C98206  11.481   3.312   9.192 -0.2854  1.8207  0.4899
  728MOL0     C98207  11.552   3.304   9.318 -0.4704  0.1645 -0.5605
  728MOL0     C98208  11.690   3.239   9.305  0.2437 -0.1552  0.1586
  728MOL0     C98209  11.701   3.099   9.271 -1.0244  0.7022 -0.5314
  728MOL0     C98210  11.738   2.985   9.229  1.1999  0.5125 -0.4563
  728MOL0     C98211  11.170   3.485   8.900  0.1353 -0.3992 -0.0992
  728MOL0     C98212  11.042   3.459   8.859 -0.2304  0.8513 -0.2676
  728MOL0     H98213  10.752   3.491   8.497  0.1577 -0.1307  0.4738
  728MOL0     H98214  10.533   3.505   8.374 -0.0937 -0.7503  0.0440
  728MOL0     H98215  10.237   3.253   8.317  1.2240 -0.9713  0.0366
  728MOL0     H98216  10.344   3.186   8.439 -0.8224  0.3128 -1.0667
  728MOL0     H98217  10.118   3.111   8.475  0.9071 -0.0461  0.4136
  728MOL0     H98218  10.164   3.205   8.610 -2.4271 -1.7100  0.6815
  728MOL0     H98219  10.024   3.394   8.528  0.9049  0.7571 -1.7078
  728MOL0     H98220  10.012   3.319   8.370 -0.8528  0.8110  0.4295
  728MOL0     H98221   9.898   3.119   8.465 -1.2609 -0.8920 -0.3025
  728MOL0     H98222   9.875   3.204   8.616  0.6714 -0.7544 -0.9501
  728MOL0     H98223   9.746   3.382   8.503 -0.8055 -0.2575 -0.1081
  728MOL0     H98224   9.769   3.304   8.340 -1.5426 -1.9744 -0.4653
  728MOL0     H98225   9.651   3.096   8.425 -2.1466 -0.8046  0.1391
  728MOL0     H98226   9.618   3.185   8.575  1.7029  1.5394  0.4013
  728MOL0     H98227   9.476   3.350   8.445  0.4514 -0.0735  0.5457
  728MOL0     H98228   9.524   3.254   8.297  1.9072 -2.7862  1.1152
  728MOL0     H98229   9.431   3.053   8.387 -0.9715 -0.8595  0.0423
  728MOL0     H98230   9.302   3.175   8.374 -0.1344 -2.5978 -0.6428
  728MOL0     H98231   9.396   2.933   8.601  0.5432 -0.9914  0.6818
  728MOL0     H98232   9.428   2.898   8.879 -2.2796 -2.5016  0.0359
  728MOL0     H98233   9.367   3.039   8.973  1.8210  2.3552 -1.5652
  728MOL0     H98234   9.182   2.863   8.796 -1.6028 -2.0488  2.3324
  728MOL0     H98235   9.151   3.003   8.890  1.9681  1.8885 -2.0569
  728MOL0     H98236   9.244   2.858   9.092 -1.1727 -1.6270  0.7888
  728MOL0     H98237   9.234   2.724   8.985 -0.8282 -0.7675  0.2842
  728MOL0     H98238   9.001   2.911   9.058  0.2762  0.5029 -0.4929
  728MOL0     H98239   9.037   2.766   9.141 -1.7130  2.7332  1.3492
  728MOL0     H98240   8.790   2.898   8.984 -2.2421 -1.2203  2.9805
  728MOL0     H98241   8.448   2.849   9.015 -1.9600  3.5108 -0.1533
  728MOL0     H98242   8.574   2.955   9.040  0.0209  1.2117 -0.7667
  728MOL0     H98243   8.498   2.941   8.871 -0.2736  0.3036 -0.7117
  728MOL0     H98244   8.183   2.611   8.968  3.1232 -0.7713 -1.1537
  728MOL0     H98245   7.949   2.592   8.898  0.3632  2.6332  2.2142
  728MOL0     H98246   7.731   2.554   8.720 -1.1971  0.0751  0.6420
  728MOL0     H98247   7.750   2.684   8.848  2.3129  2.3102  0.1654
  728MOL0     H98248   7.629   2.834   8.667 -2.9619 -0.1600 -2.0084
  728MOL0     H98249   7.608   2.706   8.569  2.3129 -4.2557  0.2983
  728MOL0     H98250   7.484   2.578   8.758  2.7037 -0.0361 -1.6371
  728MOL0     H98251   7.395   2.713   8.678 -0.7623  2.7297  1.8875
  728MOL0     H98252   7.565   2.771   8.922  0.3587  1.2194 -1.8566
  728MOL0     H98253   7.431   2.859   8.848 -0.6631 -0.2617  0.1696
  728MOL0     H98254   7.417   2.581   8.964  1.0348 -0.7972 -0.3446
  728MOL0     H98255   7.282   2.678   8.914  0.0564 -1.6853 -0.1761
  728MOL0     H98256   7.310   2.702   9.189 -2.1579  1.4895 -1.1532
  728MOL0     H98257   7.474   2.749   9.148  0.5382 -0.4611 -1.1489
  728MOL0     H98258   7.372   2.944   9.029 -1.5375 -0.6639 -1.7419
  728MOL0     H98259   7.339   2.938   9.202  1.3481  0.0832 -0.8879
  728MOL0     H98260   7.133   2.844   8.997  1.3496 -2.0531  0.2296
  728MOL0     H98261   7.144   3.006   9.076 -0.3982  0.6264  0.6415
  728MOL0     H98262   8.037   2.794   8.529 -0.5649  1.4067  0.2919
  728MOL0     H98263   8.295   2.778   8.594  0.5693  0.2546 -1.1092
  728MOL0     H98264   8.661   2.447   8.864 -1.6279 -0.7890  3.1079
  728MOL0     H98265   8.892   2.497   8.906  0.2171  0.2183  2.0887
  728MOL0     H98266  10.346   3.311   8.691 -0.3036 -1.9185 -2.6286
  728MOL0     H98267  10.542   3.303   8.827 -2.4326 -0.9780 -0.9817
  728MOL0     H98268  10.972   3.175   9.023 -3.0255  2.1532 -1.0055
  728MOL0     H98269  11.186   3.241   9.134 -1.4014 -0.6874 -0.5888
  728MOL0     H98270  11.429   3.515   9.222 -0.2909 -0.9250 -1.3628
  728MOL0     H98271  11.298   3.416   9.252  0.1749  0.3091 -1.0677
  728MOL0     H98272  11.547   3.320   9.105 -1.9616 -1.0314 -1.1986
  728MOL0     H98273  11.423   3.222   9.173  1.0317  1.5201 -2.8352
  728MOL0     H98274  11.493   3.263   9.399 -2.1403  3.4009  0.0421
  728MOL0     H98275  11.575   3.405   9.354  2.7473  0.3714 -2.7149
  728MOL0     H98276  11.730   3.249   9.406  1.9821 -1.3594 -0.3665
  728MOL0     H98277  11.744   3.302   9.233  0.4577  1.0382  1.3382
  728MOL0     H98278  11.762   2.888   9.189  0.3136 -0.5586  1.4460
  728MOL0     H98279  11.207   3.578   8.857 -1.5076 -0.2015 -1.1945
  728MOL0     H98280  10.997   3.536   8.797 -0.1035  3.0944  2.2609
  729MOL0     O98281   4.586   0.112  10.966  0.1365  0.0146  0.0538
  729MOL0     C98282   4.653   0.092  11.069 -0.5005  0.5885  0.9177
  729MOL0     O98283   4.635   0.162  11.184 -0.6227  0.3311 -0.6449
  729MOL0     C98284   4.558   0.278  11.192 -1.0444 -0.6373  0.1311
  729MOL0     C98285   4.624   0.406  11.213  0.0341  0.6670 -0.1140
  729MOL0     C98286   4.557   0.533  11.214  0.3630 -0.1824  0.5724
  729MOL0     C98287   4.414   0.535  11.193 -0.5186  0.6233  0.7831
  729MOL0     O98288   4.341   0.649  11.170  0.2313  0.5150 -0.5834
  729MOL0     C98289   4.372   0.756  11.261 -0.2169 -0.0297  0.0663
  729MOL0     C98290   4.275   0.870  11.231  0.3995 -0.5729  0.2772
  729MOL0     C98291   4.120   0.836  11.261 -1.8042  0.3852  0.4564
  729MOL0     C98292   4.043   0.967  11.227  0.9919  0.5846  0.3311
  729MOL0     C98293   3.893   0.945  11.251 -1.1002  0.3386 -0.8272
  729MOL0     C98294   3.820   1.080  11.269  0.6736  0.0647 -0.1584
  729MOL0     C98295   3.673   1.043  11.288 -0.7164  0.7660  0.1187
  729MOL0     C98296   3.579   1.155  11.319  0.4866 -0.2396 -0.2381
  729MOL0     N98297   3.444   1.097  11.327  0.0814 -0.1969  0.1486
  729MOL0     C98298   3.336   1.129  11.246  0.1890  0.3218 -0.6680
  729MOL0     C98299   3.234   1.070  11.318  0.5781 -0.2021 -0.0218
  729MOL0     C98300   3.085   1.070  11.281  0.0982 -0.2987  0.2254
  729MOL0     C98301   3.056   1.013  11.147  0.0208  0.1838  0.0481
  729MOL0     C98302   2.907   1.031  11.107  0.2020  0.5767 -0.1110
  729MOL0     C98303   2.854   0.979  10.970  0.1919  0.7236 -0.1903
  729MOL0     O98304   2.724   1.031  10.946 -0.1108  0.6761 -0.7985
  729MOL0     C98305   2.663   1.021  10.817 -0.2111 -0.0418 -0.1739
  729MOL0     C98306   2.528   1.040  10.818 -0.7319 -0.1932  0.5331
  729MOL0     C98307   2.455   1.045  10.705  0.6272 -0.4713 -0.2551
  729MOL0     C98308   2.302   1.069  10.717 -0.0769  0.3045  0.1006
  729MOL0     C98309   2.513   1.015  10.584  0.9133  0.2095  0.2918
  729MOL0     C98310   2.445   1.013  10.460 -0.4364  0.9587 -0.1027
  729MOL0     O98311   2.475   0.910  10.370 -0.3512 -0.2038  0.2870
  729MOL0     C98312   2.387   0.880  10.267  0.7134  0.2100 -0.6084
  729MOL0     C98313   2.431   0.778  10.181  0.5064  1.1164  0.0371
  729MOL0     C98314   2.346   0.716  10.084 -0.3584 -0.5384  0.2569
  729MOL0     C98315   2.222   0.775  10.065 -0.4622 -0.3160  0.2029
  729MOL0     O98316   2.151   0.728   9.953 -0.3302  0.4535 -0.4888
  729MOL0     C98317   2.012   0.701   9.959  0.0055 -0.5216  0.4071
  729MOL0     C98318   1.961   0.582   9.879 -1.1158  0.3054  0.9322
  729MOL0     C98319   2.017   0.451   9.931 -0.4667 -0.1532  0.1147
  729MOL0     C98320   2.136   0.401   9.849 -0.6097  0.9764 -0.6434
  729MOL0     C98321   2.169   0.262   9.915 -0.5386 -0.4153 -0.0491
  729MOL0     C98322   2.308   0.210   9.865  0.2559 -0.0775 -0.2069
  729MOL0     C98323   2.356   0.079   9.924  0.3099 -1.1204  0.2056
  729MOL0     C98324   2.248  -0.028   9.939  0.7842 -0.5071 -0.5151
  729MOL0    Cl98325   2.339  -0.191   9.954  0.2930 -0.2758  0.1072
  729MOL0     C98326   2.167   0.869  10.155 -0.7822 -0.3964 -0.6591
  729MOL0     C98327   2.247   0.920  10.256  0.0642 -0.2535  0.2182
  729MOL0     O98328   2.364   1.102  10.439 -0.1120  0.2113 -0.6657
  729MOL0     C98329   2.653   0.998  10.585  0.1291  0.1478  0.7342
  729MOL0     C98330   2.732   1.000  10.696  0.6460  0.3927  0.1120
  729MOL0     N98331   3.281   0.990  11.421  0.0226  0.5833  0.1630
  729MOL0     N98332   3.410   1.015  11.429  0.6346  0.1333 -0.4110
  729MOL0     C98333   4.351   0.411  11.163  0.2638  0.3637 -0.1976
  729MOL0     C98334   4.425   0.287  11.159 -0.0817 -0.8346  0.2949
  729MOL0     C98335   4.760  -0.004  11.055 -0.0675  0.3740 -1.1856
  729MOL0     C98336   4.848  -0.022  11.171  0.1812 -0.0181  0.4549
  729MOL0     C98337   4.961  -0.116  11.154  0.0263  0.6778  0.3972
  729MOL0     C98338   4.975  -0.193  11.040  0.4551  0.1890  0.0212
  729MOL0     O98339   5.075  -0.283  11.018 -0.4392 -0.3030  0.2479
  729MOL0     C98340   5.182  -0.226  10.954 -1.1638 -0.3101  0.1628
  729MOL0     C98341   5.311  -0.291  10.990 -0.3933  0.1912  0.2228
  729MOL0     C98342   5.319  -0.443  10.974  0.1358  0.0521  0.3533
  729MOL0     C98343   5.458  -0.497  10.987 -0.0180  0.0727 -0.1910
  729MOL0     C98344   5.451  -0.640  11.041  1.0728 -0.9764 -0.1586
  729MOL0     C98345   5.444  -0.752  11.093  0.1755  0.0429  0.1092
  729MOL0     C98346   4.889  -0.173  10.935  0.7127  0.0243  0.2709
  729MOL0     C98347   4.782  -0.079  10.940 -0.3007  0.1174 -0.3722
  729MOL0     H98348   4.731   0.395  11.226  0.1131 -0.5198 -1.4420
  729MOL0     H98349   4.602   0.631  11.204  3.1397 -1.5381 -1.8537
  729MOL0     H98350   4.360   0.727  11.366  3.2921 -1.4090  0.2420
  729MOL0     H98351   4.476   0.790  11.255  0.0423 -0.8987 -0.6293
  729MOL0     H98352   4.302   0.959  11.289  0.2036  0.0376 -0.5422
  729MOL0     H98353   4.275   0.894  11.124  1.8476 -1.6191  0.0282
  729MOL0     H98354   4.098   0.749  11.199  0.7016 -1.5480  2.1168
  729MOL0     H98355   4.103   0.806  11.365 -1.4201  0.8062  0.6460
  729MOL0     H98356   4.062   1.046  11.301  0.4523 -1.3800  2.7013
  729MOL0     H98357   4.056   1.012  11.128  0.2987  2.4412  1.0343
  729MOL0     H98358   3.853   0.877  11.176  0.8626  0.3066 -1.9173
  729MOL0     H98359   3.888   0.892  11.347 -0.8294  2.3651  0.3729
  729MOL0     H98360   3.867   1.138  11.349  2.0792  0.1035 -0.9814
  729MOL0     H98361   3.827   1.138  11.177  0.7400 -1.5694 -1.2215
  729MOL0     H98362   3.647   0.984  11.199  2.6578 -1.6121  0.4936
  729MOL0     H98363   3.669   0.970  11.369  1.7260 -0.3515 -0.6301
  729MOL0     H98364   3.586   1.228  11.238  0.2561  0.8658  0.7079
  729MOL0     H98365   3.600   1.198  11.418 -0.0608 -2.8091  1.0780
  729MOL0     H98366   3.332   1.200  11.164 -0.3529  0.8672 -0.1755
  729MOL0     H98367   3.037   1.007  11.357  1.2324 -0.1893  1.0533
  729MOL0     H98368   3.055   1.175  11.282 -1.4668 -0.6908 -1.0632
  729MOL0     H98369   3.068   0.905  11.157 -2.8502 -0.3870 -1.4119
  729MOL0     H98370   3.128   1.057  11.078  3.3083  0.7891  3.5452
  729MOL0     H98371   2.876   1.134  11.125  1.0744  1.4162 -2.9200
  729MOL0     H98372   2.847   0.974  11.180 -1.5977  1.7455 -0.5987
  729MOL0     H98373   2.833   0.872  10.965  1.1006  0.4940  0.7342
  729MOL0     H98374   2.931   1.004  10.896  0.9683  1.7505  0.9358
  729MOL0     H98375   2.487   1.040  10.918  1.4664 -3.6778  1.6248
  729MOL0     H98376   2.250   1.004  10.647 -0.3817 -0.3197  0.8818
  729MOL0     H98377   2.266   1.035  10.815 -0.6606 -0.8368 -0.4858
  729MOL0     H98378   2.273   1.174  10.701  2.3063  1.0128  0.0410
  729MOL0     H98379   2.530   0.736  10.197 -0.5962 -2.1876 -0.9016
  729MOL0     H98380   2.379   0.638  10.017  3.3369  1.5950 -0.6723
  729MOL0     H98381   1.989   0.684  10.065 -0.6528 -1.5412  0.1090
  729MOL0     H98382   1.957   0.789   9.924 -1.2121 -1.4366 -0.0303
  729MOL0     H98383   1.852   0.575   9.866 -0.7665 -3.0927 -1.6076
  729MOL0     H98384   1.994   0.593   9.776 -1.0440 -0.7547  0.8239
  729MOL0     H98385   1.937   0.377   9.931  0.5252 -1.4835 -3.7929
  729MOL0     H98386   2.043   0.459  10.037  2.0009 -1.0678 -0.3767
  729MOL0     H98387   2.102   0.387   9.746 -1.6284 -2.7489  0.0506
  729MOL0     H98388   2.223   0.465   9.867  1.0203 -1.1274 -0.5807
  729MOL0     H98389   2.088   0.193   9.889 -1.9938  0.4680  1.8469
  729MOL0     H98390   2.171   0.265  10.025  2.0231 -0.0804 -0.0464
  729MOL0     H98391   2.295   0.186   9.760 -4.1494 -1.8268  0.5315
  729MOL0     H98392   2.389   0.282   9.879  0.7261 -0.6246 -0.0566
  729MOL0     H98393   2.418   0.094  10.013  2.7643 -2.6417 -1.1347
  729MOL0     H98394   2.416   0.019   9.856 -0.4604 -2.4481  0.6604
  729MOL0     H98395   2.173  -0.019   9.860 -1.5811 -0.1829  1.6014
  729MOL0     H98396   2.200  -0.005  10.035  0.6543 -0.9734 -0.4648
  729MOL0     H98397   2.068   0.911  10.139 -0.4283  0.2546 -1.2011
  729MOL0     H98398   2.199   0.999  10.313 -2.3839 -2.8452  2.0297
  729MOL0     H98399   2.702   0.980  10.490  2.9588  0.7896  1.9894
  729MOL0     H98400   2.840   0.996  10.697  0.6444 -0.2791 -0.9191
  729MOL0     H98401   4.244   0.412  11.141  0.1352 -1.0664  0.3041
  729MOL0     H98402   4.368   0.204  11.119 -0.3458  0.3085 -1.8958
  729MOL0     H98403   4.836   0.027  11.267  0.4678 -1.4860  1.2708
  729MOL0     H98404   5.039  -0.126  11.228  1.8119 -1.3587 -1.6180
  729MOL0     H98405   5.160  -0.231  10.847  0.3141 -1.5455 -0.1227
  729MOL0     H98406   5.209  -0.124  10.984  3.9275 -1.9944  2.4645
  729MOL0     H98407   5.343  -0.261  11.090 -1.3401 -0.4404  0.7350
  729MOL0     H98408   5.384  -0.251  10.919 -1.4044 -0.2537 -1.1285
  729MOL0     H98409   5.278  -0.485  10.882 -0.6803  1.5326  0.0113
  729MOL0     H98410   5.246  -0.480  11.047  2.7605 -0.9118  2.6947
  729MOL0     H98411   5.516  -0.431  11.051  2.4804 -0.2602 -1.9445
  729MOL0     H98412   5.509  -0.494  10.890 -2.0006  1.8095 -1.2876
  729MOL0     H98413   5.445  -0.856  11.118  0.4568 -0.1864 -0.7922
  729MOL0     H98414   4.916  -0.225  10.843 -1.1080 -1.2114  0.3844
  729MOL0     H98415   4.729  -0.058  10.847 -0.4071  3.7913  0.3575
  730MOL0     O98416  10.701   5.438   3.543  0.2088  0.6206 -0.6309
  730MOL0     C98417  10.801   5.468   3.484 -0.4460  0.4773 -0.1684
  730MOL0     O98418  10.811   5.574   3.393  0.2261  0.2211  0.3607
  730MOL0     C98419  10.699   5.619   3.330 -0.4236 -0.1073 -0.6769
  730MOL0     C98420  10.659   5.752   3.359 -0.1602 -0.3287  1.1520
  730MOL0     C98421  10.542   5.797   3.299  0.1108 -0.2615 -0.2590
  730MOL0     C98422  10.470   5.715   3.211  0.0424 -0.8853  0.3225
  730MOL0     O98423  10.356   5.778   3.166 -0.6425 -0.4758  0.2613
  730MOL0     C98424  10.267   5.687   3.107 -0.4070  0.1976 -0.6688
  730MOL0     C98425  10.133   5.737   3.070  1.0458  0.2573  0.4625
  730MOL0     C98426  10.133   5.847   2.966  0.4247  0.4695 -0.1571
  730MOL0     C98427  10.002   5.853   2.885  0.2433  0.4347 -0.5576
  730MOL0     C98428   9.995   5.984   2.810  0.1006 -0.7286 -0.5885
  730MOL0     C98429   9.892   5.991   2.689 -0.3463 -0.3965 -0.1278
  730MOL0     C98430   9.745   6.007   2.730  0.2194  0.2869  0.9710
  730MOL0     C98431   9.646   5.986   2.604 -0.0751 -0.5240 -0.2860
  730MOL0     N98432   9.503   5.991   2.646 -0.0424 -0.4195  0.4383
  730MOL0     C98433   9.406   6.034   2.555 -0.1886  0.5824 -0.7407
  730MOL0     C98434   9.289   5.988   2.607  0.2703  0.3599 -0.1961
  730MOL0     C98435   9.157   6.006   2.538  0.1632 -0.3781  0.0908
  730MOL0     C98436   9.089   6.142   2.560 -0.1473  0.0475 -0.5410
  730MOL0     C98437   8.988   6.173   2.452  0.1024  0.1391  0.9456
  730MOL0     C98438   8.864   6.076   2.445 -0.4346 -0.1228  0.1925
  730MOL0     O98439   8.752   6.165   2.442  0.0400  0.2581 -0.8152
  730MOL0     C98440   8.625   6.122   2.394 -0.1317  0.2006 -0.1511
  730MOL0     C98441   8.541   6.213   2.333  0.6810 -1.5186 -1.0791
  730MOL0     C98442   8.426   6.178   2.264  0.2538  0.3106  0.0453
  730MOL0     C98443   8.355   6.280   2.184 -0.4069 -0.3204  0.9582
  730MOL0     C98444   8.386   6.040   2.270  0.4509 -0.4274  0.5769
  730MOL0     C98445   8.274   5.974   2.199 -0.5533 -0.5926  0.2990
  730MOL0     O98446   8.234   5.862   2.248  1.0501 -1.0470  0.0102
  730MOL0     C98447   8.116   5.793   2.217  0.4950 -0.5955  0.2510
  730MOL0     C98448   8.105   5.675   2.275 -1.2237  0.5382 -0.1226
  730MOL0     C98449   7.990   5.592   2.262  0.3707 -0.6221 -1.1280
  730MOL0     C98450   7.883   5.644   2.190  0.1527  0.0588  0.2227
  730MOL0     O98451   7.771   5.562   2.176  0.1147 -0.0459 -0.4388
  730MOL0     C98452   7.731   5.488   2.296 -0.0788  0.5514  0.1294
  730MOL0     C98453   7.577   5.476   2.307  0.2242 -0.0213  0.2752
  730MOL0     C98454   7.557   5.377   2.431  0.1134 -0.0819  0.5646
  730MOL0     C98455   7.415   5.384   2.493  0.1667  0.0460  0.8450
  730MOL0     C98456   7.391   5.272   2.591 -0.0292  0.0415  0.4466
  730MOL0     C98457   7.245   5.304   2.639 -0.3378  0.2767  0.3601
  730MOL0     C98458   7.207   5.197   2.745 -0.1282  0.2943 -0.3627
  730MOL0     C98459   7.082   5.239   2.823 -0.8435  0.1515  0.0836
  730MOL0    Cl98460   6.934   5.182   2.737 -0.2731  0.6639 -0.0006
  730MOL0     C98461   7.892   5.772   2.139  0.1410 -0.3109  0.5697
  730MOL0     C98462   8.011   5.853   2.157 -0.0512 -0.3397 -0.3366
  730MOL0     O98463   8.246   6.026   2.087  0.7552  0.4486  0.4645
  730MOL0     C98464   8.467   5.948   2.341 -1.2072 -0.6099  0.9169
  730MOL0     C98465   8.587   5.989   2.405  0.2191  0.3116  0.5748
  730MOL0     N98466   9.316   5.918   2.729 -0.1795 -0.8876 -0.0912
  730MOL0     N98467   9.439   5.930   2.754  0.1040 -0.1501 -0.3168
  730MOL0     C98468  10.507   5.581   3.185  0.2686 -1.1325  0.1145
  730MOL0     C98469  10.624   5.534   3.246  0.0273  0.3682 -0.3342
  730MOL0     C98470  10.930   5.413   3.534  0.0731  0.6784  0.9213
  730MOL0     C98471  11.046   5.423   3.458  0.2322  0.9904  0.0159
  730MOL0     C98472  11.158   5.354   3.501 -0.4804  0.0020 -0.2272
  730MOL0     C98473  11.173   5.303   3.633 -0.8630  0.2572  0.5085
  730MOL0     O98474  11.283   5.238   3.674  0.1610  0.0181 -0.4712
  730MOL0     C98475  11.368   5.334   3.736  0.4346  1.3444 -0.9014
  730MOL0     C98476  11.495   5.249   3.764  0.0770  0.2481 -0.0153
  730MOL0     C98477  11.609   5.348   3.806  0.3474  0.1620 -1.0843
  730MOL0     C98478  11.634   5.349   3.954 -0.4089  0.0969  0.5549
  730MOL0     C98479  11.525   5.396   4.038  0.2608  0.7644 -0.2099
  730MOL0     C98480  11.432   5.430   4.111 -0.0046  0.1688 -0.6784
  730MOL0     C98481  11.058   5.302   3.711 -0.4765 -0.2180  0.0948
  730MOL0     C98482  10.939   5.352   3.657  0.4439 -0.1056 -0.2579
  730MOL0     H98483  10.709   5.817   3.430  2.7426 -0.3543 -0.6825
  730MOL0     H98484  10.505   5.894   3.332 -0.8170 -0.4800 -0.6118
  730MOL0     H98485  10.313   5.643   3.018  0.2393 -1.5616  0.4813
  730MOL0     H98486  10.255   5.608   3.182  1.1463 -0.2013 -0.8087
  730MOL0     H98487  10.089   5.655   3.011  0.9431  0.2863  0.4993
  730MOL0     H98488  10.059   5.750   3.149  0.8191 -2.4175  0.7816
  730MOL0     H98489  10.161   5.942   3.014 -1.6804  1.4944 -0.8609
  730MOL0     H98490  10.211   5.824   2.892  1.4840  1.4842  0.6007
  730MOL0     H98491  10.000   5.770   2.814 -0.9997  2.3569 -2.9257
  730MOL0     H98492   9.914   5.846   2.950 -1.0651 -1.0064 -2.3938
  730MOL0     H98493   9.970   6.060   2.884  0.2883 -1.2528  0.0259
  730MOL0     H98494  10.094   6.011   2.772  0.3068 -0.8991 -0.1746
  730MOL0     H98495   9.929   6.076   2.631 -0.7163  0.1102  0.3536
  730MOL0     H98496   9.914   5.903   2.628  2.7755 -1.8769  2.8106
  730MOL0     H98497   9.715   5.922   2.792  0.7055 -2.0474 -1.7533
  730MOL0     H98498   9.723   6.102   2.779  1.4108  0.8646  0.4147
  730MOL0     H98499   9.661   5.891   2.552 -2.3297  0.1508 -2.3801
  730MOL0     H98500   9.661   6.072   2.538 -0.4745 -0.0760  0.1944
  730MOL0     H98501   9.427   6.085   2.462  2.0240 -1.6286 -1.5634
  730MOL0     H98502   9.162   5.983   2.431  0.5307  0.6110 -0.1107
  730MOL0     H98503   9.098   5.924   2.581 -0.1102  0.9948  2.5368
  730MOL0     H98504   9.160   6.225   2.562  0.8124 -0.6590 -2.9071
  730MOL0     H98505   9.039   6.135   2.657 -2.3950  0.7648 -1.5798
  730MOL0     H98506   9.036   6.196   2.356  1.5130 -0.6205  1.4336
  730MOL0     H98507   8.949   6.272   2.477 -0.9213 -0.1809  0.6672
  730MOL0     H98508   8.868   5.999   2.522  1.1531 -1.2881 -0.9898
  730MOL0     H98509   8.871   6.022   2.350 -2.9957  0.2151 -0.2533
  730MOL0     H98510   8.580   6.315   2.330 -1.5127 -0.3419  2.8761
  730MOL0     H98511   8.384   6.268   2.079 -0.5470 -2.6173  1.1215
  730MOL0     H98512   8.249   6.259   2.202 -0.8944  1.9955  1.0435
  730MOL0     H98513   8.379   6.384   2.207 -2.6637  0.8763 -1.4823
  730MOL0     H98514   8.193   5.637   2.328 -0.3325 -1.0951 -2.6106
  730MOL0     H98515   7.990   5.497   2.315  1.0804 -0.0276 -0.0145
  730MOL0     H98516   7.764   5.384   2.282 -2.6917 -0.3242 -0.2459
  730MOL0     H98517   7.778   5.524   2.388  2.0292  0.6359 -0.9227
  730MOL0     H98518   7.529   5.572   2.330  2.0411  0.6110  1.6571
  730MOL0     H98519   7.526   5.430   2.222 -0.5154  0.1546  0.6156
  730MOL0     H98520   7.623   5.398   2.516 -1.2006 -2.4186  2.2667
  730MOL0     H98521   7.585   5.277   2.397 -0.1327 -0.2180  0.7591
  730MOL0     H98522   7.397   5.484   2.532 -0.3989 -0.1672  1.1423
  730MOL0     H98523   7.342   5.370   2.413 -1.1760  1.0274  1.8562
  730MOL0     H98524   7.466   5.271   2.670 -1.0663 -1.5931  1.4737
  730MOL0     H98525   7.390   5.175   2.542 -1.7071  0.8335 -1.2247
  730MOL0     H98526   7.235   5.407   2.676 -0.7515 -0.5296  2.6501
  730MOL0     H98527   7.183   5.286   2.551  1.6037 -2.3450 -0.6166
  730MOL0     H98528   7.287   5.204   2.820 -1.2836 -1.9060  1.1899
  730MOL0     H98529   7.194   5.096   2.703 -0.4843 -1.3395  3.3104
  730MOL0     H98530   7.075   5.346   2.843 -1.6531  0.1366 -0.1132
  730MOL0     H98531   7.092   5.187   2.919  0.0017 -0.6731 -0.4250
  730MOL0     H98532   7.804   5.805   2.084 -0.5602  0.0436  1.8551
  730MOL0     H98533   8.027   5.946   2.103 -0.9735 -0.1132 -0.2321
  730MOL0     H98534   8.432   5.846   2.354 -3.4787  0.2498  2.2296
  730MOL0     H98535   8.653   5.922   2.460 -1.5818 -0.5052  1.8325
  730MOL0     H98536  10.458   5.518   3.110 -0.0512 -1.3193  0.4787
  730MOL0     H98537  10.660   5.439   3.205  0.6513  0.7173 -0.6074
  730MOL0     H98538  11.052   5.462   3.356  1.2713  0.0805 -0.2896
  730MOL0     H98539  11.246   5.346   3.439 -0.4664  0.8440 -0.3353
  730MOL0     H98540  11.400   5.414   3.668  1.3069  1.2107 -0.6485
  730MOL0     H98541  11.325   5.369   3.831  1.4085  2.4432 -0.8424
  730MOL0     H98542  11.530   5.206   3.670 -0.3651  1.7766 -0.9033
  730MOL0     H98543  11.476   5.169   3.837 -0.9057 -0.7347 -1.3000
  730MOL0     H98544  11.580   5.451   3.782 -3.4746  0.2631  2.7185
  730MOL0     H98545  11.704   5.323   3.758  0.0562 -0.7772 -1.2060
  730MOL0     H98546  11.715   5.422   3.964  1.0371 -1.5029  0.9390
  730MOL0     H98547  11.662   5.248   3.985  2.2593  1.0689  1.6638
  730MOL0     H98548  11.344   5.459   4.164  0.4145  0.4130 -0.1110
  730MOL0     H98549  11.055   5.261   3.811 -2.8350 -0.2305  0.0934
  730MOL0     H98550  10.857   5.343   3.727  0.6252 -0.3249 -0.0709
  731MOL0     O98551  11.144   3.014   1.449 -0.5354  0.6344  0.0055
  731MOL0     C98552  11.182   2.897   1.470 -0.1854  0.4702  0.0374
  731MOL0     O98553  11.142   2.785   1.408  0.2783 -0.1830 -0.0399
  731MOL0     C98554  11.073   2.799   1.284 -0.4082  0.7003 -0.9010
  731MOL0     C98555  11.136   2.834   1.158 -0.1931 -0.1098 -0.8760
  731MOL0     C98556  11.052   2.859   1.047  0.8624  0.4981  0.1238
  731MOL0     C98557  10.911   2.843   1.054 -0.1502 -0.1422  0.0110
  731MOL0     O98558  10.828   2.884   0.955 -0.0702  0.4623  0.1874
  731MOL0     C98559  10.875   2.993   0.874 -0.1821 -0.9587  0.1481
  731MOL0     C98560  10.761   3.054   0.800 -0.5000 -0.8563 -0.2230
  731MOL0     C98561  10.698   2.945   0.701 -0.0513 -0.2732 -0.1674
  731MOL0     C98562  10.558   2.990   0.652  0.0614  0.2320  0.0731
  731MOL0     C98563  10.520   2.914   0.527  0.7847 -0.2916  1.1990
  731MOL0     C98564  10.499   2.759   0.540  0.2575  1.2960  0.9509
  731MOL0     C98565  10.460   2.680   0.417 -0.2585 -0.0653  0.8205
  731MOL0     C98566  10.430   2.536   0.445 -0.2871 -0.1064  0.1815
  731MOL0     N98567  10.425   2.454   0.314 -0.9379 -0.3880  0.6948
  731MOL0     C98568  10.303   2.437   0.250 -0.0022 -0.0098 -0.3410
  731MOL0     C98569  10.339   2.392   0.131  0.6639 -0.5205  0.1449
  731MOL0     C98570  10.242   2.349   0.021 -0.3610 -0.3506  0.1501
  731MOL0     C98571  10.275   2.222  -0.046 -0.5080  0.3028 -0.0249
  731MOL0     C98572  10.273   2.097   0.043 -0.8188 -0.1831 -0.7753
  731MOL0     C98573  10.328   1.970  -0.021 -0.0421  0.2891  0.3113
  731MOL0     O98574  10.231   1.928  -0.122  0.1845  0.4609  0.2187
  731MOL0     C98575  10.162   1.803  -0.121  0.0457 -1.0842  0.0401
  731MOL0     C98576  10.152   1.725  -0.237 -0.1254  0.3635  0.9924
  731MOL0     C98577  10.081   1.611  -0.261  0.0072  0.1295  0.9761
  731MOL0     C98578  10.079   1.547  -0.400  1.0370 -0.2920 -0.2704
  731MOL0     C98579  10.015   1.564  -0.147 -0.0045 -0.1820  0.1856
  731MOL0     C98580   9.929   1.443  -0.152  1.0563  0.2316  0.3598
  731MOL0     O98581   9.881   1.387  -0.042 -0.7567 -0.0040 -0.3480
  731MOL0     C98582   9.803   1.277  -0.044  0.1969 -0.3225  0.5818
  731MOL0     C98583   9.823   1.178   0.051  0.1083  0.6773  0.9561
  731MOL0     C98584   9.744   1.065   0.060 -0.3436 -0.0621 -0.2611
  731MOL0     C98585   9.642   1.033  -0.039 -0.0761  0.8197 -0.0965
  731MOL0     O98586   9.546   0.929  -0.032  0.2052 -0.1108  0.2174
  731MOL0     C98587   9.591   0.812   0.038 -0.3602  0.2641  0.3808
  731MOL0     C98588   9.473   0.715   0.065  0.1764  0.6797 -0.5921
  731MOL0     C98589   9.435   0.641  -0.055 -0.5289 -0.1375 -0.0527
  731MOL0     C98590   9.375   0.503  -0.019 -0.3665  0.2636  0.5397
  731MOL0     C98591   9.290   0.430  -0.126  0.4977 -0.4344  0.1714
  731MOL0     C98592   9.165   0.512  -0.161 -0.0422  0.2354  0.4036
  731MOL0     C98593   9.064   0.425  -0.236 -0.5755 -0.8558  0.1969
  731MOL0     C98594   9.012   0.311  -0.150  0.1753  0.2818 -0.6723
  731MOL0    Cl98595   8.879   0.230  -0.234 -0.2218 -0.3009 -0.0648
  731MOL0     C98596   9.624   1.126  -0.134 -0.4436 -1.8220  1.3529
  731MOL0     C98597   9.707   1.245  -0.137 -0.6349  0.2829  0.4009
  731MOL0     O98598   9.921   1.387  -0.258  0.2545 -0.2751 -0.4555
  731MOL0     C98599  10.022   1.628  -0.022  0.0479  0.2851 -0.0442
  731MOL0     C98600  10.101   1.747  -0.006  0.7817 -0.3181  0.3952
  731MOL0     N98601  10.473   2.378   0.124  0.1584  0.3963  0.6410
  731MOL0     N98602  10.528   2.412   0.235  0.9514 -0.1586  0.1001
  731MOL0     C98603  10.857   2.798   1.178 -0.1090  0.2490 -0.3126
  731MOL0     C98604  10.940   2.770   1.293  0.1205 -0.0376 -0.1856
  731MOL0     C98605  11.280   2.876   1.590 -0.2761 -0.6432  0.6523
  731MOL0     C98606  11.324   2.745   1.618 -0.0192  0.2570 -0.5036
  731MOL0     C98607  11.404   2.713   1.719  0.7264 -0.4427 -1.1111
  731MOL0     C98608  11.467   2.813   1.798  0.9263 -1.1667  0.2508
  731MOL0     O98609  11.552   2.788   1.904  0.0604 -0.0355 -0.4005
  731MOL0     C98610  11.563   2.651   1.948 -0.1255 -0.1293 -0.2013
  731MOL0     C98611  11.659   2.657   2.072  0.0289  0.0750  0.4213
  731MOL0     C98612  11.674   2.528   2.154 -0.8630 -0.1980 -0.1331
  731MOL0     C98613  11.773   2.543   2.260 -0.2908 -0.2857 -0.8674
  731MOL0     C98614  11.800   2.414   2.333 -0.1097 -0.8336 -0.3066
  731MOL0     C98615  11.809   2.301   2.386 -0.0921 -0.7182 -0.4858
  731MOL0     C98616  11.432   2.948   1.763  0.3002 -0.4717 -0.0783
  731MOL0     C98617  11.340   2.984   1.666 -0.3013  0.1245  1.4947
  731MOL0     H98618  11.243   2.846   1.151  0.0884 -2.0948 -0.5323
  731MOL0     H98619  11.100   2.884   0.953  1.1097 -1.4606 -0.3012
  731MOL0     H98620  10.923   3.065   0.942  0.8410 -0.0176 -1.5135
  731MOL0     H98621  10.952   2.960   0.804  0.6594 -2.6610  1.7738
  731MOL0     H98622  10.696   3.102   0.874  1.6442 -1.2737  2.0598
  731MOL0     H98623  10.803   3.138   0.746  2.0167 -0.8588  1.5860
  731MOL0     H98624  10.771   2.938   0.621 -0.3061  0.6020 -0.4887
  731MOL0     H98625  10.691   2.848   0.751  2.3287  0.8994  2.7478
  731MOL0     H98626  10.479   2.971   0.726  1.7242  1.7123  2.3683
  731MOL0     H98627  10.548   3.096   0.627 -1.2849  0.5811  1.8394
  731MOL0     H98628  10.431   2.954   0.478 -0.1101  0.7885  3.5417
  731MOL0     H98629  10.610   2.932   0.468  1.2199 -1.4384  1.4841
  731MOL0     H98630  10.589   2.717   0.586  0.8023  0.3810 -0.8823
  731MOL0     H98631  10.418   2.741   0.612 -2.7016  4.2845 -1.3070
  731MOL0     H98632  10.374   2.733   0.374 -0.5046 -1.3794 -0.3813
  731MOL0     H98633  10.539   2.685   0.342 -1.0566  0.2134 -0.0176
  731MOL0     H98634  10.335   2.525   0.499 -0.0826  0.0076  0.5662
  731MOL0     H98635  10.511   2.494   0.505  0.6007  0.1038 -0.8548
  731MOL0     H98636  10.207   2.466   0.290  0.0162  0.5366 -0.6890
  731MOL0     H98637  10.136   2.351   0.051 -0.1563  0.8937  0.8791
  731MOL0     H98638  10.260   2.424  -0.056 -1.9260  1.2754  1.2808
  731MOL0     H98639  10.375   2.232  -0.090 -0.3434 -0.9985  0.0026
  731MOL0     H98640  10.199   2.206  -0.123 -0.4756 -3.5886  0.5178
  731MOL0     H98641  10.166   2.083   0.059 -0.7815 -1.4494 -1.4706
  731MOL0     H98642  10.326   2.126   0.134 -2.4419  2.1784 -0.4921
  731MOL0     H98643  10.341   1.889   0.052 -1.6784  0.0820  0.3938
  731MOL0     H98644  10.430   1.990  -0.055 -0.2153  2.4605  0.9195
  731MOL0     H98645  10.211   1.766  -0.318 -0.5313  1.3839  1.1952
  731MOL0     H98646   9.978   1.539  -0.440  0.4723  0.8476  0.8469
  731MOL0     H98647  10.135   1.606  -0.473  0.6538  1.4740  0.8150
  731MOL0     H98648  10.132   1.451  -0.399 -0.8060 -1.3843 -0.8849
  731MOL0     H98649   9.894   1.188   0.133  0.7289 -0.5511  0.5891
  731MOL0     H98650   9.749   1.014   0.156 -1.8526  1.5100  0.7219
  731MOL0     H98651   9.673   0.768  -0.020 -0.8635 -0.2294  0.0282
  731MOL0     H98652   9.632   0.834   0.137 -0.7432 -1.5718  0.9757
  731MOL0     H98653   9.504   0.656   0.152  1.1210  0.9054 -0.7620
  731MOL0     H98654   9.385   0.774   0.095  0.2190  1.3432 -1.7078
  731MOL0     H98655   9.521   0.617  -0.119 -0.9462 -0.8148 -0.3698
  731MOL0     H98656   9.361   0.703  -0.106 -1.5935 -0.0495  1.5205
  731MOL0     H98657   9.456   0.430  -0.015 -1.2285 -1.1138 -3.2663
  731MOL0     H98658   9.318   0.507   0.075 -0.0758  3.4376  0.6990
  731MOL0     H98659   9.277   0.328  -0.089  0.4852 -0.8406 -0.8999
  731MOL0     H98660   9.349   0.424  -0.218 -0.6843 -1.0598 -0.5775
  731MOL0     H98661   9.113   0.552  -0.074 -3.0867  0.5881 -1.4399
  731MOL0     H98662   9.186   0.597  -0.227  0.1600 -0.9422 -1.1247
  731MOL0     H98663   9.102   0.401  -0.336 -2.3838  0.3688 -0.8446
  731MOL0     H98664   8.994   0.501  -0.273  2.0926  1.4137 -0.6214
  731MOL0     H98665   8.978   0.345  -0.052  0.9758 -0.8695  0.0268
  731MOL0     H98666   9.094   0.240  -0.132  2.0488  2.7252  1.0482
  731MOL0     H98667   9.550   1.112  -0.212  0.3707  0.1474  0.1564
  731MOL0     H98668   9.690   1.307  -0.225 -0.1931  1.0910  0.8654
  731MOL0     H98669   9.974   1.591   0.068  1.7495  0.2169  0.8943
  731MOL0     H98670  10.107   1.811   0.082 -0.4775  1.0840 -0.4872
  731MOL0     H98671  10.748   2.800   1.177 -0.1968  3.5281  2.0166
  731MOL0     H98672  10.902   2.734   1.388 -3.2877 -0.2891 -1.4766
  731MOL0     H98673  11.293   2.661   1.556 -0.4947  0.5778 -0.7104
  731MOL0     H98674  11.422   2.607   1.731 -2.3619 -0.8535  1.0460
  731MOL0     H98675  11.470   2.601   1.974 -0.2870 -1.6422 -3.2256
  731MOL0     H98676  11.605   2.586   1.870  1.1427  0.7316 -0.2874
  731MOL0     H98677  11.624   2.733   2.142  1.5757 -0.9389  2.3955
  731MOL0     H98678  11.756   2.678   2.026  1.5274 -3.8171  1.4423
  731MOL0     H98679  11.700   2.439   2.096  1.1922 -0.6985  1.4340
  731MOL0     H98680  11.584   2.491   2.203 -1.0492  0.0424 -0.2919
  731MOL0     H98681  11.743   2.630   2.320 -1.5854  1.1946 -3.4852
  731MOL0     H98682  11.867   2.568   2.211  1.8675 -1.0234  2.5272
  731MOL0     H98683  11.801   2.213   2.447  1.7301  0.4166  1.5900
  731MOL0     H98684  11.484   3.022   1.823 -1.0174 -0.3514  0.9752
  731MOL0     H98685  11.324   3.090   1.647  2.0060  0.3291  0.2415
  732MOL0     O98686   2.484   3.459  10.292  0.2037  1.1025 -0.6412
  732MOL0     C98687   2.474   3.334  10.297  0.3358 -0.1024  0.5932
  732MOL0     O98688   2.354   3.266  10.316 -0.5795  0.3943 -1.1043
  732MOL0     C98689   2.229   3.321  10.335 -0.0747  0.2744 -0.7453
  732MOL0     C98690   2.123   3.233  10.351  0.7699  0.4360  0.9192
  732MOL0     C98691   1.993   3.270  10.380 -0.6653  0.4138  0.6071
  732MOL0     C98692   1.963   3.409  10.372 -0.2575 -0.9246 -0.0223
  732MOL0     O98693   1.826   3.440  10.373 -0.9293  0.0812 -0.1335
  732MOL0     C98694   1.797   3.579  10.402 -0.4498  0.2347  0.2960
  732MOL0     C98695   1.651   3.581  10.449 -0.5142 -0.7211 -0.5282
  732MOL0     C98696   1.606   3.718  10.482  0.4400 -0.8147 -0.7162
  732MOL0     C98697   1.457   3.735  10.455  0.4698  0.8552 -0.5268
  732MOL0     C98698   1.376   3.622  10.514  0.6898  0.0449 -0.5228
  732MOL0     C98699   1.233   3.652  10.534  0.0739 -0.5655  0.2979
  732MOL0     C98700   1.162   3.676  10.400 -0.0133  0.3516  0.7145
  732MOL0     C98701   1.005   3.666  10.410  0.2742 -0.3557  0.0868
  732MOL0     N98702   0.946   3.672  10.286  0.4620  0.1297 -0.1777
  732MOL0     C98703   0.957   3.771  10.191  0.2246  0.7581 -0.4763
  732MOL0     C98704   0.875   3.736  10.093  0.2997 -0.3683  0.6715
  732MOL0     C98705   0.847   3.812   9.960  0.6088 -0.0693 -0.0599
  732MOL0     C98706   0.709   3.860   9.947  0.4948  0.0575  0.0908
  732MOL0     C98707   0.596   3.757   9.953 -1.1802  0.9437  0.4542
  732MOL0     C98708   0.633   3.654   9.848  0.4101  0.2469  0.0381
  732MOL0     O98709   0.522   3.572   9.822 -0.1291 -0.3684 -0.2982
  732MOL0     C98710   0.439   3.613   9.723 -0.0434 -1.3810  0.0121
  732MOL0     C98711   0.332   3.526   9.702  0.4380 -0.0924  0.2152
  732MOL0     C98712   0.228   3.545   9.617 -0.1569  0.0276  0.1491
  732MOL0     C98713   0.122   3.446   9.616 -0.1735  0.7195 -0.0839
  732MOL0     C98714   0.223   3.674   9.546 -0.3074 -0.0254 -0.0704
  732MOL0     C98715   0.104   3.713   9.463 -0.7529 -0.3071  0.4299
  732MOL0     O98716  -0.017   3.654   9.488 -0.5869  1.2902  0.1251
  732MOL0     C98717  -0.132   3.705   9.421 -0.4237  0.2241 -0.2298
  732MOL0     C98718  -0.227   3.786   9.489 -0.8834  0.9699 -0.9539
  732MOL0     C98719  -0.345   3.820   9.435  0.3315  0.6943  0.6662
  732MOL0     C98720  -0.375   3.785   9.301 -0.3364 -0.1029 -0.1123
  732MOL0     O98721  -0.482   3.829   9.230  0.3188 -0.2190  0.1897
  732MOL0     C98722  -0.516   3.963   9.266 -0.7680  0.3177  0.2746
  732MOL0     C98723  -0.643   3.980   9.344  0.3730  1.0561 -0.1517
  732MOL0     C98724  -0.755   3.886   9.309  0.5947 -0.2124  0.4845
  732MOL0     C98725  -0.898   3.944   9.338 -0.6961 -0.9342  0.4011
  732MOL0     C98726  -0.998   3.838   9.305 -0.7576 -0.4348 -0.9183
  732MOL0     C98727  -1.137   3.896   9.258 -0.1408 -0.5662 -0.4605
  732MOL0     C98728  -1.232   3.793   9.208 -0.2041 -0.0391  0.5941
  732MOL0     C98729  -1.258   3.680   9.306 -0.0027 -0.0592  0.1053
  732MOL0    Cl98730  -1.403   3.596   9.246  0.2206  0.3189 -0.5550
  732MOL0     C98731  -0.285   3.700   9.230 -0.0374  0.4115 -0.2190
  732MOL0     C98732  -0.156   3.674   9.290 -0.5879 -0.3693  0.4251
  732MOL0     O98733   0.117   3.801   9.381 -0.0796 -0.1412 -0.1985
  732MOL0     C98734   0.340   3.760   9.563  1.0511  0.5157 -0.8201
  732MOL0     C98735   0.439   3.733   9.653 -0.1415 -0.3488  0.8236
  732MOL0     N98736   0.820   3.614  10.119  0.4321  0.4463  0.0375
  732MOL0     N98737   0.861   3.581  10.238  0.3584  0.6076  0.7494
  732MOL0     C98738   2.059   3.496  10.345 -0.5319 -0.2354  0.6824
  732MOL0     C98739   2.197   3.455  10.330  1.1357 -0.0982 -0.4130
  732MOL0     C98740   2.592   3.246  10.300 -0.5222 -0.0256  0.1374
  732MOL0     C98741   2.713   3.283  10.229  0.0444  0.3898 -0.1052
  732MOL0     C98742   2.829   3.203  10.226  0.3631  0.6105 -0.3529
  732MOL0     C98743   2.828   3.079  10.290  0.0333  0.5939  0.6060
  732MOL0     O98744   2.932   2.994  10.277 -0.1313 -0.3048  0.5055
  732MOL0     C98745   2.904   2.858  10.232 -0.0314  0.9630  0.9107
  732MOL0     C98746   2.916   2.837  10.079  0.6132 -0.2972  0.5101
  732MOL0     C98747   3.065   2.838  10.041  0.1863  0.2460  0.0178
  732MOL0     C98748   3.137   2.973  10.021  0.5402 -1.0133  0.6575
  732MOL0     C98749   3.078   3.034   9.897 -0.0628 -0.0079 -0.2228
  732MOL0     C98750   3.023   3.073   9.795  0.0090  0.0482  0.0514
  732MOL0     C98751   2.712   3.037  10.354 -0.2218 -0.5170  0.0738
  732MOL0     C98752   2.595   3.119  10.366  0.3950 -0.2804  0.2614
  732MOL0     H98753   2.139   3.125  10.354  1.7358  0.5865  1.8403
  732MOL0     H98754   1.919   3.192  10.395  0.8681 -1.0860  0.6978
  732MOL0     H98755   1.855   3.619  10.486  0.7036 -0.1169 -0.3072
  732MOL0     H98756   1.795   3.636  10.309 -1.3252 -0.3515 -0.0592
  732MOL0     H98757   1.587   3.541  10.369 -2.6016  3.5459 -1.2924
  732MOL0     H98758   1.649   3.524  10.542 -1.0641  0.8871  0.4705
  732MOL0     H98759   1.633   3.744  10.585  0.8124 -0.6829 -0.8449
  732MOL0     H98760   1.656   3.790  10.416 -3.0549 -0.2499 -2.9556
  732MOL0     H98761   1.435   3.828  10.509  1.7737 -0.4576  2.4931
  732MOL0     H98762   1.445   3.745  10.347 -0.3348  0.3508 -0.4905
  732MOL0     H98763   1.373   3.532  10.452  0.1069 -1.0493  1.0240
  732MOL0     H98764   1.422   3.581  10.605  1.5720  0.5058 -0.7421
  732MOL0     H98765   1.180   3.567  10.578  0.1134  0.8868  3.3811
  732MOL0     H98766   1.212   3.727  10.610 -1.3092 -1.1351  0.5187
  732MOL0     H98767   1.197   3.775  10.368  0.3130 -0.3837 -1.3807
  732MOL0     H98768   1.189   3.596  10.330 -4.1233 -0.9313  0.3257
  732MOL0     H98769   0.978   3.738  10.487  2.0951  0.0083  0.4348
  732MOL0     H98770   0.974   3.571  10.454  0.4191  0.2233  1.5053
  732MOL0     H98771   1.018   3.860  10.203 -0.5267  0.8874  4.7027
  732MOL0     H98772   0.913   3.899   9.955  1.8937 -0.9767  0.4083
  732MOL0     H98773   0.865   3.744   9.877 -2.8154 -1.7279  0.3948
  732MOL0     H98774   0.694   3.916   9.855 -1.6718  0.6165  0.7310
  732MOL0     H98775   0.688   3.929  10.029 -1.8217  0.9585 -1.1958
  732MOL0     H98776   0.499   3.801   9.927 -1.0241  0.9371 -0.1599
  732MOL0     H98777   0.574   3.704  10.045  0.1149 -0.8382 -0.2176
  732MOL0     H98778   0.711   3.591   9.891  0.8437  0.6954 -0.0809
  732MOL0     H98779   0.688   3.699   9.765 -0.6851  1.9032  0.1658
  732MOL0     H98780   0.339   3.441   9.769 -0.1144  1.0687  1.8239
  732MOL0     H98781   0.165   3.357   9.662 -2.1193 -0.0807  0.2617
  732MOL0     H98782   0.042   3.477   9.683  1.7497  2.6350  1.4507
  732MOL0     H98783   0.082   3.429   9.515  1.0590 -0.4914 -0.4123
  732MOL0     H98784  -0.205   3.819   9.590 -1.3781 -0.5574 -0.3116
  732MOL0     H98785  -0.409   3.889   9.490 -0.6419  1.0594 -0.8777
  732MOL0     H98786  -0.438   4.011   9.326 -0.6285 -2.1886  2.2553
  732MOL0     H98787  -0.511   4.009   9.167  1.4026 -2.3820 -1.0173
  732MOL0     H98788  -0.625   3.959   9.450 -0.0772 -1.2554 -0.4818
  732MOL0     H98789  -0.672   4.085   9.333  0.9076  1.4800  1.9924
  732MOL0     H98790  -0.726   3.790   9.353  1.3949 -1.0819 -1.7691
  732MOL0     H98791  -0.755   3.865   9.201 -3.2867 -2.3865  0.7157
  732MOL0     H98792  -0.899   3.973   9.443  1.6243 -2.7316  1.0067
  732MOL0     H98793  -0.909   4.033   9.275  1.2722  2.2667  4.1292
  732MOL0     H98794  -1.014   3.775   9.393  1.8588  0.2742  0.1481
  732MOL0     H98795  -0.958   3.774   9.226 -2.7896 -0.7579 -1.7432
  732MOL0     H98796  -1.183   3.962   9.332  2.1015  0.4351  0.1512
  732MOL0     H98797  -1.124   3.965   9.174  3.5565  0.9153  1.0749
  732MOL0     H98798  -1.188   3.740   9.122 -0.3205  1.8312 -0.6821
  732MOL0     H98799  -1.324   3.843   9.178  0.6370  1.0805 -0.1894
  732MOL0     H98800  -1.288   3.720   9.404 -0.2994  0.7245 -0.2978
  732MOL0     H98801  -1.170   3.616   9.313  1.0641  1.1567 -1.4642
  732MOL0     H98802  -0.310   3.653   9.135  0.8302 -3.5829  1.3300
  732MOL0     H98803  -0.079   3.617   9.241  0.3491  0.3090  1.0834
  732MOL0     H98804   0.366   3.851   9.510  0.4681  2.8699  2.6273
  732MOL0     H98805   0.508   3.816   9.666 -0.8764  0.8337 -2.0953
  732MOL0     H98806   2.044   3.603  10.343  2.4507  0.2788  0.9421
  732MOL0     H98807   2.275   3.530  10.315  1.9544 -0.7224  0.5934
  732MOL0     H98808   2.719   3.373  10.170 -1.9685  0.1625 -0.7611
  732MOL0     H98809   2.914   3.226  10.163 -0.4159  0.0260 -1.6514
  732MOL0     H98810   2.979   2.792  10.277 -1.2844 -1.4125 -0.3103
  732MOL0     H98811   2.808   2.820  10.265 -1.5486  1.8980 -2.0705
  732MOL0     H98812   2.868   2.916  10.020 -1.0644 -0.1361  1.9911
  732MOL0     H98813   2.876   2.744  10.039  3.1640  0.4021 -4.3865
  732MOL0     H98814   3.072   2.786   9.945 -1.8281  1.5149 -0.8833
  732MOL0     H98815   3.128   2.785  10.113 -0.2196  0.0314  0.2184
  732MOL0     H98816   3.244   2.958  10.004  0.7011  1.1439 -0.5035
  732MOL0     H98817   3.120   3.045  10.101 -0.8205  1.0599 -1.4024
  732MOL0     H98818   2.975   3.109   9.706  1.5794 -0.7094 -1.1556
  732MOL0     H98819   2.712   2.944  10.408 -0.7592 -0.1684  0.6876
  732MOL0     H98820   2.513   3.084  10.428  0.6172  0.9148  1.2843
  733MOL0     O98821  10.356   4.550   5.224 -0.6669 -0.3946  0.1858
  733MOL0     C98822  10.392   4.437   5.257  0.4738  0.0931  0.3153
  733MOL0     O98823  10.322   4.320   5.235  0.2436  0.5240  0.4723
  733MOL0     C98824  10.190   4.301   5.200 -0.3448  0.0239 -0.0023
  733MOL0     C98825  10.095   4.402   5.184 -0.5825  0.3019  0.7668
  733MOL0     C98826   9.972   4.374   5.123  0.5426 -0.0593  0.3004
  733MOL0     C98827   9.937   4.245   5.083  0.3694 -0.4221  0.4078
  733MOL0     O98828   9.808   4.240   5.033 -0.4308  0.4311  0.1463
  733MOL0     C98829   9.743   4.116   5.006  0.0835  0.0765 -0.6739
  733MOL0     C98830   9.599   4.148   4.965  1.4047 -0.5568  0.4411
  733MOL0     C98831   9.583   4.213   4.829  0.0648  0.1173  0.4914
  733MOL0     C98832   9.440   4.259   4.789 -0.3349  0.3141 -0.2427
  733MOL0     C98833   9.356   4.138   4.773 -0.0612 -0.0887  0.2238
  733MOL0     C98834   9.223   4.171   4.702  0.2349 -0.7359 -0.3900
  733MOL0     C98835   9.124   4.060   4.666 -0.3297 -0.2697  0.3694
  733MOL0     C98836   8.982   4.100   4.666  0.7356  0.2167 -0.2437
  733MOL0     N98837   8.959   4.213   4.577  0.0303  0.3286 -0.6035
  733MOL0     C98838   8.911   4.339   4.608  0.5018  0.6941 -0.8072
  733MOL0     C98839   8.922   4.413   4.495  0.0337  0.1390  0.2702
  733MOL0     C98840   8.932   4.558   4.478 -0.2689 -0.1800  0.0600
  733MOL0     C98841   8.797   4.599   4.416 -0.3750 -0.3679 -0.8857
  733MOL0     C98842   8.773   4.537   4.273 -0.8663 -0.0419 -0.8591
  733MOL0     C98843   8.632   4.571   4.225 -0.9466 -0.0944  0.0074
  733MOL0     O98844   8.620   4.519   4.097  0.0691 -0.1218  0.4194
  733MOL0     C98845   8.508   4.516   4.018  0.3565 -0.7173 -1.0354
  733MOL0     C98846   8.390   4.560   4.070  0.1507 -0.0206 -0.5570
  733MOL0     C98847   8.273   4.554   3.988  0.0771 -0.3591 -0.8061
  733MOL0     C98848   8.151   4.634   4.033  0.5649  0.4129 -0.4385
  733MOL0     C98849   8.278   4.484   3.857 -0.1851 -0.3060 -0.7040
  733MOL0     C98850   8.165   4.447   3.766  0.3223 -0.6156  0.4230
  733MOL0     O98851   8.187   4.339   3.679  0.0475 -0.1411 -0.1444
  733MOL0     C98852   8.106   4.316   3.574 -0.1910 -0.1931  0.1757
  733MOL0     C98853   8.090   4.186   3.541 -0.1149  0.4634  0.8186
  733MOL0     C98854   7.991   4.139   3.449  0.4690  0.2669 -0.0030
  733MOL0     C98855   7.917   4.232   3.376  0.7286  0.2277 -0.3131
  733MOL0     O98856   7.819   4.180   3.298  0.3052 -0.1970  0.2060
  733MOL0     C98857   7.768   4.258   3.190 -0.6483 -0.3489  0.1612
  733MOL0     C98858   7.673   4.178   3.099 -0.4751  0.1764  0.3084
  733MOL0     C98859   7.722   4.028   3.080 -0.8170 -0.0965 -0.0989
  733MOL0     C98860   7.857   4.027   3.000 -0.0117 -0.6825 -1.0328
  733MOL0     C98861   7.843   4.089   2.857 -0.3710  0.6632 -0.4627
  733MOL0     C98862   7.944   4.037   2.758 -0.1412 -0.1783 -0.2259
  733MOL0     C98863   8.090   4.075   2.800  0.4942  0.2228 -0.6784
  733MOL0     C98864   8.185   4.084   2.680 -0.5333 -0.3840 -0.6150
  733MOL0    Cl98865   8.366   4.114   2.726  0.1184  0.4301 -0.3076
  733MOL0     C98866   7.949   4.374   3.392 -0.3053  0.0885  0.3715
  733MOL0     C98867   8.047   4.415   3.492  1.1712  0.4561 -0.2504
  733MOL0     O98868   8.059   4.512   3.774  0.3284  0.1435  0.2897
  733MOL0     C98869   8.404   4.452   3.808  0.7369 -0.7324  0.1366
  733MOL0     C98870   8.522   4.458   3.889 -0.1626 -0.6628  0.7393
  733MOL0     N98871   8.952   4.322   4.391  0.8299  0.5041 -1.0269
  733MOL0     N98872   8.973   4.207   4.439 -0.4485  0.0039 -0.4457
  733MOL0     C98873  10.017   4.138   5.133  0.9716 -0.6446 -0.4707
  733MOL0     C98874  10.145   4.165   5.180 -0.4011 -0.3511  0.0295
  733MOL0     C98875  10.520   4.422   5.315  0.2242  0.0019 -1.1827
  733MOL0     C98876  10.594   4.297   5.320  1.2383 -0.2033 -0.8422
  733MOL0     C98877  10.728   4.293   5.368  0.6766 -0.1751 -0.3641
  733MOL0     C98878  10.789   4.408   5.416 -0.6844  0.1593  0.9641
  733MOL0     O98879  10.915   4.391   5.472 -0.0225  0.3894  0.2063
  733MOL0     C98880  11.001   4.505   5.483 -0.5161 -0.2435 -0.0896
  733MOL0     C98881  11.046   4.558   5.344 -0.6959 -0.2924 -0.0716
  733MOL0     C98882  11.148   4.458   5.297  0.0821  0.4483  0.0825
  733MOL0     C98883  11.210   4.495   5.162 -0.6214 -0.6818 -0.0478
  733MOL0     C98884  11.342   4.425   5.146  0.1076 -0.4196 -0.3421
  733MOL0     C98885  11.448   4.361   5.156 -0.1919  0.3459  0.1715
  733MOL0     C98886  10.712   4.532   5.421 -0.9678 -0.4334 -0.3058
  733MOL0     C98887  10.586   4.541   5.367  0.1614  0.7140  0.4187
  733MOL0     H98888  10.115   4.506   5.205  1.6615 -0.0594  0.6999
  733MOL0     H98889   9.891   4.446   5.121 -0.3003 -0.9583  1.0226
  733MOL0     H98890   9.789   4.061   4.923  0.8628 -0.6216  0.1947
  733MOL0     H98891   9.729   4.052   5.093 -2.1257 -0.5678 -1.4370
  733MOL0     H98892   9.535   4.059   4.967  1.5068 -0.7803  4.8205
  733MOL0     H98893   9.556   4.218   5.038 -0.7604 -1.4405  0.0942
  733MOL0     H98894   9.662   4.288   4.818  0.2511 -0.4146 -4.0920
  733MOL0     H98895   9.606   4.147   4.744  0.2315 -2.2297  2.2343
  733MOL0     H98896   9.394   4.325   4.863 -0.0336  0.6561 -0.3574
  733MOL0     H98897   9.441   4.306   4.690  2.1442 -1.4760 -1.1821
  733MOL0     H98898   9.404   4.054   4.721 -2.1820 -0.4151 -1.3690
  733MOL0     H98899   9.326   4.093   4.869  1.3337 -1.3341  0.1003
  733MOL0     H98900   9.168   4.233   4.774 -0.2743 -0.9469 -0.5920
  733MOL0     H98901   9.243   4.221   4.606  0.4176 -1.8319 -0.9381
  733MOL0     H98902   9.152   4.012   4.572 -0.9187  0.2338 -0.0730
  733MOL0     H98903   9.134   3.987   4.747 -1.5395  1.1751  1.9001
  733MOL0     H98904   8.950   4.123   4.768  1.3576  1.8987 -0.4094
  733MOL0     H98905   8.914   4.022   4.630 -0.6097  1.0517  0.4218
  733MOL0     H98906   8.882   4.366   4.709 -1.8205  1.2754 -1.5764
  733MOL0     H98907   8.942   4.617   4.569 -0.5580 -2.3983  1.6039
  733MOL0     H98908   9.020   4.580   4.416  0.0064 -0.3352  0.3969
  733MOL0     H98909   8.787   4.708   4.413 -0.0985 -0.2771  0.7535
  733MOL0     H98910   8.713   4.568   4.480  1.1649 -0.3407  1.2552
  733MOL0     H98911   8.785   4.429   4.270  0.9645  0.0752  0.2922
  733MOL0     H98912   8.852   4.577   4.208  0.4201 -0.4752  0.3916
  733MOL0     H98913   8.626   4.680   4.229  0.5277  0.0905 -1.3746
  733MOL0     H98914   8.558   4.531   4.294 -1.4781  0.0325 -0.4821
  733MOL0     H98915   8.393   4.616   4.163  0.6641 -0.8922 -0.0349
  733MOL0     H98916   8.152   4.711   4.111  0.9370 -1.2078  1.2450
  733MOL0     H98917   8.119   4.687   3.944  1.5471  1.7771 -0.0031
  733MOL0     H98918   8.077   4.562   4.070 -0.2818  1.0985 -0.7715
  733MOL0     H98919   8.147   4.106   3.588 -0.9686  0.3146  1.6151
  733MOL0     H98920   7.963   4.035   3.436 -0.9407  0.5615  0.4712
  733MOL0     H98921   7.707   4.343   3.225  0.6761  0.3933  0.7550
  733MOL0     H98922   7.859   4.291   3.138 -0.9674 -0.3173 -0.3815
  733MOL0     H98923   7.580   4.174   3.156 -0.1197 -0.0728  0.8779
  733MOL0     H98924   7.667   4.232   3.004  0.7604  0.4557  0.3770
  733MOL0     H98925   7.648   3.968   3.027  0.5065  3.0196 -6.4303
  733MOL0     H98926   7.735   3.984   3.179 -1.5889  1.7853  0.8912
  733MOL0     H98927   7.943   4.068   3.055 -0.1502 -3.3927  1.4975
  733MOL0     H98928   7.888   3.922   2.992  0.0340 -0.9680  1.9455
  733MOL0     H98929   7.857   4.197   2.866 -0.0262  0.7435 -1.7723
  733MOL0     H98930   7.743   4.062   2.821  0.0365 -1.9549  0.1746
  733MOL0     H98931   7.937   3.928   2.754 -3.8477 -0.1357  1.0042
  733MOL0     H98932   7.924   4.080   2.659  0.6379 -1.1138 -0.8021
  733MOL0     H98933   8.134   3.992   2.856  3.2836 -0.5948 -3.7640
  733MOL0     H98934   8.092   4.168   2.857  0.9284 -0.8004  1.0460
  733MOL0     H98935   8.158   4.173   2.621  1.5113 -0.5895 -1.9616
  733MOL0     H98936   8.189   3.989   2.627  2.1987 -1.7157  1.7041
  733MOL0     H98937   7.900   4.439   3.321  1.5383 -0.6154 -1.6601
  733MOL0     H98938   8.068   4.519   3.514  0.1660  0.8322 -0.9756
  733MOL0     H98939   8.420   4.407   3.711 -1.4542  1.1996 -1.2052
  733MOL0     H98940   8.623   4.428   3.862  0.7527  1.3050  1.8031
  733MOL0     H98941   9.975   4.038   5.122  1.5028 -0.8158 -0.9758
  733MOL0     H98942  10.225   4.094   5.199 -0.0445  0.6424  2.6297
  733MOL0     H98943  10.543   4.212   5.277 -1.2902  0.5798  0.4000
  733MOL0     H98944  10.783   4.199   5.370 -0.3393 -0.8141 -1.1003
  733MOL0     H98945  10.951   4.580   5.544  0.7889 -0.8438  1.8093
  733MOL0     H98946  11.090   4.483   5.542 -0.0535  3.2541  0.7467
  733MOL0     H98947  11.092   4.657   5.341  3.4104 -1.9908 -1.5902
  733MOL0     H98948  10.957   4.570   5.281 -0.1107 -0.0368 -0.8657
  733MOL0     H98949  11.109   4.357   5.279  0.4895  0.4067 -0.5910
  733MOL0     H98950  11.226   4.453   5.374  0.5384  1.4314 -0.2943
  733MOL0     H98951  11.239   4.601   5.168 -1.5392 -0.4673  1.1619
  733MOL0     H98952  11.145   4.468   5.078  0.1580  0.3654 -1.0315
  733MOL0     H98953  11.534   4.297   5.166 -1.4151 -1.2705  0.7326
  733MOL0     H98954  10.753   4.619   5.471  1.3179  1.5196 -4.9887
  733MOL0     H98955  10.533   4.635   5.366 -1.6655 -0.2761 -0.7242
  734MOL0     O98956   2.795   4.303   4.050 -0.5071  0.3078 -0.6355
  734MOL0     C98957   2.811   4.421   4.027 -0.4203  0.4129 -0.9105
  734MOL0     O98958   2.717   4.515   4.022 -0.1220 -0.6841  0.4786
  734MOL0     C98959   2.591   4.461   4.041  0.3015  0.8502 -0.4060
  734MOL0     C98960   2.536   4.479   4.168 -0.0770  1.0028  0.0567
  734MOL0     C98961   2.398   4.457   4.187 -0.6116 -0.6887  0.5407
  734MOL0     C98962   2.319   4.418   4.078 -0.1348  0.2442 -0.4149
  734MOL0     O98963   2.181   4.411   4.082  0.3669 -0.6462 -0.2867
  734MOL0     C98964   2.119   4.449   4.211 -0.3515  0.1680  0.3431
  734MOL0     C98965   1.970   4.443   4.192 -0.2322 -0.1668 -0.3154
  734MOL0     C98966   1.906   4.457   4.331  0.3931  0.3174 -0.6768
  734MOL0     C98967   1.754   4.453   4.318  0.6021 -0.0986 -0.0253
  734MOL0     C98968   1.694   4.412   4.451 -0.0135 -0.4787  0.6500
  734MOL0     C98969   1.537   4.413   4.457  0.0825  0.2570 -0.9442
  734MOL0     C98970   1.476   4.318   4.569 -0.2497  0.4603  0.8811
  734MOL0     C98971   1.469   4.390   4.701  0.2989 -0.2038 -0.7347
  734MOL0     N98972   1.408   4.300   4.806  0.0107  0.2881 -0.3438
  734MOL0     C98973   1.280   4.316   4.855 -0.2762  0.5410  0.0631
  734MOL0     C98974   1.260   4.207   4.924 -0.4223 -0.0246 -0.0450
  734MOL0     C98975   1.135   4.179   5.001 -0.9447 -0.2684  0.6121
  734MOL0     C98976   1.025   4.123   4.918  1.1347  0.1759  0.6957
  734MOL0     C98977   0.934   4.021   5.000 -0.8106  0.0585  0.4939
  734MOL0     C98978   0.815   3.983   4.910 -0.0008  0.1941 -0.5926
  734MOL0     O98979   0.725   4.088   4.867  0.1968 -0.2725 -0.2396
  734MOL0     C98980   0.622   4.049   4.788 -0.8574  0.0020 -0.0256
  734MOL0     C98981   0.610   3.926   4.724 -0.3359 -0.7836 -0.0894
  734MOL0     C98982   0.492   3.895   4.659 -0.2883 -0.6001  0.9002
  734MOL0     C98983   0.500   3.756   4.599  0.2078  0.7199  0.1017
  734MOL0     C98984   0.383   3.991   4.639 -0.2729  0.0826 -0.7994
  734MOL0     C98985   0.269   3.974   4.543 -0.7408 -0.2201  0.7926
  734MOL0     O98986   0.238   3.842   4.508 -0.0982  0.7498  0.5709
  734MOL0     C98987   0.130   3.816   4.430  0.7341 -0.4463  0.6892
  734MOL0     C98988   0.145   3.811   4.288  0.4423  0.3999 -0.2906
  734MOL0     C98989   0.034   3.762   4.216  0.0210  0.1593  0.2437
  734MOL0     C98990  -0.086   3.720   4.270  0.2956  0.6360  0.1424
  734MOL0     O98991  -0.180   3.655   4.185 -0.5615  0.5956 -0.0273
  734MOL0     C98992  -0.301   3.598   4.238  0.3324  0.0632 -0.8093
  734MOL0     C98993  -0.357   3.487   4.144  0.6979  0.5325 -0.0153
  734MOL0     C98994  -0.506   3.450   4.184  0.3612 -0.5247 -0.0768
  734MOL0     C98995  -0.510   3.311   4.248 -0.0553  0.0874 -0.3361
  734MOL0     C98996  -0.658   3.275   4.275 -0.2638  0.0971  0.0033
  734MOL0     C98997  -0.651   3.152   4.377 -0.5387 -0.2852  0.3019
  734MOL0     C98998  -0.792   3.106   4.398  0.6742  0.2678  0.6679
  734MOL0     C98999  -0.807   2.998   4.505  0.4387  0.1029 -0.0093
  734MOL0    Cl99000  -0.988   3.006   4.545 -0.2518  0.3321  0.3534
  734MOL0     C99001  -0.095   3.729   4.412 -0.0452  0.0833 -0.0621
  734MOL0     C99002   0.013   3.771   4.485  0.6141 -0.4730  0.4577
  734MOL0     O99003   0.210   4.074   4.504 -0.4515 -0.5427 -0.5909
  734MOL0     C99004   0.404   4.115   4.690  0.3538 -0.9954 -0.4570
  734MOL0     C99005   0.520   4.142   4.765 -0.0951  0.2012 -0.2911
  734MOL0     N99006   1.365   4.121   4.911 -0.3378 -0.2203  0.4667
  734MOL0     N99007   1.457   4.181   4.844 -0.3531 -0.1892 -0.5040
  734MOL0     C99008   2.376   4.391   3.952 -0.6567 -0.6306 -0.6693
  734MOL0     C99009   2.516   4.416   3.932  0.1923 -0.9644 -0.2031
  734MOL0     C99010   2.943   4.458   3.970  0.9738  0.6983  0.8932
  734MOL0     C99011   2.955   4.581   3.897 -0.2713  0.5718 -0.5561
  734MOL0     C99012   3.078   4.614   3.843 -0.1849  0.3895 -0.1351
  734MOL0     C99013   3.190   4.535   3.861 -0.5076 -0.5698  0.3384
  734MOL0     O99014   3.308   4.575   3.812 -0.0033  0.0535 -0.2733
  734MOL0     C99015   3.367   4.705   3.849  0.1780  0.0954  0.9922
  734MOL0     C99016   3.493   4.734   3.763 -0.2322 -0.4618 -1.1970
  734MOL0     C99017   3.553   4.866   3.801  0.6400  0.8499  0.4661
  734MOL0     C99018   3.671   4.890   3.698 -0.1854  0.2664  0.4310
  734MOL0     C99019   3.792   4.811   3.721  0.8839 -0.4810  0.2404
  734MOL0     C99020   3.891   4.755   3.761 -0.7047 -0.1730  0.3546
  734MOL0     C99021   3.175   4.414   3.930  0.1165  0.0286  0.3586
  734MOL0     C99022   3.057   4.384   3.990  0.2320 -0.2971 -0.5061
  734MOL0     H99023   2.604   4.497   4.250  2.2043  1.4770 -1.8333
  734MOL0     H99024   2.357   4.494   4.280 -1.6399  2.4611 -1.0060
  734MOL0     H99025   2.142   4.371   4.285  0.9878 -0.6745 -0.9112
  734MOL0     H99026   2.146   4.552   4.237  2.9263 -0.8547  1.4565
  734MOL0     H99027   1.935   4.521   4.125 -1.4452 -0.8538 -0.4968
  734MOL0     H99028   1.948   4.341   4.158  1.1337 -1.4015  2.1960
  734MOL0     H99029   1.935   4.370   4.391 -0.6570 -0.8388 -1.8276
  734MOL0     H99030   1.926   4.551   4.384 -0.0402 -0.4758  0.9747
  734MOL0     H99031   1.719   4.553   4.290  1.9441  0.7929  1.3388
  734MOL0     H99032   1.732   4.379   4.239 -0.4339  2.0416 -1.8634
  734MOL0     H99033   1.716   4.305   4.456 -0.6116 -0.5879  0.9852
  734MOL0     H99034   1.729   4.465   4.540 -0.4778  1.3655 -0.2108
  734MOL0     H99035   1.500   4.513   4.481 -1.1262 -0.0431 -1.4837
  734MOL0     H99036   1.487   4.369   4.370  2.3883 -0.9862 -1.7209
  734MOL0     H99037   1.377   4.280   4.541  0.4306  0.2936 -1.5942
  734MOL0     H99038   1.550   4.237   4.573 -0.1315  0.4148 -1.0424
  734MOL0     H99039   1.411   4.482   4.689  2.6424  1.2731 -1.4120
  734MOL0     H99040   1.572   4.415   4.729 -0.4279 -0.0753  2.1264
  734MOL0     H99041   1.222   4.405   4.834  0.7680  0.9531 -1.1249
  734MOL0     H99042   1.170   4.113   5.081  3.3456  0.2914 -0.5549
  734MOL0     H99043   1.096   4.272   5.045  1.4397  0.8587  0.4825
  734MOL0     H99044   1.059   4.090   4.820  0.7611 -0.1500  0.6728
  734MOL0     H99045   0.958   4.207   4.896  1.9721  0.9567  1.0571
  734MOL0     H99046   0.894   4.074   5.087 -0.6703  1.7317 -0.4028
  734MOL0     H99047   0.997   3.939   5.035 -0.1139  2.2147  5.0037
  734MOL0     H99048   0.764   3.900   4.959  1.5493 -0.3252  0.1985
  734MOL0     H99049   0.856   3.943   4.816 -1.5148 -1.3748 -0.6515
  734MOL0     H99050   0.686   3.848   4.731  0.2530 -0.1885  0.3098
  734MOL0     H99051   0.470   3.764   4.495 -0.9968  1.0267  0.4534
  734MOL0     H99052   0.600   3.712   4.601  1.1772  2.8120  1.3256
  734MOL0     H99053   0.436   3.686   4.654 -0.0796 -0.9986 -2.3019
  734MOL0     H99054   0.236   3.839   4.237  0.2722 -0.5937 -1.1751
  734MOL0     H99055   0.039   3.763   4.107  1.0592 -1.3879  0.2451
  734MOL0     H99056  -0.295   3.556   4.339 -0.7987  0.3254 -0.6139
  734MOL0     H99057  -0.367   3.684   4.251  0.2519 -0.4806  4.1099
  734MOL0     H99058  -0.362   3.510   4.037 -0.8748 -2.5119 -0.7026
  734MOL0     H99059  -0.289   3.402   4.155  1.1921  1.0430  1.0106
  734MOL0     H99060  -0.565   3.443   4.093 -0.2529 -0.1503  0.2898
  734MOL0     H99061  -0.549   3.534   4.238  0.4794  1.0616 -2.3210
  734MOL0     H99062  -0.463   3.237   4.183  0.3075  0.7560 -0.8576
  734MOL0     H99063  -0.460   3.310   4.346 -0.9760  0.4074  0.1520
  734MOL0     H99064  -0.706   3.258   4.178  1.6136  2.4073 -1.4265
  734MOL0     H99065  -0.709   3.359   4.323  0.4970  0.7047 -0.2430
  734MOL0     H99066  -0.595   3.069   4.334  0.6009 -0.4483  2.0177
  734MOL0     H99067  -0.610   3.187   4.473 -2.2982  1.9090  0.3611
  734MOL0     H99068  -0.817   3.064   4.301  1.6961  2.9642 -0.8762
  734MOL0     H99069  -0.859   3.192   4.407 -0.3700 -0.4840  0.1774
  734MOL0     H99070  -0.754   3.010   4.600  0.3963 -2.9011  0.4980
  734MOL0     H99071  -0.779   2.897   4.471 -0.0565 -0.4092  1.0495
  734MOL0     H99072  -0.190   3.706   4.459  0.3226 -1.1305  0.1137
  734MOL0     H99073  -0.006   3.777   4.592  1.8691  1.8827  0.6281
  734MOL0     H99074   0.333   4.195   4.706  2.2427  0.5612  0.5272
  734MOL0     H99075   0.522   4.237   4.817 -2.0768  0.9130 -1.4164
  734MOL0     H99076   2.317   4.362   3.866 -1.5834  1.5778 -0.8476
  734MOL0     H99077   2.556   4.420   3.831 -1.2189  2.2167 -0.7381
  734MOL0     H99078   2.870   4.649   3.896  0.4059  1.5531  1.8075
  734MOL0     H99079   3.080   4.702   3.778 -1.7979 -0.2427 -1.1039
  734MOL0     H99080   3.301   4.791   3.837 -0.0751 -0.1402  0.6992
  734MOL0     H99081   3.398   4.699   3.954  0.7223 -2.2148  0.7600
  734MOL0     H99082   3.456   4.726   3.660 -1.1424 -0.8327 -0.8552
  734MOL0     H99083   3.572   4.660   3.780  0.3118  0.0959 -1.2861
  734MOL0     H99084   3.590   4.882   3.902 -2.2181 -1.7511  2.0693
  734MOL0     H99085   3.475   4.940   3.781  0.8281  1.2640  1.2216
  734MOL0     H99086   3.701   4.995   3.700 -0.7572  0.4419 -0.0934
  734MOL0     H99087   3.639   4.859   3.598  1.4820  0.6506 -0.2527
  734MOL0     H99088   3.978   4.707   3.802 -1.1471  0.3874  2.0587
  734MOL0     H99089   3.255   4.342   3.943 -1.7777 -2.5790 -1.4068
  734MOL0     H99090   3.055   4.290   4.045 -1.2103  0.9991  1.8130
  735MOL0     O99091   6.583   5.700   8.115 -0.3868 -0.0655  0.0475
  735MOL0     C99092   6.652   5.763   8.034 -0.5044 -0.3192 -0.0403
  735MOL0     O99093   6.616   5.785   7.898  0.5706 -0.1326  0.5229
  735MOL0     C99094   6.486   5.773   7.864  0.6750  0.3219 -0.9295
  735MOL0     C99095   6.453   5.764   7.730  0.3015  0.4935  0.2739
  735MOL0     C99096   6.323   5.738   7.679  1.2703  0.0554 -0.0484
  735MOL0     C99097   6.204   5.737   7.760  0.3607  0.1275  1.2998
  735MOL0     O99098   6.075   5.719   7.725  0.5922  0.1858 -0.0133
  735MOL0     C99099   6.042   5.647   7.603  0.2926  0.0034 -0.8433
  735MOL0     C99100   5.898   5.654   7.557  0.5902 -0.1839  0.7062
  735MOL0     C99101   5.823   5.555   7.637 -0.0473  0.2767 -0.6602
  735MOL0     C99102   5.675   5.597   7.668 -0.0970  0.9603 -0.1883
  735MOL0     C99103   5.612   5.513   7.790 -0.2751  0.3702 -0.7681
  735MOL0     C99104   5.459   5.475   7.760 -0.2559  0.7405  0.0950
  735MOL0     C99105   5.402   5.418   7.897 -0.5285 -0.1171  0.5928
  735MOL0     C99106   5.277   5.335   7.862  0.3305  0.1175  0.2441
  735MOL0     N99107   5.185   5.405   7.772 -0.2805  0.2247  0.2148
  735MOL0     C99108   5.114   5.350   7.671  0.1562  0.8108 -0.5615
  735MOL0     C99109   5.027   5.448   7.632  0.2888 -0.4689 -0.1634
  735MOL0     C99110   4.904   5.431   7.545  0.2931  0.3076  0.1033
  735MOL0     C99111   4.823   5.287   7.572 -0.8429  0.7661 -0.4752
  735MOL0     C99112   4.747   5.279   7.705 -0.1582 -0.1291  0.0016
  735MOL0     C99113   4.605   5.331   7.695  0.3812  0.1245  0.3751
  735MOL0     O99114   4.579   5.420   7.593  0.0106 -0.0376 -0.0611
  735MOL0     C99115   4.456   5.436   7.539  0.3303 -0.2721 -0.4115
  735MOL0     C99116   4.445   5.487   7.402  0.2882  0.3350 -0.0769
  735MOL0     C99117   4.322   5.498   7.326 -0.2932 -0.1400 -0.0308
  735MOL0     C99118   4.325   5.539   7.178  0.5234 -0.2956 -0.0250
  735MOL0     C99119   4.210   5.473   7.403  0.1247 -0.1773 -0.1119
  735MOL0     C99120   4.071   5.481   7.345 -0.3489  0.4041 -0.5259
  735MOL0     O99121   4.061   5.469   7.209  0.1009  0.0727  1.1399
  735MOL0     C99122   3.949   5.492   7.136  0.2119  0.1505 -0.4871
  735MOL0     C99123   3.823   5.452   7.178  0.0684 -0.0153 -0.4485
  735MOL0     C99124   3.710   5.463   7.099 -0.6059 -0.6683  0.0683
  735MOL0     C99125   3.729   5.510   6.965 -0.0974 -0.2622 -0.9623
  735MOL0     O99126   3.634   5.500   6.859  0.4065 -0.9967 -0.3095
  735MOL0     C99127   3.504   5.441   6.891 -0.7299 -0.6725  0.2832
  735MOL0     C99128   3.411   5.426   6.768  0.1021  0.4819 -0.4315
  735MOL0     C99129   3.278   5.371   6.809 -0.1359  0.1033  0.0706
  735MOL0     C99130   3.192   5.359   6.681 -0.2193  0.7278  0.0062
  735MOL0     C99131   3.059   5.324   6.731  0.0644  0.0260 -0.6380
  735MOL0     C99132   2.951   5.302   6.623 -0.7001  0.3631 -0.0129
  735MOL0     C99133   2.818   5.255   6.669 -0.0199 -0.5435  0.3164
  735MOL0     C99134   2.723   5.371   6.688 -0.1771  0.4865 -0.7351
  735MOL0    Cl99135   2.618   5.384   6.534 -0.0929 -0.3984 -0.1769
  735MOL0     C99136   3.857   5.557   6.927  0.6545  0.6314  0.4476
  735MOL0     C99137   3.966   5.538   7.009 -0.6057  0.1358  0.0816
  735MOL0     O99138   3.982   5.505   7.417 -0.2516  0.2523  0.3466
  735MOL0     C99139   4.217   5.442   7.541 -0.6995  0.4605 -0.0382
  735MOL0     C99140   4.338   5.407   7.603  0.3225  0.3047 -0.0692
  735MOL0     N99141   5.039   5.558   7.717 -0.4036  0.8382 -0.5413
  735MOL0     N99142   5.136   5.529   7.801 -0.5666  0.5088  0.6471
  735MOL0     C99143   6.241   5.761   7.896  0.0727 -0.0493  0.3898
  735MOL0     C99144   6.370   5.778   7.945 -0.1145 -0.3541 -0.4667
  735MOL0     C99145   6.788   5.803   8.079 -0.6841  0.3554 -0.1480
  735MOL0     C99146   6.882   5.839   7.987  0.3511 -0.6848  0.8857
  735MOL0     C99147   7.014   5.873   8.025  0.5861 -0.2818 -0.1834
  735MOL0     C99148   7.057   5.866   8.152  0.0086 -0.6626 -0.1081
  735MOL0     O99149   7.194   5.878   8.185  0.1992  0.5822 -0.1980
  735MOL0     C99150   7.280   5.974   8.116  0.4525  0.7061 -0.2571
  735MOL0     C99151   7.392   6.029   8.205  0.1862  0.4680  0.2407
  735MOL0     C99152   7.486   5.910   8.242  1.1273  0.1182 -0.2253
  735MOL0     C99153   7.636   5.950   8.262  0.5555 -0.0304  0.0258
  735MOL0     C99154   7.653   6.047   8.372  0.4035 -0.5529  0.5820
  735MOL0     C99155   7.666   6.123   8.467  0.2087  0.1314 -0.2727
  735MOL0     C99156   6.968   5.826   8.249  0.6729  0.3386 -0.1530
  735MOL0     C99157   6.836   5.794   8.220 -0.3400 -0.2534  1.0751
  735MOL0     H99158   6.522   5.770   7.646  0.4456 -0.4408  0.3123
  735MOL0     H99159   6.319   5.736   7.571 -2.9257  0.1568 -0.0733
  735MOL0     H99160   6.103   5.695   7.526 -0.7981  1.0273 -1.0985
  735MOL0     H99161   6.073   5.542   7.609  1.8174  0.3168 -2.3911
  735MOL0     H99162   5.864   5.755   7.581  1.4157  0.4380 -0.6241
  735MOL0     H99163   5.901   5.637   7.449 -2.1226  0.9267  0.3608
  735MOL0     H99164   5.829   5.451   7.605  0.7156 -0.0666  0.5160
  735MOL0     H99165   5.866   5.558   7.738 -1.0113 -1.9659 -0.1097
  735MOL0     H99166   5.677   5.702   7.696  1.5093  0.3989  2.1012
  735MOL0     H99167   5.616   5.575   7.579  0.4533  0.6534 -0.4771
  735MOL0     H99168   5.665   5.418   7.797 -2.1298 -0.7769 -1.5591
  735MOL0     H99169   5.625   5.567   7.885  0.9129  0.8653 -1.1914
  735MOL0     H99170   5.400   5.562   7.728 -0.0013  0.1695 -2.0662
  735MOL0     H99171   5.448   5.403   7.679 -1.6869 -0.9085  1.6612
  735MOL0     H99172   5.471   5.356   7.955  0.5168  1.9175  1.6251
  735MOL0     H99173   5.381   5.499   7.967  0.2137 -1.0027  1.8953
  735MOL0     H99174   5.231   5.310   7.958  0.8665  0.5907  0.6278
  735MOL0     H99175   5.292   5.243   7.803 -2.7206  0.9634 -2.1252
  735MOL0     H99176   5.113   5.248   7.635 -2.0103  0.4184  0.4639
  735MOL0     H99177   4.831   5.513   7.551  0.8481  0.7885  0.4568
  735MOL0     H99178   4.947   5.436   7.444 -0.6389 -1.1134 -0.3892
  735MOL0     H99179   4.894   5.204   7.575  0.1440  1.6162  1.3016
  735MOL0     H99180   4.759   5.275   7.484  2.0993  0.0690 -2.6693
  735MOL0     H99181   4.799   5.335   7.783 -1.2159 -1.5696  1.8391
  735MOL0     H99182   4.739   5.174   7.735 -1.7215  0.1199  0.5901
  735MOL0     H99183   4.573   5.377   7.789 -1.5023  2.2223 -1.1727
  735MOL0     H99184   4.539   5.245   7.679  1.1451 -0.1038 -1.8827
  735MOL0     H99185   4.539   5.527   7.364  1.3277 -0.2348  1.7630
  735MOL0     H99186   4.306   5.463   7.102 -2.5224  1.2055 -0.9232
  735MOL0     H99187   4.253   5.620   7.160 -0.3443 -1.2337 -0.8547
  735MOL0     H99188   4.419   5.589   7.150  0.7232 -0.3546  0.5309
  735MOL0     H99189   3.811   5.408   7.276 -1.2779 -2.3969 -1.5768
  735MOL0     H99190   3.608   5.443   7.130 -1.4439 -1.0072 -2.6520
  735MOL0     H99191   3.515   5.344   6.940 -0.9556 -2.0342 -2.2222
  735MOL0     H99192   3.449   5.510   6.956 -1.4374  0.4680 -1.4439
  735MOL0     H99193   3.386   5.523   6.725  0.3547  0.9266  0.4088
  735MOL0     H99194   3.456   5.359   6.694 -0.2472 -2.7930  2.0515
  735MOL0     H99195   3.227   5.434   6.883 -0.7582 -1.4941  1.0431
  735MOL0     H99196   3.299   5.271   6.847  1.1886  0.5184  0.4716
  735MOL0     H99197   3.190   5.457   6.632 -0.9324  0.8974  0.3538
  735MOL0     H99198   3.229   5.285   6.611  1.5446  1.4209  0.1551
  735MOL0     H99199   3.025   5.404   6.797  0.6523  1.5351 -2.0904
  735MOL0     H99200   3.061   5.234   6.792 -1.9189  0.2443 -0.1538
  735MOL0     H99201   2.951   5.389   6.557 -0.9165  1.2746  1.1539
  735MOL0     H99202   2.988   5.227   6.553 -3.2482  1.0508 -2.2432
  735MOL0     H99203   2.827   5.203   6.765 -2.2654  3.3702  2.9283
  735MOL0     H99204   2.773   5.190   6.594 -1.4275  2.6192 -1.8236
  735MOL0     H99205   2.773   5.466   6.709  1.6042  0.0853 -2.7934
  735MOL0     H99206   2.657   5.362   6.775  0.2176 -1.0068 -0.5645
  735MOL0     H99207   3.879   5.599   6.830  0.2678  1.1089  0.5665
  735MOL0     H99208   4.066   5.557   6.970  0.5723  0.5842  3.0770
  735MOL0     H99209   4.126   5.427   7.598 -2.1540 -1.6796 -2.7122
  735MOL0     H99210   4.335   5.390   7.710  0.2701 -0.4671 -0.1856
  735MOL0     H99211   6.159   5.769   7.966 -1.4955 -1.5976 -1.1424
  735MOL0     H99212   6.378   5.797   8.052 -1.3043 -1.2765 -0.1895
  735MOL0     H99213   6.865   5.844   7.880  0.4196  0.2082  0.9075
  735MOL0     H99214   7.073   5.905   7.940  1.0237 -1.2722 -0.2657
  735MOL0     H99215   7.313   5.918   8.028 -0.7248 -2.3336  1.0991
  735MOL0     H99216   7.218   6.057   8.080  1.4288  1.9590  0.8826
  735MOL0     H99217   7.360   6.071   8.301 -0.4126  0.3289  0.1058
  735MOL0     H99218   7.444   6.112   8.155 -0.7381  0.6145 -0.5364
  735MOL0     H99219   7.482   5.846   8.154  0.0361  0.0498 -0.1395
  735MOL0     H99220   7.443   5.859   8.329 -0.0931  1.1033 -0.2115
  735MOL0     H99221   7.671   5.996   8.169  0.1797  1.4114  0.5718
  735MOL0     H99222   7.689   5.858   8.288 -1.5352 -0.9635  1.2519
  735MOL0     H99223   7.669   6.193   8.548 -2.5141 -2.4022  2.1887
  735MOL0     H99224   6.998   5.831   8.353 -1.8466  0.8163  0.6316
  735MOL0     H99225   6.764   5.761   8.293 -0.2370 -0.8204  0.9275
  736MOL0     O99226   7.637   7.878   7.544  0.1650 -0.3235  0.4678
  736MOL0     C99227   7.736   7.858   7.477  0.8602 -0.2646 -0.0041
  736MOL0     O99228   7.733   7.861   7.344  0.1114 -0.5259 -0.0859
  736MOL0     C99229   7.627   7.843   7.265 -0.1775 -0.3982  0.3788
  736MOL0     C99230   7.506   7.784   7.311 -0.2839  0.3552 -0.1563
  736MOL0     C99231   7.394   7.776   7.227  0.0922 -0.7116  0.3797
  736MOL0     C99232   7.398   7.840   7.103 -0.4982  0.2062  0.0364
  736MOL0     O99233   7.277   7.835   7.031 -0.1465 -0.6501 -0.0882
  736MOL0     C99234   7.247   7.933   6.931 -0.4038  0.6028 -0.3279
  736MOL0     C99235   7.128   7.912   6.854 -0.0781 -0.2306  0.3920
  736MOL0     C99236   6.992   7.900   6.920  0.5164 -0.2586 -0.2636
  736MOL0     C99237   6.882   7.864   6.816  0.3826  0.1338  0.4571
  736MOL0     C99238   6.743   7.844   6.879  0.0519 -0.9102 -0.2148
  736MOL0     C99239   6.625   7.844   6.783  0.1717  0.1762  0.5119
  736MOL0     C99240   6.485   7.820   6.850 -0.1032  0.6168  0.2048
  736MOL0     C99241   6.413   7.953   6.870  0.0471  0.6668  0.0530
  736MOL0     N99242   6.268   7.926   6.882 -0.2674 -0.5868 -0.0810
  736MOL0     C99243   6.164   7.975   6.807  0.4691 -0.0281 -0.2692
  736MOL0     C99244   6.052   7.948   6.877  0.9201  0.3098 -0.4187
  736MOL0     C99245   5.910   7.983   6.840 -0.1653  0.3505  0.3404
  736MOL0     C99246   5.895   8.127   6.790  0.5090  0.4533  0.7402
  736MOL0     C99247   5.756   8.149   6.720 -0.8856  0.2924  0.0138
  736MOL0     C99248   5.634   8.121   6.794  0.2739 -0.5663  0.3226
  736MOL0     O99249   5.535   8.161   6.703  0.3769  0.1234 -0.0034
  736MOL0     C99250   5.398   8.150   6.747 -1.3203  0.6143 -0.5143
  736MOL0     C99251   5.308   8.198   6.663  0.2038 -0.5622 -1.1604
  736MOL0     C99252   5.168   8.194   6.689 -0.3641 -0.1193 -0.1147
  736MOL0     C99253   5.064   8.249   6.586 -0.2911 -0.1274  0.1987
  736MOL0     C99254   5.120   8.113   6.804 -0.3583 -0.6079 -0.3106
  736MOL0     C99255   4.977   8.078   6.836 -0.2790  0.0234 -0.3135
  736MOL0     O99256   4.944   7.984   6.928  0.2174 -0.4813 -0.5647
  736MOL0     C99257   4.809   7.958   6.942  0.2898  0.4493  0.8960
  736MOL0     C99258   4.723   7.921   6.838 -0.3964  0.5197  0.3840
  736MOL0     C99259   4.598   7.864   6.868 -0.3242  0.2342  0.7240
  736MOL0     C99260   4.546   7.881   6.999  0.6553  0.3210 -0.8702
  736MOL0     O99261   4.411   7.845   7.018  0.3456  0.0242  0.3119
  736MOL0     C99262   4.374   7.736   7.108 -0.0707 -0.6913  1.4728
  736MOL0     C99263   4.235   7.682   7.074 -0.0918  0.2902  0.4099
  736MOL0     C99264   4.246   7.601   6.945 -0.6065  0.1155 -0.8590
  736MOL0     C99265   4.105   7.566   6.899 -0.1344  0.1516 -0.4300
  736MOL0     C99266   4.067   7.660   6.778 -0.2832 -0.0001 -0.3692
  736MOL0     C99267   3.927   7.642   6.713 -0.2080 -0.5480 -0.2856
  736MOL0     C99268   3.810   7.624   6.809 -0.5611 -1.0037 -0.4353
  736MOL0     C99269   3.665   7.652   6.767  0.0870 -0.1798  0.4089
  736MOL0    Cl99270   3.615   7.526   6.653  0.2511  0.2404  0.0503
  736MOL0     C99271   4.632   7.928   7.105  0.6964 -0.1882  0.4690
  736MOL0     C99272   4.764   7.960   7.070  0.8033 -0.1748 -1.2333
  736MOL0     O99273   4.895   8.140   6.778 -0.7961 -0.6336  0.1759
  736MOL0     C99274   5.222   8.075   6.893 -0.0988 -0.1861 -0.2353
  736MOL0     C99275   5.355   8.087   6.860  0.3160  0.0390  0.8828
  736MOL0     N99276   6.082   7.879   6.993 -0.5725 -0.6812  0.0953
  736MOL0     N99277   6.212   7.883   6.995  0.0873  0.4113 -0.1882
  736MOL0     C99278   7.518   7.898   7.059 -0.3612 -0.2815 -0.0772
  736MOL0     C99279   7.633   7.904   7.138  0.6562 -0.8841  0.0568
  736MOL0     C99280   7.859   7.833   7.547 -1.2989  0.2494 -0.3059
  736MOL0     C99281   7.864   7.806   7.684 -0.0054 -0.0102 -0.5601
  736MOL0     C99282   7.982   7.773   7.755 -0.3356  0.4219  1.0320
  736MOL0     C99283   8.105   7.763   7.685 -0.0908  0.3040 -0.0231
  736MOL0     O99284   8.223   7.745   7.756 -0.0181 -0.0944  0.0910
  736MOL0     C99285   8.349   7.761   7.681  0.0902 -0.1474  0.1969
  736MOL0     C99286   8.461   7.723   7.776 -0.3125  0.3562 -0.2862
  736MOL0     C99287   8.597   7.744   7.708  0.2322  0.6504  0.2473
  736MOL0     C99288   8.722   7.685   7.788  0.5597  0.8221  0.2976
  736MOL0     C99289   8.850   7.715   7.712  1.0807 -0.3445  0.0964
  736MOL0     C99290   8.959   7.725   7.664  0.5607 -0.5631  0.3165
  736MOL0     C99291   8.108   7.788   7.544  0.7971 -0.2905  0.0841
  736MOL0     C99292   7.984   7.812   7.476  0.4517  0.0459  0.3960
  736MOL0     H99293   7.503   7.730   7.406  1.3182  0.4323 -0.0373
  736MOL0     H99294   7.309   7.718   7.263  0.8824 -2.2026 -0.0571
  736MOL0     H99295   7.246   8.032   6.977 -2.3978 -0.1011  1.2594
  736MOL0     H99296   7.332   7.926   6.862  0.6958  1.5613  0.8711
  736MOL0     H99297   7.113   8.002   6.794  0.3379  2.1230  3.5597
  736MOL0     H99298   7.145   7.823   6.793  1.0288 -1.1519  1.9682
  736MOL0     H99299   7.013   7.822   6.994 -0.6023  1.7112  2.2932
  736MOL0     H99300   6.962   7.995   6.965  0.5315  0.3588 -1.5070
  736MOL0     H99301   6.885   7.929   6.728 -0.9464 -3.1768 -2.2320
  736MOL0     H99302   6.913   7.765   6.782 -1.3855  0.2929 -1.7864
  736MOL0     H99303   6.730   7.745   6.924  1.3777 -1.0592 -0.1291
  736MOL0     H99304   6.723   7.923   6.952  1.2041  2.0176 -2.8470
  736MOL0     H99305   6.634   7.925   6.711 -0.4647 -0.9964 -0.9372
  736MOL0     H99306   6.646   7.758   6.719 -0.6375 -0.8215  1.5414
  736MOL0     H99307   6.424   7.762   6.781 -1.1752 -1.4169  2.6906
  736MOL0     H99308   6.492   7.757   6.939  3.7918  1.4754  0.7224
  736MOL0     H99309   6.418   8.016   6.780  1.6144  0.0812 -0.2919
  736MOL0     H99310   6.464   8.004   6.952  1.0171  0.2232 -0.2708
  736MOL0     H99311   6.170   8.036   6.717  0.4239  1.8280  0.9453
  736MOL0     H99312   5.890   7.917   6.755  1.1479  0.6479 -0.2302
  736MOL0     H99313   5.835   7.967   6.918  0.1349  0.2126  0.6035
  736MOL0     H99314   5.979   8.142   6.721 -0.0960 -1.2840 -0.4511
  736MOL0     H99315   5.912   8.187   6.880  0.9223  0.1770  0.8495
  736MOL0     H99316   5.755   8.093   6.626 -2.3635  0.2257  0.0580
  736MOL0     H99317   5.761   8.254   6.691  2.4439 -0.5137 -3.1143
  736MOL0     H99318   5.636   8.177   6.889 -2.5957 -0.5348  0.4404
  736MOL0     H99319   5.630   8.014   6.819  0.0772 -0.7271 -0.4018
  736MOL0     H99320   5.349   8.241   6.572  1.7051  0.3524 -0.1054
  736MOL0     H99321   4.988   8.178   6.551 -1.7791  2.5109 -2.3468
  736MOL0     H99322   5.000   8.333   6.615 -0.8756 -0.2640 -0.6626
  736MOL0     H99323   5.120   8.283   6.499  2.2887 -2.1235  0.9395
  736MOL0     H99324   4.756   7.926   6.735  0.0391 -1.0388  0.4344
  736MOL0     H99325   4.542   7.828   6.783  1.4113  0.1687 -0.4398
  736MOL0     H99326   4.443   7.655   7.082  1.6792  0.6288  1.7737
  736MOL0     H99327   4.378   7.759   7.215 -1.3266  2.4749  0.9327
  736MOL0     H99328   4.196   7.612   7.149  0.8052 -1.0789 -0.3488
  736MOL0     H99329   4.177   7.774   7.068  0.7636  0.8710  0.8290
  736MOL0     H99330   4.298   7.508   6.968 -0.4880  0.2281 -0.6703
  736MOL0     H99331   4.301   7.656   6.869 -1.2326  1.2099 -0.5462
  736MOL0     H99332   4.120   7.463   6.867  1.9162  0.2540  0.0710
  736MOL0     H99333   4.027   7.569   6.976  0.3083 -0.6075  0.0490
  736MOL0     H99334   4.143   7.650   6.700  0.7486 -3.5618  0.9114
  736MOL0     H99335   4.063   7.761   6.821 -3.8596  0.1902 -0.7689
  736MOL0     H99336   3.911   7.730   6.651 -0.1315 -0.1596  0.2416
  736MOL0     H99337   3.923   7.556   6.645 -1.6138 -0.4669 -0.3340
  736MOL0     H99338   3.818   7.698   6.889  0.5253 -2.7398  1.1579
  736MOL0     H99339   3.823   7.526   6.855  0.1087 -0.1479  1.2752
  736MOL0     H99340   3.658   7.745   6.711  1.5130 -0.2567  0.0637
  736MOL0     H99341   3.607   7.657   6.860  0.7374 -0.2819  0.8255
  736MOL0     H99342   4.601   7.919   7.209 -0.2463 -0.2599  0.1967
  736MOL0     H99343   4.832   7.984   7.151 -0.4018 -0.5334 -0.0978
  736MOL0     H99344   5.182   8.020   6.978  2.2243  0.5300  1.4241
  736MOL0     H99345   5.420   8.039   6.933  0.7773  0.3003  0.6428
  736MOL0     H99346   7.529   7.946   6.963  3.3733 -0.2720  0.2111
  736MOL0     H99347   7.727   7.947   7.106  0.4198 -0.1607  0.3150
  736MOL0     H99348   7.770   7.826   7.736  0.1145 -1.1695  0.1333
  736MOL0     H99349   7.972   7.762   7.863  0.5193 -2.9608  0.8682
  736MOL0     H99350   8.332   7.690   7.599  1.1984 -0.7502  0.4691
  736MOL0     H99351   8.346   7.866   7.651 -1.0609  0.5647  2.5235
  736MOL0     H99352   8.452   7.619   7.809  0.3079  0.5783  0.6381
  736MOL0     H99353   8.461   7.784   7.867  2.4155  2.1820 -1.3808
  736MOL0     H99354   8.619   7.851   7.704 -1.1090  0.9087 -1.3646
  736MOL0     H99355   8.600   7.710   7.604 -0.3994 -0.7562  0.6610
  736MOL0     H99356   8.699   7.579   7.793  1.0153  0.4123 -3.3606
  736MOL0     H99357   8.743   7.725   7.887  2.0911  0.8645 -0.0191
  736MOL0     H99358   9.056   7.727   7.619 -0.5711 -0.1396 -2.2625
  736MOL0     H99359   8.193   7.772   7.478  1.1831 -2.7492  1.0483
  736MOL0     H99360   7.983   7.841   7.372  1.4508  1.7702  0.8175
  737MOL0     O99361  10.426   7.079   9.870  0.7652 -0.3219 -0.2987
  737MOL0     C99362  10.488   6.974   9.842 -0.4349 -0.1877  0.2138
  737MOL0     O99363  10.442   6.854   9.843  0.2214  0.5185  0.2405
  737MOL0     C99364  10.309   6.838   9.884  0.4034 -0.2545  0.5897
  737MOL0     C99365  10.213   6.779   9.801 -0.1390 -0.7589 -0.0678
  737MOL0     C99366  10.072   6.764   9.823  0.2770  0.4918 -0.1226
  737MOL0     C99367  10.030   6.808   9.941 -0.0630 -0.7289 -0.1582
  737MOL0     O99368   9.900   6.803   9.984  0.5706 -0.7538 -0.4418
  737MOL0     C99369   9.793   6.789   9.884 -1.1511 -0.1839 -0.2441
  737MOL0     C99370   9.658   6.813   9.937 -0.1609  0.3449 -0.2821
  737MOL0     C99371   9.605   6.962   9.935 -0.0302  0.4389 -0.1958
  737MOL0     C99372   9.652   7.051   9.814 -0.5005  1.0486 -0.2583
  737MOL0     C99373   9.608   7.197   9.845  0.4203 -0.4629  0.4028
  737MOL0     C99374   9.618   7.295   9.727  0.2618  0.3383 -1.0131
  737MOL0     C99375   9.763   7.323   9.687 -0.2391  0.2957 -0.2202
  737MOL0     C99376   9.764   7.452   9.594 -0.0581  0.2322  0.4809
  737MOL0     N99377   9.801   7.416   9.458  0.0858 -0.5942  1.0673
  737MOL0     C99378   9.734   7.334   9.373 -0.5824 -0.3788  0.5062
  737MOL0     C99379   9.810   7.328   9.264 -1.0854 -0.0943  0.1698
  737MOL0     C99380   9.786   7.248   9.136 -0.0381 -0.1945 -0.0428
  737MOL0     C99381   9.653   7.294   9.067  0.1421 -0.4119 -0.3600
  737MOL0     C99382   9.677   7.420   8.979 -0.9167  0.4882  0.8944
  737MOL0     C99383   9.575   7.431   8.872 -0.1152  0.4089  0.5928
  737MOL0     O99384   9.607   7.335   8.767 -0.9546  0.5650  0.4030
  737MOL0     C99385   9.516   7.330   8.668  0.7085 -0.6412 -0.4915
  737MOL0     C99386   9.568   7.280   8.555 -0.4636 -0.5103 -0.1422
  737MOL0     C99387   9.506   7.269   8.435  0.1717 -0.1291 -0.2622
  737MOL0     C99388   9.581   7.216   8.322 -0.3943  0.0894  0.5755
  737MOL0     C99389   9.378   7.332   8.418 -0.5613  0.1001 -0.5181
  737MOL0     C99390   9.295   7.339   8.294  0.2492 -0.9544  1.2547
  737MOL0     O99391   9.157   7.342   8.303 -0.1193  0.1567  0.0187
  737MOL0     C99392   9.083   7.326   8.190 -0.1745  0.3618  0.0999
  737MOL0     C99393   9.053   7.185   8.152  0.0750 -0.4820  0.5151
  737MOL0     C99394   8.969   7.169   8.040 -0.0235 -0.1287  0.3305
  737MOL0     C99395   8.909   7.282   7.971 -0.2183  0.0338 -0.7971
  737MOL0     O99396   8.838   7.285   7.856  0.0008  0.6008 -0.5261
  737MOL0     C99397   8.777   7.167   7.816  0.2132  0.1791 -0.2605
  737MOL0     C99398   8.670   7.107   7.902  0.6819  0.5086  0.2305
  737MOL0     C99399   8.609   6.977   7.848  0.3882 -0.5619 -1.3258
  737MOL0     C99400   8.700   6.859   7.851 -0.2743 -0.6337 -0.0581
  737MOL0     C99401   8.612   6.727   7.864 -0.4368 -0.2395 -0.6583
  737MOL0     C99402   8.707   6.611   7.844  0.1221 -0.0093 -1.0011
  737MOL0     C99403   8.628   6.478   7.873 -0.5921 -0.0081  0.5877
  737MOL0     C99404   8.521   6.447   7.764 -0.0947  0.9992  0.6844
  737MOL0    Cl99405   8.441   6.297   7.813  0.2605 -0.3319  0.4119
  737MOL0     C99406   8.944   7.413   8.018 -0.1366 -0.1183  0.3739
  737MOL0     C99407   9.024   7.432   8.126  0.2909  0.2374 -0.1491
  737MOL0     O99408   9.363   7.334   8.192  0.2716 -0.3563  0.3467
  737MOL0     C99409   9.318   7.392   8.535  0.5483  0.1936  0.7151
  737MOL0     C99410   9.387   7.390   8.651 -0.1047  0.2860 -0.5605
  737MOL0     N99411   9.914   7.420   9.272  0.3305 -0.8249  0.0266
  737MOL0     N99412   9.904   7.470   9.393 -0.5734 -0.1704  0.4241
  737MOL0     C99413  10.116   6.871  10.035 -0.2606  0.1545 -0.4951
  737MOL0     C99414  10.249   6.879  10.003 -0.6180 -0.4622  0.2397
  737MOL0     C99415  10.629   6.998   9.806 -1.0264  0.0435 -0.7841
  737MOL0     C99416  10.734   6.902   9.831 -0.1232 -0.3287 -0.0279
  737MOL0     C99417  10.863   6.947   9.819  0.5462 -0.9285 -0.0502
  737MOL0     C99418  10.895   7.070   9.758 -0.1190  1.2474  0.1001
  737MOL0     O99419  11.029   7.110   9.746  0.0613  0.2970  1.1135
  737MOL0     C99420  11.131   7.011   9.729  0.3838 -0.8312 -0.0166
  737MOL0     C99421  11.116   6.954   9.587 -0.6896 -0.1221 -0.9308
  737MOL0     C99422  11.258   6.897   9.543  0.0338  0.9645 -0.2590
  737MOL0     C99423  11.317   6.782   9.633  0.0574  0.3550 -0.4040
  737MOL0     C99424  11.462   6.776   9.623 -0.5058 -0.9330 -0.3073
  737MOL0     C99425  11.586   6.759   9.644 -0.2849  0.5729 -0.3580
  737MOL0     C99426  10.790   7.154   9.727  0.1734  0.3634  0.2773
  737MOL0     C99427  10.656   7.117   9.743 -0.1823  0.1926  0.3312
  737MOL0     H99428  10.246   6.750   9.701 -0.0824 -1.1967  0.0758
  737MOL0     H99429  10.009   6.713   9.750  1.1218 -0.1711 -0.4019
  737MOL0     H99430   9.813   6.848   9.794  0.0367 -1.8133 -1.0990
  737MOL0     H99431   9.791   6.686   9.847  3.9346 -0.2373 -1.1031
  737MOL0     H99432   9.587   6.764   9.870 -1.8264 -0.4015  1.9186
  737MOL0     H99433   9.663   6.785  10.042  2.7203  0.4700 -0.3196
  737MOL0     H99434   9.496   6.969   9.939  0.0356  0.9457  1.6253
  737MOL0     H99435   9.636   6.999  10.033 -1.2783 -0.8342  0.7053
  737MOL0     H99436   9.761   7.048   9.821 -0.6028  1.3555  3.6209
  737MOL0     H99437   9.618   7.014   9.717 -2.6624 -0.1035  0.8547
  737MOL0     H99438   9.501   7.200   9.867  0.2658 -1.7597 -0.0953
  737MOL0     H99439   9.667   7.231   9.931  0.2795  0.3967  0.1588
  737MOL0     H99440   9.567   7.249   9.642  0.3479 -1.6254 -0.0474
  737MOL0     H99441   9.564   7.386   9.756 -0.2791 -0.3502  0.2576
  737MOL0     H99442   9.815   7.339   9.782  1.3932 -0.3396 -0.9822
  737MOL0     H99443   9.794   7.230   9.640 -1.8398 -0.5148  0.2675
  737MOL0     H99444   9.843   7.522   9.625 -0.6239  1.1827 -0.1860
  737MOL0     H99445   9.671   7.507   9.611  0.1329  0.4220  0.9484
  737MOL0     H99446   9.645   7.274   9.387 -1.2524  0.4621 -0.0413
  737MOL0     H99447   9.867   7.259   9.064  0.0638  1.0391  0.2346
  737MOL0     H99448   9.776   7.146   9.176 -0.2576  0.4517  1.6488
  737MOL0     H99449   9.570   7.317   9.135  1.3756 -0.7766  1.3370
  737MOL0     H99450   9.615   7.214   9.003  0.1736 -0.2966 -0.5214
  737MOL0     H99451   9.776   7.411   8.933 -1.4838 -1.1837 -0.0910
  737MOL0     H99452   9.677   7.510   9.041  1.6864  0.7617  0.6127
  737MOL0     H99453   9.565   7.531   8.828 -1.4296  0.1915  0.3373
  737MOL0     H99454   9.474   7.405   8.906 -0.3926 -1.8744 -1.6242
  737MOL0     H99455   9.671   7.250   8.573 -0.0230  1.0055  0.0400
  737MOL0     H99456   9.670   7.165   8.358  0.5635  0.5321 -1.0483
  737MOL0     H99457   9.515   7.144   8.272 -0.0342  0.7581 -0.9016
  737MOL0     H99458   9.608   7.299   8.255 -1.4653 -2.1081 -2.8430
  737MOL0     H99459   9.095   7.103   8.209 -0.6688 -1.1428  0.1281
  737MOL0     H99460   8.949   7.066   8.014 -2.4424  0.6472 -1.2234
  737MOL0     H99461   8.749   7.177   7.711  0.5063  0.1972 -0.3385
  737MOL0     H99462   8.854   7.090   7.804  0.0941 -0.0445  0.3673
  737MOL0     H99463   8.698   7.110   8.008 -0.1860  0.6323  0.4696
  737MOL0     H99464   8.589   7.179   7.887  0.3355 -0.2560 -1.9676
  737MOL0     H99465   8.579   6.998   7.745 -0.5381  0.4453 -0.8646
  737MOL0     H99466   8.520   6.945   7.903  0.8775 -0.9839 -0.7766
  737MOL0     H99467   8.751   6.858   7.754  0.9632 -0.1422  0.5548
  737MOL0     H99468   8.761   6.877   7.940 -2.0972  2.7623  0.6795
  737MOL0     H99469   8.532   6.725   7.790 -0.6482 -1.0821 -0.4119
  737MOL0     H99470   8.561   6.724   7.961 -0.6620 -3.6832 -0.7561
  737MOL0     H99471   8.752   6.607   7.744  0.8268 -0.4720 -0.6752
  737MOL0     H99472   8.784   6.627   7.921  0.7007  2.6833 -2.0199
  737MOL0     H99473   8.574   6.492   7.968 -0.4264 -0.0996  0.6945
  737MOL0     H99474   8.707   6.403   7.874  1.0597  1.5867 -1.3978
  737MOL0     H99475   8.567   6.431   7.666 -0.1012 -1.0466  0.9646
  737MOL0     H99476   8.444   6.524   7.758  0.6259  1.6212 -1.7014
  737MOL0     H99477   8.912   7.498   7.959  0.7339 -0.4512 -0.6167
  737MOL0     H99478   9.036   7.534   8.160 -0.6030  0.1061  0.6017
  737MOL0     H99479   9.222   7.439   8.519  0.0539 -0.4356  1.6926
  737MOL0     H99480   9.347   7.431   8.743 -2.4135 -1.2919 -0.7733
  737MOL0     H99481  10.082   6.904  10.132 -0.4280  0.0612 -0.5211
  737MOL0     H99482  10.314   6.927  10.076 -0.5724  0.7610 -0.5744
  737MOL0     H99483  10.713   6.803   9.871  2.0201 -0.4504  0.9454
  737MOL0     H99484  10.932   6.869   9.854  1.0155 -0.0179  1.1406
  737MOL0     H99485  11.225   7.065   9.736  0.0697 -0.2033 -0.4743
  737MOL0     H99486  11.134   6.940   9.812  0.1093 -0.0852  0.6496
  737MOL0     H99487  11.094   7.040   9.523  5.1187 -0.7538 -4.5644
  737MOL0     H99488  11.035   6.881   9.582 -1.1774  0.1311  1.7671
  737MOL0     H99489  11.332   6.977   9.536  0.1929  0.9765  1.2173
  737MOL0     H99490  11.257   6.851   9.444  2.9289  0.1921  0.0040
  737MOL0     H99491  11.270   6.690   9.596 -2.7034  1.5337 -0.0603
  737MOL0     H99492  11.294   6.807   9.738  1.2860  2.4796 -0.5789
  737MOL0     H99493  11.691   6.759   9.667 -0.2774  0.9146 -0.3830
  737MOL0     H99494  10.808   7.252   9.683 -3.3005  1.4762  0.9964
  737MOL0     H99495  10.577   7.181   9.705 -1.2767 -0.6137  1.1754
  738MOL0     O99496  11.240   1.256   1.707  1.0334 -0.4059  0.0171
  738MOL0     C99497  11.289   1.284   1.819 -0.7065 -0.6047 -0.1208
  738MOL0     O99498  11.217   1.324   1.928  0.5065 -0.0379  0.4280
  738MOL0     C99499  11.083   1.325   1.918 -1.3311 -0.3820  0.4364
  738MOL0     C99500  11.030   1.457   1.937  0.3223 -0.0941 -0.4375
  738MOL0     C99501  10.891   1.465   1.934 -0.6563 -0.0965 -0.6656
  738MOL0     C99502  10.808   1.353   1.901  0.2507  0.1690  0.1852
  738MOL0     O99503  10.667   1.368   1.899  0.1671 -0.2291 -0.1319
  738MOL0     C99504  10.597   1.317   1.784  0.0796 -0.0468 -0.8679
  738MOL0     C99505  10.461   1.385   1.787 -0.6641  0.0837  0.1365
  738MOL0     C99506  10.476   1.538   1.782  0.0615 -0.6119  0.8975
  738MOL0     C99507  10.345   1.590   1.721 -0.1478 -0.1246 -0.3159
  738MOL0     C99508  10.361   1.728   1.669  0.3137 -0.2408  0.2545
  738MOL0     C99509  10.232   1.788   1.628 -0.2505  0.1239  0.3646
  738MOL0     C99510  10.184   1.721   1.494  0.1866 -0.2900 -0.4520
  738MOL0     C99511  10.085   1.812   1.417  0.0972  0.0227  0.0761
  738MOL0     N99512   9.972   1.849   1.508 -1.0241 -0.6662 -0.1574
  738MOL0     C99513   9.893   1.766   1.582 -0.4480 -0.0420 -1.4270
  738MOL0     C99514   9.796   1.851   1.634 -0.8136 -1.2831 -0.0663
  738MOL0     C99515   9.685   1.818   1.730 -0.8180 -0.1402  0.2433
  738MOL0     C99516   9.572   1.757   1.654  0.2108 -0.7637 -0.1638
  738MOL0     C99517   9.450   1.739   1.731  0.6232 -0.1768 -0.0772
  738MOL0     C99518   9.439   1.599   1.802  0.3694 -0.6286  0.0641
  738MOL0     O99519   9.402   1.491   1.713 -0.3021 -0.2926 -0.0811
  738MOL0     C99520   9.271   1.480   1.666  0.0068  0.4037 -0.2885
  738MOL0     C99521   9.171   1.570   1.659  0.0302 -0.5034 -0.0258
  738MOL0     C99522   9.043   1.527   1.613 -0.0389 -0.5181 -0.7495
  738MOL0     C99523   8.935   1.636   1.634  0.2519  0.0989 -0.0203
  738MOL0     C99524   9.019   1.400   1.562  0.1564 -0.8281  0.0805
  738MOL0     C99525   8.890   1.354   1.495 -0.0872  0.0285  0.0432
  738MOL0     O99526   8.884   1.228   1.444  0.4706  0.4064  0.2974
  738MOL0     C99527   8.761   1.172   1.430  0.2942  0.2054  0.2071
  738MOL0     C99528   8.724   1.068   1.519  0.4235 -0.6814 -0.7735
  738MOL0     C99529   8.597   1.002   1.518 -0.9720  0.1775  0.7452
  738MOL0     C99530   8.501   1.043   1.427  0.2600  1.2224  0.4159
  738MOL0     O99531   8.376   0.982   1.433  0.6376  0.1877 -0.2258
  738MOL0     C99532   8.286   1.000   1.321 -0.6768  0.6002 -0.5947
  738MOL0     C99533   8.172   0.907   1.351 -0.0423 -0.5217  0.2945
  738MOL0     C99534   8.067   0.903   1.243  0.5649 -0.0648  0.3300
  738MOL0     C99535   8.000   0.765   1.209  0.0546 -0.0859 -0.2727
  738MOL0     C99536   7.851   0.764   1.250 -0.0744 -0.2291 -1.0880
  738MOL0     C99537   7.797   0.632   1.193  0.4288 -0.5316 -0.1565
  738MOL0     C99538   7.658   0.605   1.261  0.5785 -0.4959 -0.0157
  738MOL0     C99539   7.668   0.560   1.408  0.8385  0.1819  0.3270
  738MOL0    Cl99540   7.675   0.683   1.532  0.1566 -0.6283 -0.1549
  738MOL0     C99541   8.531   1.139   1.332 -0.1994 -0.2100 -0.5614
  738MOL0     C99542   8.661   1.199   1.329 -0.7785  0.1755  0.6838
  738MOL0     O99543   8.791   1.427   1.505  0.3811 -0.7231 -0.1952
  738MOL0     C99544   9.127   1.317   1.559  1.0080 -0.4041 -0.3011
  738MOL0     C99545   9.252   1.356   1.619 -0.1571  0.4894 -0.1346
  738MOL0     N99546   9.814   1.974   1.576  0.8829 -0.3347  0.3897
  738MOL0     N99547   9.920   1.975   1.504 -0.0700  0.2907 -0.1195
  738MOL0     C99548  10.863   1.230   1.868  0.3867  0.2392  0.4695
  738MOL0     C99549  10.998   1.213   1.884  0.3781  0.1196 -0.1954
  738MOL0     C99550  11.437   1.298   1.821 -0.2972  0.2438  0.3141
  738MOL0     C99551  11.510   1.261   1.704  0.4196  0.6409 -0.1911
  738MOL0     C99552  11.647   1.266   1.698  0.0220  0.2280 -0.1471
  738MOL0     C99553  11.716   1.307   1.811 -0.0364  1.0164 -0.1896
  738MOL0     O99554  11.852   1.312   1.822 -0.0550 -0.3129  0.3738
  738MOL0     C99555  11.936   1.325   1.701  0.9274 -0.1588 -0.1550
  738MOL0     C99556  12.081   1.357   1.747 -0.9893 -0.1384 -0.8133
  738MOL0     C99557  12.158   1.239   1.807  1.1579  0.3245  0.2130
  738MOL0     C99558  12.243   1.155   1.706  0.1403 -0.5154  0.5185
  738MOL0     C99559  12.273   1.029   1.762 -0.4013 -0.5835 -0.4938
  738MOL0     C99560  12.321   0.927   1.800  0.5501 -0.7471  0.2278
  738MOL0     C99561  11.647   1.344   1.923  0.4515  0.0365 -0.3834
  738MOL0     C99562  11.504   1.345   1.929 -0.4095 -0.2532 -0.2791
  738MOL0     H99563  11.099   1.540   1.951 -0.9688  0.7816  1.0393
  738MOL0     H99564  10.844   1.561   1.956 -1.5172 -0.4434 -0.9563
  738MOL0     H99565  10.645   1.337   1.687  1.1806  1.3502 -0.0614
  738MOL0     H99566  10.574   1.210   1.787  0.7755 -0.2230 -1.2613
  738MOL0     H99567  10.400   1.344   1.707 -1.2334  2.1213 -0.5310
  738MOL0     H99568  10.411   1.358   1.880 -0.0035  0.0903  0.5047
  738MOL0     H99569  10.502   1.578   1.880 -0.7354  0.7555  0.5691
  738MOL0     H99570  10.558   1.556   1.711 -1.9829 -5.1819 -3.2264
  738MOL0     H99571  10.311   1.523   1.641  0.9858 -1.1299  0.0224
  738MOL0     H99572  10.258   1.584   1.787  0.4753 -0.4499  0.4928
  738MOL0     H99573  10.392   1.781   1.760 -1.1791  0.0074  0.6464
  738MOL0     H99574  10.434   1.736   1.589 -1.0295 -0.1720 -1.0108
  738MOL0     H99575  10.167   1.786   1.715 -0.7437  0.4749  0.0052
  738MOL0     H99576  10.249   1.892   1.601 -2.6000  0.2315 -0.9327
  738MOL0     H99577  10.275   1.709   1.435  0.8609 -0.4021  0.6015
  738MOL0     H99578  10.148   1.619   1.506 -0.5749 -0.2804 -2.2399
  738MOL0     H99579  10.054   1.773   1.319 -0.9560 -0.0264  0.4167
  738MOL0     H99580  10.134   1.908   1.396 -3.5805  2.0827  0.0510
  738MOL0     H99581   9.918   1.663   1.606  0.0181  1.0600  4.2476
  738MOL0     H99582   9.725   1.748   1.803  1.2113  2.1154  1.4307
  738MOL0     H99583   9.639   1.909   1.770 -1.5897 -0.7726  0.8372
  738MOL0     H99584   9.596   1.665   1.600  1.9753 -0.9010  0.7539
  738MOL0     H99585   9.538   1.831   1.581 -0.2422 -0.3778  0.4302
  738MOL0     H99586   9.374   1.744   1.653  0.1632 -0.1668  0.3685
  738MOL0     H99587   9.438   1.820   1.804 -3.9763 -1.3076  0.7400
  738MOL0     H99588   9.378   1.606   1.892  0.5712 -0.4314  0.1860
  738MOL0     H99589   9.542   1.591   1.837  1.4455 -2.6137 -3.0954
  738MOL0     H99590   9.188   1.669   1.701  0.0962 -1.1045  1.4133
  738MOL0     H99591   8.849   1.593   1.687 -0.5258  2.1812  0.5061
  738MOL0     H99592   8.975   1.716   1.696  0.1648  1.1365 -1.2607
  738MOL0     H99593   8.899   1.674   1.538  1.6231  0.1490 -0.5245
  738MOL0     H99594   8.807   1.049   1.586  0.6428 -0.6015 -1.0224
  738MOL0     H99595   8.583   0.929   1.596 -1.6540  0.7874  1.2055
  738MOL0     H99596   8.236   1.096   1.310 -1.0313  0.2181 -2.6151
  738MOL0     H99597   8.338   0.970   1.229 -1.6909  0.4764 -1.1414
  738MOL0     H99598   8.221   0.809   1.349  3.4651  1.0801 -0.1096
  738MOL0     H99599   8.138   0.928   1.453  0.3942  1.5294  0.0603
  738MOL0     H99600   8.110   0.948   1.154 -1.0027  2.0766  0.5678
  738MOL0     H99601   7.988   0.977   1.261  1.3971  1.2060 -1.0223
  738MOL0     H99602   8.005   0.755   1.100  0.0647  2.5546 -0.5766
  738MOL0     H99603   8.063   0.693   1.262  0.6708  2.6338  3.0217
  738MOL0     H99604   7.801   0.851   1.205 -1.7090 -1.3188 -1.4972
  738MOL0     H99605   7.847   0.769   1.359 -1.2083 -2.1355 -0.9865
  738MOL0     H99606   7.779   0.645   1.086 -0.2940  0.4956  0.0729
  738MOL0     H99607   7.866   0.552   1.223  1.5642  0.8770  1.1770
  738MOL0     H99608   7.609   0.521   1.210 -2.3715 -1.3594  3.7328
  738MOL0     H99609   7.602   0.699   1.265  1.8563  0.2606  0.7127
  738MOL0     H99610   7.751   0.489   1.411 -0.4976 -1.4368  0.8522
  738MOL0     H99611   7.576   0.502   1.418  1.7530 -2.0588 -2.7473
  738MOL0     H99612   8.454   1.164   1.260 -0.5353 -2.1167 -0.8944
  738MOL0     H99613   8.678   1.266   1.246 -0.1333  1.0560  1.5083
  738MOL0     H99614   9.120   1.229   1.495 -1.6301  0.9772 -2.1203
  738MOL0     H99615   9.328   1.279   1.615 -0.9676 -0.3630  0.3753
  738MOL0     H99616  10.810   1.140   1.837  0.2968  1.3855 -3.2218
  738MOL0     H99617  11.051   1.122   1.857  1.2704  0.7612 -0.6764
  738MOL0     H99618  11.470   1.203   1.622 -1.8086  2.2247 -0.2951
  738MOL0     H99619  11.708   1.243   1.611  1.4446 -1.9428  1.3221
  738MOL0     H99620  11.946   1.229   1.650  0.2076 -0.4927  0.3100
  738MOL0     H99621  11.899   1.403   1.634 -0.2153  1.8512  2.6257
  738MOL0     H99622  12.071   1.432   1.826  2.8693  1.1437 -1.3423
  738MOL0     H99623  12.130   1.405   1.662 -1.1418  2.2282  0.3361
  738MOL0     H99624  12.079   1.180   1.853 -1.7904  1.6171 -2.7962
  738MOL0     H99625  12.230   1.275   1.881  2.6098 -2.3154  0.2038
  738MOL0     H99626  12.336   1.209   1.684  0.7146 -1.9065 -0.6242
  738MOL0     H99627  12.198   1.136   1.608  1.5167 -0.6165 -0.1323
  738MOL0     H99628  12.351   0.832   1.839 -0.8727 -1.0484  0.6221
  738MOL0     H99629  11.703   1.369   2.012  0.2833 -2.9400  0.6376
  738MOL0     H99630  11.453   1.380   2.019  1.9449 -0.2324  1.1273
  739MOL0     O99631  10.485   6.972   7.995  0.0547 -0.8977  0.1401
  739MOL0     C99632  10.558   7.069   7.999  0.6651 -0.1280 -0.5750
  739MOL0     O99633  10.531   7.190   7.945  0.7179  0.5223  0.0734
  739MOL0     C99634  10.416   7.209   7.870  0.8591  0.5570  0.0228
  739MOL0     C99635  10.364   7.127   7.764  0.3561  0.1848 -0.5866
  739MOL0     C99636  10.251   7.173   7.691  0.8844  0.1956  0.3528
  739MOL0     C99637  10.183   7.296   7.717  0.0108 -0.0548 -0.8250
  739MOL0     O99638  10.068   7.332   7.661  0.3970  0.7919  0.3932
  739MOL0     C99639   9.987   7.233   7.591 -0.7728  0.5318  0.2182
  739MOL0     C99640   9.888   7.319   7.512 -0.4828 -0.3487 -0.7702
  739MOL0     C99641   9.796   7.406   7.596 -0.4871  0.2092 -0.4963
  739MOL0     C99642   9.690   7.307   7.663  0.3774  0.2311  0.9884
  739MOL0     C99643   9.586   7.388   7.734  0.2696 -0.0234  0.5959
  739MOL0     C99644   9.460   7.304   7.765 -0.1500 -0.4467 -0.7419
  739MOL0     C99645   9.352   7.394   7.841  0.3840  0.9466 -1.0137
  739MOL0     C99646   9.294   7.496   7.746 -0.2863  0.3706  0.0403
  739MOL0     N99647   9.219   7.437   7.641 -0.5231 -0.0725  0.3460
  739MOL0     C99648   9.102   7.366   7.660 -0.5316  1.1106 -0.9632
  739MOL0     C99649   9.082   7.309   7.543  0.3719  0.1205  0.1851
  739MOL0     C99650   8.967   7.228   7.522  0.6049 -0.5786  0.7604
  739MOL0     C99651   8.859   7.290   7.433 -0.1403 -0.0560 -0.4629
  739MOL0     C99652   8.814   7.422   7.490  0.1497 -0.3964  0.1218
  739MOL0     C99653   8.677   7.449   7.427 -1.2709 -0.2727 -0.0855
  739MOL0     O99654   8.576   7.406   7.516 -0.1694  0.3641 -0.1757
  739MOL0     C99655   8.446   7.438   7.480  0.6669 -0.5346 -0.9878
  739MOL0     C99656   8.407   7.503   7.367 -0.2655  0.0402 -0.1367
  739MOL0     C99657   8.278   7.507   7.323  0.5056 -0.4278 -0.7514
  739MOL0     C99658   8.257   7.598   7.201  0.1299 -0.8419 -0.9310
  739MOL0     C99659   8.179   7.450   7.403  0.0603  0.2422 -0.7721
  739MOL0     C99660   8.029   7.443   7.374  0.4908 -0.9853 -0.6015
  739MOL0     O99661   7.951   7.367   7.454  0.3220  0.1158  0.1499
  739MOL0     C99662   7.810   7.366   7.437 -0.0854 -0.3368  0.0239
  739MOL0     C99663   7.727   7.437   7.356  0.3872 -0.1218  0.1365
  739MOL0     C99664   7.585   7.412   7.342 -1.0319 -0.1651 -0.6125
  739MOL0     C99665   7.529   7.308   7.424  0.3720  0.9167  0.3877
  739MOL0     O99666   7.396   7.258   7.433 -0.0251  0.2961  0.2193
  739MOL0     C99667   7.301   7.366   7.445 -0.7916  0.1571 -0.5860
  739MOL0     C99668   7.168   7.305   7.460  0.0786  0.4575 -0.3312
  739MOL0     C99669   7.052   7.414   7.469 -0.1535  0.0504  0.0187
  739MOL0     C99670   6.915   7.358   7.515 -0.2289 -0.2521 -0.3895
  739MOL0     C99671   6.803   7.441   7.458 -0.2994 -0.0579 -0.0466
  739MOL0     C99672   6.670   7.380   7.506  0.6275  0.4378  0.0328
  739MOL0     C99673   6.548   7.460   7.457  0.1253  0.4222 -0.7046
  739MOL0     C99674   6.411   7.403   7.504 -0.9316 -0.3231  0.4030
  739MOL0    Cl99675   6.367   7.435   7.681  0.0679 -0.0929  0.0474
  739MOL0     C99676   7.614   7.228   7.495 -1.1460  0.1102 -0.1646
  739MOL0     C99677   7.749   7.262   7.507 -0.2905  0.1847  0.7959
  739MOL0     O99678   7.996   7.502   7.276  0.2382 -1.0919 -0.0352
  739MOL0     C99679   8.220   7.387   7.527  0.6682 -0.7016  0.5334
  739MOL0     C99680   8.351   7.379   7.564 -0.4248  0.2706  0.2505
  739MOL0     N99681   9.178   7.346   7.455  0.1987 -0.0237  1.2161
  739MOL0     N99682   9.264   7.425   7.512 -0.9515  0.3883 -0.6160
  739MOL0     C99683  10.242   7.379   7.817 -0.5170  0.1228 -0.0121
  739MOL0     C99684  10.355   7.330   7.895  0.4703  0.1276  0.0323
  739MOL0     C99685  10.683   7.053   8.091  1.2639 -0.8044 -0.0098
  739MOL0     C99686  10.738   7.161   8.154 -0.6770 -0.1841 -0.0147
  739MOL0     C99687  10.848   7.143   8.245 -0.3872  1.0923 -0.4713
  739MOL0     C99688  10.916   7.021   8.254 -0.3207 -0.4151  0.6649
  739MOL0     O99689  11.024   7.009   8.345  0.0956 -0.3513 -0.3908
  739MOL0     C99690  11.136   7.097   8.313  0.5690 -0.6687  0.6426
  739MOL0     C99691  11.245   7.037   8.233 -0.2589  0.4346  1.3083
  739MOL0     C99692  11.364   6.973   8.306 -0.8167 -0.2939  0.8582
  739MOL0     C99693  11.484   6.955   8.210 -0.6076  0.4781 -0.7140
  739MOL0     C99694  11.597   6.897   8.287 -0.1276 -0.0261  0.1841
  739MOL0     C99695  11.708   6.877   8.346  0.6609  0.7296 -0.1795
  739MOL0     C99696  10.856   6.907   8.199  0.0439 -0.5321  0.9949
  739MOL0     C99697  10.740   6.926   8.116 -0.0213 -0.3635 -0.5228
  739MOL0     H99698  10.405   7.027   7.754 -2.3201 -0.9411 -1.2189
  739MOL0     H99699  10.210   7.102   7.619 -0.8609 -0.6684  2.1195
  739MOL0     H99700  10.040   7.176   7.514 -0.2905  2.3471 -0.8467
  739MOL0     H99701   9.934   7.163   7.655 -2.5378  0.4515 -1.2466
  739MOL0     H99702   9.950   7.385   7.451  1.9771 -0.3283  1.5648
  739MOL0     H99703   9.836   7.253   7.442 -0.7783  0.9566 -1.8176
  739MOL0     H99704   9.844   7.467   7.672 -0.8429  3.3779 -2.6546
  739MOL0     H99705   9.742   7.480   7.537 -1.9196  1.0948  1.8182
  739MOL0     H99706   9.637   7.250   7.587  2.1770  0.7178 -0.7298
  739MOL0     H99707   9.749   7.244   7.731  1.9855 -0.8478 -1.2607
  739MOL0     H99708   9.636   7.422   7.825  0.1634 -1.7298  1.3215
  739MOL0     H99709   9.548   7.469   7.670  1.0205 -0.2715 -0.1722
  739MOL0     H99710   9.417   7.261   7.674  0.7554  0.8655 -1.8271
  739MOL0     H99711   9.496   7.224   7.831  2.0339  1.2113  0.2284
  739MOL0     H99712   9.275   7.321   7.868 -1.0496  2.7114 -0.1035
  739MOL0     H99713   9.388   7.426   7.939 -0.9150 -0.3697 -0.0699
  739MOL0     H99714   9.373   7.560   7.704 -1.7764  0.8463 -2.1660
  739MOL0     H99715   9.230   7.558   7.809 -1.4263 -1.4792  0.7852
  739MOL0     H99716   9.067   7.344   7.760  0.7192 -0.2308 -0.8005
  739MOL0     H99717   9.008   7.131   7.489  0.0315 -0.9716  1.1891
  739MOL0     H99718   8.923   7.198   7.618 -0.6786  0.1056  0.4032
  739MOL0     H99719   8.771   7.227   7.436  0.4987 -0.9391  0.2584
  739MOL0     H99720   8.902   7.298   7.333 -0.1774  2.5252 -0.3473
  739MOL0     H99721   8.882   7.506   7.474  1.7475 -1.7746 -0.6473
  739MOL0     H99722   8.798   7.405   7.597  1.2212 -2.9792 -0.0474
  739MOL0     H99723   8.677   7.390   7.335  4.2375 -1.1844  0.1523
  739MOL0     H99724   8.677   7.557   7.410 -0.3183 -0.3001 -0.3734
  739MOL0     H99725   8.477   7.554   7.303  0.5899  1.2185  1.6692
  739MOL0     H99726   8.347   7.643   7.157  0.9651 -0.4379  1.0764
  739MOL0     H99727   8.200   7.539   7.128  0.6342 -2.8228  0.2040
  739MOL0     H99728   8.192   7.681   7.231  3.2317  1.4179  0.0066
  739MOL0     H99729   7.762   7.518   7.293  0.3302 -0.3050 -0.1341
  739MOL0     H99730   7.532   7.477   7.273 -0.5070 -0.5076 -1.3548
  739MOL0     H99731   7.323   7.424   7.535  0.9092 -2.3021  0.7140
  739MOL0     H99732   7.299   7.434   7.360  3.6613  2.5733  0.8809
  739MOL0     H99733   7.149   7.251   7.367 -0.9185 -0.2238  0.2435
  739MOL0     H99734   7.170   7.242   7.549  0.2795  1.0576  0.0942
  739MOL0     H99735   7.035   7.448   7.367  3.0498 -0.8506 -0.9166
  739MOL0     H99736   7.078   7.502   7.528 -0.9197  0.3550 -0.0936
  739MOL0     H99737   6.911   7.251   7.490  0.4227 -0.1109 -1.1581
  739MOL0     H99738   6.918   7.363   7.624  2.1706 -2.0886 -0.2781
  739MOL0     H99739   6.797   7.426   7.350 -1.1355 -2.0235  0.2367
  739MOL0     H99740   6.805   7.546   7.491 -0.5750 -0.6710  2.0872
  739MOL0     H99741   6.660   7.279   7.467 -1.8928  0.1464  1.2404
  739MOL0     H99742   6.686   7.378   7.614 -1.2825 -1.4730  0.3365
  739MOL0     H99743   6.553   7.442   7.350 -0.7578 -0.3126 -0.6369
  739MOL0     H99744   6.553   7.568   7.474 -1.1180  0.4792 -0.5849
  739MOL0     H99745   6.426   7.296   7.488 -1.7855 -0.5130  0.8004
  739MOL0     H99746   6.334   7.446   7.441 -0.6598  0.1106  0.3632
  739MOL0     H99747   7.582   7.141   7.551  0.4335 -0.6383 -0.3682
  739MOL0     H99748   7.816   7.211   7.575  0.6936  0.7354  0.2465
  739MOL0     H99749   8.152   7.345   7.600  0.9544  1.8290  2.3594
  739MOL0     H99750   8.386   7.321   7.648 -0.8319 -0.8523 -0.3313
  739MOL0     H99751  10.200   7.479   7.813 -2.0850 -0.5297 -0.7523
  739MOL0     H99752  10.408   7.383   7.973  1.7799 -0.5338 -0.3771
  739MOL0     H99753  10.698   7.258   8.124  0.1613 -0.0409 -0.7414
  739MOL0     H99754  10.878   7.227   8.306 -0.6598 -0.1008  1.3847
  739MOL0     H99755  11.084   7.176   8.259 -1.4490 -2.8944 -0.8831
  739MOL0     H99756  11.186   7.131   8.404 -0.3082  0.4735  0.7223
  739MOL0     H99757  11.277   7.114   8.162 -1.1061 -0.2903  0.1112
  739MOL0     H99758  11.198   6.962   8.168  1.8962  0.0673  0.0713
  739MOL0     H99759  11.331   6.880   8.353 -0.5401  0.2422  2.1521
  739MOL0     H99760  11.394   7.046   8.381 -0.7662 -0.9523  1.4891
  739MOL0     H99761  11.521   7.045   8.161  1.8031  0.2651  0.5677
  739MOL0     H99762  11.454   6.884   8.132  0.1415 -0.5846 -0.0620
  739MOL0     H99763  11.795   6.837   8.394  1.8176  0.0538 -2.6627
  739MOL0     H99764  10.879   6.805   8.225  0.0877 -0.7971 -0.0299
  739MOL0     H99765  10.687   6.845   8.067 -1.1439  0.0810 -0.0582
  740MOL0     O99766   3.351   4.031   0.234  0.6288  0.4618 -0.0906
  740MOL0     C99767   3.310   4.145   0.265 -0.0981  0.7796 -0.3072
  740MOL0     O99768   3.190   4.201   0.263  0.1605 -0.0735  0.2221
  740MOL0     C99769   3.086   4.133   0.210 -0.0102  0.6265  0.0969
  740MOL0     C99770   3.096   4.022   0.121 -0.1338  0.7102 -0.0709
  740MOL0     C99771   2.971   3.959   0.090  0.2001 -0.7424  0.1304
  740MOL0     C99772   2.855   3.983   0.157 -0.4587 -0.3111  0.0789
  740MOL0     O99773   2.742   3.904   0.146  0.5468 -0.5410  0.5045
  740MOL0     C99774   2.712   3.860   0.014  0.5515 -0.4622 -0.6577
  740MOL0     C99775   2.571   3.810   0.019  0.4247 -0.2759 -0.3044
  740MOL0     C99776   2.469   3.928   0.020  0.4968  0.2849 -0.0853
  740MOL0     C99777   2.391   3.922  -0.119  0.1776 -0.3367  0.1807
  740MOL0     C99778   2.277   4.021  -0.127  0.0973 -0.0144 -0.0969
  740MOL0     C99779   2.226   4.027  -0.273  0.6109  0.1335 -0.1671
  740MOL0     C99780   2.102   4.114  -0.295 -1.2782  0.1095 -0.2245
  740MOL0     C99781   2.064   4.113  -0.444  0.3704 -0.1347  0.2918
  740MOL0     N99782   1.954   4.200  -0.451  0.1125  0.0349 -0.9210
  740MOL0     C99783   1.947   4.337  -0.436  0.0393  0.1742 -0.6069
  740MOL0     C99784   1.820   4.361  -0.472  0.9768 -0.0701  0.3443
  740MOL0     C99785   1.762   4.505  -0.485 -0.7295  1.0113 -0.1044
  740MOL0     C99786   1.625   4.522  -0.529  0.4753 -0.2661  0.1023
  740MOL0     C99787   1.531   4.488  -0.420 -0.1000  0.3963  0.2074
  740MOL0     C99788   1.391   4.467  -0.465  0.0242  0.9676  0.3181
  740MOL0     O99789   1.307   4.428  -0.362 -0.2908  0.0767  0.0174
  740MOL0     C99790   1.167   4.402  -0.382  0.1597  0.5996  0.2232
  740MOL0     C99791   1.102   4.350  -0.271  0.3417 -0.5457 -0.4374
  740MOL0     C99792   0.956   4.333  -0.262  0.1164 -0.3440  0.0596
  740MOL0     C99793   0.898   4.301  -0.129  0.1546  0.3694  0.8489
  740MOL0     C99794   0.884   4.355  -0.383 -0.0734  0.1815 -0.5699
  740MOL0     C99795   0.738   4.322  -0.391  0.4242  0.3288 -0.4583
  740MOL0     O99796   0.683   4.317  -0.516 -0.4523  0.7314  0.2368
  740MOL0     C99797   0.562   4.252  -0.539  0.2567  0.0522  0.3236
  740MOL0     C99798   0.441   4.297  -0.488 -1.3795  0.0312 -0.2605
  740MOL0     C99799   0.330   4.232  -0.520  0.4714  0.4887 -0.3289
  740MOL0     C99800   0.336   4.118  -0.610 -0.6240 -0.4201  0.4441
  740MOL0     O99801   0.223   4.048  -0.630  0.0886 -0.0306  0.0713
  740MOL0     C99802   0.207   3.989  -0.757 -0.8342  0.7088  1.2346
  740MOL0     C99803   0.056   3.974  -0.795  0.6243  0.7752 -0.2908
  740MOL0     C99804  -0.007   4.111  -0.822  0.1270 -0.5648  0.0215
  740MOL0     C99805  -0.147   4.080  -0.867  0.5689 -0.2447  0.2199
  740MOL0     C99806  -0.239   4.209  -0.885 -0.3525  0.2878  0.2533
  740MOL0     C99807  -0.303   4.248  -0.756 -0.4116  0.6210  0.8815
  740MOL0     C99808  -0.390   4.370  -0.777 -0.6709 -0.1531 -0.3514
  740MOL0     C99809  -0.468   4.406  -0.655  0.9109  0.6487 -0.3858
  740MOL0    Cl99810  -0.597   4.278  -0.613  0.0612  0.3630  0.2982
  740MOL0     C99811   0.459   4.072  -0.653  0.4747  0.9333 -0.0250
  740MOL0     C99812   0.568   4.133  -0.621 -0.3713 -1.0217  0.1185
  740MOL0     O99813   0.674   4.312  -0.290  0.6518 -0.4347  0.7702
  740MOL0     C99814   0.956   4.394  -0.500  0.4803 -0.5118  0.8137
  740MOL0     C99815   1.093   4.420  -0.499  0.3136  0.7404 -0.1860
  740MOL0     N99816   1.757   4.250  -0.509 -0.0354  0.6949  0.1688
  740MOL0     N99817   1.840   4.149  -0.491  0.8627 -0.8162  0.0525
  740MOL0     C99818   2.846   4.095   0.236 -0.6470  0.0708  0.6233
  740MOL0     C99819   2.962   4.168   0.265  0.2727  0.5786 -0.3632
  740MOL0     C99820   3.412   4.235   0.331 -0.1425 -0.1068 -0.5520
  740MOL0     C99821   3.389   4.368   0.336 -0.0579  0.3009  0.7631
  740MOL0     C99822   3.494   4.454   0.379  0.9817 -0.2149  0.2953
  740MOL0     C99823   3.613   4.410   0.428  0.2943  0.5307  0.3105
  740MOL0     O99824   3.713   4.483   0.486  0.1399  0.4327  0.2899
  740MOL0     C99825   3.705   4.626   0.471  0.4916  0.6407  0.4897
  740MOL0     C99826   3.819   4.692   0.535 -0.3191 -1.0081 -0.1799
  740MOL0     C99827   3.824   4.669   0.682 -0.4730  0.2173  0.0367
  740MOL0     C99828   3.931   4.757   0.752  0.4927 -0.8954  0.4365
  740MOL0     C99829   4.064   4.702   0.740 -0.9471 -0.5505  1.0168
  740MOL0     C99830   4.179   4.661   0.728 -0.1146  0.2998 -0.3007
  740MOL0     C99831   3.620   4.271   0.433  0.1309 -0.6633 -0.7182
  740MOL0     C99832   3.530   4.184   0.384  0.0244  0.4395  0.4274
  740MOL0     H99833   3.187   3.989   0.072 -0.7060 -1.4858  0.2139
  740MOL0     H99834   2.982   3.880   0.016 -0.2848 -0.9935  0.3190
  740MOL0     H99835   2.717   3.939  -0.060 -3.3712  0.2564 -0.3720
  740MOL0     H99836   2.782   3.779  -0.009  1.6443  0.5703 -1.0234
  740MOL0     H99837   2.554   3.747  -0.068 -3.4175 -0.6337  0.5127
  740MOL0     H99838   2.558   3.744   0.106  0.5894  1.5106  1.1411
  740MOL0     H99839   2.403   3.915   0.106  0.2635 -0.6124 -0.3919
  740MOL0     H99840   2.521   4.024   0.029  0.8374  0.4382 -2.9003
  740MOL0     H99841   2.463   3.937  -0.200  0.6772 -1.0272  0.4908
  740MOL0     H99842   2.347   3.823  -0.133  3.1138 -1.8022  0.7144
  740MOL0     H99843   2.198   3.994  -0.056  0.2807 -2.9834 -0.8850
  740MOL0     H99844   2.315   4.121  -0.104 -0.2343  0.0107  0.3617
  740MOL0     H99845   2.303   4.078  -0.332  0.9618 -1.0450 -0.7428
  740MOL0     H99846   2.213   3.926  -0.313  3.0044  0.2609 -1.4464
  740MOL0     H99847   2.019   4.087  -0.229 -2.7928  2.0929 -1.1764
  740MOL0     H99848   2.124   4.219  -0.271 -0.5042 -0.2200  0.5301
  740MOL0     H99849   2.038   4.010  -0.470 -2.9750  0.5053  0.6319
  740MOL0     H99850   2.148   4.154  -0.501  0.9008 -1.5601  0.0171
  740MOL0     H99851   2.023   4.409  -0.405  0.5169 -0.5582 -0.0477
  740MOL0     H99852   1.778   4.547  -0.385 -0.1379  0.2954  0.1056
  740MOL0     H99853   1.828   4.562  -0.551 -1.1536  0.1292 -1.3292
  740MOL0     H99854   1.612   4.453  -0.613  0.3535  0.6912 -0.6773
  740MOL0     H99855   1.598   4.621  -0.565  1.8237 -0.3541 -1.1968
  740MOL0     H99856   1.542   4.566  -0.344  0.2607  0.0694  0.4956
  740MOL0     H99857   1.556   4.392  -0.374 -2.9825 -0.7587 -0.3821
  740MOL0     H99858   1.392   4.385  -0.537  1.2055  2.0745 -0.9936
  740MOL0     H99859   1.360   4.562  -0.509 -0.0557  0.2992 -1.1122
  740MOL0     H99860   1.163   4.339  -0.182 -2.2271 -0.4249  1.4485
  740MOL0     H99861   0.832   4.213  -0.124  1.9456 -1.0056  1.7543
  740MOL0     H99862   0.982   4.280  -0.062  0.6696  0.0853  0.1288
  740MOL0     H99863   0.856   4.394  -0.090 -0.5197  0.6742 -0.5327
  740MOL0     H99864   0.453   4.382  -0.422 -0.8019  0.0228 -0.3541
  740MOL0     H99865   0.232   4.269  -0.491  1.8853  1.2106  4.1170
  740MOL0     H99866   0.254   4.042  -0.841 -1.1085 -1.3026 -0.2928
  740MOL0     H99867   0.253   3.889  -0.755  0.2597  1.1331 -0.5462
  740MOL0     H99868   0.045   3.908  -0.881 -0.6479  1.9708 -1.0980
  740MOL0     H99869   0.004   3.933  -0.707 -2.4825  0.6375 -2.0280
  740MOL0     H99870   0.052   4.162  -0.898  1.4273 -2.2148 -0.1335
  740MOL0     H99871  -0.005   4.173  -0.731  1.4109 -0.5719  0.0163
  740MOL0     H99872  -0.156   4.024  -0.961  0.9979 -1.1860  0.7310
  740MOL0     H99873  -0.209   4.016  -0.803  1.7007 -0.8023  0.7782
  740MOL0     H99874  -0.319   4.186  -0.956  1.1433 -1.0237 -1.0980
  740MOL0     H99875  -0.187   4.295  -0.927 -0.7834 -0.9876 -3.2634
  740MOL0     H99876  -0.372   4.167  -0.732  1.7354 -1.7827 -0.5271
  740MOL0     H99877  -0.227   4.257  -0.677 -1.3151 -1.1710  2.0318
  740MOL0     H99878  -0.458   4.346  -0.859 -2.4245  0.0058  1.0109
  740MOL0     H99879  -0.327   4.451  -0.814 -2.1963  0.8714 -0.7735
  740MOL0     H99880  -0.527   4.497  -0.673 -1.7980 -0.6924  1.1173
  740MOL0     H99881  -0.399   4.415  -0.570  1.0585 -0.1082 -0.4194
  740MOL0     H99882   0.461   3.974  -0.700 -3.1694  0.7256 -0.0384
  740MOL0     H99883   0.657   4.092  -0.668  0.2132  0.0155  0.2900
  740MOL0     H99884   0.893   4.400  -0.588 -0.7873 -0.6330  1.6865
  740MOL0     H99885   1.142   4.469  -0.583 -0.7981  1.4433 -0.4481
  740MOL0     H99886   2.748   4.119   0.277 -0.5711  0.4325  0.5935
  740MOL0     H99887   2.949   4.250   0.335 -1.0179 -0.4242  0.6242
  740MOL0     H99888   3.296   4.406   0.294  0.8270  0.3595 -1.2575
  740MOL0     H99889   3.478   4.562   0.381 -1.5759 -0.5367  0.5210
  740MOL0     H99890   3.701   4.665   0.369 -0.0328  0.1306  0.3075
  740MOL0     H99891   3.607   4.653   0.511 -1.0752 -1.8036 -1.4118
  740MOL0     H99892   3.812   4.801   0.524  0.5225 -0.9596 -0.3296
  740MOL0     H99893   3.910   4.659   0.485 -0.0394 -0.2933 -0.1556
  740MOL0     H99894   3.823   4.567   0.723  0.9834  1.4407  3.5258
  740MOL0     H99895   3.729   4.705   0.722 -0.5690 -0.3390  0.3266
  740MOL0     H99896   3.903   4.760   0.857 -1.5751  1.5046 -0.0821
  740MOL0     H99897   3.921   4.860   0.716 -0.0484 -0.3699  2.0054
  740MOL0     H99898   4.283   4.632   0.726  0.2535  1.5016  0.6008
  740MOL0     H99899   3.705   4.218   0.476 -1.8551 -2.4087  1.3139
  740MOL0     H99900   3.552   4.077   0.384 -0.6590  0.2812 -0.8738
  741MOL0     O99901   7.501   0.154   3.670  1.3899 -0.1992 -0.2505
  741MOL0     C99902   7.436   0.079   3.601 -0.1551  0.4092  0.4132
  741MOL0     O99903   7.298   0.061   3.614  0.7630  0.0202 -0.7445
  741MOL0     C99904   7.222   0.139   3.700  0.9882  0.1653 -0.2998
  741MOL0     C99905   7.140   0.083   3.798 -0.1884  0.7898  0.4291
  741MOL0     C99906   7.072   0.171   3.884  0.4509  0.6606 -0.0547
  741MOL0     C99907   7.053   0.310   3.857  0.1484  0.5187 -0.4049
  741MOL0     O99908   6.968   0.380   3.940 -0.0858 -0.2059 -0.8667
  741MOL0     C99909   6.949   0.519   3.930  0.7951 -0.0671  0.1396
  741MOL0     C99910   6.859   0.569   4.061 -0.1936  0.7094  0.7716
  741MOL0     C99911   6.831   0.715   4.045 -0.0616 -0.5708 -0.2407
  741MOL0     C99912   6.741   0.768   4.159  0.6744 -0.5533  0.6358
  741MOL0     C99913   6.654   0.883   4.123  0.3407 -0.4918  0.1367
  741MOL0     C99914   6.560   0.921   4.234 -0.1258 -0.4988  0.0877
  741MOL0     C99915   6.416   0.965   4.186  0.1236  0.3050  0.2444
  741MOL0     C99916   6.329   0.979   4.308  0.8632 -0.1495 -0.0698
  741MOL0     N99917   6.187   1.020   4.269  0.2789  0.6124 -0.3536
  741MOL0     C99918   6.078   1.018   4.352 -0.2048  1.1353 -0.2836
  741MOL0     C99919   5.977   1.081   4.293 -0.7620 -0.2709 -0.5802
  741MOL0     C99920   5.843   1.091   4.338 -0.1562 -0.0207  0.0613
  741MOL0     C99921   5.765   0.962   4.320  0.0303  0.5131  0.5983
  741MOL0     C99922   5.710   0.944   4.181 -0.7394  0.5097 -1.9404
  741MOL0     C99923   5.640   0.812   4.146  0.3890 -0.9573 -0.1645
  741MOL0     O99924   5.573   0.841   4.023  0.7137  0.4732 -0.0134
  741MOL0     C99925   5.440   0.864   4.014 -0.8480 -0.3835 -0.3203
  741MOL0     C99926   5.379   0.846   3.885  0.5596  0.1731 -0.1210
  741MOL0     C99927   5.244   0.891   3.864 -0.3326 -0.1994 -0.5260
  741MOL0     C99928   5.177   0.876   3.728  0.4037  0.1334 -0.2596
  741MOL0     C99929   5.172   0.935   3.975  0.4938 -0.2912 -0.7799
  741MOL0     C99930   5.032   0.982   3.975  0.3537  0.7144  0.7697
  741MOL0     O99931   4.965   0.958   4.090  0.0967  0.1386  0.6744
  741MOL0     C99932   4.850   1.014   4.108  0.0695 -0.4032 -0.4250
  741MOL0     C99933   4.733   0.982   4.034 -0.4441  0.6005 -0.0795
  741MOL0     C99934   4.611   1.043   4.069  0.8246  0.1619 -0.8352
  741MOL0     C99935   4.598   1.129   4.178 -0.2507  0.0740  0.4193
  741MOL0     O99936   4.471   1.183   4.201 -0.1803 -0.0018  0.8213
  741MOL0     C99937   4.427   1.173   4.332  0.1077  0.3868  0.1716
  741MOL0     C99938   4.334   1.284   4.377  0.5900 -0.2473  0.0278
  741MOL0     C99939   4.274   1.237   4.515  0.3880 -0.7985 -0.3253
  741MOL0     C99940   4.164   1.122   4.509 -0.2290  0.0787  0.1882
  741MOL0     C99941   4.068   1.112   4.629  0.2941  0.1782  0.0960
  741MOL0     C99942   3.993   0.986   4.638  0.6610  0.2010 -0.2118
  741MOL0     C99943   3.896   0.938   4.522 -1.0427  0.0606 -0.4079
  741MOL0     C99944   3.795   1.045   4.488  0.1427 -0.2745 -0.5658
  741MOL0    Cl99945   3.698   0.981   4.357 -0.2435 -0.7082  0.1853
  741MOL0     C99946   4.714   1.155   4.257 -1.1747 -0.0857 -0.1386
  741MOL0     C99947   4.837   1.103   4.215  0.5930 -0.1071  0.1025
  741MOL0     O99948   4.991   1.033   3.869  0.2538 -0.5732  0.0687
  741MOL0     C99949   5.226   0.934   4.107 -0.5678  0.0519 -0.5334
  741MOL0     C99950   5.364   0.902   4.124  0.0758  0.5736 -0.0004
  741MOL0     N99951   6.030   1.122   4.167  0.1730 -0.6028 -0.1865
  741MOL0     N99952   6.157   1.087   4.162 -0.1183  0.1162 -0.4339
  741MOL0     C99953   7.124   0.360   3.747  0.6919  0.5305  0.4300
  741MOL0     C99954   7.208   0.274   3.675  0.4513  0.5015  0.0018
  741MOL0     C99955   7.509  -0.009   3.503 -0.5050 -0.0213 -0.1494
  741MOL0     C99956   7.646  -0.043   3.512  0.5769 -1.0592 -0.2046
  741MOL0     C99957   7.710  -0.109   3.408 -0.0768  0.1424 -0.6056
  741MOL0     C99958   7.639  -0.147   3.290  0.2789 -1.5915 -0.0066
  741MOL0     O99959   7.707  -0.204   3.190  0.2907 -0.1997 -0.2097
  741MOL0     C99960   7.651  -0.225   3.060 -0.8102 -0.0915 -0.2606
  741MOL0     C99961   7.775  -0.291   2.988  0.7857  0.1080 -0.2068
  741MOL0     C99962   7.762  -0.283   2.836  0.1915  0.3418  0.1400
  741MOL0     C99963   7.818  -0.152   2.780 -0.1579 -0.1894  0.9635
  741MOL0     C99964   7.718  -0.040   2.780  0.9713 -0.1840 -0.5497
  741MOL0     C99965   7.641   0.053   2.796 -0.4921 -0.5108  0.0435
  741MOL0     C99966   7.509  -0.112   3.280 -0.0290 -0.5040  0.3655
  741MOL0     C99967   7.437  -0.050   3.393 -0.0818  1.0281 -0.5186
  741MOL0     H99968   7.151  -0.025   3.802 -1.8373  0.6005  0.8958
  741MOL0     H99969   7.009   0.137   3.966  0.6398 -0.9084 -0.5201
  741MOL0     H99970   7.044   0.572   3.932 -0.6570  2.6773  2.0610
  741MOL0     H99971   6.901   0.538   3.833  1.9327  1.3325 -0.1784
  741MOL0     H99972   6.767   0.510   4.067  0.7410 -0.7017  2.6296
  741MOL0     H99973   6.916   0.565   4.155  1.6913  1.4013 -0.2893
  741MOL0     H99974   6.926   0.766   4.059  0.4985 -1.7810  0.4466
  741MOL0     H99975   6.803   0.736   3.941  4.0477 -1.5951 -1.7444
  741MOL0     H99976   6.681   0.683   4.193  3.9618 -2.6346  1.7479
  741MOL0     H99977   6.805   0.801   4.241  0.9485  0.1130  0.1551
  741MOL0     H99978   6.724   0.965   4.105 -1.5214  1.6598  1.9932
  741MOL0     H99979   6.602   0.861   4.029  1.5876 -0.8608 -0.4755
  741MOL0     H99980   6.548   0.829   4.292 -2.3727 -0.4252 -0.2047
  741MOL0     H99981   6.604   1.004   4.291  0.1320  1.6834 -3.0152
  741MOL0     H99982   6.415   1.061   4.134  2.3745  0.3545  0.1792
  741MOL0     H99983   6.370   0.888   4.123 -0.4350 -1.0274  2.1820
  741MOL0     H99984   6.366   1.052   4.380  1.0201 -0.9421  0.6756
  741MOL0     H99985   6.328   0.889   4.370  0.3798  0.8375  1.3996
  741MOL0     H99986   6.062   0.976   4.451  1.1654  2.5632  0.5829
  741MOL0     H99987   5.828   1.130   4.439 -0.4485 -1.2912  0.5306
  741MOL0     H99988   5.798   1.165   4.271  4.0753  1.5794 -1.3678
  741MOL0     H99989   5.674   0.970   4.380 -0.0598  0.5862  0.4530
  741MOL0     H99990   5.814   0.869   4.349 -0.0871  0.1567 -0.3302
  741MOL0     H99991   5.793   0.946   4.109  0.2548  0.7278 -0.8167
  741MOL0     H99992   5.636   1.021   4.160 -2.7524 -0.8368 -0.2378
  741MOL0     H99993   5.585   0.784   4.237 -0.1314 -2.5937 -0.9474
  741MOL0     H99994   5.707   0.729   4.125  0.3490 -0.6452 -1.6603
  741MOL0     H99995   5.433   0.815   3.797  1.0198 -1.1254  0.5819
  741MOL0     H99996   5.071   0.849   3.732  0.3761  0.4173  1.4818
  741MOL0     H99997   5.182   0.973   3.677 -1.4046  1.4278  1.8338
  741MOL0     H99998   5.231   0.805   3.665 -2.6128 -0.4396 -2.4258
  741MOL0     H99999   4.739   0.911   3.952  0.4772  0.2154  0.3149
  741MOL0     H    0   4.525   1.017   4.007  1.4570 -1.2423 -1.1561
  741MOL0     H    1   4.376   1.076   4.339  3.6117 -1.6191 -0.1633
  741MOL0     H    2   4.510   1.173   4.403  1.3827  0.5980 -1.2811
  741MOL0     H    3   4.388   1.378   4.388  0.6002 -0.3457  0.8980
  741MOL0     H    4   4.256   1.284   4.300  1.4182 -2.5974 -0.9214
  741MOL0     H    5   4.219   1.320   4.559 -1.3411 -3.1795  2.4050
  741MOL0     H    6   4.352   1.211   4.587 -0.4167 -0.0851  0.8436
  741MOL0     H    7   4.108   1.154   4.420  0.1072  3.8127  1.1693
  741MOL0     H    8   4.210   1.026   4.482  1.0898  0.4518  1.0469
  741MOL0     H    9   3.988   1.185   4.621 -1.7874 -1.8920  0.7405
  741MOL0     H   10   4.128   1.122   4.720 -2.7890 -0.6994  2.4010
  741MOL0     H   11   4.061   0.904   4.664  2.6555  2.1829  1.2665
  741MOL0     H   12   3.939   0.993   4.732 -0.9860  3.0346 -1.2314
  741MOL0     H   13   3.842   0.856   4.571 -0.3854  0.6986  1.4355
  741MOL0     H   14   3.953   0.916   4.431  0.5185  1.2251  0.2489
  741MOL0     H   15   3.840   1.131   4.439  0.4478  0.7462  1.4093
  741MOL0     H   16   3.744   1.068   4.582  0.0722 -2.6332  0.0432
  741MOL0     H   17   4.715   1.228   4.337  3.0749 -0.7186  0.5871
  741MOL0     H   18   4.933   1.117   4.263 -0.4141 -0.3698  2.2969
  741MOL0     H   19   5.164   0.960   4.191 -1.4187 -0.9328 -0.8301
  741MOL0     H   20   5.410   0.912   4.222 -1.1530 -1.1046  0.8090
  741MOL0     H   21   7.108   0.462   3.714 -0.1696  0.2108 -0.1800
  741MOL0     H   22   7.261   0.314   3.588 -2.1219  2.4016 -0.8099
  741MOL0     H   23   7.704  -0.020   3.600 -0.8418 -2.3303  1.1356
  741MOL0     H   24   7.817  -0.126   3.415 -0.4387 -1.5944  2.1138
  741MOL0     H   25   7.564  -0.291   3.066 -1.1467  0.0922 -2.3545
  741MOL0     H   26   7.614  -0.136   3.009  0.4871  0.3148 -0.5284
  741MOL0     H   27   7.782  -0.396   3.018  0.5210  0.6712  2.0229
  741MOL0     H   28   7.867  -0.246   3.027  1.2219 -0.3185 -0.7334
  741MOL0     H   29   7.657  -0.291   2.806 -0.5748  3.8408  1.4531
  741MOL0     H   30   7.818  -0.371   2.802 -0.0382  0.1690  0.2055
  741MOL0     H   31   7.842  -0.151   2.673 -0.9961  2.2490  0.7531
  741MOL0     H   32   7.913  -0.125   2.828  0.8526  1.6709 -1.8170
  741MOL0     H   33   7.558   0.118   2.813 -0.1652 -0.3611  1.1864
  741MOL0     H   34   7.443  -0.160   3.208 -1.1066 -4.4190  3.5996
  741MOL0     H   35   7.329  -0.040   3.383 -0.7641 -2.0168  2.2386
  742MOL0     O   36   2.979   8.330   2.499  0.2915 -0.0459  0.5086
  742MOL0     C   37   2.943   8.264   2.603  0.1594 -0.1983  0.2647
  742MOL0     O   38   2.827   8.273   2.675 -0.2805  0.2151  1.1185
  742MOL0     C   39   2.723   8.347   2.618 -0.0356 -0.5179 -0.1377
  742MOL0     C   40   2.727   8.475   2.563 -0.4198  0.2573 -1.1002
  742MOL0     C   41   2.607   8.532   2.520 -0.0969 -0.1891  0.4541
  742MOL0     C   42   2.485   8.468   2.518 -0.1174 -0.1514  0.0204
  742MOL0     O   43   2.374   8.524   2.465 -0.3544 -0.0990  0.4027
  742MOL0     C   44   2.397   8.643   2.379  0.4408  0.1146  0.9049
  742MOL0     C   45   2.266   8.687   2.308  0.0222 -0.0306  0.1446
  742MOL0     C   46   2.264   8.825   2.240  0.5205  0.5668 -0.3565
  742MOL0     C   47   2.132   8.899   2.262 -0.7667 -0.1054 -0.4689
  742MOL0     C   48   2.131   9.044   2.203  0.6884  0.6599  0.2824
  742MOL0     C   49   2.000   9.120   2.234 -0.0647  0.0134  0.6870
  742MOL0     C   50   1.995   9.242   2.139 -0.1156  0.5277 -0.0034
  742MOL0     C   51   2.040   9.372   2.187  0.2534  0.5113 -0.4447
  742MOL0     N   52   1.936   9.431   2.267  0.0420 -0.8697 -0.4025
  742MOL0     C   53   1.844   9.516   2.199 -0.0923  1.0255 -0.1502
  742MOL0     C   54   1.772   9.571   2.294  0.6275 -0.2310 -0.4043
  742MOL0     C   55   1.671   9.683   2.284  0.9164  0.6751  0.2651
  742MOL0     C   56   1.526   9.639   2.314 -0.5437  0.1033  0.5195
  742MOL0     C   57   1.487   9.668   2.457  0.2807 -0.8524 -0.3381
  742MOL0     C   58   1.483   9.820   2.495 -0.6416  0.3153  0.5598
  742MOL0     O   59   1.365   9.883   2.440 -0.2043  0.0091 -0.2109
  742MOL0     C   60   1.341  10.020   2.461 -0.0409  0.7770  0.2714
  742MOL0     C   61   1.418  10.106   2.540 -0.8514 -0.6664  0.2728
  742MOL0     C   62   1.381  10.239   2.564 -0.0814 -0.2496 -0.2098
  742MOL0     C   63   1.469  10.336   2.645 -0.2919  0.6607  0.5500
  742MOL0     C   64   1.264  10.287   2.500  0.7685  0.3645 -0.2401
  742MOL0     C   65   1.221  10.439   2.507  0.0323 -0.1956 -0.2612
  742MOL0     O   66   1.117  10.474   2.430  0.9800 -0.0540 -0.1043
  742MOL0     C   67   1.088  10.611   2.428  0.1499 -0.2076 -0.4921
  742MOL0     C   68   0.946  10.640   2.406  0.0360  0.2613  0.0251
  742MOL0     C   69   0.906  10.764   2.366 -0.5198 -0.4927 -0.1858
  742MOL0     C   70   1.003  10.861   2.332 -0.1224  0.7993 -0.2425
  742MOL0     O   71   0.944  10.969   2.274 -0.9322  0.1285  0.0233
  742MOL0     C   72   1.016  11.072   2.204  0.4159  0.1353 -0.4951
  742MOL0     C   73   0.929  11.162   2.113 -0.2960 -0.3627 -0.3284
  742MOL0     C   74   0.807  11.223   2.187  0.2692 -0.1215  0.2311
  742MOL0     C   75   0.728  11.333   2.108 -0.3196  0.1882  0.9008
  742MOL0     C   76   0.609  11.387   2.178  0.8817  0.3235 -1.0870
  742MOL0     C   77   0.626  11.438   2.322 -0.3952  0.8546 -0.7137
  742MOL0     C   78   0.500  11.511   2.383  0.6184  0.3637 -0.5225
  742MOL0     C   79   0.548  11.578   2.510 -0.6241 -0.5345  0.9614
  742MOL0    Cl   80   0.670  11.711   2.479 -0.1797  0.3695  0.1728
  742MOL0     C   81   1.134  10.841   2.355 -0.7988 -0.3906 -0.3091
  742MOL0     C   82   1.177  10.719   2.403  0.5248 -1.0021  0.0756
  742MOL0     O   83   1.275  10.514   2.583 -0.3215 -0.8516 -0.0083
  742MOL0     C   84   1.181  10.200   2.423 -0.0232  0.1466 -0.4922
  742MOL0     C   85   1.229  10.073   2.398 -0.2719  0.0356  0.1036
  742MOL0     N   86   1.806   9.513   2.417  0.1846 -0.5050  1.0803
  742MOL0     N   87   1.910   9.434   2.402  0.3399  0.0792 -0.7204
  742MOL0     C   88   2.480   8.341   2.579 -0.5818  0.3221 -0.0055
  742MOL0     C   89   2.601   8.277   2.620 -0.0611 -0.2565 -0.2002
  742MOL0     C   90   3.048   8.180   2.666 -0.0606  0.3122  0.6958
  742MOL0     C   91   3.188   8.180   2.626  0.3275 -0.0756 -0.1679
  742MOL0     C   92   3.280   8.086   2.684 -0.4597  0.2306 -0.5764
  742MOL0     C   93   3.241   7.988   2.777 -0.1182 -0.3732 -0.6726
  742MOL0     O   94   3.327   7.887   2.819  0.2436 -0.2894 -0.3782
  742MOL0     C   95   3.459   7.933   2.856 -0.7766  0.3165  0.4279
  742MOL0     C   96   3.511   7.827   2.957  0.3325 -0.4695 -0.7879
  742MOL0     C   97   3.438   7.828   3.095  0.4069  0.9750  0.2144
  742MOL0     C   98   3.513   7.736   3.185  0.6399 -0.2409 -0.2722
  742MOL0     C   99   3.473   7.719   3.326 -0.3338  0.2256  0.2007
  742MOL0     C  100   3.429   7.681   3.431 -0.1847 -0.1036 -0.4689
  742MOL0     C  101   3.107   7.983   2.808 -0.5537  0.2108  0.0613
  742MOL0     C  102   3.012   8.078   2.761  0.7838  0.1377  0.5069
  742MOL0     H  103   2.816   8.536   2.564 -1.5239  1.9580  0.9161
  742MOL0     H  104   2.615   8.635   2.485  1.7152 -1.6462 -4.0769
  742MOL0     H  105   2.428   8.720   2.451 -0.3591  0.4292  0.9335
  742MOL0     H  106   2.476   8.624   2.306  0.2101  1.0145  0.4063
  742MOL0     H  107   2.233   8.613   2.234 -1.6056  0.9560 -0.1697
  742MOL0     H  108   2.193   8.691   2.389 -0.4257 -0.6814 -0.2152
  742MOL0     H  109   2.349   8.883   2.277  1.5235  0.0108 -1.7008
  742MOL0     H  110   2.270   8.815   2.131  0.7142  1.6682 -0.4654
  742MOL0     H  111   2.048   8.845   2.218  0.3253 -1.2458 -1.1926
  742MOL0     H  112   2.126   8.904   2.371  0.2450 -2.3530 -0.2491
  742MOL0     H  113   2.213   9.107   2.239  2.3405 -2.2129  2.0453
  742MOL0     H  114   2.142   9.034   2.094 -1.2556  1.0173  0.0317
  742MOL0     H  115   1.918   9.051   2.210  0.6568 -0.3150 -0.9336
  742MOL0     H  116   2.002   9.159   2.336  1.2855  2.3704 -0.1757
  742MOL0     H  117   2.056   9.209   2.055  0.5003  1.9147 -0.1307
  742MOL0     H  118   1.895   9.244   2.095 -0.4417  0.3132  0.7160
  742MOL0     H  119   2.059   9.438   2.101 -0.2456  0.6278 -0.4663
  742MOL0     H  120   2.135   9.348   2.235 -0.6137  0.5541  1.3566
  742MOL0     H  121   1.839   9.536   2.092  2.3321 -0.2291 -0.5922
  742MOL0     H  122   1.705   9.760   2.353  3.8816 -0.9039  0.7332
  742MOL0     H  123   1.677   9.726   2.184  0.2187  2.0994  0.8104
  742MOL0     H  124   1.524   9.531   2.297 -1.9301  0.1803  0.0294
  742MOL0     H  125   1.466   9.685   2.235 -0.3626 -2.1515 -1.0059
  742MOL0     H  126   1.562   9.621   2.522  0.1420 -3.0222 -1.6295
  742MOL0     H  127   1.388   9.624   2.473 -0.1870 -0.6346 -2.3530
  742MOL0     H  128   1.573   9.864   2.452  1.3577 -3.7012  0.1346
  742MOL0     H  129   1.496   9.844   2.601 -0.6898  0.6496  0.4912
  742MOL0     H  130   1.509  10.077   2.591 -0.3005  0.1003 -0.2582
  742MOL0     H  131   1.414  10.373   2.732 -3.2622 -1.0647 -0.4397
  742MOL0     H  132   1.555  10.283   2.688  0.3990  1.9576  0.8031
  742MOL0     H  133   1.510  10.412   2.579 -1.2117  1.7587  1.2054
  742MOL0     H  134   0.882  10.554   2.422 -2.5239  1.7771 -1.4804
  742MOL0     H  135   0.801  10.790   2.349 -0.4174 -0.1295 -0.2828
  742MOL0     H  136   1.064  11.132   2.282  1.1844 -0.5249 -0.4431
  742MOL0     H  137   1.092  11.019   2.146  2.0923  0.5981  1.1744
  742MOL0     H  138   0.991  11.248   2.086  0.7083 -0.4776  1.4553
  742MOL0     H  139   0.889  11.112   2.025 -0.2606 -0.7642 -0.1170
  742MOL0     H  140   0.842  11.261   2.284 -2.9961 -0.3411  1.6432
  742MOL0     H  141   0.739  11.141   2.213 -0.2977  0.1204 -0.4470
  742MOL0     H  142   0.793  11.418   2.087  0.8462 -0.2899  2.3803
  742MOL0     H  143   0.698  11.295   2.010 -2.5166  1.7572  0.8934
  742MOL0     H  144   0.532  11.310   2.187  1.3553  0.0956  2.2574
  742MOL0     H  145   0.558  11.468   2.126 -0.0760 -0.4231 -1.3549
  742MOL0     H  146   0.644  11.353   2.389  1.6732  1.0733 -0.9405
  742MOL0     H  147   0.712  11.504   2.332  0.4557 -0.3022 -0.1638
  742MOL0     H  148   0.423  11.435   2.402  1.6183 -1.0578 -1.9230
  742MOL0     H  149   0.469  11.589   2.313 -1.2941 -0.0957 -0.2445
  742MOL0     H  150   0.606  11.513   2.575 -0.8790 -0.8380  0.8893
  742MOL0     H  151   0.464  11.622   2.565 -1.9516 -2.3354  0.4575
  742MOL0     H  152   1.214  10.912   2.336 -0.9192 -0.0946  0.2823
  742MOL0     H  153   1.282  10.720   2.431  0.5477  1.2578  0.0787
  742MOL0     H  154   1.090  10.239   2.379 -1.9397 -1.4133  1.8138
  742MOL0     H  155   1.167  10.016   2.330  0.0205  0.1848 -0.2919
  742MOL0     H  156   2.397   8.272   2.577  0.2311 -0.6700 -0.6723
  742MOL0     H  157   2.609   8.187   2.680  0.0026  0.8527  1.5415
  742MOL0     H  158   3.224   8.259   2.561  1.0548  1.0173  1.4761
  742MOL0     H  159   3.380   8.080   2.642 -0.9151  2.5234 -2.1734
  742MOL0     H  160   3.526   7.946   2.771 -3.2063  3.1446 -1.2651
  742MOL0     H  161   3.454   8.033   2.899 -0.1173  1.4175 -1.9094
  742MOL0     H  162   3.617   7.848   2.972  0.8421 -4.0722  2.4804
  742MOL0     H  163   3.506   7.723   2.924  4.5639 -1.0539 -0.1786
  742MOL0     H  164   3.332   7.803   3.078  0.7266 -0.3851  0.0524
  742MOL0     H  165   3.445   7.930   3.134  2.2224  1.1104 -0.4100
  742MOL0     H  166   3.611   7.784   3.184  0.9145 -0.7758 -2.1899
  742MOL0     H  167   3.520   7.636   3.140 -0.2010  0.2962 -1.6611
  742MOL0     H  168   3.398   7.646   3.528 -0.7289 -0.7866 -0.8839
  742MOL0     H  169   3.078   7.910   2.883  1.7942 -0.0605  0.7755
  742MOL0     H  170   2.911   8.073   2.799  0.3342  1.7020 -0.3886
  743MOL0     O  171   3.693   7.093   4.856 -0.5752  0.0423 -0.5306
  743MOL0     C  172   3.785   7.101   4.938  0.4417 -0.8067  0.3164
  743MOL0     O  173   3.772   7.096   5.071 -0.3368  0.2917  0.4778
  743MOL0     C  174   3.641   7.102   5.117 -0.1386  0.0909 -0.1459
  743MOL0     C  175   3.559   7.211   5.104 -0.5693  0.2301  0.5746
  743MOL0     C  176   3.427   7.215   5.141  1.0179  0.0345  0.5786
  743MOL0     C  177   3.372   7.100   5.201  0.3135 -0.7822  0.1640
  743MOL0     O  178   3.241   7.120   5.246  0.3134  0.3738 -0.4093
  743MOL0     C  179   3.177   7.014   5.324  0.3648  0.1657  0.5859
  743MOL0     C  180   3.029   7.052   5.331 -0.2715  0.0384 -0.0579
  743MOL0     C  181   2.959   7.042   5.194 -0.8610  0.4001  0.5197
  743MOL0     C  182   2.810   7.062   5.205 -0.4086  0.0699 -0.5792
  743MOL0     C  183   2.724   6.982   5.104  0.6582 -0.4668  0.5366
  743MOL0     C  184   2.750   7.019   4.957 -0.2602  0.6015  0.2263
  743MOL0     C  185   2.637   6.965   4.862  0.0679 -0.6958  0.6182
  743MOL0     C  186   2.695   6.956   4.719 -0.9769 -0.6809  0.3055
  743MOL0     N  187   2.605   6.894   4.619  0.4030  0.1018 -0.1825
  743MOL0     C  188   2.488   6.948   4.580  0.4985 -0.1466  0.6683
  743MOL0     C  189   2.425   6.842   4.529 -1.0253  0.5045  0.7880
  743MOL0     C  190   2.287   6.846   4.469  1.1362 -0.5027 -0.4247
  743MOL0     C  191   2.279   6.887   4.327  0.5143  0.1001 -0.3872
  743MOL0     C  192   2.138   6.941   4.293 -0.7042  0.3240 -0.5268
  743MOL0     C  193   2.050   6.820   4.253  0.0494 -0.0891  0.6838
  743MOL0     O  194   1.922   6.871   4.227 -0.5126 -0.5100 -0.2019
  743MOL0     C  195   1.837   6.790   4.147 -0.4207 -0.5351  0.0443
  743MOL0     C  196   1.720   6.853   4.089 -0.4423  0.2917 -0.6422
  743MOL0     C  197   1.642   6.777   4.002 -0.6555  0.0428  0.0639
  743MOL0     C  198   1.517   6.842   3.954  0.1751 -0.4752  1.3636
  743MOL0     C  199   1.661   6.633   3.985  0.4201 -0.4736 -1.0036
  743MOL0     C  200   1.576   6.550   3.901  0.3386  0.7505  0.0643
  743MOL0     O  201   1.601   6.420   3.904 -0.2255  0.7164 -0.2673
  743MOL0     C  202   1.556   6.341   3.804 -0.3206 -0.9904  0.4476
  743MOL0     C  203   1.574   6.379   3.669  0.2698 -0.3899  0.2760
  743MOL0     C  204   1.533   6.299   3.561  0.6736 -0.0414  1.2124
  743MOL0     C  205   1.493   6.169   3.586 -0.9486 -0.4061  0.1540
  743MOL0     O  206   1.478   6.076   3.490  0.2984 -0.2266  0.0290
  743MOL0     C  207   1.545   6.101   3.362  0.3499 -0.4863 -0.2994
  743MOL0     C  208   1.503   5.991   3.262 -0.5347 -0.2738  0.0929
  743MOL0     C  209   1.346   5.988   3.252 -0.1302 -0.8808 -0.1011
  743MOL0     C  210   1.311   5.875   3.156  0.7521  0.6197  0.2069
  743MOL0     C  211   1.160   5.889   3.126 -0.9936 -0.6853  0.2493
  743MOL0     C  212   1.101   5.763   3.069  0.0347 -0.4570  0.1623
  743MOL0     C  213   0.953   5.793   3.042  0.5313 -0.2724  0.9215
  743MOL0     C  214   0.872   5.778   3.171  0.6232  0.2055 -0.4596
  743MOL0    Cl  215   0.693   5.780   3.150  0.0403 -0.3107  0.0877
  743MOL0     C  216   1.477   6.127   3.725  0.2826 -0.7304  0.7357
  743MOL0     C  217   1.510   6.215   3.827  0.6163  0.4262 -0.5812
  743MOL0     O  218   1.476   6.593   3.840 -0.0790 -0.5990  0.6082
  743MOL0     C  219   1.764   6.576   4.061  0.5573 -0.5291 -0.5466
  743MOL0     C  220   1.858   6.653   4.126  0.0102  0.6549  0.3222
  743MOL0     N  221   2.500   6.722   4.533  0.2352  1.0149 -0.1575
  743MOL0     N  222   2.605   6.758   4.591  0.0383  0.3052  0.0356
  743MOL0     C  223   3.453   6.990   5.231 -0.2307  0.0351  0.2511
  743MOL0     C  224   3.590   6.996   5.206 -1.2683 -0.4404  0.9153
  743MOL0     C  225   3.925   7.120   4.892  0.3764  0.1127  0.2457
  743MOL0     C  226   4.030   7.118   4.979 -0.5630 -0.6291 -0.0687
  743MOL0     C  227   4.165   7.146   4.941  0.3734 -0.8200 -0.2613
  743MOL0     C  228   4.189   7.182   4.799  0.6385 -0.7933 -0.4836
  743MOL0     O  229   4.309   7.198   4.733 -0.5552 -0.4770 -0.3153
  743MOL0     C  230   4.429   7.183   4.810  0.5687 -0.1734  0.3785
  743MOL0     C  231   4.536   7.206   4.703  0.1444  0.0106  0.3339
  743MOL0     C  232   4.521   7.130   4.568 -0.7741 -0.1001 -0.6032
  743MOL0     C  233   4.534   6.979   4.579  0.2809  1.1380  1.0665
  743MOL0     C  234   4.674   6.940   4.571  0.4734 -0.4673 -0.1571
  743MOL0     C  235   4.795   6.910   4.556  0.2209 -0.1170 -0.1209
  743MOL0     C  236   4.084   7.201   4.717 -0.3568  0.3695 -0.8340
  743MOL0     C  237   3.950   7.173   4.763 -0.1497  0.3688 -0.4076
  743MOL0     H  238   3.600   7.288   5.040 -2.6823 -0.1914 -1.4233
  743MOL0     H  239   3.367   7.301   5.110 -0.5691 -0.9818  0.6992
  743MOL0     H  240   3.188   6.916   5.276 -1.9059  0.5505 -0.9006
  743MOL0     H  241   3.227   7.007   5.421 -1.4522 -2.3550  1.4347
  743MOL0     H  242   2.984   6.972   5.390  0.6292 -1.7840 -1.7455
  743MOL0     H  243   3.016   7.139   5.395  1.5663 -1.5848  2.7387
  743MOL0     H  244   2.996   7.122   5.129  0.8333 -0.1690  0.7454
  743MOL0     H  245   2.980   6.947   5.144 -0.2972  0.2685  1.0000
  743MOL0     H  246   2.778   7.039   5.307 -0.7462  2.3549 -0.1145
  743MOL0     H  247   2.785   7.168   5.193 -2.8204 -0.4422 -0.6103
  743MOL0     H  248   2.741   6.875   5.118  0.9263 -0.6560 -1.0231
  743MOL0     H  249   2.622   6.992   5.140  1.7197  0.1201  3.6951
  743MOL0     H  250   2.752   7.129   4.963  0.6807  0.6440 -0.6934
  743MOL0     H  251   2.843   6.979   4.918 -0.8683  0.7248 -1.4169
  743MOL0     H  252   2.605   6.863   4.887  1.4311 -1.3373 -0.1523
  743MOL0     H  253   2.555   7.037   4.867 -1.5254 -1.9813 -2.9356
  743MOL0     H  254   2.788   6.900   4.732 -1.5484 -1.9518 -0.8463
  743MOL0     H  255   2.715   7.056   4.679  0.8555 -1.6736 -1.4276
  743MOL0     H  256   2.444   7.047   4.580  0.4349 -0.1505 -1.0837
  743MOL0     H  257   2.236   6.751   4.487  1.7290 -0.5706  0.9689
  743MOL0     H  258   2.230   6.921   4.526 -1.1242 -3.5015  1.5395
  743MOL0     H  259   2.298   6.799   4.265  3.2535 -1.7022  2.6916
  743MOL0     H  260   2.358   6.960   4.307  2.6238 -1.5149  1.5641
  743MOL0     H  261   2.142   6.994   4.197  0.1090  1.6193  0.2029
  743MOL0     H  262   2.093   7.000   4.373 -1.0210 -1.4326  0.6534
  743MOL0     H  263   2.046   6.748   4.335  0.6544  2.6261  3.2685
  743MOL0     H  264   2.084   6.760   4.168 -1.0332 -2.2532  1.6847
  743MOL0     H  265   1.700   6.959   4.103  0.9909  0.8857 -2.6393
  743MOL0     H  266   1.425   6.784   3.966 -1.0351 -0.5194 -4.7562
  743MOL0     H  267   1.498   6.940   3.999 -3.7346 -1.5133  2.2858
  743MOL0     H  268   1.524   6.855   3.845 -1.2204 -2.4720  0.9861
  743MOL0     H  269   1.626   6.474   3.654 -0.2822 -0.3755 -1.9532
  743MOL0     H  270   1.533   6.338   3.460 -0.1761 -0.4364  1.0522
  743MOL0     H  271   1.511   6.190   3.307 -0.7976 -1.0348 -0.5076
  743MOL0     H  272   1.653   6.099   3.378  0.2319  0.6601  0.9347
  743MOL0     H  273   1.557   6.007   3.168  0.8660 -3.3018  0.2619
  743MOL0     H  274   1.542   5.894   3.293  1.4341  0.0860 -1.0803
  743MOL0     H  275   1.311   6.086   3.219  1.1386 -0.2035  0.4932
  743MOL0     H  276   1.313   5.985   3.356  1.2384  1.7095  0.5032
  743MOL0     H  277   1.367   5.877   3.062  0.3148  3.4090 -0.0751
  743MOL0     H  278   1.316   5.776   3.203 -3.6445  0.3518  0.5464
  743MOL0     H  279   1.155   5.963   3.045  0.0511 -1.1629 -0.2697
  743MOL0     H  280   1.105   5.928   3.213  0.2582  2.1990 -0.1117
  743MOL0     H  281   1.147   5.747   2.971 -0.7384  0.2946 -0.3392
  743MOL0     H  282   1.113   5.676   3.133 -2.2577  0.1578  1.5278
  743MOL0     H  283   0.913   5.722   2.969  0.8028  1.7597 -1.3243
  743MOL0     H  284   0.949   5.890   2.992 -1.2601  0.2069  1.8739
  743MOL0     H  285   0.900   5.834   3.260 -1.0410 -3.2948  2.5383
  743MOL0     H  286   0.891   5.672   3.193 -2.6550 -0.5197 -0.6473
  743MOL0     H  287   1.444   6.025   3.736 -0.7756 -0.4526  0.2138
  743MOL0     H  288   1.503   6.184   3.931  0.9414 -1.6804 -1.1294
  743MOL0     H  289   1.776   6.468   4.066 -1.1365 -0.8072 -1.6767
  743MOL0     H  290   1.943   6.611   4.178  0.9617  3.2864  1.0599
  743MOL0     H  291   3.412   6.906   5.286 -0.4569 -0.4213 -0.6002
  743MOL0     H  292   3.662   6.920   5.236 -0.1912 -0.7753 -2.1660
  743MOL0     H  293   4.010   7.090   5.082 -0.0989 -0.8808 -0.0433
  743MOL0     H  294   4.253   7.124   5.000  0.3895 -1.6495 -0.5834
  743MOL0     H  295   4.438   7.260   4.887  2.6252 -0.2483  0.2748
  743MOL0     H  296   4.439   7.091   4.867 -1.0070 -0.9092 -0.4649
  743MOL0     H  297   4.630   7.167   4.741 -0.5248 -2.4006 -0.3448
  743MOL0     H  298   4.529   7.313   4.679 -0.3003  0.1945  1.2337
  743MOL0     H  299   4.601   7.160   4.500  1.0181 -2.8042  0.1136
  743MOL0     H  300   4.423   7.160   4.529 -0.7139 -0.3584 -0.9600
  743MOL0     H  301   4.477   6.936   4.497  0.2569  3.1609 -0.0389
  743MOL0     H  302   4.480   6.931   4.661  0.8412 -2.5757 -0.5450
  743MOL0     H  303   4.899   6.885   4.551  1.1445  3.3643 -0.3909
  743MOL0     H  304   4.099   7.236   4.615 -0.1345 -2.7824 -1.9816
  743MOL0     H  305   3.870   7.191   4.693 -0.6763 -0.1592  0.0492
  744MOL0     O  306   8.933   7.718   9.403 -0.5344  0.2586  0.1812
  744MOL0     C  307   8.817   7.728   9.384  0.2718  0.8084  0.5711
  744MOL0     O  308   8.739   7.827   9.427  0.6497 -0.1851 -0.5021
  744MOL0     C  309   8.795   7.918   9.505  0.5531  0.4785 -0.1445
  744MOL0     C  310   8.798   8.050   9.458 -0.3725  0.5618 -0.0826
  744MOL0     C  311   8.870   8.152   9.528  0.2707 -0.0032 -0.1346
  744MOL0     C  312   8.936   8.110   9.639 -0.0988  0.4195 -0.5194
  744MOL0     O  313   9.011   8.201   9.704  0.0752  0.2780 -1.0942
  744MOL0     C  314   9.129   8.245   9.646  0.0078 -0.1698  0.5830
  744MOL0     C  315   9.252   8.165   9.687  0.4031 -0.1594  0.9437
  744MOL0     C  316   9.272   8.148   9.831 -0.1297  0.5792  0.7993
  744MOL0     C  317   9.251   8.272   9.910  0.3992  0.1717  0.1676
  744MOL0     C  318   9.276   8.246  10.060  0.2091 -0.9010  0.0704
  744MOL0     C  319   9.321   8.379  10.137  0.4149  0.3428 -0.3143
  744MOL0     C  320   9.311   8.345  10.283  1.3630  0.2444  0.3440
  744MOL0     C  321   9.173   8.347  10.352  0.3668  0.1200  0.4622
  744MOL0     N  322   9.084   8.458  10.311  0.1331 -0.4236  0.8764
  744MOL0     C  323   9.113   8.590  10.335  0.5093  0.3818  0.4718
  744MOL0     C  324   9.011   8.653  10.265 -1.0887 -0.2211 -0.3962
  744MOL0     C  325   8.972   8.795  10.276 -0.2411  0.1163 -0.1075
  744MOL0     C  326   8.845   8.792  10.354 -0.0838 -0.2132  0.0067
  744MOL0     C  327   8.864   8.767  10.501  0.6503 -0.5171  0.0649
  744MOL0     C  328   8.739   8.782  10.577 -0.5959 -0.1308 -0.7569
  744MOL0     O  329   8.688   8.916  10.595  0.3045 -0.6862  0.3003
  744MOL0     C  330   8.562   8.936  10.641 -0.1828  0.5470 -0.2401
  744MOL0     C  331   8.493   9.065  10.636 -0.9027  0.4213  0.9132
  744MOL0     C  332   8.359   9.089  10.664  0.9241  0.2177  0.2903
  744MOL0     C  333   8.301   9.227  10.641  0.0106  0.5170  0.4948
  744MOL0     C  334   8.279   8.975  10.712 -0.2142 -0.5598  0.0645
  744MOL0     C  335   8.136   8.986  10.756  0.2535  0.1264  0.0763
  744MOL0     O  336   8.085   8.865  10.799 -0.2515  0.1835  0.1054
  744MOL0     C  337   7.960   8.852  10.842 -0.3994  0.5980 -0.0649
  744MOL0     C  338   7.853   8.917  10.791 -0.3606 -0.2361  0.6474
  744MOL0     C  339   7.724   8.884  10.844  0.4797  0.3554  0.5518
  744MOL0     C  340   7.700   8.777  10.930 -0.9993  0.5161 -0.2473
  744MOL0     O  341   7.578   8.765  10.978 -0.2653  0.2630  0.5100
  744MOL0     C  342   7.563   8.725  11.113  0.1950  0.1147  0.0784
  744MOL0     C  343   7.432   8.774  11.177  0.9547 -0.1941  0.1265
  744MOL0     C  344   7.304   8.697  11.124 -0.6316 -0.0629  0.9771
  744MOL0     C  345   7.271   8.563  11.191 -0.3452 -0.2086  0.2463
  744MOL0     C  346   7.223   8.559  11.335  1.0521  0.7910  0.0468
  744MOL0     C  347   7.164   8.417  11.345  0.1193 -0.3020 -0.2967
  744MOL0     C  348   7.015   8.398  11.310 -0.5380 -0.1398 -0.5508
  744MOL0     C  349   6.923   8.459  11.411  0.0324  0.4087 -0.1244
  744MOL0    Cl  350   6.768   8.366  11.396 -0.1673  0.0817 -0.0827
  744MOL0     C  351   7.810   8.710  10.979 -0.2077  0.4054 -0.1327
  744MOL0     C  352   7.936   8.741  10.934 -0.7960  0.2034  0.7450
  744MOL0     O  353   8.082   9.095  10.772  0.3718 -0.1047  0.1079
  744MOL0     C  354   8.339   8.843  10.719 -0.3468 -0.8190 -0.2795
  744MOL0     C  355   8.475   8.821  10.679 -0.5146  0.5114  0.4555
  744MOL0     N  356   8.953   8.563  10.182  0.1902  0.4160 -0.1837
  744MOL0     N  357   8.998   8.444  10.212 -0.3308 -0.2499 -0.4829
  744MOL0     C  358   8.930   7.981   9.696  0.1255 -0.3237  0.0315
  744MOL0     C  359   8.856   7.883   9.626 -0.3634  0.0357 -0.3353
  744MOL0     C  360   8.755   7.631   9.284  0.8437 -1.0293 -0.3198
  744MOL0     C  361   8.842   7.546   9.210 -0.0379 -0.1548  0.0224
  744MOL0     C  362   8.789   7.460   9.112 -0.4020  0.9145  0.6347
  744MOL0     C  363   8.653   7.462   9.085 -0.4244  0.6524 -0.4909
  744MOL0     O  364   8.620   7.360   9.004  0.1494  0.0446  0.0716
  744MOL0     C  365   8.487   7.351   8.957  0.4830  0.7910  0.3412
  744MOL0     C  366   8.391   7.263   9.043 -1.1217  0.3010  0.1277
  744MOL0     C  367   8.256   7.288   8.977  0.6986  0.8373  0.6207
  744MOL0     C  368   8.158   7.190   9.032 -0.6831  0.2891 -0.5364
  744MOL0     C  369   8.018   7.231   9.021  0.4069 -0.4890  0.8340
  744MOL0     C  370   7.907   7.290   9.008  0.0838 -0.1963  0.7142
  744MOL0     C  371   8.565   7.554   9.155 -0.3014 -0.2776  0.2540
  744MOL0     C  372   8.620   7.631   9.259  0.4172 -0.9584  0.6661
  744MOL0     H  373   8.760   8.083   9.361 -1.1473  1.5142  0.5141
  744MOL0     H  374   8.877   8.254   9.491 -2.8489  0.3467 -0.0272
  744MOL0     H  375   9.115   8.236   9.537 -0.6316  0.9619  0.5557
  744MOL0     H  376   9.140   8.351   9.668  1.9535 -0.5295  1.5153
  744MOL0     H  377   9.249   8.066   9.642 -0.5107  1.2382 -2.3947
  744MOL0     H  378   9.338   8.224   9.654 -2.3636  4.0918  0.5358
  744MOL0     H  379   9.194   8.076   9.860  0.2566 -0.0594  0.2671
  744MOL0     H  380   9.365   8.094   9.851 -0.2071 -0.8038 -2.0803
  744MOL0     H  381   9.323   8.344   9.868  2.0251 -1.9522 -0.8590
  744MOL0     H  382   9.149   8.309   9.893  0.1414 -0.2306  0.8097
  744MOL0     H  383   9.184   8.202  10.098  1.9806 -3.3977  1.7580
  744MOL0     H  384   9.357   8.175  10.080  0.1534 -0.7809  0.7525
  744MOL0     H  385   9.425   8.399  10.109  1.1120 -1.5710  0.7345
  744MOL0     H  386   9.256   8.463  10.111 -1.0485 -0.8503 -0.6331
  744MOL0     H  387   9.357   8.248  10.303  0.2906 -0.9376 -2.3746
  744MOL0     H  388   9.379   8.411  10.338  2.3526 -0.8093  0.4305
  744MOL0     H  389   9.189   8.365  10.459 -3.7902  1.5152  1.0454
  744MOL0     H  390   9.122   8.251  10.338  0.9619 -0.3736  1.5475
  744MOL0     H  391   9.179   8.636  10.408  0.9139 -1.2019  1.1532
  744MOL0     H  392   9.051   8.848  10.331  2.5366 -0.5678 -3.1353
  744MOL0     H  393   8.942   8.844  10.183 -1.0334  1.1842  0.6867
  744MOL0     H  394   8.794   8.700  10.325  1.5549 -1.4723  0.9478
  744MOL0     H  395   8.797   8.890  10.343  0.8655  0.2141 -0.3917
  744MOL0     H  396   8.940   8.835  10.539  1.1009 -2.9509  4.0935
  744MOL0     H  397   8.909   8.673  10.534 -0.4964 -0.5869  1.5089
  744MOL0     H  398   8.747   8.741  10.678  2.8179  1.1282 -0.3779
  744MOL0     H  399   8.663   8.721  10.528 -0.4186 -1.1263  0.1844
  744MOL0     H  400   8.567   9.142  10.616  1.2069 -2.1968 -2.6752
  744MOL0     H  401   8.215   9.213  10.575 -0.0381 -0.2807  0.7131
  744MOL0     H  402   8.271   9.257  10.742  0.9164 -0.5848  1.1221
  744MOL0     H  403   8.386   9.282  10.600  2.7356 -2.6195  1.4186
  744MOL0     H  404   7.854   8.989  10.710 -1.3770 -0.3190  0.5465
  744MOL0     H  405   7.636   8.929  10.799  2.1101  2.2365 -0.9425
  744MOL0     H  406   7.577   8.616  11.105  1.1268  0.3448 -1.9065
  744MOL0     H  407   7.649   8.750  11.176 -0.6547  3.1707  0.1921
  744MOL0     H  408   7.432   8.761  11.285  0.4788  2.5565  0.5491
  744MOL0     H  409   7.438   8.881  11.151 -0.2051 -0.2550 -0.4513
  744MOL0     H  410   7.312   8.686  11.016  0.7524  1.5335  0.8693
  744MOL0     H  411   7.223   8.770  11.128  0.0478  0.9635 -1.6619
  744MOL0     H  412   7.197   8.526  11.120 -0.2308  3.1988 -1.8654
  744MOL0     H  413   7.358   8.499  11.178 -1.0847 -0.7778 -2.4013
  744MOL0     H  414   7.143   8.631  11.353  0.3225 -0.1777  0.7566
  744MOL0     H  415   7.307   8.579  11.403  1.3103  1.5764 -0.4792
  744MOL0     H  416   7.218   8.348  11.280 -2.3980 -3.3277  0.5733
  744MOL0     H  417   7.193   8.373  11.441  1.0924 -1.6527 -1.1697
  744MOL0     H  418   6.996   8.291  11.302 -0.0873 -0.5074  2.2714
  744MOL0     H  419   6.988   8.452  11.219 -2.4946  0.7746  0.5249
  744MOL0     H  420   6.898   8.564  11.397  2.5143  1.1628  0.6311
  744MOL0     H  421   6.964   8.450  11.512 -1.8177 -1.3111  0.5229
  744MOL0     H  422   7.800   8.634  11.055 -0.5045  1.8221  1.3094
  744MOL0     H  423   8.015   8.684  10.984 -0.5679 -0.7907 -0.6917
  744MOL0     H  424   8.283   8.753  10.741 -1.8234 -0.2728 -1.5746
  744MOL0     H  425   8.515   8.721  10.691 -0.3170  0.8880  3.7694
  744MOL0     H  426   8.987   7.948   9.783  1.1359 -0.9698 -0.8502
  744MOL0     H  427   8.843   7.779   9.656 -0.9411  0.0962 -0.3663
  744MOL0     H  428   8.947   7.537   9.234  0.0449 -2.8332 -1.0643
  744MOL0     H  429   8.850   7.391   9.054  0.6385  2.0094  0.3763
  744MOL0     H  430   8.445   7.450   8.940  2.0740  1.3239 -0.6809
  744MOL0     H  431   8.498   7.312   8.855 -0.0196 -0.7556  0.8378
  744MOL0     H  432   8.400   7.290   9.149  1.4504  1.1044 -0.2413
  744MOL0     H  433   8.417   7.157   9.033 -1.5078  0.0220  1.6866
  744MOL0     H  434   8.261   7.274   8.868  1.4646 -0.0276  0.7588
  744MOL0     H  435   8.225   7.392   8.991  0.2342  0.4807  2.5722
  744MOL0     H  436   8.174   7.169   9.138 -2.2615 -2.4262 -0.7341
  744MOL0     H  437   8.174   7.092   8.984 -0.4079  0.2171 -0.3026
  744MOL0     H  438   7.820   7.351   8.995  0.9745  1.0991  0.7183
  744MOL0     H  439   8.459   7.569   9.139 -0.5939  0.3125  2.3975
  744MOL0     H  440   8.554   7.697   9.315 -0.8557  0.4818 -2.3050
  745MOL0     O  441   5.533   4.592   6.367  0.1137  0.2526 -0.8928
  745MOL0     C  442   5.614   4.535   6.294  0.1083 -0.5902 -0.7647
  745MOL0     O  443   5.602   4.415   6.238  0.0327 -0.0483 -0.4167
  745MOL0     C  444   5.475   4.370   6.202 -0.4100  0.3833 -0.0675
  745MOL0     C  445   5.450   4.236   6.219 -0.3042  0.6014  0.0185
  745MOL0     C  446   5.321   4.186   6.201  0.0028  0.2755 -0.4136
  745MOL0     C  447   5.213   4.264   6.152 -0.4298  0.6498  0.2625
  745MOL0     O  448   5.103   4.200   6.107 -0.0775  0.3727 -0.5725
  745MOL0     C  449   4.991   4.289   6.082  0.2734 -1.1436 -0.3848
  745MOL0     C  450   4.877   4.203   6.025  0.1867 -0.4356  0.1480
  745MOL0     C  451   4.802   4.130   6.133  0.3137  1.1252  0.4831
  745MOL0     C  452   4.668   4.069   6.089  0.3128  0.3607 -0.0861
  745MOL0     C  453   4.611   3.976   6.202 -0.9318  0.3566 -0.1378
  745MOL0     C  454   4.473   3.918   6.179  0.1361  0.7070  0.6224
  745MOL0     C  455   4.460   3.792   6.273 -0.6007  0.2647  1.3968
  745MOL0     C  456   4.413   3.846   6.406 -0.6104  0.1586  0.3026
  745MOL0     N  457   4.269   3.824   6.420 -0.1328 -0.3529  0.0206
  745MOL0     C  458   4.213   3.707   6.473 -0.6579 -0.0799 -0.2633
  745MOL0     C  459   4.081   3.718   6.455  0.0668 -0.6702 -0.2595
  745MOL0     C  460   3.979   3.619   6.490 -0.0392  0.0615 -0.9202
  745MOL0     C  461   3.862   3.679   6.573  0.1652  0.9472 -0.0961
  745MOL0     C  462   3.788   3.559   6.644  0.0721 -0.2654  0.0124
  745MOL0     C  463   3.677   3.618   6.747  0.6822  0.7550  0.2383
  745MOL0     O  464   3.549   3.642   6.670 -0.3587  0.1193 -0.6524
  745MOL0     C  465   3.454   3.701   6.742 -0.0884 -0.5361 -0.1694
  745MOL0     C  466   3.330   3.651   6.729  0.3539  0.3324  0.0176
  745MOL0     C  467   3.213   3.697   6.797 -0.2454  0.7690 -0.6320
  745MOL0     C  468   3.085   3.626   6.763  0.4680 -0.0650  0.6410
  745MOL0     C  469   3.233   3.786   6.903 -0.4480 -0.1032 -0.3222
  745MOL0     C  470   3.131   3.815   7.005 -0.2544 -0.1276  0.5554
  745MOL0     O  471   3.142   3.939   7.065  0.1250 -0.1003 -0.4622
  745MOL0     C  472   3.043   3.975   7.144 -0.2694  0.0784 -0.4002
  745MOL0     C  473   3.020   4.113   7.148 -0.0750  0.0673 -0.1016
  745MOL0     C  474   2.910   4.175   7.207 -0.1446 -0.3430  1.3407
  745MOL0     C  475   2.822   4.101   7.274 -0.1157  0.2403 -0.8954
  745MOL0     O  476   2.698   4.142   7.312  0.6740  0.5244  0.4197
  745MOL0     C  477   2.653   4.271   7.268  0.5098 -0.0334  0.7742
  745MOL0     C  478   2.512   4.299   7.318  0.8236 -0.3781  0.8578
  745MOL0     C  479   2.459   4.424   7.252  0.0240  0.0936 -0.1079
  745MOL0     C  480   2.328   4.467   7.327 -0.1986  0.0792  0.5229
  745MOL0     C  481   2.267   4.580   7.250  0.0129 -0.1795  0.5660
  745MOL0     C  482   2.135   4.628   7.308  0.0582 -0.0013 -0.4652
  745MOL0     C  483   2.078   4.753   7.228 -0.1004  0.6176 -0.2221
  745MOL0     C  484   1.959   4.820   7.293  0.2929 -0.2978  0.6793
  745MOL0    Cl  485   1.981   4.850   7.461  0.1070 -0.0383  0.3095
  745MOL0     C  486   2.855   3.965   7.301 -0.8214  0.0725  0.7975
  745MOL0     C  487   2.958   3.894   7.229 -0.1746  0.5115  0.1033
  745MOL0     O  488   3.047   3.728   7.029  0.2646 -0.2024 -0.4701
  745MOL0     C  489   3.366   3.835   6.923 -0.1041  0.3724 -0.5317
  745MOL0     C  490   3.470   3.799   6.838  0.4630 -0.3556  0.6885
  745MOL0     N  491   4.057   3.836   6.381 -0.3502  0.2322  0.3132
  745MOL0     N  492   4.169   3.900   6.367  0.2021  0.3986 -0.4160
  745MOL0     C  493   5.239   4.400   6.133 -0.6708  1.0161 -0.6438
  745MOL0     C  494   5.361   4.455   6.161 -0.1114 -1.0845  0.5907
  745MOL0     C  495   5.756   4.581   6.286 -0.6550 -0.4408 -0.4206
  745MOL0     C  496   5.861   4.499   6.241  0.3745  0.6358  0.6911
  745MOL0     C  497   5.987   4.557   6.211  0.4591  0.2187  0.1027
  745MOL0     C  498   6.015   4.690   6.242 -0.0268 -0.5698  0.8148
  745MOL0     O  499   6.139   4.758   6.211 -0.8331  0.8220 -0.3314
  745MOL0     C  500   6.249   4.666   6.167  0.1482  0.1999 -0.0496
  745MOL0     C  501   6.385   4.742   6.189 -0.3083  0.7843  0.1277
  745MOL0     C  502   6.467   4.676   6.299  0.7390 -0.0111 -0.0164
  745MOL0     C  503   6.616   4.713   6.301 -0.3501  0.3205  0.3264
  745MOL0     C  504   6.694   4.667   6.184 -0.1277  0.4265 -0.4834
  745MOL0     C  505   6.765   4.639   6.089 -0.1218  0.7680 -0.1360
  745MOL0     C  506   5.916   4.772   6.290  0.6708 -0.0249  0.4068
  745MOL0     C  507   5.786   4.717   6.306  0.4396 -0.0687 -0.1537
  745MOL0     H  508   5.529   4.170   6.252  1.0135  2.9083  1.7238
  745MOL0     H  509   5.305   4.080   6.220 -1.6512  1.0022  3.0391
  745MOL0     H  510   4.953   4.351   6.165  1.1391  1.9045 -2.1119
  745MOL0     H  511   5.011   4.360   6.002 -1.5241 -0.2371 -0.0993
  745MOL0     H  512   4.797   4.265   5.983 -2.1485 -3.5093 -0.2126
  745MOL0     H  513   4.915   4.134   5.950  1.5571 -0.3337  0.7152
  745MOL0     H  514   4.871   4.050   6.162 -1.2281 -0.5641 -0.2780
  745MOL0     H  515   4.780   4.195   6.218 -1.4836 -0.8367  1.6148
  745MOL0     H  516   4.594   4.149   6.079  1.1557  1.4143  1.6278
  745MOL0     H  517   4.678   4.025   5.989  0.6320 -1.0475  0.5314
  745MOL0     H  518   4.687   3.900   6.222 -0.0952  1.4685  1.0997
  745MOL0     H  519   4.605   4.044   6.288  1.8245 -1.2356  1.4665
  745MOL0     H  520   4.402   4.001   6.195 -0.7874  0.2990 -1.1648
  745MOL0     H  521   4.471   3.883   6.076  3.0930 -2.6513  1.5078
  745MOL0     H  522   4.380   3.729   6.232 -0.0205  0.2343  0.2696
  745MOL0     H  523   4.554   3.737   6.279  0.8224  2.4860  0.6306
  745MOL0     H  524   4.430   3.954   6.411 -1.0477  0.3415 -1.5290
  745MOL0     H  525   4.479   3.802   6.481  2.0609  2.7854 -0.3163
  745MOL0     H  526   4.264   3.623   6.519 -0.5925 -0.4757 -1.0390
  745MOL0     H  527   3.941   3.560   6.405 -1.1897  0.2335 -0.5317
  745MOL0     H  528   4.030   3.549   6.557  0.4305  0.4972 -0.8154
  745MOL0     H  529   3.801   3.735   6.501  1.9585  0.5209 -2.0420
  745MOL0     H  530   3.914   3.749   6.639  3.3978 -1.3504  0.0122
  745MOL0     H  531   3.866   3.506   6.699  0.1276 -0.5353 -0.3257
  745MOL0     H  532   3.745   3.497   6.565  0.4563  2.2461 -2.3080
  745MOL0     H  533   3.708   3.709   6.799 -2.9192  0.4594  3.3152
  745MOL0     H  534   3.651   3.550   6.828 -0.6168  0.4681 -0.3948
  745MOL0     H  535   3.315   3.580   6.648 -1.2387 -2.2414  2.4081
  745MOL0     H  536   3.075   3.617   6.654 -3.0954  2.7288  0.5662
  745MOL0     H  537   3.085   3.524   6.803  0.4580 -0.7548 -1.0369
  745MOL0     H  538   3.000   3.685   6.798  0.0555 -1.4431  2.0844
  745MOL0     H  539   3.072   4.185   7.086 -2.8142  1.3107 -1.1396
  745MOL0     H  540   2.892   4.282   7.203 -3.4870 -0.7428  2.7373
  745MOL0     H  541   2.716   4.352   7.306  1.4607 -0.5014  0.2391
  745MOL0     H  542   2.659   4.274   7.158  1.9313  0.4790  0.8494
  745MOL0     H  543   2.447   4.219   7.282  1.6233 -1.1198  1.0081
  745MOL0     H  544   2.509   4.295   7.428 -1.6170  1.3767  0.9234
  745MOL0     H  545   2.444   4.412   7.145 -0.4804  1.9824 -0.2969
  745MOL0     H  546   2.530   4.507   7.254 -0.6631  0.6996 -0.4554
  745MOL0     H  547   2.258   4.383   7.329 -0.5031  0.3318  0.5595
  745MOL0     H  548   2.357   4.510   7.423  0.0413 -0.3329  0.6361
  745MOL0     H  549   2.244   4.543   7.150 -0.3637 -0.1112  0.6269
  745MOL0     H  550   2.339   4.662   7.255 -0.4344  0.2225  0.4363
  745MOL0     H  551   2.061   4.547   7.302 -1.1312  1.1726 -3.0327
  745MOL0     H  552   2.157   4.646   7.414  0.7703 -2.5824 -0.0844
  745MOL0     H  553   2.050   4.716   7.129  0.6071  1.3373 -0.7017
  745MOL0     H  554   2.155   4.827   7.204  1.2237 -0.0367  1.7506
  745MOL0     H  555   1.871   4.757   7.276 -0.3702  0.5545  0.9075
  745MOL0     H  556   1.945   4.920   7.253 -3.1216 -0.7672  0.4459
  745MOL0     H  557   2.802   3.891   7.360  0.4008 -1.2703  0.2903
  745MOL0     H  558   2.971   3.786   7.239 -1.8466  0.2687 -0.0345
  745MOL0     H  559   3.388   3.906   7.001  0.0474 -0.4769  0.2090
  745MOL0     H  560   3.564   3.849   6.859  1.8099 -2.1290 -0.7155
  745MOL0     H  561   5.153   4.459   6.101 -2.0175  1.9624  3.9846
  745MOL0     H  562   5.356   4.563   6.156 -3.1136 -1.1587  0.0573
  745MOL0     H  563   5.849   4.392   6.233  1.8035  0.5307 -0.3793
  745MOL0     H  564   6.063   4.493   6.168 -0.2750  0.2143 -1.2331
  745MOL0     H  565   6.242   4.569   6.217 -4.3009  0.0315 -0.5979
  745MOL0     H  566   6.223   4.643   6.063 -4.8899 -0.2107  1.0120
  745MOL0     H  567   6.362   4.847   6.208 -2.1332  0.6917 -1.3579
  745MOL0     H  568   6.452   4.741   6.102 -0.2175 -2.6808  0.0909
  745MOL0     H  569   6.447   4.568   6.300 -1.1073  0.2803 -0.4752
  745MOL0     H  570   6.431   4.721   6.392  1.1045  0.2394  0.0053
  745MOL0     H  571   6.672   4.680   6.389  0.2621 -2.2553 -0.9407
  745MOL0     H  572   6.614   4.822   6.297 -2.8873  0.3032 -0.4715
  745MOL0     H  573   6.823   4.604   6.006  0.3227  0.6298  0.2298
  745MOL0     H  574   5.934   4.877   6.310 -3.1201  1.4915 -2.7188
  745MOL0     H  575   5.709   4.790   6.330  0.9563  0.4247  0.0390
  746MOL0     O  576  10.933   8.252   0.317  0.7319 -0.1238 -0.3984
  746MOL0     C  577  10.956   8.224   0.203  0.2526 -0.1822 -0.4767
  746MOL0     O  578  10.869   8.216   0.103 -0.3695  0.1130  0.3103
  746MOL0     C  579  10.733   8.210   0.122  0.0581  0.2287 -0.2454
  746MOL0     C  580  10.666   8.143   0.023  0.4393  0.0474 -0.9132
  746MOL0     C  581  10.528   8.138   0.011  0.5387  0.9280  0.2618
  746MOL0     C  582  10.446   8.207   0.101  0.6625  0.9181 -0.2688
  746MOL0     O  583  10.306   8.203   0.087  0.2321 -0.6264 -0.2869
  746MOL0     C  584  10.225   8.237   0.204 -0.6048  0.0826  0.2284
  746MOL0     C  585  10.094   8.263   0.153  0.2348 -0.8358 -0.1129
  746MOL0     C  586   9.998   8.302   0.266  0.0146  0.1331  0.5426
  746MOL0     C  587   9.852   8.326   0.241 -0.7074  0.5904 -0.1096
  746MOL0     C  588   9.778   8.372   0.364 -0.0783 -0.3433 -0.8398
  746MOL0     C  589   9.630   8.365   0.335 -0.4954 -0.1993  0.0378
  746MOL0     C  590   9.540   8.407   0.456  0.2013  1.8028  0.3561
  746MOL0     C  591   9.529   8.296   0.559 -0.7501  0.1477 -0.6214
  746MOL0     N  592   9.443   8.185   0.520  0.0531 -0.5731  0.2727
  746MOL0     C  593   9.315   8.200   0.469 -0.3329 -0.1792  0.8373
  746MOL0     C  594   9.297   8.076   0.406  0.3935  0.1878  0.0391
  746MOL0     C  595   9.171   8.041   0.341  0.1254 -0.6210 -0.3414
  746MOL0     C  596   9.193   8.039   0.195 -0.7407  0.2710  0.3579
  746MOL0     C  597   9.132   7.913   0.124  0.7547  0.1444 -0.2638
  746MOL0     C  598   8.986   7.922   0.142  0.3347  0.3155  0.0929
  746MOL0     O  599   8.930   7.835   0.051  0.0514 -0.0939  0.2585
  746MOL0     C  600   8.807   7.784   0.087 -0.5674  0.1292  0.6419
  746MOL0     C  601   8.788   7.659   0.039 -0.1226  0.5663  0.0617
  746MOL0     C  602   8.669   7.590   0.067  0.8522  0.8170 -0.1568
  746MOL0     C  603   8.656   7.449   0.011  0.3061 -0.2029  0.3696
  746MOL0     C  604   8.568   7.650   0.159  0.4054  0.2802  0.6180
  746MOL0     C  605   8.432   7.592   0.198  0.3434  0.5451 -0.5174
  746MOL0     O  606   8.360   7.650   0.308 -1.1741  0.4599 -0.5345
  746MOL0     C  607   8.226   7.626   0.326 -0.6993 -0.1545 -0.2544
  746MOL0     C  608   8.133   7.730   0.320  0.3368 -0.0740  0.7486
  746MOL0     C  609   7.998   7.695   0.326  1.1609 -1.0726  0.0269
  746MOL0     C  610   7.952   7.570   0.354  0.5664 -0.4739 -0.0668
  746MOL0     O  611   7.824   7.547   0.385 -0.3527  0.5771 -0.0938
  746MOL0     C  612   7.712   7.622   0.327 -0.8179 -0.7458  0.1870
  746MOL0     C  613   7.586   7.537   0.308  0.5185  0.4515  0.2463
  746MOL0     C  614   7.441   7.603   0.299 -0.2602 -0.9235 -0.0580
  746MOL0     C  615   7.394   7.646   0.156 -0.8576  0.7672 -1.0091
  746MOL0     C  616   7.277   7.734   0.154  0.1355 -0.7266  0.6281
  746MOL0     C  617   7.221   7.745   0.016  0.2870 -0.4969 -0.2566
  746MOL0     C  618   7.167   7.886  -0.009 -0.4316  0.2830 -0.3737
  746MOL0     C  619   7.120   7.924  -0.141 -0.1849 -0.4043  0.0630
  746MOL0    Cl  620   7.048   8.088  -0.131  0.1156 -0.3068 -0.4610
  746MOL0     C  621   8.041   7.473   0.372  0.6342 -0.4347 -0.0637
  746MOL0     C  622   8.179   7.501   0.356  1.0793  0.3785 -0.0721
  746MOL0     O  623   8.396   7.492   0.134 -0.4413  0.1197  0.2702
  746MOL0     C  624   8.595   7.774   0.203 -0.2024  0.3415 -0.9724
  746MOL0     C  625   8.710   7.843   0.172  0.5155 -0.6155 -0.0115
  746MOL0     N  626   9.404   7.995   0.435 -0.1699 -0.3185 -0.2860
  746MOL0     N  627   9.493   8.069   0.491  0.4253 -0.5430 -0.5892
  746MOL0     C  628  10.514   8.276   0.203 -0.2988 -0.1518  0.1380
  746MOL0     C  629  10.650   8.279   0.213 -0.5408 -0.2558  1.0411
  746MOL0     C  630  11.094   8.186   0.172 -0.4584  0.2266 -0.0178
  746MOL0     C  631  11.190   8.161   0.274 -0.4069 -0.7512 -0.7510
  746MOL0     C  632  11.321   8.128   0.239 -0.3232 -0.2262  0.1917
  746MOL0     C  633  11.357   8.124   0.105  0.1978 -0.0073  0.2871
  746MOL0     O  634  11.477   8.083   0.070 -0.9156  0.2240  0.5099
  746MOL0     C  635  11.526   7.963   0.133  0.3795 -0.1461  0.1334
  746MOL0     C  636  11.641   7.982   0.237  0.5223 -0.0863  0.7987
  746MOL0     C  637  11.672   7.842   0.304  0.1415 -0.1368  0.3607
  746MOL0     C  638  11.803   7.851   0.371 -0.2871 -0.2177 -0.3303
  746MOL0     C  639  11.822   7.737   0.460  0.2975 -0.7828 -0.4709
  746MOL0     C  640  11.833   7.644   0.538 -1.1940 -1.0866 -0.1136
  746MOL0     C  641  11.267   8.146   0.002  0.1511  0.3941 -0.5299
  746MOL0     C  642  11.138   8.174   0.032  0.0294 -0.3153 -0.1501
  746MOL0     H  643  10.722   8.083  -0.048  0.0037 -1.1403 -0.2847
  746MOL0     H  644  10.488   8.089  -0.077  1.3650  1.9384 -0.7053
  746MOL0     H  645  10.229   8.168   0.289  0.3788 -1.4185 -0.9862
  746MOL0     H  646  10.255   8.336   0.241 -0.3208  0.5472 -1.1979
  746MOL0     H  647  10.103   8.349   0.086 -0.2470 -0.4220  0.3398
  746MOL0     H  648  10.052   8.179   0.097  0.5430  0.0425 -1.7154
  746MOL0     H  649  10.004   8.230   0.348  0.1725 -0.5858 -0.0893
  746MOL0     H  650  10.031   8.400   0.301 -2.3504  2.3557 -2.8034
  746MOL0     H  651   9.846   8.404   0.164 -1.7340 -0.2614 -0.9264
  746MOL0     H  652   9.813   8.237   0.190 -0.7235  0.8882 -0.6301
  746MOL0     H  653   9.807   8.299   0.440 -0.3019  0.2635 -0.1595
  746MOL0     H  654   9.813   8.470   0.398  0.3779 -0.8584  0.2132
  746MOL0     H  655   9.611   8.435   0.253  1.6317  1.6598  1.0292
  746MOL0     H  656   9.607   8.263   0.304  1.0604  0.3750 -3.5296
  746MOL0     H  657   9.574   8.498   0.507  1.7126  1.6788 -0.3604
  746MOL0     H  658   9.439   8.426   0.418 -1.0758 -0.5117  2.3010
  746MOL0     H  659   9.484   8.339   0.649 -1.5910 -0.5145 -0.7139
  746MOL0     H  660   9.630   8.261   0.584  0.1969  3.6647  1.2461
  746MOL0     H  661   9.244   8.283   0.470 -0.4197 -0.2480  0.4411
  746MOL0     H  662   9.157   7.935   0.363 -1.1039 -0.6134 -1.0106
  746MOL0     H  663   9.085   8.102   0.368 -0.6411 -2.9343  3.0258
  746MOL0     H  664   9.298   8.035   0.167 -0.3595  0.6915  1.6436
  746MOL0     H  665   9.160   8.132   0.147  2.2527 -0.4526 -3.6094
  746MOL0     H  666   9.172   7.818   0.161 -1.9226 -1.1413 -0.4421
  746MOL0     H  667   9.157   7.913   0.018 -3.1676 -0.0756 -1.3416
  746MOL0     H  668   8.949   8.022   0.115  0.2728  0.4003  0.4856
  746MOL0     H  669   8.950   7.916   0.245  0.1398  0.4698  0.0337
  746MOL0     H  670   8.872   7.609  -0.008 -1.3018 -4.2850  2.4391
  746MOL0     H  671   8.744   7.422  -0.048  1.1670 -0.2282  1.6267
  746MOL0     H  672   8.633   7.384   0.096 -5.1024 -0.2320 -0.7488
  746MOL0     H  673   8.574   7.437  -0.061  1.6405  1.4888 -1.5335
  746MOL0     H  674   8.158   7.835   0.310 -0.9343  0.2841  1.0811
  746MOL0     H  675   7.929   7.779   0.326  2.0885 -0.2947 -0.3267
  746MOL0     H  676   7.693   7.717   0.377  1.3870  0.8483 -1.7829
  746MOL0     H  677   7.745   7.652   0.227  0.4522 -1.5085  0.3525
  746MOL0     H  678   7.593   7.471   0.221 -1.0335  1.3087 -0.5785
  746MOL0     H  679   7.568   7.479   0.400 -1.1501 -0.4753 -0.6241
  746MOL0     H  680   7.427   7.683   0.372  0.9452 -2.4728  1.9768
  746MOL0     H  681   7.357   7.541   0.330 -0.3671  0.0705  1.7673
  746MOL0     H  682   7.477   7.708   0.120  3.1214 -2.7615  1.1373
  746MOL0     H  683   7.374   7.557   0.096  2.9235 -1.1418  0.2550
  746MOL0     H  684   7.289   7.834   0.196 -0.4369 -0.1795 -0.4709
  746MOL0     H  685   7.192   7.705   0.216 -0.0149  1.7912  1.7331
  746MOL0     H  686   7.308   7.727  -0.048  1.4077  0.8270  0.8372
  746MOL0     H  687   7.145   7.670  -0.009  0.7594 -1.4511  1.0568
  746MOL0     H  688   7.248   7.956   0.017 -2.4721  3.0401 -1.0359
  746MOL0     H  689   7.091   7.906   0.066 -0.5119 -0.8881 -0.1159
  746MOL0     H  690   7.049   7.853  -0.185 -0.0885  0.0643 -0.8634
  746MOL0     H  691   7.199   7.920  -0.216 -1.5060  0.4569 -1.4141
  746MOL0     H  692   8.002   7.383   0.418 -0.4216 -0.5049 -1.0239
  746MOL0     H  693   8.249   7.419   0.369 -1.3193 -2.0480 -1.5682
  746MOL0     H  694   8.520   7.816   0.270 -0.9713 -2.1840 -0.1595
  746MOL0     H  695   8.735   7.946   0.192 -0.7644 -0.2940  0.0029
  746MOL0     H  696  10.461   8.328   0.283  0.2942  0.6285  0.0336
  746MOL0     H  697  10.694   8.350   0.282  0.1089  0.5086 -0.1366
  746MOL0     H  698  11.175   8.180   0.380 -0.4725  2.4830 -1.2250
  746MOL0     H  699  11.386   8.095   0.319 -0.5331 -1.4535 -0.1250
  746MOL0     H  700  11.449   7.896   0.173  0.1335  0.1017  0.0785
  746MOL0     H  701  11.561   7.899   0.051  2.5453 -0.0018  0.8836
  746MOL0     H  702  11.612   8.054   0.314  0.2205  3.0240 -1.9797
  746MOL0     H  703  11.732   8.013   0.185  0.9805 -2.4719  0.0801
  746MOL0     H  704  11.661   7.762   0.230  1.6218  0.6993 -0.8201
  746MOL0     H  705  11.591   7.828   0.377 -0.0294 -2.2357 -0.1460
  746MOL0     H  706  11.803   7.937   0.438 -1.5317 -1.2522  1.0650
  746MOL0     H  707  11.891   7.858   0.306  0.0679 -1.8047 -0.0796
  746MOL0     H  708  11.844   7.556   0.599  0.1544 -2.5837 -2.3131
  746MOL0     H  709  11.300   8.133  -0.101  2.7463 -1.6796  0.4578
  746MOL0     H  710  11.070   8.192  -0.051  0.2580 -1.5226 -0.6247
  747MOL0     O  711   1.568   9.559  10.454  0.5076 -0.0041  0.5680
  747MOL0     C  712   1.681   9.609  10.465  0.5512  0.0476  0.0028
  747MOL0     O  713   1.717   9.706  10.551  0.1435 -0.0171 -0.2811
  747MOL0     C  714   1.625   9.763  10.643 -0.2946  1.0473  0.1484
  747MOL0     C  715   1.671   9.800  10.770  0.3211 -1.1924  0.1784
  747MOL0     C  716   1.577   9.834  10.872  0.2149  0.4348  0.3783
  747MOL0     C  717   1.447   9.834  10.855 -0.3793 -0.8471  0.0804
  747MOL0     O  718   1.365   9.876  10.959  0.3813 -0.0683  0.0259
  747MOL0     C  719   1.240   9.946  10.929  0.8804  1.4428 -0.5894
  747MOL0     C  720   1.107   9.867  10.916  0.1449  0.3364  0.1772
  747MOL0     C  721   1.085   9.796  11.043  0.0079 -0.2660 -0.2391
  747MOL0     C  722   0.965   9.705  11.051 -0.1800  1.1579  0.3390
  747MOL0     C  723   0.955   9.653  11.189  0.6545 -0.3387  0.2136
  747MOL0     C  724   0.844   9.564  11.226 -0.9877 -0.3539 -0.2940
  747MOL0     C  725   0.729   9.647  11.284  0.4923  0.2111  0.7166
  747MOL0     C  726   0.620   9.557  11.360 -0.4023 -0.0484 -0.0012
  747MOL0     N  727   0.549   9.480  11.257 -0.2076 -0.0381 -0.7127
  747MOL0     C  728   0.486   9.525  11.150  0.3909 -0.5797  0.5978
  747MOL0     C  729   0.436   9.410  11.090  1.0611 -0.3578  0.0150
  747MOL0     C  730   0.365   9.398  10.959  0.7198 -0.2664 -0.1993
  747MOL0     C  731   0.224   9.458  10.960 -0.4136 -0.1344 -0.2883
  747MOL0     C  732   0.169   9.424  10.825 -0.1254  0.0381 -0.4178
  747MOL0     C  733   0.024   9.475  10.804  0.6247 -0.2235  0.1174
  747MOL0     O  734  -0.045   9.435  10.919  0.1374  0.3081 -0.4018
  747MOL0     C  735  -0.181   9.449  10.915 -0.7083  0.4317  0.1719
  747MOL0     C  736  -0.257   9.485  10.806 -0.4255  0.5615  0.1395
  747MOL0     C  737  -0.397   9.477  10.805 -0.0551 -0.4101 -0.6207
  747MOL0     C  738  -0.467   9.512  10.679 -0.3326  0.4054  0.1624
  747MOL0     C  739  -0.468   9.444  10.928 -0.1096  0.5739 -0.7911
  747MOL0     C  740  -0.609   9.425  10.941  0.7757 -0.5021 -0.4538
  747MOL0     O  741  -0.663   9.430  11.071  0.0127 -0.7132 -0.1352
  747MOL0     C  742  -0.799   9.439  11.096  0.6810  0.3759  0.2322
  747MOL0     C  743  -0.896   9.485  11.002 -0.0312 -0.5041 -0.5018
  747MOL0     C  744  -1.031   9.503  11.047  0.3468  0.7489  1.4866
  747MOL0     C  745  -1.063   9.481  11.184  0.4397  0.5697 -0.0968
  747MOL0     O  746  -1.186   9.512  11.231  0.1528  0.6190 -0.2569
  747MOL0     C  747  -1.198   9.624  11.327  0.3423  0.3585 -0.1012
  747MOL0     C  748  -1.322   9.601  11.410  0.6046 -0.9505  0.2020
  747MOL0     C  749  -1.457   9.627  11.331 -0.4065  0.3561  0.0396
  747MOL0     C  750  -1.576   9.582  11.417  0.6703 -0.9132 -0.6131
  747MOL0     C  751  -1.713   9.599  11.340 -0.4639  0.4807  0.0744
  747MOL0     C  752  -1.826   9.548  11.425  0.6986  0.1517  1.1190
  747MOL0     C  753  -1.955   9.598  11.354 -0.9807 -1.1527 -0.2758
  747MOL0     C  754  -2.082   9.581  11.436 -0.0207 -0.0718 -0.2562
  747MOL0    Cl  755  -2.066   9.645  11.601 -0.8277  0.5225 -0.0782
  747MOL0     C  756  -0.963   9.457  11.277 -0.1394  0.0596 -0.4614
  747MOL0     C  757  -0.830   9.437  11.235  0.1947  0.3054 -0.7529
  747MOL0     O  758  -0.668   9.384  10.842 -0.2072 -0.2934  0.2461
  747MOL0     C  759  -0.389   9.424  11.042 -0.7157 -0.2342 -0.2375
  747MOL0     C  760  -0.248   9.432  11.034  0.6829 -0.2447  0.0696
  747MOL0     N  761   0.463   9.301  11.175 -0.7100  0.7061  0.3526
  747MOL0     N  762   0.538   9.343  11.264 -0.2074 -0.5796 -0.7066
  747MOL0     C  763   1.406   9.823  10.717 -0.3384  0.5290 -0.4931
  747MOL0     C  764   1.489   9.782  10.612 -0.1647 -0.5052  0.4369
  747MOL0     C  765   1.788   9.563  10.372 -0.0749  0.2476  0.1431
  747MOL0     C  766   1.766   9.457  10.280 -1.3986  0.0182 -0.1468
  747MOL0     C  767   1.876   9.421  10.193  0.6730  0.3757 -0.0614
  747MOL0     C  768   2.002   9.471  10.208  0.3033 -0.6591  0.7414
  747MOL0     O  769   2.104   9.425  10.134 -0.2188  0.6847  0.0258
  747MOL0     C  770   2.122   9.282  10.129  1.0932 -0.1222 -0.5519
  747MOL0     C  771   2.181   9.224  10.257 -0.3413  0.4854 -0.9961
  747MOL0     C  772   2.317   9.297  10.293  0.0194  0.0156  0.4372
  747MOL0     C  773   2.424   9.287  10.179  0.5631  0.2744  0.7993
  747MOL0     C  774   2.501   9.158  10.183 -0.5624 -0.1743 -0.1055
  747MOL0     C  775   2.557   9.051  10.180 -0.4580  0.3709  0.5360
  747MOL0     C  776   2.024   9.574  10.300 -0.4054 -0.3124  0.3304
  747MOL0     C  777   1.921   9.612  10.383  0.6362  0.4199 -0.2970
  747MOL0     H  778   1.775   9.792  10.800  0.3192 -0.7181  0.3323
  747MOL0     H  779   1.628   9.855  10.965 -1.0840 -0.1184  1.2313
  747MOL0     H  780   1.232  10.013  11.015 -3.8139 -0.1571  0.5184
  747MOL0     H  781   1.261   9.995  10.833  1.4936 -1.4099 -2.0240
  747MOL0     H  782   1.025   9.938  10.904  0.0293  0.0673 -0.6737
  747MOL0     H  783   1.102   9.797  10.832  0.0361 -0.7538  1.0628
  747MOL0     H  784   1.174   9.736  11.063 -1.1403 -1.0385  3.2489
  747MOL0     H  785   1.086   9.873  11.121  1.0684 -0.0548 -0.4338
  747MOL0     H  786   0.875   9.761  11.027 -0.9940 -0.0106  0.5674
  747MOL0     H  787   0.970   9.623  10.977 -2.6094 -0.0728  1.4417
  747MOL0     H  788   1.050   9.604  11.210  1.3382  0.3162 -1.2019
  747MOL0     H  789   0.953   9.739  11.258  0.9941 -1.0665  1.1484
  747MOL0     H  790   0.818   9.510  11.135 -1.9302  0.9262 -0.8166
  747MOL0     H  791   0.882   9.489  11.296  0.7231  0.2965 -0.4733
  747MOL0     H  792   0.770   9.718  11.357  1.9946 -0.1763  0.2910
  747MOL0     H  793   0.689   9.711  11.205  2.2239  0.2516 -0.1860
  747MOL0     H  794   0.559   9.632  11.412  0.8088  1.7945 -1.0974
  747MOL0     H  795   0.660   9.490  11.436 -0.6280 -1.0978 -0.7920
  747MOL0     H  796   0.479   9.624  11.105  0.5341 -0.0939  1.6151
  747MOL0     H  797   0.419   9.456  10.884  2.1416 -3.5797 -1.9368
  747MOL0     H  798   0.362   9.294  10.923  2.1003 -0.5782  0.4967
  747MOL0     H  799   0.238   9.566  10.973  0.4854 -0.2828  0.0702
  747MOL0     H  800   0.171   9.400  11.036  0.9195 -2.9147 -1.3657
  747MOL0     H  801   0.168   9.316  10.808  0.4405 -0.2376  1.0753
  747MOL0     H  802   0.230   9.469  10.747 -2.7932  2.3230 -1.3590
  747MOL0     H  803  -0.012   9.417  10.718 -0.4963 -0.0492  0.4567
  747MOL0     H  804   0.025   9.583  10.789 -4.3901 -0.2259 -2.5401
  747MOL0     H  805  -0.203   9.501  10.713  1.8001 -3.3458  0.5599
  747MOL0     H  806  -0.461   9.421  10.618  0.0756  0.0422  0.7325
  747MOL0     H  807  -0.567   9.548  10.703 -0.1742  1.5654 -0.8722
  747MOL0     H  808  -0.414   9.585  10.618  1.1993 -1.0186 -0.3092
  747MOL0     H  809  -0.865   9.493  10.898 -1.6685  3.2417 -0.8281
  747MOL0     H  810  -1.115   9.522  10.980  1.0923  1.1073  0.6310
  747MOL0     H  811  -1.112   9.634  11.394 -1.0595  1.1040  1.6773
  747MOL0     H  812  -1.203   9.723  11.279  3.7333  0.6017 -0.1729
  747MOL0     H  813  -1.318   9.495  11.440 -1.0308 -0.7636  1.1773
  747MOL0     H  814  -1.318   9.675  11.490  0.2068  1.6551 -2.0448
  747MOL0     H  815  -1.442   9.567  11.240  2.5377  1.6353 -0.4320
  747MOL0     H  816  -1.467   9.729  11.294 -3.4728  0.1384 -0.0425
  747MOL0     H  817  -1.573   9.478  11.451  0.0239 -0.2515  1.7002
  747MOL0     H  818  -1.579   9.648  11.505 -0.7337 -2.6293  0.7176
  747MOL0     H  819  -1.691   9.566  11.237  3.6450  0.6195  0.7308
  747MOL0     H  820  -1.724   9.708  11.333 -0.4624  0.5311  0.8562
  747MOL0     H  821  -1.839   9.440  11.417 -2.2125  0.5215 -0.8908
  747MOL0     H  822  -1.820   9.568  11.533  2.7202 -0.6392  1.1961
  747MOL0     H  823  -1.969   9.556  11.254  0.8012  1.8163 -1.9314
  747MOL0     H  824  -1.944   9.706  11.337  0.2868 -1.0590  0.8999
  747MOL0     H  825  -2.111   9.476  11.438 -0.5988  0.0848  0.7216
  747MOL0     H  826  -2.158   9.642  11.386 -1.5833 -0.1238  1.8775
  747MOL0     H  827  -1.005   9.453  11.378 -0.4069 -1.0842 -0.6017
  747MOL0     H  828  -0.751   9.421  11.307 -0.6347 -0.7201 -0.0410
  747MOL0     H  829  -0.433   9.404  11.139  2.0945  1.9000  1.6163
  747MOL0     H  830  -0.191   9.419  11.126 -1.1299 -0.1179  1.2658
  747MOL0     H  831   1.301   9.833  10.689 -0.8369 -0.3451  0.9353
  747MOL0     H  832   1.457   9.770  10.509  1.2782 -1.2073  0.0410
  747MOL0     H  833   1.670   9.407  10.271 -0.9402 -0.6122 -2.4557
  747MOL0     H  834   1.865   9.356  10.107  1.4267 -1.0134  0.8551
  747MOL0     H  835   2.025   9.234  10.118  1.1881 -0.1678 -1.2896
  747MOL0     H  836   2.174   9.261  10.035  1.7651  2.6067 -0.8903
  747MOL0     H  837   2.180   9.115  10.253  0.4099  0.3128  1.6598
  747MOL0     H  838   2.111   9.252  10.337  0.6690 -2.1410  0.9731
  747MOL0     H  839   2.349   9.261  10.391 -2.0748 -0.2865  1.0582
  747MOL0     H  840   2.292   9.403  10.306 -4.0430 -0.5275 -1.2801
  747MOL0     H  841   2.497   9.367  10.194 -0.0463  0.8859  0.5535
  747MOL0     H  842   2.383   9.311  10.081 -0.3771 -2.4837  0.4182
  747MOL0     H  843   2.586   8.948  10.181 -0.6537  0.2545 -1.4337
  747MOL0     H  844   2.123   9.618  10.298 -0.3641 -0.1078 -4.0056
  747MOL0     H  845   1.936   9.688  10.459 -0.0333 -0.6638  0.9385
  748MOL0     O  846   5.415   3.738   8.222  0.4658  0.2980 -0.1445
  748MOL0     C  847   5.484   3.818   8.147 -0.2853  0.6854  0.2386
  748MOL0     O  848   5.441   3.924   8.072 -0.3285  0.1491 -0.2536
  748MOL0     C  849   5.307   3.950   8.078 -0.6003  0.0228 -0.2740
  748MOL0     C  850   5.233   3.950   7.959  0.5074  0.0832 -0.1700
  748MOL0     C  851   5.095   3.979   7.961 -0.1322 -0.7692 -0.3970
  748MOL0     C  852   5.027   4.009   8.078  0.5918  0.1601 -0.1117
  748MOL0     O  853   4.893   4.030   8.098  0.5003  0.4495  0.2973
  748MOL0     C  854   4.804   4.006   7.993  0.2179  0.6110  0.6088
  748MOL0     C  855   4.655   4.031   8.027  0.5904 -0.4068 -0.3047
  748MOL0     C  856   4.569   4.082   7.913 -0.6176  0.1075 -0.2065
  748MOL0     C  857   4.431   4.110   7.961 -0.0586  0.7858 -0.1353
  748MOL0     C  858   4.338   4.134   7.846  0.5606 -0.3461 -0.0221
  748MOL0     C  859   4.205   4.061   7.860  0.4409 -0.1334 -0.1211
  748MOL0     C  860   4.113   4.054   7.732 -0.9505  0.0049  0.8266
  748MOL0     C  861   4.058   4.193   7.695  0.6112  0.6084  0.2140
  748MOL0     N  862   4.009   4.270   7.811  0.0784 -0.0996  0.3600
  748MOL0     C  863   3.879   4.265   7.857 -0.1368 -0.4482  0.9533
  748MOL0     C  864   3.872   4.364   7.946  0.4429  0.3094 -0.6343
  748MOL0     C  865   3.755   4.379   8.039  0.4368 -0.6541  0.7689
  748MOL0     C  866   3.782   4.333   8.187  0.3499 -0.3043 -0.2485
  748MOL0     C  867   3.656   4.335   8.277  0.6167 -0.6008 -0.7361
  748MOL0     C  868   3.578   4.209   8.245 -0.3275 -0.4449  0.8180
  748MOL0     O  869   3.459   4.181   8.314  0.4854 -0.2211  0.0163
  748MOL0     C  870   3.377   4.089   8.262  1.5359  0.0533  0.1354
  748MOL0     C  871   3.412   3.977   8.187  0.6430  0.4996  0.2414
  748MOL0     C  872   3.323   3.880   8.150  0.5622 -0.7811 -0.3265
  748MOL0     C  873   3.377   3.766   8.063  0.3680  0.3154 -0.3369
  748MOL0     C  874   3.185   3.893   8.192 -0.0221  0.2338  0.7595
  748MOL0     C  875   3.084   3.784   8.165 -0.2479  0.1471  0.2994
  748MOL0     O  876   2.949   3.818   8.178 -0.4841  0.1800 -0.0377
  748MOL0     C  877   2.853   3.727   8.144 -0.6374  0.3560 -0.1452
  748MOL0     C  878   2.857   3.644   8.032  0.2477 -0.2443  0.1979
  748MOL0     C  879   2.749   3.549   8.003 -1.0734  0.2417 -1.2308
  748MOL0     C  880   2.640   3.543   8.085  0.3837 -0.2547  0.7913
  748MOL0     O  881   2.525   3.466   8.066 -0.4096 -0.2347  0.0655
  748MOL0     C  882   2.496   3.409   7.937 -0.7112  0.4333 -0.1709
  748MOL0     C  883   2.344   3.387   7.916 -1.1114  0.3980  0.3089
  748MOL0     C  884   2.266   3.513   7.912  0.1879  0.1896  0.0069
  748MOL0     C  885   2.114   3.482   7.921 -1.0370  0.8281  0.6182
  748MOL0     C  886   2.041   3.599   7.851  0.0636  0.0923  0.1119
  748MOL0     C  887   1.898   3.574   7.873  0.4375  0.5724 -0.4813
  748MOL0     C  888   1.799   3.661   7.798 -0.5367 -0.1350 -0.6718
  748MOL0     C  889   1.669   3.581   7.795  0.2728 -0.1290  0.8060
  748MOL0    Cl  890   1.533   3.685   7.758  0.1196  0.1365 -0.6865
  748MOL0     C  891   2.631   3.645   8.175 -0.4699 -0.0257 -0.1705
  748MOL0     C  892   2.740   3.733   8.212 -0.4352  0.1865  0.1457
  748MOL0     O  893   3.121   3.671   8.154  0.3229  0.5612 -0.1197
  748MOL0     C  894   3.145   4.000   8.272 -0.7042 -0.1670  0.5247
  748MOL0     C  895   3.245   4.099   8.308 -0.1452  0.1045 -0.0659
  748MOL0     N  896   3.993   4.423   7.954 -0.0394 -1.0711  0.6754
  748MOL0     N  897   4.074   4.366   7.870  0.1805 -0.5754  0.4062
  748MOL0     C  898   5.109   4.013   8.195 -0.1869 -0.0470 -0.1854
  748MOL0     C  899   5.243   3.989   8.197 -0.0042 -0.1981 -0.1894
  748MOL0     C  900   5.635   3.803   8.163 -0.1381 -0.8846  0.2093
  748MOL0     C  901   5.685   3.752   8.283  0.2811  0.5059 -0.4998
  748MOL0     C  902   5.823   3.729   8.293 -0.1768  0.2965  0.7020
  748MOL0     C  903   5.915   3.761   8.186  1.3840 -0.0599 -0.4770
  748MOL0     O  904   6.040   3.733   8.185 -0.3533  0.5343 -0.5117
  748MOL0     C  905   6.103   3.725   8.312 -0.0809  0.2519  0.6347
  748MOL0     C  906   6.253   3.724   8.286 -0.1488  0.9447  0.3090
  748MOL0     C  907   6.325   3.715   8.413  0.0139  0.3469  0.0998
  748MOL0     C  908   6.469   3.760   8.385 -0.1462  0.1199 -0.1099
  748MOL0     C  909   6.524   3.678   8.276  0.3298  0.1225 -0.5987
  748MOL0     C  910   6.564   3.599   8.190  0.3327 -0.3836 -0.9185
  748MOL0     C  911   5.857   3.813   8.068  0.5149 -0.1838  0.6995
  748MOL0     C  912   5.721   3.839   8.067  0.0212 -0.3885 -0.5991
  748MOL0     H  913   5.271   3.924   7.860  0.9361 -0.4753  0.1364
  748MOL0     H  914   5.049   3.961   7.865  2.2209 -1.4218 -1.4716
  748MOL0     H  915   4.822   4.074   7.910  1.3254 -0.1891  0.1718
  748MOL0     H  916   4.809   3.900   7.966 -4.0360 -0.3957  2.8555
  748MOL0     H  917   4.617   3.934   8.061 -2.6889  0.2442 -1.6846
  748MOL0     H  918   4.663   4.104   8.108 -0.3505 -0.0976 -0.4721
  748MOL0     H  919   4.597   4.179   7.871 -2.1804  0.6936  0.0481
  748MOL0     H  920   4.577   4.001   7.840  3.2516  1.2288 -1.2800
  748MOL0     H  921   4.387   4.023   8.011 -0.3153 -0.5289 -2.5444
  748MOL0     H  922   4.436   4.197   8.027 -0.7092 -0.4039  1.5524
  748MOL0     H  923   4.325   4.242   7.838 -0.3587 -0.5671 -2.1852
  748MOL0     H  924   4.381   4.103   7.750 -0.5847  0.1389 -0.7164
  748MOL0     H  925   4.229   3.955   7.873 -4.0409 -1.1799  1.5114
  748MOL0     H  926   4.150   4.099   7.946 -1.5555  0.8441 -1.7249
  748MOL0     H  927   4.177   4.007   7.656 -1.2433  0.7066  0.1377
  748MOL0     H  928   4.028   3.989   7.754 -0.8358  0.2916  2.2279
  748MOL0     H  929   3.974   4.169   7.629 -0.1168 -1.2377  1.7170
  748MOL0     H  930   4.137   4.249   7.643  1.2944 -0.4175  0.1115
  748MOL0     H  931   3.807   4.187   7.834 -0.2375 -0.8019  2.3309
  748MOL0     H  932   3.730   4.486   8.044  3.4690  0.1650  0.0663
  748MOL0     H  933   3.670   4.331   7.988 -0.0846  1.0773 -0.0853
  748MOL0     H  934   3.846   4.408   8.235  1.0341 -2.1275  1.7910
  748MOL0     H  935   3.829   4.236   8.197  2.6177  0.7911  0.3284
  748MOL0     H  936   3.596   4.425   8.261 -1.7883 -2.0233 -0.2376
  748MOL0     H  937   3.679   4.333   8.384  0.9867 -1.0203 -0.8194
  748MOL0     H  938   3.644   4.123   8.261 -0.6338 -1.2182 -1.5895
  748MOL0     H  939   3.554   4.223   8.139  2.0196  2.1247  0.5166
  748MOL0     H  940   3.514   3.973   8.150  0.9394 -0.0035  1.0754
  748MOL0     H  941   3.293   3.719   8.011  0.2734 -0.0766  0.1648
  748MOL0     H  942   3.447   3.802   7.987  0.7314 -2.3159 -1.3405
  748MOL0     H  943   3.431   3.688   8.116  1.7318 -0.6581 -3.0026
  748MOL0     H  944   2.939   3.643   7.961 -1.4907  1.4197 -1.9519
  748MOL0     H  945   2.758   3.476   7.923 -0.1402 -3.9075  2.2950
  748MOL0     H  946   2.523   3.482   7.860  1.7338 -1.5677 -1.3533
  748MOL0     H  947   2.547   3.313   7.932  2.5933  1.9247  1.8953
  748MOL0     H  948   2.339   3.330   7.822  2.6461 -2.7390  1.7244
  748MOL0     H  949   2.306   3.323   7.995  1.4014 -0.7531  0.6876
  748MOL0     H  950   2.292   3.564   7.818 -2.0075  2.1569  0.3621
  748MOL0     H  951   2.287   3.572   8.001  0.1966 -0.0903  0.1895
  748MOL0     H  952   2.090   3.387   7.873  1.3661  0.8007 -0.6674
  748MOL0     H  953   2.080   3.472   8.025 -2.1169  2.4633  0.4711
  748MOL0     H  954   2.064   3.613   7.745 -0.9565  1.0667 -0.0109
  748MOL0     H  955   2.060   3.697   7.897  0.0163 -0.8151  2.1889
  748MOL0     H  956   1.884   3.473   7.833  0.6927  0.7446 -1.0151
  748MOL0     H  957   1.871   3.567   7.979 -1.6639 -1.5090 -1.0469
  748MOL0     H  958   1.844   3.678   7.700 -0.0862  4.5536  0.1131
  748MOL0     H  959   1.791   3.756   7.852 -0.4150  0.3306 -1.4481
  748MOL0     H  960   1.636   3.534   7.888 -3.4758 -3.4864 -1.8982
  748MOL0     H  961   1.676   3.509   7.713  0.1066  1.6692 -0.8292
  748MOL0     H  962   2.550   3.661   8.245  1.7517 -0.5849  2.7271
  748MOL0     H  963   2.723   3.798   8.298 -0.1991 -1.9172  1.8901
  748MOL0     H  964   3.038   4.013   8.286 -1.0248 -1.6337 -0.3924
  748MOL0     H  965   3.212   4.178   8.375  1.7200  1.5331 -0.7486
  748MOL0     H  966   5.059   4.033   8.289  0.4442  1.9001 -0.2314
  748MOL0     H  967   5.301   3.994   8.289  1.5532  1.1072 -1.1855
  748MOL0     H  968   5.616   3.734   8.365  0.5577 -0.5496 -0.4773
  748MOL0     H  969   5.856   3.685   8.387  1.7405  0.7826  0.2878
  748MOL0     H  970   6.075   3.808   8.378 -0.5591  0.7314 -0.1509
  748MOL0     H  971   6.071   3.630   8.356 -1.9148 -0.0610 -1.2543
  748MOL0     H  972   6.279   3.818   8.236  0.4661 -0.3365 -1.9109
  748MOL0     H  973   6.279   3.642   8.218 -1.2713 -0.4182  1.4442
  748MOL0     H  974   6.332   3.620   8.466  2.5143  0.3610 -0.0776
  748MOL0     H  975   6.280   3.785   8.484  2.1548  2.9450 -0.9336
  748MOL0     H  976   6.528   3.757   8.478 -1.0495  1.7221  0.5649
  748MOL0     H  977   6.463   3.861   8.343 -0.8443  0.9546  1.8590
  748MOL0     H  978   6.607   3.522   8.129  2.9571  1.0454 -1.0040
  748MOL0     H  979   5.917   3.839   7.981 -0.0837 -0.1533  0.2903
  748MOL0     H  980   5.689   3.877   7.970  0.8880  1.3231 -0.2442
  749MOL0     O  981   0.809   9.017   0.824 -0.0037 -0.1713 -0.3621
  749MOL0     C  982   0.859   9.045   0.715  0.6406 -0.5711 -0.6285
  749MOL0     O  983   0.792   9.103   0.614  0.3664 -0.7736  0.3172
  749MOL0     C  984   0.688   9.191   0.638  0.6716 -0.2395  0.9278
  749MOL0     C  985   0.577   9.207   0.544  0.1706  0.3474  0.0950
  749MOL0     C  986   0.467   9.299   0.563 -0.1994  0.3526 -0.4431
  749MOL0     C  987   0.476   9.388   0.676  0.1823 -0.7992  1.3295
  749MOL0     O  988   0.376   9.481   0.681 -0.0320  0.2321 -0.0548
  749MOL0     C  989   0.325   9.517   0.815 -0.0512  0.6241  0.0877
  749MOL0     C  990   0.180   9.570   0.782 -0.3582 -0.3793  0.3001
  749MOL0     C  991   0.090   9.460   0.717 -0.1755 -0.4311 -0.8023
  749MOL0     C  992  -0.049   9.521   0.672  0.1807 -0.6045 -0.1734
  749MOL0     C  993  -0.118   9.424   0.579 -0.2384  0.4247  0.1257
  749MOL0     C  994  -0.261   9.463   0.539 -0.0461 -0.4178 -0.5091
  749MOL0     C  995  -0.362   9.424   0.642  0.0477 -0.5280  0.3758
  749MOL0     C  996  -0.499   9.438   0.573  0.9233  0.2341  0.1942
  749MOL0     N  997  -0.587   9.420   0.688 -0.4061  0.6634  0.1641
  749MOL0     C  998  -0.653   9.303   0.730  0.7178  0.3609  0.1020
  749MOL0     C  999  -0.727   9.347   0.835  0.2628  0.1604 -0.2822
  749MOL0     C 1000  -0.835   9.273   0.906 -0.5552  0.0106  0.3245
  749MOL0     C 1001  -0.967   9.294   0.829 -0.5327 -0.0054  0.0626
  749MOL0     C 1002  -1.012   9.441   0.819  0.4898  1.0070  0.3784
  749MOL0     C 1003  -1.150   9.454   0.757 -0.7333  0.7384 -0.4364
  749MOL0     O 1004  -1.251   9.381   0.833  0.1542  0.0778  0.0978
  749MOL0     C 1005  -1.381   9.409   0.807 -0.5020 -0.0795  0.2125
  749MOL0     C 1006  -1.431   9.454   0.682 -0.1372  0.4259  0.1967
  749MOL0     C 1007  -1.573   9.471   0.669  0.0442 -0.6248  0.1982
  749MOL0     C 1008  -1.614   9.533   0.537 -0.1022  0.6840 -0.1954
  749MOL0     C 1009  -1.664   9.450   0.771  0.3662 -0.3198 -0.2354
  749MOL0     C 1010  -1.813   9.475   0.765 -0.3954  0.2229  0.1908
  749MOL0     O 1011  -1.882   9.489   0.883 -0.3482  0.0697 -0.2169
  749MOL0     C 1012  -2.022   9.503   0.871  0.4684 -0.0567  0.3137
  749MOL0     C 1013  -2.112   9.396   0.879 -0.8286 -0.8349  0.3289
  749MOL0     C 1014  -2.252   9.412   0.865  0.0474 -0.6197 -0.3173
  749MOL0     C 1015  -2.299   9.538   0.834 -0.1837 -0.3859  0.7126
  749MOL0     O 1016  -2.430   9.557   0.831 -1.4900 -0.3151 -0.0707
  749MOL0     C 1017  -2.485   9.616   0.716  0.1065 -0.2605  0.0679
  749MOL0     C 1018  -2.637   9.608   0.734  0.4577  0.5552  0.4241
  749MOL0     C 1019  -2.686   9.716   0.828 -0.0458 -0.9013 -1.2921
  749MOL0     C 1020  -2.836   9.723   0.827 -0.1930 -0.4973 -0.1881
  749MOL0     C 1021  -2.882   9.823   0.934  0.5493 -0.2062 -0.1347
  749MOL0     C 1022  -2.942   9.954   0.868 -0.2346 -0.7991 -0.5404
  749MOL0     C 1023  -2.833  10.043   0.813  0.8659  0.4767  0.6272
  749MOL0     C 1024  -2.876  10.188   0.792 -0.2239  0.5900  0.8983
  749MOL0    Cl 1025  -2.745  10.280   0.723  0.2052  0.1234  0.2472
  749MOL0     C 1026  -2.208   9.644   0.816 -0.4721  0.0961  0.6737
  749MOL0     C 1027  -2.074   9.622   0.823 -0.0593 -0.3546 -0.1408
  749MOL0     O 1028  -1.863   9.473   0.653  0.0084 -0.0143  0.1368
  749MOL0     C 1029  -1.611   9.404   0.886  1.0409  0.2778  0.0428
  749MOL0     C 1030  -1.477   9.390   0.903  0.5065 -0.0210 -0.1802
  749MOL0     N 1031  -0.698   9.487   0.861 -0.0008  1.1935  0.3261
  749MOL0     N 1032  -0.617   9.528   0.770  0.3700  0.1723  0.9062
  749MOL0     C 1033   0.581   9.373   0.771 -0.1962  0.1170 -0.3759
  749MOL0     C 1034   0.680   9.276   0.755  0.6943 -0.2635  0.3656
  749MOL0     C 1035   0.996   9.005   0.680  0.3829  1.0090  0.3317
  749MOL0     C 1036   1.075   8.960   0.785 -0.4983  0.8468  0.4856
  749MOL0     C 1037   1.206   8.913   0.763  0.5282 -0.5839  0.5300
  749MOL0     C 1038   1.261   8.913   0.638 -0.4408  0.0245  0.2484
  749MOL0     O 1039   1.392   8.871   0.606  0.0127 -0.0862 -0.0838
  749MOL0     C 1040   1.486   8.881   0.712  0.5083 -0.1843  0.5027
  749MOL0     C 1041   1.630   8.861   0.669 -0.5375 -0.2621 -0.0855
  749MOL0     C 1042   1.651   8.758   0.558 -0.3945  0.5004  0.0268
  749MOL0     C 1043   1.583   8.623   0.606  0.5972  0.2042 -0.0457
  749MOL0     C 1044   1.599   8.533   0.498 -0.1902  0.0801  0.7398
  749MOL0     C 1045   1.630   8.448   0.412 -0.0858 -0.1773  0.8571
  749MOL0     C 1046   1.183   8.972   0.535  0.5879 -0.4362  0.8932
  749MOL0     C 1047   1.051   9.017   0.554  0.2720 -0.2339  0.9091
  749MOL0     H 1048   0.588   9.143   0.457 -1.2299  2.1870 -1.5535
  749MOL0     H 1049   0.380   9.310   0.498 -0.3403  0.3265 -0.2619
  749MOL0     H 1050   0.307   9.426   0.873  1.3155  0.9211  1.0325
  749MOL0     H 1051   0.391   9.587   0.867  2.7767  0.8289 -3.3530
  749MOL0     H 1052   0.142   9.612   0.875  2.0772  1.6941  0.4656
  749MOL0     H 1053   0.190   9.650   0.708  1.1072  0.7946  1.6804
  749MOL0     H 1054   0.144   9.409   0.637  2.7402 -0.1523  0.8733
  749MOL0     H 1055   0.061   9.382   0.788 -2.9632  1.9175  0.8542
  749MOL0     H 1056  -0.109   9.546   0.760  1.9817  1.9438  0.4347
  749MOL0     H 1057  -0.050   9.619   0.623 -1.9165  0.4200  1.7045
  749MOL0     H 1058  -0.061   9.419   0.485 -2.7719 -0.0224 -1.4776
  749MOL0     H 1059  -0.107   9.325   0.624  0.5676 -0.4166 -1.8073
  749MOL0     H 1060  -0.271   9.569   0.513  2.6323  0.4352  1.4667
  749MOL0     H 1061  -0.281   9.407   0.447 -0.3523 -0.6710 -0.2908
  749MOL0     H 1062  -0.347   9.322   0.676 -1.0637 -1.0385 -0.5819
  749MOL0     H 1063  -0.346   9.500   0.719 -0.7538 -1.0998  1.1236
  749MOL0     H 1064  -0.507   9.352   0.506  0.1807 -1.0299  1.8376
  749MOL0     H 1065  -0.515   9.534   0.523 -1.0382  0.7188  1.6635
  749MOL0     H 1066  -0.671   9.212   0.673 -0.3840 -0.0623  1.1042
  749MOL0     H 1067  -0.820   9.165   0.900  2.4832  0.3970 -0.8942
  749MOL0     H 1068  -0.839   9.313   1.008  0.2895 -0.3118  0.4916
  749MOL0     H 1069  -1.050   9.247   0.884 -1.4295  1.0992 -0.2985
  749MOL0     H 1070  -0.958   9.251   0.729  0.1386  0.0130  0.1165
  749MOL0     H 1071  -0.941   9.485   0.748  0.7578 -0.5539 -0.3540
  749MOL0     H 1072  -0.988   9.488   0.915  2.2902 -1.2971  1.1479
  749MOL0     H 1073  -1.132   9.408   0.659  2.7458  0.9762 -0.0292
  749MOL0     H 1074  -1.165   9.562   0.745  0.0870  1.0608  1.2508
  749MOL0     H 1075  -1.367   9.472   0.595 -1.0884 -0.2803 -0.6787
  749MOL0     H 1076  -1.649   9.451   0.473  0.3432 -1.4470  2.0921
  749MOL0     H 1077  -1.683   9.618   0.541 -1.1007  0.3306 -4.5908
  749MOL0     H 1078  -1.524   9.573   0.491 -0.0128  2.0218  1.1019
  749MOL0     H 1079  -2.083   9.297   0.915 -0.7270 -1.2666 -0.8771
  749MOL0     H 1080  -2.333   9.339   0.867 -0.7438  0.2423 -0.1127
  749MOL0     H 1081  -2.444   9.717   0.706  1.3188 -0.8069 -0.8315
  749MOL0     H 1082  -2.469   9.562   0.621  2.3597  0.7204 -0.1788
  749MOL0     H 1083  -2.689   9.625   0.639  4.6417  4.1193 -1.5797
  749MOL0     H 1084  -2.669   9.508   0.763  1.3015  0.6418  1.7356
  749MOL0     H 1085  -2.653   9.816   0.796 -2.7351  0.6130  0.3186
  749MOL0     H 1086  -2.645   9.699   0.928  0.1589  2.8940 -0.5735
  749MOL0     H 1087  -2.856   9.749   0.723  2.4110 -3.7030 -1.6469
  749MOL0     H 1088  -2.878   9.624   0.845 -1.6032 -0.1872 -1.5770
  749MOL0     H 1089  -2.799   9.846   1.002  0.1058 -3.5031  1.7412
  749MOL0     H 1090  -2.956   9.772   0.995  2.9236 -4.1738 -0.2359
  749MOL0     H 1091  -3.016   9.922   0.794 -1.1420  2.7614 -1.3543
  749MOL0     H 1092  -2.998  10.010   0.944 -2.1914 -1.9985 -1.0281
  749MOL0     H 1093  -2.802   9.995   0.719  0.2748 -1.8786  1.5695
  749MOL0     H 1094  -2.744  10.037   0.876  1.8757 -0.0514 -0.7960
  749MOL0     H 1095  -2.902  10.237   0.887  2.1440  0.7295  1.5527
  749MOL0     H 1096  -2.968  10.201   0.734  0.4430  3.1494  0.2585
  749MOL0     H 1097  -2.235   9.746   0.789 -2.0764 -0.5767 -0.4338
  749MOL0     H 1098  -2.003   9.704   0.817 -0.9127  0.4041 -0.0725
  749MOL0     H 1099  -1.673   9.390   0.975 -1.5384  1.4908 -1.4598
  749MOL0     H 1100  -1.431   9.371   0.999 -0.9850 -1.1061  0.3533
  749MOL0     H 1101   0.581   9.414   0.872  1.7531  0.3454 -0.4264
  749MOL0     H 1102   0.742   9.263   0.843 -1.9944 -2.5514  2.0633
  749MOL0     H 1103   1.034   8.948   0.885  1.3802 -0.0015  1.2019
  749MOL0     H 1104   1.265   8.857   0.835  3.2174  0.4399 -0.7287
  749MOL0     H 1105   1.475   8.971   0.773  1.3616 -0.9540  1.8719
  749MOL0     H 1106   1.463   8.800   0.783  0.3970 -0.4854  0.1236
  749MOL0     H 1107   1.685   8.831   0.758  0.1161 -0.6091 -0.5930
  749MOL0     H 1108   1.668   8.957   0.632  2.0824 -0.9436  0.6479
  749MOL0     H 1109   1.758   8.742   0.543 -0.4592  1.3122 -1.4429
  749MOL0     H 1110   1.601   8.794   0.468 -1.4249 -1.8062 -0.3949
  749MOL0     H 1111   1.474   8.629   0.611  0.5417 -1.1479  0.5954
  749MOL0     H 1112   1.619   8.588   0.703 -2.9355 -0.8216  1.0125
  749MOL0     H 1113   1.642   8.370   0.340  2.2132 -0.6008  1.6095
  749MOL0     H 1114   1.224   8.976   0.434  2.0501  1.0341  1.4927
  749MOL0     H 1115   0.994   9.049   0.467 -2.7969 -2.5043  1.9115
  750MOL0     O 1116  10.177   0.782   8.418 -0.1912 -0.2625  0.1194
  750MOL0     C 1117  10.205   0.763   8.534 -0.0682  0.7255  0.8017
  750MOL0     O 1118  10.327   0.722   8.579 -0.1090  0.2449  0.4073
  750MOL0     C 1119  10.423   0.694   8.484 -0.4857 -1.0904  0.1836
  750MOL0     C 1120  10.465   0.777   8.376 -0.1055  0.5284  0.1031
  750MOL0     C 1121  10.565   0.736   8.286 -0.0527  0.0523  0.8744
  750MOL0     C 1122  10.639   0.617   8.306 -0.0036 -0.3162 -0.2340
  750MOL0     O 1123  10.737   0.584   8.219 -0.3285 -0.7075  0.1511
  750MOL0     C 1124  10.865   0.555   8.281 -0.5759  0.4006  0.1336
  750MOL0     C 1125  10.982   0.622   8.216 -0.8499  0.2855  0.3468
  750MOL0     C 1126  11.119   0.574   8.274  0.5933  0.8090  0.0510
  750MOL0     C 1127  11.228   0.667   8.231  0.2887  0.2127 -1.2635
  750MOL0     C 1128  11.324   0.701   8.348  0.2570 -0.5784  0.2718
  750MOL0     C 1129  11.409   0.816   8.301  0.5001 -0.7703 -0.5593
  750MOL0     C 1130  11.548   0.772   8.231  0.2244 -0.1082 -0.2647
  750MOL0     C 1131  11.633   0.901   8.200 -0.1813  0.7194 -0.1787
  750MOL0     N 1132  11.562   0.983   8.098  0.4030  0.3738  0.5478
  750MOL0     C 1133  11.554   0.963   7.963  0.2790  0.6237 -0.2333
  750MOL0     C 1134  11.456   1.043   7.913 -0.7724  0.7354  0.1687
  750MOL0     C 1135  11.424   1.034   7.768 -0.0510 -0.5235 -0.6322
  750MOL0     C 1136  11.268   1.025   7.741 -0.7572  0.9759 -0.0217
  750MOL0     C 1137  11.198   0.895   7.805  0.4423  0.0781  0.7013
  750MOL0     C 1138  11.067   0.864   7.729 -0.5787 -0.0493  0.0831
  750MOL0     O 1139  10.990   0.976   7.746 -0.4521 -0.5329  0.7055
  750MOL0     C 1140  10.875   0.960   7.809 -0.7674 -0.2956 -0.2003
  750MOL0     C 1141  10.861   1.019   7.935  0.0286  0.2821  0.7902
  750MOL0     C 1142  10.742   0.993   8.005 -0.3403  0.6353  0.6211
  750MOL0     C 1143  10.742   1.048   8.143  0.0192 -0.0853  0.1083
  750MOL0     C 1144  10.629   0.924   7.942 -0.5316  0.0340  0.1309
  750MOL0     C 1145  10.488   0.903   7.997 -0.0186  0.5379  0.0608
  750MOL0     O 1146  10.422   0.817   7.927 -0.5824  0.9536 -0.2315
  750MOL0     C 1147  10.291   0.808   7.959  0.1795 -0.7240 -0.4361
  750MOL0     C 1148  10.247   0.741   8.076 -0.0068  0.5644 -0.3941
  750MOL0     C 1149  10.105   0.736   8.100  0.2494  0.1974 -0.2358
  750MOL0     C 1150  10.010   0.793   8.017  0.0547  0.6384  0.2411
  750MOL0     O 1151   9.877   0.769   8.048  0.4569 -0.6015 -0.5587
  750MOL0     C 1152   9.776   0.791   7.945 -0.1892  0.4442 -0.6652
  750MOL0     C 1153   9.630   0.736   7.992 -1.1594  0.1476 -0.0488
  750MOL0     C 1154   9.539   0.773   7.882  1.0545 -0.1848 -0.1064
  750MOL0     C 1155   9.396   0.759   7.927  0.1841  0.2712 -0.6937
  750MOL0     C 1156   9.285   0.783   7.809 -0.3589 -0.8733 -0.7903
  750MOL0     C 1157   9.131   0.779   7.845  0.3122  0.1759 -0.0659
  750MOL0     C 1158   9.075   0.641   7.891  0.4135  0.3182 -0.0037
  750MOL0     C 1159   8.923   0.630   7.868 -0.5559  0.9310 -0.0133
  750MOL0    Cl 1160   8.852   0.501   7.950  0.3115  0.3612 -0.3876
  750MOL0     C 1161  10.057   0.854   7.898  0.2137 -0.1071 -0.1825
  750MOL0     C 1162  10.193   0.870   7.874  0.6360 -0.1607 -0.3269
  750MOL0     O 1163  10.443   0.968   8.093 -0.1957 -0.2835  0.6355
  750MOL0     C 1164  10.659   0.860   7.815 -0.7427 -0.3812 -0.3186
  750MOL0     C 1165  10.783   0.874   7.759 -0.7121  0.1897  0.1183
  750MOL0     N 1166  11.421   1.123   8.020  0.3710  0.3136 -0.5086
  750MOL0     N 1167  11.486   1.091   8.130 -0.5292  0.2085 -0.0305
  750MOL0     C 1168  10.611   0.546   8.421 -0.4674  1.3960 -0.1545
  750MOL0     C 1169  10.502   0.575   8.502 -0.3122 -0.1224 -0.5499
  750MOL0     C 1170  10.084   0.765   8.624 -0.0886  0.1378  1.0852
  750MOL0     C 1171  10.093   0.707   8.748  0.2228  0.6991 -1.0710
  750MOL0     C 1172   9.991   0.705   8.838 -0.2885  0.7422 -0.2198
  750MOL0     C 1173   9.866   0.756   8.795 -0.5409 -0.0404 -0.0268
  750MOL0     O 1174   9.770   0.741   8.892 -0.1597 -0.0864 -0.5176
  750MOL0     C 1175   9.637   0.793   8.880  0.0331  0.1759  0.6528
  750MOL0     C 1176   9.550   0.775   9.000  0.3050 -0.1862  0.8080
  750MOL0     C 1177   9.549   0.627   9.043  0.9450 -0.0874 -0.7004
  750MOL0     C 1178   9.451   0.613   9.154 -0.6137 -0.2285 -0.2663
  750MOL0     C 1179   9.313   0.595   9.112  0.5691 -1.1795  0.1943
  750MOL0     C 1180   9.200   0.590   9.067  0.1590  1.0964 -0.4876
  750MOL0     C 1181   9.847   0.820   8.670 -0.3529  0.5850 -0.5405
  750MOL0     C 1182   9.957   0.830   8.585  0.3098  0.9878 -0.2754
  750MOL0     H 1183  10.407   0.865   8.353  0.4882  1.4368  1.8863
  750MOL0     H 1184  10.590   0.800   8.202  0.7032 -0.9640  0.3092
  750MOL0     H 1185  10.866   0.582   8.387 -1.5239  3.9825 -0.6142
  750MOL0     H 1186  10.887   0.449   8.265  3.1228  0.7541  1.7632
  750MOL0     H 1187  10.979   0.599   8.109 -0.8499  0.4290  0.3157
  750MOL0     H 1188  10.981   0.731   8.221  1.7783  0.3688  0.6295
  750MOL0     H 1189  11.115   0.575   8.383 -0.9025 -0.1952  0.0417
  750MOL0     H 1190  11.138   0.473   8.236  0.7404  1.3238 -1.3062
  750MOL0     H 1191  11.289   0.616   8.156  0.0005 -0.8626 -0.7895
  750MOL0     H 1192  11.186   0.758   8.187  1.1553  1.6592  0.7369
  750MOL0     H 1193  11.262   0.729   8.434  0.1040 -1.1005  0.3342
  750MOL0     H 1194  11.388   0.616   8.371 -0.3033 -1.1560 -0.2647
  750MOL0     H 1195  11.343   0.878   8.240 -3.2442 -3.1114  0.7845
  750MOL0     H 1196  11.430   0.872   8.392  1.2378 -0.1611 -1.0919
  750MOL0     H 1197  11.602   0.694   8.285  0.7875  1.5317  1.6760
  750MOL0     H 1198  11.523   0.728   8.135  0.1258 -0.1152 -0.2356
  750MOL0     H 1199  11.727   0.864   8.159 -1.0499  0.0542 -1.6556
  750MOL0     H 1200  11.665   0.954   8.290  3.0883 -3.8730  1.7234
  750MOL0     H 1201  11.613   0.884   7.916 -1.1625 -2.0367  2.1069
  750MOL0     H 1202  11.467   1.117   7.711 -0.0745  0.3240  0.5319
  750MOL0     H 1203  11.470   0.944   7.727  1.3735 -0.1931  0.1420
  750MOL0     H 1204  11.250   1.028   7.634  0.9244  0.6430 -0.3439
  750MOL0     H 1205  11.226   1.116   7.785  1.3095  1.9255  0.0999
  750MOL0     H 1206  11.185   0.912   7.912 -3.1873 -0.5908  0.4763
  750MOL0     H 1207  11.265   0.809   7.795  0.2513 -0.4325  3.1711
  750MOL0     H 1208  11.027   0.771   7.771 -0.1589 -0.2667  0.0106
  750MOL0     H 1209  11.076   0.840   7.622 -2.6696  0.4219 -0.2393
  750MOL0     H 1210  10.947   1.061   7.986  0.1151 -1.4394  2.1389
  750MOL0     H 1211  10.660   1.119   8.157 -0.8973 -1.0226 -0.4056
  750MOL0     H 1212  10.738   0.961   8.209  0.4689 -0.9227 -0.9502
  750MOL0     H 1213  10.837   1.100   8.163 -1.4112  2.4330  0.8404
  750MOL0     H 1214  10.311   0.686   8.144  0.5859  0.4280 -1.0482
  750MOL0     H 1215  10.069   0.687   8.190  3.1435 -1.3327  0.2132
  750MOL0     H 1216   9.773   0.898   7.923  0.2147  0.4656 -0.6279
  750MOL0     H 1217   9.801   0.746   7.848  2.6557 -0.0839  0.2093
  750MOL0     H 1218   9.629   0.628   8.009  0.8984  0.0003 -0.5942
  750MOL0     H 1219   9.614   0.785   8.088 -2.1766  0.2916 -0.2778
  750MOL0     H 1220   9.561   0.710   7.795 -2.5628 -0.4848 -0.9429
  750MOL0     H 1221   9.553   0.877   7.851 -1.3254  0.1025 -0.4285
  750MOL0     H 1222   9.383   0.656   7.962 -3.1276  0.5064 -0.8766
  750MOL0     H 1223   9.380   0.824   8.013  1.9555  0.0435 -0.1518
  750MOL0     H 1224   9.300   0.716   7.723 -4.3401 -2.4890 -0.4628
  750MOL0     H 1225   9.311   0.882   7.770  0.4378 -0.2457  1.2425
  750MOL0     H 1226   9.108   0.850   7.925 -1.5149  1.9211 -2.0271
  750MOL0     H 1227   9.070   0.803   7.758 -1.7230  0.9893  1.5112
  750MOL0     H 1228   9.100   0.628   7.996  2.1109 -3.6436 -0.6993
  750MOL0     H 1229   9.131   0.557   7.848 -0.5328 -0.2990 -0.0598
  750MOL0     H 1230   8.896   0.619   7.763  1.6908 -1.2027 -0.4631
  750MOL0     H 1231   8.870   0.721   7.900 -0.4378  0.6779  0.9404
  750MOL0     H 1232   9.980   0.892   7.831  0.2419 -0.4950 -0.4366
  750MOL0     H 1233  10.224   0.937   7.794  3.8559  0.1379  1.0026
  750MOL0     H 1234  10.595   0.784   7.770 -1.5725 -0.2813  0.6480
  750MOL0     H 1235  10.807   0.810   7.675 -1.5411  0.6974 -0.5139
  750MOL0     H 1236  10.684   0.467   8.441  0.3399  2.1308 -0.1461
  750MOL0     H 1237  10.474   0.515   8.588 -0.5968  1.6441  0.6535
  750MOL0     H 1238  10.195   0.681   8.777  0.3370  3.1861  1.1503
  750MOL0     H 1239   9.990   0.656   8.935 -0.7378 -1.0860 -1.1055
  750MOL0     H 1240   9.627   0.896   8.845 -3.9584 -0.9632 -2.3883
  750MOL0     H 1241   9.578   0.739   8.805 -1.3835  2.3403  0.1135
  750MOL0     H 1242   9.446   0.807   8.987  0.7306  0.6176 -0.9420
  750MOL0     H 1243   9.588   0.836   9.082  2.0652  0.8964 -0.7496
  750MOL0     H 1244   9.645   0.603   9.089  0.6190 -0.0275  0.0182
  750MOL0     H 1245   9.533   0.554   8.962 -2.5753  0.0717 -0.3213
  750MOL0     H 1246   9.470   0.700   9.218  0.0673 -0.5795  0.0213
  750MOL0     H 1247   9.476   0.527   9.217  0.5699  0.8582  0.7985
  750MOL0     H 1248   9.098   0.595   9.036  0.9454  1.3560 -3.2546
  750MOL0     H 1249   9.752   0.864   8.641  0.3930  2.1276 -0.7678
  750MOL0     H 1250   9.943   0.860   8.481  1.1452 -0.0290 -0.6985
  751MOL0     O 1251   8.583   3.251   6.976  0.2234 -0.1135 -0.2789
  751MOL0     C 1252   8.620   3.335   6.889  0.1829  0.1935 -0.1927
  751MOL0     O 1253   8.537   3.387   6.788 -0.0096 -0.2494 -0.0519
  751MOL0     C 1254   8.400   3.347   6.781 -0.6711 -0.4850  0.3357
  751MOL0     C 1255   8.345   3.217   6.817  0.3577 -0.0129  0.9211
  751MOL0     C 1256   8.209   3.191   6.814  0.6662  0.9203 -0.1338
  751MOL0     C 1257   8.123   3.292   6.758 -0.4960 -0.0239 -0.3605
  751MOL0     O 1258   7.993   3.269   6.736  0.2786  0.7918 -0.4233
  751MOL0     C 1259   7.939   3.136   6.706 -0.1577 -0.1162  0.4514
  751MOL0     C 1260   7.785   3.163   6.704 -0.9964  0.4962 -0.5525
  751MOL0     C 1261   7.721   3.031   6.691  1.1176  0.1785  0.3780
  751MOL0     C 1262   7.569   3.039   6.711 -0.0182  0.6617 -0.3667
  751MOL0     C 1263   7.500   2.902   6.703  0.2815 -0.8064 -0.2735
  751MOL0     C 1264   7.370   2.910   6.787 -0.3478 -0.0673  0.6871
  751MOL0     C 1265   7.273   3.015   6.733 -0.1436 -0.4148 -0.5386
  751MOL0     C 1266   7.255   2.998   6.577  0.0552 -0.6097  0.4427
  751MOL0     N 1267   7.132   3.068   6.538 -0.0196 -0.3747 -0.9450
  751MOL0     C 1268   7.006   3.019   6.547  1.1098 -0.2684 -0.3812
  751MOL0     C 1269   6.923   3.114   6.504  0.6139  0.2432  0.3822
  751MOL0     C 1270   6.778   3.103   6.478 -0.5630  0.1882  0.2811
  751MOL0     C 1271   6.734   2.987   6.388 -0.4588  0.3762  0.1732
  751MOL0     C 1272   6.804   2.970   6.249  1.2984 -0.7083 -0.3811
  751MOL0     C 1273   6.948   2.924   6.249 -0.6826  0.2776  0.2154
  751MOL0     O 1274   6.972   2.845   6.127  0.2732  0.0820  0.1958
  751MOL0     C 1275   7.086   2.769   6.113 -0.4498 -0.2879  0.2621
  751MOL0     C 1276   7.075   2.645   6.049  0.7364 -0.0080  0.7775
  751MOL0     C 1277   7.177   2.547   6.053  0.2597  0.0097  0.1281
  751MOL0     C 1278   7.138   2.407   5.999  0.1812 -0.2619 -0.2131
  751MOL0     C 1279   7.303   2.582   6.101 -0.2774 -0.1250 -0.2977
  751MOL0     C 1280   7.415   2.490   6.079 -0.0228 -0.1553 -0.8118
  751MOL0     O 1281   7.501   2.478   6.183 -0.0562 -0.0215 -0.1220
  751MOL0     C 1282   7.574   2.366   6.181 -0.9491 -0.3515 -0.4250
  751MOL0     C 1283   7.516   2.237   6.167  0.5677 -0.6057 -0.6670
  751MOL0     C 1284   7.607   2.125   6.175 -0.1932  0.4400  0.0512
  751MOL0     C 1285   7.741   2.145   6.198  0.2997 -0.0298  0.4189
  751MOL0     O 1286   7.828   2.032   6.210 -0.2087 -0.2603 -0.1729
  751MOL0     C 1287   7.963   2.049   6.264 -0.3458 -0.5680 -0.3806
  751MOL0     C 1288   8.013   1.911   6.304 -0.6037 -0.0653 -0.8473
  751MOL0     C 1289   8.157   1.916   6.356 -0.9800 -1.1644  0.2298
  751MOL0     C 1290   8.219   1.778   6.360 -0.3875  0.8780 -0.1465
  751MOL0     C 1291   8.364   1.767   6.408 -0.0311 -0.2925  0.9710
  751MOL0     C 1292   8.373   1.808   6.553  0.3618  0.0974 -0.3272
  751MOL0     C 1293   8.496   1.752   6.622  0.4970  0.2251 -0.0395
  751MOL0     C 1294   8.516   1.785   6.769  0.6548 -0.0520  0.6594
  751MOL0    Cl 1295   8.525   1.963   6.809 -0.4933 -0.1579 -0.3986
  751MOL0     C 1296   7.803   2.268   6.215  0.9832  0.0609 -0.2948
  751MOL0     C 1297   7.714   2.375   6.199 -0.2108 -0.8361  0.2273
  751MOL0     O 1298   7.427   2.433   5.968  0.5537  0.4847 -0.6186
  751MOL0     C 1299   7.312   2.706   6.166 -0.0932 -0.2881 -0.0175
  751MOL0     C 1300   7.209   2.801   6.166  0.0801 -0.7139 -0.0688
  751MOL0     N 1301   6.997   3.225   6.473  0.0804  0.0386  0.0056
  751MOL0     N 1302   7.120   3.194   6.497 -0.3318  0.4671  0.6776
  751MOL0     C 1303   8.180   3.410   6.726 -0.3517 -0.0244 -0.2846
  751MOL0     C 1304   8.316   3.445   6.735 -0.2535  0.3975  0.6808
  751MOL0     C 1305   8.764   3.360   6.872  0.4172 -0.1488  0.6613
  751MOL0     C 1306   8.807   3.446   6.771 -0.2063 -0.3216  0.4377
  751MOL0     C 1307   8.940   3.491   6.760  0.2376  0.7493 -0.6657
  751MOL0     C 1308   9.034   3.445   6.849  0.2749 -0.9854 -0.5190
  751MOL0     O 1309   9.166   3.476   6.859  0.1435 -0.3799  0.0524
  751MOL0     C 1310   9.217   3.554   6.753  0.7023  0.1985 -0.1320
  751MOL0     C 1311   9.357   3.611   6.789 -0.5393  0.8903 -0.0015
  751MOL0     C 1312   9.442   3.488   6.836  0.2192 -0.4780 -0.2509
  751MOL0     C 1313   9.576   3.545   6.879  0.2797  0.1745 -0.2213
  751MOL0     C 1314   9.686   3.453   6.857  0.9331  0.4359  0.2648
  751MOL0     C 1315   9.779   3.385   6.858 -0.6812  0.5436  1.0562
  751MOL0     C 1316   8.990   3.361   6.954  0.1360  0.9798 -0.3026
  751MOL0     C 1317   8.860   3.315   6.964  0.6361 -0.4615 -0.6043
  751MOL0     H 1318   8.410   3.139   6.854 -2.2547 -3.0104 -0.3055
  751MOL0     H 1319   8.168   3.093   6.835 -0.8170  1.3246 -0.9924
  751MOL0     H 1320   7.973   3.095   6.610  0.0785  1.1174  0.0022
  751MOL0     H 1321   7.962   3.058   6.780  3.0789  1.3130  1.0981
  751MOL0     H 1322   7.756   3.214   6.797 -2.7283  3.0161 -2.3470
  751MOL0     H 1323   7.764   3.235   6.625  3.4481  2.1520 -0.5004
  751MOL0     H 1324   7.743   2.985   6.594  0.8398  1.3839 -0.2774
  751MOL0     H 1325   7.766   2.966   6.766  2.8384 -1.8210 -2.2056
  751MOL0     H 1326   7.549   3.085   6.808  2.1476 -0.4170  0.6564
  751MOL0     H 1327   7.530   3.103   6.631  3.2572 -0.7973 -3.3956
  751MOL0     H 1328   7.477   2.880   6.598  0.2237  0.9696 -0.6692
  751MOL0     H 1329   7.558   2.816   6.737  0.0888 -0.8144  0.0353
  751MOL0     H 1330   7.321   2.814   6.769  1.0121 -0.3770 -1.7378
  751MOL0     H 1331   7.384   2.930   6.894 -0.9583 -0.9678  0.9473
  751MOL0     H 1332   7.173   3.007   6.775 -0.5342  2.2923 -0.7953
  751MOL0     H 1333   7.314   3.115   6.748  1.9695 -0.9004 -2.4994
  751MOL0     H 1334   7.254   2.895   6.540  0.9564 -0.5627  0.2711
  751MOL0     H 1335   7.336   3.041   6.517 -0.7272 -0.6123 -0.6376
  751MOL0     H 1336   6.968   2.925   6.586 -0.9018  0.6804  0.0770
  751MOL0     H 1337   6.719   3.107   6.570 -0.8056 -0.0956  0.1385
  751MOL0     H 1338   6.752   3.195   6.424 -1.2355  0.7453  1.5101
  751MOL0     H 1339   6.628   3.000   6.364 -1.1202 -2.2962  1.2197
  751MOL0     H 1340   6.725   2.898   6.451 -0.0429  1.0061  1.1525
  751MOL0     H 1341   6.784   3.065   6.197 -0.1540 -0.3509  0.7624
  751MOL0     H 1342   6.735   2.902   6.197 -0.7769  1.1032 -0.1589
  751MOL0     H 1343   6.962   2.863   6.339  0.1954  1.0237  0.6060
  751MOL0     H 1344   7.017   3.007   6.266  0.9273 -1.3021  1.9142
  751MOL0     H 1345   6.977   2.607   6.022  0.8101 -0.3555  1.0021
  751MOL0     H 1346   7.156   2.402   5.891 -1.4001 -0.0870 -0.5116
  751MOL0     H 1347   7.203   2.334   6.048  1.2355  1.5473  1.2033
  751MOL0     H 1348   7.031   2.390   6.013  0.2679  0.3336  1.3691
  751MOL0     H 1349   7.411   2.225   6.143 -0.1081  2.5810  0.2594
  751MOL0     H 1350   7.568   2.026   6.156 -0.3905  0.6729 -0.8176
  751MOL0     H 1351   8.030   2.095   6.190  1.0523  0.0868  1.2050
  751MOL0     H 1352   7.951   2.115   6.351 -0.6222  0.9130 -1.5070
  751MOL0     H 1353   7.936   1.864   6.366  0.6886 -0.6003  0.4079
  751MOL0     H 1354   8.023   1.866   6.205  0.5511  1.9099 -1.6861
  751MOL0     H 1355   8.156   1.969   6.451  1.7183  1.3504 -0.9911
  751MOL0     H 1356   8.225   1.975   6.294 -0.7604  0.6084  2.0864
  751MOL0     H 1357   8.171   1.717   6.437  0.2240  0.8783  0.2332
  751MOL0     H 1358   8.210   1.736   6.259 -3.4372  2.3710 -0.6274
  751MOL0     H 1359   8.427   1.817   6.334  0.8588 -2.6236  0.0572
  751MOL0     H 1360   8.388   1.660   6.405 -1.8854 -0.7851 -2.5467
  751MOL0     H 1361   8.371   1.917   6.543 -4.0646  0.2613  0.0650
  751MOL0     H 1362   8.282   1.770   6.602  0.4294 -1.4531 -1.3486
  751MOL0     H 1363   8.584   1.778   6.564 -0.0857 -0.4010 -1.2551
  751MOL0     H 1364   8.485   1.643   6.619 -2.4815  0.4667 -1.5993
  751MOL0     H 1365   8.611   1.742   6.799 -0.8870 -1.4286  4.0624
  751MOL0     H 1366   8.443   1.740   6.837 -1.9596  0.4965 -1.5815
  751MOL0     H 1367   7.909   2.289   6.226  1.2878 -2.0489  1.3991
  751MOL0     H 1368   7.749   2.477   6.207 -2.2446  0.3074 -3.3373
  751MOL0     H 1369   7.407   2.739   6.208 -0.9990  1.2525  0.9317
  751MOL0     H 1370   7.221   2.896   6.218 -0.3800 -1.0052  0.5812
  751MOL0     H 1371   8.113   3.474   6.670 -0.7158 -0.6702 -0.6106
  751MOL0     H 1372   8.343   3.544   6.702  0.6286  0.1579  0.6769
  751MOL0     H 1373   8.743   3.485   6.692 -0.9558 -1.6504  0.3551
  751MOL0     H 1374   8.961   3.562   6.680 -0.4745 -0.9123 -2.4225
  751MOL0     H 1375   9.220   3.496   6.660 -2.0311  0.9716 -0.8118
  751MOL0     H 1376   9.148   3.637   6.737  1.9007  0.6321 -4.1397
  751MOL0     H 1377   9.345   3.699   6.854  1.6419  2.2713 -1.3196
  751MOL0     H 1378   9.403   3.647   6.697  3.6039 -2.9436  0.2201
  751MOL0     H 1379   9.450   3.416   6.754 -2.4743 -0.1669 -0.8756
  751MOL0     H 1380   9.399   3.433   6.921  0.7712  0.2673  0.5301
  751MOL0     H 1381   9.566   3.568   6.985  0.8430  2.0834 -0.5356
  751MOL0     H 1382   9.585   3.635   6.817  2.2311  0.4932  0.4891
  751MOL0     H 1383   9.850   3.307   6.876 -0.2326  0.6376 -0.2240
  751MOL0     H 1384   9.064   3.334   7.029  1.3177  1.5402 -1.2404
  751MOL0     H 1385   8.828   3.246   7.042  2.3595  0.8733  1.3877
  752MOL0     O 1386   2.942  10.723   1.704  0.1323 -0.0338 -0.0822
  752MOL0     C 1387   3.013  10.732   1.806 -1.0057 -0.2398  0.8649
  752MOL0     O 1388   2.974  10.753   1.926 -0.1528  0.5872 -0.7690
  752MOL0     C 1389   2.841  10.788   1.946  0.0657 -0.3585 -0.1590
  752MOL0     C 1390   2.754  10.680   1.968  0.2001 -0.2232 -1.1424
  752MOL0     C 1391   2.621  10.698   1.998  0.9079  0.5299 -0.0829
  752MOL0     C 1392   2.573  10.828   1.999  0.3093  0.2064  0.3229
  752MOL0     O 1393   2.437  10.848   2.017  0.8573  0.2648 -0.8280
  752MOL0     C 1394   2.380  10.987   2.042 -0.6749  0.5069 -0.2765
  752MOL0     C 1395   2.223  10.969   2.041  0.0089  0.4185 -0.7114
  752MOL0     C 1396   2.155  11.111   2.057  0.4322  0.3173 -0.1811
  752MOL0     C 1397   2.038  11.094   2.162 -0.1195 -0.5318  0.5370
  752MOL0     C 1398   1.951  11.223   2.160 -0.4586 -0.0743  0.0956
  752MOL0     C 1399   1.821  11.196   2.234  0.9069  1.3006 -0.0408
  752MOL0     C 1400   1.742  11.332   2.255  0.7302 -0.2350  0.0220
  752MOL0     C 1401   1.607  11.302   2.324  0.2873  0.2646  0.1397
  752MOL0     N 1402   1.510  11.407   2.300  0.1364  0.2204 -0.5373
  752MOL0     C 1403   1.383  11.370   2.275  1.0624  0.0975  0.3632
  752MOL0     C 1404   1.330  11.494   2.258 -0.6547  0.0465 -0.8486
  752MOL0     C 1405   1.200  11.521   2.208  0.1038  0.1502  0.3972
  752MOL0     C 1406   1.091  11.467   2.307 -0.1846 -0.0059  0.2658
  752MOL0     C 1407   1.095  11.528   2.441  0.3158  0.2618  1.0380
  752MOL0     C 1408   0.984  11.477   2.531 -0.7740 -0.9345 -0.2326
  752MOL0     O 1409   0.980  11.339   2.560 -0.3023 -0.2304  0.0759
  752MOL0     C 1410   1.088  11.267   2.609  0.3904  0.6232 -0.2635
  752MOL0     C 1411   1.167  11.330   2.706  0.8710  0.3634  0.3020
  752MOL0     C 1412   1.275  11.265   2.765  0.6660 -0.1169  0.2925
  752MOL0     C 1413   1.343  11.334   2.886  0.0456 -0.3547  0.2249
  752MOL0     C 1414   1.312  11.137   2.718 -0.2328  1.1208 -0.0048
  752MOL0     C 1415   1.427  11.054   2.770  0.6956 -0.5255 -1.3484
  752MOL0     O 1416   1.439  10.927   2.714 -0.1054 -1.0611 -0.3681
  752MOL0     C 1417   1.542  10.847   2.758  0.4708 -0.0036  0.2094
  752MOL0     C 1418   1.516  10.711   2.792  0.2332 -0.6381  1.2096
  752MOL0     C 1419   1.616  10.630   2.847  0.3897  0.5756 -0.1006
  752MOL0     C 1420   1.745  10.681   2.849  0.0566 -0.4496  0.1023
  752MOL0     O 1421   1.849  10.601   2.901  0.2900 -0.6552  0.4472
  752MOL0     C 1422   1.849  10.586   3.045  0.5127 -0.2031  0.1328
  752MOL0     C 1423   1.970  10.512   3.094  0.0603  0.0851 -0.2080
  752MOL0     C 1424   1.957  10.361   3.049  0.4560 -0.3151  0.2584
  752MOL0     C 1425   2.074  10.281   3.088 -0.3816  0.9005 -0.5427
  752MOL0     C 1426   2.201  10.317   3.001  0.5007  0.0171 -0.0625
  752MOL0     C 1427   2.322  10.225   3.040  0.8842  0.1280 -0.3749
  752MOL0     C 1428   2.294  10.078   3.012  0.9166  0.9452 -0.2249
  752MOL0     C 1429   2.425   9.998   3.039  0.4746  0.4417 -0.6319
  752MOL0    Cl 1430   2.453   9.993   3.219 -0.3178 -0.0995 -0.2231
  752MOL0     C 1431   1.783  10.813   2.804 -0.0313  0.3543 -0.4988
  752MOL0     C 1432   1.670  10.896   2.769 -0.4760 -0.2994 -0.8821
  752MOL0     O 1433   1.481  11.094   2.870  0.9294 -0.0931 -0.4330
  752MOL0     C 1434   1.229  11.078   2.618 -1.1047  0.2736  0.4865
  752MOL0     C 1435   1.116  11.140   2.569  0.5664  0.7430  0.3336
  752MOL0     N 1436   1.420  11.589   2.308 -0.0396 -0.2224 -0.8108
  752MOL0     N 1437   1.530  11.533   2.340 -0.7208 -0.1316  0.2429
  752MOL0     C 1438   2.653  10.945   1.982 -0.0208  0.8950 -0.5266
  752MOL0     C 1439   2.792  10.924   1.941  0.2790 -0.0130 -0.6707
  752MOL0     C 1440   3.156  10.688   1.794  0.5313  0.3938  0.5386
  752MOL0     C 1441   3.247  10.711   1.897 -0.0575 -0.5827 -0.9200
  752MOL0     C 1442   3.386  10.679   1.898  0.7082  0.5806  0.3265
  752MOL0     C 1443   3.431  10.617   1.779 -1.3162  0.8820 -0.4100
  752MOL0     O 1444   3.566  10.578   1.762 -0.2038 -0.1184 -0.7037
  752MOL0     C 1445   3.661  10.620   1.852 -0.7965  0.3356  0.8244
  752MOL0     C 1446   3.695  10.770   1.841  0.1771 -0.2992 -0.1873
  752MOL0     C 1447   3.835  10.790   1.919  1.0755  0.1302 -0.6054
  752MOL0     C 1448   3.909  10.913   1.862  0.2546 -0.0586  0.6046
  752MOL0     C 1449   4.045  10.921   1.922 -0.0857 -0.2644  0.7232
  752MOL0     C 1450   4.156  10.922   1.967 -0.3478  0.4398 -0.1220
  752MOL0     C 1451   3.345  10.594   1.678  0.4574 -0.2764  0.7973
  752MOL0     C 1452   3.213  10.635   1.678  0.8087  0.0282 -0.4642
  752MOL0     H 1453   2.788  10.577   1.974 -0.3564 -0.3976 -0.8464
  752MOL0     H 1454   2.558  10.611   2.014  3.4804 -1.9234 -2.2682
  752MOL0     H 1455   2.412  11.030   2.138 -1.3376  2.7265 -0.9923
  752MOL0     H 1456   2.420  11.053   1.965  0.5822  1.9082  1.4888
  752MOL0     H 1457   2.194  10.931   1.943 -2.3070  3.5918 -1.3986
  752MOL0     H 1458   2.192  10.901   2.121 -1.2242  1.2227 -0.4821
  752MOL0     H 1459   2.231  11.185   2.086  1.3774 -0.3585 -0.8391
  752MOL0     H 1460   2.112  11.128   1.958  0.5415  0.1078 -0.2665
  752MOL0     H 1461   1.984  11.003   2.134 -3.3135  0.9790  1.3147
  752MOL0     H 1462   2.082  11.080   2.261 -1.1949  0.8560  1.2604
  752MOL0     H 1463   2.005  11.305   2.207  0.6782 -0.4226 -0.5682
  752MOL0     H 1464   1.936  11.245   2.054  1.6060  2.2690  0.2036
  752MOL0     H 1465   1.747  11.139   2.176  0.9612  0.6308  0.5316
  752MOL0     H 1466   1.837  11.143   2.329 -4.8357 -0.2190  0.4848
  752MOL0     H 1467   1.808  11.398   2.312  1.0412  0.2513 -0.8808
  752MOL0     H 1468   1.724  11.379   2.158  2.4077 -1.9581 -1.1912
  752MOL0     H 1469   1.616  11.290   2.433 -0.3208  0.1869  0.1807
  752MOL0     H 1470   1.570  11.207   2.286  1.9763 -1.6492  2.8714
  752MOL0     H 1471   1.348  11.277   2.233  1.6756 -0.4351  0.9939
  752MOL0     H 1472   1.185  11.628   2.192 -2.3110  0.0908  1.7870
  752MOL0     H 1473   1.188  11.477   2.108 -1.3028  2.2336 -0.4120
  752MOL0     H 1474   1.110  11.360   2.308 -1.1359 -0.1798  1.2699
  752MOL0     H 1475   0.993  11.485   2.263 -0.0930  2.0578  0.7988
  752MOL0     H 1476   1.091  11.635   2.417  2.0819  0.7468  2.6576
  752MOL0     H 1477   1.186  11.517   2.500  0.1565 -0.9858  1.0695
  752MOL0     H 1478   0.886  11.506   2.492 -1.0417 -0.0102  1.0478
  752MOL0     H 1479   0.992  11.534   2.624  2.8321 -0.1370 -0.8828
  752MOL0     H 1480   1.147  11.424   2.757  0.6619  0.5252 -0.0754
  752MOL0     H 1481   1.290  11.426   2.910 -0.5366 -0.5287 -0.3769
  752MOL0     H 1482   1.342  11.277   2.979  0.9565  1.1764  1.2107
  752MOL0     H 1483   1.449  11.343   2.858 -0.1424  0.0188 -0.3939
  752MOL0     H 1484   1.420  10.663   2.772 -0.6486  1.2324  0.7245
  752MOL0     H 1485   1.587  10.526   2.860  0.1792  0.7662  1.0658
  752MOL0     H 1486   1.852  10.686   3.091 -1.5258 -0.6777  1.4264
  752MOL0     H 1487   1.759  10.545   3.090 -0.3202  2.6237  1.2726
  752MOL0     H 1488   2.059  10.562   3.054  1.5752  1.4522  4.3423
  752MOL0     H 1489   1.977  10.503   3.202 -0.5321 -1.5651 -0.2856
  752MOL0     H 1490   1.930  10.358   2.943 -1.3013 -0.1396  0.6640
  752MOL0     H 1491   1.865  10.330   3.099 -2.0095  2.8163 -1.9382
  752MOL0     H 1492   2.090  10.304   3.193 -0.6156 -1.4532  0.0512
  752MOL0     H 1493   2.062  10.174   3.073  3.5569  0.4723 -1.7014
  752MOL0     H 1494   2.219  10.423   3.021 -1.9026  0.7535 -1.2819
  752MOL0     H 1495   2.169  10.303   2.897  0.1198 -2.9242  0.3629
  752MOL0     H 1496   2.415  10.259   2.994 -0.2503  4.0668 -0.1252
  752MOL0     H 1497   2.337  10.235   3.148  1.7524 -1.7581 -0.2854
  752MOL0     H 1498   2.264  10.073   2.907 -1.0572 -1.6055  0.3594
  752MOL0     H 1499   2.212  10.031   3.067  0.1747 -1.6655 -3.2757
  752MOL0     H 1500   2.512  10.035   2.984 -0.1584  1.5534 -0.9106
  752MOL0     H 1501   2.397   9.898   3.005  1.9824 -0.7377  1.3657
  752MOL0     H 1502   1.885  10.851   2.801  1.2782 -2.7687  0.3696
  752MOL0     H 1503   1.692  11.000   2.750  0.9353 -0.8823 -2.7346
  752MOL0     H 1504   1.247  10.979   2.577 -0.6073  0.4152  0.3508
  752MOL0     H 1505   1.049  11.088   2.502 -0.5427 -1.1227  2.7058
  752MOL0     H 1506   2.623  11.049   1.997 -0.2072  0.5146  2.1752
  752MOL0     H 1507   2.860  11.007   1.922  2.5844 -1.3817  1.0153
  752MOL0     H 1508   3.207  10.770   1.979  1.9839  0.0234 -0.2998
  752MOL0     H 1509   3.444  10.717   1.981 -2.6110  4.4105  1.1808
  752MOL0     H 1510   3.634  10.582   1.951  0.5005 -0.8076  0.7645
  752MOL0     H 1511   3.754  10.568   1.829 -0.7361 -1.2256  4.0564
  752MOL0     H 1512   3.617  10.835   1.883  3.8979  3.1636  2.1002
  752MOL0     H 1513   3.719  10.786   1.736 -0.3592 -1.7238 -0.5466
  752MOL0     H 1514   3.901  10.708   1.888  1.0729  0.7426 -2.3349
  752MOL0     H 1515   3.825  10.803   2.027 -0.6631 -1.6641 -0.4744
  752MOL0     H 1516   3.860  11.004   1.897  4.5687  2.2523  1.2882
  752MOL0     H 1517   3.914  10.913   1.752  1.4427  1.7160  0.6280
  752MOL0     H 1518   4.260  10.907   1.988 -0.7011 -1.5164  0.4007
  752MOL0     H 1519   3.366  10.547   1.583 -3.4909 -1.9635  0.5765
  752MOL0     H 1520   3.151  10.604   1.595 -1.2339 -3.4461  2.0986
  753MOL0     O 1521   6.710   9.800   4.490  0.0294  0.2166  0.0683
  753MOL0     C 1522   6.820   9.755   4.456 -0.7391  0.0200  0.2380
  753MOL0     O 1523   6.844   9.651   4.363 -0.2698  0.4325  0.1976
  753MOL0     C 1524   6.737   9.589   4.313 -0.6916  0.5040  0.4370
  753MOL0     C 1525   6.640   9.656   4.260  0.3847  0.3115  0.3593
  753MOL0     C 1526   6.518   9.593   4.212 -0.9156 -0.3596 -0.2828
  753MOL0     C 1527   6.504   9.454   4.224 -0.0082  0.0261  0.3447
  753MOL0     O 1528   6.380   9.400   4.183 -0.0339 -0.1976 -0.2979
  753MOL0     C 1529   6.329   9.283   4.240  0.0978 -0.4209  0.8360
  753MOL0     C 1530   6.294   9.293   4.393  0.5969 -0.1875  0.2333
  753MOL0     C 1531   6.168   9.369   4.408 -0.7242 -0.0769 -0.5516
  753MOL0     C 1532   6.126   9.371   4.558  0.0622 -0.0763  0.4636
  753MOL0     C 1533   5.981   9.420   4.579  0.4447  0.2051 -0.3152
  753MOL0     C 1534   5.973   9.459   4.734  0.4490  1.1758 -0.3849
  753MOL0     C 1535   5.840   9.515   4.789  0.2859  0.3941  0.5319
  753MOL0     C 1536   5.732   9.403   4.777 -1.1121 -1.2442 -0.3592
  753MOL0     N 1537   5.610   9.466   4.828  0.2571  0.7592  0.1852
  753MOL0     C 1538   5.514   9.548   4.765  0.0655 -0.9808  0.8005
  753MOL0     C 1539   5.413   9.553   4.855  0.4140 -0.3384  0.1160
  753MOL0     C 1540   5.284   9.628   4.828  0.2949 -0.1368 -0.0269
  753MOL0     C 1541   5.173   9.529   4.780 -1.7345 -0.3296  0.5677
  753MOL0     C 1542   5.186   9.492   4.630 -0.1738 -0.6585  0.1244
  753MOL0     C 1543   5.058   9.421   4.587  0.1227  0.4260 -0.0144
  753MOL0     O 1544   5.063   9.423   4.443 -0.0655 -0.0371  0.3076
  753MOL0     C 1545   4.955   9.355   4.379 -0.2475 -0.6871  1.0594
  753MOL0     C 1546   4.962   9.345   4.239 -0.5085  0.1637  0.0483
  753MOL0     C 1547   4.863   9.269   4.172 -0.3763 -1.1910 -0.0602
  753MOL0     C 1548   4.884   9.266   4.024  0.0191 -0.1391 -0.3069
  753MOL0     C 1549   4.748   9.217   4.238 -0.1620  0.7110 -0.1273
  753MOL0     C 1550   4.626   9.145   4.185  0.1448  0.1004 -0.3185
  753MOL0     O 1551   4.531   9.109   4.281  0.8507  0.0841 -0.2817
  753MOL0     C 1552   4.416   9.039   4.244 -0.1153 -0.5998  0.1947
  753MOL0     C 1553   4.297   9.106   4.224 -0.1157  0.4255 -0.4225
  753MOL0     C 1554   4.184   9.037   4.191 -0.2668 -0.3112  0.4823
  753MOL0     C 1555   4.185   8.896   4.163  0.4045  0.2442 -0.5933
  753MOL0     O 1556   4.075   8.822   4.122 -0.0674  0.0574  0.1106
  753MOL0     C 1557   3.951   8.897   4.095 -0.0804 -0.2305 -0.1206
  753MOL0     C 1558   3.966   8.946   3.949  0.1499 -0.1113  0.6487
  753MOL0     C 1559   3.826   8.992   3.893  0.6374 -0.0042  0.5095
  753MOL0     C 1560   3.717   9.028   3.994 -0.0321 -0.0950  0.7682
  753MOL0     C 1561   3.585   9.049   3.923 -0.0212  0.4788  1.0354
  753MOL0     C 1562   3.523   8.920   3.866 -0.0273  0.7133 -0.2194
  753MOL0     C 1563   3.483   8.801   3.960 -0.3004 -1.0871 -0.2319
  753MOL0     C 1564   3.441   8.677   3.880  0.2881  0.0212  0.0566
  753MOL0    Cl 1565   3.577   8.606   3.794 -0.0822  0.0410 -0.4101
  753MOL0     C 1566   4.304   8.833   4.184 -0.6466  0.3733  0.1736
  753MOL0     C 1567   4.422   8.898   4.234 -0.2133 -0.3059 -0.6270
  753MOL0     O 1568   4.616   9.133   4.061 -0.0621  0.8279  0.2585
  753MOL0     C 1569   4.745   9.235   4.377  0.2039 -0.8166 -0.1468
  753MOL0     C 1570   4.847   9.309   4.447  0.1736  0.2222  0.3361
  753MOL0     N 1571   5.453   9.498   4.974  0.1697  0.6500 -1.2572
  753MOL0     N 1572   5.563   9.433   4.946 -0.2366  0.4103  0.3314
  753MOL0     C 1573   6.611   9.379   4.289 -0.1657 -0.6977 -0.7532
  753MOL0     C 1574   6.728   9.452   4.333  1.4411 -0.2866  0.8036
  753MOL0     C 1575   6.940   9.820   4.515 -1.0254 -0.5378 -0.5685
  753MOL0     C 1576   6.931   9.883   4.640 -0.5482  0.7751  0.2473
  753MOL0     C 1577   7.044   9.948   4.694  0.1157  0.6607 -0.3810
  753MOL0     C 1578   7.177   9.930   4.643  1.1930 -0.8318  0.5661
  753MOL0     O 1579   7.301   9.983   4.692  0.0188  0.2242  0.5026
  753MOL0     C 1580   7.289  10.082   4.796 -0.2003 -0.3522  1.1850
  753MOL0     C 1581   7.431  10.129   4.833 -0.0496  0.0342 -0.6398
  753MOL0     C 1582   7.424  10.245   4.936 -0.2902 -0.0838 -0.5558
  753MOL0     C 1583   7.553  10.326   4.949  0.6032  0.5473  0.4009
  753MOL0     C 1584   7.662  10.242   4.996 -0.4937 -0.6660 -0.0911
  753MOL0     C 1585   7.747  10.186   5.051 -0.4907  0.2413  0.0477
  753MOL0     C 1586   7.188   9.858   4.522  0.4271  0.7868  0.4211
  753MOL0     C 1587   7.072   9.811   4.461 -0.2285  0.9025 -0.3403
  753MOL0     H 1588   6.634   9.763   4.241  0.9953 -0.0873 -2.7224
  753MOL0     H 1589   6.452   9.670   4.174  1.0653 -0.3820 -4.2166
  753MOL0     H 1590   6.236   9.268   4.185  1.4004 -2.0166 -1.0341
  753MOL0     H 1591   6.402   9.205   4.219  0.9812  0.8846 -1.2238
  753MOL0     H 1592   6.267   9.200   4.443 -1.4048 -0.2269 -0.8212
  753MOL0     H 1593   6.383   9.329   4.445  0.9651 -0.7486  0.0031
  753MOL0     H 1594   6.183   9.472   4.374  1.4589 -1.0490 -2.7932
  753MOL0     H 1595   6.092   9.320   4.346 -0.9172 -0.5129  0.0186
  753MOL0     H 1596   6.150   9.270   4.593 -1.1384 -0.7496 -0.5729
  753MOL0     H 1597   6.196   9.431   4.618 -0.2591 -0.5630  1.3514
  753MOL0     H 1598   5.961   9.516   4.530  2.2885  1.5057  1.3043
  753MOL0     H 1599   5.914   9.342   4.541 -0.4949  0.4138  0.8474
  753MOL0     H 1600   5.996   9.366   4.788 -2.5522  0.5668  0.0537
  753MOL0     H 1601   6.046   9.531   4.772 -1.8798  2.3030  2.3521
  753MOL0     H 1602   5.847   9.544   4.894  1.0003  1.5983  0.1674
  753MOL0     H 1603   5.803   9.593   4.722 -0.1584 -0.3255 -0.0877
  753MOL0     H 1604   5.747   9.310   4.833 -3.3894 -1.1330  0.5302
  753MOL0     H 1605   5.716   9.385   4.670 -0.4090 -0.4554 -0.6064
  753MOL0     H 1606   5.509   9.602   4.671 -0.1061  0.9292  1.8699
  753MOL0     H 1607   5.240   9.681   4.913 -0.3800 -0.2245 -0.3162
  753MOL0     H 1608   5.290   9.694   4.741  0.1591 -1.4365 -1.0607
  753MOL0     H 1609   5.076   9.575   4.804 -1.8654 -1.1128  1.5958
  753MOL0     H 1610   5.184   9.437   4.837  2.3116 -1.1722 -1.2731
  753MOL0     H 1611   5.274   9.430   4.610 -0.6711 -0.7509 -2.0597
  753MOL0     H 1612   5.205   9.581   4.570 -3.0795  0.4325  0.6573
  753MOL0     H 1613   4.973   9.483   4.617  0.0751  0.9957 -1.2701
  753MOL0     H 1614   5.049   9.326   4.640 -2.0545  0.3538 -0.4377
  753MOL0     H 1615   5.053   9.384   4.195 -0.0338  0.6670  1.4092
  753MOL0     H 1616   4.985   9.295   3.993  0.6805 -1.7884  0.1832
  753MOL0     H 1617   4.873   9.166   3.979 -0.0146 -0.2153 -0.1291
  753MOL0     H 1618   4.807   9.320   3.967 -2.2277 -0.6874  2.0262
  753MOL0     H 1619   4.282   9.213   4.234  0.5742  0.3771  1.3168
  753MOL0     H 1620   4.099   9.101   4.169  0.9320  1.6040  1.1178
  753MOL0     H 1621   3.869   8.826   4.103  0.4381 -0.7221  1.0391
  753MOL0     H 1622   3.928   8.978   4.165  0.6714  0.0666 -0.1980
  753MOL0     H 1623   4.038   9.028   3.942  2.5454 -2.1322 -0.1994
  753MOL0     H 1624   4.015   8.870   3.886 -0.0742  0.2708  0.0043
  753MOL0     H 1625   3.798   8.896   3.848 -0.7695 -0.5305  2.3866
  753MOL0     H 1626   3.833   9.061   3.808  0.8967 -1.9969 -1.1620
  753MOL0     H 1627   3.709   8.943   4.063  1.1965  0.0017  1.0628
  753MOL0     H 1628   3.747   9.111   4.059  0.0938  0.0614  0.5107
  753MOL0     H 1629   3.591   9.120   3.840 -0.7478 -1.0924 -0.4118
  753MOL0     H 1630   3.510   9.090   3.992 -1.1842  0.9505 -0.4551
  753MOL0     H 1631   3.432   8.951   3.814 -0.2268  0.6564  0.0962
  753MOL0     H 1632   3.586   8.885   3.784  0.7054  1.3525  0.0605
  753MOL0     H 1633   3.390   8.835   4.006 -1.1507  0.8369 -3.0852
  753MOL0     H 1634   3.562   8.783   4.034  0.8341  3.3949 -0.0524
  753MOL0     H 1635   3.368   8.704   3.803  1.8546  1.4068 -1.0141
  753MOL0     H 1636   3.406   8.605   3.954 -0.4509  0.5980  0.2755
  753MOL0     H 1637   4.318   8.727   4.166  1.2346  0.3724  1.3125
  753MOL0     H 1638   4.519   8.851   4.252 -0.1995 -1.0196 -2.4325
  753MOL0     H 1639   4.657   9.210   4.435 -0.2833  1.6437  0.3090
  753MOL0     H 1640   4.833   9.322   4.553 -0.0865  0.1243  0.3136
  753MOL0     H 1641   6.602   9.273   4.308 -1.3083 -0.3635  0.8015
  753MOL0     H 1642   6.806   9.400   4.389 -0.2686  0.7150  4.3796
  753MOL0     H 1643   6.836   9.873   4.691 -0.8826 -0.4211 -0.5637
  753MOL0     H 1644   7.036  10.005   4.786  1.5127 -0.2562  0.3431
  753MOL0     H 1645   7.228  10.164   4.756  0.9159  0.4486  1.0748
  753MOL0     H 1646   7.234  10.051   4.885  0.8758  1.1228  2.4165
  753MOL0     H 1647   7.483  10.159   4.742 -0.0221  0.6931 -0.4107
  753MOL0     H 1648   7.493  10.049   4.874  3.1262  1.4270 -2.3624
  753MOL0     H 1649   7.408  10.213   5.039  2.3458 -0.9203 -0.3482
  753MOL0     H 1650   7.342  10.307   4.898 -0.3629 -0.3088 -0.7730
  753MOL0     H 1651   7.536  10.407   5.021 -0.7109 -1.1513  2.1021
  753MOL0     H 1652   7.580  10.383   4.860  1.7955  0.7640  0.8830
  753MOL0     H 1653   7.824  10.136   5.107 -0.0964  0.2755 -0.4528
  753MOL0     H 1654   7.291   9.833   4.496  0.6244  1.0545  0.9372
  753MOL0     H 1655   7.092   9.748   4.374 -0.3406  0.3290  0.0405
  754MOL0     O 1656   7.743   6.420   2.329  0.4164  0.4629 -0.0753
  754MOL0     C 1657   7.768   6.521   2.259  0.1372 -0.7106 -0.6940
  754MOL0     O 1658   7.682   6.584   2.171 -0.2942 -0.7089  0.9359
  754MOL0     C 1659   7.563   6.526   2.155  0.3450 -0.3335 -0.4127
  754MOL0     C 1660   7.464   6.550   2.252  0.0160 -0.5470  0.2841
  754MOL0     C 1661   7.338   6.503   2.234  0.0153  0.0909  0.4684
  754MOL0     C 1662   7.307   6.432   2.114 -0.0905  0.6334  1.1670
  754MOL0     O 1663   7.186   6.374   2.084  0.6582  0.1704 -0.1805
  754MOL0     C 1664   7.065   6.428   2.148  0.0082  0.6063  0.4132
  754MOL0     C 1665   6.949   6.329   2.112  0.7306 -0.1265  0.8761
  754MOL0     C 1666   6.819   6.377   2.173 -0.1382 -0.7997 -1.4420
  754MOL0     C 1667   6.715   6.260   2.172  0.5749 -0.0427 -0.0024
  754MOL0     C 1668   6.576   6.308   2.219 -0.0341  0.1250  0.1093
  754MOL0     C 1669   6.471   6.192   2.199 -0.9280 -0.8360  0.1842
  754MOL0     C 1670   6.333   6.250   2.222  0.5961  0.9213 -1.0568
  754MOL0     C 1671   6.298   6.270   2.365 -0.7354  0.4656 -0.2983
  754MOL0     N 1672   6.153   6.293   2.379  0.4687 -0.6563 -0.1671
  754MOL0     C 1673   6.099   6.416   2.362 -1.1435  0.1620 -0.0597
  754MOL0     C 1674   5.976   6.417   2.420 -0.1236  0.6386 -0.2563
  754MOL0     C 1675   5.897   6.544   2.422 -0.0458  0.3570  0.9486
  754MOL0     C 1676   5.755   6.517   2.386  0.1193 -0.0539 -0.2804
  754MOL0     C 1677   5.662   6.621   2.411 -0.1075 -0.6572  0.2709
  754MOL0     C 1678   5.527   6.590   2.354 -0.0251 -0.7951 -0.4943
  754MOL0     O 1679   5.460   6.714   2.364  0.3549 -0.2451 -0.2292
  754MOL0     C 1680   5.325   6.707   2.358  0.4313 -0.6446 -0.2096
  754MOL0     C 1681   5.236   6.604   2.325  0.2462  0.1773  0.2103
  754MOL0     C 1682   5.098   6.634   2.312  0.4803 -0.1724  0.2474
  754MOL0     C 1683   5.017   6.520   2.255  0.4289 -0.0983 -0.1757
  754MOL0     C 1684   5.050   6.757   2.350  1.1641  0.1845  0.4268
  754MOL0     C 1685   4.901   6.786   2.363  0.6398 -0.0883 -0.0571
  754MOL0     O 1686   4.860   6.921   2.370  0.0200  0.4927  0.3194
  754MOL0     C 1687   4.725   6.946   2.384 -0.4412  0.1127 -0.5530
  754MOL0     C 1688   4.651   6.865   2.466  0.2274  0.2343  0.0111
  754MOL0     C 1689   4.518   6.897   2.488  0.1213 -0.0243 -0.7979
  754MOL0     C 1690   4.444   6.999   2.426 -1.0568  0.2324 -0.9475
  754MOL0     O 1691   4.307   7.021   2.450  0.0044 -0.2296 -0.1024
  754MOL0     C 1692   4.237   7.119   2.374 -0.0612 -0.9876 -0.3894
  754MOL0     C 1693   4.262   7.254   2.443  1.3135  0.1267  0.0133
  754MOL0     C 1694   4.183   7.360   2.376  0.0175 -0.4715 -0.4601
  754MOL0     C 1695   4.191   7.485   2.463  0.3175  0.0167 -0.6378
  754MOL0     C 1696   4.132   7.611   2.403  0.1168 -0.1309  0.0776
  754MOL0     C 1697   3.986   7.594   2.354 -0.1597 -0.7346 -0.2874
  754MOL0     C 1698   3.898   7.724   2.328 -0.4583  0.0618 -0.2108
  754MOL0     C 1699   3.930   7.795   2.194 -0.7291  0.4137  0.0271
  754MOL0    Cl 1700   4.091   7.852   2.176 -0.2923 -0.1284 -0.4010
  754MOL0     C 1701   4.526   7.086   2.342 -0.0653 -0.3284 -0.3049
  754MOL0     C 1702   4.658   7.054   2.318  0.0159  0.4443 -0.2084
  754MOL0     O 1703   4.827   6.683   2.367 -0.1229  0.3295  0.9823
  754MOL0     C 1704   5.142   6.864   2.372  0.4076  0.4773 -0.5026
  754MOL0     C 1705   5.273   6.834   2.389  0.4939 -0.8533  0.2500
  754MOL0     N 1706   5.958   6.298   2.487 -0.3699 -0.4727  0.4280
  754MOL0     N 1707   6.059   6.224   2.452  0.1902  0.3859 -0.0629
  754MOL0     C 1708   7.410   6.409   2.015  0.4098 -0.3163  0.6714
  754MOL0     C 1709   7.542   6.448   2.041  1.0907 -0.0962  0.2655
  754MOL0     C 1710   7.906   6.569   2.270 -0.2732  0.2061 -0.4964
  754MOL0     C 1711   7.968   6.635   2.157 -0.1966 -0.1349 -0.8583
  754MOL0     C 1712   8.101   6.668   2.161  0.0094 -0.2071 -0.4653
  754MOL0     C 1713   8.182   6.646   2.275 -0.8207 -0.3897  0.1157
  754MOL0     O 1714   8.316   6.666   2.273 -0.5588  0.1053  0.0840
  754MOL0     C 1715   8.390   6.648   2.157 -0.5643  0.3719 -0.4728
  754MOL0     C 1716   8.530   6.611   2.208  0.3033  0.0242  0.0263
  754MOL0     C 1717   8.620   6.557   2.097  0.0049  0.2040 -0.3181
  754MOL0     C 1718   8.763   6.547   2.142  0.5846  0.7228 -0.1468
  754MOL0     C 1719   8.839   6.667   2.199  0.7296  0.0906 -0.1122
  754MOL0     C 1720   8.912   6.752   2.236  0.0730  0.4762 -0.0092
  754MOL0     C 1721   8.117   6.575   2.380 -0.2887 -0.4746  0.5757
  754MOL0     C 1722   7.982   6.543   2.384  0.2315 -0.5880 -0.2802
  754MOL0     H 1723   7.484   6.612   2.338  0.1502 -4.0083  2.9715
  754MOL0     H 1724   7.272   6.513   2.319  0.7375 -0.9930  1.1707
  754MOL0     H 1725   7.077   6.440   2.256  2.3307  1.3165  0.1096
  754MOL0     H 1726   7.039   6.522   2.099 -0.1575  0.2672 -0.1626
  754MOL0     H 1727   6.943   6.319   2.003  3.4365  1.5150  0.4698
  754MOL0     H 1728   6.971   6.228   2.147  1.4835  0.2024  1.3703
  754MOL0     H 1729   6.842   6.414   2.273 -0.5340 -0.4166 -1.4862
  754MOL0     H 1730   6.778   6.460   2.114 -1.7915 -1.0646 -0.7276
  754MOL0     H 1731   6.718   6.223   2.069  4.2513 -0.2829  0.0726
  754MOL0     H 1732   6.761   6.175   2.223 -1.9863 -0.6758  1.4364
  754MOL0     H 1733   6.581   6.336   2.324 -3.3063  1.1393  0.1311
  754MOL0     H 1734   6.544   6.402   2.171  0.6694  0.0955 -0.4265
  754MOL0     H 1735   6.475   6.165   2.093  3.3961  1.9668 -0.6672
  754MOL0     H 1736   6.502   6.104   2.255 -0.4670 -1.0286 -0.3635
  754MOL0     H 1737   6.316   6.347   2.175  1.3550  0.5879 -2.0471
  754MOL0     H 1738   6.262   6.182   2.174  2.3600  0.5701 -3.3291
  754MOL0     H 1739   6.352   6.351   2.414  0.7713  0.9516 -2.6210
  754MOL0     H 1740   6.319   6.186   2.433  0.9767 -0.0812 -1.4345
  754MOL0     H 1741   6.154   6.491   2.306  1.5156  0.5182  2.7855
  754MOL0     H 1742   5.899   6.589   2.521  0.1425 -0.2481  1.2239
  754MOL0     H 1743   5.945   6.615   2.354 -1.8893  3.8750  3.0243
  754MOL0     H 1744   5.722   6.435   2.451  0.0441  1.2808  1.4388
  754MOL0     H 1745   5.749   6.484   2.282  0.3453  1.4049 -0.7752
  754MOL0     H 1746   5.697   6.710   2.358 -0.9922 -0.6464 -0.3171
  754MOL0     H 1747   5.655   6.639   2.519 -2.1862 -0.1765  0.1036
  754MOL0     H 1748   5.473   6.512   2.409 -1.7674 -0.1570 -1.2023
  754MOL0     H 1749   5.530   6.568   2.247 -0.8261 -1.2711 -0.4314
  754MOL0     H 1750   5.272   6.504   2.302 -1.8481 -0.6309  0.2605
  754MOL0     H 1751   5.084   6.479   2.179  1.3038 -0.1770  0.6225
  754MOL0     H 1752   4.994   6.454   2.339  2.8679 -1.0477 -0.2074
  754MOL0     H 1753   4.932   6.559   2.197  0.6723  1.2669  0.3537
  754MOL0     H 1754   4.699   6.787   2.526  2.3193  1.8180  0.5249
  754MOL0     H 1755   4.466   6.828   2.555 -0.6171 -1.3407 -2.6362
  754MOL0     H 1756   4.282   7.125   2.275  0.1167 -3.2595 -0.4995
  754MOL0     H 1757   4.132   7.091   2.365 -0.1618 -0.8089  0.1812
  754MOL0     H 1758   4.225   7.241   2.545  0.7262  3.1241  0.2825
  754MOL0     H 1759   4.367   7.286   2.445  1.0423  1.7110 -3.5098
  754MOL0     H 1760   4.079   7.328   2.364 -0.2880  0.5738 -0.6834
  754MOL0     H 1761   4.216   7.377   2.273 -1.0615 -0.0498 -0.7441
  754MOL0     H 1762   4.152   7.467   2.564 -0.4051  0.1128 -0.8907
  754MOL0     H 1763   4.295   7.510   2.483 -0.4585  1.6603  1.9624
  754MOL0     H 1764   4.199   7.641   2.322  0.5274  3.3383  1.5135
  754MOL0     H 1765   4.130   7.691   2.477 -1.6538 -1.0648  1.1093
  754MOL0     H 1766   3.988   7.537   2.260  1.9638 -2.0578  0.4890
  754MOL0     H 1767   3.934   7.525   2.421  0.5792 -1.7853 -0.7756
  754MOL0     H 1768   3.903   7.795   2.411  0.6766  0.3741 -0.5289
  754MOL0     H 1769   3.793   7.695   2.315  0.0297 -1.4102 -1.0446
  754MOL0     H 1770   3.862   7.876   2.163  0.3398  1.2258 -0.2378
  754MOL0     H 1771   3.925   7.717   2.117  2.4444  0.7865 -0.6729
  754MOL0     H 1772   4.480   7.178   2.307 -2.3134 -1.0445  0.5466
  754MOL0     H 1773   4.721   7.120   2.259  1.5678 -1.1838 -0.4759
  754MOL0     H 1774   5.102   6.959   2.405 -1.8843 -1.1050  1.7181
  754MOL0     H 1775   5.335   6.917   2.424  0.5881 -0.4887 -0.7606
  754MOL0     H 1776   7.383   6.367   1.919 -1.0092  1.1727  0.3766
  754MOL0     H 1777   7.616   6.421   1.967 -0.1595 -1.6650 -0.4620
  754MOL0     H 1778   7.917   6.649   2.062  1.3358 -1.0893 -1.8687
  754MOL0     H 1779   8.136   6.709   2.067 -1.6029 -0.7016 -1.3191
  754MOL0     H 1780   8.357   6.566   2.092  0.9456 -0.0282 -0.7794
  754MOL0     H 1781   8.385   6.739   2.097 -1.9081 -0.5680 -1.8703
  754MOL0     H 1782   8.519   6.530   2.280  0.6939 -1.1690 -1.2226
  754MOL0     H 1783   8.570   6.700   2.257  0.3447 -1.6506  3.2842
  754MOL0     H 1784   8.620   6.631   2.016  1.4059  0.3308 -0.2252
  754MOL0     H 1785   8.585   6.466   2.049 -3.9065 -0.2510  2.7852
  754MOL0     H 1786   8.833   6.513   2.065  0.3498 -0.1276 -0.0039
  754MOL0     H 1787   8.772   6.464   2.214  2.1723 -2.3345 -3.5246
  754MOL0     H 1788   8.968   6.843   2.244  0.1116  0.4620 -0.1165
  754MOL0     H 1789   8.172   6.539   2.466  0.6698  0.3864  0.3509
  754MOL0     H 1790   7.934   6.485   2.462 -0.4204 -4.0554 -3.0340
  755MOL0     O 1791   9.191   8.701   4.190 -0.3517  0.2189  0.1925
  755MOL0     C 1792   9.256   8.599   4.209  0.2873 -0.1079  0.2857
  755MOL0     O 1793   9.209   8.488   4.268  0.5165 -0.6702 -0.4585
  755MOL0     C 1794   9.072   8.502   4.303  0.6038  0.2166 -0.2249
  755MOL0     C 1795   8.970   8.433   4.239 -0.1280  0.4229 -0.7923
  755MOL0     C 1796   8.841   8.435   4.291 -0.2529 -0.5240  0.4490
  755MOL0     C 1797   8.814   8.499   4.416  0.6449 -0.0402 -0.4546
  755MOL0     O 1798   8.693   8.507   4.483 -0.4430  0.5705  0.1431
  755MOL0     C 1799   8.577   8.424   4.436 -0.3525 -0.4495  0.5536
  755MOL0     C 1800   8.449   8.468   4.509  0.4182 -0.1273  0.0981
  755MOL0     C 1801   8.329   8.389   4.459 -0.2944  0.1294 -0.4731
  755MOL0     C 1802   8.213   8.428   4.547  0.3011  0.2676  1.0538
  755MOL0     C 1803   8.075   8.402   4.485 -0.0253  0.2091  0.2600
  755MOL0     C 1804   8.059   8.251   4.462  0.0669  0.3501  0.6999
  755MOL0     C 1805   7.947   8.221   4.371  0.2651  0.4217 -0.7351
  755MOL0     C 1806   7.812   8.280   4.417  0.0744 -0.5094 -0.3332
  755MOL0     N 1807   7.751   8.215   4.532  0.0248  0.2870 -0.0661
  755MOL0     C 1808   7.697   8.093   4.523  0.7557  0.0926  0.2439
  755MOL0     C 1809   7.686   8.057   4.655 -0.0959  0.3691 -0.0532
  755MOL0     C 1810   7.659   7.915   4.698  0.8700  0.0143 -0.1576
  755MOL0     C 1811   7.512   7.874   4.688  0.3092  0.3216 -0.0460
  755MOL0     C 1812   7.476   7.745   4.757 -0.3814  0.9571  0.2602
  755MOL0     C 1813   7.332   7.689   4.724  0.2339  0.0275 -0.0846
  755MOL0     O 1814   7.236   7.792   4.712  0.1645  0.1447 -0.5402
  755MOL0     C 1815   7.105   7.760   4.679  0.0286  0.0531  0.2662
  755MOL0     C 1816   7.013   7.865   4.646 -0.5970 -0.4220  0.5370
  755MOL0     C 1817   6.888   7.846   4.595 -0.0435  0.4222  0.4392
  755MOL0     C 1818   6.798   7.967   4.553  0.3248 -0.2871  0.0348
  755MOL0     C 1819   6.841   7.708   4.603 -0.0630 -0.0247  0.4019
  755MOL0     C 1820   6.703   7.671   4.571  1.1138 -0.1360  0.2714
  755MOL0     O 1821   6.610   7.768   4.578  0.1618 -0.6703 -0.0106
  755MOL0     C 1822   6.477   7.740   4.568  0.1186  0.7364  0.1935
  755MOL0     C 1823   6.403   7.798   4.458 -0.0088  0.4853 -0.3161
  755MOL0     C 1824   6.264   7.772   4.439  0.0485  0.0786  0.5439
  755MOL0     C 1825   6.195   7.687   4.526 -0.8514  0.2777 -0.2827
  755MOL0     O 1826   6.060   7.664   4.515  0.8389 -0.1638  0.2526
  755MOL0     C 1827   5.962   7.768   4.481 -0.3727 -0.0522 -0.0836
  755MOL0     C 1828   5.882   7.741   4.354  0.4688 -0.1330 -0.7030
  755MOL0     C 1829   5.782   7.627   4.374 -0.7359  0.6776 -0.7140
  755MOL0     C 1830   5.677   7.635   4.270  0.0623  0.3793 -0.2538
  755MOL0     C 1831   5.578   7.519   4.305 -1.2008 -0.1919 -0.6274
  755MOL0     C 1832   5.485   7.505   4.187 -0.2685  0.1120  0.4377
  755MOL0     C 1833   5.350   7.575   4.206  0.1755  0.3626  0.7268
  755MOL0     C 1834   5.248   7.506   4.125  0.1306  0.0990  0.7202
  755MOL0    Cl 1835   5.083   7.551   4.175  0.4677 -0.0635  0.1441
  755MOL0     C 1836   6.266   7.627   4.633  0.4098 -1.0590 -0.3278
  755MOL0     C 1837   6.409   7.653   4.651 -0.4182 -0.8024 -0.0670
  755MOL0     O 1838   6.678   7.553   4.541  0.0816  0.1645  0.3787
  755MOL0     C 1839   6.919   7.606   4.656  0.2142 -0.0202  1.3162
  755MOL0     C 1840   7.045   7.633   4.682  0.2300 -0.0303 -0.2634
  755MOL0     N 1841   7.724   8.164   4.737  0.2383  0.0174  0.6477
  755MOL0     N 1842   7.763   8.256   4.660 -0.2688  0.0623  0.2269
  755MOL0     C 1843   8.918   8.568   4.475  0.1509 -0.3655  0.5436
  755MOL0     C 1844   9.047   8.572   4.421  0.6534  0.4932  0.6822
  755MOL0     C 1845   9.404   8.586   4.165  0.2813  0.5863  0.3604
  755MOL0     C 1846   9.462   8.684   4.086 -0.5593 -0.4167  0.7202
  755MOL0     C 1847   9.593   8.673   4.049  0.1477 -0.5269  0.4038
  755MOL0     C 1848   9.675   8.552   4.074 -0.0058 -0.0978  0.7126
  755MOL0     O 1849   9.799   8.554   4.014 -0.0403  0.4801 -0.4040
  755MOL0     C 1850   9.881   8.441   4.021 -0.2084  0.5832  0.2199
  755MOL0     C 1851  10.015   8.477   3.957  0.0885  0.6637  0.1386
  755MOL0     C 1852  10.114   8.364   3.979 -0.6696  0.0494 -0.2962
  755MOL0     C 1853  10.254   8.411   3.967 -0.4103 -0.5550 -0.0443
  755MOL0     C 1854  10.279   8.496   3.851 -0.1717  0.4832 -1.6099
  755MOL0     C 1855  10.296   8.560   3.756  0.3125 -0.2276  0.1252
  755MOL0     C 1856   9.610   8.454   4.150 -0.1534  0.8392  0.0305
  755MOL0     C 1857   9.481   8.475   4.195 -1.4387  0.7011 -0.2032
  755MOL0     H 1858   8.991   8.373   4.150 -1.5839  0.4422 -1.1664
  755MOL0     H 1859   8.768   8.379   4.233 -0.6037  0.1112  0.2570
  755MOL0     H 1860   8.560   8.439   4.329 -5.6044  0.4262  1.2334
  755MOL0     H 1861   8.607   8.322   4.460  2.2383  0.2409  0.5770
  755MOL0     H 1862   8.473   8.453   4.615 -0.2566  0.8138  0.3913
  755MOL0     H 1863   8.436   8.575   4.495  2.3261  0.0520 -0.4961
  755MOL0     H 1864   8.322   8.415   4.353 -0.4398 -1.0111 -0.7478
  755MOL0     H 1865   8.340   8.281   4.473 -0.8728  0.0050 -0.9688
  755MOL0     H 1866   8.212   8.377   4.644 -1.5146  1.9564  2.0133
  755MOL0     H 1867   8.209   8.534   4.574 -0.3429  0.1392  1.4804
  755MOL0     H 1868   7.997   8.436   4.554 -1.0404  1.8701 -1.6127
  755MOL0     H 1869   8.075   8.453   4.388  3.7494 -1.7949 -0.9980
  755MOL0     H 1870   8.150   8.207   4.421  0.0225 -0.7655  1.7424
  755MOL0     H 1871   8.046   8.203   4.559 -2.4641 -1.4714 -0.4286
  755MOL0     H 1872   7.977   8.251   4.270  0.9984  0.2127 -0.5834
  755MOL0     H 1873   7.940   8.112   4.368 -0.3702  0.4702 -1.8294
  755MOL0     H 1874   7.737   8.274   4.338 -0.2138  3.1962 -0.4851
  755MOL0     H 1875   7.821   8.387   4.436 -0.2762 -0.7966  1.6958
  755MOL0     H 1876   7.664   8.030   4.442 -0.5128  0.0114  0.7940
  755MOL0     H 1877   7.724   7.843   4.648  1.3882  0.1949  0.2460
  755MOL0     H 1878   7.688   7.910   4.803 -0.8079  1.8667  0.4579
  755MOL0     H 1879   7.483   7.880   4.583 -2.0727 -1.1495  0.4560
  755MOL0     H 1880   7.453   7.955   4.733 -0.3870  0.2986 -0.9011
  755MOL0     H 1881   7.478   7.762   4.865  1.4485  0.3252  0.3588
  755MOL0     H 1882   7.536   7.658   4.730 -1.9442  0.1672 -0.8099
  755MOL0     H 1883   7.296   7.615   4.795 -2.6570 -0.4144 -1.8345
  755MOL0     H 1884   7.342   7.638   4.628 -0.0086  0.8158 -0.5425
  755MOL0     H 1885   7.049   7.967   4.654  0.6953 -0.9340  1.6916
  755MOL0     H 1886   6.743   7.986   4.646  0.1580 -1.8802  0.2814
  755MOL0     H 1887   6.849   8.062   4.534  0.7658 -0.6645 -0.7093
  755MOL0     H 1888   6.729   7.943   4.472  0.2083 -1.7156  0.5246
  755MOL0     H 1889   6.431   7.867   4.379 -0.3161  3.4014  1.9549
  755MOL0     H 1890   6.200   7.824   4.369 -1.8566 -1.5369  0.9990
  755MOL0     H 1891   5.899   7.766   4.571 -0.1152  1.1891  0.1410
  755MOL0     H 1892   6.011   7.865   4.471  1.3155 -1.1196 -3.3668
  755MOL0     H 1893   5.827   7.831   4.323 -1.0290 -0.3106  1.2338
  755MOL0     H 1894   5.956   7.721   4.276  2.4090 -0.1361  1.0889
  755MOL0     H 1895   5.745   7.629   4.476  1.9782  1.7619  0.3463
  755MOL0     H 1896   5.838   7.536   4.349  2.2061  2.1393  0.0960
  755MOL0     H 1897   5.630   7.732   4.283 -2.0242 -0.8346  2.1998
  755MOL0     H 1898   5.731   7.627   4.175  1.6708  1.7020  0.4951
  755MOL0     H 1899   5.531   7.556   4.397  2.4391 -1.7051  2.1037
  755MOL0     H 1900   5.632   7.426   4.325  0.2149  0.8799  0.7830
  755MOL0     H 1901   5.531   7.523   4.090 -0.1348  1.7327  0.7701
  755MOL0     H 1902   5.465   7.398   4.184 -1.8552  0.3383  1.3042
  755MOL0     H 1903   5.358   7.679   4.173 -0.9490  0.1911 -0.1510
  755MOL0     H 1904   5.319   7.577   4.311 -3.1281  0.4225 -0.1291
  755MOL0     H 1905   5.245   7.396   4.126 -0.8535  0.0839 -0.8387
  755MOL0     H 1906   5.250   7.529   4.019 -1.4761  0.7458  0.8054
  755MOL0     H 1907   6.204   7.572   4.702 -0.8142 -1.7147 -1.8802
  755MOL0     H 1908   6.454   7.611   4.740  0.0778  1.2266  0.6964
  755MOL0     H 1909   6.878   7.506   4.672 -2.1880  0.7086  0.1596
  755MOL0     H 1910   7.096   7.545   4.721 -0.8906 -0.9179 -0.7424
  755MOL0     H 1911   8.904   8.630   4.563  2.7637  1.4166 -0.1745
  755MOL0     H 1912   9.126   8.622   4.476  0.3970  1.4282  0.2135
  755MOL0     H 1913   9.404   8.768   4.049 -2.1596 -0.6962  2.4361
  755MOL0     H 1914   9.645   8.756   4.004 -1.4954 -0.5838 -1.7626
  755MOL0     H 1915   9.900   8.403   4.122  2.6932  1.6890  0.1867
  755MOL0     H 1916   9.834   8.362   3.962 -0.1829  0.0435  0.8985
  755MOL0     H 1917  10.041   8.572   4.005 -1.4415  1.3299 -0.2944
  755MOL0     H 1918  10.000   8.504   3.852 -0.1865 -0.2989 -0.0749
  755MOL0     H 1919  10.094   8.293   3.898 -2.1237  0.6171 -0.4593
  755MOL0     H 1920  10.092   8.315   4.075  2.3996 -2.2226 -0.5695
  755MOL0     H 1921  10.328   8.330   3.963 -1.3552 -1.4086 -0.7594
  755MOL0     H 1922  10.288   8.461   4.058  0.9192 -3.4044  1.1708
  755MOL0     H 1923  10.319   8.624   3.674  1.4774  0.4050  0.9162
  755MOL0     H 1924   9.666   8.363   4.171  0.3132  0.7926 -1.3175
  755MOL0     H 1925   9.449   8.399   4.266  1.7312  1.3753  2.2034
  756MOL0     O 1926   7.827   4.175   6.564  0.5736  0.2933 -0.3633
  756MOL0     C 1927   7.778   4.263   6.637  0.8042  0.3255 -0.3043
  756MOL0     O 1928   7.640   4.279   6.657  0.1857 -1.0523 -0.4544
  756MOL0     C 1929   7.556   4.211   6.574 -0.4585  0.1438  0.0683
  756MOL0     C 1930   7.423   4.196   6.629  0.6142  0.2257 -0.0881
  756MOL0     C 1931   7.312   4.151   6.554 -0.0635  0.1469 -0.0142
  756MOL0     C 1932   7.338   4.117   6.420  0.5550 -0.5876 -1.1260
  756MOL0     O 1933   7.241   4.060   6.345 -0.2272 -1.2719  0.0776
  756MOL0     C 1934   7.102   4.051   6.386 -0.2477 -0.1140  0.2605
  756MOL0     C 1935   7.024   4.044   6.262  0.2298 -0.3010  0.0153
  756MOL0     C 1936   6.887   4.000   6.311 -0.8575 -0.2974 -1.1183
  756MOL0     C 1937   6.769   4.005   6.206  1.1141 -0.5391  0.3146
  756MOL0     C 1938   6.626   3.968   6.256 -0.9288 -0.3818 -0.1710
  756MOL0     C 1939   6.580   3.822   6.208  0.4358 -0.1021  0.5795
  756MOL0     C 1940   6.426   3.819   6.215 -0.4653  0.3798  0.4926
  756MOL0     C 1941   6.387   3.669   6.218 -0.2347 -0.0142  1.3347
  756MOL0     N 1942   6.242   3.659   6.223  0.4045  0.3945 -0.3819
  756MOL0     C 1943   6.161   3.727   6.312  0.0953 -0.4234  0.2056
  756MOL0     C 1944   6.032   3.698   6.275 -0.8968 -0.6432  0.3659
  756MOL0     C 1945   5.927   3.750   6.357  0.1072 -0.6062  0.2735
  756MOL0     C 1946   5.820   3.640   6.390 -0.2555 -0.7080  0.0109
  756MOL0     C 1947   5.719   3.685   6.500  0.4988 -0.5757  0.1412
  756MOL0     C 1948   5.667   3.833   6.488 -0.4889 -0.0366 -0.2076
  756MOL0     O 1949   5.566   3.851   6.386  0.2506 -0.2934 -0.3472
  756MOL0     C 1950   5.434   3.818   6.407 -0.2690  0.5894 -0.7630
  756MOL0     C 1951   5.343   3.810   6.299  0.9105 -0.6823 -0.3565
  756MOL0     C 1952   5.197   3.793   6.321 -0.1893  0.2344 -0.1760
  756MOL0     C 1953   5.113   3.818   6.202 -0.8748  0.3325  0.4822
  756MOL0     C 1954   5.147   3.769   6.446 -0.2632  0.4368 -0.0359
  756MOL0     C 1955   5.000   3.744   6.480  0.0228 -0.4532  0.1646
  756MOL0     O 1956   4.970   3.727   6.614 -0.3844 -0.6419  0.5273
  756MOL0     C 1957   4.838   3.706   6.654  0.5618  0.3412 -0.1693
  756MOL0     C 1958   4.812   3.755   6.782 -0.5099 -0.1078  0.2367
  756MOL0     C 1959   4.685   3.742   6.836  0.1182  0.0830  0.2581
  756MOL0     C 1960   4.578   3.684   6.766  0.5683  1.0450 -0.2247
  756MOL0     O 1961   4.453   3.656   6.816 -0.0436  0.1294 -0.0242
  756MOL0     C 1962   4.451   3.637   6.954 -0.4937  0.4439 -0.8024
  756MOL0     C 1963   4.300   3.628   6.992 -0.2365  0.0226  0.0157
  756MOL0     C 1964   4.229   3.758   6.968  0.5118  0.1789 -0.3743
  756MOL0     C 1965   4.099   3.774   7.048 -0.2447 -0.3044  0.3497
  756MOL0     C 1966   3.977   3.693   7.004 -0.6481 -0.2830 -0.1443
  756MOL0     C 1967   3.835   3.697   7.070 -0.0606 -0.4613  0.3323
  756MOL0     C 1968   3.847   3.625   7.201 -0.1668 -0.4734  0.5992
  756MOL0     C 1969   3.727   3.615   7.292  0.5348  0.7051  0.0681
  756MOL0    Cl 1970   3.648   3.775   7.335 -0.5155 -0.1217  0.1455
  756MOL0     C 1971   4.602   3.633   6.643 -0.1260 -0.2833 -0.1157
  756MOL0     C 1972   4.729   3.642   6.587 -0.2262  0.0734 -0.9667
  756MOL0     O 1973   4.917   3.755   6.391 -0.4498  0.2726 -0.0086
  756MOL0     C 1974   5.245   3.757   6.545 -0.7628 -0.0202 -0.3040
  756MOL0     C 1975   5.380   3.788   6.532  0.0173 -0.9102 -0.1009
  756MOL0     N 1976   6.033   3.624   6.157  0.1196 -0.1071 -1.0559
  756MOL0     N 1977   6.163   3.608   6.127  0.3864  0.4696 -0.2193
  756MOL0     C 1978   7.465   4.137   6.364  0.7988 -0.0549 -0.0153
  756MOL0     C 1979   7.577   4.178   6.440  0.2347  0.3637 -0.2531
  756MOL0     C 1980   7.867   4.346   6.713 -0.5011 -0.6006 -0.0841
  756MOL0     C 1981   8.002   4.311   6.736 -0.8232 -0.1260 -0.1956
  756MOL0     C 1982   8.081   4.390   6.813  0.1663  0.4062 -0.1757
  756MOL0     C 1983   8.024   4.498   6.887 -0.2109 -0.1824 -0.7030
  756MOL0     O 1984   8.092   4.568   6.983 -0.3798 -0.1653 -0.0682
  756MOL0     C 1985   8.235   4.558   6.988  0.4558 -0.4720  0.2226
  756MOL0     C 1986   8.297   4.611   6.856  0.2643  0.1182  0.2965
  756MOL0     C 1987   8.448   4.594   6.857 -0.4852  1.1430  0.0554
  756MOL0     C 1988   8.504   4.452   6.861  0.6009  0.4038 -0.1605
  756MOL0     C 1989   8.463   4.360   6.747  0.4922 -0.0091  0.3547
  756MOL0     C 1990   8.427   4.291   6.654 -0.5903 -0.4475 -0.0658
  756MOL0     C 1991   7.885   4.527   6.880 -0.9337 -0.3039  0.4826
  756MOL0     C 1992   7.813   4.455   6.782 -0.1544 -0.7934 -0.1383
  756MOL0     H 1993   7.408   4.223   6.733 -1.4116 -0.6858 -0.0935
  756MOL0     H 1994   7.213   4.136   6.595 -0.9471 -0.0649 -2.1180
  756MOL0     H 1995   7.086   3.964   6.450  1.0045 -0.3839  0.2248
  756MOL0     H 1996   7.071   4.144   6.435 -0.2385  0.2014 -0.3260
  756MOL0     H 1997   7.008   4.139   6.211  2.3730 -1.1994 -2.5463
  756MOL0     H 1998   7.068   3.974   6.191  2.6986 -0.0547  1.1919
  756MOL0     H 1999   6.913   3.896   6.332  1.5753  0.7970  2.2796
  756MOL0     H 2000   6.863   4.053   6.404  0.2973  0.4934 -1.2476
  756MOL0     H 2001   6.759   4.107   6.169  0.4606 -0.6754  0.1064
  756MOL0     H 2002   6.798   3.945   6.120  1.5508  0.8145 -0.5110
  756MOL0     H 2003   6.629   3.983   6.364 -1.1855  2.3242 -0.4908
  756MOL0     H 2004   6.545   4.031   6.220 -0.8039  1.8434  3.0517
  756MOL0     H 2005   6.610   3.794   6.106  0.0043 -2.2377  0.9853
  756MOL0     H 2006   6.629   3.738   6.259  1.3450 -1.3983 -2.2121
  756MOL0     H 2007   6.401   3.867   6.310 -3.6063  3.1967 -1.5257
  756MOL0     H 2008   6.382   3.868   6.128 -4.6604 -1.6731  1.1800
  756MOL0     H 2009   6.428   3.620   6.307  2.5497 -0.5462 -0.1306
  756MOL0     H 2010   6.429   3.617   6.131 -1.7553  2.0855 -0.7550
  756MOL0     H 2011   6.190   3.794   6.392  0.1209 -0.6896  0.4193
  756MOL0     H 2012   5.966   3.800   6.446  0.8554 -1.3846  0.3926
  756MOL0     H 2013   5.881   3.835   6.305 -1.5879 -0.4625  1.8739
  756MOL0     H 2014   5.845   3.537   6.414  0.4937 -0.9631 -1.7537
  756MOL0     H 2015   5.762   3.641   6.298  1.0463 -2.4194 -0.8664
  756MOL0     H 2016   5.765   3.665   6.596 -0.1091  3.0108  1.3288
  756MOL0     H 2017   5.632   3.619   6.504 -0.4054  0.5965  0.7029
  756MOL0     H 2018   5.746   3.900   6.452 -0.8945 -0.4897 -1.9945
  756MOL0     H 2019   5.644   3.864   6.591 -0.1799 -1.2557  0.2373
  756MOL0     H 2020   5.377   3.847   6.202 -1.5799  1.4582 -0.5523
  756MOL0     H 2021   5.050   3.730   6.183  1.9530 -1.8844  0.6620
  756MOL0     H 2022   5.053   3.909   6.207  0.3980  1.2976 -0.8662
  756MOL0     H 2023   5.164   3.832   6.107 -3.0674 -1.3333 -1.0630
  756MOL0     H 2024   4.898   3.803   6.828 -0.4009 -1.2513  1.3015
  756MOL0     H 2025   4.675   3.783   6.936  1.6476 -1.0683  0.9175
  756MOL0     H 2026   4.500   3.544   6.985  0.6537  1.3063  0.0168
  756MOL0     H 2027   4.492   3.716   7.017 -0.0387  0.2476 -0.8544
  756MOL0     H 2028   4.251   3.554   6.927 -1.9611  2.5425 -1.7553
  756MOL0     H 2029   4.283   3.601   7.096  0.1354  3.2591  1.0130
  756MOL0     H 2030   4.206   3.768   6.861  2.0888 -0.8904 -0.8454
  756MOL0     H 2031   4.288   3.845   6.999  0.4591  0.1564 -0.2103
  756MOL0     H 2032   4.121   3.771   7.155  0.3409 -3.3121  0.2384
  756MOL0     H 2033   4.074   3.879   7.034 -1.4155 -0.1500  3.0298
  756MOL0     H 2034   4.003   3.587   7.010 -2.2478 -0.6143  3.6693
  756MOL0     H 2035   3.949   3.720   6.901 -3.2422 -1.8608  0.0692
  756MOL0     H 2036   3.786   3.795   7.074  0.8341  0.0398 -0.7006
  756MOL0     H 2037   3.774   3.623   7.017  1.4296 -2.0259  0.7330
  756MOL0     H 2038   3.930   3.675   7.252 -0.4305  0.5878  0.0282
  756MOL0     H 2039   3.884   3.526   7.177  0.9302  0.1950 -0.5456
  756MOL0     H 2040   3.765   3.562   7.381 -0.2047 -0.5060 -0.3078
  756MOL0     H 2041   3.655   3.551   7.241  1.0026  0.7677 -0.6771
  756MOL0     H 2042   4.515   3.589   6.594 -2.5187  3.1901  0.6948
  756MOL0     H 2043   4.737   3.590   6.492  0.2015 -1.4000 -0.1450
  756MOL0     H 2044   5.206   3.729   6.643  1.0834  1.3057  0.8837
  756MOL0     H 2045   5.438   3.797   6.623  0.9690 -2.3710 -0.5180
  756MOL0     H 2046   7.479   4.113   6.259 -2.2354  0.6652 -0.6853
  756MOL0     H 2047   7.673   4.174   6.390 -0.3574 -1.4345 -1.3796
  756MOL0     H 2048   8.041   4.222   6.687  0.6773 -1.4530  3.1015
  756MOL0     H 2049   8.180   4.351   6.833 -0.3564  0.3911  3.0417
  756MOL0     H 2050   8.277   4.628   7.061  3.2315  0.3924 -2.0206
  756MOL0     H 2051   8.264   4.456   7.014  0.8625  0.0659  2.0659
  756MOL0     H 2052   8.266   4.716   6.853 -1.0057 -0.2306  0.6958
  756MOL0     H 2053   8.258   4.547   6.776  0.4372 -2.0392  1.8422
  756MOL0     H 2054   8.487   4.650   6.943  3.7769 -0.2153 -0.7040
  756MOL0     H 2055   8.478   4.654   6.770 -3.1885  0.1571 -1.6725
  756MOL0     H 2056   8.478   4.399   6.953  3.9949  1.0922  1.3286
  756MOL0     H 2057   8.612   4.463   6.852  0.4514  1.0567 -1.3279
  756MOL0     H 2058   8.391   4.220   6.583  0.0909  0.8408 -1.7597
  756MOL0     H 2059   7.846   4.617   6.926  0.3237  0.5417 -0.0555
  756MOL0     H 2060   7.710   4.488   6.783  0.0082 -0.0004  3.5688
  757MOL0     O 2061   8.620   3.613   9.669  0.6934  0.3501  0.0594
  757MOL0     C 2062   8.568   3.710   9.725 -0.1953  0.5802 -0.6280
  757MOL0     O 2063   8.445   3.714   9.780 -0.0002  0.6816  0.0389
  757MOL0     C 2064   8.352   3.617   9.743  0.2252 -0.5845 -0.7900
  757MOL0     C 2065   8.251   3.577   9.838 -0.7261  0.2646  0.2206
  757MOL0     C 2066   8.142   3.490   9.799 -0.6387 -0.1413 -0.7112
  757MOL0     C 2067   8.133   3.443   9.669  0.2142  0.3385  0.0717
  757MOL0     O 2068   8.018   3.365   9.637 -0.4772 -0.6083  0.1721
  757MOL0     C 2069   7.990   3.321   9.501 -0.6250  0.0761 -0.6082
  757MOL0     C 2070   7.846   3.274   9.480 -0.5304 -1.3162 -0.1561
  757MOL0     C 2071   7.755   3.397   9.464  0.2373 -0.5308 -0.4071
  757MOL0     C 2072   7.607   3.382   9.516  0.0447  0.5663 -0.1495
  757MOL0     C 2073   7.530   3.518   9.508  0.1134  0.2026  0.0984
  757MOL0     C 2074   7.386   3.511   9.564  0.2330 -0.6896 -0.0474
  757MOL0     C 2075   7.297   3.626   9.519 -0.4290  0.0964  0.5740
  757MOL0     C 2076   7.213   3.591   9.392  0.6662 -0.3293 -0.9372
  757MOL0     N 2077   7.103   3.682   9.366 -0.3007 -0.4075  0.3641
  757MOL0     C 2078   7.125   3.821   9.351  0.6586 -0.2149  0.2737
  757MOL0     C 2079   6.991   3.869   9.353  0.1773 -0.5672  0.8674
  757MOL0     C 2080   6.968   4.019   9.356 -0.7436  0.0485  0.5159
  757MOL0     C 2081   6.984   4.096   9.491  0.1410 -0.1689  1.0797
  757MOL0     C 2082   6.947   4.011   9.609 -0.0280  0.9333  0.0804
  757MOL0     C 2083   6.797   3.983   9.610  0.3409  0.2727  0.1745
  757MOL0     O 2084   6.718   4.098   9.589  0.2006 -0.2248 -0.1603
  757MOL0     C 2085   6.605   4.113   9.668  0.1453  0.1059 -0.3117
  757MOL0     C 2086   6.516   4.004   9.679  0.1703 -0.0325 -0.4458
  757MOL0     C 2087   6.394   4.018   9.755  0.3629  0.8850  0.2666
  757MOL0     C 2088   6.295   3.910   9.742  0.2427  0.0320  0.3102
  757MOL0     C 2089   6.372   4.135   9.823 -0.0160 -0.5171  0.2331
  757MOL0     C 2090   6.262   4.155   9.911  0.9426 -0.2613  0.3483
  757MOL0     O 2091   6.231   4.042   9.984  1.0438  0.5686 -0.4637
  757MOL0     C 2092   6.114   4.049  10.053 -0.1572  0.0534 -0.1021
  757MOL0     C 2093   5.997   4.036   9.982  0.6718 -0.3026 -0.3758
  757MOL0     C 2094   5.871   4.022  10.051 -0.5053  0.2402 -0.8268
  757MOL0     C 2095   5.870   4.014  10.191 -0.4023  0.2395 -0.4118
  757MOL0     O 2096   5.758   3.992  10.262 -0.5064  0.3575  0.1855
  757MOL0     C 2097   5.682   3.879  10.217 -0.3250  0.7741  0.6026
  757MOL0     C 2098   5.561   3.872  10.305 -0.2128  0.2693 -0.5298
  757MOL0     C 2099   5.588   3.888  10.452  0.0563  0.0712 -0.0755
  757MOL0     C 2100   5.464   3.876  10.543  0.1122 -0.0347 -0.0399
  757MOL0     C 2101   5.490   3.887  10.698  0.0133 -0.0541  0.0645
  757MOL0     C 2102   5.363   3.893  10.785 -0.0474  0.0564 -0.0461
  757MOL0     C 2103   5.291   3.766  10.806  1.2967 -0.0778 -0.1218
  757MOL0     C 2104   5.185   3.775  10.919  0.1888 -0.0677 -0.2042
  757MOL0    Cl 2105   5.092   3.626  10.940  0.3846 -0.1272  0.3325
  757MOL0     C 2106   5.986   4.036  10.264 -0.2962  0.0519 -0.1064
  757MOL0     C 2107   6.107   4.051  10.195 -0.6558  0.2475 -1.2955
  757MOL0     O 2108   6.201   4.265   9.907 -0.2397  0.1168  0.6492
  757MOL0     C 2109   6.472   4.244   9.825  0.4345  0.9070  0.4791
  757MOL0     C 2110   6.583   4.227   9.742  0.3345 -0.1349 -0.0275
  757MOL0     N 2111   6.905   3.770   9.362  0.0544  0.3026 -0.0677
  757MOL0     N 2112   6.973   3.661   9.376  0.1932  0.0246  0.4061
  757MOL0     C 2113   8.230   3.485   9.574 -0.2425  0.3315 -0.4217
  757MOL0     C 2114   8.334   3.567   9.614 -0.7379 -0.6522  0.1305
  757MOL0     C 2115   8.663   3.826   9.738 -0.3738  0.0830 -0.1609
  757MOL0     C 2116   8.800   3.813   9.704 -0.3319  0.9796  0.3094
  757MOL0     C 2117   8.891   3.917   9.722 -0.1997 -0.1656 -0.0687
  757MOL0     C 2118   8.847   4.037   9.784  1.4245  0.7445  0.6947
  757MOL0     O 2119   8.922   4.146   9.820  0.5909  0.3017  0.0738
  757MOL0     C 2120   9.055   4.157   9.772  0.4824 -0.1093  0.3647
  757MOL0     C 2121   9.103   4.287   9.822 -0.4662 -0.7548  0.4644
  757MOL0     C 2122   9.255   4.294   9.799  0.3765  0.3358 -1.0675
  757MOL0     C 2123   9.310   4.417   9.875 -0.5075  0.8314  0.1852
  757MOL0     C 2124   9.451   4.409   9.880 -0.1411  0.1361 -0.5647
  757MOL0     C 2125   9.573   4.413   9.889 -0.0772  0.0836 -0.6084
  757MOL0     C 2126   8.708   4.046   9.820  0.2636 -0.5029  0.3914
  757MOL0     C 2127   8.621   3.940   9.803  0.2797  0.2987 -0.6906
  757MOL0     H 2128   8.250   3.614   9.940  2.0121 -2.1487  1.2723
  757MOL0     H 2129   8.061   3.464   9.866 -0.5414  1.2888  0.0062
  757MOL0     H 2130   8.012   3.401   9.430 -1.9976  1.4806  0.4802
  757MOL0     H 2131   8.059   3.238   9.484  0.3622  1.0722 -1.5534
  757MOL0     H 2132   7.845   3.221   9.384  5.4000 -0.2512 -1.2132
  757MOL0     H 2133   7.808   3.217   9.565  1.3034 -1.5693  0.5538
  757MOL0     H 2134   7.782   3.488   9.518 -1.0166 -0.7480  0.6349
  757MOL0     H 2135   7.762   3.428   9.359 -0.0787  1.6806  0.1828
  757MOL0     H 2136   7.559   3.311   9.448  0.3945  1.4943 -1.3991
  757MOL0     H 2137   7.607   3.348   9.620  0.1313  2.4820  0.5182
  757MOL0     H 2138   7.588   3.595   9.559  0.2955 -0.3980  0.8193
  757MOL0     H 2139   7.527   3.544   9.402 -1.5726  3.6610  0.8375
  757MOL0     H 2140   7.341   3.415   9.536  0.4569 -0.8944  0.2882
  757MOL0     H 2141   7.403   3.514   9.672  1.2744  2.4232 -0.2078
  757MOL0     H 2142   7.225   3.653   9.597 -1.7515 -1.1711 -0.1444
  757MOL0     H 2143   7.365   3.709   9.499 -0.8935  0.4076  0.2772
  757MOL0     H 2144   7.169   3.493   9.413  0.5025  0.1486  1.1688
  757MOL0     H 2145   7.272   3.580   9.300 -0.9768 -0.1372 -2.0607
  757MOL0     H 2146   7.220   3.871   9.334 -0.0491  1.6899  1.5184
  757MOL0     H 2147   7.039   4.071   9.292 -0.0810  1.3986  2.2667
  757MOL0     H 2148   6.865   4.032   9.321 -0.6364 -0.2956  0.0713
  757MOL0     H 2149   6.925   4.188   9.491 -2.0720 -1.5095 -0.4555
  757MOL0     H 2150   7.093   4.103   9.493  0.3637 -2.7296  1.8039
  757MOL0     H 2151   6.965   4.060   9.705  0.1575 -2.2142  1.7819
  757MOL0     H 2152   7.021   3.932   9.622 -0.8247 -0.2020 -1.8790
  757MOL0     H 2153   6.772   3.932   9.704  1.1705  0.2430  0.3886
  757MOL0     H 2154   6.766   3.915   9.530  1.3142 -0.4163  0.3653
  757MOL0     H 2155   6.540   3.922   9.613  1.2879 -1.1301  1.2499
  757MOL0     H 2156   6.288   3.840   9.826  1.9935  0.3237  0.7350
  757MOL0     H 2157   6.199   3.959   9.726 -0.9493 -3.0249 -3.5915
  757MOL0     H 2158   6.306   3.861   9.644 -2.5967  3.2490 -1.8430
  757MOL0     H 2159   5.985   4.042   9.874 -1.1080  2.1131 -0.1194
  757MOL0     H 2160   5.778   4.010   9.996  0.2222  0.6759 -2.2180
  757MOL0     H 2161   5.639   3.884  10.117 -0.9491 -1.4731  0.7050
  757MOL0     H 2162   5.748   3.792  10.221 -0.7569  0.1558 -2.7936
  757MOL0     H 2163   5.493   3.952  10.273  0.5217 -0.1787 -3.5220
  757MOL0     H 2164   5.500   3.785  10.280 -1.6473  1.8079 -2.8762
  757MOL0     H 2165   5.621   3.991  10.467  0.3955 -0.2120  1.1894
  757MOL0     H 2166   5.662   3.820  10.495  1.1697  0.9836 -0.4946
  757MOL0     H 2167   5.387   3.948  10.515 -2.9828 -3.3022 -0.6011
  757MOL0     H 2168   5.431   3.778  10.509 -2.1908 -0.2642  2.5241
  757MOL0     H 2169   5.547   3.979  10.710  0.9983 -0.9118  2.8860
  757MOL0     H 2170   5.543   3.797  10.733 -0.3829 -0.2978  0.0410
  757MOL0     H 2171   5.383   3.947  10.877  2.1212  3.4462 -2.2689
  757MOL0     H 2172   5.310   3.969  10.727  1.2501  1.6100  0.7357
  757MOL0     H 2173   5.368   3.692  10.833  1.6353  0.6660  1.0054
  757MOL0     H 2174   5.251   3.738  10.708 -1.1716  1.3975  0.3803
  757MOL0     H 2175   5.119   3.862  10.902  1.7174  1.2229  0.2533
  757MOL0     H 2176   5.233   3.803  11.013 -1.1143 -0.2107  0.5288
  757MOL0     H 2177   5.968   4.041  10.371 -2.1807  0.5483 -0.4138
  757MOL0     H 2178   6.194   4.068  10.257 -2.5990 -1.3649  2.1408
  757MOL0     H 2179   6.467   4.333   9.886  0.9214  3.4592 -2.9470
  757MOL0     H 2180   6.650   4.313   9.740 -0.9511  0.8972 -1.8071
  757MOL0     H 2181   8.224   3.466   9.467 -3.0326  1.6649 -0.6084
  757MOL0     H 2182   8.409   3.597   9.542  0.7278 -0.0829  1.7980
  757MOL0     H 2183   8.847   3.721   9.671  0.7012  1.1899  1.1484
  757MOL0     H 2184   8.997   3.901   9.703  0.1581 -0.9902  2.2648
  757MOL0     H 2185   9.114   4.074   9.813 -2.5249 -0.9557  3.4137
  757MOL0     H 2186   9.063   4.153   9.663 -1.8393 -1.9366  0.1935
  757MOL0     H 2187   9.076   4.299   9.927  0.2278  1.4833  0.4536
  757MOL0     H 2188   9.057   4.366   9.761 -0.4049 -0.6561  0.5469
  757MOL0     H 2189   9.285   4.298   9.694  1.3280  1.3576 -0.7849
  757MOL0     H 2190   9.310   4.210   9.841  2.9697 -0.3226 -5.2687
  757MOL0     H 2191   9.269   4.412   9.977  0.0804 -1.9422  0.3486
  757MOL0     H 2192   9.277   4.508   9.824  0.8623  0.3657 -1.6160
  757MOL0     H 2193   9.672   4.412   9.929 -0.8345 -2.0838  1.4448
  757MOL0     H 2194   8.679   4.143   9.860  0.3526 -1.3227  2.5703
  757MOL0     H 2195   8.525   3.957   9.850  1.2782  0.9854  1.2559
  758MOL0     O 2196   8.645   1.294   5.862 -0.3284  0.5271  0.4735
  758MOL0     C 2197   8.693   1.383   5.789  0.0022 -0.1460 -0.1564
  758MOL0     O 2198   8.622   1.442   5.687 -0.3907 -0.4872  0.8095
  758MOL0     C 2199   8.496   1.402   5.653  0.1309 -0.3412 -0.2053
  758MOL0     C 2200   8.411   1.518   5.642  0.1557  0.0432 -0.0646
  758MOL0     C 2201   8.283   1.501   5.597  0.2570 -0.3508 -0.0132
  758MOL0     C 2202   8.236   1.374   5.560  0.2379  0.0787  0.2253
  758MOL0     O 2203   8.110   1.339   5.529  0.9882  0.3432 -0.2136
  758MOL0     C 2204   8.011   1.451   5.536  0.3880  1.0721  0.0755
  758MOL0     C 2205   7.876   1.390   5.503 -0.3691 -0.2926  0.1525
  758MOL0     C 2206   7.787   1.512   5.467  0.0337 -0.1208 -0.6767
  758MOL0     C 2207   7.683   1.469   5.373  0.1068 -0.1002 -1.1215
  758MOL0     C 2208   7.550   1.559   5.379 -0.3777  0.3014  0.8562
  758MOL0     C 2209   7.445   1.531   5.485 -0.4488  0.4649 -0.1603
  758MOL0     C 2210   7.313   1.607   5.472  0.9613  1.2677 -0.5913
  758MOL0     C 2211   7.182   1.550   5.534 -0.2986  0.1354 -0.3485
  758MOL0     N 2212   7.076   1.648   5.508 -0.1955  0.1669  0.0667
  758MOL0     C 2213   7.018   1.729   5.604 -0.1537 -0.7958  1.0398
  758MOL0     C 2214   6.911   1.779   5.544  0.1443 -0.5255 -0.7842
  758MOL0     C 2215   6.792   1.860   5.601 -0.2817  0.0340 -0.5499
  758MOL0     C 2216   6.651   1.826   5.548 -0.2430  0.4201  0.3990
  758MOL0     C 2217   6.604   1.682   5.591  0.3882  0.2806  0.6315
  758MOL0     C 2218   6.668   1.605   5.706 -1.0546 -0.0427  0.5958
  758MOL0     O 2219   6.645   1.695   5.821 -0.2836 -0.0123 -0.0160
  758MOL0     C 2220   6.714   1.662   5.935  0.2521 -0.0548  0.0458
  758MOL0     C 2221   6.674   1.721   6.052  0.0915  1.1054 -1.1272
  758MOL0     C 2222   6.752   1.708   6.175 -0.6531  0.2224 -0.5155
  758MOL0     C 2223   6.699   1.789   6.291  0.5861 -0.5960  0.4421
  758MOL0     C 2224   6.879   1.635   6.176  0.2831  0.4436 -0.1514
  758MOL0     C 2225   6.969   1.623   6.293  0.4785 -0.8587  0.7867
  758MOL0     O 2226   7.091   1.561   6.267  0.2701  0.2103 -0.3843
  758MOL0     C 2227   7.145   1.537   6.391 -0.5489 -0.2697  0.2168
  758MOL0     C 2228   7.216   1.636   6.469  0.2020 -0.3597  0.5236
  758MOL0     C 2229   7.274   1.606   6.594 -0.5325 -0.2256 -0.4379
  758MOL0     C 2230   7.287   1.475   6.637  0.5625 -0.3932 -0.0092
  758MOL0     O 2231   7.341   1.430   6.757  0.1310  0.1589 -0.3396
  758MOL0     C 2232   7.452   1.497   6.815 -0.7235  0.7361 -0.5127
  758MOL0     C 2233   7.491   1.417   6.935  0.1238  0.9222 -0.1000
  758MOL0     C 2234   7.579   1.497   7.028 -0.1545 -0.0713 -0.4407
  758MOL0     C 2235   7.715   1.550   6.972 -0.2332 -0.4342 -0.7194
  758MOL0     C 2236   7.772   1.651   7.073 -0.0191  0.2583  0.2259
  758MOL0     C 2237   7.897   1.720   7.022 -0.8437 -0.2988  0.1657
  758MOL0     C 2238   7.965   1.804   7.129  0.2178  0.3773 -1.0787
  758MOL0     C 2239   8.080   1.913   7.098  0.1121 -0.5010  0.1625
  758MOL0    Cl 2240   8.179   1.858   6.964  0.0311 -0.4409 -0.1913
  758MOL0     C 2241   7.218   1.375   6.563 -0.7270  1.2338 -0.0296
  758MOL0     C 2242   7.153   1.407   6.443  0.0302 -0.3363  0.0847
  758MOL0     O 2243   6.930   1.673   6.403 -1.4349 -0.0768 -0.6149
  758MOL0     C 2244   6.906   1.566   6.050 -0.1235  0.4758 -0.6671
  758MOL0     C 2245   6.829   1.583   5.936  0.4059 -0.7003  0.5076
  758MOL0     N 2246   6.913   1.739   5.413 -0.7815 -0.0930  0.1154
  758MOL0     N 2247   7.012   1.654   5.391  0.4005 -0.3735 -0.5531
  758MOL0     C 2248   8.312   1.263   5.581  0.2578  0.1300  0.4670
  758MOL0     C 2249   8.447   1.275   5.618 -0.2774  0.1266 -0.2828
  758MOL0     C 2250   8.834   1.436   5.798  0.1234  0.0854  0.2634
  758MOL0     C 2251   8.938   1.372   5.872 -0.3877 -0.0275 -0.1279
  758MOL0     C 2252   9.067   1.427   5.866 -0.5089  0.3318 -0.4221
  758MOL0     C 2253   9.097   1.538   5.786 -0.0423  0.8214  0.0254
  758MOL0     O 2254   9.222   1.605   5.780  0.3985 -0.4405 -0.8631
  758MOL0     C 2255   9.323   1.554   5.865  0.1543 -0.3991 -0.8994
  758MOL0     C 2256   9.451   1.629   5.851  0.5923  0.2634  0.1581
  758MOL0     C 2257   9.530   1.599   5.724 -0.3934  0.0963  0.6682
  758MOL0     C 2258   9.657   1.692   5.714 -0.4179 -0.0693 -0.5526
  758MOL0     C 2259   9.752   1.655   5.612 -0.7151  0.1272  0.4115
  758MOL0     C 2260   9.827   1.613   5.524  0.3167  1.3536 -0.4367
  758MOL0     C 2261   9.001   1.596   5.709  0.7873  0.0083 -0.0601
  758MOL0     C 2262   8.869   1.546   5.714  0.2985  0.3821 -0.3729
  758MOL0     H 2263   8.459   1.610   5.673  1.0791 -1.1296  2.2206
  758MOL0     H 2264   8.218   1.586   5.581  0.2047 -0.4046 -0.0861
  758MOL0     H 2265   8.010   1.495   5.636 -0.9317  0.4169  0.3683
  758MOL0     H 2266   8.034   1.525   5.460 -1.0594 -2.0441 -3.7263
  758MOL0     H 2267   7.884   1.324   5.417 -2.4912 -0.1420 -0.2166
  758MOL0     H 2268   7.838   1.335   5.590 -1.6075  0.7398  0.3032
  758MOL0     H 2269   7.749   1.555   5.560  4.1621  0.9076  0.7678
  758MOL0     H 2270   7.847   1.585   5.412  0.1192 -0.3881 -0.9409
  758MOL0     H 2271   7.722   1.463   5.271  0.0876  0.1291 -1.1425
  758MOL0     H 2272   7.651   1.366   5.390  0.2471 -0.0022 -0.1931
  758MOL0     H 2273   7.577   1.665   5.385  2.4445 -0.3422  0.8389
  758MOL0     H 2274   7.498   1.537   5.285  1.5788  0.1668 -0.2515
  758MOL0     H 2275   7.420   1.426   5.470 -1.8203  0.3668  2.3473
  758MOL0     H 2276   7.483   1.544   5.587 -0.4436  1.0627 -0.2318
  758MOL0     H 2277   7.326   1.703   5.523 -2.4310  1.9570 -0.8117
  758MOL0     H 2278   7.300   1.638   5.368  0.6007  2.9961 -0.0686
  758MOL0     H 2279   7.193   1.531   5.641  1.3312  0.7744 -0.3788
  758MOL0     H 2280   7.156   1.456   5.484 -0.9326  0.3274 -0.3930
  758MOL0     H 2281   7.039   1.746   5.709 -0.6370  1.2361  0.8531
  758MOL0     H 2282   6.793   1.867   5.710  1.0656  1.8291 -0.6286
  758MOL0     H 2283   6.811   1.960   5.562  0.0722  0.5660  0.9030
  758MOL0     H 2284   6.639   1.849   5.442  0.3803 -1.2085 -0.0530
  758MOL0     H 2285   6.585   1.895   5.601  0.3208  1.0278  0.3212
  758MOL0     H 2286   6.604   1.631   5.494 -2.9309  1.3078 -0.0331
  758MOL0     H 2287   6.499   1.695   5.618  0.1264 -0.0039 -0.2308
  758MOL0     H 2288   6.775   1.589   5.690 -1.1409 -1.9258  1.6157
  758MOL0     H 2289   6.625   1.505   5.715  2.3480 -1.8730 -1.2374
  758MOL0     H 2290   6.581   1.777   6.053  0.0248  1.0106  0.3470
  758MOL0     H 2291   6.682   1.735   6.384  1.4307  3.5949  3.3030
  758MOL0     H 2292   6.767   1.870   6.319 -0.6229  0.5628  0.1781
  758MOL0     H 2293   6.602   1.833   6.266  0.9285  0.5919  1.1135
  758MOL0     H 2294   7.213   1.728   6.411  1.5141 -2.4142 -3.1523
  758MOL0     H 2295   7.319   1.685   6.654  2.3324 -1.8126 -0.3183
  758MOL0     H 2296   7.534   1.503   6.742  0.5282  1.0616  0.8846
  758MOL0     H 2297   7.430   1.603   6.832  0.5590  1.7540 -4.1173
  758MOL0     H 2298   7.402   1.389   6.992 -1.6293  1.2056 -2.5186
  758MOL0     H 2299   7.531   1.322   6.898  2.1664  2.6475 -2.7583
  758MOL0     H 2300   7.604   1.428   7.109 -1.3034 -3.0945 -2.4717
  758MOL0     H 2301   7.506   1.571   7.065 -0.5810 -1.2993  1.2768
  758MOL0     H 2302   7.786   1.469   6.952  0.0326  0.6623 -5.2188
  758MOL0     H 2303   7.702   1.600   6.876 -0.5562  0.3449 -0.2825
  758MOL0     H 2304   7.793   1.595   7.164  1.9676 -2.4323 -1.7007
  758MOL0     H 2305   7.691   1.718   7.102 -0.2517 -0.6110  1.6845
  758MOL0     H 2306   7.970   1.648   6.984  1.2971  0.4823  2.4980
  758MOL0     H 2307   7.871   1.786   6.939 -0.3451 -1.2064 -0.7385
  758MOL0     H 2308   8.004   1.732   7.201  0.6145 -0.0181 -1.6762
  758MOL0     H 2309   7.895   1.860   7.190  0.8191 -0.1577  0.1264
  758MOL0     H 2310   8.145   1.945   7.179  1.0425 -0.5825 -0.5281
  758MOL0     H 2311   8.040   2.008   7.062  2.6642  0.1154 -1.3200
  758MOL0     H 2312   7.218   1.274   6.603 -1.4615  2.2139  2.6681
  758MOL0     H 2313   7.097   1.330   6.392 -0.8881  1.9534 -2.6135
  758MOL0     H 2314   6.994   1.502   6.054  0.7501  1.6896  0.1149
  758MOL0     H 2315   6.878   1.544   5.848 -0.2743  0.4772 -0.4230
  758MOL0     H 2316   8.272   1.162   5.573  2.3506 -0.6902 -0.3162
  758MOL0     H 2317   8.511   1.190   5.639  2.6011  1.8636 -1.4014
  758MOL0     H 2318   8.903   1.294   5.938  0.0594  0.3269  0.5366
  758MOL0     H 2319   9.151   1.383   5.919  0.1834  0.3559 -1.4591
  758MOL0     H 2320   9.283   1.548   5.967 -2.0104 -1.2095 -1.7470
  758MOL0     H 2321   9.339   1.449   5.841  0.0814 -0.1510 -2.0929
  758MOL0     H 2322   9.510   1.617   5.943 -2.2732  0.6849  2.1886
  758MOL0     H 2323   9.433   1.736   5.834  1.1935  0.0501 -2.1719
  758MOL0     H 2324   9.473   1.607   5.631  1.3592 -1.6781 -0.6345
  758MOL0     H 2325   9.563   1.495   5.721 -1.6030 -0.2772 -0.6487
  758MOL0     H 2326   9.709   1.701   5.810  1.3595  0.1141 -1.4985
  758MOL0     H 2327   9.616   1.791   5.689 -1.0943 -0.0125  0.7111
  758MOL0     H 2328   9.884   1.562   5.449 -3.7305 -2.1688 -1.5033
  758MOL0     H 2329   9.025   1.687   5.654  0.0401  0.7884  0.8685
  758MOL0     H 2330   8.795   1.596   5.652  0.9626 -0.3327 -1.8075
  759MOL0     O 2331   4.513   6.067   8.330 -0.8199  0.0563 -0.3559
  759MOL0     C 2332   4.600   6.150   8.356  0.3798 -0.4308 -0.3255
  759MOL0     O 2333   4.592   6.230   8.456 -0.3633  0.3236 -0.1112
  759MOL0     C 2334   4.470   6.248   8.523 -0.3454 -0.4514  0.4629
  759MOL0     C 2335   4.348   6.248   8.458  0.0726  0.3805 -0.4542
  759MOL0     C 2336   4.227   6.262   8.528  0.8593 -1.0020  0.2661
  759MOL0     C 2337   4.227   6.280   8.664 -0.3254 -0.5387 -0.2634
  759MOL0     O 2338   4.110   6.304   8.719 -0.2808 -0.4852 -0.1053
  759MOL0     C 2339   4.074   6.238   8.838  1.1491 -0.2136 -0.1825
  759MOL0     C 2340   3.920   6.243   8.839  0.5840  0.1051  0.1941
  759MOL0     C 2341   3.863   6.154   8.727  0.2203  0.0570 -1.0500
  759MOL0     C 2342   3.709   6.163   8.732 -0.6448  0.0920 -0.3528
  759MOL0     C 2343   3.652   6.083   8.619 -0.0545 -0.7567  0.0674
  759MOL0     C 2344   3.499   6.106   8.613  0.0660  1.0812  0.0768
  759MOL0     C 2345   3.434   6.248   8.604 -0.5307  0.1369 -0.3445
  759MOL0     C 2346   3.279   6.240   8.581 -0.4945  0.3695  0.6289
  759MOL0     N 2347   3.238   6.179   8.453  0.5501  0.0111 -1.2338
  759MOL0     C 2348   3.227   6.246   8.337  0.5614 -0.9121 -0.3855
  759MOL0     C 2349   3.165   6.154   8.257  0.1359 -0.2124  0.2725
  759MOL0     C 2350   3.108   6.181   8.123  0.1215  0.4981  0.8706
  759MOL0     C 2351   2.956   6.219   8.121 -0.4381 -0.7568  0.4240
  759MOL0     C 2352   2.855   6.102   8.135 -0.0014  0.5175 -0.3853
  759MOL0     C 2353   2.716   6.158   8.127 -0.1132 -0.4518 -0.2829
  759MOL0     O 2354   2.687   6.248   8.235  0.5543  0.1620 -0.2152
  759MOL0     C 2355   2.552   6.267   8.270  0.6989 -0.6571 -0.8411
  759MOL0     C 2356   2.437   6.213   8.216 -0.1081 -1.0702  0.1801
  759MOL0     C 2357   2.311   6.228   8.281 -0.0911 -0.2647  0.7210
  759MOL0     C 2358   2.195   6.152   8.209  0.1827  0.3161 -0.7480
  759MOL0     C 2359   2.301   6.316   8.391 -0.2630 -0.3198 -0.4899
  759MOL0     C 2360   2.176   6.339   8.464 -0.4073 -0.7583  0.8575
  759MOL0     O 2361   2.068   6.254   8.445 -0.4014 -0.5076  0.6890
  759MOL0     C 2362   1.950   6.261   8.519 -0.2333  0.1183  0.3824
  759MOL0     C 2363   1.942   6.285   8.665 -0.6274 -0.4228  0.0504
  759MOL0     C 2364   1.821   6.283   8.731  0.0848 -1.0321 -0.2590
  759MOL0     C 2365   1.702   6.262   8.657 -0.6782  0.0555  0.4807
  759MOL0     O 2366   1.585   6.273   8.721  0.0358 -0.3806  0.4770
  759MOL0     C 2367   1.493   6.178   8.677  0.0030  0.1206  0.2969
  759MOL0     C 2368   1.356   6.197   8.733  0.3010  0.3495  0.2752
  759MOL0     C 2369   1.252   6.095   8.671 -0.3928 -0.0432  0.5004
  759MOL0     C 2370   1.224   5.966   8.758 -0.5433 -1.0451 -0.0266
  759MOL0     C 2371   1.115   5.889   8.707  0.2795 -0.3801  0.0248
  759MOL0     C 2372   0.980   5.976   8.714 -0.8420 -0.1281  0.0700
  759MOL0     C 2373   0.861   5.888   8.723 -0.1240  0.7333  0.2118
  759MOL0     C 2374   0.737   5.983   8.741  0.0568 -0.9892  0.6712
  759MOL0    Cl 2375   0.583   5.910   8.713  0.2390 -0.0162 -0.6461
  759MOL0     C 2376   1.711   6.242   8.517 -0.8200 -0.4864  0.6380
  759MOL0     C 2377   1.834   6.249   8.445 -0.0471 -0.2638 -0.3366
  759MOL0     O 2378   2.166   6.440   8.533 -0.0061  0.7580  0.2342
  759MOL0     C 2379   2.429   6.370   8.448  0.0093  0.1091 -0.4777
  759MOL0     C 2380   2.548   6.349   8.383 -0.2597 -0.1896  0.0899
  759MOL0     N 2381   3.137   6.036   8.319 -0.9179 -0.1183 -0.3579
  759MOL0     N 2382   3.189   6.050   8.441 -0.2619 -0.1743 -0.5635
  759MOL0     C 2383   4.350   6.275   8.731 -0.2230  0.2498 -0.9435
  759MOL0     C 2384   4.468   6.262   8.661 -0.2083  0.2548 -0.7650
  759MOL0     C 2385   4.723   6.161   8.272 -0.9602  0.2381 -0.9199
  759MOL0     C 2386   4.763   6.064   8.185 -0.1533  0.1016 -0.4451
  759MOL0     C 2387   4.871   6.070   8.097 -0.7998  0.4020 -0.0524
  759MOL0     C 2388   4.962   6.175   8.101  0.3818  0.4672 -0.4504
  759MOL0     O 2389   5.062   6.183   8.013 -0.0962  0.1904  0.6346
  759MOL0     C 2390   5.182   6.270   8.038 -0.1672  0.3475  0.5021
  759MOL0     C 2391   5.292   6.258   7.934 -0.5409 -0.1043 -0.1092
  759MOL0     C 2392   5.426   6.306   7.993  0.8668  0.0047  0.0892
  759MOL0     C 2393   5.533   6.319   7.882  0.6744 -0.4944  0.3537
  759MOL0     C 2394   5.660   6.343   7.939 -0.4581  0.0911 -0.4400
  759MOL0     C 2395   5.775   6.363   7.976 -0.2900  0.5818  0.1554
  759MOL0     C 2396   4.934   6.277   8.198 -0.9486  0.0537 -0.5258
  759MOL0     C 2397   4.817   6.269   8.286 -0.7465 -0.7967  0.0952
  759MOL0     H 2398   4.348   6.249   8.350 -1.9196 -0.8801 -0.5289
  759MOL0     H 2399   4.132   6.255   8.476  2.4780 -3.2092 -2.7026
  759MOL0     H 2400   4.108   6.134   8.839  0.2409 -0.5425 -0.9164
  759MOL0     H 2401   4.127   6.286   8.919 -1.3258  0.9245  0.8657
  759MOL0     H 2402   3.881   6.202   8.933 -1.0353 -1.2818 -1.0096
  759MOL0     H 2403   3.879   6.343   8.822  1.1730  0.5182  1.1411
  759MOL0     H 2404   3.890   6.187   8.626 -0.7828  1.2234 -0.9747
  759MOL0     H 2405   3.894   6.053   8.753 -3.0454 -0.2720  2.5323
  759MOL0     H 2406   3.673   6.117   8.825  2.3151  2.1013  1.9935
  759MOL0     H 2407   3.680   6.269   8.735  1.4925  0.7304 -0.3547
  759MOL0     H 2408   3.679   6.120   8.520 -0.3067  0.3590  0.3989
  759MOL0     H 2409   3.683   5.978   8.624 -0.7768 -1.0094 -0.6104
  759MOL0     H 2410   3.463   6.043   8.531  0.3353 -3.4009  3.0370
  759MOL0     H 2411   3.454   6.054   8.698 -0.0247 -3.8056 -2.5552
  759MOL0     H 2412   3.458   6.297   8.699 -1.5910 -1.9575  1.0811
  759MOL0     H 2413   3.483   6.304   8.523  0.0049  0.3468  0.1220
  759MOL0     H 2414   3.231   6.338   8.586 -1.1815  0.0060  1.5770
  759MOL0     H 2415   3.233   6.171   8.653  0.8445 -0.6068  0.5957
  759MOL0     H 2416   3.256   6.346   8.309 -3.2195  0.4434 -0.0278
  759MOL0     H 2417   3.165   6.265   8.080 -1.9290  2.0802  1.1240
  759MOL0     H 2418   3.112   6.092   8.060 -1.7358 -0.9730  2.7198
  759MOL0     H 2419   2.927   6.284   8.038 -0.6393 -2.2749 -0.7149
  759MOL0     H 2420   2.948   6.282   8.211 -0.9324  0.0293 -0.1516
  759MOL0     H 2421   2.879   6.064   8.235  1.0384  1.8134 -0.1166
  759MOL0     H 2422   2.853   6.025   8.056 -1.8333  1.6947 -1.5502
  759MOL0     H 2423   2.654   6.068   8.124  3.3695 -3.0798  0.1095
  759MOL0     H 2424   2.713   6.216   8.034 -3.0789  0.1796  0.1254
  759MOL0     H 2425   2.444   6.148   8.130  1.3013 -1.1238  0.3115
  759MOL0     H 2426   2.219   6.111   8.111  2.3831  2.5132 -1.2149
  759MOL0     H 2427   2.158   6.068   8.269 -4.2227  1.8560 -0.9373
  759MOL0     H 2428   2.112   6.220   8.192 -0.1431 -0.4564 -2.4573
  759MOL0     H 2429   2.029   6.313   8.724 -0.7594  0.7489 -0.2954
  759MOL0     H 2430   1.813   6.306   8.836  0.7671  1.7103 -0.7320
  759MOL0     H 2431   1.478   6.198   8.571 -0.2661  0.7650  0.4522
  759MOL0     H 2432   1.534   6.079   8.696  1.4851  0.2826 -1.7721
  759MOL0     H 2433   1.356   6.204   8.842 -0.5146 -0.9496  0.3734
  759MOL0     H 2434   1.321   6.293   8.692 -0.0023 -0.0614 -0.4438
  759MOL0     H 2435   1.277   6.064   8.570  1.4703  0.8602  0.6286
  759MOL0     H 2436   1.156   6.145   8.659 -2.3280 -3.5244  0.3304
  759MOL0     H 2437   1.309   5.897   8.761  0.6914  0.1527 -3.0548
  759MOL0     H 2438   1.191   5.999   8.857 -0.5507  1.8945 -0.9163
  759MOL0     H 2439   1.106   5.798   8.766 -1.1971 -0.5558 -0.4298
  759MOL0     H 2440   1.129   5.845   8.608  1.4355  2.3331 -1.1135
  759MOL0     H 2441   0.984   6.039   8.803 -0.9677  2.1302 -1.4396
  759MOL0     H 2442   0.980   6.027   8.617  2.2486  0.9070  0.5287
  759MOL0     H 2443   0.866   5.814   8.804 -1.2019 -1.2610 -1.4435
  759MOL0     H 2444   0.845   5.836   8.628  0.3804  1.4707 -0.2765
  759MOL0     H 2445   0.750   6.065   8.670 -1.5061 -0.5195  0.9029
  759MOL0     H 2446   0.751   6.025   8.842 -0.3962 -0.0109  0.3389
  759MOL0     H 2447   1.627   6.241   8.448  0.6530 -1.1271 -1.2353
  759MOL0     H 2448   1.846   6.241   8.337  0.1569 -0.0244 -0.3317
  759MOL0     H 2449   2.438   6.403   8.551  1.1811 -0.5398 -0.3442
  759MOL0     H 2450   2.635   6.397   8.426  0.2336  0.7337 -1.7998
  759MOL0     H 2451   4.343   6.291   8.838  0.1088  3.4750 -1.2794
  759MOL0     H 2452   4.564   6.273   8.710 -1.0461  0.0485  1.0019
  759MOL0     H 2453   4.691   5.987   8.160 -0.0997 -0.5244  1.1926
  759MOL0     H 2454   4.884   5.998   8.016 -2.4437  0.1859 -0.1430
  759MOL0     H 2455   5.157   6.377   8.038  3.9315  1.4609 -0.4891
  759MOL0     H 2456   5.222   6.245   8.136 -0.6441 -0.0920  0.5870
  759MOL0     H 2457   5.257   6.308   7.843  0.8427  0.4577 -0.3539
  759MOL0     H 2458   5.307   6.151   7.919 -0.5603  0.0156 -1.0024
  759MOL0     H 2459   5.454   6.232   8.069  0.6254 -1.1180 -0.8686
  759MOL0     H 2460   5.404   6.399   8.046  1.2619  0.2725 -0.2054
  759MOL0     H 2461   5.503   6.389   7.804 -2.2769 -1.7345  0.2437
  759MOL0     H 2462   5.539   6.221   7.835 -0.8585  0.1736 -1.3378
  759MOL0     H 2463   5.879   6.365   8.000 -0.4229 -2.4775  1.4664
  759MOL0     H 2464   5.013   6.349   8.216  0.1137 -1.0634 -0.5393
  759MOL0     H 2465   4.819   6.357   8.351  3.9398 -0.1544 -0.5553
  760MOL0     O 2466   8.736   7.136   8.796  0.2830 -0.7661  0.7076
  760MOL0     C 2467   8.667   7.035   8.833  0.1953 -0.4658 -0.5521
  760MOL0     O 2468   8.720   6.944   8.918  0.4237  0.3798  0.5821
  760MOL0     C 2469   8.833   6.970   8.993 -0.6795  0.1922  0.1283
  760MOL0     C 2470   8.952   6.895   8.973  0.2336  0.7541  0.1524
  760MOL0     C 2471   9.075   6.943   9.030 -0.0164  0.3846 -0.2651
  760MOL0     C 2472   9.078   7.055   9.114  0.2386 -0.1724 -0.9590
  760MOL0     O 2473   9.192   7.100   9.172  0.1387 -0.0259  0.0564
  760MOL0     C 2474   9.326   7.055   9.134  0.1541  0.3938  0.6317
  760MOL0     C 2475   9.396   6.991   9.245 -0.1041  0.3366  0.1874
  760MOL0     C 2476   9.329   6.856   9.281  0.6077 -0.7154  0.0996
  760MOL0     C 2477   9.410   6.796   9.399 -1.1021 -0.2643 -0.3500
  760MOL0     C 2478   9.339   6.687   9.477 -0.6870  0.1430  0.3764
  760MOL0     C 2479   9.424   6.621   9.581 -0.5776  0.0854 -0.0667
  760MOL0     C 2480   9.521   6.507   9.538 -0.3236 -0.5100 -0.2000
  760MOL0     C 2481   9.628   6.461   9.642  0.7781  0.2163 -0.2549
  760MOL0     N 2482   9.568   6.414   9.774  0.3082 -0.2264  0.2645
  760MOL0     C 2483   9.491   6.307   9.778  0.1780 -0.1424 -0.6399
  760MOL0     C 2484   9.470   6.285   9.910  0.0852  0.5642  0.0358
  760MOL0     C 2485   9.384   6.180   9.958 -0.0230  0.9547  0.5264
  760MOL0     C 2486   9.234   6.216   9.961  0.1046 -0.1574  0.1770
  760MOL0     C 2487   9.151   6.104  10.013  0.7789  0.5819 -0.1286
  760MOL0     C 2488   9.007   6.116   9.962  0.7256  0.3720 -0.2367
  760MOL0     O 2489   8.950   6.228  10.026 -0.6171  0.4753 -0.0605
  760MOL0     C 2490   8.850   6.289   9.961 -0.1488 -0.0859  0.9169
  760MOL0     C 2491   8.827   6.416  10.000 -0.5784  0.1249  0.3606
  760MOL0     C 2492   8.718   6.484   9.944 -0.4918 -0.1210  0.2834
  760MOL0     C 2493   8.690   6.623   9.992  0.1236  0.1004  0.0367
  760MOL0     C 2494   8.636   6.420   9.846 -0.4529  1.3977 -0.0616
  760MOL0     C 2495   8.530   6.495   9.776 -0.8113 -0.1287 -0.6255
  760MOL0     O 2496   8.406   6.506   9.839 -0.5516 -0.0581  0.5147
  760MOL0     C 2497   8.321   6.598   9.797 -0.2436 -1.4306 -1.1201
  760MOL0     C 2498   8.281   6.689   9.900  0.1088 -0.4005 -0.3276
  760MOL0     C 2499   8.177   6.771   9.874 -0.0203 -0.1396  0.7130
  760MOL0     C 2500   8.124   6.788   9.741 -0.6223  0.4573  0.3022
  760MOL0     O 2501   8.017   6.865   9.702  0.2991 -0.1350 -0.2852
  760MOL0     C 2502   7.964   6.969   9.785  0.0588  0.0375 -0.0158
  760MOL0     C 2503   7.847   6.918   9.871  0.7492 -0.2269 -0.2435
  760MOL0     C 2504   7.750   7.032   9.913  0.8385 -0.3206  0.7389
  760MOL0     C 2505   7.819   7.166   9.947 -0.0255  0.2832  0.3185
  760MOL0     C 2506   7.740   7.270  10.031 -0.0807 -0.4464  0.2482
  760MOL0     C 2507   7.599   7.294   9.965 -0.3096  1.1605  0.1309
  760MOL0     C 2508   7.528   7.408  10.032  0.5604 -0.6919 -0.3206
  760MOL0     C 2509   7.400   7.424   9.952  0.2479 -0.0164 -0.7791
  760MOL0    Cl 2510   7.425   7.514   9.804  0.0169 -0.4682 -0.0105
  760MOL0     C 2511   8.169   6.704   9.644 -0.6314  0.5324 -0.4557
  760MOL0     C 2512   8.275   6.611   9.667  0.4842  0.4291 -0.4754
  760MOL0     O 2513   8.554   6.524   9.663 -0.4366  0.2081 -0.1371
  760MOL0     C 2514   8.666   6.291   9.811 -0.6596  1.4584 -0.0952
  760MOL0     C 2515   8.769   6.222   9.872 -0.2713  0.0172  0.0944
  760MOL0     N 2516   9.545   6.368   9.984  0.1219 -0.4291 -0.9390
  760MOL0     N 2517   9.612   6.447   9.905  0.0276  0.2975  0.4228
  760MOL0     C 2518   8.953   7.107   9.164  0.0638  0.5131  0.0404
  760MOL0     C 2519   8.831   7.068   9.097 -0.8031 -0.8683 -0.0422
  760MOL0     C 2520   8.525   7.023   8.795 -0.2477 -0.0881  0.2433
  760MOL0     C 2521   8.474   7.097   8.691  0.0501 -1.1556 -0.0540
  760MOL0     C 2522   8.342   7.066   8.645  0.9385 -0.0782 -0.4918
  760MOL0     C 2523   8.263   6.969   8.711  0.1799 -0.8291  0.6957
  760MOL0     O 2524   8.133   6.935   8.675  0.2950  0.0836  0.1396
  760MOL0     C 2525   8.051   7.031   8.607  1.1339 -0.0854  0.5215
  760MOL0     C 2526   7.905   7.026   8.655 -0.2480  0.5973 -0.2856
  760MOL0     C 2527   7.851   6.886   8.635  0.1398  0.9498 -0.5484
  760MOL0     C 2528   7.696   6.872   8.655 -0.0625 -0.6474 -0.7383
  760MOL0     C 2529   7.642   6.966   8.756 -0.5109 -0.1806  0.5555
  760MOL0     C 2530   7.608   7.045   8.841  0.3575  0.6044 -0.2129
  760MOL0     C 2531   8.314   6.901   8.820 -0.2743 -0.4670  1.1316
  760MOL0     C 2532   8.448   6.927   8.860  0.9729 -0.3434  0.6344
  760MOL0     H 2533   8.942   6.817   8.899 -0.4244  1.3025 -0.3498
  760MOL0     H 2534   9.165   6.894   8.996  3.4612  3.9786  2.8124
  760MOL0     H 2535   9.329   6.992   9.044  1.1354  0.8599  0.3246
  760MOL0     H 2536   9.380   7.148   9.115  2.2415 -0.5803  1.4448
  760MOL0     H 2537   9.500   6.979   9.215  0.6451  2.0304  1.9252
  760MOL0     H 2538   9.394   7.064   9.326  0.9037  1.1151 -0.4663
  760MOL0     H 2539   9.221   6.864   9.300  0.9132  0.1660  1.5437
  760MOL0     H 2540   9.331   6.781   9.201 -1.9209 -0.6608 -0.1245
  760MOL0     H 2541   9.500   6.749   9.360 -1.7722 -2.1781  0.3261
  760MOL0     H 2542   9.432   6.875   9.471  1.7377 -0.8078 -0.5252
  760MOL0     H 2543   9.246   6.725   9.521 -3.3769 -1.1402 -3.6724
  760MOL0     H 2544   9.307   6.610   9.406  2.3128 -0.9825  0.1090
  760MOL0     H 2545   9.484   6.700   9.627 -1.2406 -0.3807  1.6761
  760MOL0     H 2546   9.362   6.590   9.665 -1.9588  1.6044 -0.4603
  760MOL0     H 2547   9.459   6.421   9.511 -2.5652  0.3251  1.8758
  760MOL0     H 2548   9.573   6.548   9.452 -2.0339  0.5315 -0.7894
  760MOL0     H 2549   9.683   6.553   9.663 -1.6455  1.3537  1.7428
  760MOL0     H 2550   9.697   6.389   9.598  1.7077  1.1617 -0.3718
  760MOL0     H 2551   9.454   6.259   9.689  2.9900 -2.2139 -0.8492
  760MOL0     H 2552   9.405   6.096   9.891  0.2632 -0.2437  2.0502
  760MOL0     H 2553   9.417   6.158  10.060  0.2876  2.2375  0.7167
  760MOL0     H 2554   9.198   6.256   9.865  2.1277  0.6013 -0.3245
  760MOL0     H 2555   9.215   6.294  10.035 -0.2708 -0.6707  0.6231
  760MOL0     H 2556   9.163   6.104  10.122  1.7792  4.8045 -0.0841
  760MOL0     H 2557   9.198   6.012   9.977  2.4737  0.6660  1.6883
  760MOL0     H 2558   8.954   6.025   9.992  0.8485  1.5140  4.0505
  760MOL0     H 2559   9.017   6.118   9.853  0.6485  2.4399 -0.2455
  760MOL0     H 2560   8.897   6.459  10.071 -0.8235  1.0661  0.0569
  760MOL0     H 2561   8.724   6.627  10.096 -0.0176 -1.8516  0.1933
  760MOL0     H 2562   8.748   6.699   9.939  0.8654 -1.3626 -1.3478
  760MOL0     H 2563   8.584   6.651   9.998 -0.1605 -0.7619 -0.6445
  760MOL0     H 2564   8.341   6.675   9.990  0.5089 -0.8519 -0.6550
  760MOL0     H 2565   8.157   6.831   9.962  0.0431 -2.0139  2.0488
  760MOL0     H 2566   8.032   7.023   9.853 -0.9044  0.3202  0.7366
  760MOL0     H 2567   7.917   7.040   9.718 -1.8578  0.3190  1.5504
  760MOL0     H 2568   7.779   6.844   9.826 -2.1365  0.7538  2.1645
  760MOL0     H 2569   7.899   6.872   9.955 -0.0971 -2.1202 -0.6861
  760MOL0     H 2570   7.709   7.005  10.011  0.2342  0.2099  0.6367
  760MOL0     H 2571   7.658   7.039   9.855  0.5151 -0.9335  1.1625
  760MOL0     H 2572   7.904   7.143  10.012  0.9315  2.4024 -0.1255
  760MOL0     H 2573   7.859   7.206   9.853 -1.8692  0.8857 -0.2405
  760MOL0     H 2574   7.795   7.364  10.040 -1.2502  0.8279 -3.6681
  760MOL0     H 2575   7.724   7.233  10.132  0.5631 -2.5783 -0.3878
  760MOL0     H 2576   7.612   7.321   9.860 -1.3300  1.1203 -0.0108
  760MOL0     H 2577   7.551   7.197   9.981  2.8303 -0.0164  4.3280
  760MOL0     H 2578   7.601   7.489  10.037  1.4509 -1.5083  0.6120
  760MOL0     H 2579   7.507   7.377  10.135  0.2621 -0.8975 -0.4414
  760MOL0     H 2580   7.321   7.459  10.020  0.6930  1.2361 -0.8705
  760MOL0     H 2581   7.363   7.327   9.920 -1.6450  0.8336 -1.3229
  760MOL0     H 2582   8.144   6.707   9.538  3.7770 -2.1379 -1.8264
  760MOL0     H 2583   8.316   6.547   9.589 -1.0444 -0.1669 -0.8315
  760MOL0     H 2584   8.607   6.235   9.738  0.4000  0.3404 -0.1202
  760MOL0     H 2585   8.780   6.117   9.846  2.8157  0.3452 -0.3468
  760MOL0     H 2586   8.952   7.186   9.238 -1.3399 -0.3960  1.0360
  760MOL0     H 2587   8.736   7.116   9.119 -0.8493 -0.0491 -1.8436
  760MOL0     H 2588   8.531   7.182   8.656  1.0769 -0.6912  2.5563
  760MOL0     H 2589   8.310   7.125   8.559  0.7177  1.4191  0.5813
  760MOL0     H 2590   8.086   7.135   8.613 -1.0529  0.8915 -1.8035
  760MOL0     H 2591   8.052   7.017   8.498 -1.0932  1.9088  0.1505
  760MOL0     H 2592   7.843   7.104   8.608 -0.1374 -0.1408 -1.7278
  760MOL0     H 2593   7.895   7.046   8.762 -1.5786  3.0672 -0.7985
  760MOL0     H 2594   7.897   6.818   8.707 -1.0240  0.9282  0.1941
  760MOL0     H 2595   7.886   6.852   8.537  1.8003  0.4065  0.1918
  760MOL0     H 2596   7.669   6.772   8.690 -5.1464  0.6887  0.0289
  760MOL0     H 2597   7.648   6.879   8.557 -1.0024 -1.6922 -0.3663
  760MOL0     H 2598   7.586   7.119   8.916 -0.2760 -0.6224  0.8610
  760MOL0     H 2599   8.253   6.826   8.868  1.7101 -2.1639  1.1436
  760MOL0     H 2600   8.489   6.875   8.946 -0.1533  0.4623  1.6887
  761MOL0     O 2601   7.719   3.773   4.906 -0.5100 -0.6815 -0.6924
  761MOL0     C 2602   7.765   3.848   4.995 -0.1205  0.2623 -0.3632
  761MOL0     O 2603   7.707   3.962   5.050 -0.6151 -0.1285  0.5563
  761MOL0     C 2604   7.592   4.001   4.989  0.0949 -0.1584 -0.3011
  761MOL0     C 2605   7.613   4.091   4.883 -0.9256 -0.2503 -0.6812
  761MOL0     C 2606   7.504   4.135   4.816 -1.0869  0.2007  0.8122
  761MOL0     C 2607   7.374   4.099   4.862 -0.5031  0.1473 -1.1765
  761MOL0     O 2608   7.252   4.160   4.815  0.1213  0.5538  0.1858
  761MOL0     C 2609   7.259   4.210   4.680  0.0475  0.1484 -0.0133
  761MOL0     C 2610   7.123   4.186   4.608 -0.4851 -0.5426  0.6469
  761MOL0     C 2611   7.108   4.299   4.500  0.1285 -0.5278 -0.7178
  761MOL0     C 2612   6.982   4.282   4.417  0.7839 -0.3128 -0.2648
  761MOL0     C 2613   6.970   4.369   4.294 -0.3522 -0.2208  0.3714
  761MOL0     C 2614   6.931   4.510   4.336 -0.4737  0.2063 -0.3626
  761MOL0     C 2615   6.892   4.613   4.225 -0.4298  0.7884 -0.7558
  761MOL0     C 2616   6.766   4.567   4.158 -0.6544 -0.4418  0.2037
  761MOL0     N 2617   6.641   4.586   4.233 -0.4487 -0.5460 -0.4083
  761MOL0     C 2618   6.535   4.492   4.239 -0.4068  0.2369  0.0422
  761MOL0     C 2619   6.463   4.544   4.342 -0.1018  0.1272 -0.1881
  761MOL0     C 2620   6.346   4.485   4.404 -0.5530 -0.0373 -0.2556
  761MOL0     C 2621   6.361   4.468   4.556 -0.2541  0.2683  0.0916
  761MOL0     C 2622   6.233   4.411   4.613 -0.2141 -0.1305  0.0264
  761MOL0     C 2623   6.110   4.507   4.615 -0.8701 -0.2289 -0.9283
  761MOL0     O 2624   6.023   4.441   4.709  0.0084 -0.6639 -0.5944
  761MOL0     C 2625   5.922   4.523   4.755 -0.6251 -0.1747 -0.5293
  761MOL0     C 2626   5.913   4.541   4.891 -0.2331 -0.5249  0.0607
  761MOL0     C 2627   5.813   4.614   4.956 -0.2057 -0.7882 -0.2950
  761MOL0     C 2628   5.825   4.635   5.102  0.3794  0.5044 -0.4499
  761MOL0     C 2629   5.710   4.666   4.877 -0.9075 -0.3715 -0.3781
  761MOL0     C 2630   5.597   4.746   4.938  0.7711 -0.2129  0.0611
  761MOL0     O 2631   5.507   4.793   4.848  0.1304  0.1784  0.0880
  761MOL0     C 2632   5.391   4.845   4.903  0.0417  0.2821  0.1482
  761MOL0     C 2633   5.371   4.956   4.976 -1.0479  0.9948  0.2586
  761MOL0     C 2634   5.247   4.996   5.020  0.5861  0.1117 -0.4384
  761MOL0     C 2635   5.135   4.909   5.004 -0.5102 -0.1029  0.4984
  761MOL0     O 2636   5.014   4.961   5.042 -0.1713  0.1834 -0.2549
  761MOL0     C 2637   4.906   4.871   5.069 -0.0639  0.1638  0.6798
  761MOL0     C 2638   4.792   4.887   4.959 -0.5364 -0.0341 -0.5947
  761MOL0     C 2639   4.677   4.799   4.977  0.4224  0.2112 -0.3770
  761MOL0     C 2640   4.577   4.826   4.875  0.9547 -0.0380  0.5140
  761MOL0     C 2641   4.449   4.740   4.897 -0.3727  0.1647 -0.0394
  761MOL0     C 2642   4.360   4.737   4.771 -0.2604  0.1933  0.2488
  761MOL0     C 2643   4.233   4.654   4.785 -0.1119  0.7451  0.0375
  761MOL0     C 2644   4.128   4.696   4.680 -0.6680  0.3126 -0.2327
  761MOL0    Cl 2645   4.000   4.568   4.683 -0.4190  0.6815 -0.2733
  761MOL0     C 2646   5.155   4.791   4.928  0.0356  0.2658 -0.5138
  761MOL0     C 2647   5.282   4.760   4.878  0.5783 -0.7599 -0.3853
  761MOL0     O 2648   5.588   4.754   5.060  0.3204  0.3763  0.0486
  761MOL0     C 2649   5.716   4.648   4.735 -0.0811  0.6579 -0.2071
  761MOL0     C 2650   5.826   4.570   4.675  0.5056 -0.3428  0.0136
  761MOL0     N 2651   6.496   4.674   4.366 -0.2160  0.4031 -0.2741
  761MOL0     N 2652   6.596   4.704   4.295 -0.3432  0.2148  0.0911
  761MOL0     C 2653   7.355   4.000   4.964  0.3099  0.0687 -0.1161
  761MOL0     C 2654   7.469   3.953   5.036 -0.5508 -0.2355  0.0103
  761MOL0     C 2655   7.881   3.797   5.071 -0.6014 -0.1362  1.4782
  761MOL0     C 2656   7.949   3.681   5.039 -0.9729  0.1232  0.6628
  761MOL0     C 2657   8.067   3.637   5.110  0.0361  0.4735  0.1706
  761MOL0     C 2658   8.119   3.712   5.209 -0.4353  0.2830  0.6806
  761MOL0     O 2659   8.230   3.663   5.272  0.0136 -0.6174 -0.1685
  761MOL0     C 2660   8.290   3.745   5.366 -0.2747  0.8736 -0.2893
  761MOL0     C 2661   8.439   3.713   5.381 -0.6683 -0.9514 -0.7778
  761MOL0     C 2662   8.503   3.785   5.504 -0.7268  0.2998  0.5090
  761MOL0     C 2663   8.426   3.741   5.632 -0.3779 -0.8905 -0.2958
  761MOL0     C 2664   8.507   3.742   5.746 -0.1499 -0.3180 -0.4613
  761MOL0     C 2665   8.576   3.733   5.846 -0.1063  0.3876  0.4825
  761MOL0     C 2666   8.041   3.824   5.238 -0.5056 -0.0338  0.8349
  761MOL0     C 2667   7.929   3.864   5.178  0.4912 -0.0046  0.1099
  761MOL0     H 2668   7.707   4.136   4.851 -0.6369  0.8794  1.5604
  761MOL0     H 2669   7.511   4.201   4.730  0.3870  0.9505  1.4879
  761MOL0     H 2670   7.271   4.319   4.678 -1.0015  0.2560 -1.6468
  761MOL0     H 2671   7.335   4.163   4.618 -1.8889 -1.7818 -1.0795
  761MOL0     H 2672   7.108   4.085   4.569 -1.8231  0.3180 -1.2409
  761MOL0     H 2673   7.045   4.202   4.684 -1.9018  2.0383 -1.1984
  761MOL0     H 2674   7.100   4.393   4.555  1.8654  1.5464 -3.7129
  761MOL0     H 2675   7.198   4.311   4.438  1.0377  1.3195  0.8364
  761MOL0     H 2676   6.957   4.179   4.390 -1.7460 -0.0024  0.5796
  761MOL0     H 2677   6.903   4.303   4.489  0.2115 -1.1316 -0.6280
  761MOL0     H 2678   7.062   4.362   4.234  0.4461 -1.8980  1.6783
  761MOL0     H 2679   6.887   4.330   4.235 -0.1109  0.4394 -0.4122
  761MOL0     H 2680   6.848   4.521   4.406 -0.7364  2.0797 -0.8968
  761MOL0     H 2681   7.014   4.551   4.395 -0.0643 -0.1351 -0.6903
  761MOL0     H 2682   6.874   4.710   4.271  0.3627 -0.7655  3.2034
  761MOL0     H 2683   6.973   4.625   4.152 -0.7768 -0.2883 -1.3445
  761MOL0     H 2684   6.774   4.464   4.122  0.0294 -0.4198  0.2824
  761MOL0     H 2685   6.753   4.634   4.072  1.2153 -1.2476 -0.7446
  761MOL0     H 2686   6.527   4.395   4.193  0.0725 -0.3732  1.1949
  761MOL0     H 2687   6.266   4.552   4.370 -1.2967 -2.0553 -2.8792
  761MOL0     H 2688   6.329   4.388   4.358 -0.0929 -1.5136  2.4856
  761MOL0     H 2689   6.380   4.565   4.604 -3.5003  1.0983 -0.1126
  761MOL0     H 2690   6.440   4.397   4.583  1.8078  3.0021  1.7601
  761MOL0     H 2691   6.246   4.385   4.719  0.3826  0.8289  0.2022
  761MOL0     H 2692   6.200   4.321   4.560  0.7500 -0.6164  0.2105
  761MOL0     H 2693   6.068   4.513   4.514  0.1121  1.3968 -1.2731
  761MOL0     H 2694   6.159   4.600   4.643  1.3743 -1.0075 -2.0171
  761MOL0     H 2695   5.995   4.513   4.956 -0.2051 -1.5272 -0.3780
  761MOL0     H 2696   5.744   4.579   5.149  0.5096  0.1758 -0.6135
  761MOL0     H 2697   5.922   4.600   5.139 -0.6933 -1.0810  1.0399
  761MOL0     H 2698   5.822   4.740   5.130 -0.2473 -0.0092  1.5556
  761MOL0     H 2699   5.457   5.014   5.005 -0.0922 -0.2264 -0.0351
  761MOL0     H 2700   5.238   5.091   5.072  3.2214  0.2467 -0.0684
  761MOL0     H 2701   4.936   4.766   5.078 -0.6002 -0.1192 -0.5920
  761MOL0     H 2702   4.856   4.900   5.162 -0.5510  3.0094 -0.3676
  761MOL0     H 2703   4.748   4.987   4.969 -0.2687 -0.1639  4.3740
  761MOL0     H 2704   4.846   4.869   4.866  3.0137  0.8576  1.1124
  761MOL0     H 2705   4.634   4.821   5.075  1.7282  5.9435 -0.7644
  761MOL0     H 2706   4.713   4.696   4.971  2.7043  0.8738  0.7637
  761MOL0     H 2707   4.542   4.929   4.877  0.5968 -0.1430 -0.0282
  761MOL0     H 2708   4.619   4.804   4.777 -0.6296 -0.1272 -0.1737
  761MOL0     H 2709   4.398   4.773   4.988  2.0838 -2.4225  2.4879
  761MOL0     H 2710   4.475   4.636   4.917  2.8822  1.3061  2.6834
  761MOL0     H 2711   4.328   4.840   4.753 -1.5067 -0.0829  0.7044
  761MOL0     H 2712   4.415   4.701   4.684 -3.3038 -0.2788 -1.6121
  761MOL0     H 2713   4.192   4.648   4.886  2.6098  0.2446  1.1949
  761MOL0     H 2714   4.250   4.550   4.757 -0.8094  0.9044 -1.0514
  761MOL0     H 2715   4.168   4.697   4.578 -1.9085 -0.5793 -0.7501
  761MOL0     H 2716   4.097   4.796   4.713 -0.5144 -1.0011  4.5292
  761MOL0     H 2717   5.078   4.717   4.910  0.7526 -0.9460  1.1858
  761MOL0     H 2718   5.300   4.665   4.829  0.8662  0.0230 -1.8479
  761MOL0     H 2719   5.632   4.674   4.670 -0.1462 -1.8384 -1.2363
  761MOL0     H 2720   5.827   4.559   4.567  0.3139 -3.4194  0.2513
  761MOL0     H 2721   7.251   3.982   4.986  0.6999 -0.5349  1.3913
  761MOL0     H 2722   7.475   3.880   5.116 -0.4320 -3.1621 -2.4930
  761MOL0     H 2723   7.919   3.616   4.957  1.6211 -3.1335  2.0554
  761MOL0     H 2724   8.122   3.548   5.082  2.7084  2.1304 -0.1094
  761MOL0     H 2725   8.280   3.850   5.339  0.7655  0.9488 -0.4246
  761MOL0     H 2726   8.232   3.731   5.458  0.7592 -1.3198  0.1030
  761MOL0     H 2727   8.500   3.733   5.292  0.2733  3.5660  0.5768
  761MOL0     H 2728   8.454   3.607   5.403  0.6583 -0.4064  1.2595
  761MOL0     H 2729   8.496   3.894   5.501 -2.0174  0.2229 -0.3277
  761MOL0     H 2730   8.610   3.765   5.508 -0.6117  0.7691 -0.1704
  761MOL0     H 2731   8.372   3.646   5.624 -1.4931 -0.4194  1.2902
  761MOL0     H 2732   8.348   3.816   5.641  1.1675  1.1549 -2.6644
  761MOL0     H 2733   8.651   3.716   5.921 -0.6046 -3.3108  0.3366
  761MOL0     H 2734   8.070   3.905   5.304 -1.2170  0.6437  0.3395
  761MOL0     H 2735   7.888   3.963   5.196  0.3894 -0.1433  0.6587
  762MOL0     O 2736   7.648   0.908   6.891  0.3188 -0.7856 -0.0086
  762MOL0     C 2737   7.687   0.959   6.788  0.1823 -0.9343 -0.1746
  762MOL0     O 2738   7.599   1.016   6.695  0.1893 -0.1005 -0.3853
  762MOL0     C 2739   7.465   1.019   6.728 -0.3248  0.1441  0.0264
  762MOL0     C 2740   7.414   1.062   6.852  0.1515 -0.5012  0.6525
  762MOL0     C 2741   7.275   1.058   6.874  0.6552  0.4781 -0.1957
  762MOL0     C 2742   7.191   1.006   6.784  0.2792  0.3485 -0.2437
  762MOL0     O 2743   7.065   1.016   6.831 -0.1543 -0.0249  0.1953
  762MOL0     C 2744   6.951   0.993   6.745  0.4252  0.6175 -0.3618
  762MOL0     C 2745   6.925   1.117   6.672  0.3396  0.0188 -0.1771
  762MOL0     C 2746   6.807   1.111   6.581  0.4015 -0.0571  1.0927
  762MOL0     C 2747   6.816   1.206   6.455  0.0232  0.3268 -0.4747
  762MOL0     C 2748   6.676   1.220   6.388  0.0779  0.2003  0.3408
  762MOL0     C 2749   6.672   1.313   6.266 -0.3676  0.5292 -0.1785
  762MOL0     C 2750   6.526   1.356   6.241  0.5167  0.1278  0.1262
  762MOL0     C 2751   6.506   1.404   6.094  0.4992  0.6204  0.3373
  762MOL0     N 2752   6.375   1.454   6.061 -0.1458 -0.3175 -1.2685
  762MOL0     C 2753   6.312   1.566   6.108  0.0611  0.6558 -0.4647
  762MOL0     C 2754   6.181   1.554   6.063 -0.4232 -0.7214  0.2545
  762MOL0     C 2755   6.058   1.659   6.072 -0.6931  0.9130  0.4041
  762MOL0     C 2756   5.942   1.612   5.985 -0.5927 -0.8119  0.5348
  762MOL0     C 2757   5.948   1.663   5.836 -0.8303 -0.7528 -0.1058
  762MOL0     C 2758   5.829   1.615   5.750  0.3353 -0.1446  0.2250
  762MOL0     O 2759   5.703   1.673   5.795 -0.3210  0.0468  0.0155
  762MOL0     C 2760   5.589   1.609   5.755  0.4378 -0.3087 -0.5947
  762MOL0     C 2761   5.579   1.506   5.657  0.3663 -0.0488 -0.7051
  762MOL0     C 2762   5.449   1.452   5.627 -0.1150  0.5188  0.0954
  762MOL0     C 2763   5.456   1.347   5.523  0.0863  0.3492  0.5228
  762MOL0     C 2764   5.333   1.500   5.689  0.2516  0.4283  0.5314
  762MOL0     C 2765   5.202   1.435   5.666  0.7766  0.5342  0.0613
  762MOL0     O 2766   5.164   1.416   5.543  0.5907  0.2510  0.5037
  762MOL0     C 2767   5.063   1.321   5.516  0.5621  0.2336 -0.2845
  762MOL0     C 2768   5.014   1.215   5.590  0.1645  0.4709 -0.2847
  762MOL0     C 2769   4.899   1.140   5.554  0.3059 -0.1665 -0.0112
  762MOL0     C 2770   4.839   1.158   5.425  0.0884  0.7130 -0.4846
  762MOL0     O 2771   4.734   1.094   5.382 -0.1558  0.2865  0.4795
  762MOL0     C 2772   4.639   1.033   5.475 -0.0071  0.6746  0.1387
  762MOL0     C 2773   4.497   1.013   5.422  0.1267 -0.0753  0.6797
  762MOL0     C 2774   4.494   0.958   5.286  0.3158  0.2593 -0.2895
  762MOL0     C 2775   4.358   0.967   5.209 -0.0402  0.0489 -0.9229
  762MOL0     C 2776   4.248   0.879   5.257  0.6988 -0.0725 -0.5380
  762MOL0     C 2777   4.130   0.874   5.146 -0.4485  0.2982 -0.2498
  762MOL0     C 2778   4.038   0.754   5.178  0.4485  0.1290 -0.4887
  762MOL0     C 2779   3.921   0.757   5.080 -0.1132  1.0767  0.4393
  762MOL0    Cl 2780   3.819   0.607   5.086  0.2250  0.1829  0.2775
  762MOL0     C 2781   4.891   1.257   5.343  0.1720  0.0881  0.4302
  762MOL0     C 2782   4.999   1.341   5.395  1.0576 -0.0779 -0.9711
  762MOL0     O 2783   5.135   1.417   5.768 -0.0793  0.0023 -0.0197
  762MOL0     C 2784   5.343   1.601   5.788 -0.5377  0.2974  0.0589
  762MOL0     C 2785   5.469   1.655   5.818  0.1561 -0.1156  0.2770
  762MOL0     N 2786   6.172   1.445   5.979 -0.1268 -0.0791 -0.2666
  762MOL0     N 2787   6.286   1.384   5.984 -0.4923  0.3690 -0.7229
  762MOL0     C 2788   7.238   0.964   6.660  0.1960 -0.4619  0.0629
  762MOL0     C 2789   7.371   0.966   6.635 -0.7222 -0.5238  0.0049
  762MOL0     C 2790   7.821   0.929   6.749 -0.4923  0.3084  0.2888
  762MOL0     C 2791   7.915   0.864   6.831  0.4324  0.1233 -0.7769
  762MOL0     C 2792   8.036   0.816   6.789 -0.4740  0.4873  0.3077
  762MOL0     C 2793   8.077   0.852   6.655  0.4589 -0.5954 -0.0617
  762MOL0     O 2794   8.204   0.819   6.614  0.1868 -0.4177  0.0698
  762MOL0     C 2795   8.281   0.937   6.580 -0.0452  0.8706  0.6412
  762MOL0     C 2796   8.417   0.902   6.528  0.2717  0.2327  0.3044
  762MOL0     C 2797   8.499   1.021   6.491  0.4862 -0.1702  0.3936
  762MOL0     C 2798   8.636   0.995   6.428  0.6570  0.2544  0.6784
  762MOL0     C 2799   8.750   1.050   6.503  0.3575  0.6763  0.4393
  762MOL0     C 2800   8.839   1.111   6.559  0.1503  0.6917  0.3736
  762MOL0     C 2801   7.989   0.923   6.571  0.3843 -0.1058 -0.1051
  762MOL0     C 2802   7.857   0.952   6.609  0.1795  0.1539 -0.2422
  762MOL0     H 2803   7.482   1.109   6.922  0.9834  0.9057 -1.0054
  762MOL0     H 2804   7.240   1.098   6.968  0.9502 -0.2690  0.2397
  762MOL0     H 2805   6.975   0.909   6.679  1.0247  1.3233 -1.0731
  762MOL0     H 2806   6.864   0.965   6.805 -0.9880  2.7150 -1.3086
  762MOL0     H 2807   6.906   1.196   6.746 -0.2137  0.4136 -0.7195
  762MOL0     H 2808   7.012   1.134   6.608 -0.0023  1.5896 -0.2852
  762MOL0     H 2809   6.801   1.012   6.536  1.3617 -0.1448  1.1486
  762MOL0     H 2810   6.715   1.126   6.640 -1.4104  0.2013 -1.6188
  762MOL0     H 2811   6.844   1.306   6.489 -0.9035 -0.7197  4.1168
  762MOL0     H 2812   6.888   1.163   6.385 -0.0491 -3.4371  1.4788
  762MOL0     H 2813   6.642   1.118   6.367  0.0475 -0.2100  2.2605
  762MOL0     H 2814   6.615   1.263   6.468  4.5009  1.3037  3.4871
  762MOL0     H 2815   6.737   1.400   6.282  0.0749 -0.1878  2.3372
  762MOL0     H 2816   6.707   1.257   6.179 -0.0916 -2.1610  1.5393
  762MOL0     H 2817   6.457   1.276   6.268  1.0496 -0.7086 -0.9140
  762MOL0     H 2818   6.509   1.450   6.293 -0.1382  0.4918 -0.7348
  762MOL0     H 2819   6.530   1.318   6.032 -2.0877  0.0880 -0.0396
  762MOL0     H 2820   6.574   1.486   6.070  0.3369  0.1643 -1.8187
  762MOL0     H 2821   6.351   1.641   6.176 -0.5768 -0.1984  0.8900
  762MOL0     H 2822   6.023   1.669   6.175 -1.1533  1.1351  0.2288
  762MOL0     H 2823   6.090   1.760   6.044 -1.0293 -0.0025 -3.8919
  762MOL0     H 2824   5.850   1.649   6.030 -0.8812  0.8249 -1.2211
  762MOL0     H 2825   5.940   1.503   5.982  0.1027 -0.8219  0.1851
  762MOL0     H 2826   6.037   1.608   5.805 -0.6817 -1.3045  1.2028
  762MOL0     H 2827   5.964   1.771   5.836 -1.4935 -0.6193  1.4285
  762MOL0     H 2828   5.817   1.507   5.759  0.4460 -0.4115 -2.0994
  762MOL0     H 2829   5.857   1.632   5.645  1.1427  1.4464  0.6604
  762MOL0     H 2830   5.668   1.466   5.608  1.3628 -2.1203  2.5240
  762MOL0     H 2831   5.462   1.394   5.424 -4.9889 -0.8550 -0.6886
  762MOL0     H 2832   5.542   1.282   5.539 -0.3415 -1.1437 -2.4446
  762MOL0     H 2833   5.365   1.286   5.519 -1.5612  2.7134 -0.1554
  762MOL0     H 2834   5.047   1.192   5.691 -2.7748  2.3727  1.2294
  762MOL0     H 2835   4.869   1.063   5.624  1.4878  2.2412  3.4248
  762MOL0     H 2836   4.670   0.939   5.521 -0.0723  0.1941 -0.7733
  762MOL0     H 2837   4.626   1.104   5.557 -0.3019  1.9686 -0.9854
  762MOL0     H 2838   4.453   0.943   5.494 -0.7079  0.4614  0.7098
  762MOL0     H 2839   4.448   1.110   5.435 -3.3378 -1.3485 -1.4791
  762MOL0     H 2840   4.522   0.854   5.302 -1.8639 -0.2984  0.3658
  762MOL0     H 2841   4.576   1.003   5.230 -0.0750  3.0881  1.2109
  762MOL0     H 2842   4.322   1.071   5.208  0.2463  0.2230  1.4399
  762MOL0     H 2843   4.371   0.941   5.103  0.1315 -0.2560 -0.8257
  762MOL0     H 2844   4.206   0.910   5.353 -0.0415 -2.2505 -0.1065
  762MOL0     H 2845   4.297   0.782   5.271  0.6770 -0.2933 -1.8525
  762MOL0     H 2846   4.068   0.965   5.146 -1.1086 -0.1466 -0.9251
  762MOL0     H 2847   4.169   0.871   5.044 -0.3907  1.3537 -0.2764
  762MOL0     H 2848   4.004   0.758   5.281 -0.7704 -1.8164 -0.7693
  762MOL0     H 2849   4.085   0.657   5.160 -0.4880 -0.2112 -1.2138
  762MOL0     H 2850   3.965   0.761   4.980 -0.3957  0.2611  0.2703
  762MOL0     H 2851   3.856   0.845   5.082 -1.0018  0.4830 -0.9338
  762MOL0     H 2852   4.844   1.257   5.245  2.0031  0.7418 -0.5037
  762MOL0     H 2853   5.039   1.412   5.323 -2.5618 -0.2598 -3.3979
  762MOL0     H 2854   5.254   1.646   5.831  0.9907  1.2694  2.3830
  762MOL0     H 2855   5.479   1.735   5.890  0.6660  1.1876 -1.2061
  762MOL0     H 2856   7.170   0.944   6.578 -0.7361  2.4350 -0.0009
  762MOL0     H 2857   7.415   0.936   6.541  1.6394  0.5973  0.6714
  762MOL0     H 2858   7.880   0.841   6.931 -0.2477 -2.5252 -1.5209
  762MOL0     H 2859   8.105   0.764   6.854  2.6331  2.7709 -0.9277
  762MOL0     H 2860   8.232   1.009   6.513 -0.2966 -1.3554 -1.7553
  762MOL0     H 2861   8.291   0.989   6.675 -3.3572  2.0957  0.4489
  762MOL0     H 2862   8.402   0.832   6.445  0.8361  1.0445 -0.5071
  762MOL0     H 2863   8.473   0.853   6.608  0.8128  1.3059  0.6094
  762MOL0     H 2864   8.510   1.085   6.579  1.7970 -2.4193  2.0062
  762MOL0     H 2865   8.448   1.076   6.412  2.0860  0.9368  0.0736
  762MOL0     H 2866   8.648   1.048   6.333  1.6258 -0.1030  0.5889
  762MOL0     H 2867   8.645   0.887   6.410 -3.2344 -0.2121  0.8470
  762MOL0     H 2868   8.896   1.177   6.622  0.5132  1.1803 -0.4436
  762MOL0     H 2869   8.009   0.945   6.467  0.3103 -1.6743 -0.4845
  762MOL0     H 2870   7.790   0.987   6.531 -0.0772 -1.8270 -0.9790
  763MOL0     O 2871   3.629   4.864   9.036 -1.2220  0.5418 -0.6249
  763MOL0     C 2872   3.641   4.744   9.025 -0.3317  0.1729  0.1919
  763MOL0     O 2873   3.539   4.652   9.028 -0.1187 -0.3148 -0.1227
  763MOL0     C 2874   3.417   4.706   9.033  0.7405  0.0320  0.1216
  763MOL0     C 2875   3.328   4.675   8.929  0.7283 -0.3525 -0.2846
  763MOL0     C 2876   3.195   4.699   8.937 -0.3066 -0.3477  0.2698
  763MOL0     C 2877   3.149   4.769   9.051 -0.4479 -0.0900 -0.4494
  763MOL0     O 2878   3.014   4.770   9.055  0.5692 -0.3935  0.1440
  763MOL0     C 2879   2.948   4.820   9.173 -0.3236 -0.0447 -0.7503
  763MOL0     C 2880   2.802   4.800   9.164  0.1754 -0.2129  0.4952
  763MOL0     C 2881   2.731   4.818   9.301 -0.3083 -0.8052  0.6451
  763MOL0     C 2882   2.576   4.827   9.284  0.2460 -0.4154  0.4646
  763MOL0     C 2883   2.494   4.821   9.404  0.7551 -0.3340 -0.3891
  763MOL0     C 2884   2.350   4.844   9.376  0.4020  0.4404 -0.2200
  763MOL0     C 2885   2.256   4.820   9.497 -1.5745 -0.8630  0.1933
  763MOL0     C 2886   2.113   4.830   9.461  1.0043 -0.0242  0.4861
  763MOL0     N 2887   2.029   4.771   9.566  0.3837  0.1164 -0.3871
  763MOL0     C 2888   2.040   4.655   9.632 -0.1517 -0.1083 -0.4378
  763MOL0     C 2889   1.936   4.652   9.717  0.0124  0.0275  0.9696
  763MOL0     C 2890   1.897   4.526   9.788 -0.2127  0.1389 -0.7439
  763MOL0     C 2891   1.767   4.460   9.741 -0.0465 -0.4563  0.7747
  763MOL0     C 2892   1.651   4.556   9.782 -0.3206  0.2862 -0.4990
  763MOL0     C 2893   1.518   4.508   9.750 -0.1587  0.7403 -0.1560
  763MOL0     O 2894   1.482   4.388   9.832  0.8166 -0.5543  0.4897
  763MOL0     C 2895   1.347   4.355   9.835 -0.7839 -0.0333  0.8589
  763MOL0     C 2896   1.302   4.259   9.926 -0.5469 -0.0699  0.5185
  763MOL0     C 2897   1.174   4.230   9.944 -0.0805 -0.8350  0.6380
  763MOL0     C 2898   1.138   4.126  10.046  0.6863 -0.6594 -1.1506
  763MOL0     C 2899   1.072   4.301   9.870  0.6174  0.6936 -0.1388
  763MOL0     C 2900   0.924   4.274   9.887 -0.1961 -0.3237 -0.4516
  763MOL0     O 2901   0.828   4.308   9.791  0.2280 -0.2230 -0.3768
  763MOL0     C 2902   0.705   4.254   9.798 -0.5337  0.5886 -0.2480
  763MOL0     C 2903   0.649   4.174   9.694 -0.8430 -0.0018 -0.2129
  763MOL0     C 2904   0.519   4.120   9.706  0.4036  0.0299 -0.2325
  763MOL0     C 2905   0.444   4.143   9.819  0.0202 -0.4238 -1.0964
  763MOL0     O 2906   0.326   4.088   9.839  0.3223 -0.5674 -0.0110
  763MOL0     C 2907   0.226   4.161   9.772  0.3229 -0.2660  0.7463
  763MOL0     C 2908   0.083   4.101   9.798 -0.4497 -0.0130  0.5129
  763MOL0     C 2909  -0.019   4.187   9.715 -0.3512  0.0783  0.3895
  763MOL0     C 2910  -0.162   4.133   9.717  0.4764 -0.0655 -0.6373
  763MOL0     C 2911  -0.268   4.237   9.696 -0.2771 -0.6059  0.2260
  763MOL0     C 2912  -0.400   4.167   9.683  0.6522  0.0229  0.0979
  763MOL0     C 2913  -0.512   4.258   9.624 -0.2144  0.5985  0.1952
  763MOL0     C 2914  -0.565   4.378   9.711  0.4038  0.1715  0.9665
  763MOL0    Cl 2915  -0.642   4.314   9.866 -0.4025  0.5498 -0.1114
  763MOL0     C 2916   0.495   4.222   9.919 -0.5710 -0.3920 -0.0143
  763MOL0     C 2917   0.622   4.289   9.905  0.6847 -0.2726 -0.0865
  763MOL0     O 2918   0.895   4.245  10.004  0.1377 -0.2395  0.3462
  763MOL0     C 2919   1.114   4.400   9.781 -0.2068  0.6590  0.5006
  763MOL0     C 2920   1.250   4.418   9.755 -0.1025  0.8671 -0.9493
  763MOL0     N 2921   1.870   4.774   9.706  0.9005 -0.3979  0.3722
  763MOL0     N 2922   1.919   4.833   9.605 -0.1264 -0.4135 -0.1762
  763MOL0     C 2923   3.239   4.818   9.144 -0.3773  0.1933  0.0435
  763MOL0     C 2924   3.375   4.788   9.137 -0.4823 -0.7447  0.1949
  763MOL0     C 2925   3.780   4.685   9.025  0.4112 -1.1876 -0.1938
  763MOL0     C 2926   3.795   4.553   8.978  0.0378  0.6956  0.3090
  763MOL0     C 2927   3.928   4.502   8.964  0.0269  0.7156  0.9463
  763MOL0     C 2928   4.043   4.579   8.978 -0.2236 -0.3195 -0.4611
  763MOL0     O 2929   4.170   4.541   8.949 -0.3028  0.2169  0.5674
  763MOL0     C 2930   4.204   4.404   8.918 -1.4914  0.3358 -0.6484
  763MOL0     C 2931   4.353   4.406   8.942 -0.0756 -0.4524  0.1060
  763MOL0     C 2932   4.414   4.270   8.929  1.0639 -0.4409  0.0061
  763MOL0     C 2933   4.548   4.260   9.008  0.2128  0.1915 -0.6027
  763MOL0     C 2934   4.672   4.263   8.924  0.7901 -0.7028 -0.0628
  763MOL0     C 2935   4.775   4.240   8.868 -0.1142  0.3124 -0.9080
  763MOL0     C 2936   4.023   4.712   9.025  0.8082 -0.1417 -0.4046
  763MOL0     C 2937   3.892   4.769   9.037 -0.2084  0.1601 -0.4222
  763MOL0     H 2938   3.360   4.615   8.844  1.1573 -2.2940  1.1693
  763MOL0     H 2939   3.120   4.653   8.873 -2.1911 -0.5325  2.4617
  763MOL0     H 2940   2.981   4.765   9.261 -0.0805 -1.0358 -1.4429
  763MOL0     H 2941   2.974   4.924   9.193  1.9004 -1.0120  1.9652
  763MOL0     H 2942   2.753   4.877   9.104  0.5202 -0.7531 -0.4933
  763MOL0     H 2943   2.789   4.704   9.112  1.0055 -0.6212  1.0039
  763MOL0     H 2944   2.741   4.734   9.371 -2.4585 -2.2254 -0.6498
  763MOL0     H 2945   2.762   4.905   9.360 -0.0611 -0.5360  0.1262
  763MOL0     H 2946   2.543   4.918   9.233 -3.4279 -2.0750 -0.4697
  763MOL0     H 2947   2.544   4.745   9.219  1.8272  0.5381 -1.6714
  763MOL0     H 2948   2.520   4.727   9.452 -1.4609 -0.9067 -0.2232
  763MOL0     H 2949   2.526   4.894   9.480 -1.4028 -0.8650  1.1221
  763MOL0     H 2950   2.339   4.948   9.342 -0.7985  0.4242  0.1011
  763MOL0     H 2951   2.312   4.781   9.295  0.8129  0.2889 -0.2994
  763MOL0     H 2952   2.278   4.718   9.528  1.0054  0.0109  1.4901
  763MOL0     H 2953   2.285   4.889   9.577 -4.5081  1.5075 -0.5660
  763MOL0     H 2954   2.096   4.782   9.364  1.4761  0.9843 -0.1172
  763MOL0     H 2955   2.088   4.936   9.445  1.2464  0.1034  0.9525
  763MOL0     H 2956   2.107   4.571   9.617  1.5077  1.2238 -0.7732
  763MOL0     H 2957   1.975   4.450   9.770  0.3464 -0.1806  2.3230
  763MOL0     H 2958   1.900   4.549   9.895  0.1309 -1.1324 -0.4552
  763MOL0     H 2959   1.751   4.362   9.787  0.3943 -0.6290  0.5579
  763MOL0     H 2960   1.763   4.443   9.634  1.4758  1.1401  0.4018
  763MOL0     H 2961   1.655   4.655   9.734  0.2829  0.9203  0.8232
  763MOL0     H 2962   1.644   4.575   9.889  2.0307  1.7195 -0.5271
  763MOL0     H 2963   1.505   4.494   9.642 -1.8329  0.7405  0.0254
  763MOL0     H 2964   1.453   4.588   9.786  2.0407  1.2985  3.0216
  763MOL0     H 2965   1.380   4.229   9.995 -1.4886  0.4551  1.8627
  763MOL0     H 2966   1.222   4.068  10.088  2.2476  0.2633 -2.8676
  763MOL0     H 2967   1.104   4.170  10.140 -2.2135  1.3477 -2.9970
  763MOL0     H 2968   1.066   4.055  10.005  0.2152  0.2524 -1.9268
  763MOL0     H 2969   0.718   4.157   9.611  1.4323 -0.5185  1.6724
  763MOL0     H 2970   0.479   4.045   9.638  1.1327  0.2560 -0.9235
  763MOL0     H 2971   0.218   4.263   9.809 -0.7632 -0.0690  0.0340
  763MOL0     H 2972   0.247   4.163   9.665  0.7695 -0.1531  0.8367
  763MOL0     H 2973   0.085   3.998   9.760 -0.2195 -0.0651  0.6645
  763MOL0     H 2974   0.057   4.093   9.904 -0.1850 -1.4530  0.4959
  763MOL0     H 2975   0.029   4.188   9.617 -1.2947  1.6347 -0.0939
  763MOL0     H 2976  -0.007   4.283   9.766  1.8140  0.2278 -0.2968
  763MOL0     H 2977  -0.178   4.053   9.644 -3.6925 -0.7873  0.7657
  763MOL0     H 2978  -0.190   4.087   9.812 -3.4552  1.2524 -0.9547
  763MOL0     H 2979  -0.236   4.275   9.598 -1.6588 -0.8441 -0.3572
  763MOL0     H 2980  -0.262   4.314   9.773  0.4619 -0.7756  0.3404
  763MOL0     H 2981  -0.390   4.072   9.630 -2.0637  1.1280 -2.7091
  763MOL0     H 2982  -0.428   4.131   9.783 -1.1989 -1.2907 -0.8515
  763MOL0     H 2983  -0.586   4.190   9.581  2.9057 -1.5769 -2.1443
  763MOL0     H 2984  -0.462   4.304   9.538  0.8576 -0.2493  0.3562
  763MOL0     H 2985  -0.638   4.428   9.647  1.8949 -0.9148 -1.7498
  763MOL0     H 2986  -0.484   4.447   9.737  0.8431 -0.6491  1.8235
  763MOL0     H 2987   0.433   4.237  10.007  1.1420 -1.2476  1.3954
  763MOL0     H 2988   0.660   4.357   9.980 -2.2222  0.2710  1.0433
  763MOL0     H 2989   1.049   4.465   9.724  0.6315  0.9411 -0.1601
  763MOL0     H 2990   1.285   4.487   9.678  0.6189  2.4363  0.7108
  763MOL0     H 2991   3.207   4.862   9.237 -1.2219  0.9843 -0.6080
  763MOL0     H 2992   3.448   4.811   9.214 -1.3121  2.3219  0.2110
  763MOL0     H 2993   3.708   4.489   8.971 -1.0663  2.2242 -0.5951
  763MOL0     H 2994   3.939   4.399   8.931 -0.1698  1.4365 -1.5527
  763MOL0     H 2995   4.157   4.332   8.986 -0.5263  0.0074 -0.3030
  763MOL0     H 2996   4.196   4.375   8.813  3.9124 -0.5799 -1.1165
  763MOL0     H 2997   4.375   4.448   9.041 -0.7174  1.8677 -0.6860
  763MOL0     H 2998   4.406   4.473   8.874 -1.6480 -0.5345 -1.2446
  763MOL0     H 2999   4.429   4.250   8.823 -1.0188  3.3016 -1.1740
  763MOL0     H 3000   4.346   4.195   8.970 -0.5651  1.7846  1.6648
  763MOL0     H 3001   4.546   4.157   9.046  1.0389  0.6848  0.8487
  763MOL0     H 3002   4.554   4.336   9.086 -2.2676  0.6236 -0.7548
  763MOL0     H 3003   4.864   4.201   8.823 -0.6192  0.0731 -1.7153
  763MOL0     H 3004   4.114   4.767   9.049  0.3357  0.5791 -0.2435
  763MOL0     H 3005   3.873   4.871   9.069 -0.8826 -0.1481  0.1821
  764MOL0     O 3006   0.583  10.607   2.013  0.4593 -0.2294  0.1590
  764MOL0     C 3007   0.684  10.669   2.020 -0.4443  0.0754 -0.2968
  764MOL0     O 3008   0.693  10.796   2.007 -0.6831  0.2555  0.0208
  764MOL0     C 3009   0.585  10.884   2.019 -0.7426 -0.2948 -0.2111
  764MOL0     C 3010   0.471  10.855   2.105 -0.1883 -0.4777  0.3703
  764MOL0     C 3011   0.369  10.948   2.109  0.3801  0.6179  0.4004
  764MOL0     C 3012   0.378  11.080   2.052  0.0653 -0.2117 -0.5657
  764MOL0     O 3013   0.279  11.177   2.066  0.2438  0.2112  0.1237
  764MOL0     C 3014   0.143  11.132   2.096  0.1838 -0.3573  0.3345
  764MOL0     C 3015   0.041  11.242   2.070 -0.7219 -0.1499 -0.1169
  764MOL0     C 3016  -0.096  11.186   2.100 -0.1470 -0.1559 -0.5607
  764MOL0     C 3017  -0.212  11.278   2.095  0.9191  0.0605 -0.6179
  764MOL0     C 3018  -0.341  11.202   2.109  0.2437  0.0513  0.6450
  764MOL0     C 3019  -0.446  11.307   2.123  0.3359 -0.4924  0.1688
  764MOL0     C 3020  -0.583  11.247   2.138  1.2462  0.5499  0.1479
  764MOL0     C 3021  -0.683  11.341   2.194 -0.2007  0.7432  0.1299
  764MOL0     N 3022  -0.792  11.286   2.275  0.1677 -0.4691 -0.1209
  764MOL0     C 3023  -0.930  11.319   2.257  0.1053  0.4397 -0.2007
  764MOL0     C 3024  -0.990  11.275   2.364 -0.2810  0.4938 -0.4173
  764MOL0     C 3025  -1.133  11.248   2.377  0.0759 -0.3646  0.5321
  764MOL0     C 3026  -1.158  11.094   2.355 -0.2702 -0.5854  0.1388
  764MOL0     C 3027  -1.308  11.072   2.318 -1.1913 -0.1431 -0.2494
  764MOL0     C 3028  -1.407  11.139   2.407  0.2693 -0.0888  0.2117
  764MOL0     O 3029  -1.386  11.100   2.540  0.3165  0.9495 -0.7069
  764MOL0     C 3030  -1.488  11.041   2.611 -0.2647 -0.5689 -0.2010
  764MOL0     C 3031  -1.518  11.087   2.740  0.2919 -0.1905 -0.4234
  764MOL0     C 3032  -1.614  11.028   2.822  0.5070  0.0519  0.5189
  764MOL0     C 3033  -1.645  11.098   2.959 -0.8766 -0.2207  0.8209
  764MOL0     C 3034  -1.682  10.912   2.768 -0.0614 -0.2914  0.5603
  764MOL0     C 3035  -1.798  10.852   2.840 -0.5647  0.3252  1.2071
  764MOL0     O 3036  -1.875  10.919   2.927 -0.0581 -0.0726  0.8300
  764MOL0     C 3037  -1.952  10.843   3.006  0.2291  0.4924  0.6784
  764MOL0     C 3038  -2.047  10.756   2.962  1.1226 -0.1217  0.3615
  764MOL0     C 3039  -2.130  10.685   3.048 -0.2245 -0.1807 -0.1355
  764MOL0     C 3040  -2.101  10.681   3.183 -0.0470  0.5620 -0.8884
  764MOL0     O 3041  -2.176  10.599   3.267 -0.1133 -0.0558  0.4165
  764MOL0     C 3042  -2.127  10.577   3.399  0.5921 -0.0724 -0.4972
  764MOL0     C 3043  -2.207  10.464   3.459 -0.6157  0.9392 -0.2427
  764MOL0     C 3044  -2.351  10.496   3.507  0.2792  0.0742 -0.1593
  764MOL0     C 3045  -2.408  10.367   3.569 -0.2239  0.4774  0.3312
  764MOL0     C 3046  -2.559  10.403   3.582  0.5315  0.1170  0.3585
  764MOL0     C 3047  -2.639  10.277   3.610  0.0711  0.2978  0.1883
  764MOL0     C 3048  -2.780  10.306   3.628  0.2102 -0.2649  0.4944
  764MOL0     C 3049  -2.853  10.185   3.676 -0.3434 -0.4481  0.3747
  764MOL0    Cl 3050  -3.027  10.179   3.621 -0.2516 -0.3833 -0.2972
  764MOL0     C 3051  -1.995  10.757   3.223 -0.2690 -0.3748 -0.7781
  764MOL0     C 3052  -1.918  10.830   3.135 -0.0211 -0.3077 -0.0745
  764MOL0     O 3053  -1.798  10.729   2.807  0.3667 -0.4533  0.7519
  764MOL0     C 3054  -1.653  10.872   2.633  1.1789  0.5496 -0.6306
  764MOL0     C 3055  -1.557  10.933   2.559  0.3357  0.2788  1.0820
  764MOL0     N 3056  -0.893  11.222   2.444 -0.2507 -0.5005  0.1666
  764MOL0     N 3057  -0.774  11.233   2.396  0.2054 -0.9987 -0.4877
  764MOL0     C 3058   0.491  11.101   1.969 -0.4120 -0.7075  0.3055
  764MOL0     C 3059   0.591  11.010   1.955  0.5191 -0.2257  0.8157
  764MOL0     C 3060   0.809  10.599   2.046  0.4136  0.2746  0.7036
  764MOL0     C 3061   0.812  10.462   2.044 -0.8079  0.4176 -0.6786
  764MOL0     C 3062   0.930  10.400   2.077  0.1070  0.7529 -0.0290
  764MOL0     C 3063   1.050  10.470   2.086  0.4161  0.6298 -0.6616
  764MOL0     O 3064   1.167  10.396   2.106  0.1994  0.4322 -0.1422
  764MOL0     C 3065   1.284  10.474   2.110  0.3609 -0.9081 -0.4833
  764MOL0     C 3066   1.396  10.378   2.124 -0.4521  0.0746 -0.4189
  764MOL0     C 3067   1.537  10.447   2.146 -0.5756 -0.1182  0.5557
  764MOL0     C 3068   1.646  10.337   2.134  0.1586  0.1384 -0.6401
  764MOL0     C 3069   1.664  10.252   2.253 -1.0499  0.2191  0.2519
  764MOL0     C 3070   1.663  10.185   2.350 -0.4634  0.2826 -0.1167
  764MOL0     C 3071   1.046  10.611   2.079 -1.1052 -1.1727  0.4540
  764MOL0     C 3072   0.926  10.672   2.059  0.6715  0.3203 -0.0859
  764MOL0     H 3073   0.462  10.755   2.146  0.5059 -0.7324 -0.0654
  764MOL0     H 3074   0.280  10.918   2.163 -0.1944 -0.1168 -0.9047
  764MOL0     H 3075   0.117  11.051   2.028 -1.9777 -0.0724  0.7587
  764MOL0     H 3076   0.143  11.094   2.199  2.2805  0.5734  0.7353
  764MOL0     H 3077   0.064  11.326   2.136  0.2351  1.2214 -2.0855
  764MOL0     H 3078   0.049  11.279   1.967 -1.7577 -2.6234 -1.1722
  764MOL0     H 3079  -0.107  11.103   2.029 -2.0547 -0.3169 -0.1370
  764MOL0     H 3080  -0.087  11.141   2.199  0.3554  0.9373 -0.1013
  764MOL0     H 3081  -0.202  11.361   2.165  0.7884 -1.2949  1.0470
  764MOL0     H 3082  -0.221  11.333   2.000 -0.1811  0.1193 -0.4910
  764MOL0     H 3083  -0.363  11.138   2.023 -1.0106  0.3410  0.7281
  764MOL0     H 3084  -0.339  11.133   2.194 -0.7094 -2.6154 -1.3577
  764MOL0     H 3085  -0.417  11.370   2.208 -2.0973  1.1799 -0.1439
  764MOL0     H 3086  -0.442  11.376   2.038  2.1186  0.7402  1.2032
  764MOL0     H 3087  -0.632  11.202   2.051 -1.8250  0.1125  1.9486
  764MOL0     H 3088  -0.570  11.170   2.215 -1.3405  0.1711  0.3030
  764MOL0     H 3089  -0.717  11.414   2.120 -0.0789  1.0357  0.3605
  764MOL0     H 3090  -0.626  11.390   2.273 -1.2527  0.1281  1.3111
  764MOL0     H 3091  -0.976  11.350   2.164 -2.9951 -0.4540  0.9146
  764MOL0     H 3092  -1.179  11.288   2.467 -1.5963 -0.7246 -0.1091
  764MOL0     H 3093  -1.181  11.297   2.291 -2.3184 -1.0759  1.3685
  764MOL0     H 3094  -1.141  11.031   2.443  0.3733  1.7429  1.7633
  764MOL0     H 3095  -1.091  11.051   2.279 -0.9511  0.3173 -0.9981
  764MOL0     H 3096  -1.331  10.965   2.311 -0.1835 -0.4999  1.3213
  764MOL0     H 3097  -1.327  11.119   2.221 -3.0905 -0.0646  0.1216
  764MOL0     H 3098  -1.505  11.115   2.365  1.0610 -0.1807 -1.6500
  764MOL0     H 3099  -1.407  11.248   2.398 -0.1424  0.0859  1.9195
  764MOL0     H 3100  -1.460  11.171   2.776  1.4533 -0.9948 -0.3746
  764MOL0     H 3101  -1.747  11.136   2.945 -0.6513 -0.4438 -2.0219
  764MOL0     H 3102  -1.638  11.027   3.042 -0.0217 -1.9427 -0.6863
  764MOL0     H 3103  -1.577  11.182   2.976  1.6142 -1.2721 -2.8346
  764MOL0     H 3104  -2.073  10.756   2.857 -0.8493  0.5729  0.8184
  764MOL0     H 3105  -2.212  10.625   3.009  0.8300 -1.3521 -0.6398
  764MOL0     H 3106  -2.021  10.547   3.394  1.0008  1.3740 -0.9809
  764MOL0     H 3107  -2.140  10.668   3.458  0.7652 -1.2561  1.4589
  764MOL0     H 3108  -2.221  10.388   3.382 -0.4663  2.0570 -1.3981
  764MOL0     H 3109  -2.144  10.420   3.537  0.5312  1.5322 -0.8213
  764MOL0     H 3110  -2.403  10.534   3.419  0.4691  0.8046  0.0318
  764MOL0     H 3111  -2.337  10.578   3.578 -0.6540 -0.9686  1.2810
  764MOL0     H 3112  -2.389  10.289   3.495  1.7815  1.9828 -0.8254
  764MOL0     H 3113  -2.358  10.332   3.660 -1.9698 -0.4505  0.9807
  764MOL0     H 3114  -2.598  10.444   3.488 -2.5373 -0.6409  1.1912
  764MOL0     H 3115  -2.577  10.472   3.665  1.7283 -0.1430  0.8652
  764MOL0     H 3116  -2.615  10.210   3.527  2.2509  1.4975 -0.2391
  764MOL0     H 3117  -2.598  10.238   3.704 -0.2109  0.3116  0.3181
  764MOL0     H 3118  -2.823  10.335   3.531  2.4036 -0.1213 -0.4888
  764MOL0     H 3119  -2.784  10.400   3.684  0.2646  1.6815 -2.5514
  764MOL0     H 3120  -2.841  10.186   3.785  2.7015 -0.8321  0.1246
  764MOL0     H 3121  -2.801  10.097   3.636  3.3134  1.3444  0.7311
  764MOL0     H 3122  -1.954  10.750   3.324 -1.7374  0.6270 -0.0800
  764MOL0     H 3123  -1.822  10.871   3.164 -0.8160  1.7641 -0.1695
  764MOL0     H 3124  -1.698  10.780   2.597  1.8613  0.3001 -0.8730
  764MOL0     H 3125  -1.536  10.902   2.458  0.6451  1.9801  0.5988
  764MOL0     H 3126   0.499  11.199   1.923  2.9396 -1.0694 -0.1086
  764MOL0     H 3127   0.678  11.026   1.892 -0.0260 -4.5947 -1.4572
  764MOL0     H 3128   0.722  10.406   2.026  0.7674 -1.7658 -2.2153
  764MOL0     H 3129   0.939  10.293   2.091 -0.4526  0.7660  0.4708
  764MOL0     H 3130   1.297  10.543   2.026  3.4288 -2.0858 -1.1087
  764MOL0     H 3131   1.281  10.531   2.203  0.8704 -0.9114 -0.4617
  764MOL0     H 3132   1.415  10.302   2.047  3.5810  0.1001  0.3494
  764MOL0     H 3133   1.376  10.324   2.217  2.6520  3.5095  2.5715
  764MOL0     H 3134   1.530  10.497   2.243 -0.6492  0.3141  0.3304
  764MOL0     H 3135   1.543  10.523   2.068  0.8489  2.5824  3.0992
  764MOL0     H 3136   1.740  10.390   2.118  0.8006 -1.0193 -0.8284
  764MOL0     H 3137   1.620  10.276   2.047  0.6599 -1.0670  0.0329
  764MOL0     H 3138   1.677  10.111   2.427  2.0137 -0.0748 -0.8291
  764MOL0     H 3139   1.135  10.672   2.088  0.2016 -2.7750 -0.8607
  764MOL0     H 3140   0.925  10.780   2.071 -2.0461  0.4101 -0.5717
  765MOL0     O 3141   1.806   6.526   1.199 -0.3085 -0.4617  0.2088
  765MOL0     C 3142   1.849   6.630   1.245 -0.0891 -1.3141 -0.2173
  765MOL0     O 3143   1.778   6.747   1.271  0.8732 -0.4163 -0.1852
  765MOL0     C 3144   1.647   6.769   1.229  0.0456  0.1848 -0.0605
  765MOL0     C 3145   1.555   6.829   1.311 -0.4243  0.4572 -0.4715
  765MOL0     C 3146   1.432   6.856   1.251  0.7040 -0.1243 -0.0468
  765MOL0     C 3147   1.401   6.824   1.118 -0.3427 -0.3341  0.0816
  765MOL0     O 3148   1.281   6.857   1.061  0.6547 -0.2787  0.0525
  765MOL0     C 3149   1.239   6.794   0.936  0.2607 -0.1804 -0.8928
  765MOL0     C 3150   1.085   6.780   0.947 -0.8401  0.6433 -0.1282
  765MOL0     C 3151   1.026   6.801   0.804  0.0475  0.3881 -0.0589
  765MOL0     C 3152   0.874   6.799   0.799  0.1774  0.0194  0.2133
  765MOL0     C 3153   0.817   6.659   0.794  0.5725 -0.1863 -0.5067
  765MOL0     C 3154   0.667   6.641   0.826  0.1811 -0.9946  0.2076
  765MOL0     C 3155   0.576   6.718   0.729  1.3703 -0.3071 -0.6122
  765MOL0     C 3156   0.563   6.664   0.589  0.3263  0.2496 -0.0216
  765MOL0     N 3157   0.433   6.695   0.535  0.1814 -0.6497 -0.6157
  765MOL0     C 3158   0.390   6.820   0.492 -0.6365 -0.3001  0.3491
  765MOL0     C 3159   0.255   6.804   0.461  1.3443  0.4824  0.1038
  765MOL0     C 3160   0.155   6.908   0.398 -0.1400  0.4585 -0.0624
  765MOL0     C 3161   0.101   6.874   0.260 -0.3856  0.0730 -0.9968
  765MOL0     C 3162  -0.040   6.932   0.230 -0.2614  0.1246 -0.0948
  765MOL0     C 3163  -0.091   6.883   0.088 -0.6256  0.2447  0.2435
  765MOL0     O 3164  -0.230   6.926   0.070 -0.3168 -0.1435  0.2217
  765MOL0     C 3165  -0.305   6.883  -0.037  0.0354  0.7385  1.1756
  765MOL0     C 3166  -0.434   6.920  -0.044 -0.3473  0.1136  0.2863
  765MOL0     C 3167  -0.519   6.870  -0.138 -0.7330  0.4254  0.5452
  765MOL0     C 3168  -0.665   6.920  -0.138  0.4137  0.3988 -0.3758
  765MOL0     C 3169  -0.471   6.755  -0.219  0.4515 -1.1997  0.0244
  765MOL0     C 3170  -0.561   6.671  -0.306 -1.0781  0.3022 -0.5234
  765MOL0     O 3171  -0.494   6.568  -0.381  0.3661  0.1985 -0.3686
  765MOL0     C 3172  -0.570   6.490  -0.468 -0.7661  1.1508  0.8098
  765MOL0     C 3173  -0.573   6.349  -0.451  0.4999  0.2028  0.7179
  765MOL0     C 3174  -0.641   6.273  -0.543  1.0574  0.8333  0.1556
  765MOL0     C 3175  -0.703   6.328  -0.657  0.9533 -0.2209 -0.0307
  765MOL0     O 3176  -0.763   6.249  -0.761 -0.4345  0.2294 -0.5279
  765MOL0     C 3177  -0.853   6.147  -0.705 -0.0861 -0.0192  1.5244
  765MOL0     C 3178  -0.992   6.149  -0.752  0.2754 -0.1410 -0.5345
  765MOL0     C 3179  -1.078   6.043  -0.682  0.1354  0.8106 -0.0207
  765MOL0     C 3180  -1.151   5.958  -0.785  0.2737  0.8747 -0.3536
  765MOL0     C 3181  -1.264   5.881  -0.726 -0.0505 -0.2061  0.5236
  765MOL0     C 3182  -1.329   5.782  -0.818  0.3855  0.2535  0.2592
  765MOL0     C 3183  -1.444   5.712  -0.732 -0.2868  0.4057  0.1696
  765MOL0     C 3184  -1.394   5.635  -0.612  0.1888  0.1287 -0.4258
  765MOL0    Cl 3185  -1.525   5.520  -0.584 -0.0523  0.0172 -0.3050
  765MOL0     C 3186  -0.688   6.466  -0.678  0.4234 -0.2788  0.0133
  765MOL0     C 3187  -0.629   6.547  -0.583 -0.0126 -0.0323  0.2830
  765MOL0     O 3188  -0.680   6.694  -0.321 -0.1489  0.0399 -0.4987
  765MOL0     C 3189  -0.333   6.729  -0.221  0.1322  0.8850 -0.8329
  765MOL0     C 3190  -0.247   6.798  -0.135 -0.0182 -0.0868  0.8036
  765MOL0     N 3191   0.218   6.674   0.484  0.4557  0.5248 -0.5677
  765MOL0     N 3192   0.324   6.610   0.539 -0.4473 -0.7827 -0.7573
  765MOL0     C 3193   1.505   6.774   1.037  0.4772  0.2665  0.1335
  765MOL0     C 3194   1.624   6.748   1.093 -0.2634 -0.0583 -0.6782
  765MOL0     C 3195   1.987   6.628   1.306  0.3420 -0.1702  0.6728
  765MOL0     C 3196   2.026   6.714   1.413 -0.1353  0.4563  0.9453
  765MOL0     C 3197   2.155   6.715   1.465  0.2464  0.3654  0.6449
  765MOL0     C 3198   2.251   6.634   1.410  0.3756 -0.2473  0.3692
  765MOL0     O 3199   2.378   6.608   1.453  0.3671  0.6279  0.0134
  765MOL0     C 3200   2.403   6.617   1.593 -0.7405 -0.1028  0.5982
  765MOL0     C 3201   2.505   6.518   1.635 -0.8051 -0.5478 -0.1369
  765MOL0     C 3202   2.443   6.378   1.648 -0.1699 -0.2872 -0.0483
  765MOL0     C 3203   2.532   6.266   1.622  0.0472  0.3893 -0.1032
  765MOL0     C 3204   2.665   6.275   1.681  0.3017 -0.2152  0.5492
  765MOL0     C 3205   2.782   6.276   1.703 -0.7409 -0.4298 -0.6470
  765MOL0     C 3206   2.217   6.561   1.294 -0.0947  0.2854 -0.4650
  765MOL0     C 3207   2.091   6.561   1.246 -0.5089  0.4727 -0.6754
  765MOL0     H 3208   1.576   6.840   1.416 -3.0140  2.5819 -0.0698
  765MOL0     H 3209   1.351   6.902   1.307 -0.6200 -1.5609 -0.7097
  765MOL0     H 3210   1.263   6.856   0.848  1.1946  2.4722  1.0760
  765MOL0     H 3211   1.276   6.692   0.924 -0.9821 -1.1946  2.7811
  765MOL0     H 3212   1.066   6.680   0.987  0.4806 -0.7741 -2.7549
  765MOL0     H 3213   1.040   6.863   1.002  0.1585  0.0555  1.6465
  765MOL0     H 3214   1.079   6.891   0.770 -0.8915  1.1450  0.4331
  765MOL0     H 3215   1.064   6.718   0.743 -0.4753 -0.7317  1.1131
  765MOL0     H 3216   0.825   6.859   0.876 -0.3042  0.8698 -0.7261
  765MOL0     H 3217   0.835   6.844   0.707 -1.1484 -0.4060  0.5410
  765MOL0     H 3218   0.834   6.614   0.696 -3.5111 -0.7226 -1.1679
  765MOL0     H 3219   0.871   6.603   0.871  1.0396  0.9901  0.0508
  765MOL0     H 3220   0.636   6.536   0.818 -0.7493 -0.6946 -0.3183
  765MOL0     H 3221   0.651   6.685   0.925 -1.6209  0.8511 -0.8359
  765MOL0     H 3222   0.474   6.713   0.770  1.0483  0.9110 -1.2364
  765MOL0     H 3223   0.603   6.823   0.716 -2.6247  0.9192 -0.4016
  765MOL0     H 3224   0.573   6.556   0.599 -0.7695  0.0262 -1.1098
  765MOL0     H 3225   0.634   6.706   0.517  0.3050  0.8336  0.2891
  765MOL0     H 3226   0.448   6.909   0.469 -0.7706 -0.1731  0.4943
  765MOL0     H 3227   0.073   6.910   0.471  1.2210 -0.3703  1.5626
  765MOL0     H 3228   0.192   7.010   0.388 -1.7104  1.1915  1.2290
  765MOL0     H 3229   0.090   6.768   0.235  0.5027 -0.3252  0.2083
  765MOL0     H 3230   0.169   6.929   0.194 -0.9011  1.3471 -0.4915
  765MOL0     H 3231  -0.040   7.041   0.235  0.9354  0.0862  1.4438
  765MOL0     H 3232  -0.112   6.896   0.305  0.8678  0.1599  1.0446
  765MOL0     H 3233  -0.090   6.774   0.085 -1.1198  0.2245  0.7289
  765MOL0     H 3234  -0.020   6.911   0.010  2.1513 -1.2324  2.0721
  765MOL0     H 3235  -0.468   6.992   0.030  2.8965  0.9587  1.1512
  765MOL0     H 3236  -0.733   6.848  -0.092  2.3248 -0.8795  0.5132
  765MOL0     H 3237  -0.686   7.010  -0.079 -3.3946 -2.0763  2.5478
  765MOL0     H 3238  -0.689   6.949  -0.241  0.2341  1.1819 -0.1240
  765MOL0     H 3239  -0.521   6.311  -0.364  1.0795  0.5414  0.5255
  765MOL0     H 3240  -0.638   6.170  -0.509 -0.9324  1.6640  3.1452
  765MOL0     H 3241  -0.805   6.051  -0.728 -2.6485 -1.2088  0.8241
  765MOL0     H 3242  -0.847   6.158  -0.596  2.8530  0.2047  1.4226
  765MOL0     H 3243  -1.024   6.253  -0.736  2.0100  0.2922  0.3895
  765MOL0     H 3244  -0.983   6.135  -0.860 -0.4970 -0.6897 -0.5312
  765MOL0     H 3245  -1.147   6.092  -0.614 -1.0359  0.3317 -0.8337
  765MOL0     H 3246  -1.019   5.976  -0.618 -0.4490 -2.3183 -2.5034
  765MOL0     H 3247  -1.203   6.022  -0.857 -0.2758  1.5109  0.5947
  765MOL0     H 3248  -1.083   5.899  -0.847  2.2480  1.0161  1.5446
  765MOL0     H 3249  -1.332   5.962  -0.699  0.1397  0.5864 -1.2817
  765MOL0     H 3250  -1.241   5.830  -0.632 -2.1253 -1.6863  0.2807
  765MOL0     H 3251  -1.384   5.837  -0.895 -0.6287 -0.5908  0.3519
  765MOL0     H 3252  -1.257   5.720  -0.871  0.6059  1.7231 -1.2284
  765MOL0     H 3253  -1.489   5.641  -0.802 -1.9962  1.4345  0.1750
  765MOL0     H 3254  -1.524   5.784  -0.711 -0.1663  0.5444  0.1524
  765MOL0     H 3255  -1.375   5.703  -0.528  5.0509  1.3231 -2.1415
  765MOL0     H 3256  -1.303   5.576  -0.626 -0.6822 -1.6562  0.9563
  765MOL0     H 3257  -0.727   6.519  -0.764  0.5720 -1.8003 -1.0413
  765MOL0     H 3258  -0.629   6.655  -0.591 -4.7747  0.1937  0.8780
  765MOL0     H 3259  -0.283   6.654  -0.282  1.6372 -0.8876  2.3232
  765MOL0     H 3260  -0.142   6.772  -0.145 -0.3544 -1.7377  1.1997
  765MOL0     H 3261   1.491   6.751   0.932  1.3688 -1.0551  0.2839
  765MOL0     H 3262   1.700   6.707   1.027 -0.5331  0.1652 -1.1382
  765MOL0     H 3263   1.947   6.777   1.453 -0.0069  1.8278 -0.8414
  765MOL0     H 3264   2.181   6.770   1.555 -0.8792  0.5820  0.8530
  765MOL0     H 3265   2.454   6.712   1.606  3.3714 -1.6905 -1.8242
  765MOL0     H 3266   2.316   6.619   1.659  0.2047  0.5923  1.8594
  765MOL0     H 3267   2.546   6.546   1.732 -0.4377  1.5333 -0.8399
  765MOL0     H 3268   2.591   6.534   1.569  0.0780  0.9698  1.3190
  765MOL0     H 3269   2.368   6.375   1.569 -1.2629  0.7694  0.9144
  765MOL0     H 3270   2.384   6.371   1.740 -4.0923  0.0661 -2.3414
  765MOL0     H 3271   2.541   6.261   1.513  0.9014 -3.3309  0.0037
  765MOL0     H 3272   2.485   6.174   1.657 -1.8487  1.0534 -0.8069
  765MOL0     H 3273   2.888   6.270   1.719 -0.9222  0.8349  1.4864
  765MOL0     H 3274   2.290   6.494   1.251  1.2281  2.1469 -1.2698
  765MOL0     H 3275   2.071   6.504   1.156  1.8732  0.3810 -1.2105
  766MOL0     O 3276   8.308   1.129   8.978 -0.8060  0.1703  0.8479
  766MOL0     C 3277   8.291   1.227   9.054 -0.0788  0.3878  0.4261
  766MOL0     O 3278   8.176   1.253   9.127  0.2601 -0.2790  0.3538
  766MOL0     C 3279   8.068   1.166   9.115 -0.4895 -0.9901 -0.6920
  766MOL0     C 3280   7.948   1.220   9.054 -0.7222  0.2929  0.3385
  766MOL0     C 3281   7.836   1.139   9.054  0.0268  0.4660  0.2118
  766MOL0     C 3282   7.836   1.011   9.114  0.7065  0.1571 -0.1589
  766MOL0     O 3283   7.717   0.947   9.117 -0.3555  0.4227  0.2751
  766MOL0     C 3284   7.709   0.817   9.169 -0.2640  0.6482 -0.5910
  766MOL0     C 3285   7.573   0.754   9.148  0.2509 -0.2049  0.1304
  766MOL0     C 3286   7.466   0.792   9.244  0.8088  0.0708 -0.5300
  766MOL0     C 3287   7.328   0.748   9.191  0.6478  1.0608  0.3991
  766MOL0     C 3288   7.212   0.793   9.279  0.2546  0.7584 -0.0873
  766MOL0     C 3289   7.083   0.736   9.220  0.2585  0.8309 -0.5201
  766MOL0     C 3290   6.962   0.812   9.265  0.1121  0.4777 -0.3157
  766MOL0     C 3291   6.844   0.788   9.177 -0.2153 -0.4963 -0.1673
  766MOL0     N 3292   6.713   0.787   9.248 -0.4086  0.5082 -0.1810
  766MOL0     C 3293   6.595   0.819   9.190  0.5391 -1.2050  0.4140
  766MOL0     C 3294   6.499   0.783   9.280  0.0753 -0.4704  0.4063
  766MOL0     C 3295   6.357   0.801   9.247  0.6128  0.0127  0.0970
  766MOL0     C 3296   6.319   0.951   9.260  0.6772  0.1251 -0.2076
  766MOL0     C 3297   6.170   0.975   9.289 -0.5014  0.2156 -0.3733
  766MOL0     C 3298   6.061   0.952   9.186 -0.1834  0.0531  0.0453
  766MOL0     O 3299   6.036   0.810   9.161 -0.3474  0.0675  0.0229
  766MOL0     C 3300   5.908   0.768   9.177  0.4059 -0.2826 -0.7031
  766MOL0     C 3301   5.805   0.813   9.095  0.1398  0.7444  0.1245
  766MOL0     C 3302   5.679   0.756   9.117  0.4649  0.0166  0.0813
  766MOL0     C 3303   5.567   0.814   9.029  0.5031  0.5501  0.5853
  766MOL0     C 3304   5.659   0.643   9.203 -0.1787  0.1835 -0.5474
  766MOL0     C 3305   5.531   0.568   9.219  0.9517 -0.3983 -0.0058
  766MOL0     O 3306   5.424   0.618   9.150 -0.3212 -0.0237 -0.0766
  766MOL0     C 3307   5.301   0.564   9.157  0.0382  0.4246  0.0043
  766MOL0     C 3308   5.225   0.543   9.040 -0.3414  0.3839 -0.5104
  766MOL0     C 3309   5.089   0.514   9.040 -0.2187 -0.2092  0.1001
  766MOL0     C 3310   5.032   0.494   9.161  0.3090  0.2865  0.1108
  766MOL0     O 3311   4.903   0.448   9.156  0.2640 -0.0796 -0.6970
  766MOL0     C 3312   4.846   0.398   9.274 -0.2623 -0.2778  0.5459
  766MOL0     C 3313   4.707   0.343   9.247 -0.6637  0.2937 -0.1469
  766MOL0     C 3314   4.593   0.448   9.247 -0.0622 -0.8452  0.5160
  766MOL0     C 3315   4.477   0.384   9.177  0.4732 -0.1714  0.9161
  766MOL0     C 3316   4.366   0.486   9.160 -0.5185 -0.2723  0.3497
  766MOL0     C 3317   4.235   0.405   9.145  0.2130  0.1174  0.1365
  766MOL0     C 3318   4.112   0.503   9.156 -0.8350  0.5523  0.2394
  766MOL0     C 3319   3.985   0.440   9.106 -0.7030  0.3499  0.3601
  766MOL0    Cl 3320   3.997   0.378   8.941 -0.3027 -0.3415  0.4344
  766MOL0     C 3321   5.106   0.504   9.280 -0.7379  0.7082 -0.6148
  766MOL0     C 3322   5.242   0.539   9.282 -0.8047 -0.1058 -0.7823
  766MOL0     O 3323   5.524   0.463   9.280  0.3208  0.0000  0.0167
  766MOL0     C 3324   5.772   0.594   9.266 -0.2758 -0.7984  0.6487
  766MOL0     C 3325   5.892   0.656   9.252  0.2797 -0.1506  0.4437
  766MOL0     N 3326   6.559   0.723   9.387  0.0109  0.3057  0.4589
  766MOL0     N 3327   6.683   0.726   9.364 -0.1882 -0.5114  0.5139
  766MOL0     C 3328   7.952   0.962   9.168 -0.0423  0.7615  0.1014
  766MOL0     C 3329   8.070   1.035   9.162  0.6745 -0.8234 -0.0986
  766MOL0     C 3330   8.400   1.329   9.068  0.1752  0.1076 -0.2690
  766MOL0     C 3331   8.522   1.323   8.995  0.3246  0.5164  0.2151
  766MOL0     C 3332   8.615   1.414   9.016  0.2214 -0.2651 -0.9901
  766MOL0     C 3333   8.598   1.526   9.102  0.4021  0.6957 -0.0297
  766MOL0     O 3334   8.695   1.617   9.123 -0.8748 -0.5676 -0.1408
  766MOL0     C 3335   8.716   1.672   9.261 -0.0589  0.3024  0.8415
  766MOL0     C 3336   8.867   1.694   9.256  0.0776 -0.1763 -0.7525
  766MOL0     C 3337   8.887   1.837   9.185  0.6208  0.4125 -0.1654
  766MOL0     C 3338   9.036   1.874   9.160 -0.0330  0.8255  0.3246
  766MOL0     C 3339   9.114   1.878   9.281 -0.4030  0.0430  0.0568
  766MOL0     C 3340   9.197   1.871   9.371 -0.5456  0.0780  0.5416
  766MOL0     C 3341   8.479   1.533   9.172  0.1246 -0.4682 -0.0228
  766MOL0     C 3342   8.379   1.438   9.153 -0.3610  0.3821 -0.4746
  766MOL0     H 3343   7.957   1.317   9.006  0.8869  0.8418  1.6492
  766MOL0     H 3344   7.759   1.171   8.985  1.5278  1.0951 -1.2549
  766MOL0     H 3345   7.778   0.763   9.104 -3.5406  1.6406 -5.4264
  766MOL0     H 3346   7.741   0.815   9.273  1.4095 -1.3275 -1.0676
  766MOL0     H 3347   7.543   0.774   9.044  2.4289 -1.2596 -0.7571
  766MOL0     H 3348   7.578   0.646   9.161 -2.3277 -0.6166 -1.5008
  766MOL0     H 3349   7.479   0.738   9.339  0.5924  1.0540  0.0723
  766MOL0     H 3350   7.474   0.896   9.276  0.4802  0.2079 -0.8861
  766MOL0     H 3351   7.315   0.801   9.096  1.8267  3.8609  1.6890
  766MOL0     H 3352   7.322   0.640   9.174  1.2115  0.9773  0.6999
  766MOL0     H 3353   7.225   0.764   9.384 -0.9867  2.0808  0.4663
  766MOL0     H 3354   7.205   0.902   9.283  3.1086  1.0114  0.2489
  766MOL0     H 3355   7.095   0.737   9.111 -1.1402 -0.6859 -0.7340
  766MOL0     H 3356   7.060   0.633   9.249 -1.2795  1.1163 -0.6263
  766MOL0     H 3357   6.947   0.785   9.370 -0.5365 -2.7335 -1.1074
  766MOL0     H 3358   6.978   0.920   9.268  0.7004  0.3780  1.6654
  766MOL0     H 3359   6.851   0.694   9.122 -2.1865 -1.0196  0.4085
  766MOL0     H 3360   6.830   0.864   9.100 -2.2914 -0.8020 -0.1316
  766MOL0     H 3361   6.589   0.870   9.094 -1.1624 -3.5481 -0.8258
  766MOL0     H 3362   6.327   0.757   9.151 -0.9965  0.7291  0.2439
  766MOL0     H 3363   6.308   0.738   9.322 -0.7037  2.6330  1.5519
  766MOL0     H 3364   6.358   1.004   9.173  1.7539 -2.3531 -1.3473
  766MOL0     H 3365   6.367   0.979   9.354  1.2543 -0.8401 -0.1963
  766MOL0     H 3366   6.163   1.077   9.327  0.7377  0.6825 -1.3440
  766MOL0     H 3367   6.154   0.912   9.377  0.2308 -0.0402 -0.4167
  766MOL0     H 3368   6.085   1.011   9.097  0.8462  1.1086  0.9815
  766MOL0     H 3369   5.966   0.990   9.225  0.3945  1.2173  0.3739
  766MOL0     H 3370   5.815   0.899   9.029 -1.3204 -0.8422 -2.3214
  766MOL0     H 3371   5.602   0.906   8.981 -0.0881  1.0598  1.1111
  766MOL0     H 3372   5.536   0.754   8.943 -0.0136 -2.2683  2.5922
  766MOL0     H 3373   5.485   0.848   9.092 -1.2986 -3.2401  0.5374
  766MOL0     H 3374   5.284   0.562   8.950  0.5820 -0.2484 -0.0546
  766MOL0     H 3375   5.032   0.514   8.948 -0.6884  0.6988  0.3839
  766MOL0     H 3376   4.913   0.321   9.312  1.4821 -0.0240 -1.7833
  766MOL0     H 3377   4.827   0.476   9.348 -0.4730  0.1098  0.0874
  766MOL0     H 3378   4.711   0.278   9.159  1.4892 -0.7317  0.6192
  766MOL0     H 3379   4.676   0.276   9.328  1.4534 -2.8448 -1.7200
  766MOL0     H 3380   4.621   0.542   9.197  2.5748 -2.2699 -0.9204
  766MOL0     H 3381   4.574   0.465   9.353 -2.2721 -3.3010  0.5935
  766MOL0     H 3382   4.517   0.349   9.081  1.8714 -0.9191  1.7274
  766MOL0     H 3383   4.444   0.303   9.243 -0.3543 -0.0731  0.6254
  766MOL0     H 3384   4.376   0.558   9.078  0.0731  0.7362  1.2818
  766MOL0     H 3385   4.365   0.543   9.254 -0.9129 -0.7676  0.6509
  766MOL0     H 3386   4.227   0.355   9.048  0.1474 -0.8001  0.6129
  766MOL0     H 3387   4.214   0.335   9.225 -2.0193 -0.3950 -0.8220
  766MOL0     H 3388   4.140   0.600   9.114 -0.2549  0.3524  0.1453
  766MOL0     H 3389   4.088   0.530   9.259  0.8447 -0.3594  0.9231
  766MOL0     H 3390   3.917   0.525   9.115 -2.0469 -0.7360  0.6509
  766MOL0     H 3391   3.940   0.363   9.169 -1.4015 -0.3770 -1.0013
  766MOL0     H 3392   5.066   0.484   9.378  0.8591 -0.8955 -0.2362
  766MOL0     H 3393   5.296   0.544   9.376  0.0525 -0.8366 -1.2247
  766MOL0     H 3394   5.784   0.506   9.328  2.2328 -0.5926  0.5456
  766MOL0     H 3395   5.981   0.614   9.299  0.7358 -0.2834 -0.5160
  766MOL0     H 3396   7.959   0.864   9.213  1.7052  0.2248 -1.2160
  766MOL0     H 3397   8.162   0.987   9.195  1.3255  0.2542 -0.2955
  766MOL0     H 3398   8.538   1.244   8.923 -1.0128 -0.3718  0.8468
  766MOL0     H 3399   8.711   1.405   8.966  0.3307 -0.3106 -0.7738
  766MOL0     H 3400   8.663   1.766   9.280  0.4599  0.0979  3.8588
  766MOL0     H 3401   8.690   1.598   9.338 -1.8739  1.1923  1.1390
  766MOL0     H 3402   8.925   1.612   9.214  1.3985  0.1033  0.4779
  766MOL0     H 3403   8.899   1.709   9.359 -0.0980 -1.3325 -0.5229
  766MOL0     H 3404   8.837   1.915   9.243  0.9941  0.0757  0.6171
  766MOL0     H 3405   8.845   1.842   9.084 -1.6209 -1.7594  0.5620
  766MOL0     H 3406   9.034   1.975   9.117 -2.3083  0.6352 -0.1359
  766MOL0     H 3407   9.078   1.795   9.097 -1.1962  0.9068 -0.5795
  766MOL0     H 3408   9.257   1.868   9.460  3.8775  1.8813 -2.0433
  766MOL0     H 3409   8.453   1.606   9.247  0.8043  1.1252 -1.2544
  766MOL0     H 3410   8.294   1.437   9.221  0.8667  0.8635  1.1143
  767MOL0     O 3411   5.778   2.042   1.903  0.0712 -0.1899 -0.3612
  767MOL0     C 3412   5.775   2.012   1.789 -0.6972  0.6240 -0.6594
  767MOL0     O 3413   5.663   2.010   1.707 -0.2936 -0.5503 -0.4933
  767MOL0     C 3414   5.540   2.052   1.762 -0.9047 -0.4035  0.0614
  767MOL0     C 3415   5.472   1.961   1.842 -0.3920  0.6957  0.5274
  767MOL0     C 3416   5.344   1.987   1.891 -0.7301 -0.9203 -0.2537
  767MOL0     C 3417   5.289   2.110   1.872  0.5639 -0.6804  0.0796
  767MOL0     O 3418   5.177   2.137   1.948 -0.1988  0.5226 -0.7055
  767MOL0     C 3419   5.080   2.224   1.897 -0.7860 -0.0693  0.3849
  767MOL0     C 3420   4.963   2.261   1.985  0.0883  0.2946 -1.0381
  767MOL0     C 3421   4.846   2.331   1.901  0.0926 -0.0215  0.0207
  767MOL0     C 3422   4.735   2.361   2.000  0.1272 -0.7779 -0.6485
  767MOL0     C 3423   4.609   2.429   1.935  0.0790 -0.1848 -0.3222
  767MOL0     C 3424   4.515   2.467   2.052 -1.1324 -0.0267  0.3408
  767MOL0     C 3425   4.396   2.552   2.004 -0.0837  0.6067 -0.3710
  767MOL0     C 3426   4.280   2.550   2.100 -0.2647  0.0072  0.3409
  767MOL0     N 3427   4.155   2.616   2.067  0.5337 -0.0524 -0.3623
  767MOL0     C 3428   4.073   2.595   1.959 -0.1924 -0.8728  0.9441
  767MOL0     C 3429   3.951   2.649   2.001 -0.4761  0.2878 -0.3594
  767MOL0     C 3430   3.809   2.638   1.945 -0.1803  0.3638 -0.4376
  767MOL0     C 3431   3.805   2.699   1.802  0.0366  0.7022  0.7249
  767MOL0     C 3432   3.658   2.700   1.754  0.7331  0.1556  0.9528
  767MOL0     C 3433   3.667   2.745   1.603  0.3902 -0.2877  0.0025
  767MOL0     O 3434   3.551   2.826   1.557 -0.0836 -0.1700 -0.5727
  767MOL0     C 3435   3.537   2.881   1.435  0.5036 -0.4612 -0.3403
  767MOL0     C 3436   3.606   2.839   1.316  0.6363  0.0577  0.9131
  767MOL0     C 3437   3.585   2.894   1.194  0.0189 -1.0584  0.0302
  767MOL0     C 3438   3.684   2.842   1.090 -0.4093  0.9729 -0.9051
  767MOL0     C 3439   3.495   2.999   1.174 -0.6478 -1.0262  0.0766
  767MOL0     C 3440   3.471   3.078   1.056  1.0717 -0.3674 -0.5264
  767MOL0     O 3441   3.380   3.185   1.064 -0.6636  0.3823  0.1845
  767MOL0     C 3442   3.339   3.222   0.940  0.0073 -0.9823 -0.0479
  767MOL0     C 3443   3.280   3.139   0.844 -0.5585  1.0782 -0.1753
  767MOL0     C 3444   3.249   3.175   0.718 -0.5482 -0.2904 -0.0221
  767MOL0     C 3445   3.282   3.308   0.684  0.6421 -0.3481 -0.4449
  767MOL0     O 3446   3.249   3.352   0.562  0.4927  0.4319 -0.4937
  767MOL0     C 3447   3.137   3.290   0.499  0.5731  0.1109  0.2261
  767MOL0     C 3448   3.091   3.361   0.372  0.1674 -0.1989 -0.2725
  767MOL0     C 3449   3.192   3.354   0.264  0.4286 -0.0210  0.6570
  767MOL0     C 3450   3.148   3.455   0.149  0.9461  0.2081 -0.1290
  767MOL0     C 3451   3.011   3.411   0.079  0.2054  0.3267  0.2341
  767MOL0     C 3452   2.995   3.473  -0.051  0.5235 -0.1739  0.3572
  767MOL0     C 3453   2.885   3.401  -0.136  1.3962  0.3274  0.9880
  767MOL0     C 3454   2.937   3.348  -0.270  0.0014 -0.1387 -0.1402
  767MOL0    Cl 3455   2.971   3.485  -0.377  0.1684  0.2230  0.3098
  767MOL0     C 3456   3.332   3.399   0.776  0.4791  0.6291 -0.3072
  767MOL0     C 3457   3.359   3.357   0.907  0.1364  0.0911  0.0242
  767MOL0     O 3458   3.523   3.040   0.956  0.2157  0.2950  0.5254
  767MOL0     C 3459   3.411   3.026   1.287 -0.1001 -0.1609  0.2748
  767MOL0     C 3460   3.434   2.966   1.413 -0.9970 -0.4196 -0.3314
  767MOL0     N 3461   3.968   2.705   2.127 -0.4075 -0.2137 -0.5569
  767MOL0     N 3462   4.094   2.696   2.161 -0.2112 -0.2016  0.6655
  767MOL0     C 3463   5.358   2.210   1.799  0.3088 -0.0412  0.3676
  767MOL0     C 3464   5.483   2.184   1.737  0.1541  0.1826  0.5211
  767MOL0     C 3465   5.905   2.004   1.713 -0.3441  0.2744  0.5986
  767MOL0     C 3466   5.907   1.963   1.578 -1.1685 -0.6603  0.0743
  767MOL0     C 3467   6.028   1.971   1.511 -0.4391 -0.1878  1.2692
  767MOL0     C 3468   6.143   2.011   1.571 -0.6334 -0.3552 -0.3449
  767MOL0     O 3469   6.269   2.032   1.508  0.0235 -0.4011  0.2523
  767MOL0     C 3470   6.268   2.039   1.365 -0.6951 -0.5918  0.0622
  767MOL0     C 3471   6.391   2.103   1.315  0.1989 -0.1508  0.1372
  767MOL0     C 3472   6.525   2.030   1.353  0.1370  0.1166  0.0055
  767MOL0     C 3473   6.591   1.984   1.227 -0.2205 -0.1418 -0.2218
  767MOL0     C 3474   6.518   1.866   1.180  1.7350  0.3263 -0.3999
  767MOL0     C 3475   6.456   1.771   1.143 -0.0062 -0.0150  0.0602
  767MOL0     C 3476   6.143   2.044   1.706  0.3713 -0.1704 -0.0371
  767MOL0     C 3477   6.024   2.040   1.787 -0.8122  0.3694  0.0679
  767MOL0     H 3478   5.517   1.867   1.871 -1.1937  0.3036  0.5001
  767MOL0     H 3479   5.294   1.908   1.946 -1.3065 -2.3711 -2.6712
  767MOL0     H 3480   5.130   2.317   1.868  1.3380 -0.3686  2.7534
  767MOL0     H 3481   5.039   2.172   1.810 -0.0193  0.1834 -0.1402
  767MOL0     H 3482   4.918   2.169   2.024  1.2900 -1.4049 -3.4656
  767MOL0     H 3483   4.995   2.326   2.067  1.6121  1.9908 -2.8987
  767MOL0     H 3484   4.892   2.423   1.865 -1.1564  0.7242  0.2754
  767MOL0     H 3485   4.807   2.272   1.818 -3.6648 -0.2345  1.7125
  767MOL0     H 3486   4.696   2.276   2.057 -1.9487  0.7854  0.3783
  767MOL0     H 3487   4.781   2.426   2.075  1.5071 -4.5055  2.0576
  767MOL0     H 3488   4.641   2.513   1.872  2.0074  1.5208  2.6822
  767MOL0     H 3489   4.560   2.359   1.867  1.0414  0.4991 -1.7744
  767MOL0     H 3490   4.476   2.381   2.109 -0.1926  0.8866  2.4733
  767MOL0     H 3491   4.571   2.515   2.133  0.5736 -0.7906 -0.3528
  767MOL0     H 3492   4.432   2.655   1.989  1.5317 -0.1364 -1.9911
  767MOL0     H 3493   4.358   2.501   1.915 -1.3394  0.9305 -0.0448
  767MOL0     H 3494   4.308   2.601   2.192  2.2603 -2.0046  0.8144
  767MOL0     H 3495   4.264   2.444   2.122 -0.9326 -0.0649 -0.4009
  767MOL0     H 3496   4.092   2.532   1.873  1.8913  1.9489 -0.8246
  767MOL0     H 3497   3.780   2.532   1.940 -1.8101  0.6396  1.7440
  767MOL0     H 3498   3.745   2.704   2.003  0.9210  0.9312  0.1689
  767MOL0     H 3499   3.857   2.635   1.730 -0.6963 -0.2605  1.0281
  767MOL0     H 3500   3.848   2.799   1.803  1.9134 -0.0520  0.4162
  767MOL0     H 3501   3.592   2.765   1.812  0.8683 -1.0417  2.5163
  767MOL0     H 3502   3.618   2.598   1.755  1.0569 -0.1915 -3.2877
  767MOL0     H 3503   3.672   2.664   1.529  1.1164 -0.5250  0.3049
  767MOL0     H 3504   3.757   2.806   1.600  0.8097 -0.8465  0.9266
  767MOL0     H 3505   3.674   2.755   1.326  0.1917 -0.3400  0.6637
  767MOL0     H 3506   3.751   2.764   1.127 -0.8402 -1.1415 -4.2144
  767MOL0     H 3507   3.638   2.801   1.000  0.0247  0.9129 -1.1027
  767MOL0     H 3508   3.761   2.912   1.056 -0.7896  1.1486 -1.4164
  767MOL0     H 3509   3.246   3.042   0.878 -0.3951  1.3633  0.8105
  767MOL0     H 3510   3.207   3.105   0.646  0.7574 -1.3395  0.2045
  767MOL0     H 3511   3.154   3.187   0.467 -2.5118 -0.5575  0.3992
  767MOL0     H 3512   3.054   3.292   0.570 -0.1331  0.9446 -0.5996
  767MOL0     H 3513   3.000   3.308   0.342 -0.3267 -0.8571  2.1279
  767MOL0     H 3514   3.068   3.464   0.401 -0.5744 -0.3823 -0.1847
  767MOL0     H 3515   3.190   3.251   0.226 -1.3344  0.8510 -1.8574
  767MOL0     H 3516   3.295   3.379   0.291  0.5992 -0.0682  0.0586
  767MOL0     H 3517   3.146   3.562   0.172 -1.5457 -0.3814  3.3127
  767MOL0     H 3518   3.234   3.450   0.082  0.4605 -0.5222 -0.7168
  767MOL0     H 3519   2.920   3.435   0.135 -1.7723 -1.5752 -1.9210
  767MOL0     H 3520   3.017   3.302   0.076  1.4601  0.3738  0.5672
  767MOL0     H 3521   2.975   3.581  -0.043  1.1453 -0.2069  3.6256
  767MOL0     H 3522   3.087   3.470  -0.110  1.4323  0.5772  1.6934
  767MOL0     H 3523   2.799   3.464  -0.157  1.0101  0.0882  1.8026
  767MOL0     H 3524   2.845   3.311  -0.088 -0.2203  1.8429  2.6590
  767MOL0     H 3525   2.856   3.293  -0.317  0.1287 -1.7956  1.4938
  767MOL0     H 3526   3.018   3.276  -0.258 -2.8129 -3.4943  0.1140
  767MOL0     H 3527   3.362   3.499   0.747  1.6980  0.7773  1.3177
  767MOL0     H 3528   3.401   3.431   0.975  0.4985 -1.5395  1.6574
  767MOL0     H 3529   3.324   3.085   1.258  0.4864 -0.0742 -1.3656
  767MOL0     H 3530   3.366   2.985   1.496  0.3810  0.8993  0.5625
  767MOL0     H 3531   5.318   2.310   1.812 -1.6050 -0.6615 -0.4329
  767MOL0     H 3532   5.539   2.260   1.683  2.7171 -1.2816  0.9229
  767MOL0     H 3533   5.821   1.937   1.518 -1.5248  0.7275 -0.0640
  767MOL0     H 3534   6.016   1.952   1.405 -1.5717  2.1313  0.9186
  767MOL0     H 3535   6.257   1.940   1.320 -0.5650 -0.7005  0.2730
  767MOL0     H 3536   6.184   2.096   1.324  0.8102  0.3354 -1.9362
  767MOL0     H 3537   6.388   2.201   1.365  1.3061 -2.0082  4.2603
  767MOL0     H 3538   6.384   2.124   1.208  2.2474 -0.7829 -0.1622
  767MOL0     H 3539   6.513   1.961   1.437  2.0400 -0.2964 -0.0117
  767MOL0     H 3540   6.595   2.107   1.388  0.7110  0.5226 -1.8920
  767MOL0     H 3541   6.696   1.961   1.248  0.1314  0.4751 -1.2398
  767MOL0     H 3542   6.595   2.060   1.149 -1.8418 -1.0582 -1.2452
  767MOL0     H 3543   6.411   1.684   1.100  1.2495 -1.6456  1.8886
  767MOL0     H 3544   6.231   2.077   1.759  0.8684 -1.3219 -0.1138
  767MOL0     H 3545   6.025   2.069   1.891  0.1494  1.1805 -0.1513
  768MOL0     O 3546   5.262   8.508   0.069  0.1763 -0.4253  0.1347
  768MOL0     C 3547   5.231   8.611   0.001 -0.0661 -0.5915  0.1149
  768MOL0     O 3548   5.103   8.634  -0.053  0.0450  0.2103  0.6916
  768MOL0     C 3549   4.991   8.552  -0.022 -0.0311 -0.0836 -0.3114
  768MOL0     C 3550   4.975   8.471   0.090 -0.3534  0.7318 -0.1795
  768MOL0     C 3551   4.847   8.421   0.115 -0.2450  0.8392  0.2246
  768MOL0     C 3552   4.743   8.424   0.026  0.6935 -0.5160 -0.2340
  768MOL0     O 3553   4.629   8.349   0.045 -0.1393 -0.0692  0.3479
  768MOL0     C 3554   4.539   8.319  -0.063 -0.4398 -0.8541  0.3483
  768MOL0     C 3555   4.420   8.234  -0.023 -0.8452  0.3314 -0.5169
  768MOL0     C 3556   4.352   8.300   0.094  0.3104  0.2046  0.4803
  768MOL0     C 3557   4.229   8.214   0.130  0.3245  0.3485  0.1161
  768MOL0     C 3558   4.115   8.264   0.053  0.1906 -0.5665  0.4045
  768MOL0     C 3559   3.984   8.192   0.080  0.4952  0.4336  0.8196
  768MOL0     C 3560   3.970   8.073  -0.017  0.6652  0.7159  0.2984
  768MOL0     C 3561   3.841   7.997   0.005  0.7477 -0.6609 -0.3157
  768MOL0     N 3562   3.723   8.057  -0.063  0.0404 -0.4817 -0.1105
  768MOL0     C 3563   3.634   8.134   0.011 -0.5618 -0.1307  0.1985
  768MOL0     C 3564   3.531   8.155  -0.077 -0.8720  0.2806  1.0629
  768MOL0     C 3565   3.412   8.245  -0.060 -0.2165 -0.3628 -0.2778
  768MOL0     C 3566   3.309   8.173   0.025 -0.4738  1.2366  0.2711
  768MOL0     C 3567   3.198   8.265   0.074 -0.2105  0.3519 -0.1164
  768MOL0     C 3568   3.072   8.194   0.126  0.1313 -1.2546 -0.0352
  768MOL0     O 3569   3.001   8.140   0.011  0.4649  0.5025 -0.0738
  768MOL0     C 3570   2.866   8.172   0.001  0.8407  0.0416  0.3494
  768MOL0     C 3571   2.768   8.119   0.082 -1.3718  0.6449 -0.0263
  768MOL0     C 3572   2.638   8.157   0.057 -0.1358  0.1707 -0.4441
  768MOL0     C 3573   2.543   8.084   0.142  0.2149 -0.0486 -0.3659
  768MOL0     C 3574   2.602   8.251  -0.048 -0.3816 -0.1582  0.1245
  768MOL0     C 3575   2.460   8.282  -0.085 -0.0325 -1.0206  1.1836
  768MOL0     O 3576   2.445   8.377  -0.180  0.3605  0.2073  0.2725
  768MOL0     C 3577   2.329   8.404  -0.250  0.7372 -0.0025  0.4415
  768MOL0     C 3578   2.198   8.358  -0.243 -0.1315  0.1761  0.0410
  768MOL0     C 3579   2.102   8.395  -0.338  0.6603  0.7298  0.1524
  768MOL0     C 3580   2.135   8.474  -0.451  0.5581  0.2742 -0.6714
  768MOL0     O 3581   2.044   8.528  -0.542  0.0535  0.1493 -0.5363
  768MOL0     C 3582   1.927   8.453  -0.570 -1.1549  0.9396 -0.1419
  768MOL0     C 3583   1.873   8.498  -0.702 -0.3119  0.2703 -0.0304
  768MOL0     C 3584   1.733   8.450  -0.740  0.4050  0.5683 -0.2833
  768MOL0     C 3585   1.717   8.301  -0.766  0.0930 -0.4742  0.3456
  768MOL0     C 3586   1.569   8.249  -0.766 -0.2768  0.3544 -0.6973
  768MOL0     C 3587   1.472   8.320  -0.858  0.5063 -0.2182 -0.4303
  768MOL0     C 3588   1.505   8.280  -1.004  0.5333  0.0728 -0.2645
  768MOL0     C 3589   1.454   8.386  -1.106 -0.5665 -0.3196  0.9864
  768MOL0    Cl 3590   1.272   8.397  -1.110 -0.1753  0.1477 -0.0762
  768MOL0     C 3591   2.262   8.533  -0.443  0.2777 -0.0361 -0.1987
  768MOL0     C 3592   2.355   8.499  -0.347  0.5878  0.2428 -0.0566
  768MOL0     O 3593   2.370   8.216  -0.037 -0.3958  0.3794  0.3347
  768MOL0     C 3594   2.706   8.307  -0.120 -0.2820  0.1888 -0.2127
  768MOL0     C 3595   2.839   8.272  -0.094 -0.4982  0.2293 -0.4058
  768MOL0     N 3596   3.560   8.088  -0.190  0.0044  0.9394  0.3993
  768MOL0     N 3597   3.667   8.023  -0.182 -0.3077 -0.3309  0.3128
  768MOL0     C 3598   4.765   8.496  -0.091  0.2102  0.7634 -0.8458
  768MOL0     C 3599   4.883   8.563  -0.114 -0.0286 -0.0357  0.1212
  768MOL0     C 3600   5.339   8.725  -0.006  1.1087  1.0517  0.0834
  768MOL0     C 3601   5.300   8.859  -0.032  0.1590  0.4202  0.3894
  768MOL0     C 3602   5.403   8.953  -0.039 -0.0443 -0.5563  0.0569
  768MOL0     C 3603   5.539   8.926  -0.002 -0.9583  0.5947  0.4391
  768MOL0     O 3604   5.632   9.021  -0.009 -0.1253  0.3343 -0.4704
  768MOL0     C 3605   5.771   8.990  -0.031  0.2060  0.0682  0.6505
  768MOL0     C 3606   5.850   9.006   0.104  1.2664  0.0785  0.5687
  768MOL0     C 3607   5.994   8.964   0.061 -0.2079 -1.0188 -0.2709
  768MOL0     C 3608   6.089   9.048   0.155  0.5898  0.2179 -0.3595
  768MOL0     C 3609   6.224   9.001   0.147 -0.1914 -0.6890  0.0036
  768MOL0     C 3610   6.341   8.961   0.141  0.2927  0.1711  1.0348
  768MOL0     C 3611   5.567   8.787   0.032  0.5501 -0.2857 -0.0618
  768MOL0     C 3612   5.470   8.686   0.026  0.6220 -0.4318 -0.1741
  768MOL0     H 3613   5.058   8.451   0.157 -0.7057 -2.7605 -0.5995
  768MOL0     H 3614   4.825   8.367   0.206 -3.2136 -0.1763 -0.9902
  768MOL0     H 3615   4.502   8.405  -0.121  2.8858 -0.2258 -1.0903
  768MOL0     H 3616   4.598   8.264  -0.138 -2.2113  0.5265 -2.2376
  768MOL0     H 3617   4.356   8.212  -0.109 -0.5566 -2.8233 -0.0275
  768MOL0     H 3618   4.459   8.134  -0.004  4.5569  1.8636 -1.8189
  768MOL0     H 3619   4.423   8.290   0.177 -1.3973 -1.1316  1.8465
  768MOL0     H 3620   4.335   8.406   0.073  0.3998 -0.2641 -2.3263
  768MOL0     H 3621   4.239   8.106   0.119  0.0452  0.3770 -0.4490
  768MOL0     H 3622   4.203   8.231   0.235 -1.1190  0.3359 -0.2151
  768MOL0     H 3623   4.089   8.368   0.074 -0.8166 -0.2417 -2.1388
  768MOL0     H 3624   4.139   8.260  -0.053  0.9816  2.0224  0.4183
  768MOL0     H 3625   3.984   8.145   0.179  2.0287 -0.5400  0.3859
  768MOL0     H 3626   3.901   8.262   0.064 -0.4528 -1.0088 -1.0537
  768MOL0     H 3627   3.971   8.100  -0.123  0.5892 -2.6965 -0.6706
  768MOL0     H 3628   4.054   8.004  -0.003  0.4479 -0.0212 -1.6955
  768MOL0     H 3629   3.822   7.994   0.113 -1.3284  0.8158 -0.5834
  768MOL0     H 3630   3.841   7.894  -0.032 -1.1074 -0.0572 -2.1419
  768MOL0     H 3631   3.635   8.163   0.116  0.4740  1.2994 -0.1748
  768MOL0     H 3632   3.441   8.335  -0.005 -2.7978  0.3725 -0.0256
  768MOL0     H 3633   3.381   8.273  -0.161  1.2365 -1.2043 -1.0122
  768MOL0     H 3634   3.364   8.129   0.108 -0.2515  1.8071  0.4298
  768MOL0     H 3635   3.270   8.088  -0.032  1.0750 -0.0845  1.0807
  768MOL0     H 3636   3.183   8.332  -0.011  3.4597 -0.9307 -1.9473
  768MOL0     H 3637   3.250   8.324   0.150 -0.1930  0.0612  0.1017
  768MOL0     H 3638   3.009   8.268   0.177 -0.9929 -0.9217 -1.8122
  768MOL0     H 3639   3.102   8.124   0.204  0.8408 -0.5075  0.3870
  768MOL0     H 3640   2.800   8.038   0.147 -3.0324  1.1386  1.4841
  768MOL0     H 3641   2.469   8.152   0.185  0.6777  0.0021  0.3803
  768MOL0     H 3642   2.490   8.014   0.077 -1.2839 -0.2760  1.0144
  768MOL0     H 3643   2.593   8.032   0.225  1.5148  1.3801 -0.2136
  768MOL0     H 3644   2.174   8.296  -0.157 -1.5322 -1.7032 -1.5848
  768MOL0     H 3645   2.001   8.362  -0.315  0.8000 -0.8630 -1.2946
  768MOL0     H 3646   1.945   8.346  -0.581 -1.0527  0.9530 -0.1107
  768MOL0     H 3647   1.853   8.461  -0.490 -0.8759 -1.9992  0.5218
  768MOL0     H 3648   1.874   8.606  -0.714  1.3949  0.0906 -1.9650
  768MOL0     H 3649   1.940   8.470  -0.783 -0.4497 -1.6003  0.4500
  768MOL0     H 3650   1.703   8.495  -0.835 -3.2223  0.0718  0.4796
  768MOL0     H 3651   1.662   8.487  -0.666  3.2218 -1.3352  3.7231
  768MOL0     H 3652   1.766   8.288  -0.863  2.7904 -0.5614  1.6347
  768MOL0     H 3653   1.777   8.242  -0.696  0.1522 -0.3486  0.3990
  768MOL0     H 3654   1.542   8.267  -0.661  3.0473 -1.0226  0.5335
  768MOL0     H 3655   1.570   8.141  -0.785  0.4586  0.5075 -1.5634
  768MOL0     H 3656   1.364   8.309  -0.844  0.3206 -0.9731 -2.1928
  768MOL0     H 3657   1.488   8.427  -0.839  1.6015 -1.1558  6.3672
  768MOL0     H 3658   1.455   8.185  -1.028 -1.2846  1.5891 -3.0476
  768MOL0     H 3659   1.612   8.279  -1.028  0.0711  1.2217 -2.6517
  768MOL0     H 3660   1.496   8.363  -1.204  0.4088  0.2036  1.2693
  768MOL0     H 3661   1.477   8.487  -1.072 -3.2031  0.5843  0.3168
  768MOL0     H 3662   2.292   8.616  -0.507 -1.7086  1.7112  1.0339
  768MOL0     H 3663   2.448   8.551  -0.331  0.6623 -0.3279  1.5536
  768MOL0     H 3664   2.680   8.373  -0.202  0.0479  0.3553 -0.1812
  768MOL0     H 3665   2.914   8.324  -0.153 -0.3585  0.2638 -0.2006
  768MOL0     H 3666   4.687   8.494  -0.166 -2.7460 -0.6857  2.0377
  768MOL0     H 3667   4.897   8.631  -0.198 -1.4465 -1.4219 -1.2955
  768MOL0     H 3668   5.197   8.882  -0.055 -0.4671 -0.6643  1.9138
  768MOL0     H 3669   5.388   9.051  -0.083  0.2646 -1.1212 -1.3643
  768MOL0     H 3670   5.788   8.896  -0.083 -1.4983  0.4748 -0.7289
  768MOL0     H 3671   5.806   9.068  -0.100  0.5229 -0.4894  0.1773
  768MOL0     H 3672   5.826   8.936   0.185  0.1644 -0.0768  0.1231
  768MOL0     H 3673   5.838   9.111   0.134 -4.1662 -0.8310  2.9200
  768MOL0     H 3674   6.019   8.989  -0.043 -1.6529 -0.8447 -0.5914
  768MOL0     H 3675   6.011   8.856   0.064  0.4050 -0.9520 -0.9491
  768MOL0     H 3676   6.045   9.022   0.252  2.2712 -5.1952 -0.7315
  768MOL0     H 3677   6.070   9.154   0.135 -2.8129 -0.0752  0.6298
  768MOL0     H 3678   6.443   8.932   0.151 -0.3105 -1.5565  2.8282
  768MOL0     H 3679   5.666   8.751   0.060  0.0107 -2.4926 -0.7402
  768MOL0     H 3680   5.499   8.584   0.048 -1.5252 -0.7781  1.4463
  769MOL0     O 3681   9.895   5.775   5.550 -0.0457  0.8809 -0.5772
  769MOL0     C 3682   9.960   5.829   5.460  0.5010  0.1198  0.3024
  769MOL0     O 3683   9.913   5.860   5.335  0.2330 -0.2119 -0.1771
  769MOL0     C 3684   9.778   5.852   5.324  0.0407  0.0374 -0.6124
  769MOL0     C 3685   9.715   5.732   5.319 -0.1502  0.3951  0.2981
  769MOL0     C 3686   9.573   5.721   5.309 -0.3611  0.5355  0.0663
  769MOL0     C 3687   9.501   5.839   5.311  1.3419  0.1491 -0.1702
  769MOL0     O 3688   9.364   5.842   5.300 -0.0386 -0.0801 -0.3990
  769MOL0     C 3689   9.278   5.750   5.229  0.0130 -0.4941 -0.1952
  769MOL0     C 3690   9.143   5.819   5.216 -0.1316 -0.0487  0.4533
  769MOL0     C 3691   9.142   5.925   5.110  1.0021 -0.6067  0.5311
  769MOL0     C 3692   8.996   5.938   5.059  0.1756 -0.8727  0.1357
  769MOL0     C 3693   8.990   6.026   4.934  0.4190  0.1766  0.6106
  769MOL0     C 3694   8.845   6.042   4.886 -0.2377 -0.7703  0.0902
  769MOL0     C 3695   8.834   6.140   4.770  0.2984  0.3372  1.0689
  769MOL0     C 3696   8.696   6.179   4.732  0.0929  0.0880 -0.5384
  769MOL0     N 3697   8.616   6.073   4.689  0.4714  0.7138  0.0697
  769MOL0     C 3698   8.647   5.977   4.600  0.5995 -0.0625 -0.2739
  769MOL0     C 3699   8.525   5.916   4.570 -0.1149 -0.2902 -0.0077
  769MOL0     C 3700   8.516   5.787   4.495  0.7143  1.5039 -0.0114
  769MOL0     C 3701   8.488   5.657   4.575  0.7277 -0.0656  0.0255
  769MOL0     C 3702   8.365   5.666   4.668 -0.3606 -0.3751  0.4379
  769MOL0     C 3703   8.348   5.535   4.750  0.3157 -0.4584  0.4445
  769MOL0     O 3704   8.286   5.436   4.662 -0.6668  0.3261  0.2382
  769MOL0     C 3705   8.159   5.450   4.633  0.3811 -1.2673  0.0325
  769MOL0     C 3706   8.116   5.371   4.531 -0.2485 -0.4630  0.0605
  769MOL0     C 3707   7.975   5.360   4.500  0.1589 -0.4645  0.5609
  769MOL0     C 3708   7.947   5.272   4.379  0.6284 -0.8479 -0.3004
  769MOL0     C 3709   7.881   5.438   4.576  0.0702  0.2246  0.1418
  769MOL0     C 3710   7.735   5.447   4.556  0.2333 -0.3676 -0.0661
  769MOL0     O 3711   7.665   5.558   4.609 -0.7057  0.2855  0.2771
  769MOL0     C 3712   7.531   5.574   4.580  0.7758  0.1986 -0.6170
  769MOL0     C 3713   7.488   5.583   4.452  0.3935 -0.0548  0.1229
  769MOL0     C 3714   7.358   5.607   4.419 -0.9758 -0.6159  0.0027
  769MOL0     C 3715   7.263   5.631   4.523 -0.6411 -0.3478 -0.1928
  769MOL0     O 3716   7.128   5.667   4.510 -0.4316  0.4599  0.1184
  769MOL0     C 3717   7.093   5.708   4.376 -0.2627 -0.2191 -0.4113
  769MOL0     C 3718   6.965   5.771   4.377  0.0167 -0.0150  0.3604
  769MOL0     C 3719   6.836   5.697   4.436 -1.4697 -0.6407  0.3021
  769MOL0     C 3720   6.713   5.786   4.425 -0.5404  0.0951 -0.7204
  769MOL0     C 3721   6.591   5.700   4.468 -0.6383 -0.1820  0.2363
  769MOL0     C 3722   6.468   5.762   4.412 -0.0242 -0.3566  0.3015
  769MOL0     C 3723   6.344   5.692   4.463 -0.3390 -0.3106  0.5859
  769MOL0     C 3724   6.220   5.752   4.398  0.4711 -0.5383  1.3923
  769MOL0    Cl 3725   6.193   5.668   4.242  0.1403  0.3987  0.0400
  769MOL0     C 3726   7.303   5.616   4.656 -0.4316 -0.3776 -0.6014
  769MOL0     C 3727   7.435   5.585   4.683  0.7034 -0.4923  0.2194
  769MOL0     O 3728   7.687   5.355   4.494  0.0924  0.3371  1.4617
  769MOL0     C 3729   7.929   5.516   4.678  0.6247 -0.2220 -0.8364
  769MOL0     C 3730   8.068   5.528   4.703 -0.1593  0.5436 -0.2186
  769MOL0     N 3731   8.431   5.985   4.641 -0.1337 -0.6426  0.9359
  769MOL0     N 3732   8.485   6.074   4.718 -0.1952  0.4939  0.2200
  769MOL0     C 3733   9.567   5.966   5.320 -0.1405  0.1482 -0.3705
  769MOL0     C 3734   9.703   5.969   5.326  0.6162  0.1958  0.4473
  769MOL0     C 3735  10.105   5.844   5.498  0.7164  0.5243 -0.8439
  769MOL0     C 3736  10.174   5.766   5.585 -0.8605 -0.2092 -0.5825
  769MOL0     C 3737  10.307   5.790   5.630 -0.5480 -0.1216 -0.3091
  769MOL0     C 3738  10.374   5.899   5.589  0.4552  0.1458 -0.1495
  769MOL0     O 3739  10.503   5.930   5.627 -0.1572  0.3039  0.1431
  769MOL0     C 3740  10.573   5.840   5.701  0.1293 -0.1437  0.3760
  769MOL0     C 3741  10.708   5.890   5.742 -0.5957  0.1551  0.1311
  769MOL0     C 3742  10.819   5.859   5.634  0.5487 -0.2684  0.4075
  769MOL0     C 3743  10.954   5.928   5.659  0.5582 -0.2152  0.6219
  769MOL0     C 3744  11.038   5.859   5.762 -0.0869  0.3786 -0.0218
  769MOL0     C 3745  11.095   5.835   5.867  0.1145  0.5021  0.3954
  769MOL0     C 3746  10.311   5.973   5.489  0.1718 -0.1610  0.1759
  769MOL0     C 3747  10.182   5.949   5.446  0.4166  0.5682  0.0875
  769MOL0     H 3748   9.778   5.644   5.328  0.0689  0.6609  1.5498
  769MOL0     H 3749   9.535   5.619   5.308  0.2018  0.2797 -2.5788
  769MOL0     H 3750   9.317   5.727   5.129  3.7855  0.4583  0.8821
  769MOL0     H 3751   9.256   5.654   5.277 -3.1298 -1.2897 -2.9017
  769MOL0     H 3752   9.074   5.739   5.187  0.5021 -0.4892  0.1387
  769MOL0     H 3753   9.090   5.856   5.305  0.8174 -0.3942  1.1720
  769MOL0     H 3754   9.180   6.022   5.143 -4.8729  2.7464 -1.0073
  769MOL0     H 3755   9.190   5.893   5.017  0.4728 -0.6138  0.2545
  769MOL0     H 3756   8.952   5.842   5.031 -2.6441  0.2072  0.4682
  769MOL0     H 3757   8.937   5.978   5.143  1.1541 -0.7186  0.7654
  769MOL0     H 3758   9.024   6.125   4.965 -2.6470  1.4984  0.0193
  769MOL0     H 3759   9.058   5.988   4.857 -0.3964  0.2042 -0.1295
  769MOL0     H 3760   8.813   5.942   4.856  1.0353 -1.1248 -0.1558
  769MOL0     H 3761   8.782   6.079   4.967 -3.9739 -0.7199 -2.5416
  769MOL0     H 3762   8.885   6.230   4.803  1.6029 -0.2479  0.7024
  769MOL0     H 3763   8.883   6.085   4.690 -0.5373 -1.4324  1.7110
  769MOL0     H 3764   8.697   6.254   4.652 -0.7160  0.5398 -0.1373
  769MOL0     H 3765   8.655   6.220   4.824 -0.2143  0.2456 -0.7429
  769MOL0     H 3766   8.747   5.956   4.562  1.1465 -0.6940  1.3997
  769MOL0     H 3767   8.433   5.800   4.425  1.4218  1.7168 -0.8250
  769MOL0     H 3768   8.609   5.773   4.440 -0.3604 -0.4877 -1.4233
  769MOL0     H 3769   8.580   5.639   4.631  0.7667  1.1657  0.3681
  769MOL0     H 3770   8.492   5.571   4.507  0.5340 -0.3654  0.3854
  769MOL0     H 3771   8.272   5.686   4.614 -0.4084  0.7106  0.9045
  769MOL0     H 3772   8.382   5.751   4.735  3.9502 -1.6206  1.2337
  769MOL0     H 3773   8.289   5.556   4.840 -0.0172  1.5552 -0.2022
  769MOL0     H 3774   8.449   5.498   4.771  1.4455  1.3296 -1.4497
  769MOL0     H 3775   8.183   5.298   4.486  1.7125  0.9885  0.4855
  769MOL0     H 3776   8.026   5.229   4.317 -0.7735 -4.2327  0.0742
  769MOL0     H 3777   7.876   5.193   4.406 -0.3898 -0.3646 -1.4728
  769MOL0     H 3778   7.897   5.345   4.316  0.0261  0.8664  2.0113
  769MOL0     H 3779   7.562   5.573   4.373  0.2567  1.5217 -0.2325
  769MOL0     H 3780   7.327   5.615   4.315 -1.0970 -0.4287  0.0526
  769MOL0     H 3781   7.166   5.779   4.337  0.5027 -1.5316 -1.4419
  769MOL0     H 3782   7.102   5.618   4.315 -0.5648 -0.8034  0.3912
  769MOL0     H 3783   6.975   5.858   4.442 -0.3263 -0.9556  1.7334
  769MOL0     H 3784   6.933   5.799   4.277 -0.6801 -1.3634  0.1678
  769MOL0     H 3785   6.864   5.653   4.532  2.3196  0.4278 -0.1706
  769MOL0     H 3786   6.805   5.613   4.372 -1.6866 -1.9861  2.0907
  769MOL0     H 3787   6.717   5.882   4.478 -1.7506 -0.1494 -0.1593
  769MOL0     H 3788   6.701   5.813   4.320 -1.2694  1.4411 -0.3073
  769MOL0     H 3789   6.576   5.697   4.577 -1.3382  1.0448  0.1905
  769MOL0     H 3790   6.604   5.599   4.428  2.0966  0.5621 -1.0153
  769MOL0     H 3791   6.471   5.865   4.449  0.9712 -0.5601  0.8332
  769MOL0     H 3792   6.476   5.767   4.303  1.4927  0.0327  0.4089
  769MOL0     H 3793   6.333   5.705   4.571  1.0067 -0.3896  0.7535
  769MOL0     H 3794   6.350   5.583   4.452 -4.2104 -0.5063 -0.9917
  769MOL0     H 3795   6.226   5.859   4.381 -2.9686 -0.4062  0.1843
  769MOL0     H 3796   6.129   5.724   4.451 -0.5569 -0.1617 -0.0983
  769MOL0     H 3797   7.227   5.625   4.733 -0.6882 -1.4120 -0.7323
  769MOL0     H 3798   7.465   5.577   4.787 -1.7357  2.4569  1.2881
  769MOL0     H 3799   7.859   5.579   4.733  1.3043 -0.1275 -0.0738
  769MOL0     H 3800   8.094   5.586   4.792  0.0625 -1.0969  0.8278
  769MOL0     H 3801   9.508   6.058   5.320  0.3570  0.4756  0.0575
  769MOL0     H 3802   9.751   6.066   5.335 -0.8798  1.2098 -1.4392
  769MOL0     H 3803  10.116   5.679   5.613 -0.3322 -0.1006  0.9222
  769MOL0     H 3804  10.344   5.720   5.704 -1.7929 -0.5225 -0.0307
  769MOL0     H 3805  10.512   5.824   5.790 -0.5781  0.2938 -0.0169
  769MOL0     H 3806  10.575   5.745   5.646 -1.2240  0.9950 -1.8025
  769MOL0     H 3807  10.745   5.845   5.835 -0.7527 -1.0664 -0.3723
  769MOL0     H 3808  10.691   5.998   5.748  1.0350  0.3797  1.2366
  769MOL0     H 3809  10.780   5.906   5.543  2.8547  3.7997  1.2904
  769MOL0     H 3810  10.845   5.753   5.623  2.4982  0.2373 -0.2835
  769MOL0     H 3811  10.944   6.033   5.688  0.0514  0.1257 -0.7588
  769MOL0     H 3812  11.008   5.931   5.565  0.4733 -2.2581  0.4716
  769MOL0     H 3813  11.155   5.825   5.956  1.8647 -0.3496 -0.8309
  769MOL0     H 3814  10.358   6.061   5.444 -2.7391  0.5454 -1.7389
  769MOL0     H 3815  10.127   6.017   5.382  1.3771  0.1752 -1.1914
  770MOL0     O 3816   2.127   0.103   9.557  0.3940 -0.3369  0.1321
  770MOL0     C 3817   2.133   0.132   9.437 -0.3774 -0.5096  0.0229
  770MOL0     O 3818   2.042   0.198   9.366 -0.2890 -0.9897  0.7198
  770MOL0     C 3819   1.929   0.227   9.430 -0.5384 -0.4774  0.0791
  770MOL0     C 3820   1.908   0.359   9.468 -0.1520 -0.3937  0.4579
  770MOL0     C 3821   1.792   0.386   9.546 -0.7409  0.2165 -0.5549
  770MOL0     C 3822   1.702   0.287   9.577 -0.0900  0.1524  0.6216
  770MOL0     O 3823   1.597   0.300   9.663  0.2997  0.0519 -0.1544
  770MOL0     C 3824   1.619   0.235   9.787 -0.3695  0.0217  0.0812
  770MOL0     C 3825   1.522   0.289   9.887 -0.1372 -0.5562  0.0118
  770MOL0     C 3826   1.568   0.436   9.929 -0.2511 -0.1521 -0.8667
  770MOL0     C 3827   1.468   0.517  10.011  0.2861  0.4389 -0.4049
  770MOL0     C 3828   1.528   0.651  10.032 -0.0276 -0.2673  0.1196
  770MOL0     C 3829   1.439   0.742  10.118  0.3758  0.4108 -0.2447
  770MOL0     C 3830   1.504   0.883  10.113 -0.3065 -0.3741 -0.2973
  770MOL0     C 3831   1.414   0.989  10.170  0.0457  0.2857  0.0489
  770MOL0     N 3832   1.316   0.949  10.271  0.0380  0.3264 -0.5001
  770MOL0     C 3833   1.179   0.929  10.258  0.0608 -0.3041 -0.3567
  770MOL0     C 3834   1.127   0.931  10.385  0.3767  0.4495 -0.1872
  770MOL0     C 3835   0.985   0.901  10.429  0.5156 -0.9972 -0.0149
  770MOL0     C 3836   0.927   0.766  10.391 -0.7987  0.3045 -0.0596
  770MOL0     C 3837   0.783   0.756  10.447  0.1639  0.6842  0.3815
  770MOL0     C 3838   0.715   0.634  10.373 -0.1430 -0.7542  0.6025
  770MOL0     O 3839   0.771   0.512  10.406  0.1646  0.2781  0.4253
  770MOL0     C 3840   0.788   0.479  10.539  0.4676 -0.3700  0.3521
  770MOL0     C 3841   0.680   0.492  10.623  0.0524 -0.0185 -0.0809
  770MOL0     C 3842   0.683   0.440  10.754  0.0240  0.4002  0.2486
  770MOL0     C 3843   0.549   0.427  10.832 -0.3825  0.1785  0.6993
  770MOL0     C 3844   0.802   0.385  10.806 -0.7489  0.9344 -0.2810
  770MOL0     C 3845   0.816   0.326  10.944  1.0745  0.5604  0.0303
  770MOL0     O 3846   0.908   0.232  10.957  0.3505  0.5870  0.2497
  770MOL0     C 3847   0.882   0.129  11.043  0.3234 -0.5513 -0.6357
  770MOL0     C 3848   0.997   0.074  11.099 -0.2480  0.1275 -0.1324
  770MOL0     C 3849   0.989  -0.052  11.160  0.2281  0.4885 -0.8468
  770MOL0     C 3850   0.871  -0.125  11.172 -0.0795 -0.4969 -0.1453
  770MOL0     O 3851   0.863  -0.233  11.253  0.0756  0.1106 -0.9005
  770MOL0     C 3852   0.751  -0.247  11.342 -0.5054 -0.2352 -0.2232
  770MOL0     C 3853   0.680  -0.371  11.284 -0.5337 -0.2571  0.1236
  770MOL0     C 3854   0.555  -0.411  11.368  0.3406  0.2508  1.1176
  770MOL0     C 3855   0.433  -0.453  11.282  0.4452  0.1011  0.1971
  770MOL0     C 3856   0.321  -0.493  11.381 -0.1123  0.0872 -0.8418
  770MOL0     C 3857   0.195  -0.550  11.306 -0.5864 -0.9087 -0.1214
  770MOL0     C 3858   0.075  -0.556  11.400  0.3758 -0.5550 -0.5477
  770MOL0     C 3859  -0.045  -0.621  11.324 -0.1993  0.3576  0.3002
  770MOL0    Cl 3860  -0.082  -0.512  11.179 -0.0981  0.2112  0.0258
  770MOL0     C 3861   0.760  -0.064  11.104  0.1567  1.2886  0.0436
  770MOL0     C 3862   0.766   0.057  11.044 -1.7097  0.3107  0.3826
  770MOL0     O 3863   0.740   0.367  11.034 -0.2658  0.0929  0.1287
  770MOL0     C 3864   0.914   0.386  10.728 -0.1016  0.2596  0.2479
  770MOL0     C 3865   0.903   0.427  10.591 -0.3487 -0.1517 -0.1757
  770MOL0     N 3866   1.233   0.958  10.464 -0.1586 -0.7183  0.0148
  770MOL0     N 3867   1.345   0.964  10.403 -0.8125 -0.4270  1.7816
  770MOL0     C 3868   1.728   0.156   9.539  0.0126 -1.0904  0.0655
  770MOL0     C 3869   1.833   0.129   9.455  1.2801 -1.2650  0.9178
  770MOL0     C 3870   2.269   0.118   9.382 -0.3203  0.1073  0.6862
  770MOL0     C 3871   2.314   0.174   9.264 -0.7625  0.2757  0.1406
  770MOL0     C 3872   2.447   0.161   9.221  0.6509 -0.2737 -0.5887
  770MOL0     C 3873   2.548   0.093   9.298  0.2768  0.7671  0.9549
  770MOL0     O 3874   2.677   0.059   9.252  0.2627  0.7106  0.5468
  770MOL0     C 3875   2.748   0.161   9.192  0.0688  0.5803 -0.2361
  770MOL0     C 3876   2.815   0.248   9.292  0.3576  0.8318 -0.0764
  770MOL0     C 3877   2.925   0.334   9.240  0.7037  1.4518  0.6554
  770MOL0     C 3878   3.014   0.384   9.348  0.1685 -0.1014 -0.1505
  770MOL0     C 3879   2.965   0.503   9.417 -0.0618 -0.1342  0.2661
  770MOL0     C 3880   2.902   0.588   9.481 -0.1993 -0.1943 -0.9990
  770MOL0     C 3881   2.507   0.032   9.408  0.7162  0.1354  0.1769
  770MOL0     C 3882   2.372   0.041   9.452 -0.1033 -0.6062 -0.0167
  770MOL0     H 3883   1.979   0.434   9.435 -2.4167  1.2735 -0.8861
  770MOL0     H 3884   1.766   0.486   9.578  0.0146 -0.5219  2.7063
  770MOL0     H 3885   1.598   0.128   9.780  0.0553 -0.0018 -1.0265
  770MOL0     H 3886   1.722   0.251   9.820 -0.7305  1.8064  0.4130
  770MOL0     H 3887   1.422   0.283   9.845  0.4427 -0.0010 -1.4856
  770MOL0     H 3888   1.517   0.226   9.977 -4.4380  0.0735  0.4311
  770MOL0     H 3889   1.656   0.444   9.993 -1.9205  3.3727  1.3219
  770MOL0     H 3890   1.586   0.485   9.834 -0.0585 -0.5174 -1.0194
  770MOL0     H 3891   1.374   0.525   9.955 -0.1814  1.4706  0.4736
  770MOL0     H 3892   1.451   0.470  10.109 -0.9457 -0.4031 -0.9954
  770MOL0     H 3893   1.628   0.648  10.077  1.0438 -1.7688 -2.1502
  770MOL0     H 3894   1.539   0.686   9.929 -2.1473 -0.8691 -0.3538
  770MOL0     H 3895   1.338   0.753  10.078  1.7139  0.7996 -3.8783
  770MOL0     H 3896   1.430   0.706  10.221 -1.3158 -1.8627 -1.0961
  770MOL0     H 3897   1.594   0.878  10.174 -1.4386  0.2154  1.5039
  770MOL0     H 3898   1.533   0.913  10.012 -0.4296 -1.2208 -0.5872
  770MOL0     H 3899   1.367   1.023  10.077 -0.7666 -0.9581 -0.0212
  770MOL0     H 3900   1.479   1.068  10.207 -1.1340 -0.1342  3.3182
  770MOL0     H 3901   1.124   0.905  10.168  0.0948  2.8049 -1.3228
  770MOL0     H 3902   0.981   0.913  10.538  4.2763  5.6857 -0.1264
  770MOL0     H 3903   0.924   0.981  10.386  2.2228  0.2101 -0.3009
  770MOL0     H 3904   0.999   0.692  10.427  0.8505  0.9188 -1.8771
  770MOL0     H 3905   0.927   0.755  10.282 -1.8683 -3.2540  0.1956
  770MOL0     H 3906   0.726   0.841  10.410  0.5533  0.8990  0.2634
  770MOL0     H 3907   0.776   0.753  10.556  2.2212  1.9584  0.6156
  770MOL0     H 3908   0.724   0.649  10.265 -3.0026  0.9843  0.5195
  770MOL0     H 3909   0.608   0.637  10.396 -0.3463  1.3788 -0.4131
  770MOL0     H 3910   0.584   0.530  10.586 -0.8209 -0.2746  1.8206
  770MOL0     H 3911   0.535   0.334  10.889  0.2206  0.0319  0.6209
  770MOL0     H 3912   0.557   0.503  10.909 -2.4018 -2.8149  4.1368
  770MOL0     H 3913   0.462   0.448  10.770 -1.2332 -1.0772  1.4280
  770MOL0     H 3914   1.089   0.132  11.095 -0.4047  0.3693 -0.2540
  770MOL0     H 3915   1.072  -0.089  11.220 -0.2365 -0.3045 -0.6692
  770MOL0     H 3916   0.791  -0.272  11.440 -1.3433  2.4501  0.8979
  770MOL0     H 3917   0.686  -0.159  11.353  1.1396  1.0834 -0.6104
  770MOL0     H 3918   0.649  -0.354  11.181 -0.0950  1.9348  0.3038
  770MOL0     H 3919   0.754  -0.453  11.279 -1.5846 -1.1774 -1.0088
  770MOL0     H 3920   0.518  -0.328  11.430 -0.0998  2.8290 -2.2641
  770MOL0     H 3921   0.588  -0.496  11.427  1.8027 -0.7128 -0.9559
  770MOL0     H 3922   0.405  -0.373  11.213  0.2942 -0.9958 -1.0596
  770MOL0     H 3923   0.461  -0.548  11.236  3.2237  0.5579  0.7991
  770MOL0     H 3924   0.290  -0.406  11.440 -0.4746  0.5777 -1.7283
  770MOL0     H 3925   0.348  -0.572  11.451 -1.3718  0.5813  0.2509
  770MOL0     H 3926   0.180  -0.487  11.218 -0.7503 -0.6625  0.0842
  770MOL0     H 3927   0.224  -0.645  11.261  1.8857 -1.5514  2.5183
  770MOL0     H 3928   0.055  -0.454  11.432  0.7912 -0.8522  0.7266
  770MOL0     H 3929   0.100  -0.615  11.488 -0.2944 -1.7398 -1.1310
  770MOL0     H 3930  -0.131  -0.623  11.392 -1.6923 -1.2325 -1.5241
  770MOL0     H 3931  -0.015  -0.719  11.285 -1.6323  0.4321 -1.0850
  770MOL0     H 3932   0.662  -0.111  11.101  0.7476  0.0200 -0.0472
  770MOL0     H 3933   0.683   0.101  10.990 -1.5234  0.3226  0.1042
  770MOL0     H 3934   1.010   0.347  10.760  0.1851  1.1743  0.5190
  770MOL0     H 3935   0.988   0.419  10.524 -0.9268  0.2245 -0.9799
  770MOL0     H 3936   1.656   0.080   9.567 -0.9617 -0.6954 -1.2805
  770MOL0     H 3937   1.840   0.028   9.417 -2.7376 -0.7615 -1.7660
  770MOL0     H 3938   2.243   0.233   9.206 -1.3936 -0.1734  0.4477
  770MOL0     H 3939   2.477   0.208   9.128  0.8274  0.6588 -0.0704
  770MOL0     H 3940   2.831   0.109   9.143  0.8955 -0.6648  2.3268
  770MOL0     H 3941   2.684   0.226   9.132  1.2051  2.1587  0.1914
  770MOL0     H 3942   2.855   0.186   9.373  1.0945  2.1878  0.6365
  770MOL0     H 3943   2.742   0.316   9.339  0.0717  0.8329 -0.5170
  770MOL0     H 3944   2.888   0.421   9.184  0.1131  1.8015  1.5724
  770MOL0     H 3945   2.990   0.271   9.178  1.4653  1.2711  1.6023
  770MOL0     H 3946   3.103   0.415   9.291  1.0573  1.1964  1.8121
  770MOL0     H 3947   3.042   0.312   9.425  0.1311 -0.5849 -0.5886
  770MOL0     H 3948   2.844   0.651   9.546  1.1953 -0.8477  0.9854
  770MOL0     H 3949   2.580  -0.014   9.472  0.1839  1.0275  1.4619
  770MOL0     H 3950   2.357  -0.004   9.549  2.4117  1.2598  1.3476
  771MOL0     O 3951   2.979   4.339  10.476 -0.0579 -0.1187 -0.4954
  771MOL0     C 3952   2.976   4.216  10.460 -0.4184 -0.2554 -0.5896
  771MOL0     O 3953   2.859   4.143  10.443  0.2806  0.2305  0.1648
  771MOL0     C 3954   2.731   4.200  10.446  0.3370 -0.3901  0.1023
  771MOL0     C 3955   2.687   4.295  10.542 -0.6671 -0.4097 -0.4524
  771MOL0     C 3956   2.562   4.354  10.527  0.0523 -1.1022 -0.9905
  771MOL0     C 3957   2.471   4.304  10.442 -0.0642 -0.2492  0.2041
  771MOL0     O 3958   2.351   4.364  10.434 -0.4687  0.4805  0.3538
  771MOL0     C 3959   2.283   4.391  10.554 -0.0148 -0.3156  0.4256
  771MOL0     C 3960   2.141   4.426  10.519  0.0195  0.8473  0.4713
  771MOL0     C 3961   2.116   4.548  10.437  0.2313  0.2893  0.2228
  771MOL0     C 3962   1.965   4.580  10.435  0.3410  0.1267 -0.0727
  771MOL0     C 3963   1.876   4.518  10.330  0.1720  0.7161  0.2560
  771MOL0     C 3964   1.727   4.563  10.355 -0.2061 -0.0671 -0.7667
  771MOL0     C 3965   1.633   4.524  10.236  0.3479 -0.1295  0.2860
  771MOL0     C 3966   1.548   4.392  10.231 -0.3561  0.7270  0.4245
  771MOL0     N 3967   1.471   4.369  10.352 -0.0280  0.4923  0.8616
  771MOL0     C 3968   1.417   4.244  10.383 -0.0634 -0.5112  0.3840
  771MOL0     C 3969   1.325   4.271  10.475 -0.7241  0.7644  0.5019
  771MOL0     C 3970   1.241   4.164  10.547 -0.4150  0.2853 -0.0460
  771MOL0     C 3971   1.133   4.099  10.469  0.2053  0.5158  0.4561
  771MOL0     C 3972   1.022   4.202  10.457  0.1980 -0.2888  0.5089
  771MOL0     C 3973   0.896   4.160  10.376 -0.1022 -0.1458 -0.6044
  771MOL0     O 3974   0.847   4.032  10.418 -0.1615  0.1247 -0.5289
  771MOL0     C 3975   0.727   3.991  10.377 -1.0202 -0.4367  0.4750
  771MOL0     C 3976   0.685   3.866  10.423 -0.0583  0.0715 -0.4098
  771MOL0     C 3977   0.575   3.806  10.368 -0.2116 -0.0027  0.1582
  771MOL0     C 3978   0.561   3.655  10.395  0.3920 -0.0587  0.0434
  771MOL0     C 3979   0.489   3.873  10.282 -0.2473 -0.6735  0.0207
  771MOL0     C 3980   0.365   3.823  10.224 -0.0742  1.2488  0.6204
  771MOL0     O 3981   0.309   3.893  10.126 -0.0453 -0.3171  0.1356
  771MOL0     C 3982   0.193   3.863  10.082  1.0132  0.1441 -0.5181
  771MOL0     C 3983   0.180   3.767   9.980  0.0823  0.6014 -0.5464
  771MOL0     C 3984   0.059   3.744   9.922 -0.2386  0.2795 -0.6017
  771MOL0     C 3985  -0.050   3.808   9.967 -0.5060 -0.1577  0.0581
  771MOL0     O 3986  -0.180   3.807   9.907  0.2672 -0.0866  0.4885
  771MOL0     C 3987  -0.222   3.684   9.846 -0.3046  0.3837  0.5971
  771MOL0     C 3988  -0.373   3.677   9.874 -0.7211  0.1739  0.5069
  771MOL0     C 3989  -0.456   3.784   9.802  0.7177  0.4519 -0.0268
  771MOL0     C 3990  -0.608   3.755   9.823 -0.3511  0.2976  0.6906
  771MOL0     C 3991  -0.685   3.829   9.712 -0.3413  0.0805  0.0380
  771MOL0     C 3992  -0.840   3.830   9.731 -0.2913 -0.1678  0.3688
  771MOL0     C 3993  -0.902   3.693   9.682  0.2601 -0.6714  0.1320
  771MOL0     C 3994  -1.059   3.697   9.674 -0.9273  0.6011  0.3001
  771MOL0    Cl 3995  -1.116   3.534   9.612 -0.3309 -0.1024  0.2247
  771MOL0     C 3996  -0.045   3.894  10.079 -0.0469  0.5182 -0.1060
  771MOL0     C 3997   0.079   3.929  10.128  0.9732 -0.9725  0.3393
  771MOL0     O 3998   0.319   3.718  10.273  0.2510 -0.7057 -0.0122
  771MOL0     C 3999   0.518   4.013  10.250  0.4124  0.8089 -0.6444
  771MOL0     C 4000   0.638   4.062  10.288  0.0773 -0.4226  0.0502
  771MOL0     N 4001   1.316   4.404  10.499  0.9538 -0.5724 -0.3578
  771MOL0     N 4002   1.411   4.462  10.425  0.4227 -0.4204  0.7629
  771MOL0     C 4003   2.508   4.202  10.350  0.3826 -1.3713 -0.7128
  771MOL0     C 4004   2.639   4.152  10.347 -0.5349  0.1149 -0.5606
  771MOL0     C 4005   3.100   4.129  10.473  0.1307 -0.7271  0.0152
  771MOL0     C 4006   3.102   3.993  10.464 -0.0228  0.5576  0.2685
  771MOL0     C 4007   3.213   3.921  10.477  0.1367 -0.6747  0.2746
  771MOL0     C 4008   3.338   3.977  10.497  0.1431 -0.5305  0.0736
  771MOL0     O 4009   3.448   3.898  10.505  0.2632  1.0371 -0.0479
  771MOL0     C 4010   3.579   3.957  10.533  0.2938 -0.0469 -0.6290
  771MOL0     C 4011   3.683   3.865  10.588 -0.1578  0.4697  0.4473
  771MOL0     C 4012   3.773   3.813  10.475  0.6455 -0.1042  0.7319
  771MOL0     C 4013   3.887   3.741  10.531 -0.6276 -0.5886 -0.0900
  771MOL0     C 4014   3.970   3.691  10.423 -0.5728  0.8571 -0.3862
  771MOL0     C 4015   4.059   3.638  10.352 -0.1253  0.1737  0.3260
  771MOL0     C 4016   3.341   4.120  10.497  0.3111 -0.2460 -0.3622
  771MOL0     C 4017   3.222   4.192  10.494 -0.1117  0.3966  1.0587
  771MOL0     H 4018   2.749   4.329  10.624 -0.9497 -0.8701 -0.0436
  771MOL0     H 4019   2.534   4.431  10.599  2.4054 -2.8162  2.0146
  771MOL0     H 4020   2.304   4.308  10.621  3.1426  0.9963  1.2663
  771MOL0     H 4021   2.322   4.484  10.597 -0.4699  0.4204 -0.6765
  771MOL0     H 4022   2.090   4.348  10.463 -0.0765  1.2430  0.0002
  771MOL0     H 4023   2.085   4.443  10.612  1.3612  1.7744  1.1453
  771MOL0     H 4024   2.166   4.635  10.481 -0.2505 -0.2359  1.8675
  771MOL0     H 4025   2.152   4.530  10.335  1.6249 -0.1053  0.7571
  771MOL0     H 4026   1.911   4.551  10.526 -2.6557  0.2794 -1.6618
  771MOL0     H 4027   1.954   4.689  10.429  0.8617  0.1231 -1.4790
  771MOL0     H 4028   1.914   4.553  10.233 -0.9880  0.5407 -0.2850
  771MOL0     H 4029   1.876   4.409  10.340 -2.5511  0.6163  0.0711
  771MOL0     H 4030   1.686   4.531  10.452 -1.9085 -0.6086 -1.6320
  771MOL0     H 4031   1.738   4.672  10.359  2.9444 -0.0083 -4.7615
  771MOL0     H 4032   1.564   4.608  10.223  0.4562 -0.1895 -0.7689
  771MOL0     H 4033   1.703   4.530  10.153  0.5038  2.0849  0.5321
  771MOL0     H 4034   1.618   4.312  10.207 -1.2207 -0.1782  0.8768
  771MOL0     H 4035   1.475   4.403  10.150 -1.1030  0.3356  1.0432
  771MOL0     H 4036   1.432   4.145  10.340 -1.4902 -2.3527  3.7393
  771MOL0     H 4037   1.304   4.086  10.590  1.5624  1.2298 -1.0941
  771MOL0     H 4038   1.203   4.215  10.636 -0.9934  0.5127 -0.4213
  771MOL0     H 4039   1.103   4.012  10.527  1.9360  0.9617  2.1207
  771MOL0     H 4040   1.166   4.062  10.371 -0.7587 -0.4141  0.4660
  771MOL0     H 4041   1.061   4.296  10.415  0.9411  0.1187  2.0300
  771MOL0     H 4042   0.985   4.222  10.558 -0.7681  0.1148  0.0881
  771MOL0     H 4043   0.922   4.151  10.271  1.4107  0.8616 -0.3582
  771MOL0     H 4044   0.823   4.242  10.380 -0.4511 -0.3803 -1.8400
  771MOL0     H 4045   0.762   3.823  10.486  0.7180  0.9182 -0.7530
  771MOL0     H 4046   0.657   3.615  10.430  1.3199 -0.7850 -3.0340
  771MOL0     H 4047   0.483   3.643  10.471  0.8533  0.8230  0.6808
  771MOL0     H 4048   0.520   3.591  10.317 -0.9951  1.7241 -0.7428
  771MOL0     H 4049   0.268   3.714   9.944  1.3962  2.2269  0.1007
  771MOL0     H 4050   0.051   3.664   9.849  0.3212 -0.3737  0.0317
  771MOL0     H 4051  -0.203   3.699   9.739 -1.3587 -0.3142  0.2949
  771MOL0     H 4052  -0.171   3.595   9.884 -2.4674 -1.0096  0.4168
  771MOL0     H 4053  -0.398   3.574   9.848  0.5685 -0.0685  0.1449
  771MOL0     H 4054  -0.387   3.690   9.982 -0.7225  1.5758  0.3467
  771MOL0     H 4055  -0.436   3.793   9.695  0.4423  0.8342 -0.0472
  771MOL0     H 4056  -0.443   3.883   9.846 -3.3838  0.8292  0.7073
  771MOL0     H 4057  -0.626   3.650   9.801 -0.1332  0.5707 -0.9125
  771MOL0     H 4058  -0.634   3.788   9.925  0.5095 -0.7487  1.2731
  771MOL0     H 4059  -0.651   3.786   9.617  2.7112 -1.3708  1.6629
  771MOL0     H 4060  -0.647   3.931   9.723 -0.2062 -0.0582  0.8977
  771MOL0     H 4061  -0.856   3.852   9.837 -2.2964 -0.3587  0.1362
  771MOL0     H 4062  -0.897   3.905   9.675 -0.3014 -0.1742  0.3710
  771MOL0     H 4063  -0.877   3.602   9.736  1.1278 -0.0399  0.8345
  771MOL0     H 4064  -0.865   3.670   9.581  2.0457 -1.0206  0.8371
  771MOL0     H 4065  -1.103   3.775   9.611  2.2081  0.9160 -1.6798
  771MOL0     H 4066  -1.097   3.716   9.775  3.1148 -0.7856  2.2906
  771MOL0     H 4067  -0.139   3.943  10.101  1.6258  2.5305  3.4725
  771MOL0     H 4068   0.097   4.015  10.191 -1.9531 -0.7698  1.0605
  771MOL0     H 4069   0.459   4.083  10.191 -0.4949  0.7225  0.1225
  771MOL0     H 4070   0.663   4.158  10.245  0.0130  0.0058  0.9511
  771MOL0     H 4071   2.433   4.175  10.277 -0.9640 -0.4257  0.2764
  771MOL0     H 4072   2.676   4.082  10.273  1.1026  1.6596 -1.2379
  771MOL0     H 4073   3.009   3.948  10.429 -1.1571  2.2929  0.8883
  771MOL0     H 4074   3.212   3.813  10.464 -0.5583 -0.3871 -2.5968
  771MOL0     H 4075   3.618   4.015  10.448  0.9791 -2.5222 -2.0976
  771MOL0     H 4076   3.565   4.033  10.610  0.0143 -2.5571  1.9498
  771MOL0     H 4077   3.644   3.769  10.622 -0.0094  0.5004  0.7035
  771MOL0     H 4078   3.745   3.908  10.667  1.1061 -0.3532 -0.0660
  771MOL0     H 4079   3.806   3.896  10.412  0.6348  0.0503  0.9315
  771MOL0     H 4080   3.712   3.745  10.414  1.8382 -1.9534  1.4932
  771MOL0     H 4081   3.849   3.654  10.585 -1.1507 -1.2023 -1.3917
  771MOL0     H 4082   3.935   3.810  10.601  0.7617  0.5477 -2.0731
  771MOL0     H 4083   4.130   3.596  10.282  1.4623 -0.8123  2.4086
  771MOL0     H 4084   3.428   4.182  10.513  0.1311 -0.7896  3.4362
  771MOL0     H 4085   3.224   4.301  10.490 -2.7654  0.5484  2.0193
  772MOL0     O 4086   8.013   0.605   9.201  0.3561  0.6195 -0.1966
  772MOL0     C 4087   8.092   0.612   9.294 -1.1258  0.4862 -0.0365
  772MOL0     O 4088   8.057   0.588   9.425  0.0479  0.3615  0.0520
  772MOL0     C 4089   7.927   0.551   9.451 -0.0637 -0.2351 -0.3204
  772MOL0     C 4090   7.838   0.638   9.517  0.3656 -0.1273 -0.6335
  772MOL0     C 4091   7.697   0.606   9.524 -0.1062  0.1883 -0.4098
  772MOL0     C 4092   7.648   0.488   9.467 -0.3518  0.1295 -0.4253
  772MOL0     O 4093   7.513   0.468   9.470  0.6574  0.4039 -0.1670
  772MOL0     C 4094   7.446   0.355   9.409 -0.0339  0.7036 -0.4219
  772MOL0     C 4095   7.295   0.374   9.451 -0.1302 -0.1563  0.1659
  772MOL0     C 4096   7.223   0.238   9.424  0.0023  1.0460 -0.0673
  772MOL0     C 4097   7.074   0.271   9.419  0.1366 -1.1311 -0.2553
  772MOL0     C 4098   6.996   0.141   9.391  1.1205 -1.0459  0.1093
  772MOL0     C 4099   6.845   0.164   9.397  0.2703  0.0866 -0.1825
  772MOL0     C 4100   6.747   0.052   9.365 -0.2853 -0.1499 -0.9277
  772MOL0     C 4101   6.753  -0.052   9.468  0.1644  0.0445  0.2986
  772MOL0     N 4102   6.648  -0.151   9.433 -0.0754  0.2748  0.3720
  772MOL0     C 4103   6.549  -0.183   9.524 -0.3285  0.2585  0.6095
  772MOL0     C 4104   6.501  -0.303   9.483  0.0646  0.1421 -0.3297
  772MOL0     C 4105   6.389  -0.376   9.544 -1.0787 -0.3907  0.5265
  772MOL0     C 4106   6.264  -0.358   9.460  1.1401 -0.4270 -0.3298
  772MOL0     C 4107   6.136  -0.428   9.515  0.0529  0.7468 -0.7148
  772MOL0     C 4108   6.011  -0.385   9.439  0.3087  0.1936 -0.2919
  772MOL0     O 4109   5.912  -0.474   9.489  0.3605  0.7386 -0.3064
  772MOL0     C 4110   5.862  -0.459   9.613  0.7727 -0.3226 -0.3101
  772MOL0     C 4111   5.786  -0.557   9.664  0.6354  0.5559 -0.7784
  772MOL0     C 4112   5.723  -0.559   9.788  0.3375  0.5974  0.2289
  772MOL0     C 4113   5.623  -0.672   9.812 -0.5138 -0.1350 -0.9449
  772MOL0     C 4114   5.745  -0.451   9.871  0.2214  0.5221 -0.8763
  772MOL0     C 4115   5.694  -0.432  10.008 -0.1016  0.5529  0.2340
  772MOL0     O 4116   5.693  -0.304  10.067  0.3010  0.4565  0.4091
  772MOL0     C 4117   5.619  -0.289  10.181 -0.3215 -0.8467  0.7825
  772MOL0     C 4118   5.688  -0.257  10.299 -1.3396  0.1057 -1.0544
  772MOL0     C 4119   5.618  -0.238  10.416  0.1520  0.4513 -0.8864
  772MOL0     C 4120   5.479  -0.257  10.417 -0.0386  0.6714 -0.0677
  772MOL0     O 4121   5.412  -0.222  10.534  0.2042  0.5332 -0.9071
  772MOL0     C 4122   5.452  -0.110  10.607 -0.6444 -0.1871  0.1541
  772MOL0     C 4123   5.325  -0.036  10.662  0.2439  0.6627  0.5801
  772MOL0     C 4124   5.218  -0.028  10.553 -0.8113 -0.4075  0.2581
  772MOL0     C 4125   5.097   0.044  10.609 -0.6004 -0.0370  0.2354
  772MOL0     C 4126   5.000   0.102  10.506  0.0646 -0.4479 -0.6310
  772MOL0     C 4127   4.880   0.159  10.589  0.2384  0.6963  0.1427
  772MOL0     C 4128   4.764   0.202  10.496  0.6385  0.5046 -0.4218
  772MOL0     C 4129   4.665   0.293  10.554  0.4872 -0.0987 -0.1725
  772MOL0    Cl 4130   4.530   0.322  10.431  0.0747  0.2516  0.3247
  772MOL0     C 4131   5.410  -0.301  10.301 -0.9668  0.6375  0.1148
  772MOL0     C 4132   5.482  -0.313  10.182  0.3247  0.0884  0.2523
  772MOL0     O 4133   5.657  -0.532  10.068 -0.7900  0.0627  0.1520
  772MOL0     C 4134   5.835  -0.346   9.827  0.1471 -0.2647  0.0177
  772MOL0     C 4135   5.884  -0.351   9.695  0.1357  0.5566 -0.7046
  772MOL0     N 4136   6.561  -0.330   9.368 -0.2184  0.3907  0.1238
  772MOL0     N 4137   6.643  -0.236   9.333  0.6533  0.6647  0.3901
  772MOL0     C 4138   7.736   0.396   9.399  0.1552 -0.4739  0.2753
  772MOL0     C 4139   7.873   0.432   9.393  0.2054 -0.0949  0.4823
  772MOL0     C 4140   8.216   0.684   9.273  0.0294  0.5916  0.3511
  772MOL0     C 4141   8.309   0.698   9.381  0.1343 -0.1556 -0.0220
  772MOL0     C 4142   8.427   0.762   9.367 -0.9665  0.0577  1.0580
  772MOL0     C 4143   8.467   0.821   9.245 -0.2637 -0.1118  0.5752
  772MOL0     O 4144   8.591   0.880   9.252  0.6222 -0.5013  0.3491
  772MOL0     C 4145   8.623   0.987   9.159 -0.3777 -0.0645  1.0153
  772MOL0     C 4146   8.754   1.060   9.204  0.1623 -0.0088 -0.1376
  772MOL0     C 4147   8.725   1.181   9.294 -0.4803  0.2465  0.4859
  772MOL0     C 4148   8.847   1.272   9.319  0.1495 -0.0695 -0.2836
  772MOL0     C 4149   8.905   1.308   9.188  0.9180  0.4885  1.4592
  772MOL0     C 4150   8.940   1.340   9.083  0.1664  0.7256  0.8918
  772MOL0     C 4151   8.379   0.805   9.140 -0.0595 -0.0726 -0.6898
  772MOL0     C 4152   8.258   0.736   9.147 -0.3088 -0.1092 -0.0658
  772MOL0     H 4153   7.883   0.729   9.556 -1.6231  0.3639  0.6745
  772MOL0     H 4154   7.633   0.678   9.573 -0.7911 -0.1419 -0.7964
  772MOL0     H 4155   7.457   0.358   9.300 -0.3788 -1.4776 -0.5639
  772MOL0     H 4156   7.499   0.264   9.437  1.6499  2.1555  1.4554
  772MOL0     H 4157   7.293   0.393   9.558 -2.3725 -0.1195  0.1560
  772MOL0     H 4158   7.269   0.463   9.393  0.0014  0.1981  0.6514
  772MOL0     H 4159   7.251   0.193   9.328 -2.6310 -0.0539 -0.4330
  772MOL0     H 4160   7.236   0.164   9.504  1.1354  1.5004  0.1825
  772MOL0     H 4161   7.049   0.323   9.512  0.2818 -0.1172 -0.7646
  772MOL0     H 4162   7.052   0.342   9.339  0.8144 -1.7395 -0.9964
  772MOL0     H 4163   7.018   0.109   9.289 -0.6093  2.1350 -1.4150
  772MOL0     H 4164   7.022   0.072   9.472  1.1910 -0.8450  0.2573
  772MOL0     H 4165   6.823   0.199   9.498  1.3166 -0.4169  0.2398
  772MOL0     H 4166   6.826   0.244   9.326  2.5434  1.0412  0.2007
  772MOL0     H 4167   6.645   0.090   9.354 -0.4852 -0.9098 -1.8824
  772MOL0     H 4168   6.775   0.011   9.267 -0.6295 -0.1186 -1.0427
  772MOL0     H 4169   6.751  -0.003   9.565  0.6024 -0.4518  0.5666
  772MOL0     H 4170   6.847  -0.109   9.462 -1.0212 -2.4687  2.9730
  772MOL0     H 4171   6.533  -0.131   9.618  4.3248  0.2182  1.6789
  772MOL0     H 4172   6.419  -0.480   9.562  1.1665 -0.0595 -0.8735
  772MOL0     H 4173   6.373  -0.334   9.644 -1.0073 -1.3805  0.9679
  772MOL0     H 4174   6.278  -0.386   9.355 -0.5583  0.1045 -0.7217
  772MOL0     H 4175   6.255  -0.249   9.453  2.2552 -0.3934 -1.6889
  772MOL0     H 4176   6.136  -0.407   9.622 -0.1871 -3.1435  0.2047
  772MOL0     H 4177   6.142  -0.537   9.513 -2.6584  0.3836  2.4509
  772MOL0     H 4178   6.032  -0.422   9.338  0.0950 -4.8726  1.2536
  772MOL0     H 4179   5.975  -0.281   9.437 -1.0711 -0.2736 -1.1562
  772MOL0     H 4180   5.756  -0.631   9.590 -0.4992  1.2098 -0.9943
  772MOL0     H 4181   5.543  -0.642   9.882  1.0222 -0.4974  1.0459
  772MOL0     H 4182   5.572  -0.713   9.724 -1.0203 -1.2659 -0.1383
  772MOL0     H 4183   5.675  -0.755   9.861 -0.6930  1.3405  1.9405
  772MOL0     H 4184   5.796  -0.243  10.294 -1.0258 -0.6189  1.6961
  772MOL0     H 4185   5.667  -0.197  10.504  2.4788 -1.0388 -1.3754
  772MOL0     H 4186   5.502  -0.144  10.698 -0.1315 -0.4524 -0.2219
  772MOL0     H 4187   5.511  -0.039  10.548 -1.9428  0.0844 -0.8560
  772MOL0     H 4188   5.293  -0.093  10.750  1.9865  0.1091  0.8845
  772MOL0     H 4189   5.354   0.065  10.691 -1.5408  2.1658 -2.3597
  772MOL0     H 4190   5.202  -0.127  10.510  5.7466 -1.3613 -1.0377
  772MOL0     H 4191   5.255   0.030  10.467  0.9064 -1.7502  0.0557
  772MOL0     H 4192   5.052  -0.028  10.678 -2.5642 -0.1053 -1.0448
  772MOL0     H 4193   5.134   0.133  10.660 -1.6062  2.0768 -2.4747
  772MOL0     H 4194   4.962   0.022  10.441 -2.6268  0.8922 -0.8223
  772MOL0     H 4195   5.049   0.177  10.444 -1.6071  2.1200  0.9521
  772MOL0     H 4196   4.854   0.081  10.661  0.1802 -2.2323 -2.7931
  772MOL0     H 4197   4.906   0.245  10.650  0.4779  0.2885  0.6186
  772MOL0     H 4198   4.710   0.111  10.468 -1.1060  0.6595  2.1604
  772MOL0     H 4199   4.808   0.257  10.412  0.6008 -0.8468 -1.3497
  772MOL0     H 4200   4.712   0.391  10.567  1.2761  0.2052 -4.0599
  772MOL0     H 4201   4.619   0.256  10.646  2.2316 -2.2355 -0.0788
  772MOL0     H 4202   5.302  -0.316  10.298 -0.8909 -0.1668  1.0457
  772MOL0     H 4203   5.428  -0.339  10.091 -0.4286  2.2680  0.0216
  772MOL0     H 4204   5.861  -0.260   9.887  0.4770  0.7854 -1.5925
  772MOL0     H 4205   5.964  -0.281   9.673  0.7795  0.3832  0.9581
  772MOL0     H 4206   7.701   0.313   9.337  0.1412 -1.7456  1.9255
  772MOL0     H 4207   7.932   0.364   9.332  0.0131 -1.5263  1.8259
  772MOL0     H 4208   8.283   0.666   9.481 -0.5963 -0.2746 -0.2484
  772MOL0     H 4209   8.493   0.766   9.454 -0.7962  2.0356  0.8792
  772MOL0     H 4210   8.639   0.931   9.067  5.9986  0.8836  1.1392
  772MOL0     H 4211   8.545   1.064   9.154  0.6544  0.9428 -0.0186
  772MOL0     H 4212   8.801   1.095   9.111 -0.5938 -0.2461 -0.6178
  772MOL0     H 4213   8.823   0.991   9.253 -0.5617  0.0363  0.9797
  772MOL0     H 4214   8.678   1.145   9.386 -2.8434 -0.3114 -0.8579
  772MOL0     H 4215   8.649   1.247   9.251 -0.8180  1.9001  3.3595
  772MOL0     H 4216   8.924   1.219   9.375  0.0053  0.1095  0.0825
  772MOL0     H 4217   8.815   1.356   9.380  1.6178 -0.0584  0.5030
  772MOL0     H 4218   8.964   1.359   8.980 -1.9968  1.3104  0.4626
  772MOL0     H 4219   8.403   0.843   9.041 -0.4931 -1.1670 -1.2367
  772MOL0     H 4220   8.192   0.720   9.063  0.5581 -1.4613 -0.5191
  773MOL0     O 4221  11.212   0.594   7.630  0.1100  0.0322 -0.0187
  773MOL0     C 4222  11.267   0.589   7.517  0.7494  0.3125 -0.0818
  773MOL0     O 4223  11.197   0.581   7.390  0.4815 -0.2656  0.5864
  773MOL0     C 4224  11.064   0.608   7.392  0.5097 -0.8205 -0.0750
  773MOL0     C 4225  10.975   0.518   7.446  0.2141  0.2002 -0.0350
  773MOL0     C 4226  10.839   0.542   7.438 -0.3711 -0.8554  0.6699
  773MOL0     C 4227  10.790   0.672   7.409  0.0484 -0.8174 -1.1441
  773MOL0     O 4228  10.655   0.688   7.407  0.4468 -0.0882  0.2378
  773MOL0     C 4229  10.597   0.815   7.413 -0.8367  0.7183  0.4777
  773MOL0     C 4230  10.463   0.820   7.469  0.3730  0.3913 -0.4999
  773MOL0     C 4231  10.365   0.751   7.373 -0.6375  0.2244  0.1547
  773MOL0     C 4232  10.234   0.741   7.441  0.4509  0.4031  0.4745
  773MOL0     C 4233  10.123   0.671   7.352  0.0320 -0.4003 -0.3365
  773MOL0     C 4234   9.982   0.685   7.411 -0.2198  0.5727  0.2696
  773MOL0     C 4235   9.885   0.576   7.383 -0.0130 -0.3614 -0.0154
  773MOL0     C 4236   9.862   0.546   7.239 -0.9706 -0.4612  1.0697
  773MOL0     N 4237   9.803   0.644   7.147  0.0635  0.6403  0.8141
  773MOL0     C 4238   9.674   0.685   7.138  0.5138  0.1731 -0.1865
  773MOL0     C 4239   9.664   0.757   7.023 -0.2779 -0.2326 -1.3257
  773MOL0     C 4240   9.542   0.827   6.973 -0.3419 -0.2416  0.4686
  773MOL0     C 4241   9.408   0.773   7.000  1.2817  0.2016 -0.6097
  773MOL0     C 4242   9.292   0.817   6.899  0.4039 -0.1785  0.1199
  773MOL0     C 4243   9.165   0.723   6.911 -0.0227  0.3539  0.2000
  773MOL0     O 4244   9.078   0.760   7.019  0.1154  0.1008  0.3034
  773MOL0     C 4245   8.946   0.744   7.010 -0.2484 -0.8179 -0.0254
  773MOL0     C 4246   8.869   0.822   6.923 -0.0861  1.2517 -0.4476
  773MOL0     C 4247   8.733   0.807   6.906  1.2434 -0.2291  0.0018
  773MOL0     C 4248   8.668   0.892   6.794 -0.4867  0.3568 -0.5389
  773MOL0     C 4249   8.666   0.714   6.981  0.0165  0.3056 -0.1420
  773MOL0     C 4250   8.521   0.688   6.979 -0.2935  0.7764  0.5869
  773MOL0     O 4251   8.458   0.627   7.090 -0.3265 -0.2749 -0.3079
  773MOL0     C 4252   8.322   0.618   7.087  0.0360  0.9805  1.0740
  773MOL0     C 4253   8.261   0.515   7.016  0.3161  0.3524 -0.7671
  773MOL0     C 4254   8.128   0.492   7.026  0.3062 -0.6935 -0.2472
  773MOL0     C 4255   8.046   0.572   7.116 -0.4052 -0.1858 -0.4301
  773MOL0     O 4256   7.919   0.535   7.138 -0.0124 -0.0786  0.0402
  773MOL0     C 4257   7.842   0.606   7.235  0.0119 -0.6822 -0.6716
  773MOL0     C 4258   7.708   0.540   7.259 -0.7928 -0.3571  0.0337
  773MOL0     C 4259   7.607   0.627   7.338  0.4908  0.2705 -0.1574
  773MOL0     C 4260   7.468   0.558   7.334  0.8884  0.4430 -0.8700
  773MOL0     C 4261   7.374   0.643   7.427  0.3196  0.0230  0.2134
  773MOL0     C 4262   7.238   0.588   7.452  0.4180  0.0063  0.0120
  773MOL0     C 4263   7.240   0.463   7.535  0.2274  0.5460 -0.8979
  773MOL0     C 4264   7.094   0.440   7.594 -0.2434 -0.3464  0.2901
  773MOL0    Cl 4265   7.094   0.547   7.740 -0.0001 -0.3265  0.0052
  773MOL0     C 4266   8.107   0.674   7.184  0.2290  0.3656 -0.3274
  773MOL0     C 4267   8.242   0.703   7.173  0.4117  0.8557  0.0043
  773MOL0     O 4268   8.472   0.693   6.863 -0.5972  0.1582  0.1638
  773MOL0     C 4269   8.734   0.641   7.083 -0.3435  0.1847  0.3649
  773MOL0     C 4270   8.875   0.663   7.097  0.6089 -0.7052 -0.5038
  773MOL0     N 4271   9.792   0.763   6.968  0.7536 -0.3907 -0.1915
  773MOL0     N 4272   9.871   0.698   7.041 -0.0641 -0.4622 -0.2201
  773MOL0     C 4273  10.884   0.772   7.363  0.8999  0.9486  0.0818
  773MOL0     C 4274  11.023   0.733   7.348 -1.0114  0.6932 -0.6800
  773MOL0     C 4275  11.414   0.580   7.521  0.0691 -0.2849  0.5676
  773MOL0     C 4276  11.470   0.537   7.404 -0.8725 -0.4748  0.5128
  773MOL0     C 4277  11.610   0.509   7.388  0.4766 -0.2321 -0.1881
  773MOL0     C 4278  11.704   0.558   7.485  0.8136 -0.1151 -0.4889
  773MOL0     O 4279  11.836   0.528   7.467 -0.3359 -0.0568  0.2577
  773MOL0     C 4280  11.927   0.545   7.578  0.1276 -0.3844  0.4803
  773MOL0     C 4281  12.065   0.514   7.520 -0.1763 -0.4205  0.7579
  773MOL0     C 4282  12.125   0.638   7.449  0.4604  0.3923 -0.5571
  773MOL0     C 4283  12.264   0.603   7.392 -0.1436  0.3523  0.7074
  773MOL0     C 4284  12.325   0.710   7.321 -0.3690 -0.1449 -0.0664
  773MOL0     C 4285  12.367   0.808   7.264 -0.5148 -0.5899  0.0083
  773MOL0     C 4286  11.649   0.607   7.605  0.0729  0.1388 -0.6253
  773MOL0     C 4287  11.507   0.621   7.619 -0.0930 -0.1643 -0.3618
  773MOL0     H 4288  11.025   0.429   7.483  4.7823  2.6076  0.2967
  773MOL0     H 4289  10.759   0.469   7.454  0.2225 -3.0840 -4.4957
  773MOL0     H 4290  10.661   0.879   7.474 -2.2408  1.1259  1.5709
  773MOL0     H 4291  10.585   0.870   7.319  0.7337  1.8406  0.9019
  773MOL0     H 4292  10.464   0.762   7.562  0.9599 -0.4809 -1.0333
  773MOL0     H 4293  10.432   0.918   7.505  1.0240  0.6160 -0.5369
  773MOL0     H 4294  10.358   0.813   7.283  1.0932  1.0659  0.5410
  773MOL0     H 4295  10.404   0.653   7.345 -1.5073  0.1042 -0.6724
  773MOL0     H 4296  10.237   0.680   7.532  1.4004  0.0280  0.2097
  773MOL0     H 4297  10.196   0.839   7.471 -2.0206 -0.2909 -0.1880
  773MOL0     H 4298  10.131   0.713   7.251  0.0613 -1.0066 -0.5907
  773MOL0     H 4299  10.153   0.566   7.339 -0.2700 -0.4620 -0.5669
  773MOL0     H 4300   9.980   0.693   7.520  0.5908 -0.6012  0.3872
  773MOL0     H 4301   9.937   0.776   7.369 -1.2230 -0.0701 -0.0941
  773MOL0     H 4302   9.907   0.483   7.436  1.2704 -0.1890 -0.2141
  773MOL0     H 4303   9.791   0.604   7.433  0.2550  1.3291 -0.3877
  773MOL0     H 4304   9.810   0.449   7.233  0.4052 -1.1510 -0.5294
  773MOL0     H 4305   9.959   0.520   7.196 -0.8278 -1.5642  1.9920
  773MOL0     H 4306   9.597   0.666   7.211  0.5904 -1.9829 -0.6096
  773MOL0     H 4307   9.546   0.931   7.008  1.3452 -0.2070  0.2822
  773MOL0     H 4308   9.558   0.829   6.864  0.4033  2.2657  0.5520
  773MOL0     H 4309   9.387   0.813   7.099  1.1296 -0.5280 -0.3421
  773MOL0     H 4310   9.420   0.664   6.991  2.7372  0.4830 -3.5407
  773MOL0     H 4311   9.318   0.804   6.794 -1.4026 -3.6253 -0.0502
  773MOL0     H 4312   9.261   0.921   6.910  2.3059  0.3737  0.5876
  773MOL0     H 4313   9.204   0.623   6.929 -2.2740 -1.1882 -2.6363
  773MOL0     H 4314   9.111   0.721   6.816 -1.1214  2.6454  0.7178
  773MOL0     H 4315   8.936   0.886   6.867  2.8106 -1.4088 -0.3055
  773MOL0     H 4316   8.565   0.915   6.823  0.4873  4.9402  0.1112
  773MOL0     H 4317   8.713   0.988   6.769 -1.4616  0.0084 -4.2205
  773MOL0     H 4318   8.674   0.829   6.705  0.9685  0.6085 -0.6386
  773MOL0     H 4319   8.329   0.454   6.957  2.1199  0.9842  0.5471
  773MOL0     H 4320   8.082   0.404   6.981 -1.9174 -1.1566  2.6250
  773MOL0     H 4321   7.886   0.612   7.335  1.6713  1.1611 -1.4467
  773MOL0     H 4322   7.823   0.709   7.205 -3.1769 -0.9286  0.0880
  773MOL0     H 4323   7.666   0.518   7.160 -1.3812  1.8462 -0.2649
  773MOL0     H 4324   7.729   0.445   7.310  2.8240  0.7217  0.8584
  773MOL0     H 4325   7.586   0.727   7.298  0.4743  1.6545  2.9950
  773MOL0     H 4326   7.642   0.631   7.442 -1.8755  1.5677  0.6627
  773MOL0     H 4327   7.430   0.545   7.233 -2.0482  0.8611  0.0891
  773MOL0     H 4328   7.482   0.459   7.379  1.8339  1.0143  0.1353
  773MOL0     H 4329   7.361   0.732   7.364  1.3733  0.0370 -0.0003
  773MOL0     H 4330   7.417   0.674   7.522  1.2309  0.5475 -0.3598
  773MOL0     H 4331   7.188   0.666   7.509 -0.8759 -0.8619  0.0972
  773MOL0     H 4332   7.190   0.564   7.357  0.4458 -1.5597  0.3653
  773MOL0     H 4333   7.319   0.457   7.610 -1.0863 -3.0505  0.3991
  773MOL0     H 4334   7.257   0.384   7.461 -1.7337  0.2161 -1.0495
  773MOL0     H 4335   7.070   0.337   7.622  1.1793 -1.1119 -1.1339
  773MOL0     H 4336   7.025   0.478   7.519  0.1595 -0.2237 -0.0228
  773MOL0     H 4337   8.043   0.724   7.257 -1.1429 -1.7474  0.0164
  773MOL0     H 4338   8.273   0.791   7.228 -0.0115  1.0887 -0.1208
  773MOL0     H 4339   8.698   0.552   7.135  0.4286  0.4204  1.3233
  773MOL0     H 4340   8.944   0.601   7.154  0.3134 -1.0129 -0.4804
  773MOL0     H 4341  10.859   0.872   7.329 -1.6760  0.1950 -0.4413
  773MOL0     H 4342  11.083   0.806   7.296  0.2771 -0.8021 -1.3828
  773MOL0     H 4343  11.410   0.511   7.317 -2.8381  0.6703  1.4512
  773MOL0     H 4344  11.643   0.448   7.304 -0.7684 -1.3341  0.0757
  773MOL0     H 4345  11.918   0.650   7.607 -2.3844  0.0795 -1.5770
  773MOL0     H 4346  11.903   0.482   7.664 -0.9080 -1.0089 -0.2395
  773MOL0     H 4347  12.050   0.436   7.444  0.1384 -0.9725  1.2569
  773MOL0     H 4348  12.132   0.480   7.599  1.3766  0.8429  0.0333
  773MOL0     H 4349  12.134   0.721   7.521  0.1534 -0.8096  0.9107
  773MOL0     H 4350  12.052   0.670   7.375  0.2641  0.9510 -0.1294
  773MOL0     H 4351  12.254   0.518   7.324  1.0666  1.2604 -0.6560
  773MOL0     H 4352  12.330   0.574   7.475  0.5471  0.5988  0.2495
  773MOL0     H 4353  12.422   0.886   7.215 -0.9911 -0.2734 -0.0248
  773MOL0     H 4354  11.709   0.649   7.686 -0.3556  0.4983 -0.4968
  773MOL0     H 4355  11.468   0.645   7.718  1.1685 -0.6990  0.2888
  774MOL0     O 4356   9.981   6.547   0.361  0.1308 -0.3383  0.2225
  774MOL0     C 4357  10.048   6.608   0.272  0.2647 -0.2300 -0.2688
  774MOL0     O 4358   9.998   6.656   0.152 -0.1202  0.4595  0.0797
  774MOL0     C 4359   9.863   6.646   0.129 -0.3010 -0.6037  0.6270
  774MOL0     C 4360   9.768   6.671   0.224 -0.1920  0.4284  0.6560
  774MOL0     C 4361   9.635   6.666   0.192  0.2753  0.1182 -0.4163
  774MOL0     C 4362   9.592   6.631   0.067 -0.7072 -0.9531 -0.3548
  774MOL0     O 4363   9.461   6.652   0.051  0.7847 -0.1340 -0.2532
  774MOL0     C 4364   9.396   6.585  -0.056 -0.3505  0.4994 -0.0318
  774MOL0     C 4365   9.247   6.569  -0.032  0.2155 -0.0670  0.5501
  774MOL0     C 4366   9.174   6.699  -0.060  0.7024  0.7095 -0.1460
  774MOL0     C 4367   9.037   6.663  -0.117  0.3200 -0.5227 -0.6789
  774MOL0     C 4368   8.952   6.583  -0.014  0.3373 -0.0160  0.1003
  774MOL0     C 4369   8.809   6.559  -0.062  0.0431  0.6926 -0.7699
  774MOL0     C 4370   8.730   6.481   0.047  0.0369  0.2696  0.6505
  774MOL0     C 4371   8.585   6.447  -0.002 -0.3020  0.7872  0.3095
  774MOL0     N 4372   8.589   6.359  -0.112 -0.1597 -0.1374 -0.5367
  774MOL0     C 4373   8.494   6.342  -0.203  0.4076  0.1464  0.0185
  774MOL0     C 4374   8.535   6.250  -0.296 -0.6694 -0.4461 -0.0416
  774MOL0     C 4375   8.450   6.200  -0.417 -0.1600  0.2230 -0.3125
  774MOL0     C 4376   8.324   6.139  -0.369 -0.7575  0.1708 -0.1843
  774MOL0     C 4377   8.230   6.109  -0.490  0.0752 -0.3002  0.1591
  774MOL0     C 4378   8.109   6.029  -0.436 -0.3875 -0.4472 -0.6445
  774MOL0     O 4379   8.019   6.018  -0.545  1.0759  0.4806 -0.4898
  774MOL0     C 4380   7.887   5.988  -0.531  0.7432 -0.2382  0.2049
  774MOL0     C 4381   7.814   5.979  -0.649 -0.6014 -0.7355 -0.0817
  774MOL0     C 4382   7.679   5.965  -0.656  0.4279 -0.4694  0.5217
  774MOL0     C 4383   7.619   5.950  -0.797 -0.3082 -0.3374  0.0820
  774MOL0     C 4384   7.611   5.952  -0.536 -0.8940  0.5001 -0.7403
  774MOL0     C 4385   7.460   5.935  -0.534 -0.1364 -0.7535 -0.4763
  774MOL0     O 4386   7.410   5.892  -0.411 -0.1915  0.0056 -0.0466
  774MOL0     C 4387   7.274   5.870  -0.389 -0.4482 -0.2365  0.5956
  774MOL0     C 4388   7.229   5.762  -0.308  0.3229  1.0748 -0.3458
  774MOL0     C 4389   7.086   5.750  -0.280 -0.2317 -0.3912  0.3354
  774MOL0     C 4390   6.992   5.835  -0.335 -0.4765 -0.1148  0.2588
  774MOL0     O 4391   6.859   5.803  -0.306  1.0346 -0.3827 -0.3035
  774MOL0     C 4392   6.767   5.924  -0.291 -0.0580  0.2157 -0.5427
  774MOL0     C 4393   6.662   5.890  -0.188  0.0798 -1.1684  1.1805
  774MOL0     C 4394   6.588   5.760  -0.230 -0.1136  0.0861  0.8740
  774MOL0     C 4395   6.438   5.782  -0.235  0.7696  0.1968 -0.2227
  774MOL0     C 4396   6.354   5.653  -0.237  0.3647  0.2016  0.5290
  774MOL0     C 4397   6.208   5.707  -0.241  0.2580  0.4592  0.1353
  774MOL0     C 4398   6.111   5.579  -0.229  0.1652  0.6032  0.5191
  774MOL0     C 4399   5.961   5.628  -0.245 -0.7676  1.0508 -0.7671
  774MOL0    Cl 4400   5.847   5.496  -0.202 -0.6729 -0.0189  0.4497
  774MOL0     C 4401   7.038   5.943  -0.409  0.1034 -0.9876 -0.3317
  774MOL0     C 4402   7.176   5.967  -0.421  0.3228 -0.1581  0.1796
  774MOL0     O 4403   7.398   5.973  -0.627 -0.5630  0.0256 -0.0840
  774MOL0     C 4404   7.684   5.951  -0.411  0.7289 -0.4169  0.6033
  774MOL0     C 4405   7.823   5.956  -0.416 -0.1000 -0.1253  0.3123
  774MOL0     N 4406   8.664   6.218  -0.254 -0.0901  0.3032  0.1859
  774MOL0     N 4407   8.696   6.284  -0.147 -0.7054  0.1627  0.1188
  774MOL0     C 4408   9.693   6.609  -0.030  0.0108  0.0838  0.2166
  774MOL0     C 4409   9.826   6.611   0.001  0.4200  0.8848  0.0154
  774MOL0     C 4410  10.187   6.639   0.290 -0.9414  0.0193  0.2890
  774MOL0     C 4411  10.246   6.629   0.423 -0.6374  0.4233  0.3643
  774MOL0     C 4412  10.377   6.657   0.436  0.3776 -0.5707 -0.3331
  774MOL0     C 4413  10.456   6.714   0.335 -0.0895  0.4037  0.3171
  774MOL0     O 4414  10.577   6.768   0.374  0.1173  0.0765 -0.3572
  774MOL0     C 4415  10.682   6.776   0.278 -0.6861  1.1969 -0.4195
  774MOL0     C 4416  10.750   6.638   0.297 -0.2157 -0.5393  0.0436
  774MOL0     C 4417  10.846   6.633   0.424 -0.3009 -0.2875  0.3060
  774MOL0     C 4418  10.961   6.726   0.410 -0.3755 -0.9018  0.0099
  774MOL0     C 4419  11.048   6.711   0.527 -0.4126  0.3316  0.0310
  774MOL0     C 4420  11.122   6.694   0.620  0.8697 -0.8526  0.3700
  774MOL0     C 4421  10.401   6.734   0.207 -0.3285 -0.4007  0.9402
  774MOL0     C 4422  10.271   6.700   0.189  1.0833 -0.1603  0.5739
  774MOL0     H 4423   9.794   6.715   0.319  1.4004  0.0545  0.4250
  774MOL0     H 4424   9.564   6.688   0.271  1.3056 -2.4213  1.3498
  774MOL0     H 4425   9.405   6.651  -0.143 -0.7049  2.6326  1.4561
  774MOL0     H 4426   9.438   6.485  -0.068 -3.3735 -0.6314 -3.0751
  774MOL0     H 4427   9.225   6.483  -0.096  0.1427 -0.2924  0.8810
  774MOL0     H 4428   9.229   6.554   0.074  2.9709  2.2396  1.4577
  774MOL0     H 4429   9.160   6.760   0.030  0.3385  1.1695 -0.5110
  774MOL0     H 4430   9.233   6.762  -0.127 -1.3146  1.5733 -1.1745
  774MOL0     H 4431   8.984   6.752  -0.150  0.3336  0.0387  0.7504
  774MOL0     H 4432   9.056   6.602  -0.206 -1.3149 -0.9451 -0.7738
  774MOL0     H 4433   9.003   6.491   0.014 -0.4170 -0.6066 -0.4206
  774MOL0     H 4434   8.935   6.635   0.080  0.1366 -2.2673  1.3783
  774MOL0     H 4435   8.756   6.651  -0.088 -0.4468  0.4136 -0.7711
  774MOL0     H 4436   8.827   6.501  -0.153  0.6776  2.2935 -1.6965
  774MOL0     H 4437   8.780   6.386   0.069  2.1529  1.5409  1.6182
  774MOL0     H 4438   8.716   6.539   0.138 -0.8109  0.1359  0.6176
  774MOL0     H 4439   8.537   6.540  -0.032  0.1039  0.5365 -1.1994
  774MOL0     H 4440   8.521   6.419   0.082  0.0255 -0.7851  0.0710
  774MOL0     H 4441   8.403   6.400  -0.216 -0.1673 -0.3462  1.5776
  774MOL0     H 4442   8.427   6.291  -0.473  0.7009 -0.0600 -1.1382
  774MOL0     H 4443   8.493   6.126  -0.485 -2.1091 -0.8446 -0.4522
  774MOL0     H 4444   8.277   6.189  -0.284 -0.3152 -3.5726  2.5634
  774MOL0     H 4445   8.344   6.042  -0.321  0.0329 -0.6050 -1.9915
  774MOL0     H 4446   8.284   6.049  -0.564  0.2327  1.9883 -1.6643
  774MOL0     H 4447   8.197   6.200  -0.541  0.2552  0.2746  1.0507
  774MOL0     H 4448   8.065   6.084  -0.353 -2.4969 -2.0542 -0.6090
  774MOL0     H 4449   8.127   5.929  -0.394 -2.0825  0.1706  1.7607
  774MOL0     H 4450   7.878   5.981  -0.737 -1.3716  1.0044 -0.6388
  774MOL0     H 4451   7.575   5.852  -0.821  0.2856 -0.7503  0.6524
  774MOL0     H 4452   7.553   6.035  -0.816  0.5162 -0.0733 -1.8596
  774MOL0     H 4453   7.700   5.953  -0.870  1.7687 -0.7348  2.2543
  774MOL0     H 4454   7.291   5.680  -0.271 -0.0497  1.7779  1.9744
  774MOL0     H 4455   7.048   5.680  -0.206 -1.4801  0.6208  0.6792
  774MOL0     H 4456   6.816   6.018  -0.261  1.7015 -1.2876  1.6285
  774MOL0     H 4457   6.712   5.945  -0.383  1.6081  0.2787 -1.5676
  774MOL0     H 4458   6.709   5.855  -0.096  0.0481 -2.8216  0.6018
  774MOL0     H 4459   6.592   5.974  -0.178  2.0408  0.5871  0.8598
  774MOL0     H 4460   6.603   5.676  -0.162  0.4547 -3.4254 -3.1458
  774MOL0     H 4461   6.614   5.725  -0.331 -0.3562 -3.3322  1.8803
  774MOL0     H 4462   6.411   5.841  -0.147  0.9199  1.7872 -1.1969
  774MOL0     H 4463   6.416   5.847  -0.321 -0.9262  0.7434  0.5862
  774MOL0     H 4464   6.362   5.593  -0.146 -1.3983 -2.5182 -0.9688
  774MOL0     H 4465   6.369   5.585  -0.321  2.9197 -0.7492  1.6768
  774MOL0     H 4466   6.188   5.775  -0.157  0.6472  1.6967 -0.7498
  774MOL0     H 4467   6.199   5.758  -0.337  0.8567  1.1535  0.4397
  774MOL0     H 4468   6.115   5.527  -0.133 -0.4427 -0.1154  0.1652
  774MOL0     H 4469   6.140   5.509  -0.307  2.5371  3.2247 -1.1626
  774MOL0     H 4470   5.937   5.659  -0.347  0.6351  1.6987 -0.9224
  774MOL0     H 4471   5.939   5.715  -0.183  1.4536  1.5964 -0.6642
  774MOL0     H 4472   6.962   6.001  -0.459  2.4671  3.0253  0.2276
  774MOL0     H 4473   7.203   6.065  -0.457 -4.2453  2.0285  1.8452
  774MOL0     H 4474   7.625   5.940  -0.321  1.2178 -1.0691  0.8498
  774MOL0     H 4475   7.890   5.954  -0.331 -0.3421  0.6014  0.5317
  774MOL0     H 4476   9.666   6.589  -0.133 -0.5875  1.9380 -0.0239
  774MOL0     H 4477   9.898   6.590  -0.077  0.8462 -0.5991  0.7667
  774MOL0     H 4478  10.192   6.583   0.505  1.5613 -2.9205  0.1480
  774MOL0     H 4479  10.421   6.649   0.534 -1.2058  2.1188  0.7069
  774MOL0     H 4480  10.651   6.780   0.174 -0.8436  3.0298 -0.3378
  774MOL0     H 4481  10.744   6.866   0.287 -0.7460  1.1162  1.3030
  774MOL0     H 4482  10.817   6.636   0.210 -0.9972  0.3694 -0.6003
  774MOL0     H 4483  10.690   6.548   0.291  1.1875 -1.5433  0.4853
  774MOL0     H 4484  10.891   6.534   0.421  0.4076  0.0518 -2.5755
  774MOL0     H 4485  10.797   6.641   0.522  0.1884 -2.4995  0.7858
  774MOL0     H 4486  10.920   6.827   0.422  3.6546  0.9412  0.1098
  774MOL0     H 4487  11.016   6.714   0.316 -0.1629  1.2330 -0.1950
  774MOL0     H 4488  11.180   6.682   0.709 -1.1833  0.6975  2.0102
  774MOL0     H 4489  10.455   6.779   0.125  2.3794 -4.4047  0.2862
  774MOL0     H 4490  10.233   6.722   0.090 -1.8971  0.8990  1.8374
  775MOL0     O 4491   9.161   6.018   8.354  0.2095 -0.5991 -0.1695
  775MOL0     C 4492   9.196   6.021   8.470  0.0814 -0.1706  0.1299
  775MOL0     O 4493   9.115   6.008   8.582  0.3929  0.5880  0.0507
  775MOL0     C 4494   8.978   6.003   8.564 -0.1675  0.2292 -0.0008
  775MOL0     C 4495   8.908   5.904   8.491 -0.0307 -0.9218 -0.1411
  775MOL0     C 4496   8.770   5.915   8.491 -0.6819  1.0331  0.8141
  775MOL0     C 4497   8.696   6.008   8.557  0.0830  0.0335 -0.3115
  775MOL0     O 4498   8.560   6.010   8.546 -0.0310  0.6236 -0.1328
  775MOL0     C 4499   8.476   6.114   8.596  0.3591 -0.6876  0.2440
  775MOL0     C 4500   8.343   6.042   8.597  0.9454  0.2418 -0.3023
  775MOL0     C 4501   8.281   6.021   8.463  0.4584 -0.0446  0.0911
  775MOL0     C 4502   8.224   6.149   8.393  0.0341 -0.5568 -0.3615
  775MOL0     C 4503   8.154   6.130   8.258  0.2862 -0.5083  0.4050
  775MOL0     C 4504   8.095   6.269   8.220 -0.6883  0.0611  0.0114
  775MOL0     C 4505   8.014   6.265   8.098 -0.4132 -0.0285  0.0813
  775MOL0     C 4506   7.904   6.166   8.088 -0.0248  0.6047 -0.5490
  775MOL0     N 4507   7.801   6.207   7.986  0.2354 -0.3330  0.5398
  775MOL0     C 4508   7.748   6.125   7.889  0.8539  0.4467  0.0960
  775MOL0     C 4509   7.634   6.179   7.850 -0.3110 -0.1902 -0.5081
  775MOL0     C 4510   7.557   6.128   7.737 -0.0797  0.1416  0.1495
  775MOL0     C 4511   7.478   6.004   7.762  0.4400 -0.0845 -0.2728
  775MOL0     C 4512   7.361   5.991   7.654 -0.5650  0.4723  0.0817
  775MOL0     C 4513   7.265   5.888   7.680  0.3894  0.8414  0.3650
  775MOL0     O 4514   7.157   5.903   7.584 -0.0768 -0.7421  0.1578
  775MOL0     C 4515   7.056   5.813   7.578 -0.0609 -0.1776  0.0678
  775MOL0     C 4516   7.051   5.697   7.656  0.3743 -1.2218  0.3317
  775MOL0     C 4517   6.942   5.614   7.650  1.0006  0.6069 -0.5882
  775MOL0     C 4518   6.952   5.484   7.727 -0.9870 -0.5403  0.4943
  775MOL0     C 4519   6.825   5.647   7.575 -0.3711 -0.3999  0.5566
  775MOL0     C 4520   6.708   5.553   7.550  0.1090  0.1120  1.0877
  775MOL0     O 4521   6.697   5.432   7.620 -0.4930  0.3612  0.1275
  775MOL0     C 4522   6.589   5.348   7.603  0.2196  0.6092  0.1605
  775MOL0     C 4523   6.477   5.380   7.672 -0.3500  0.4758  0.3138
  775MOL0     C 4524   6.376   5.284   7.670 -0.0343  0.2336 -0.0994
  775MOL0     C 4525   6.385   5.155   7.603 -0.4358  0.3455 -0.5374
  775MOL0     O 4526   6.278   5.071   7.629  0.1115 -0.6724  0.9051
  775MOL0     C 4527   6.291   4.930   7.612  0.0470  0.5199 -0.2280
  775MOL0     C 4528   6.154   4.858   7.624 -0.9837  0.2654 -0.4936
  775MOL0     C 4529   6.054   4.913   7.510 -1.1261 -0.5078 -0.4652
  775MOL0     C 4530   5.926   4.831   7.511  0.1359  0.1108  0.4279
  775MOL0     C 4531   5.836   4.872   7.396  0.1636 -0.1947  0.2474
  775MOL0     C 4532   5.690   4.830   7.415  0.3551  0.2544  0.0273
  775MOL0     C 4533   5.615   4.855   7.283 -0.1671 -0.4352  1.0543
  775MOL0     C 4534   5.488   4.772   7.279 -0.7491 -0.1997  0.7214
  775MOL0    Cl 4535   5.377   4.819   7.418  0.2946  0.4358  0.2908
  775MOL0     C 4536   6.506   5.133   7.535  0.3965 -1.0548  1.2713
  775MOL0     C 4537   6.609   5.222   7.541  0.1401 -0.5603 -0.8228
  775MOL0     O 4538   6.621   5.588   7.469  0.0754  0.2449 -0.3562
  775MOL0     C 4539   6.828   5.768   7.501 -0.0265 -0.3572  0.1865
  775MOL0     C 4540   6.945   5.846   7.501 -0.0707  0.4181 -0.1435
  775MOL0     N 4541   7.618   6.300   7.922  0.2824 -0.0998 -0.1195
  775MOL0     N 4542   7.716   6.315   7.998  0.4176  0.5415  0.3091
  775MOL0     C 4543   8.774   6.103   8.636  0.4017 -0.0532  0.2253
  775MOL0     C 4544   8.912   6.094   8.642 -0.4973  0.0830 -0.7454
  775MOL0     C 4545   9.342   6.016   8.482  0.8788  0.1006  0.1981
  775MOL0     C 4546   9.426   5.995   8.373 -0.1183  0.4706  0.0823
  775MOL0     C 4547   9.558   5.968   8.396 -0.0043 -0.6821  0.4816
  775MOL0     C 4548   9.615   5.982   8.527 -0.3875  0.3494  0.4109
  775MOL0     O 4549   9.747   5.957   8.561 -0.2887  0.5571  0.8893
  775MOL0     C 4550   9.847   5.986   8.462 -0.1887  0.5591  0.5246
  775MOL0     C 4551   9.971   6.022   8.540 -0.2544 -0.6332 -0.7749
  775MOL0     C 4552  10.038   5.904   8.618 -0.4493  0.1065  0.4674
  775MOL0     C 4553  10.184   5.929   8.677  1.0755  0.0001  0.9235
  775MOL0     C 4554  10.257   5.805   8.710 -0.9319  0.0771 -0.1004
  775MOL0     C 4555  10.312   5.707   8.768  0.5487  0.0299  0.7188
  775MOL0     C 4556   9.534   6.021   8.624 -0.4135  0.1878 -1.0743
  775MOL0     C 4557   9.398   6.029   8.606 -0.0774 -0.0201  1.3198
  775MOL0     H 4558   8.974   5.837   8.438  0.8289 -0.2386  0.0418
  775MOL0     H 4559   8.727   5.837   8.428  1.8063 -0.7258  1.1285
  775MOL0     H 4560   8.511   6.120   8.699  0.0176 -4.1701  0.6905
  775MOL0     H 4561   8.467   6.209   8.542  0.3831 -1.0695 -0.4378
  775MOL0     H 4562   8.354   5.943   8.643 -0.1710 -0.1773 -0.9098
  775MOL0     H 4563   8.271   6.103   8.652  1.1069  2.9105 -2.7920
  775MOL0     H 4564   8.356   5.964   8.408  0.2819 -1.8947  1.6882
  775MOL0     H 4565   8.190   5.963   8.480 -0.1937  1.3682  1.6880
  775MOL0     H 4566   8.155   6.200   8.460  0.5874  2.2817 -1.8326
  775MOL0     H 4567   8.300   6.226   8.382 -0.5788 -0.0491 -1.0925
  775MOL0     H 4568   8.223   6.088   8.185 -0.4375 -1.6422  0.3582
  775MOL0     H 4569   8.067   6.068   8.277  0.4590 -1.6463 -2.1254
  775MOL0     H 4570   8.038   6.315   8.301 -1.1420 -1.5221  0.6231
  775MOL0     H 4571   8.179   6.331   8.189  0.5457 -2.1127 -1.2390
  775MOL0     H 4572   7.971   6.365   8.086  0.1473  0.2168  0.0966
  775MOL0     H 4573   8.085   6.247   8.017  1.3187 -1.5985  1.8314
  775MOL0     H 4574   7.849   6.166   8.182  0.3675  0.9370 -0.3111
  775MOL0     H 4575   7.944   6.069   8.058 -1.4217  0.0094 -0.5497
  775MOL0     H 4576   7.767   6.022   7.862 -0.9086  0.0917  0.0374
  775MOL0     H 4577   7.482   6.204   7.711 -3.1173 -2.4359  0.7685
  775MOL0     H 4578   7.614   6.093   7.651 -0.6027 -0.9894  0.2453
  775MOL0     H 4579   7.431   6.010   7.861 -0.8635 -1.2968 -0.7807
  775MOL0     H 4580   7.544   5.916   7.766  2.2255  1.1335 -1.4676
  775MOL0     H 4581   7.395   5.981   7.550  0.3029 -0.9707  0.4690
  775MOL0     H 4582   7.298   6.079   7.671 -1.5963 -0.4925  1.4675
  775MOL0     H 4583   7.221   5.904   7.779  0.8989  1.2401  0.5318
  775MOL0     H 4584   7.306   5.787   7.676  0.9409  1.0575  0.5287
  775MOL0     H 4585   7.136   5.665   7.715  0.5371  1.3361  1.6217
  775MOL0     H 4586   6.958   5.395   7.663 -1.6246 -1.1265  1.2333
  775MOL0     H 4587   7.044   5.489   7.786  0.2319 -0.0073 -1.3730
  775MOL0     H 4588   6.868   5.469   7.796 -0.0732 -0.2842  1.7040
  775MOL0     H 4589   6.456   5.461   7.741 -2.5958 -1.0990  1.6044
  775MOL0     H 4590   6.280   5.308   7.714  0.8338  0.7239  1.5787
  775MOL0     H 4591   6.321   4.908   7.509 -3.7566  0.5762 -1.5287
  775MOL0     H 4592   6.359   4.889   7.687 -0.0012 -0.7948 -0.8645
  775MOL0     H 4593   6.169   4.752   7.603  0.6457 -0.0102  1.7480
  775MOL0     H 4594   6.102   4.863   7.720 -0.7659  0.4649 -0.3860
  775MOL0     H 4595   6.100   4.912   7.411 -1.7501 -0.3805 -0.7554
  775MOL0     H 4596   6.036   5.015   7.544 -0.4043 -0.8370  0.9947
  775MOL0     H 4597   5.948   4.724   7.502  0.8973  0.2223  0.8267
  775MOL0     H 4598   5.870   4.831   7.605 -0.3485  0.1973  0.1443
  775MOL0     H 4599   5.866   4.826   7.301  0.6527  1.6781 -0.5378
  775MOL0     H 4600   5.831   4.979   7.373  2.0630 -0.6389 -2.8664
  775MOL0     H 4601   5.695   4.722   7.429 -3.2137  0.1703  1.7045
  775MOL0     H 4602   5.639   4.877   7.499 -1.9319 -3.1290  0.7453
  775MOL0     H 4603   5.681   4.829   7.199  1.9401  1.9379  1.8445
  775MOL0     H 4604   5.586   4.960   7.279 -0.8296 -0.6498 -0.7452
  775MOL0     H 4605   5.504   4.664   7.280  0.1734 -0.0731  0.1475
  775MOL0     H 4606   5.431   4.789   7.188 -2.6662 -0.1276  1.8699
  775MOL0     H 4607   6.529   5.053   7.465  1.1811 -0.7919  1.2260
  775MOL0     H 4608   6.699   5.210   7.481 -1.0821 -2.0229 -2.4555
  775MOL0     H 4609   6.753   5.803   7.431  1.3560 -0.9509 -1.6618
  775MOL0     H 4610   6.946   5.939   7.445 -4.8014 -0.5227 -2.2310
  775MOL0     H 4611   8.729   6.187   8.687 -3.8011 -2.1408  0.3689
  775MOL0     H 4612   8.978   6.166   8.690  0.9538 -1.3092 -0.5444
  775MOL0     H 4613   9.386   5.968   8.275 -1.5776  0.5063  0.6388
  775MOL0     H 4614   9.620   5.939   8.312 -1.8727 -3.0631 -0.2062
  775MOL0     H 4615   9.867   5.917   8.380 -0.1839  2.6139 -1.3097
  775MOL0     H 4616   9.825   6.078   8.406  2.7150  1.6241  0.9599
  775MOL0     H 4617   9.944   6.105   8.606  2.8013  0.0049 -0.1854
  775MOL0     H 4618  10.053   6.052   8.475  1.0463 -1.5050  0.4031
  775MOL0     H 4619  10.050   5.822   8.546  0.6791 -1.1340  2.0006
  775MOL0     H 4620   9.969   5.877   8.698 -1.6289  1.5019 -0.0185
  775MOL0     H 4621  10.173   5.999   8.761 -0.8283 -0.7249  1.3329
  775MOL0     H 4622  10.241   5.989   8.605  0.9085 -1.6403 -0.6487
  775MOL0     H 4623  10.342   5.625   8.830 -0.1521 -1.3378 -0.6869
  775MOL0     H 4624   9.567   6.032   8.727 -0.6629  0.9807 -1.0675
  775MOL0     H 4625   9.347   6.030   8.702  0.1005 -0.3919  1.4227
  776MOL0     O 4626  10.722   4.225   6.198  0.4757  0.1363 -0.0203
  776MOL0     C 4627  10.776   4.334   6.187 -0.2263  0.3724 -0.4393
  776MOL0     O 4628  10.717   4.435   6.116  0.0823 -0.2495  0.0537
  776MOL0     C 4629  10.580   4.413   6.094 -0.4312 -0.5002 -0.0151
  776MOL0     C 4630  10.531   4.337   5.984  0.2127 -0.3195  0.3257
  776MOL0     C 4631  10.388   4.316   5.966  0.5910 -0.4688 -0.6623
  776MOL0     C 4632  10.300   4.364   6.062 -0.0978 -0.3681  0.1107
  776MOL0     O 4633  10.163   4.349   6.041 -0.0763 -0.1067  0.1947
  776MOL0     C 4634  10.072   4.361   6.156  0.5085 -0.0690  0.0084
  776MOL0     C 4635   9.924   4.357   6.109  0.7970  0.4260  0.3266
  776MOL0     C 4636   9.888   4.445   5.990  0.5336 -0.6405  0.4158
  776MOL0     C 4637   9.916   4.597   6.010 -0.2744  0.4060 -0.5552
  776MOL0     C 4638   9.861   4.683   5.893 -0.1243  0.0775 -0.1557
  776MOL0     C 4639   9.891   4.828   5.915 -0.4989  0.4993 -0.2210
  776MOL0     C 4640  10.050   4.851   5.902  0.0924 -0.7139  0.9875
  776MOL0     C 4641  10.079   4.996   5.858  0.0723  0.0928  0.4056
  776MOL0     N 4642  10.002   5.092   5.945  0.5937  0.1391 -1.0168
  776MOL0     C 4643   9.895   5.175   5.905 -0.4311 -0.2597  0.6384
  776MOL0     C 4644   9.868   5.249   6.013  0.8131 -0.2743  0.4920
  776MOL0     C 4645   9.777   5.364   5.996 -0.1909  0.2932  0.4599
  776MOL0     C 4646   9.630   5.323   5.965 -0.3117  0.5123 -0.3036
  776MOL0     C 4647   9.578   5.223   6.069  0.3970 -0.3754 -0.2195
  776MOL0     C 4648   9.424   5.229   6.062 -0.1093 -0.3998  0.5371
  776MOL0     O 4649   9.369   5.116   6.116  0.0879 -0.0002 -0.4457
  776MOL0     C 4650   9.235   5.097   6.129  1.0216 -0.5346  0.1899
  776MOL0     C 4651   9.205   4.967   6.185  0.3625 -0.6793 -0.0169
  776MOL0     C 4652   9.073   4.927   6.227 -0.3311  0.1557 -0.9345
  776MOL0     C 4653   9.069   4.784   6.289 -0.5534 -0.0187  0.4008
  776MOL0     C 4654   8.968   5.014   6.202  0.0514  0.5227  0.0641
  776MOL0     C 4655   8.821   4.983   6.222  0.5217  0.3611  0.9953
  776MOL0     O 4656   8.735   5.051   6.139  0.2605  0.3493  0.2915
  776MOL0     C 4657   8.602   5.037   6.172 -0.2265  0.0517  0.5845
  776MOL0     C 4658   8.529   4.920   6.135 -0.1257 -0.8042  0.2257
  776MOL0     C 4659   8.394   4.918   6.169 -0.2662  0.4601  0.3514
  776MOL0     C 4660   8.334   5.021   6.238  0.7466  0.1169  0.2446
  776MOL0     O 4661   8.200   4.996   6.266 -1.2389 -0.3514  0.1268
  776MOL0     C 4662   8.117   5.106   6.253 -0.7820 -0.0733  0.2858
  776MOL0     C 4663   7.974   5.062   6.255 -0.4654 -0.4811  0.6425
  776MOL0     C 4664   7.938   4.967   6.137 -0.8411 -0.7666 -0.1688
  776MOL0     C 4665   7.786   4.955   6.130 -0.7459  0.0375  0.2808
  776MOL0     C 4666   7.728   5.072   6.054  1.4064 -0.9793 -0.6062
  776MOL0     C 4667   7.568   5.058   6.051  0.0813 -0.3500  0.9630
  776MOL0     C 4668   7.500   5.174   5.974  0.4386  0.0756  0.0837
  776MOL0     C 4669   7.348   5.146   5.961 -0.2022 -0.1831 -0.0775
  776MOL0    Cl 4670   7.265   5.179   6.110 -0.4092  0.0470 -0.0230
  776MOL0     C 4671   8.398   5.143   6.262 -0.7291 -0.0395 -0.6054
  776MOL0     C 4672   8.538   5.151   6.230  0.9556 -0.4820  0.2897
  776MOL0     O 4673   8.791   4.882   6.281  0.8993  0.7597 -0.4612
  776MOL0     C 4674   8.992   5.143   6.144 -0.1876 -0.2065 -0.3073
  776MOL0     C 4675   9.123   5.189   6.130 -0.3603  0.4971  0.7175
  776MOL0     N 4676   9.953   5.215   6.116 -0.4870  0.8595  0.1012
  776MOL0     N 4677  10.028   5.119   6.076 -0.7175  0.3057  0.7305
  776MOL0     C 4678  10.347   4.426   6.178 -0.0951  0.4548  0.4506
  776MOL0     C 4679  10.484   4.452   6.188 -0.2008  0.1466 -0.0656
  776MOL0     C 4680  10.923   4.346   6.218 -0.1678  0.6603 -0.3416
  776MOL0     C 4681  11.000   4.444   6.161 -0.4178  0.3454 -0.8786
  776MOL0     C 4682  11.137   4.461   6.186  0.4045 -0.0838  0.6182
  776MOL0     C 4683  11.208   4.372   6.270  0.8970  0.5416 -0.4001
  776MOL0     O 4684  11.338   4.390   6.292  0.6891 -0.8701  0.8229
  776MOL0     C 4685  11.398   4.322   6.397  0.4561  0.1190 -0.7226
  776MOL0     C 4686  11.532   4.403   6.426  0.4126 -0.3199 -0.1595
  776MOL0     C 4687  11.609   4.362   6.562 -0.0371 -0.0680 -0.0730
  776MOL0     C 4688  11.686   4.224   6.540  0.1415 -0.3731 -0.1619
  776MOL0     C 4689  11.719   4.167   6.666 -0.2276  0.0910 -0.0346
  776MOL0     C 4690  11.757   4.125   6.776  0.2565  0.1006 -0.1766
  776MOL0     C 4691  11.130   4.261   6.325 -0.3077 -0.1673 -0.4936
  776MOL0     C 4692  10.988   4.258   6.305 -0.1785  0.4576  0.3436
  776MOL0     H 4693  10.609   4.300   5.918  0.3986  0.8169 -0.1076
  776MOL0     H 4694  10.337   4.276   5.878  1.2073  0.0211 -1.2524
  776MOL0     H 4695  10.095   4.294   6.240  2.5990  0.5377 -0.0328
  776MOL0     H 4696  10.074   4.463   6.194 -0.2828 -1.4256  4.2090
  776MOL0     H 4697   9.916   4.254   6.072  1.8361  0.5165 -0.1690
  776MOL0     H 4698   9.862   4.369   6.199  1.9535  0.4448  1.1521
  776MOL0     H 4699   9.938   4.412   5.898  0.1936 -1.4417  0.5106
  776MOL0     H 4700   9.781   4.432   5.970  0.7782 -2.7157  0.1730
  776MOL0     H 4701   9.876   4.631   6.105 -0.3953  0.0587 -0.4810
  776MOL0     H 4702  10.024   4.609   5.998 -0.3404 -0.2613 -2.1957
  776MOL0     H 4703   9.897   4.655   5.794 -1.1991  2.0529 -1.1642
  776MOL0     H 4704   9.753   4.671   5.883 -0.2474  0.6396  0.4189
  776MOL0     H 4705   9.840   4.882   5.835  1.6593  0.4122 -1.7386
  776MOL0     H 4706   9.860   4.872   6.010 -0.8634 -0.0932 -0.0554
  776MOL0     H 4707  10.110   4.820   5.989  3.3419 -2.3286 -1.5672
  776MOL0     H 4708  10.083   4.772   5.833  3.8737  0.1613  1.5496
  776MOL0     H 4709  10.043   5.008   5.755  0.7140 -1.1700  0.0148
  776MOL0     H 4710  10.180   5.032   5.879 -0.8789  2.8300  0.6601
  776MOL0     H 4711   9.856   5.182   5.804  2.2552  3.7890 -0.3454
  776MOL0     H 4712   9.785   5.427   6.086 -1.8464  0.8893  0.2409
  776MOL0     H 4713   9.827   5.414   5.913 -1.9639 -1.4034 -1.7636
  776MOL0     H 4714   9.617   5.265   5.873 -3.9770  0.4576  0.1125
  776MOL0     H 4715   9.573   5.416   5.963  0.5774  1.1103  0.8932
  776MOL0     H 4716   9.615   5.261   6.165  2.2593  0.4940 -1.2357
  776MOL0     H 4717   9.620   5.124   6.051  0.3547 -0.3115 -0.6699
  776MOL0     H 4718   9.405   5.236   5.955 -0.1805  1.3576  0.6360
  776MOL0     H 4719   9.381   5.317   6.112 -0.1538 -1.0574  1.6997
  776MOL0     H 4720   9.291   4.901   6.193  1.4357  0.2841 -2.6150
  776MOL0     H 4721   9.168   4.754   6.322 -1.0162 -0.2534  1.6447
  776MOL0     H 4722   9.011   4.777   6.382 -0.5785  3.1548  0.7428
  776MOL0     H 4723   9.040   4.715   6.210 -1.5544  0.4683  0.3212
  776MOL0     H 4724   8.583   4.840   6.086  1.6880  0.9101 -0.7151
  776MOL0     H 4725   8.343   4.824   6.148  2.2369 -1.0635  0.7647
  776MOL0     H 4726   8.136   5.175   6.336 -1.4589  0.5563 -0.0629
  776MOL0     H 4727   8.143   5.167   6.166 -0.5234  0.2281  0.5758
  776MOL0     H 4728   7.954   5.009   6.349  0.7411 -0.8319  0.7189
  776MOL0     H 4729   7.909   5.148   6.272 -1.1799 -1.2719  2.1539
  776MOL0     H 4730   7.985   4.869   6.151  2.3104  0.5778 -0.3001
  776MOL0     H 4731   7.981   5.005   6.043 -1.1488 -0.7600 -0.3065
  776MOL0     H 4732   7.753   4.867   6.073  1.5888 -1.4481  1.0686
  776MOL0     H 4733   7.748   4.934   6.230  0.6027 -0.7491  0.6503
  776MOL0     H 4734   7.768   5.068   5.953 -0.5411  2.2460 -1.6588
  776MOL0     H 4735   7.753   5.170   6.096  2.4050 -0.2461 -2.7972
  776MOL0     H 4736   7.547   4.964   5.998  3.2593 -0.7515  0.2037
  776MOL0     H 4737   7.529   5.060   6.153 -1.0999 -1.6601  0.5599
  776MOL0     H 4738   7.543   5.187   5.874 -0.3751 -0.4810 -0.3562
  776MOL0     H 4739   7.505   5.268   6.029 -0.1291  1.7995 -2.5999
  776MOL0     H 4740   7.338   5.038   5.945 -0.7458  0.0077 -1.1855
  776MOL0     H 4741   7.300   5.201   5.879  0.5957  1.7933  0.7401
  776MOL0     H 4742   8.356   5.235   6.300  4.3679  1.5854  2.0222
  776MOL0     H 4743   8.597   5.241   6.242  1.4125 -0.4028 -2.0044
  776MOL0     H 4744   8.909   5.211   6.129 -1.4857 -1.3928  1.1419
  776MOL0     H 4745   9.156   5.290   6.109  2.8759 -0.4933  0.4525
  776MOL0     H 4746  10.276   4.450   6.257 -0.7435 -0.5049  0.1723
  776MOL0     H 4747  10.520   4.508   6.274 -0.1321  2.1304 -1.3207
  776MOL0     H 4748  10.951   4.514   6.094  0.1586 -0.4937 -2.2157
  776MOL0     H 4749  11.188   4.543   6.137  0.5726 -1.1309 -1.0426
  776MOL0     H 4750  11.323   4.309   6.476 -1.5324  0.4190 -2.4525
  776MOL0     H 4751  11.422   4.217   6.379 -0.9990 -0.4677  0.4721
  776MOL0     H 4752  11.515   4.511   6.439  0.8447  0.0387 -2.1665
  776MOL0     H 4753  11.596   4.395   6.337 -0.9755 -0.2425 -1.1923
  776MOL0     H 4754  11.539   4.358   6.646 -1.7435 -1.8791 -1.4796
  776MOL0     H 4755  11.691   4.434   6.574 -0.6281  0.4751  0.9059
  776MOL0     H 4756  11.775   4.238   6.478  0.7302 -0.4951  0.6445
  776MOL0     H 4757  11.623   4.154   6.485 -0.5132  0.7250 -0.8581
  776MOL0     H 4758  11.813   4.100   6.863  0.6080  2.5209  0.3701
  776MOL0     H 4759  11.173   4.182   6.386 -0.0835  0.0053 -0.4259
  776MOL0     H 4760  10.932   4.175   6.347  1.8959 -1.7857 -1.0717
  777MOL0     O 4761  10.112   7.660  10.792  0.2278  0.1097 -0.0045
  777MOL0     C 4762  10.140   7.677  10.908 -1.3167 -0.0291 -0.5179
  777MOL0     O 4763  10.054   7.672  11.018  0.1234 -0.1793  0.0761
  777MOL0     C 4764   9.920   7.667  11.003  0.3931 -0.0680 -0.0150
  777MOL0     C 4765   9.848   7.687  10.885 -0.1784  0.2236  0.4045
  777MOL0     C 4766   9.711   7.674  10.882  0.6828 -0.5204 -0.3587
  777MOL0     C 4767   9.636   7.637  10.994 -0.7938 -0.4534  0.1473
  777MOL0     O 4768   9.503   7.616  10.983  0.8879 -0.7292 -0.4024
  777MOL0     C 4769   9.435   7.608  11.106 -0.5802  1.0816  0.1006
  777MOL0     C 4770   9.282   7.594  11.083  0.6119  0.2723  0.0470
  777MOL0     C 4771   9.199   7.602  11.211  0.0822  0.9218 -0.5793
  777MOL0     C 4772   9.196   7.464  11.287 -0.7412 -0.3119  0.7153
  777MOL0     C 4773   9.104   7.467  11.414  0.2577  0.4672 -0.8515
  777MOL0     C 4774   9.118   7.336  11.498  0.3603 -0.1153 -0.4801
  777MOL0     C 4775   9.033   7.347  11.626 -0.1009 -0.1410  0.4446
  777MOL0     C 4776   9.050   7.224  11.716  0.0693 -0.0253  0.3101
  777MOL0     N 4777   8.971   7.234  11.843 -0.8326 -0.6676 -0.1746
  777MOL0     C 4778   8.995   7.318  11.947  0.0016  0.0616 -0.4478
  777MOL0     C 4779   8.878   7.313  12.018  0.2357 -0.2937  0.5396
  777MOL0     C 4780   8.845   7.365  12.153  0.0795 -0.0591  0.2955
  777MOL0     C 4781   8.713   7.304  12.223  0.1660 -1.2311 -0.0648
  777MOL0     C 4782   8.739   7.158  12.256 -0.5732  0.0418  0.1248
  777MOL0     C 4783   8.617   7.089  12.320  0.2605 -0.4419 -0.1245
  777MOL0     O 4784   8.589   7.143  12.454  0.4908 -0.1606  0.1955
  777MOL0     C 4785   8.489   7.090  12.533  0.4240  0.1573 -0.0028
  777MOL0     C 4786   8.400   6.994  12.488 -0.5050 -0.7520 -0.9279
  777MOL0     C 4787   8.292   6.943  12.577 -0.3308  0.7053  0.0022
  777MOL0     C 4788   8.205   6.829  12.532 -0.3042  0.6211 -1.0639
  777MOL0     C 4789   8.280   7.001  12.707  0.6745 -0.1977 -0.5728
  777MOL0     C 4790   8.167   6.970  12.805  0.0651  0.2866 -0.0234
  777MOL0     O 4791   8.165   7.045  12.918 -0.1277  0.2354  0.2776
  777MOL0     C 4792   8.060   7.018  13.004 -0.4391  0.5978 -0.6764
  777MOL0     C 4793   8.089   7.002  13.135  0.2590  0.4288 -0.6767
  777MOL0     C 4794   7.983   6.972  13.230  0.6161  0.3292  1.3025
  777MOL0     C 4795   7.848   6.960  13.189  0.5152 -0.0562  0.5597
  777MOL0     O 4796   7.754   6.942  13.289 -0.0490 -0.3041 -0.4271
  777MOL0     C 4797   7.634   6.862  13.259 -0.0561 -0.3942 -0.1795
  777MOL0     C 4798   7.511   6.938  13.205  0.1014 -0.4455  0.1703
  777MOL0     C 4799   7.396   6.852  13.156  0.2370  0.6036  0.0022
  777MOL0     C 4800   7.287   6.944  13.108  0.3014 -0.7262 -0.0141
  777MOL0     C 4801   7.213   7.000  13.236 -0.3087  0.2669  0.1710
  777MOL0     C 4802   7.117   7.108  13.182 -0.5406  0.0703  0.0555
  777MOL0     C 4803   6.981   7.054  13.159  0.4505  0.9941 -0.5328
  777MOL0     C 4804   6.880   7.167  13.170 -0.2085 -0.5930  0.2138
  777MOL0    Cl 4805   6.907   7.294  13.050 -0.0877 -0.2235  0.3382
  777MOL0     C 4806   7.825   6.982  13.052 -0.0075  1.0408  0.8147
  777MOL0     C 4807   7.924   7.025  12.963 -0.0765  0.2860  0.3617
  777MOL0     O 4808   8.086   6.885  12.768  0.0278 -0.0339 -0.3232
  777MOL0     C 4809   8.358   7.112  12.742 -0.1091 -1.0046  0.6818
  777MOL0     C 4810   8.470   7.147  12.659 -0.0358 -0.4997 -0.1353
  777MOL0     N 4811   8.780   7.226  11.949 -0.3646 -0.4141  0.3697
  777MOL0     N 4812   8.844   7.185  11.840  0.1629 -0.8392 -0.7586
  777MOL0     C 4813   9.707   7.631  11.114 -0.9015  0.1229 -0.6751
  777MOL0     C 4814   9.849   7.645  11.119  0.4316  0.3439  0.1578
  777MOL0     C 4815  10.288   7.712  10.938 -0.2152  0.6503 -1.2952
  777MOL0     C 4816  10.383   7.692  10.842  0.6426 -0.5121  0.0981
  777MOL0     C 4817  10.520   7.716  10.862 -0.2957 -0.6841 -0.8806
  777MOL0     C 4818  10.564   7.741  10.987 -0.5196 -1.2528 -0.6434
  777MOL0     O 4819  10.695   7.753  11.026  0.3149 -0.3164  0.0059
  777MOL0     C 4820  10.811   7.712  10.951 -0.5509  0.5279 -0.3893
  777MOL0     C 4821  10.845   7.823  10.849 -0.3423  0.1410  0.5253
  777MOL0     C 4822  10.828   7.962  10.903  0.7231  0.1476 -0.0776
  777MOL0     C 4823  10.921   7.992  11.025 -0.6228  0.0514  0.8281
  777MOL0     C 4824  11.066   8.006  10.985 -0.5362  0.2417 -0.8539
  777MOL0     C 4825  11.190   8.004  10.973  0.5477  0.3838 -0.8941
  777MOL0     C 4826  10.468   7.756  11.093  0.0640 -0.4596 -0.3841
  777MOL0     C 4827  10.331   7.741  11.067 -0.1870  0.2699 -0.0344
  777MOL0     H 4828   9.890   7.719  10.789  1.5132  1.2601  1.4303
  777MOL0     H 4829   9.654   7.691  10.791  0.4614  1.4279  0.0940
  777MOL0     H 4830   9.475   7.524  11.164  2.1424  2.3559  0.2143
  777MOL0     H 4831   9.456   7.690  11.175  0.4687 -0.5624  1.8236
  777MOL0     H 4832   9.265   7.682  11.021  0.5589 -1.1652 -2.1041
  777MOL0     H 4833   9.254   7.516  11.011 -0.7370 -0.1839  1.0091
  777MOL0     H 4834   9.244   7.685  11.267 -1.4294  2.2089 -1.1903
  777MOL0     H 4835   9.097   7.630  11.182 -0.0272  0.1398 -0.9684
  777MOL0     H 4836   9.157   7.379  11.230 -3.5284  0.1212  1.8033
  777MOL0     H 4837   9.300   7.447  11.315 -0.1002 -0.6990 -1.7077
  777MOL0     H 4838   9.127   7.554  11.477 -1.1148 -0.3002  0.7620
  777MOL0     H 4839   9.003   7.488  11.377  0.3400  0.6807 -0.9601
  777MOL0     H 4840   9.077   7.253  11.439 -2.3832  0.8085 -0.0548
  777MOL0     H 4841   9.226   7.327  11.513  0.4520 -0.6701 -1.3965
  777MOL0     H 4842   9.056   7.444  11.671 -1.5128  1.7328 -2.5301
  777MOL0     H 4843   8.931   7.365  11.591  1.1809  1.8123 -2.8179
  777MOL0     H 4844   9.156   7.218  11.744 -0.1594 -0.6370  1.0764
  777MOL0     H 4845   9.026   7.137  11.655  0.7589  1.2983 -1.9776
  777MOL0     H 4846   9.092   7.360  11.973  0.4346 -2.0739  1.7626
  777MOL0     H 4847   8.919   7.356  12.233 -1.4068  0.0277  1.7247
  777MOL0     H 4848   8.820   7.470  12.142 -0.6613 -0.1415  1.1954
  777MOL0     H 4849   8.632   7.320  12.152  0.8671  2.7481 -0.2285
  777MOL0     H 4850   8.688   7.372  12.305  0.0268 -0.3601 -0.8104
  777MOL0     H 4851   8.821   7.140  12.326 -1.1290 -0.8609  0.5567
  777MOL0     H 4852   8.763   7.112  12.159  1.1402 -0.3343  0.6958
  777MOL0     H 4853   8.635   6.981  12.328 -0.4631 -0.6351 -0.9518
  777MOL0     H 4854   8.529   7.103  12.257 -1.4418  3.1483  2.6520
  777MOL0     H 4855   8.403   6.964  12.384 -0.3906  0.7056 -1.3641
  777MOL0     H 4856   8.237   6.797  12.433  0.9129  0.4226 -0.6261
  777MOL0     H 4857   8.226   6.741  12.593 -1.9919  1.4424  0.8331
  777MOL0     H 4858   8.098   6.854  12.532 -1.3928 -3.3169 -1.0395
  777MOL0     H 4859   8.190   7.013  13.172 -0.1427  2.9879 -0.1331
  777MOL0     H 4860   8.019   6.957  13.332  2.7846  0.5192  0.6214
  777MOL0     H 4861   7.640   6.787  13.180 -4.4220 -0.3808 -0.7440
  777MOL0     H 4862   7.606   6.809  13.351 -2.5451  2.0893  0.6115
  777MOL0     H 4863   7.483   7.011  13.281  1.4008  2.7172 -2.1594
  777MOL0     H 4864   7.550   7.003  13.125  3.7535 -2.4705  0.0616
  777MOL0     H 4865   7.356   6.780  13.228  0.1272  1.6781  1.0377
  777MOL0     H 4866   7.435   6.789  13.075  1.0510 -0.1413  0.9422
  777MOL0     H 4867   7.327   7.024  13.044 -0.7164 -0.3679 -0.2276
  777MOL0     H 4868   7.218   6.888  13.044  1.1839 -1.8921  0.0204
  777MOL0     H 4869   7.281   7.042  13.310 -0.2435 -2.3070  1.7017
  777MOL0     H 4870   7.158   6.923  13.291  1.6268  0.2719  2.2896
  777MOL0     H 4871   7.102   7.185  13.259  1.2038  0.2929  0.2123
  777MOL0     H 4872   7.155   7.165  13.097 -0.8357  0.3013  0.0778
  777MOL0     H 4873   6.965   6.974  13.232  3.4227 -0.0888 -0.9001
  777MOL0     H 4874   6.989   7.002  13.063  0.8410 -0.4107  0.2261
  777MOL0     H 4875   6.889   7.211  13.269  1.2774  1.2144 -0.6375
  777MOL0     H 4876   6.779   7.126  13.162  0.1797 -1.6990  0.7361
  777MOL0     H 4877   7.726   6.978  13.007  0.2576  1.4837  0.1800
  777MOL0     H 4878   7.888   7.047  12.863  2.0408 -1.9567 -0.9860
  777MOL0     H 4879   8.336   7.170  12.830  0.4652 -1.7244  1.3100
  777MOL0     H 4880   8.519   7.240  12.682 -0.1693 -0.5861  0.5125
  777MOL0     H 4881   9.660   7.624  11.212  0.1739  0.0437 -0.1401
  777MOL0     H 4882   9.899   7.637  11.215 -0.0255  0.9312  0.4542
  777MOL0     H 4883  10.347   7.655  10.747 -1.6310 -0.1587  0.7561
  777MOL0     H 4884  10.592   7.705  10.781  0.7522 -1.1704  0.0982
  777MOL0     H 4885  10.890   7.703  11.027 -1.2319 -2.0605  0.1234
  777MOL0     H 4886  10.795   7.614  10.906 -3.5531 -0.6484  2.8229
  777MOL0     H 4887  10.793   7.795  10.756 -0.1923  1.2256  0.1036
  777MOL0     H 4888  10.948   7.805  10.817 -0.7043 -2.5528  0.6166
  777MOL0     H 4889  10.722   7.969  10.930  0.9642 -0.2867  1.0547
  777MOL0     H 4890  10.832   8.033  10.820 -1.8889 -1.4373 -1.7131
  777MOL0     H 4891  10.928   7.919  11.106 -0.0894  1.6195  2.2673
  777MOL0     H 4892  10.896   8.091  11.066  1.5986  0.3072  1.6940
  777MOL0     H 4893  11.297   8.003  10.962  0.4790 -1.4541 -1.8753
  777MOL0     H 4894  10.515   7.771  11.189  1.1461  2.4939 -1.2770
  777MOL0     H 4895  10.265   7.762  11.151 -0.9113  3.7750 -1.2830
  778MOL0     O 4896   6.589   5.028   4.819  0.3997  0.7411 -0.2316
  778MOL0     C 4897   6.578   4.925   4.753  0.1719  0.0520  0.9256
  778MOL0     O 4898   6.500   4.907   4.635  0.1046 -0.0801  0.1855
  778MOL0     C 4899   6.400   4.986   4.587 -0.1587 -0.6173  0.3408
  778MOL0     C 4900   6.334   4.956   4.464 -0.4816 -0.3661  0.0070
  778MOL0     C 4901   6.236   5.037   4.413  0.1313 -0.2335  0.5467
  778MOL0     C 4902   6.198   5.148   4.483 -0.0432  0.2648  0.0746
  778MOL0     O 4903   6.101   5.217   4.425 -0.1364 -0.5171  0.1548
  778MOL0     C 4904   5.999   5.260   4.506 -0.5431 -0.1973  0.2409
  778MOL0     C 4905   5.893   5.326   4.424 -0.4882 -0.2725 -0.1573
  778MOL0     C 4906   5.811   5.224   4.335 -0.0506  0.2704 -0.5112
  778MOL0     C 4907   5.719   5.303   4.245 -0.2668 -0.1545 -0.5421
  778MOL0     C 4908   5.590   5.349   4.324 -0.5109 -0.0227  0.8583
  778MOL0     C 4909   5.499   5.435   4.236  0.5979  0.0831  0.6464
  778MOL0     C 4910   5.371   5.493   4.301 -0.4094 -0.7571  0.0990
  778MOL0     C 4911   5.346   5.616   4.213  1.0587  0.8247 -0.1979
  778MOL0     N 4912   5.236   5.693   4.266  0.3817 -0.1015 -0.4506
  778MOL0     C 4913   5.103   5.656   4.266  0.5684 -0.5733 -1.0899
  778MOL0     C 4914   5.032   5.765   4.299 -1.2659  0.2376 -0.2190
  778MOL0     C 4915   4.887   5.778   4.308 -0.0414 -0.4014 -0.3113
  778MOL0     C 4916   4.822   5.691   4.412  0.4344  0.1869  0.6983
  778MOL0     C 4917   4.858   5.736   4.560 -0.2471  0.0120 -0.1270
  778MOL0     C 4918   4.755   5.685   4.663 -0.5608  0.3925 -0.3958
  778MOL0     O 4919   4.778   5.735   4.801 -0.1836 -0.2940  0.0289
  778MOL0     C 4920   4.660   5.738   4.871  0.3662  0.1117 -0.2052
  778MOL0     C 4921   4.677   5.685   5.003  0.0097 -0.3697  0.6046
  778MOL0     C 4922   4.564   5.688   5.089 -1.1851 -1.2055 -0.0409
  778MOL0     C 4923   4.591   5.629   5.228 -0.2115  0.0774 -0.5936
  778MOL0     C 4924   4.440   5.730   5.040  0.5865  0.6035 -0.0827
  778MOL0     C 4925   4.334   5.730   5.140 -0.3837  0.0369  0.1832
  778MOL0     O 4926   4.288   5.841   5.198  0.1360 -0.2317  0.0691
  778MOL0     C 4927   4.192   5.834   5.294  0.2341  0.1958 -0.3108
  778MOL0     C 4928   4.099   5.934   5.300 -0.0076 -0.3452 -1.0046
  778MOL0     C 4929   4.015   5.939   5.409 -0.6155  0.1551 -0.7428
  778MOL0     C 4930   4.005   5.832   5.505  0.2028  0.0356  0.4521
  778MOL0     O 4931   3.921   5.865   5.608  0.0086 -0.0698 -0.2721
  778MOL0     C 4932   3.918   5.767   5.716 -1.0795 -0.3863  0.9807
  778MOL0     C 4933   3.792   5.784   5.804  0.1862  0.4088  0.3769
  778MOL0     C 4934   3.666   5.734   5.728  0.9526  0.3337  0.6850
  778MOL0     C 4935   3.541   5.799   5.793 -0.7781  1.0462 -0.0561
  778MOL0     C 4936   3.420   5.734   5.726  0.7066  0.0444 -0.4302
  778MOL0     C 4937   3.293   5.815   5.755  0.1760 -0.5140 -1.1118
  778MOL0     C 4938   3.259   5.825   5.912 -0.2813 -0.5570 -0.6078
  778MOL0     C 4939   3.125   5.895   5.936 -0.2382  0.0359  0.4619
  778MOL0    Cl 4940   2.981   5.805   5.876 -0.0401 -0.1509 -0.3827
  778MOL0     C 4941   4.104   5.731   5.497 -0.2844 -0.1320 -0.1159
  778MOL0     C 4942   4.189   5.729   5.393  0.3486 -0.4319 -0.1266
  778MOL0     O 4943   4.293   5.621   5.161  0.2098 -0.1681  0.2032
  778MOL0     C 4944   4.425   5.784   4.914  1.1647 -0.3547  0.8521
  778MOL0     C 4945   4.536   5.782   4.829  0.1524  0.4110 -0.2247
  778MOL0     N 4946   5.127   5.862   4.321  1.1395 -0.0925 -0.5439
  778MOL0     N 4947   5.248   5.822   4.303 -0.8833  0.1292 -0.3289
  778MOL0     C 4948   6.253   5.179   4.609  0.3953 -0.7243 -0.0831
  778MOL0     C 4949   6.357   5.097   4.660  0.5593 -0.1951 -0.3756
  778MOL0     C 4950   6.659   4.798   4.790  0.0166  0.3207  0.1968
  778MOL0     C 4951   6.685   4.691   4.696  0.2439 -0.0796  0.0387
  778MOL0     C 4952   6.761   4.580   4.734 -0.1199 -1.1266  0.4421
  778MOL0     C 4953   6.811   4.572   4.863  0.0953 -0.0979 -0.3884
  778MOL0     O 4954   6.880   4.454   4.886 -0.1950 -0.1757 -0.8241
  778MOL0     C 4955   6.904   4.416   5.022  0.2958 -0.1056 -0.1980
  778MOL0     C 4956   7.024   4.475   5.082  0.2623  0.7584 -1.0243
  778MOL0     C 4957   7.155   4.437   5.008 -0.3831 -0.9389  0.6389
  778MOL0     C 4958   7.276   4.528   5.057  0.4752 -0.2409 -0.6029
  778MOL0     C 4959   7.302   4.505   5.199 -0.2811  0.0256  0.2505
  778MOL0     C 4960   7.337   4.478   5.308  0.4478 -0.3129 -0.0436
  778MOL0     C 4961   6.789   4.676   4.954  0.3064 -0.4672  0.1657
  778MOL0     C 4962   6.719   4.787   4.916 -0.3927  0.0865  0.2127
  778MOL0     H 4963   6.363   4.872   4.403 -1.3996 -0.1714 -0.7200
  778MOL0     H 4964   6.186   5.018   4.319  1.3732 -0.0827 -0.1647
  778MOL0     H 4965   5.955   5.188   4.576  0.7320  0.3515  1.6784
  778MOL0     H 4966   6.044   5.333   4.574 -3.9055 -0.7233  3.3668
  778MOL0     H 4967   5.831   5.392   4.485  1.3660  1.4250  0.0210
  778MOL0     H 4968   5.946   5.391   4.353 -1.4068  1.5895  0.7926
  778MOL0     H 4969   5.881   5.176   4.267 -0.6384 -0.5086 -0.5793
  778MOL0     H 4970   5.751   5.162   4.402 -1.4370 -1.1575 -2.9178
  778MOL0     H 4971   5.771   5.394   4.216 -0.0499  1.0151  2.9760
  778MOL0     H 4972   5.698   5.242   4.157  1.9776 -0.3808 -0.9750
  778MOL0     H 4973   5.539   5.258   4.356 -2.0889  0.5558  0.0859
  778MOL0     H 4974   5.622   5.413   4.407  2.6077 -2.7762  1.9798
  778MOL0     H 4975   5.557   5.518   4.194 -0.7862  0.9549  0.4076
  778MOL0     H 4976   5.456   5.386   4.149 -1.5459  0.4866  1.4135
  778MOL0     H 4977   5.284   5.427   4.308  0.3796 -1.8303  0.0232
  778MOL0     H 4978   5.394   5.536   4.399  0.8552 -0.5355 -0.2790
  778MOL0     H 4979   5.328   5.588   4.109  3.3962  2.1193 -0.9981
  778MOL0     H 4980   5.439   5.672   4.206  1.5041  0.0026 -1.0693
  778MOL0     H 4981   5.059   5.560   4.239 -0.0721  0.0980 -2.5538
  778MOL0     H 4982   4.860   5.882   4.329 -1.0130 -0.0712 -2.8883
  778MOL0     H 4983   4.845   5.755   4.210 -2.5546 -2.1026  1.0419
  778MOL0     H 4984   4.857   5.587   4.407 -1.9343 -0.7740  2.3118
  778MOL0     H 4985   4.715   5.692   4.388  1.1756  1.3480 -3.3117
  778MOL0     H 4986   4.863   5.845   4.558  2.5131 -0.0464 -0.7114
  778MOL0     H 4987   4.957   5.705   4.596 -0.8083 -0.0113  1.4501
  778MOL0     H 4988   4.753   5.575   4.668 -0.0366  0.3366 -1.2282
  778MOL0     H 4989   4.666   5.733   4.622  0.0199  2.1318  0.3125
  778MOL0     H 4990   4.774   5.647   5.031 -0.6476 -0.4435  3.0367
  778MOL0     H 4991   4.546   5.685   5.310 -0.9470 -3.3368  1.5172
  778MOL0     H 4992   4.555   5.526   5.240 -1.4219  0.5887  0.4220
  778MOL0     H 4993   4.699   5.636   5.244 -0.0336 -0.1389 -1.6170
  778MOL0     H 4994   4.091   6.013   5.226  1.1223 -1.2604 -2.1459
  778MOL0     H 4995   3.958   6.031   5.419  2.2971  1.8953  1.6427
  778MOL0     H 4996   3.917   5.667   5.670 -0.6836  0.3708 -0.7580
  778MOL0     H 4997   4.010   5.778   5.774  0.0770 -2.0373 -0.4300
  778MOL0     H 4998   3.800   5.731   5.899  0.4548  1.1018  0.7512
  778MOL0     H 4999   3.776   5.890   5.829  2.7432  0.5638  1.6361
  778MOL0     H 5000   3.658   5.626   5.736 -2.0495  0.3259 -1.0675
  778MOL0     H 5001   3.654   5.751   5.621 -2.1515 -1.9573  0.5206
  778MOL0     H 5002   3.543   5.775   5.900 -0.9467 -1.6308 -0.5850
  778MOL0     H 5003   3.539   5.907   5.772  0.7734  1.3898  1.3145
  778MOL0     H 5004   3.409   5.629   5.755  0.3972 -0.0828 -0.9948
  778MOL0     H 5005   3.419   5.723   5.617 -1.8918  0.0840 -0.4717
  778MOL0     H 5006   3.294   5.918   5.718  1.8406  0.4634  1.3844
  778MOL0     H 5007   3.211   5.773   5.696 -0.9788  0.6285 -0.3685
  778MOL0     H 5008   3.338   5.889   5.951 -0.4614 -0.7415  0.0729
  778MOL0     H 5009   3.272   5.729   5.963 -0.8322  0.0220  0.6683
  778MOL0     H 5010   3.140   5.983   5.873  1.8739 -2.0508 -2.1973
  778MOL0     H 5011   3.126   5.926   6.041  1.9378  0.1447  0.4476
  778MOL0     H 5012   4.120   5.666   5.582 -0.1241  1.5316  1.1816
  778MOL0     H 5013   4.272   5.659   5.394 -0.5637 -1.5703  1.1767
  778MOL0     H 5014   4.326   5.812   4.882  1.0646 -0.6399  0.9117
  778MOL0     H 5015   4.519   5.826   4.731 -1.5363  1.7299  0.5936
  778MOL0     H 5016   6.230   5.267   4.668 -0.6811 -1.1331  0.1409
  778MOL0     H 5017   6.402   5.132   4.753 -1.3701 -1.0842  0.9599
  778MOL0     H 5018   6.642   4.693   4.597 -0.1911  1.0497  0.2315
  778MOL0     H 5019   6.789   4.501   4.665 -0.9015  0.7767 -2.2181
  778MOL0     H 5020   6.814   4.443   5.079  1.2518  1.0477  0.8178
  778MOL0     H 5021   6.921   4.308   5.030  1.7280  0.1441  0.4276
  778MOL0     H 5022   7.035   4.427   5.179 -0.3408 -0.2182 -1.4329
  778MOL0     H 5023   7.012   4.584   5.084 -2.8330  0.4891  0.8277
  778MOL0     H 5024   7.148   4.447   4.899 -0.8425 -1.1289  0.6506
  778MOL0     H 5025   7.164   4.329   5.018 -1.0001 -1.0015  0.5230
  778MOL0     H 5026   7.255   4.632   5.031  2.0207  0.3378  0.3279
  778MOL0     H 5027   7.369   4.502   5.005  1.0546 -1.1189  0.8114
  778MOL0     H 5028   7.354   4.453   5.411  0.2072  0.5649  0.2218
  778MOL0     H 5029   6.817   4.665   5.059 -1.3869 -0.5176  0.6347
  778MOL0     H 5030   6.705   4.873   4.981 -1.0503  1.1465 -1.2753
  779MOL0     O 5031   5.258   7.350   7.549  0.7472 -0.0423  0.4477
  779MOL0     C 5032   5.217   7.295   7.450 -0.8372  0.5166 -0.0464
  779MOL0     O 5033   5.087   7.256   7.427  0.3331  0.7029  0.8070
  779MOL0     C 5034   4.981   7.269   7.517  0.2483  0.5781 -0.0281
  779MOL0     C 5035   4.991   7.306   7.650  0.7555  1.2922 -0.4547
  779MOL0     C 5036   4.881   7.340   7.732 -0.4285 -0.6024  0.3117
  779MOL0     C 5037   4.755   7.328   7.676  0.2937  0.5353 -0.7070
  779MOL0     O 5038   4.646   7.383   7.743  0.3746 -0.3774  0.3876
  779MOL0     C 5039   4.517   7.328   7.704  0.3635  0.0055  0.2675
  779MOL0     C 5040   4.416   7.370   7.817 -0.2705  0.0120 -0.1243
  779MOL0     C 5041   4.275   7.308   7.820  0.1604  0.7218  0.4241
  779MOL0     C 5042   4.203   7.329   7.685  0.1988 -0.1898  0.4760
  779MOL0     C 5043   4.057   7.275   7.687  0.0672 -0.3395 -0.3049
  779MOL0     C 5044   3.999   7.243   7.553 -0.1942  0.8248  0.9781
  779MOL0     C 5045   3.852   7.213   7.539 -0.0545  0.2525  0.0201
  779MOL0     C 5046   3.760   7.335   7.560 -0.3793 -0.3765 -0.9371
  779MOL0     N 5047   3.611   7.304   7.572 -0.1134  0.2734 -0.1785
  779MOL0     C 5048   3.544   7.305   7.452  1.0147 -0.9680  0.3701
  779MOL0     C 5049   3.410   7.306   7.487 -0.2632  0.7760  0.4237
  779MOL0     C 5050   3.304   7.287   7.389 -0.0103  0.4435  0.0373
  779MOL0     C 5051   3.166   7.349   7.412 -0.0089 -0.3461 -0.4235
  779MOL0     C 5052   3.074   7.323   7.298 -0.0125  0.3901 -0.1883
  779MOL0     C 5053   2.962   7.420   7.289 -0.5582 -0.2737 -1.2291
  779MOL0     O 5054   2.903   7.377   7.174 -0.0981  0.2331  0.2010
  779MOL0     C 5055   2.788   7.442   7.128  1.0278  0.1460  0.0390
  779MOL0     C 5056   2.728   7.377   7.017  0.0108 -1.0634  0.2123
  779MOL0     C 5057   2.608   7.421   6.951  0.2720 -0.3037 -0.4665
  779MOL0     C 5058   2.562   7.342   6.831  0.2991  0.2452  0.1426
  779MOL0     C 5059   2.541   7.535   7.002 -0.0054 -0.2796 -0.3327
  779MOL0     C 5060   2.421   7.588   6.941 -0.2202  0.5095 -0.0892
  779MOL0     O 5061   2.391   7.568   6.810  0.0543 -0.2354 -0.2741
  779MOL0     C 5062   2.266   7.584   6.770  0.6216  0.2690  0.4475
  779MOL0     C 5063   2.219   7.706   6.715  0.4106 -0.3283 -0.4328
  779MOL0     C 5064   2.095   7.714   6.663 -0.0122  0.6362  1.0527
  779MOL0     C 5065   2.018   7.594   6.645  0.7359 -0.8986 -0.2295
  779MOL0     O 5066   1.896   7.621   6.586 -0.3394  0.1681 -0.1471
  779MOL0     C 5067   1.820   7.517   6.522  0.3530  0.6884  0.2346
  779MOL0     C 5068   1.680   7.574   6.498  0.4525  0.2845  0.3136
  779MOL0     C 5069   1.584   7.484   6.417 -0.3210 -0.5360  0.0606
  779MOL0     C 5070   1.451   7.562   6.403  0.7190 -0.0050  0.1899
  779MOL0     C 5071   1.350   7.480   6.307 -0.3210 -0.3100 -0.0107
  779MOL0     C 5072   1.210   7.537   6.323  0.9756 -0.0322  0.3919
  779MOL0     C 5073   1.195   7.680   6.264 -0.5288  0.5387  0.4185
  779MOL0     C 5074   1.047   7.725   6.272 -0.3504 -1.1314  0.1697
  779MOL0    Cl 5075   0.945   7.608   6.185 -0.0834  0.0097 -0.1034
  779MOL0     C 5076   2.064   7.468   6.690  0.5787  0.0849 -0.2410
  779MOL0     C 5077   2.193   7.467   6.749  0.0780  0.3516  0.1875
  779MOL0     O 5078   2.349   7.654   7.020  0.0869 -0.4923 -0.8392
  779MOL0     C 5079   2.598   7.606   7.123  0.4237 -0.4207  1.0058
  779MOL0     C 5080   2.720   7.553   7.177  0.9073 -0.8422 -0.1003
  779MOL0     N 5081   3.401   7.311   7.628  0.1891 -0.0339  0.2922
  779MOL0     N 5082   3.522   7.298   7.678 -0.6269 -0.5271 -0.0079
  779MOL0     C 5083   4.741   7.284   7.548 -0.4367  0.0556 -0.5067
  779MOL0     C 5084   4.853   7.255   7.468  0.1044 -0.8827 -0.3698
  779MOL0     C 5085   5.319   7.280   7.342  0.8364  0.3263 -0.7137
  779MOL0     C 5086   5.277   7.209   7.226  0.3221 -0.5966 -1.0992
  779MOL0     C 5087   5.365   7.182   7.125 -0.1952 -0.0363  0.3978
  779MOL0     C 5088   5.490   7.225   7.135  0.1199  0.5702  0.1663
  779MOL0     O 5089   5.567   7.197   7.021  0.1913 -0.4906 -0.2801
  779MOL0     C 5090   5.676   7.285   6.996  0.0799  0.1978 -0.0920
  779MOL0     C 5091   5.783   7.243   6.898 -0.0095  0.1288 -0.1213
  779MOL0     C 5092   5.808   7.097   6.910  0.3539 -0.6399  0.4135
  779MOL0     C 5093   5.890   7.075   7.034  0.0624 -0.4165 -0.6474
  779MOL0     C 5094   5.912   6.932   7.045 -0.2470 -0.0428 -0.8330
  779MOL0     C 5095   5.948   6.818   7.036 -0.3183  0.1228 -0.4991
  779MOL0     C 5096   5.538   7.285   7.253  0.0006 -1.3478 -0.1293
  779MOL0     C 5097   5.448   7.317   7.356 -0.4211  0.6950 -0.0360
  779MOL0     H 5098   5.084   7.311   7.705  0.7041  3.1168 -0.4521
  779MOL0     H 5099   4.875   7.364   7.838 -2.9490  0.9964 -0.1073
  779MOL0     H 5100   4.481   7.372   7.610  1.4744 -2.6248 -1.5039
  779MOL0     H 5101   4.514   7.221   7.684 -0.4794  0.0084  0.3218
  779MOL0     H 5102   4.465   7.358   7.913 -0.7254 -2.6327 -0.1601
  779MOL0     H 5103   4.408   7.479   7.805  1.7715  0.0310 -2.0897
  779MOL0     H 5104   4.279   7.200   7.838 -1.8994 -0.0139 -2.7504
  779MOL0     H 5105   4.210   7.348   7.898  1.0564  1.4824  0.7969
  779MOL0     H 5106   4.187   7.436   7.668  1.1208 -0.1605 -0.3314
  779MOL0     H 5107   4.263   7.273   7.613  0.8431 -0.0043  0.8580
  779MOL0     H 5108   4.050   7.187   7.751  1.3302 -0.6719 -0.5963
  779MOL0     H 5109   4.004   7.355   7.739  0.6797 -0.6593  0.8554
  779MOL0     H 5110   4.005   7.331   7.488 -0.6217  0.9307  1.0764
  779MOL0     H 5111   4.058   7.160   7.515  1.1592  0.2668  3.9753
  779MOL0     H 5112   3.822   7.174   7.441 -2.2987 -0.7621  1.0491
  779MOL0     H 5113   3.825   7.136   7.611  1.2822  1.1529  1.5543
  779MOL0     H 5114   3.770   7.416   7.488 -0.8255 -0.0598 -0.6518
  779MOL0     H 5115   3.785   7.370   7.660 -4.1251 -2.1215  0.8267
  779MOL0     H 5116   3.578   7.318   7.350 -0.4960  4.1277  0.2279
  779MOL0     H 5117   3.337   7.331   7.294  0.3754 -1.1977 -0.6328
  779MOL0     H 5118   3.309   7.178   7.381  2.4330  0.3760  1.4295
  779MOL0     H 5119   3.177   7.458   7.417  0.7833 -0.4684  1.1112
  779MOL0     H 5120   3.123   7.312   7.506 -0.2660 -0.2306 -0.4948
  779MOL0     H 5121   3.042   7.218   7.302  1.1522 -0.0865 -2.0127
  779MOL0     H 5122   3.141   7.333   7.212  0.5224  1.1716  0.3035
  779MOL0     H 5123   2.996   7.524   7.286 -0.0741 -0.3866 -0.1278
  779MOL0     H 5124   2.893   7.403   7.372  1.1661  1.0458  0.5758
  779MOL0     H 5125   2.771   7.289   6.972  0.9174 -0.6082  0.1669
  779MOL0     H 5126   2.617   7.248   6.828 -0.7351 -0.5580  3.0839
  779MOL0     H 5127   2.454   7.326   6.831 -0.3366  3.5520 -2.2701
  779MOL0     H 5128   2.563   7.397   6.737 -1.5950  0.0244 -0.0381
  779MOL0     H 5129   2.277   7.793   6.746  0.1515 -1.7027  4.8458
  779MOL0     H 5130   2.071   7.812   6.625 -3.1313 -0.6675 -0.6742
  779MOL0     H 5131   1.871   7.496   6.427  0.0194 -0.2671  0.2605
  779MOL0     H 5132   1.812   7.419   6.570  0.4383  1.2864  1.5151
  779MOL0     H 5133   1.629   7.599   6.592 -1.6675 -3.3658  0.3353
  779MOL0     H 5134   1.696   7.667   6.443 -1.5312  0.5499  0.0845
  779MOL0     H 5135   1.574   7.394   6.479  2.1754  0.0655  1.4893
  779MOL0     H 5136   1.621   7.462   6.317 -0.1606  0.5061 -0.1210
  779MOL0     H 5137   1.396   7.567   6.497 -3.0097 -1.4839 -1.6968
  779MOL0     H 5138   1.465   7.663   6.364  0.3296  0.3279  0.8818
  779MOL0     H 5139   1.361   7.374   6.332  2.9993 -0.8344 -2.9008
  779MOL0     H 5140   1.375   7.489   6.201  2.6146  3.0045  0.7522
  779MOL0     H 5141   1.135   7.471   6.277 -2.3167  2.9617  1.0122
  779MOL0     H 5142   1.190   7.547   6.430  0.4868 -0.0641  0.3064
  779MOL0     H 5143   1.230   7.681   6.160  0.8598 -1.4926  0.7963
  779MOL0     H 5144   1.255   7.750   6.324 -1.8273  2.5589 -0.5390
  779MOL0     H 5145   1.041   7.823   6.223  2.2711  0.0556  2.0076
  779MOL0     H 5146   1.027   7.730   6.379  0.4756  0.2244  0.2873
  779MOL0     H 5147   2.008   7.376   6.680 -1.7399  0.9954  2.7025
  779MOL0     H 5148   2.229   7.377   6.798 -1.4528 -2.5233 -3.4500
  779MOL0     H 5149   2.551   7.693   7.167  0.3362 -0.4722  1.0139
  779MOL0     H 5150   2.757   7.598   7.269  0.7313 -1.9884  0.5572
  779MOL0     H 5151   4.647   7.287   7.493  0.6323 -0.7732 -2.4947
  779MOL0     H 5152   4.853   7.227   7.363  1.4137 -0.6639 -0.4398
  779MOL0     H 5153   5.172   7.182   7.219 -0.5007  0.8333  2.7906
  779MOL0     H 5154   5.343   7.129   7.033 -3.4843  2.6845 -0.5813
  779MOL0     H 5155   5.642   7.385   6.966  2.7456  0.5461 -2.4051
  779MOL0     H 5156   5.731   7.296   7.090 -1.1954  1.9218  0.5179
  779MOL0     H 5157   5.874   7.298   6.922 -0.9405  0.9735  1.7359
  779MOL0     H 5158   5.750   7.273   6.797  0.6684  1.7276  0.1002
  779MOL0     H 5159   5.863   7.071   6.819  0.1442 -0.4229  0.2195
  779MOL0     H 5160   5.715   7.039   6.904 -0.7629  1.1850 -2.8295
  779MOL0     H 5161   5.830   7.116   7.117 -0.0954 -0.2960 -0.8192
  779MOL0     H 5162   5.984   7.130   7.031 -0.0334 -0.1339  0.7487
  779MOL0     H 5163   5.986   6.718   7.035  2.3694  1.0585 -0.3282
  779MOL0     H 5164   5.643   7.312   7.264 -0.0442 -0.1792 -2.0907
  779MOL0     H 5165   5.487   7.362   7.447  0.3342 -2.3325  1.2946
  780MOL0     O 5166   3.594   5.928   3.644 -0.2884 -0.0319  0.2693
  780MOL0     C 5167   3.646   5.825   3.593  0.0766 -0.1088 -0.3123
  780MOL0     O 5168   3.576   5.712   3.559  0.4497 -1.2009 -0.5007
  780MOL0     C 5169   3.457   5.694   3.618 -0.5696 -0.7274  0.7138
  780MOL0     C 5170   3.402   5.743   3.732  0.6553 -0.4558  1.1064
  780MOL0     C 5171   3.263   5.721   3.773  0.5844 -0.0022 -0.8648
  780MOL0     C 5172   3.179   5.652   3.691 -0.1653  0.2862  0.3885
  780MOL0     O 5173   3.043   5.643   3.734 -0.0555 -0.1843 -0.2546
  780MOL0     C 5174   2.944   5.578   3.653  0.1448  0.4993  0.8619
  780MOL0     C 5175   2.807   5.600   3.713  0.0069 -0.8626  0.6480
  780MOL0     C 5176   2.764   5.750   3.694 -0.9311 -0.2095  0.8855
  780MOL0     C 5177   2.617   5.760   3.713  0.3413  0.5923 -0.2072
  780MOL0     C 5178   2.583   5.917   3.726 -0.1775 -0.2921 -0.6004
  780MOL0     C 5179   2.425   5.936   3.733  0.0632 -0.8268 -0.0850
  780MOL0     C 5180   2.370   6.064   3.772 -0.1668 -0.3375  0.0576
  780MOL0     C 5181   2.309   6.158   3.670 -1.2443 -0.8784  0.0329
  780MOL0     N 5182   2.177   6.114   3.619 -0.1345 -0.3422  0.4195
  780MOL0     C 5183   2.066   6.077   3.689 -1.4648  0.2786  0.2600
  780MOL0     C 5184   1.976   6.035   3.597  0.3612  0.6310 -0.2304
  780MOL0     C 5185   1.843   5.968   3.612  0.3497 -0.2228  0.4799
  780MOL0     C 5186   1.851   5.823   3.580  0.0832 -0.1662 -0.5436
  780MOL0     C 5187   1.717   5.745   3.603 -0.2634  0.1644  0.4049
  780MOL0     C 5188   1.633   5.785   3.714 -0.2775  0.6609  0.6637
  780MOL0     O 5189   1.534   5.684   3.752 -0.7239 -0.0119 -0.4120
  780MOL0     C 5190   1.419   5.666   3.681 -0.2009 -0.1645 -0.2064
  780MOL0     C 5191   1.325   5.582   3.743  0.6805  0.3734  0.7578
  780MOL0     C 5192   1.186   5.574   3.699 -0.8188  0.5072 -0.0258
  780MOL0     C 5193   1.105   5.483   3.774  0.7281  0.1574 -0.4270
  780MOL0     C 5194   1.141   5.648   3.591 -0.0709 -0.3303  0.8541
  780MOL0     C 5195   1.001   5.657   3.543  0.2549 -0.4869 -0.0995
  780MOL0     O 5196   0.921   5.546   3.554  0.4247 -0.0898  0.1924
  780MOL0     C 5197   0.783   5.570   3.539  0.5555  0.7582 -0.7549
  780MOL0     C 5198   0.709   5.641   3.640  0.5581 -0.0303 -0.3583
  780MOL0     C 5199   0.567   5.642   3.646 -0.2332 -0.4178  0.0268
  780MOL0     C 5200   0.497   5.558   3.553 -0.7644 -0.7998  0.7410
  780MOL0     O 5201   0.358   5.556   3.550  0.7618  0.1113 -0.0194
  780MOL0     C 5202   0.293   5.571   3.426 -0.4260 -0.2119 -0.5959
  780MOL0     C 5203   0.163   5.646   3.452  0.0706 -0.2116  0.2956
  780MOL0     C 5204   0.076   5.672   3.321  0.5424 -0.1179 -0.3320
  780MOL0     C 5205  -0.053   5.742   3.360  0.7207 -0.2635 -0.2477
  780MOL0     C 5206  -0.125   5.794   3.236 -0.2853  0.2984  0.0515
  780MOL0     C 5207  -0.256   5.872   3.272 -0.8232 -0.2286  0.7748
  780MOL0     C 5208  -0.233   6.020   3.307  0.1534  0.7621 -0.0319
  780MOL0     C 5209  -0.358   6.069   3.377 -0.8180 -0.4305 -0.1089
  780MOL0    Cl 5210  -0.495   6.061   3.257 -0.1122 -0.0103 -0.0124
  780MOL0     C 5211   0.574   5.499   3.443  0.7987  0.8082 -0.5255
  780MOL0     C 5212   0.717   5.511   3.437 -0.0242 -0.1251  0.7379
  780MOL0     O 5213   0.962   5.765   3.488 -0.7151  0.6216 -0.1660
  780MOL0     C 5214   1.240   5.715   3.521  1.1072 -0.5686  0.6802
  780MOL0     C 5215   1.373   5.737   3.572 -0.0377 -0.6700 -0.0317
  780MOL0     N 5216   2.027   6.062   3.473 -0.4040 -0.1461 -0.1032
  780MOL0     N 5217   2.143   6.104   3.489  0.0937  1.1958 -0.0519
  780MOL0     C 5218   3.233   5.605   3.571 -0.2304 -0.1326  0.2515
  780MOL0     C 5219   3.373   5.626   3.540  0.9081  0.8606  0.0047
  780MOL0     C 5220   3.781   5.832   3.557  0.0326  0.3620  1.2888
  780MOL0     C 5221   3.848   5.949   3.555  0.4349  1.1164 -0.2543
  780MOL0     C 5222   3.970   5.969   3.495  0.6457  0.6222  0.3648
  780MOL0     C 5223   4.041   5.867   3.444 -0.1985 -0.2706  0.1864
  780MOL0     O 5224   4.166   5.896   3.385  0.6762 -0.8796 -0.5545
  780MOL0     C 5225   4.246   5.784   3.363 -0.0813  0.2009 -0.1497
  780MOL0     C 5226   4.392   5.830   3.325 -0.5151 -0.2703 -0.9237
  780MOL0     C 5227   4.406   5.894   3.194 -0.2237 -0.0361 -0.6039
  780MOL0     C 5228   4.541   5.960   3.171 -0.3596  0.9703  0.4671
  780MOL0     C 5229   4.560   5.964   3.021  0.8418  0.3263  0.2765
  780MOL0     C 5230   4.571   5.981   2.901  0.4028 -0.5984 -0.4965
  780MOL0     C 5231   3.985   5.739   3.447  0.0432  0.1392  0.4087
  780MOL0     C 5232   3.853   5.722   3.502 -0.3466 -0.2350 -0.6074
  780MOL0     H 5233   3.471   5.787   3.804  2.0414  1.4419 -1.2589
  780MOL0     H 5234   3.234   5.746   3.875  0.4529 -0.1435 -0.8686
  780MOL0     H 5235   2.946   5.616   3.551  1.0726 -2.2902 -0.2446
  780MOL0     H 5236   2.963   5.470   3.660  0.6528  0.5023 -0.2673
  780MOL0     H 5237   2.738   5.533   3.660  0.2930 -0.7752  0.1610
  780MOL0     H 5238   2.796   5.567   3.816 -1.6059 -0.1245  0.7441
  780MOL0     H 5239   2.819   5.806   3.770 -0.5777 -1.6230  1.7011
  780MOL0     H 5240   2.793   5.789   3.596  1.0364  0.9939  1.8858
  780MOL0     H 5241   2.560   5.713   3.632  0.8269 -0.9966  0.3248
  780MOL0     H 5242   2.583   5.699   3.797  0.7896 -0.6062 -0.8611
  780MOL0     H 5243   2.629   5.946   3.820 -1.7612  1.8462 -0.4242
  780MOL0     H 5244   2.624   5.979   3.646 -2.6265  3.8445  1.0698
  780MOL0     H 5245   2.386   5.917   3.632 -1.7561  3.7804 -0.5075
  780MOL0     H 5246   2.384   5.855   3.794  1.6907 -0.5764  1.4235
  780MOL0     H 5247   2.300   6.045   3.854 -2.5670  0.6989 -1.6335
  780MOL0     H 5248   2.448   6.123   3.822 -0.6465 -0.2629  0.7276
  780MOL0     H 5249   2.371   6.161   3.580  1.7021 -0.4205  1.9598
  780MOL0     H 5250   2.304   6.259   3.711  3.5670  0.6686 -2.4736
  780MOL0     H 5251   2.066   6.064   3.797  0.1793 -3.6249 -0.0311
  780MOL0     H 5252   1.798   5.985   3.710 -0.6431 -0.6868  0.1214
  780MOL0     H 5253   1.770   6.015   3.545 -0.9460 -1.7258  0.7568
  780MOL0     H 5254   1.923   5.777   3.648 -0.5015  0.9145  0.8783
  780MOL0     H 5255   1.888   5.818   3.477  1.4011  3.7372 -0.4560
  780MOL0     H 5256   1.730   5.638   3.622  1.0774  0.2279 -0.0971
  780MOL0     H 5257   1.670   5.753   3.505  2.3795  3.1992 -0.7705
  780MOL0     H 5258   1.594   5.886   3.696  0.2280  0.7982  0.3172
  780MOL0     H 5259   1.701   5.790   3.800 -0.2566 -1.1853  0.7954
  780MOL0     H 5260   1.350   5.543   3.841 -0.5916  0.5951  1.1897
  780MOL0     H 5261   1.028   5.542   3.824  1.2602  0.5389 -0.0474
  780MOL0     H 5262   1.054   5.404   3.719  0.1748 -1.4425  2.2525
  780MOL0     H 5263   1.165   5.433   3.851  2.7480  4.1079  0.8488
  780MOL0     H 5264   0.761   5.695   3.719 -1.1341  0.1921  0.6584
  780MOL0     H 5265   0.513   5.700   3.720 -1.9051  0.4410 -1.7733
  780MOL0     H 5266   0.355   5.632   3.359  2.8188  0.0677  2.3487
  780MOL0     H 5267   0.272   5.476   3.377 -2.0441  1.4529 -3.3944
  780MOL0     H 5268   0.103   5.586   3.521  0.7660  1.0502  2.0672
  780MOL0     H 5269   0.169   5.740   3.507 -1.9063  1.2306 -1.7735
  780MOL0     H 5270   0.049   5.582   3.266  0.8779 -0.1710 -0.4066
  780MOL0     H 5271   0.146   5.742   3.275  2.6471  0.2937  3.1036
  780MOL0     H 5272  -0.126   5.682   3.415  2.0992 -0.6135  1.2747
  780MOL0     H 5273  -0.027   5.821   3.431  0.1425  0.9112 -1.2952
  780MOL0     H 5274  -0.151   5.710   3.171 -1.6238  1.7058 -1.3310
  780MOL0     H 5275  -0.050   5.853   3.182  1.2003 -1.0685  0.5308
  780MOL0     H 5276  -0.310   5.874   3.177  1.1610  0.0022 -0.4124
  780MOL0     H 5277  -0.301   5.819   3.356  0.7255  0.6564  2.2202
  780MOL0     H 5278  -0.219   6.073   3.212 -0.1326  0.0408 -0.4808
  780MOL0     H 5279  -0.153   6.030   3.381 -0.2914 -1.5937  0.8509
  780MOL0     H 5280  -0.345   6.173   3.407  3.7522 -0.9330  0.3661
  780MOL0     H 5281  -0.383   6.013   3.468  0.1909 -0.0649  0.4121
  780MOL0     H 5282   0.515   5.443   3.371 -0.3295  0.5219  0.5869
  780MOL0     H 5283   0.776   5.444   3.375  0.9209 -0.1499  1.6364
  780MOL0     H 5284   1.220   5.767   3.428  0.5820  0.2964  1.2626
  780MOL0     H 5285   1.437   5.812   3.526  0.1715 -0.1072  1.1459
  780MOL0     H 5286   3.176   5.547   3.499 -0.4598  1.6406 -1.0285
  780MOL0     H 5287   3.404   5.597   3.440  0.2045  0.7933 -0.2019
  780MOL0     H 5288   3.802   6.039   3.596 -1.4462  0.2756 -0.4343
  780MOL0     H 5289   4.005   6.071   3.509 -0.0143  0.7743  0.9684
  780MOL0     H 5290   4.263   5.724   3.453  2.3362 -1.1057 -1.3991
  780MOL0     H 5291   4.203   5.727   3.281 -0.5789 -1.9433  1.5099
  780MOL0     H 5292   4.458   5.744   3.316  1.1195  0.9815 -1.4584
  780MOL0     H 5293   4.411   5.898   3.409 -0.4874  0.4265 -1.4837
  780MOL0     H 5294   4.330   5.973   3.193  0.1557  0.3788  0.8211
  780MOL0     H 5295   4.394   5.817   3.117  0.9840 -0.2919 -0.5525
  780MOL0     H 5296   4.620   5.898   3.215 -0.9917  0.0017  0.2702
  780MOL0     H 5297   4.541   6.061   3.213 -1.5937  1.1775  0.0323
  780MOL0     H 5298   4.558   6.004   2.798  0.0032 -1.2046 -0.5873
  780MOL0     H 5299   4.048   5.661   3.405  1.9963  2.0883 -0.4896
  780MOL0     H 5300   3.830   5.616   3.500  1.5430 -0.6716 -1.6463
  781MOL0     O 5301   2.639   8.841   7.948 -0.0229  0.4615  0.1896
  781MOL0     C 5302   2.693   8.749   7.891  0.9241 -0.2950  0.3922
  781MOL0     O 5303   2.635   8.626   7.859  0.0031 -0.3490  0.2210
  781MOL0     C 5304   2.494   8.621   7.869 -0.5668 -0.0462  0.0255
  781MOL0     C 5305   2.424   8.530   7.940 -0.0638  0.0327  0.3800
  781MOL0     C 5306   2.290   8.516   7.948  0.6012 -0.3111  0.4462
  781MOL0     C 5307   2.206   8.602   7.873 -0.5225  0.1211  0.2928
  781MOL0     O 5308   2.067   8.585   7.892  0.2531  0.0105 -0.5346
  781MOL0     C 5309   2.014   8.679   7.997 -0.1876 -0.1221  0.9584
  781MOL0     C 5310   1.989   8.822   7.943 -0.0074 -0.6302 -0.3218
  781MOL0     C 5311   1.888   8.903   8.025  0.3391 -0.1820 -0.0308
  781MOL0     C 5312   1.870   9.041   7.964  0.4287 -1.0340 -1.0437
  781MOL0     C 5313   1.733   9.100   7.996  0.3598  0.5183 -0.3425
  781MOL0     C 5314   1.728   9.142   8.144 -0.2829  0.7751 -0.5544
  781MOL0     C 5315   1.586   9.206   8.176 -0.0322 -0.0690 -0.3951
  781MOL0     C 5316   1.566   9.234   8.329  0.8712 -0.4009 -0.0194
  781MOL0     N 5317   1.419   9.268   8.359 -0.3297 -0.0554 -1.1533
  781MOL0     C 5318   1.366   9.393   8.335  0.1097  0.0234 -0.3333
  781MOL0     C 5319   1.231   9.371   8.360  0.3658 -0.1401  0.4679
  781MOL0     C 5320   1.122   9.471   8.330  0.2772  0.1225 -0.6585
  781MOL0     C 5321   1.127   9.543   8.188  0.5651 -0.7090 -0.3714
  781MOL0     C 5322   1.161   9.436   8.082  0.0584 -0.3251 -0.5001
  781MOL0     C 5323   1.178   9.492   7.948 -0.6721  0.3487 -0.4738
  781MOL0     O 5324   1.094   9.607   7.923 -0.2226  0.1223  0.7094
  781MOL0     C 5325   0.966   9.584   7.882  0.0072  0.2434 -0.2003
  781MOL0     C 5326   0.910   9.458   7.866  0.2694  0.0113  0.9505
  781MOL0     C 5327   0.786   9.441   7.826  0.4057 -0.1732  0.9344
  781MOL0     C 5328   0.750   9.298   7.788  0.6690 -0.4732  0.5457
  781MOL0     C 5329   0.697   9.557   7.814  0.1359  0.5971  0.8582
  781MOL0     C 5330   0.558   9.549   7.766  0.2813  0.3255  0.1671
  781MOL0     O 5331   0.517   9.660   7.701 -0.0339 -0.4005 -0.1680
  781MOL0     C 5332   0.380   9.673   7.696 -0.1876 -0.2219 -0.2714
  781MOL0     C 5333   0.318   9.640   7.579 -0.7103  0.5103  0.1322
  781MOL0     C 5334   0.182   9.643   7.568 -0.8304  0.1748  0.0656
  781MOL0     C 5335   0.105   9.699   7.667 -0.1002  0.0546 -0.2824
  781MOL0     O 5336  -0.036   9.702   7.647 -0.4513 -0.1420  0.0686
  781MOL0     C 5337  -0.102   9.825   7.663 -0.7284 -0.3329 -0.5334
  781MOL0     C 5338  -0.246   9.815   7.663  0.4552  0.5888  0.0479
  781MOL0     C 5339  -0.313   9.785   7.529 -0.0913  0.1512 -0.4722
  781MOL0     C 5340  -0.463   9.783   7.535  0.0538 -0.1527 -0.3149
  781MOL0     C 5341  -0.534   9.869   7.425  0.6729  0.3242 -0.1685
  781MOL0     C 5342  -0.498   9.831   7.277  0.5965 -0.4263  0.1956
  781MOL0     C 5343  -0.611   9.896   7.177  0.6176  0.6108 -0.1285
  781MOL0     C 5344  -0.604   9.825   7.032 -0.1914 -0.0866 -0.6028
  781MOL0    Cl 5345  -0.635   9.659   7.028  0.3380  0.2159 -0.1104
  781MOL0     C 5346   0.167   9.730   7.789  0.3316  0.2674 -0.0907
  781MOL0     C 5347   0.303   9.721   7.806  0.0520  0.0685  0.4240
  781MOL0     O 5348   0.492   9.451   7.794  0.1627  0.2953  0.1338
  781MOL0     C 5349   0.748   9.680   7.841  0.6709  0.4448 -0.3492
  781MOL0     C 5350   0.884   9.689   7.870  0.5698 -1.0120 -0.1336
  781MOL0     N 5351   1.204   9.234   8.379 -0.4162 -0.0744 -0.1508
  781MOL0     N 5352   1.320   9.183   8.393 -0.6331  0.4881 -0.2861
  781MOL0     C 5353   2.273   8.699   7.797  0.0497 -0.0842  0.2574
  781MOL0     C 5354   2.413   8.705   7.797 -0.5567  0.4493 -0.1458
  781MOL0     C 5355   2.835   8.762   7.853  0.2465  0.1905 -1.0622
  781MOL0     C 5356   2.905   8.885   7.850  0.1445 -0.3491  0.3038
  781MOL0     C 5357   3.037   8.902   7.807 -0.0254  0.6494  0.5314
  781MOL0     C 5358   3.114   8.789   7.781  0.0581 -0.5991 -0.1526
  781MOL0     O 5359   3.235   8.776   7.725 -0.0633 -0.1437  0.0138
  781MOL0     C 5360   3.311   8.895   7.692  0.1895  0.4608 -0.5018
  781MOL0     C 5361   3.455   8.859   7.655 -0.5658 -0.8107 -0.3700
  781MOL0     C 5362   3.556   8.978   7.627 -0.1556  0.6983 -0.0774
  781MOL0     C 5363   3.542   9.046   7.494  0.3454 -0.0152  1.4585
  781MOL0     C 5364   3.422   9.117   7.487  0.3989  0.3477  0.0581
  781MOL0     C 5365   3.319   9.180   7.475 -0.1859 -0.0278 -0.5519
  781MOL0     C 5366   3.048   8.661   7.785 -0.1148  0.0063  0.3738
  781MOL0     C 5367   2.911   8.655   7.818 -0.3927  0.5889 -0.8363
  781MOL0     H 5368   2.489   8.456   7.986 -0.7622 -1.8367 -1.4742
  781MOL0     H 5369   2.241   8.447   8.015  0.1506  0.4142  0.8762
  781MOL0     H 5370   1.918   8.632   8.024 -0.3080  0.3847  1.4384
  781MOL0     H 5371   2.072   8.678   8.089 -0.0149 -0.7395  0.8498
  781MOL0     H 5372   2.085   8.874   7.945  1.2313 -2.7558 -1.3920
  781MOL0     H 5373   1.954   8.815   7.839 -0.6971 -0.7915 -0.0836
  781MOL0     H 5374   1.791   8.854   8.029  0.0240  0.4333 -0.0318
  781MOL0     H 5375   1.924   8.900   8.128  2.8877 -3.5704 -0.8178
  781MOL0     H 5376   1.944   9.107   8.010 -1.6644  0.1341  0.8579
  781MOL0     H 5377   1.876   9.035   7.855 -2.9663 -1.0626 -1.3228
  781MOL0     H 5378   1.721   9.190   7.934  0.3986  0.0435 -1.0479
  781MOL0     H 5379   1.657   9.029   7.964  1.5699 -0.2709 -1.5847
  781MOL0     H 5380   1.752   9.052   8.201 -0.6781 -0.6286 -2.5190
  781MOL0     H 5381   1.808   9.215   8.163  1.6828 -1.0822 -1.3062
  781MOL0     H 5382   1.567   9.289   8.108  0.1619  1.0503  0.8718
  781MOL0     H 5383   1.522   9.124   8.143  1.3778 -1.0327 -0.8137
  781MOL0     H 5384   1.633   9.317   8.354 -0.8804  1.3921 -0.9852
  781MOL0     H 5385   1.597   9.155   8.398  0.7062  1.5016  2.3933
  781MOL0     H 5386   1.422   9.482   8.307  0.8369 -0.3097  0.0402
  781MOL0     H 5387   1.027   9.421   8.349 -0.0537  1.2253  0.7952
  781MOL0     H 5388   1.133   9.558   8.396 -0.9649  0.0549 -0.3313
  781MOL0     H 5389   1.203   9.622   8.190  1.4018 -1.4939 -0.3730
  781MOL0     H 5390   1.030   9.582   8.157  0.5041  0.2464  0.9772
  781MOL0     H 5391   1.083   9.361   8.088  0.8189 -1.0117  1.5742
  781MOL0     H 5392   1.251   9.376   8.097 -1.0183 -1.6223  1.0914
  781MOL0     H 5393   1.175   9.419   7.867  0.3994  1.1291 -1.2356
  781MOL0     H 5394   1.278   9.535   7.940 -1.0632  1.6304  0.9923
  781MOL0     H 5395   0.978   9.374   7.874  1.1509  0.0961 -3.1812
  781MOL0     H 5396   0.698   9.287   7.692  1.7061 -0.1883 -0.0680
  781MOL0     H 5397   0.830   9.224   7.777 -0.2348 -1.6720  1.6557
  781MOL0     H 5398   0.684   9.262   7.868  0.2426  0.6102  0.6928
  781MOL0     H 5399   0.395   9.604   7.511 -1.1224  0.4040 -0.2808
  781MOL0     H 5400   0.145   9.613   7.471  2.0301 -0.3628 -0.9531
  781MOL0     H 5401  -0.077   9.877   7.756 -3.7790  1.6997 -0.6914
  781MOL0     H 5402  -0.080   9.892   7.579 -3.1828 -0.4730 -1.3634
  781MOL0     H 5403  -0.265   9.734   7.735 -0.5133  1.1366  0.4269
  781MOL0     H 5404  -0.286   9.907   7.707  0.6372  1.0049 -0.6431
  781MOL0     H 5405  -0.276   9.684   7.508 -0.8381 -0.7506  2.2239
  781MOL0     H 5406  -0.287   9.846   7.442  0.3112 -0.6699 -0.9422
  781MOL0     H 5407  -0.502   9.682   7.527 -0.4304 -0.1351  1.4295
  781MOL0     H 5408  -0.491   9.804   7.639 -2.1199 -1.7932 -0.5044
  781MOL0     H 5409  -0.514   9.975   7.442  1.6724  0.0429  0.4944
  781MOL0     H 5410  -0.641   9.851   7.444  0.2924  1.2195 -1.3723
  781MOL0     H 5411  -0.402   9.879   7.257  0.0613  1.8078  2.3971
  781MOL0     H 5412  -0.494   9.722   7.271 -1.3774 -0.7148  2.3639
  781MOL0     H 5413  -0.607  10.004   7.163  0.6913  0.5579 -0.5256
  781MOL0     H 5414  -0.713   9.881   7.212  0.0728  1.7500 -1.1840
  781MOL0     H 5415  -0.500   9.834   6.997 -0.8562 -0.0571 -2.7135
  781MOL0     H 5416  -0.666   9.878   6.959 -1.7453 -1.3250 -0.2397
  781MOL0     H 5417   0.114   9.770   7.875 -2.0255 -0.9797 -0.8472
  781MOL0     H 5418   0.340   9.766   7.898  0.2873  0.7430  0.0110
  781MOL0     H 5419   0.695   9.774   7.830  0.1766 -0.0396 -2.5918
  781MOL0     H 5420   0.921   9.789   7.892  0.7222 -1.7294  3.5456
  781MOL0     H 5421   2.218   8.765   7.731  1.2845 -0.4319 -1.1989
  781MOL0     H 5422   2.460   8.773   7.727 -1.5450  0.1743 -1.0986
  781MOL0     H 5423   2.840   8.967   7.881  0.2597 -0.7000  1.5388
  781MOL0     H 5424   3.074   9.003   7.793  2.1349 -0.3749 -2.1597
  781MOL0     H 5425   3.253   8.951   7.618 -1.9282 -1.4466 -0.4118
  781MOL0     H 5426   3.314   8.958   7.782 -0.8818  0.8100 -0.6950
  781MOL0     H 5427   3.460   8.779   7.580  3.3826 -0.7888 -0.3343
  781MOL0     H 5428   3.495   8.814   7.747 -2.2641 -0.0587  0.7805
  781MOL0     H 5429   3.657   8.937   7.631 -1.2719 -2.5101 -1.0639
  781MOL0     H 5430   3.542   9.056   7.702  1.2218  0.2806  0.6515
  781MOL0     H 5431   3.540   8.966   7.419  0.0586  0.5096  0.8982
  781MOL0     H 5432   3.627   9.110   7.469 -1.6513  2.1336 -0.1673
  781MOL0     H 5433   3.230   9.241   7.468 -0.1814  0.0378 -0.0962
  781MOL0     H 5434   3.099   8.569   7.759 -1.3192 -0.5706 -0.0281
  781MOL0     H 5435   2.858   8.561   7.816 -0.5317  0.6767 -1.6412
  782MOL0     O 5436   8.619   0.368   8.280 -0.1154  0.2500 -0.5445
  782MOL0     C 5437   8.683   0.294   8.203 -0.6299  0.1359 -0.2705
  782MOL0     O 5438   8.635   0.248   8.086 -0.4413 -0.2724  0.4016
  782MOL0     C 5439   8.514   0.288   8.045  0.0734 -0.2522 -0.1212
  782MOL0     C 5440   8.503   0.429   8.006  0.9110  0.8790  0.3243
  782MOL0     C 5441   8.379   0.479   7.972 -0.2636 -0.1278  0.6791
  782MOL0     C 5442   8.264   0.400   7.970 -0.2847 -0.1525  0.6189
  782MOL0     O 5443   8.142   0.467   7.939  0.0259 -0.2063  0.1341
  782MOL0     C 5444   8.020   0.388   7.946 -0.3617 -0.0058  0.4059
  782MOL0     C 5445   7.895   0.482   7.932  0.2916 -0.2539 -0.0340
  782MOL0     C 5446   7.764   0.403   7.957 -0.0469 -0.1080 -0.2956
  782MOL0     C 5447   7.647   0.496   7.958 -0.6421 -0.6047  0.6741
  782MOL0     C 5448   7.506   0.444   7.920  0.6074  0.2145 -0.4305
  782MOL0     C 5449   7.406   0.557   7.930 -0.4333  0.4753 -0.2091
  782MOL0     C 5450   7.394   0.624   8.066 -0.0482  0.2876  0.4303
  782MOL0     C 5451   7.267   0.720   8.073  0.4895  0.3728  0.3313
  782MOL0     N 5452   7.138   0.658   8.118  0.3040  0.3242 -0.9161
  782MOL0     C 5453   7.115   0.513   8.108  0.4533 -0.2642 -0.4776
  782MOL0     C 5454   6.992   0.499   8.154 -0.0784  0.2459 -0.2273
  782MOL0     C 5455   6.911   0.368   8.143 -0.0612  0.4717 -1.6137
  782MOL0     C 5456   6.915   0.309   8.001 -1.0540 -0.9879 -0.1703
  782MOL0     C 5457   6.853   0.402   7.899  0.1693  0.0203 -0.0249
  782MOL0     C 5458   6.701   0.433   7.925 -0.9191  0.7552 -0.1563
  782MOL0     O 5459   6.625   0.313   7.930  0.1205 -0.1479  0.7943
  782MOL0     C 5460   6.489   0.326   7.934  0.7858  0.1378 -0.7902
  782MOL0     C 5461   6.411   0.220   7.889  0.4879  0.5655  0.1046
  782MOL0     C 5462   6.270   0.219   7.900 -0.4483 -0.3088  1.0366
  782MOL0     C 5463   6.194   0.098   7.830  0.2199 -0.4849 -0.2377
  782MOL0     C 5464   6.199   0.325   7.963  0.9517  0.9680 -0.7023
  782MOL0     C 5465   6.052   0.335   7.978 -0.2440 -0.6491 -0.0110
  782MOL0     O 5466   5.972   0.239   7.928 -1.4522 -0.6531 -0.0409
  782MOL0     C 5467   5.842   0.257   7.930  0.8892 -0.2117 -0.1228
  782MOL0     C 5468   5.781   0.381   7.895  1.1740 -0.1019  0.2629
  782MOL0     C 5469   5.636   0.389   7.874 -0.4529 -0.0002  0.0118
  782MOL0     C 5470   5.561   0.268   7.891 -0.1751 -0.1790  1.2933
  782MOL0     O 5471   5.421   0.262   7.870  0.0189 -0.4309  0.7933
  782MOL0     C 5472   5.360   0.381   7.818  0.1589  0.1111 -0.0073
  782MOL0     C 5473   5.212   0.362   7.788 -0.4093 -0.8461 -0.8140
  782MOL0     C 5474   5.122   0.394   7.915 -0.2030  0.1838 -0.2175
  782MOL0     C 5475   4.976   0.365   7.897 -0.4735 -0.0254  0.6585
  782MOL0     C 5476   4.896   0.371   8.029 -0.1896 -1.1270  0.0105
  782MOL0     C 5477   4.757   0.339   8.006 -0.6633  0.9211 -0.1852
  782MOL0     C 5478   4.684   0.337   8.141 -0.3373 -0.0514 -0.8248
  782MOL0     C 5479   4.542   0.289   8.135 -0.1977  0.2116  0.6884
  782MOL0    Cl 5480   4.464   0.295   8.308 -0.3329  0.0733 -0.0192
  782MOL0     C 5481   5.625   0.155   7.941 -0.8672  0.1534 -0.0470
  782MOL0     C 5482   5.760   0.152   7.965  0.3750  0.5139 -0.1744
  782MOL0     O 5483   6.009   0.429   8.046  0.0669 -0.0239  0.8645
  782MOL0     C 5484   6.280   0.428   8.025 -0.5136  0.1832  1.1597
  782MOL0     C 5485   6.420   0.427   8.004 -0.3676 -0.7285  0.7211
  782MOL0     N 5486   6.942   0.621   8.201 -0.4512 -0.1883 -0.5082
  782MOL0     N 5487   7.029   0.715   8.175 -0.0590 -0.5754  0.5539
  782MOL0     C 5488   8.272   0.262   8.006  0.0328 -0.7828 -1.0791
  782MOL0     C 5489   8.403   0.211   8.047  0.4437  0.4321  0.0457
  782MOL0     C 5490   8.817   0.240   8.239 -0.3939  0.2540  0.3156
  782MOL0     C 5491   8.877   0.271   8.367 -0.0425  0.4088 -0.0587
  782MOL0     C 5492   9.008   0.225   8.398  0.0321  0.2668 -0.2067
  782MOL0     C 5493   9.091   0.161   8.308 -0.2051 -0.3302 -0.6812
  782MOL0     O 5494   9.225   0.127   8.320 -0.1708  0.4725  0.0836
  782MOL0     C 5495   9.288   0.082   8.450  0.3040  0.0511 -0.2366
  782MOL0     C 5496   9.430   0.130   8.446  0.8486  0.1237  0.4370
  782MOL0     C 5497   9.506   0.074   8.320  0.4964  1.5958  0.0050
  782MOL0     C 5498   9.632   0.154   8.310 -0.1697  0.4680 -0.8792
  782MOL0     C 5499   9.735   0.084   8.388 -0.3363  0.9097 -0.3334
  782MOL0     C 5500   9.828   0.043   8.455 -0.1966 -1.3109 -0.0121
  782MOL0     C 5501   9.032   0.135   8.192  0.1208 -0.1533 -0.5978
  782MOL0     C 5502   8.898   0.174   8.151  0.5794  0.2550 -0.2081
  782MOL0     H 5503   8.582   0.502   8.016 -0.7353  2.7651  0.1634
  782MOL0     H 5504   8.384   0.583   7.943 -0.7957 -0.4892 -0.8009
  782MOL0     H 5505   8.010   0.311   7.869  0.5144  1.2212 -0.9900
  782MOL0     H 5506   8.004   0.342   8.044 -0.5674  0.5476  0.6334
  782MOL0     H 5507   7.910   0.557   8.011  1.3402 -0.4443 -0.0409
  782MOL0     H 5508   7.892   0.533   7.835  0.8872 -0.6546 -0.2652
  782MOL0     H 5509   7.741   0.339   7.871 -2.7098  1.8930 -1.2112
  782MOL0     H 5510   7.760   0.339   8.046 -1.8478 -1.0128 -0.9616
  782MOL0     H 5511   7.653   0.546   8.055  0.8173  0.7483 -0.0828
  782MOL0     H 5512   7.667   0.563   7.874 -0.6480 -1.4064  0.0223
  782MOL0     H 5513   7.504   0.408   7.817  1.8750  2.6443 -1.3974
  782MOL0     H 5514   7.476   0.366   7.991 -0.4641  1.5382  0.6593
  782MOL0     H 5515   7.432   0.633   7.856 -0.2262 -0.5360 -1.1857
  782MOL0     H 5516   7.307   0.524   7.897 -0.3473  0.7783 -0.7815
  782MOL0     H 5517   7.382   0.548   8.144 -2.1006 -1.3217 -1.3238
  782MOL0     H 5518   7.476   0.692   8.092 -1.7447  3.2106 -1.4582
  782MOL0     H 5519   7.258   0.771   7.976 -1.1352  0.9699  0.7516
  782MOL0     H 5520   7.288   0.801   8.143 -1.2117  2.3101 -1.2622
  782MOL0     H 5521   7.169   0.442   8.046  0.3735  1.0823 -2.1608
  782MOL0     H 5522   6.975   0.295   8.195 -1.1389  0.5350 -0.1351
  782MOL0     H 5523   6.810   0.362   8.184  0.2709 -3.1400 -1.0348
  782MOL0     H 5524   6.864   0.212   7.996  0.8893 -1.9989 -2.5238
  782MOL0     H 5525   7.020   0.294   7.972 -1.0629 -1.1398 -0.1275
  782MOL0     H 5526   6.846   0.351   7.802  2.8455 -1.5674  0.5167
  782MOL0     H 5527   6.915   0.491   7.886  0.6808 -0.1350  1.2444
  782MOL0     H 5528   6.663   0.499   7.846  0.6664  0.1016 -1.5224
  782MOL0     H 5529   6.696   0.483   8.022  0.2866  0.9105 -0.1655
  782MOL0     H 5530   6.468   0.142   7.841  0.2951 -0.3759  1.3568
  782MOL0     H 5531   6.107   0.130   7.771 -0.6323 -3.2175 -0.5915
  782MOL0     H 5532   6.260   0.044   7.762 -1.5625 -0.2581 -2.2739
  782MOL0     H 5533   6.160   0.032   7.911  1.3320  0.3148  0.9122
  782MOL0     H 5534   5.843   0.468   7.873  2.1999 -0.2385  2.3183
  782MOL0     H 5535   5.597   0.486   7.846  3.0634  1.7583  0.6917
  782MOL0     H 5536   5.378   0.466   7.885  1.1926  0.6046 -0.8738
  782MOL0     H 5537   5.405   0.398   7.720  0.7484 -3.0313 -0.3660
  782MOL0     H 5538   5.195   0.435   7.709  1.7518 -0.6795 -1.1888
  782MOL0     H 5539   5.200   0.264   7.741 -0.6371 -0.3837 -1.7455
  782MOL0     H 5540   5.127   0.499   7.944  0.5496 -0.0632  0.5954
  782MOL0     H 5541   5.146   0.338   8.005 -0.1135  0.2972 -0.1712
  782MOL0     H 5542   4.928   0.446   7.840 -1.5427 -0.4496  0.9322
  782MOL0     H 5543   4.963   0.274   7.838  1.7705  0.6409 -1.0286
  782MOL0     H 5544   4.909   0.468   8.079  2.1942 -0.3951 -1.8051
  782MOL0     H 5545   4.941   0.293   8.091  1.9742  2.2415  3.1487
  782MOL0     H 5546   4.704   0.396   7.929 -0.8410  1.9353  0.6818
  782MOL0     H 5547   4.762   0.235   7.971  1.4496  1.3426 -1.3332
  782MOL0     H 5548   4.689   0.439   8.181 -2.2528 -0.8762  1.8295
  782MOL0     H 5549   4.735   0.285   8.222 -3.1318  1.1421  1.9552
  782MOL0     H 5550   4.550   0.185   8.100  0.2738  0.7749 -0.9471
  782MOL0     H 5551   4.473   0.348   8.074 -0.1911  0.7521  1.1935
  782MOL0     H 5552   5.578   0.058   7.953  1.6945 -1.2427 -0.5097
  782MOL0     H 5553   5.814   0.059   7.973  2.6473  1.7344 -0.6270
  782MOL0     H 5554   6.232   0.512   8.072 -0.6248  1.0315 -0.3975
  782MOL0     H 5555   6.472   0.507   8.055  2.2840 -1.5568 -0.4919
  782MOL0     H 5556   8.181   0.207   8.025 -2.3118  3.4365  1.3531
  782MOL0     H 5557   8.414   0.104   8.061  1.2439  0.6185  0.9271
  782MOL0     H 5558   8.826   0.336   8.437 -0.2165 -0.9040  1.0857
  782MOL0     H 5559   9.041   0.256   8.496  0.3592 -0.1854 -0.1697
  782MOL0     H 5560   9.245   0.118   8.544 -0.3192 -1.0176 -0.0936
  782MOL0     H 5561   9.278  -0.027   8.448  0.3416  0.0478 -0.2786
  782MOL0     H 5562   9.480   0.107   8.541 -0.3235  3.6946  2.1173
  782MOL0     H 5563   9.418   0.239   8.438  0.5060  0.0211 -0.6229
  782MOL0     H 5564   9.441   0.102   8.236  1.5579  1.6481 -0.8225
  782MOL0     H 5565   9.514  -0.035   8.323  1.4092  1.6033 -1.2522
  782MOL0     H 5566   9.624   0.253   8.357  1.6230 -0.0968  0.7380
  782MOL0     H 5567   9.670   0.170   8.208 -0.0590 -0.6898 -1.0313
  782MOL0     H 5568   9.913   0.012   8.511 -1.7361 -2.0558  2.0692
  782MOL0     H 5569   9.096   0.101   8.111 -0.6447 -0.4502 -1.0988
  782MOL0     H 5570   8.865   0.154   8.050 -2.6006  1.8199  0.4019
  783MOL0     O 5571   4.769  11.047  10.630  0.1451  0.4908  0.2254
  783MOL0     C 5572   4.727  11.017  10.518 -0.7536  0.3005  0.0959
  783MOL0     O 5573   4.787  10.925  10.441  0.4565 -0.3769 -0.2662
  783MOL0     C 5574   4.899  10.857  10.480 -0.1448  0.0049 -0.8788
  783MOL0     C 5575   5.024  10.921  10.481 -0.6565  0.0825 -0.1453
  783MOL0     C 5576   5.136  10.859  10.528 -0.1137  0.3291  0.1570
  783MOL0     C 5577   5.128  10.731  10.583 -0.2273  0.3598  0.4749
  783MOL0     O 5578   5.240  10.671  10.630  0.0221  0.9424 -0.6459
  783MOL0     C 5579   5.377  10.711  10.598  0.6168  0.2925  0.0854
  783MOL0     C 5580   5.472  10.602  10.648 -0.3758  0.3598  0.0208
  783MOL0     C 5581   5.619  10.649  10.635 -0.0276  0.2309  0.7710
  783MOL0     C 5582   5.671  10.660  10.489 -0.1587  0.4100  0.1425
  783MOL0     C 5583   5.817  10.692  10.484  0.1988 -0.2826 -0.3164
  783MOL0     C 5584   5.870  10.691  10.341 -0.0611 -0.3657  0.2446
  783MOL0     C 5585   6.005  10.758  10.319 -0.2742 -0.9449 -0.2220
  783MOL0     C 5586   6.044  10.757  10.167  0.5840 -0.5018 -0.1221
  783MOL0     N 5587   6.124  10.876  10.152  0.5093  0.1210 -0.5741
  783MOL0     C 5588   6.248  10.887  10.202 -0.0258  0.6796 -0.6012
  783MOL0     C 5589   6.301  10.995  10.144 -0.0496 -0.0724  0.4153
  783MOL0     C 5590   6.438  11.039  10.181 -0.3006 -0.0081 -0.0627
  783MOL0     C 5591   6.431  11.135  10.298  0.2305 -0.1514  0.0603
  783MOL0     C 5592   6.427  11.286  10.256  0.6135 -0.4521 -0.0266
  783MOL0     C 5593   6.291  11.350  10.233 -0.4966  0.6383 -0.8283
  783MOL0     O 5594   6.309  11.490  10.201  0.4380 -0.9691 -0.2268
  783MOL0     C 5595   6.191  11.568  10.175 -0.3497  0.1540  0.4644
  783MOL0     C 5596   6.206  11.698  10.133  0.1180  0.4238 -0.0787
  783MOL0     C 5597   6.093  11.771  10.102 -0.0457  0.7106 -1.2644
  783MOL0     C 5598   6.116  11.907  10.045 -0.8350  0.1538  0.1385
  783MOL0     C 5599   5.962  11.727  10.139  0.9030 -0.0380 -1.0600
  783MOL0     C 5600   5.836  11.810  10.126  0.2936 -0.4815 -0.1623
  783MOL0     O 5601   5.713  11.745  10.159 -0.0580 -0.4847 -0.4927
  783MOL0     C 5602   5.604  11.808  10.213  0.6666  0.5018  0.7358
  783MOL0     C 5603   5.579  11.943  10.238 -1.1106  0.4377  0.3130
  783MOL0     C 5604   5.469  11.987  10.308 -0.0561 -0.1117  0.3806
  783MOL0     C 5605   5.372  11.892  10.356 -0.5073  0.3979 -0.4559
  783MOL0     O 5606   5.266  11.935  10.429 -0.0613  0.9825  0.2995
  783MOL0     C 5607   5.137  11.881  10.388 -0.1437 -0.4160 -0.2645
  783MOL0     C 5608   5.033  11.973  10.439 -0.3276  0.0346 -0.5025
  783MOL0     C 5609   4.903  11.974  10.362  0.8763  0.0635 -0.1140
  783MOL0     C 5610   4.806  12.069  10.442 -0.0642  0.5591 -0.2817
  783MOL0     C 5611   4.664  12.006  10.439 -0.2794  0.1807  1.2003
  783MOL0     C 5612   4.601  12.027  10.298  0.4018  0.0623  0.7630
  783MOL0     C 5613   4.475  11.934  10.277  0.5254  0.1689 -0.0853
  783MOL0     C 5614   4.374  11.929  10.395  0.3458 -0.2098  0.3733
  783MOL0    Cl 5615   4.322  12.099  10.448  0.0250  0.1790 -0.1203
  783MOL0     C 5616   5.384  11.753  10.322 -0.2359  0.3380 -0.7433
  783MOL0     C 5617   5.501  11.716  10.253  0.1933 -0.0943 -0.1987
  783MOL0     O 5618   5.847  11.924  10.093 -0.2355 -0.6197  0.3982
  783MOL0     C 5619   5.951  11.592  10.181  0.0096  0.2087 -0.3199
  783MOL0     C 5620   6.064  11.515  10.191 -0.2123  0.1137  0.4706
  783MOL0     N 5621   6.199  11.051  10.065 -0.1334  0.1074  0.0465
  783MOL0     N 5622   6.089  10.979  10.074 -0.6070 -0.2231 -0.4048
  783MOL0     C 5623   4.999  10.674  10.593  0.9260 -0.3570 -0.0920
  783MOL0     C 5624   4.880  10.734  10.545 -0.7334  0.1559 -0.1551
  783MOL0     C 5625   4.601  11.077  10.466  0.3900  0.3903 -0.1379
  783MOL0     C 5626   4.519  11.165  10.534  0.5183 -0.6247  0.6624
  783MOL0     C 5627   4.397  11.216  10.482 -0.4896  0.2013 -0.8615
  783MOL0     C 5628   4.364  11.193  10.351  0.2991 -0.4909  0.2631
  783MOL0     O 5629   4.242  11.208  10.299  0.3119 -0.1135  0.8919
  783MOL0     C 5630   4.147  11.297  10.364  0.3865  0.7846 -0.0325
  783MOL0     C 5631   4.005  11.298  10.318 -0.3931  0.0757 -0.1181
  783MOL0     C 5632   3.935  11.162  10.346  0.2671  0.3692  0.1563
  783MOL0     C 5633   3.774  11.179  10.353 -0.5262  0.0403 -0.0001
  783MOL0     C 5634   3.701  11.069  10.295 -0.3370 -0.0135 -0.0752
  783MOL0     C 5635   3.613  10.995  10.260 -0.2278  0.4484  0.5148
  783MOL0     C 5636   4.454  11.120  10.278  0.2493  0.0993  0.7417
  783MOL0     C 5637   4.567  11.054  10.329 -0.1874  0.0205  0.3663
  783MOL0     H 5638   5.027  11.022  10.439  2.1752 -1.1441 -3.3852
  783MOL0     H 5639   5.227  10.916  10.519  0.2900 -0.3498 -0.1362
  783MOL0     H 5640   5.399  10.723  10.492 -0.3979 -3.2463 -0.6468
  783MOL0     H 5641   5.392  10.807  10.648  0.2456  0.8661 -0.8868
  783MOL0     H 5642   5.444  10.587  10.752 -0.6487  1.1586  0.0691
  783MOL0     H 5643   5.464  10.506  10.596  2.4678 -0.6899  1.3658
  783MOL0     H 5644   5.615  10.755  10.659 -0.8094  0.8566 -1.7352
  783MOL0     H 5645   5.686  10.588  10.697 -0.2972 -2.2934 -1.2325
  783MOL0     H 5646   5.660  10.562  10.443 -2.4362  0.8449 -0.3639
  783MOL0     H 5647   5.607  10.731  10.434  2.1106  1.2691 -1.5510
  783MOL0     H 5648   5.832  10.786  10.539 -0.5640 -1.5031  2.1204
  783MOL0     H 5649   5.874  10.625  10.549  0.1951  1.0532  1.1284
  783MOL0     H 5650   5.884  10.587  10.308 -1.7925 -0.6205  0.2208
  783MOL0     H 5651   5.796  10.736  10.275  4.1005  1.5638 -3.6344
  783MOL0     H 5652   5.986  10.861  10.350 -2.3269 -2.1295  2.9351
  783MOL0     H 5653   6.081  10.713  10.384 -0.8441  0.8501  1.7662
  783MOL0     H 5654   5.957  10.763  10.100  0.9652  2.5958 -0.4882
  783MOL0     H 5655   6.101  10.669  10.136  1.1033  0.5351 -2.3056
  783MOL0     H 5656   6.301  10.819  10.267 -0.1240 -1.8334 -2.9425
  783MOL0     H 5657   6.503  10.955  10.207  0.0272 -0.2465 -1.5496
  783MOL0     H 5658   6.489  11.074  10.091  0.0046 -0.3981 -0.0465
  783MOL0     H 5659   6.528  11.109  10.343  0.7923 -0.1019 -1.0685
  783MOL0     H 5660   6.357  11.105  10.372  1.9097 -2.6180  0.8648
  783MOL0     H 5661   6.490  11.296  10.167 -0.0149 -0.4578 -0.4795
  783MOL0     H 5662   6.471  11.346  10.335 -1.8478  0.1174  1.0114
  783MOL0     H 5663   6.228  11.343  10.322 -0.7961  1.4973 -0.9685
  783MOL0     H 5664   6.244  11.301  10.147  0.3302  0.5314 -1.2282
  783MOL0     H 5665   6.310  11.732  10.134  0.9459 -1.9093  1.7127
  783MOL0     H 5666   6.066  11.918   9.948 -1.5260 -2.8819  0.0320
  783MOL0     H 5667   6.088  11.987  10.114 -0.8283 -1.1616  1.7465
  783MOL0     H 5668   6.224  11.920  10.034 -1.1379  1.3824 -1.8894
  783MOL0     H 5669   5.652  12.018  10.208  0.7827 -1.7611 -0.9566
  783MOL0     H 5670   5.450  12.093  10.323 -1.5060 -0.5118  1.6204
  783MOL0     H 5671   5.134  11.871  10.279  1.5335 -1.1487 -0.2809
  783MOL0     H 5672   5.109  11.783  10.429  0.8473  0.1795  1.9727
  783MOL0     H 5673   5.017  11.948  10.544  0.3485  4.3499  0.7911
  783MOL0     H 5674   5.067  12.077  10.441  3.1403 -0.7780 -4.2987
  783MOL0     H 5675   4.868  11.871  10.353  0.8514  0.1648 -1.3869
  783MOL0     H 5676   4.913  12.008  10.258 -0.3594 -0.9988 -0.6115
  783MOL0     H 5677   4.833  12.080  10.547 -1.2818 -0.9765  0.2242
  783MOL0     H 5678   4.811  12.171  10.403 -0.5500  0.9860  0.7293
  783MOL0     H 5679   4.607  12.052  10.521 -0.9854  2.5053 -0.4707
  783MOL0     H 5680   4.664  11.897  10.449 -2.5203  0.1108  1.0271
  783MOL0     H 5681   4.569  12.130  10.283  0.9270  0.3578  1.5943
  783MOL0     H 5682   4.678  12.010  10.222  0.5724 -3.3979  1.5190
  783MOL0     H 5683   4.510  11.835  10.247 -0.4132  0.3379 -1.8499
  783MOL0     H 5684   4.427  11.978  10.189  0.6850  0.2139 -0.1511
  783MOL0     H 5685   4.425  11.890  10.484  1.0590  3.7944  1.9368
  783MOL0     H 5686   4.294  11.863  10.360  2.8983 -3.2644 -0.1807
  783MOL0     H 5687   5.310  11.679  10.348  0.7557 -0.4133  0.0396
  783MOL0     H 5688   5.508  11.609  10.233  3.1307 -1.1020  4.5014
  783MOL0     H 5689   5.854  11.554  10.209 -0.0786  0.5048 -0.2199
  783MOL0     H 5690   6.041  11.409  10.203 -0.1035 -0.4460 -3.0515
  783MOL0     H 5691   4.982  10.581  10.646 -0.2345  0.8528  1.7972
  783MOL0     H 5692   4.786  10.685  10.568 -1.1119  0.4768 -0.9660
  783MOL0     H 5693   4.544  11.187  10.637 -1.4573  1.2431  0.8188
  783MOL0     H 5694   4.330  11.272  10.546 -0.5815  1.9585 -2.4233
  783MOL0     H 5695   4.140  11.276  10.471 -2.2025  2.1315  0.1539
  783MOL0     H 5696   4.183  11.400  10.364 -0.1142  0.9880  1.6967
  783MOL0     H 5697   3.996  11.328  10.214 -1.5078 -0.7989 -0.2932
  783MOL0     H 5698   3.949  11.378  10.369 -0.0261 -0.0566  0.5018
  783MOL0     H 5699   3.971  11.125  10.442  2.0942  1.0784 -0.2100
  783MOL0     H 5700   3.949  11.097  10.258 -1.7091 -1.7805  1.3065
  783MOL0     H 5701   3.748  11.267  10.294  0.8934 -1.0594 -2.4366
  783MOL0     H 5702   3.741  11.191  10.456  0.6592 -1.9339  0.6794
  783MOL0     H 5703   3.544  10.917  10.234 -2.3335  1.5940  2.1948
  783MOL0     H 5704   4.440  11.089  10.175  0.9852 -1.6116  1.1180
  783MOL0     H 5705   4.620  10.985  10.266  0.0663  0.9728 -0.4919
  784MOL0     O 5706  10.037   8.590   1.658 -0.6210 -0.4599 -0.8504
  784MOL0     C 5707  10.094   8.552   1.562  0.2365  0.3821 -0.2586
  784MOL0     O 5708  10.119   8.421   1.524 -0.1110 -0.4316  0.0157
  784MOL0     C 5709  10.068   8.318   1.605 -0.0112 -0.1902 -0.1194
  784MOL0     C 5710   9.955   8.329   1.681 -0.0800  0.7886  0.6443
  784MOL0     C 5711   9.908   8.218   1.754  0.0529 -0.2484 -0.0576
  784MOL0     C 5712   9.967   8.087   1.746  0.2104  0.5573  0.6604
  784MOL0     O 5713   9.915   7.979   1.812 -0.1055 -1.0422 -0.5761
  784MOL0     C 5714   9.973   7.852   1.786  0.3248  0.2989  0.2085
  784MOL0     C 5715   9.884   7.746   1.853 -0.2228 -1.2686 -0.0037
  784MOL0     C 5716   9.737   7.761   1.793 -0.3213 -0.6200  0.2025
  784MOL0     C 5717   9.635   7.663   1.845 -0.6568 -0.1152  0.3710
  784MOL0     C 5718   9.507   7.683   1.763  0.4584 -0.0626 -0.0946
  784MOL0     C 5719   9.400   7.580   1.798  0.4380  0.3282  0.0815
  784MOL0     C 5720   9.278   7.578   1.701  0.3448  0.5581  0.1710
  784MOL0     C 5721   9.323   7.527   1.566  0.3410  0.3544  0.0962
  784MOL0     N 5722   9.215   7.487   1.475 -0.2134  0.8248 -0.1472
  784MOL0     C 5723   9.135   7.378   1.499  0.4114  0.2488  0.2024
  784MOL0     C 5724   9.088   7.341   1.373 -0.1249 -0.7172  0.2140
  784MOL0     C 5725   8.991   7.233   1.342 -0.5087 -0.1884  0.1097
  784MOL0     C 5726   9.060   7.095   1.335  0.1951 -0.0720  0.2491
  784MOL0     C 5727   8.965   6.970   1.301  0.4533 -0.1456  0.3758
  784MOL0     C 5728   8.854   6.954   1.406 -0.3980 -0.8115 -1.4353
  784MOL0     O 5729   8.756   6.857   1.370  0.1226 -0.4548 -0.4431
  784MOL0     C 5730   8.655   6.816   1.461  0.1095 -0.2263  0.2004
  784MOL0     C 5731   8.643   6.858   1.591 -0.5486 -0.9118 -0.2916
  784MOL0     C 5732   8.538   6.817   1.676  0.5369  0.4663 -0.2055
  784MOL0     C 5733   8.509   6.895   1.803  0.2377  0.1850 -0.3314
  784MOL0     C 5734   8.447   6.717   1.618 -0.1655  0.7456  0.3575
  784MOL0     C 5735   8.331   6.656   1.701  0.3515  0.2251 -0.5103
  784MOL0     O 5736   8.251   6.568   1.638 -0.0828  0.0204  0.1387
  784MOL0     C 5737   8.153   6.508   1.720 -0.2920 -0.4372  0.1124
  784MOL0     C 5738   8.179   6.389   1.795 -0.5758 -0.6321  0.8935
  784MOL0     C 5739   8.077   6.333   1.871  0.5888  0.4542  0.1496
  784MOL0     C 5740   7.948   6.387   1.870 -0.1678  0.4186 -0.8837
  784MOL0     O 5741   7.843   6.332   1.949  0.2219 -0.5886  0.3845
  784MOL0     C 5742   7.864   6.218   2.038  0.3590  0.3353 -0.7125
  784MOL0     C 5743   7.737   6.140   2.082  0.4194  0.1754 -0.5626
  784MOL0     C 5744   7.680   6.075   1.946  0.1553 -0.2537  0.4462
  784MOL0     C 5745   7.557   5.992   1.964  0.9304  1.1678 -0.7145
  784MOL0     C 5746   7.419   6.059   1.974  0.3255 -0.3100 -0.1498
  784MOL0     C 5747   7.324   5.955   2.006  0.2337  0.5931 -0.3410
  784MOL0     C 5748   7.181   6.011   2.020  0.1957 -0.1888 -0.5861
  784MOL0     C 5749   7.138   5.968   2.160 -0.3395 -0.4504 -0.3561
  784MOL0    Cl 5750   7.230   6.056   2.289 -0.3484 -0.5423 -0.2581
  784MOL0     C 5751   7.932   6.509   1.806 -0.0634  0.0085  1.2178
  784MOL0     C 5752   8.029   6.572   1.733  0.8086 -0.3618 -1.0034
  784MOL0     O 5753   8.323   6.695   1.822  0.1488  0.0154 -0.0758
  784MOL0     C 5754   8.468   6.672   1.491  0.3313 -0.1161  0.2185
  784MOL0     C 5755   8.571   6.719   1.412  0.1583  0.6399  1.1484
  784MOL0     N 5756   9.138   7.426   1.275 -0.1013 -0.2748  0.2447
  784MOL0     N 5757   9.203   7.517   1.342 -0.4020  0.3100  0.2931
  784MOL0     C 5758  10.083   8.087   1.665 -0.4425  0.0152 -0.1688
  784MOL0     C 5759  10.128   8.194   1.591  0.0353 -0.6489  0.3750
  784MOL0     C 5760  10.150   8.655   1.468 -0.9338  0.5798  0.2113
  784MOL0     C 5761  10.169   8.617   1.333  0.4659  0.4655 -0.8867
  784MOL0     C 5762  10.247   8.693   1.250  0.8550  1.0483  0.7887
  784MOL0     C 5763  10.290   8.822   1.289  0.0061  0.0763 -0.2918
  784MOL0     O 5764  10.357   8.891   1.197  0.4612 -0.6997  0.3924
  784MOL0     C 5765  10.406   9.019   1.229 -0.2366  0.1843 -0.3457
  784MOL0     C 5766  10.547   9.023   1.303  0.5184 -0.6074  0.4428
  784MOL0     C 5767  10.643   8.933   1.233 -0.2177  0.1671 -0.9392
  784MOL0     C 5768  10.689   8.974   1.089 -0.9947 -0.3862  0.3390
  784MOL0     C 5769  10.771   9.097   1.091 -0.4576  0.3355 -0.0623
  784MOL0     C 5770  10.846   9.189   1.120  0.7685 -0.3048  0.7612
  784MOL0     C 5771  10.256   8.868   1.417 -0.4814  0.1383  0.5684
  784MOL0     C 5772  10.190   8.786   1.507 -0.2132  0.0472 -0.3780
  784MOL0     H 5773   9.893   8.417   1.692  1.7451  1.9256  2.4871
  784MOL0     H 5774   9.828   8.230   1.826  1.3819 -1.7413  1.7953
  784MOL0     H 5775   9.980   7.843   1.678  2.7536  1.8405  0.1471
  784MOL0     H 5776  10.075   7.842   1.823  1.7492  1.1573 -3.1508
  784MOL0     H 5777   9.922   7.644   1.839  2.7865 -0.8124  3.4808
  784MOL0     H 5778   9.881   7.768   1.960  0.6409  1.3080 -0.4614
  784MOL0     H 5779   9.710   7.863   1.820  0.9972 -0.5790  1.4814
  784MOL0     H 5780   9.742   7.755   1.684  1.5805 -0.4161  0.2441
  784MOL0     H 5781   9.678   7.564   1.824 -0.8158 -0.2494  0.6743
  784MOL0     H 5782   9.613   7.668   1.952 -4.4822 -1.0397 -0.2488
  784MOL0     H 5783   9.459   7.778   1.789  1.6763 -0.4673  4.4299
  784MOL0     H 5784   9.526   7.690   1.656 -0.3327  1.1182 -0.1725
  784MOL0     H 5785   9.437   7.478   1.811 -0.4004  0.1476  1.3290
  784MOL0     H 5786   9.365   7.605   1.899  0.2235  0.9335 -0.1397
  784MOL0     H 5787   9.212   7.504   1.748  3.9446 -1.9916  1.6697
  784MOL0     H 5788   9.233   7.678   1.702 -2.1977 -0.3613  4.2462
  784MOL0     H 5789   9.383   7.441   1.596 -0.9770  0.0379  2.0833
  784MOL0     H 5790   9.384   7.608   1.525 -0.6621  1.6232  1.0046
  784MOL0     H 5791   9.108   7.328   1.591 -1.7699  2.3631  0.8252
  784MOL0     H 5792   8.912   7.232   1.417 -0.6360  2.0729  0.0725
  784MOL0     H 5793   8.937   7.263   1.252  1.7747  0.8072 -1.0286
  784MOL0     H 5794   9.103   7.087   1.435  1.5850 -1.1464 -0.4085
  784MOL0     H 5795   9.147   7.105   1.269 -0.7873  0.0568 -1.0785
  784MOL0     H 5796   9.032   6.884   1.293 -0.5233 -0.9523  0.7745
  784MOL0     H 5797   8.924   6.988   1.201 -2.3003 -0.8361  1.3127
  784MOL0     H 5798   8.790   7.043   1.411 -1.7550 -1.8044 -0.6981
  784MOL0     H 5799   8.897   6.935   1.505  1.5438 -0.2117 -2.1206
  784MOL0     H 5800   8.718   6.925   1.632 -0.7475 -2.8737  3.7444
  784MOL0     H 5801   8.404   6.925   1.797  0.0841 -0.5533 -1.5849
  784MOL0     H 5802   8.531   6.835   1.892 -1.8367 -2.8295 -1.7031
  784MOL0     H 5803   8.571   6.985   1.810  0.8867 -0.3852  2.2609
  784MOL0     H 5804   8.276   6.345   1.776 -0.2780 -0.0958  1.1387
  784MOL0     H 5805   8.096   6.241   1.926 -0.3296 -0.6245 -1.2390
  784MOL0     H 5806   7.930   6.142   1.994  0.5793  0.6480 -0.9255
  784MOL0     H 5807   7.905   6.252   2.134  2.1469  2.4698 -2.1567
  784MOL0     H 5808   7.759   6.067   2.160  0.4073  0.1896 -0.5462
  784MOL0     H 5809   7.665   6.206   2.130  0.1516 -0.4014 -0.1636
  784MOL0     H 5810   7.755   6.003   1.910  1.3247  1.0525  0.2131
  784MOL0     H 5811   7.658   6.146   1.866  0.1383  1.0528  1.5944
  784MOL0     H 5812   7.547   5.917   1.884  1.3486  1.2877 -0.8831
  784MOL0     H 5813   7.572   5.939   2.058  0.0420  1.2554 -0.5178
  784MOL0     H 5814   7.400   6.120   1.886  1.1772 -0.2385 -0.2954
  784MOL0     H 5815   7.426   6.117   2.067  0.5266  0.9110 -0.9166
  784MOL0     H 5816   7.320   5.876   1.930  0.7838 -1.2570  1.4651
  784MOL0     H 5817   7.356   5.905   2.097 -0.3264 -2.1793 -1.5729
  784MOL0     H 5818   7.116   5.970   1.942  0.9977 -0.6693 -1.0211
  784MOL0     H 5819   7.173   6.120   2.022  0.1868 -0.1903  1.2124
  784MOL0     H 5820   7.158   5.862   2.177  0.2092  0.0640  2.7351
  784MOL0     H 5821   7.032   5.994   2.171 -0.2666 -0.0455 -0.5630
  784MOL0     H 5822   7.831   6.547   1.794 -0.0455 -0.8550 -3.5413
  784MOL0     H 5823   8.021   6.667   1.681  1.5078 -0.7721 -1.8786
  784MOL0     H 5824   8.409   6.594   1.444  0.5201 -0.3828  0.4197
  784MOL0     H 5825   8.573   6.681   1.311 -0.7303  1.0561  0.9657
  784MOL0     H 5826  10.142   7.999   1.640  3.9086  2.9269 -1.1008
  784MOL0     H 5827  10.224   8.196   1.541 -0.5142  3.1659 -0.8338
  784MOL0     H 5828  10.142   8.519   1.293  1.6601 -0.1382 -0.2935
  784MOL0     H 5829  10.279   8.669   1.150 -0.5825  1.0675  0.3060
  784MOL0     H 5830  10.420   9.074   1.136  1.4896  0.6683  0.1543
  784MOL0     H 5831  10.332   9.075   1.288  1.2085  0.1204  1.6352
  784MOL0     H 5832  10.525   8.983   1.402 -2.3647 -0.7843 -0.1807
  784MOL0     H 5833  10.593   9.120   1.321 -0.9806  0.2037  0.0462
  784MOL0     H 5834  10.603   8.832   1.227 -2.3422  1.0295 -2.4084
  784MOL0     H 5835  10.727   8.928   1.303 -1.2352  0.1302  0.3242
  784MOL0     H 5836  10.606   8.992   1.019 -0.1081 -3.0514 -1.5422
  784MOL0     H 5837  10.744   8.891   1.045  2.5656  1.6812  0.5645
  784MOL0     H 5838  10.915   9.270   1.134  1.0583 -0.4674  0.2994
  784MOL0     H 5839  10.278   8.970   1.448 -1.4883  0.3069  0.7817
  784MOL0     H 5840  10.172   8.836   1.601 -1.2970 -0.7815 -0.1296
  785MOL0     O 5841   6.150  10.069  11.276 -0.5233  0.7605 -0.8811
  785MOL0     C 5842   6.137  10.028  11.390  0.3009 -0.2214 -0.4840
  785MOL0     O 5843   6.021   9.980  11.439 -0.3691  0.2342 -0.6676
  785MOL0     C 5844   5.906  10.010  11.368 -0.0504 -0.1773 -0.4311
  785MOL0     C 5845   5.868  10.144  11.357  0.9832 -0.0679  1.1568
  785MOL0     C 5846   5.747  10.161  11.285 -0.0276  0.1250 -0.6254
  785MOL0     C 5847   5.651  10.056  11.266  0.6384  0.2568  0.3059
  785MOL0     O 5848   5.534  10.089  11.197  0.2561  0.0024  0.2183
  785MOL0     C 5849   5.445   9.980  11.166 -0.6218  0.7015  0.4668
  785MOL0     C 5850   5.313  10.050  11.124  0.1041  0.2921  0.0343
  785MOL0     C 5851   5.331  10.148  11.008  0.1493  0.1831 -0.5653
  785MOL0     C 5852   5.199  10.235  10.994 -0.5295 -0.4766  0.2606
  785MOL0     C 5853   5.212  10.337  10.881 -0.8513 -0.0645 -1.6539
  785MOL0     C 5854   5.087  10.432  10.864 -0.1383 -0.3102 -0.2295
  785MOL0     C 5855   5.073  10.538  10.974 -0.4980 -0.0903 -0.0420
  785MOL0     C 5856   4.993  10.666  10.929 -0.3027  0.0394 -0.0040
  785MOL0     N 5857   4.855  10.654  10.887  0.8251  0.2613 -0.7010
  785MOL0     C 5858   4.789  10.761  10.819  0.0942 -0.9033 -0.8548
  785MOL0     C 5859   4.668  10.715  10.794  0.5371 -0.5397 -1.3037
  785MOL0     C 5860   4.548  10.780  10.732 -0.2674  0.2860 -0.3883
  785MOL0     C 5861   4.488  10.883  10.834 -0.7023 -0.0276  0.3621
  785MOL0     C 5862   4.360  10.965  10.788  0.3063  0.2188 -0.0875
  785MOL0     C 5863   4.361  11.099  10.858 -0.2436 -0.0572 -0.5497
  785MOL0     O 5864   4.275  11.204  10.817  0.6025 -0.5858  0.0608
  785MOL0     C 5865   4.135  11.182  10.832 -0.0788  0.6074 -0.7008
  785MOL0     C 5866   4.061  11.283  10.774  0.0641  0.2377 -0.1627
  785MOL0     C 5867   3.918  11.284  10.774  0.1194 -0.1019 -0.8349
  785MOL0     C 5868   3.853  11.398  10.691  0.3682  0.1097  0.0936
  785MOL0     C 5869   3.852  11.183  10.842  0.8594  0.5735 -0.1724
  785MOL0     C 5870   3.704  11.173  10.841 -0.0939 -0.2410 -0.2685
  785MOL0     O 5871   3.639  11.221  10.730 -0.2272  0.2000  0.3431
  785MOL0     C 5872   3.505  11.218  10.713 -1.0309 -0.1272 -0.7459
  785MOL0     C 5873   3.450  11.158  10.601 -0.5066  0.2108  0.2541
  785MOL0     C 5874   3.315  11.187  10.560  0.2034  0.9716 -0.3754
  785MOL0     C 5875   3.231  11.264  10.642  0.0768  0.3611 -0.7173
  785MOL0     O 5876   3.100  11.282  10.599 -0.2282  0.2888 -0.2116
  785MOL0     C 5877   3.005  11.284  10.710  0.7420 -0.2501  0.7563
  785MOL0     C 5878   2.876  11.359  10.648 -0.3228  0.6521 -0.0423
  785MOL0     C 5879   2.754  11.349  10.743 -0.8499 -0.5315 -0.5014
  785MOL0     C 5880   2.645  11.446  10.691  0.3268 -0.5496 -1.1023
  785MOL0     C 5881   2.515  11.421  10.760 -0.0660 -0.1547  0.0890
  785MOL0     C 5882   2.407  11.496  10.677 -0.9700  0.1881 -0.4337
  785MOL0     C 5883   2.271  11.502  10.742  0.5470 -0.1454  0.4332
  785MOL0     C 5884   2.170  11.583  10.656 -0.2866  0.4514  0.6195
  785MOL0    Cl 5885   2.018  11.589  10.761  0.7275 -0.2210 -0.1981
  785MOL0     C 5886   3.287  11.318  10.763  0.2410  0.4452 -0.7827
  785MOL0     C 5887   3.424  11.304  10.796 -0.7066  0.1261  0.4595
  785MOL0     O 5888   3.652  11.115  10.939  0.1104 -0.0847  0.0710
  785MOL0     C 5889   3.929  11.081  10.903  1.0797  0.0114 -0.2504
  785MOL0     C 5890   4.067  11.074  10.892 -0.1488 -0.0749 -1.3137
  785MOL0     N 5891   4.662  10.583  10.833  0.0706 -0.5415 -0.0996
  785MOL0     N 5892   4.768  10.543  10.897 -0.5461  0.0539  0.4649
  785MOL0     C 5893   5.693   9.925  11.306 -0.0162  1.0993  0.1550
  785MOL0     C 5894   5.820   9.904  11.349 -0.5796  0.0250 -0.3515
  785MOL0     C 5895   6.265   9.991  11.450  0.2197 -0.0495 -0.4722
  785MOL0     C 5896   6.393  10.029  11.396  0.1626 -0.0921  0.1264
  785MOL0     C 5897   6.505   9.992  11.467 -0.5820 -0.3774  0.0839
  785MOL0     C 5898   6.505   9.923  11.586 -0.4757  0.8398  0.4704
  785MOL0     O 5899   6.623   9.896  11.654  0.7281  0.3265 -0.1004
  785MOL0     C 5900   6.637   9.766  11.730  0.4421  0.3233  0.2552
  785MOL0     C 5901   6.617   9.633  11.651  0.4361 -0.1326  0.6770
  785MOL0     C 5902   6.594   9.527  11.763  0.4853  0.4729 -0.3067
  785MOL0     C 5903   6.621   9.384  11.712  0.1211 -0.3674 -0.2116
  785MOL0     C 5904   6.517   9.336  11.626 -0.0194  0.5278 -0.3428
  785MOL0     C 5905   6.439   9.293  11.540  0.0138 -0.0257  0.2591
  785MOL0     C 5906   6.388   9.863  11.631  0.6074 -0.4535 -0.0149
  785MOL0     C 5907   6.263   9.900  11.559  0.5063  0.3279 -0.2471
  785MOL0     H 5908   5.926  10.231  11.385  0.1900  1.2410 -1.0040
  785MOL0     H 5909   5.718  10.262  11.257  2.3109  0.7188 -1.0988
  785MOL0     H 5910   5.470   9.915  11.081  3.7138 -0.2533  2.2301
  785MOL0     H 5911   5.415   9.922  11.253  1.1351  1.6400  1.7436
  785MOL0     H 5912   5.251   9.969  11.084  1.0045  0.0257 -0.8781
  785MOL0     H 5913   5.268  10.105  11.207  2.1550  1.7007  0.2932
  785MOL0     H 5914   5.412  10.218  11.031  1.2055 -0.7752 -1.2458
  785MOL0     H 5915   5.354  10.082  10.923  3.1095 -0.0482  0.2865
  785MOL0     H 5916   5.113  10.169  10.978 -0.0719 -0.8730 -0.6372
  785MOL0     H 5917   5.179  10.294  11.084 -0.2010 -1.6294  1.1118
  785MOL0     H 5918   5.306  10.390  10.896 -0.7981 -0.9466  2.0259
  785MOL0     H 5919   5.225  10.289  10.784 -0.2339 -0.1100 -1.5530
  785MOL0     H 5920   5.102  10.486  10.770  0.7576  1.3353  0.8132
  785MOL0     H 5921   4.993  10.377  10.848 -0.3751 -0.2817  1.0021
  785MOL0     H 5922   5.029  10.491  11.062 -2.6488  1.4273 -0.2156
  785MOL0     H 5923   5.173  10.567  11.005 -0.7499  2.4434 -1.3094
  785MOL0     H 5924   5.042  10.720  10.847 -1.2320  1.3382  0.2655
  785MOL0     H 5925   4.991  10.731  11.017 -4.6873 -1.9235  1.6577
  785MOL0     H 5926   4.831  10.857  10.790  1.2475 -0.6052  1.5768
  785MOL0     H 5927   4.568  10.835  10.640 -2.4041  1.7607 -0.0440
  785MOL0     H 5928   4.470  10.706  10.715  0.3732 -1.6568  3.8481
  785MOL0     H 5929   4.571  10.950  10.860 -1.1334 -0.1420  2.0918
  785MOL0     H 5930   4.473  10.823  10.923  2.7757 -0.7171  0.6312
  785MOL0     H 5931   4.267  10.910  10.805 -1.3216  2.7915 -0.1284
  785MOL0     H 5932   4.361  10.996  10.683  0.4930  0.5979  0.0230
  785MOL0     H 5933   4.461  11.140  10.847  0.5021 -1.3629  0.9593
  785MOL0     H 5934   4.341  11.079  10.964  0.7666 -0.6660 -0.4701
  785MOL0     H 5935   4.113  11.357  10.715  1.5631 -1.2654 -0.8126
  785MOL0     H 5936   3.816  11.357  10.597  1.4098 -1.4983  0.3484
  785MOL0     H 5937   3.764  11.437  10.741 -1.3110 -2.1750 -0.9368
  785MOL0     H 5938   3.924  11.481  10.678 -0.2144  0.5853 -0.1182
  785MOL0     H 5939   3.517  11.102  10.536 -1.5602  0.0088 -0.6829
  785MOL0     H 5940   3.279  11.143  10.467 -1.6633  1.4175  0.0915
  785MOL0     H 5941   2.976  11.189  10.755 -2.0504 -0.7094 -1.6996
  785MOL0     H 5942   3.039  11.355  10.786  0.8340 -1.1242  1.5575
  785MOL0     H 5943   2.915  11.462  10.648  3.0413 -0.4704 -1.4277
  785MOL0     H 5944   2.852  11.310  10.553  0.6015 -4.0302  1.8807
  785MOL0     H 5945   2.779  11.370  10.847  1.9898  0.0939 -1.2441
  785MOL0     H 5946   2.716  11.247  10.731  1.4649 -1.7420  1.5864
  785MOL0     H 5947   2.675  11.551  10.694 -0.9428 -0.1613 -1.4988
  785MOL0     H 5948   2.639  11.426  10.584  2.3786 -3.2230 -0.8427
  785MOL0     H 5949   2.522  11.468  10.858  2.1109  0.7395 -0.4345
  785MOL0     H 5950   2.496  11.314  10.751  1.0026 -0.1946 -5.5596
  785MOL0     H 5951   2.442  11.597  10.654 -0.0535  0.0595  0.3234
  785MOL0     H 5952   2.393  11.437  10.586 -3.7718  0.7711 -0.4603
  785MOL0     H 5953   2.277  11.543  10.844 -1.7190 -0.9246  0.9514
  785MOL0     H 5954   2.221  11.404  10.740 -2.7409  1.3907 -1.5277
  785MOL0     H 5955   2.163  11.522  10.566  2.0930 -0.1094  0.7641
  785MOL0     H 5956   2.208  11.683  10.630 -0.3331  0.1371 -0.7114
  785MOL0     H 5957   3.225  11.390  10.816  0.7826  2.1178 -2.3274
  785MOL0     H 5958   3.481  11.363  10.867  1.6713 -0.5750 -0.7506
  785MOL0     H 5959   3.878  11.008  10.966  2.7998  0.4478  1.7866
  785MOL0     H 5960   4.117  11.005  10.959  0.4891  0.7689 -0.9172
  785MOL0     H 5961   5.632   9.839  11.282  1.2352  0.0369  0.6935
  785MOL0     H 5962   5.865   9.811  11.382 -0.3062  0.4914  0.6189
  785MOL0     H 5963   6.395  10.096  11.310  0.5847 -0.8192 -0.4457
  785MOL0     H 5964   6.595  10.046  11.439 -0.1166 -0.2222  1.8081
  785MOL0     H 5965   6.735   9.749  11.777 -0.5384 -2.1687  1.5647
  785MOL0     H 5966   6.562   9.775  11.808 -0.5482  1.0039 -0.7393
  785MOL0     H 5967   6.693   9.602  11.578  0.0326  0.2527  0.0827
  785MOL0     H 5968   6.520   9.638  11.600 -0.4205 -2.0731  2.0279
  785MOL0     H 5969   6.488   9.528  11.790  0.3168 -2.9567 -0.3743
  785MOL0     H 5970   6.657   9.549  11.849  1.3260  1.1800 -1.0839
  785MOL0     H 5971   6.635   9.325  11.803  1.4793  0.0497 -0.1208
  785MOL0     H 5972   6.710   9.377  11.648 -0.1262 -4.2793 -0.3727
  785MOL0     H 5973   6.385   9.246  11.461 -1.2360 -1.7302  2.0326
  785MOL0     H 5974   6.378   9.800  11.719 -1.8552  3.0151  2.4936
  785MOL0     H 5975   6.172   9.858  11.602 -1.0062  1.2190 -2.4154
  786MOL0     O 5976  10.701   5.084   2.342 -1.1367  0.9709  0.5480
  786MOL0     C 5977  10.739   5.165   2.263 -0.2116  0.7118  0.0749
  786MOL0     O 5978  10.655   5.267   2.210 -0.3012  0.3805 -0.3943
  786MOL0     C 5979  10.521   5.247   2.216 -0.6236 -0.7636 -0.6792
  786MOL0     C 5980  10.452   5.352   2.266  0.0818  0.3109  0.3716
  786MOL0     C 5981  10.311   5.363   2.260 -0.4506  0.1153  0.1571
  786MOL0     C 5982  10.244   5.256   2.205  0.2633  0.0399 -0.4619
  786MOL0     O 5983  10.108   5.245   2.189  0.3559  0.1691  0.3854
  786MOL0     C 5984  10.022   5.345   2.241  0.8556 -0.4255 -0.3503
  786MOL0     C 5985   9.874   5.305   2.228 -0.2543  0.1313  0.1495
  786MOL0     C 5986   9.810   5.315   2.082 -0.4441  0.1993 -0.6241
  786MOL0     C 5987   9.671   5.380   2.096 -0.5647  0.6797  0.5732
  786MOL0     C 5988   9.607   5.387   1.955 -0.4571  0.3889 -1.0106
  786MOL0     C 5989   9.463   5.430   1.945 -0.1403 -0.0895 -0.8807
  786MOL0     C 5990   9.423   5.438   1.803  0.6462 -0.6459  0.4380
  786MOL0     C 5991   9.284   5.474   1.767 -0.0201 -0.7746  0.2089
  786MOL0     N 5992   9.188   5.363   1.792  0.1501  0.5046  0.7234
  786MOL0     C 5993   9.162   5.274   1.693  0.2893 -0.6307  0.0955
  786MOL0     C 5994   9.056   5.208   1.732 -0.5798  0.1052 -0.4665
  786MOL0     C 5995   8.968   5.115   1.653 -0.1717 -0.3673 -0.7463
  786MOL0     C 5996   8.891   5.193   1.543 -0.5304 -0.4226  0.2548
  786MOL0     C 5997   8.863   5.111   1.420 -0.0354  0.2116 -0.3077
  786MOL0     C 5998   8.791   4.978   1.442  0.0964 -0.5314  0.4883
  786MOL0     O 5999   8.787   4.905   1.318  0.6996 -0.3282  0.0072
  786MOL0     C 6000   8.681   4.812   1.300  0.5544 -0.4685 -0.1500
  786MOL0     C 6001   8.636   4.797   1.171 -0.5336 -0.3888  0.1675
  786MOL0     C 6002   8.536   4.708   1.136 -0.4381 -0.3127  0.9083
  786MOL0     C 6003   8.514   4.694   0.992  0.4238 -0.7933  0.2175
  786MOL0     C 6004   8.480   4.621   1.236  0.5396  0.6494 -0.1714
  786MOL0     C 6005   8.377   4.507   1.213  0.2099 -0.1409  0.2825
  786MOL0     O 6006   8.386   4.400   1.298  0.2868 -0.1629  0.3830
  786MOL0     C 6007   8.274   4.328   1.327  0.5670 -0.7311 -0.1378
  786MOL0     C 6008   8.223   4.345   1.458  0.4457 -0.3297  0.0763
  786MOL0     C 6009   8.101   4.282   1.486 -0.2127  0.4523  0.6975
  786MOL0     C 6010   8.040   4.193   1.392  0.5035  0.1920 -0.6016
  786MOL0     O 6011   7.948   4.112   1.446  0.1663 -0.5086  0.3996
  786MOL0     C 6012   7.838   4.058   1.359 -0.7995  0.6451  0.5408
  786MOL0     C 6013   7.736   3.970   1.439  0.3710 -0.9423  0.7146
  786MOL0     C 6014   7.617   3.910   1.360  0.1954  0.5603  0.0014
  786MOL0     C 6015   7.551   3.994   1.254 -0.4884  0.0871  1.7689
  786MOL0     C 6016   7.433   3.938   1.182 -0.2812  0.1010  0.2177
  786MOL0     C 6017   7.410   3.985   1.041  0.2721 -0.9632  0.3563
  786MOL0     C 6018   7.328   4.123   1.033  0.8797  0.4594 -0.9388
  786MOL0     C 6019   7.315   4.184   0.897 -0.5279  0.5547 -0.0459
  786MOL0    Cl 6020   7.218   4.088   0.790  0.2183 -0.1269  0.6218
  786MOL0     C 6021   8.086   4.184   1.260 -0.2186 -0.0772 -0.5980
  786MOL0     C 6022   8.208   4.240   1.233 -0.6017  0.0742  0.2483
  786MOL0     O 6023   8.284   4.526   1.134 -0.3533  0.5542  0.2435
  786MOL0     C 6024   8.517   4.644   1.373 -0.3074  0.4369 -0.7345
  786MOL0     C 6025   8.624   4.737   1.398  0.0285 -0.7594 -0.9453
  786MOL0     N 6026   9.024   5.249   1.856  0.1514 -1.2074  0.6815
  786MOL0     N 6027   9.103   5.342   1.892 -0.3860 -0.3945 -0.1305
  786MOL0     C 6028  10.318   5.139   2.160 -0.3615 -0.1901 -0.1368
  786MOL0     C 6029  10.456   5.132   2.165 -0.3193  0.3837  0.7245
  786MOL0     C 6030  10.881   5.157   2.228  0.3962 -0.1292 -0.0202
  786MOL0     C 6031  10.983   5.100   2.308 -0.1043 -0.6109  0.4974
  786MOL0     C 6032  11.120   5.110   2.284  1.2175 -0.2176  0.8511
  786MOL0     C 6033  11.155   5.163   2.156  0.2315  0.0184  0.3579
  786MOL0     O 6034  11.287   5.167   2.128  0.5207 -0.0577 -0.2226
  786MOL0     C 6035  11.339   5.309   2.102  0.3450 -0.1887 -0.3600
  786MOL0     C 6036  11.434   5.300   1.985 -0.4908  0.2722  0.4262
  786MOL0     C 6037  11.564   5.247   2.041 -0.3761 -0.6663 -0.1950
  786MOL0     C 6038  11.672   5.266   1.944 -0.4594  0.8098  0.9404
  786MOL0     C 6039  11.707   5.406   1.937 -0.2299 -0.4717  0.2671
  786MOL0     C 6040  11.751   5.516   1.925 -0.1489  0.2023 -0.0604
  786MOL0     C 6041  11.053   5.192   2.060  0.0406 -0.6343 -0.4495
  786MOL0     C 6042  10.914   5.190   2.098  0.1990 -0.8681 -0.3391
  786MOL0     H 6043  10.510   5.434   2.308 -0.1541  0.7675 -0.1810
  786MOL0     H 6044  10.255   5.447   2.298 -1.5363  0.7706 -2.6957
  786MOL0     H 6045  10.040   5.347   2.349  0.2770 -0.7091 -0.2410
  786MOL0     H 6046  10.035   5.443   2.194 -1.6334 -1.4550 -3.5180
  786MOL0     H 6047   9.867   5.202   2.265  1.1772 -0.5496 -1.3731
  786MOL0     H 6048   9.819   5.360   2.305 -1.0114 -1.6607  0.9423
  786MOL0     H 6049   9.875   5.379   2.022 -0.3618  0.0829 -0.6608
  786MOL0     H 6050   9.801   5.215   2.038  3.7089  0.6769 -3.0981
  786MOL0     H 6051   9.613   5.323   2.170  1.4185  0.3243  1.9342
  786MOL0     H 6052   9.690   5.483   2.126 -0.3324  0.7536  0.1792
  786MOL0     H 6053   9.671   5.449   1.890  0.2254  2.0887  1.1718
  786MOL0     H 6054   9.611   5.285   1.917  0.4063 -0.8530  2.1429
  786MOL0     H 6055   9.400   5.358   1.998  2.9082 -0.2739  2.8999
  786MOL0     H 6056   9.445   5.528   1.990 -2.1931 -0.2250 -1.2759
  786MOL0     H 6057   9.491   5.505   1.749  1.1311 -0.7282  0.9346
  786MOL0     H 6058   9.450   5.336   1.774  4.9848  0.8515 -1.6189
  786MOL0     H 6059   9.277   5.513   1.665 -0.5788 -2.6257 -0.4837
  786MOL0     H 6060   9.249   5.554   1.834 -1.8201 -1.1915 -0.1703
  786MOL0     H 6061   9.209   5.271   1.595  0.7321 -1.0631  0.3176
  786MOL0     H 6062   9.034   5.041   1.608  0.0184 -0.4135 -0.3949
  786MOL0     H 6063   8.894   5.069   1.718 -1.2809  3.8066  1.2750
  786MOL0     H 6064   8.946   5.282   1.512  1.6299 -0.7527  2.8127
  786MOL0     H 6065   8.795   5.227   1.583  0.2080  0.7431  1.0941
  786MOL0     H 6066   8.952   5.113   1.357 -0.1405 -1.2017 -0.5154
  786MOL0     H 6067   8.791   5.169   1.361 -1.8330  2.1360  3.4082
  786MOL0     H 6068   8.685   4.991   1.463 -0.5069 -1.8974 -1.3660
  786MOL0     H 6069   8.845   4.924   1.520  0.6292  1.2483  1.4074
  786MOL0     H 6070   8.688   4.854   1.094  0.5239 -1.7832 -0.1904
  786MOL0     H 6071   8.600   4.661   0.933  0.3052  1.3177 -1.2473
  786MOL0     H 6072   8.428   4.632   0.966 -1.1547  1.4679 -0.3105
  786MOL0     H 6073   8.478   4.794   0.964 -1.9860 -1.3959  0.9523
  786MOL0     H 6074   8.269   4.397   1.542 -1.0756 -2.4046  2.3503
  786MOL0     H 6075   8.047   4.294   1.579 -1.2329  1.5541 -0.0043
  786MOL0     H 6076   7.782   4.141   1.315  1.0256  2.4227  1.4280
  786MOL0     H 6077   7.885   4.008   1.274  1.1309  0.0880  1.8626
  786MOL0     H 6078   7.790   3.894   1.497  2.6035  1.8341  2.5456
  786MOL0     H 6079   7.697   4.035   1.518  0.5045 -0.0794  0.0820
  786MOL0     H 6080   7.543   3.893   1.439  1.4064 -3.3964  0.5225
  786MOL0     H 6081   7.650   3.809   1.331  0.2996  0.2546  1.1354
  786MOL0     H 6082   7.530   4.096   1.288  0.2561  1.0199 -0.3684
  786MOL0     H 6083   7.626   3.986   1.175 -3.2332 -0.5631 -0.9650
  786MOL0     H 6084   7.344   3.971   1.238 -1.1274  0.8070 -1.4698
  786MOL0     H 6085   7.448   3.830   1.192 -0.0055  0.2440  1.5674
  786MOL0     H 6086   7.500   3.990   0.979 -0.2430  1.6504 -0.2980
  786MOL0     H 6087   7.350   3.906   0.995  1.0105 -2.5214  1.9402
  786MOL0     H 6088   7.370   4.194   1.105  0.2927 -1.4633  1.4391
  786MOL0     H 6089   7.226   4.102   1.066  0.8336  1.0753 -0.6575
  786MOL0     H 6090   7.414   4.210   0.859  0.3166 -2.8511 -0.5344
  786MOL0     H 6091   7.260   4.274   0.925  1.3350  1.0438  2.3063
  786MOL0     H 6092   8.045   4.110   1.192 -1.8996 -2.4038  2.6863
  786MOL0     H 6093   8.248   4.212   1.136 -1.1241 -1.3864  0.4293
  786MOL0     H 6094   8.477   4.585   1.455  0.3780  0.7639 -0.1511
  786MOL0     H 6095   8.656   4.750   1.501 -0.9545 -1.1294 -0.5781
  786MOL0     H 6096  10.281   5.061   2.094  3.7641 -1.3082 -1.4936
  786MOL0     H 6097  10.511   5.044   2.134 -4.0645 -2.1799  0.6937
  786MOL0     H 6098  10.941   5.055   2.398  0.5669 -0.5180  0.8590
  786MOL0     H 6099  11.193   5.072   2.354  2.1796  1.0901  0.5848
  786MOL0     H 6100  11.255   5.368   2.065 -0.6835 -0.2420  1.7581
  786MOL0     H 6101  11.379   5.353   2.193  1.7737  2.1497 -2.0071
  786MOL0     H 6102  11.442   5.403   1.949  0.0086 -0.0694 -0.4878
  786MOL0     H 6103  11.393   5.237   1.906  0.8318  0.1479 -0.1992
  786MOL0     H 6104  11.549   5.142   2.068  0.1597 -0.1197  2.4932
  786MOL0     H 6105  11.593   5.296   2.134  0.4087 -0.5722 -0.4891
  786MOL0     H 6106  11.638   5.236   1.844  3.0820  1.7613 -0.7084
  786MOL0     H 6107  11.760   5.204   1.962  1.0786  3.0094  1.4407
  786MOL0     H 6108  11.770   5.620   1.906 -0.6323  0.5618  1.3292
  786MOL0     H 6109  11.077   5.229   1.961 -1.0360  0.1058 -0.4514
  786MOL0     H 6110  10.845   5.214   2.018 -1.3826  0.6536  1.3867
  787MOL0     O 6111  10.752   8.752   9.047 -0.2406 -0.4312  1.1733
  787MOL0     C 6112  10.808   8.739   9.151 -0.9761 -0.0717 -0.1925
  787MOL0     O 6113  10.756   8.704   9.268  0.0565  0.6263  0.4733
  787MOL0     C 6114  10.618   8.716   9.281 -0.4303  0.6340  0.1343
  787MOL0     C 6115  10.538   8.629   9.205 -0.3403  0.5965  0.8066
  787MOL0     C 6116  10.402   8.629   9.224 -0.5881  0.1720 -0.2468
  787MOL0     C 6117  10.340   8.711   9.307 -0.8521 -0.3801  0.2203
  787MOL0     O 6118  10.209   8.713   9.322 -0.0641 -0.3769  0.1594
  787MOL0     C 6119  10.173   8.619   9.424  0.2150 -0.5232  0.5094
  787MOL0     C 6120  10.029   8.565   9.398 -0.4583 -0.4430 -0.2818
  787MOL0     C 6121   9.935   8.666   9.465 -0.3496 -0.3257 -0.0370
  787MOL0     C 6122   9.796   8.683   9.401 -0.1732  0.6638  0.0602
  787MOL0     C 6123   9.716   8.547   9.394  0.2321  0.7254  1.0383
  787MOL0     C 6124   9.571   8.563   9.342  0.6179  0.4134  0.8138
  787MOL0     C 6125   9.472   8.592   9.462  0.0039 -0.8629  0.2084
  787MOL0     C 6126   9.333   8.647   9.410  0.6181  0.1090  0.3500
  787MOL0     N 6127   9.270   8.547   9.326  0.4652 -0.3110  1.0145
  787MOL0     C 6128   9.293   8.530   9.189 -0.2870  0.8379 -0.8318
  787MOL0     C 6129   9.203   8.434   9.154 -1.0881 -0.1727  0.7359
  787MOL0     C 6130   9.187   8.386   9.013  0.0985  0.2805 -0.1617
  787MOL0     C 6131   9.104   8.488   8.922  0.2525  0.0625 -0.2415
  787MOL0     C 6132   8.963   8.509   8.983 -0.6874 -0.4190  1.1784
  787MOL0     C 6133   8.869   8.599   8.898 -0.2167 -0.1181 -0.1430
  787MOL0     O 6134   8.748   8.640   8.968 -0.3665  0.5462  0.0444
  787MOL0     C 6135   8.634   8.571   8.959  0.7353 -0.2515  0.6069
  787MOL0     C 6136   8.627   8.447   8.906  0.0073  0.5187  0.2606
  787MOL0     C 6137   8.508   8.367   8.919 -0.6675 -0.8056  0.1651
  787MOL0     C 6138   8.513   8.231   8.860  0.8651 -0.0104  0.0168
  787MOL0     C 6139   8.393   8.428   8.982 -1.3778 -0.4075 -0.4865
  787MOL0     C 6140   8.267   8.360   8.994  0.2182  0.2429 -0.3124
  787MOL0     O 6141   8.150   8.425   8.979  1.1874  0.3385  0.5953
  787MOL0     C 6142   8.036   8.354   8.991 -1.4224  0.4645  0.1292
  787MOL0     C 6143   8.015   8.291   9.111 -0.0029 -0.6488  0.2664
  787MOL0     C 6144   7.897   8.227   9.127  0.4876 -0.5386  1.2417
  787MOL0     C 6145   7.789   8.232   9.037 -0.0487 -1.0517 -0.3818
  787MOL0     O 6146   7.672   8.184   9.070  0.2107 -0.0681 -0.4558
  787MOL0     C 6147   7.551   8.259   9.027  0.6094 -0.4337 -0.7695
  787MOL0     C 6148   7.438   8.225   9.134 -0.1648 -0.2115 -0.4519
  787MOL0     C 6149   7.408   8.082   9.116  0.3919 -0.0788 -0.7053
  787MOL0     C 6150   7.317   8.029   9.229 -0.5344 -0.1638  0.1710
  787MOL0     C 6151   7.279   7.885   9.187 -0.1366 -0.4759  0.9749
  787MOL0     C 6152   7.223   7.806   9.309  0.6429 -0.2686  1.3012
  787MOL0     C 6153   7.132   7.683   9.264 -0.4902 -0.3236  0.2517
  787MOL0     C 6154   7.055   7.624   9.384  0.4232 -0.1302 -0.7241
  787MOL0    Cl 6155   6.947   7.740   9.473  0.2217 -0.3251  0.0229
  787MOL0     C 6156   7.817   8.289   8.909 -0.8226 -0.0037  0.2563
  787MOL0     C 6157   7.934   8.366   8.900 -1.3448  0.5571  0.6499
  787MOL0     O 6158   8.274   8.239   9.018  0.4710 -0.5694 -0.1200
  787MOL0     C 6159   8.397   8.561   9.031  0.0637  0.3774  0.9705
  787MOL0     C 6160   8.518   8.634   9.017  0.0662 -0.0208  0.0424
  787MOL0     N 6161   9.128   8.403   9.271 -0.7631  0.2970 -0.5930
  787MOL0     N 6162   9.166   8.481   9.368  0.4287  0.2504  0.0822
  787MOL0     C 6163  10.413   8.805   9.379 -0.3166  0.1894 -0.7745
  787MOL0     C 6164  10.555   8.806   9.368 -1.0308 -0.8981 -0.4669
  787MOL0     C 6165  10.956   8.758   9.139  0.3259  0.1594 -0.2023
  787MOL0     C 6166  11.034   8.721   9.025  0.2273 -1.0133 -0.2206
  787MOL0     C 6167  11.170   8.741   9.041 -0.5253  0.1080 -0.9951
  787MOL0     C 6168  11.226   8.815   9.149 -0.6076  0.5290  1.6894
  787MOL0     O 6169  11.361   8.831   9.130 -0.0311 -0.2554 -0.5132
  787MOL0     C 6170  11.446   8.856   9.252 -0.5113  0.6458  0.2994
  787MOL0     C 6171  11.453   8.736   9.345 -0.5262  0.3769 -0.0866
  787MOL0     C 6172  11.553   8.637   9.283 -0.2890  0.2321  0.0511
  787MOL0     C 6173  11.491   8.554   9.169  0.5000 -0.2217  0.0515
  787MOL0     C 6174  11.566   8.423   9.143  0.4910  0.0298  1.1693
  787MOL0     C 6175  11.617   8.320   9.131  0.2199 -0.3857  0.4431
  787MOL0     C 6176  11.153   8.852   9.253 -0.4824 -0.1853 -0.1141
  787MOL0     C 6177  11.021   8.807   9.255 -0.1409 -0.1934  0.0727
  787MOL0     H 6178  10.584   8.551   9.145 -2.1222 -2.9527  3.6877
  787MOL0     H 6179  10.342   8.568   9.158  0.5048 -0.7884 -0.3902
  787MOL0     H 6180  10.250   8.542   9.434  1.2403  0.2173 -1.2372
  787MOL0     H 6181  10.185   8.670   9.520  1.2594 -0.5014  0.3806
  787MOL0     H 6182  10.013   8.551   9.291 -0.5492 -0.0398 -0.3215
  787MOL0     H 6183  10.015   8.470   9.452  0.1640  0.5698  1.7765
  787MOL0     H 6184   9.915   8.650   9.571 -2.3676 -2.1367 -0.6193
  787MOL0     H 6185   9.981   8.765   9.454  0.0109 -0.6828 -2.3648
  787MOL0     H 6186   9.744   8.754   9.466  0.3569  0.9652  0.1551
  787MOL0     H 6187   9.798   8.719   9.298  0.4515  0.0940 -0.1373
  787MOL0     H 6188   9.778   8.477   9.337  1.2316 -1.0546  4.0559
  787MOL0     H 6189   9.700   8.489   9.485  0.1036  0.0692  0.6103
  787MOL0     H 6190   9.568   8.639   9.263 -1.8932  1.2282  1.5930
  787MOL0     H 6191   9.547   8.464   9.302 -0.4553  1.1179 -0.3574
  787MOL0     H 6192   9.460   8.499   9.519 -0.8412 -0.1404  1.2439
  787MOL0     H 6193   9.505   8.672   9.528 -3.0680  1.6431 -0.9864
  787MOL0     H 6194   9.359   8.740   9.358  2.8846 -1.3600 -1.3521
  787MOL0     H 6195   9.265   8.675   9.491  2.1367  0.7305  1.4681
  787MOL0     H 6196   9.371   8.587   9.140  1.6380 -1.5522 -0.7342
  787MOL0     H 6197   9.283   8.366   8.964  0.2378 -0.8680  0.5354
  787MOL0     H 6198   9.137   8.288   9.015  2.3403 -0.9375 -0.0557
  787MOL0     H 6199   9.089   8.451   8.821  0.9532  3.1053 -1.5819
  787MOL0     H 6200   9.161   8.582   8.912 -0.2718  0.2507 -1.6223
  787MOL0     H 6201   8.963   8.555   9.082 -0.0813  3.7966 -0.5949
  787MOL0     H 6202   8.915   8.411   8.980 -3.4103  0.8300  0.7640
  787MOL0     H 6203   8.847   8.549   8.803 -3.3950  1.8199 -0.5654
  787MOL0     H 6204   8.913   8.691   8.858 -2.2673  1.3949  0.9099
  787MOL0     H 6205   8.714   8.402   8.858 -0.5104 -1.7710  1.3479
  787MOL0     H 6206   8.428   8.214   8.794  2.4513  2.1833 -2.8095
  787MOL0     H 6207   8.596   8.205   8.794 -0.1788 -2.4101 -0.4769
  787MOL0     H 6208   8.504   8.164   8.946 -0.2671  1.0333  0.7396
  787MOL0     H 6209   8.084   8.283   9.194  0.3208 -3.3620 -0.1504
  787MOL0     H 6210   7.867   8.192   9.225  3.9170 -2.8534  1.6505
  787MOL0     H 6211   7.560   8.367   9.018 -1.3188 -0.2804 -1.4232
  787MOL0     H 6212   7.523   8.229   8.925  1.9528  0.9702 -1.6000
  787MOL0     H 6213   7.470   8.253   9.235  1.3415  1.9622 -1.4618
  787MOL0     H 6214   7.344   8.275   9.108 -1.7369 -2.1974  1.0244
  787MOL0     H 6215   7.494   8.015   9.119  0.0337 -0.6815 -2.5856
  787MOL0     H 6216   7.357   8.068   9.020 -2.0294 -0.1789  0.5327
  787MOL0     H 6217   7.360   8.025   9.330 -3.6601 -0.9432  1.5942
  787MOL0     H 6218   7.235   8.100   9.245 -1.1717 -0.5642 -1.1689
  787MOL0     H 6219   7.364   7.832   9.142  0.5341  1.4572 -0.1480
  787MOL0     H 6220   7.207   7.871   9.105  0.6704  0.1473  0.1319
  787MOL0     H 6221   7.310   7.762   9.358  0.7925 -0.2693  1.0353
  787MOL0     H 6222   7.164   7.875   9.371 -0.8352 -3.0442  3.1621
  787MOL0     H 6223   7.201   7.615   9.214 -0.5567  1.8648 -3.1162
  787MOL0     H 6224   7.056   7.712   9.191 -0.4717  0.1873  0.4260
  787MOL0     H 6225   7.122   7.585   9.461  0.1608  1.7319  0.5183
  787MOL0     H 6226   6.990   7.541   9.354  2.2886 -1.2978 -1.7173
  787MOL0     H 6227   7.743   8.289   8.829  0.7986  2.6308 -1.3787
  787MOL0     H 6228   7.952   8.423   8.810  0.4652 -0.4445  0.3228
  787MOL0     H 6229   8.305   8.605   9.067 -2.0441 -1.6163 -1.5769
  787MOL0     H 6230   8.529   8.731   9.065 -0.7529 -0.3937  1.0322
  787MOL0     H 6231  10.359   8.875   9.442 -0.7336 -2.1236  1.6398
  787MOL0     H 6232  10.616   8.868   9.433 -0.1356 -2.7424  0.5539
  787MOL0     H 6233  10.986   8.690   8.933 -0.7611  0.2684 -0.1623
  787MOL0     H 6234  11.243   8.731   8.961  2.0649  1.1922  1.1084
  787MOL0     H 6235  11.544   8.881   9.210 -0.9390 -0.2602 -1.3147
  787MOL0     H 6236  11.420   8.947   9.307  1.4991  0.9789  0.7872
  787MOL0     H 6237  11.359   8.686   9.369 -0.1942 -1.0922 -1.6783
  787MOL0     H 6238  11.495   8.761   9.443  1.9712  0.9312 -1.2109
  787MOL0     H 6239  11.595   8.567   9.356 -2.1879 -0.3967  0.6042
  787MOL0     H 6240  11.642   8.685   9.241 -0.8364  0.4376 -0.9046
  787MOL0     H 6241  11.485   8.612   9.077 -0.2976 -0.8188 -0.2929
  787MOL0     H 6242  11.385   8.532   9.189 -1.0668  2.3273 -4.1489
  787MOL0     H 6243  11.661   8.223   9.121 -0.2774 -0.6149  0.4046
  787MOL0     H 6244  11.193   8.920   9.328  1.9998 -1.5327 -0.1217
  787MOL0     H 6245  10.971   8.841   9.346  1.3330  2.1804  0.0748
  788MOL0     O 6246   9.436  10.866  10.133  0.1125  0.2938  0.0313
  788MOL0     C 6247   9.493  10.775  10.185 -0.2170  0.8009  0.1997
  788MOL0     O 6248   9.438  10.659  10.213 -0.3260 -0.5148  0.0414
  788MOL0     C 6249   9.309  10.642  10.162  0.0465 -0.0276  0.1071
  788MOL0     C 6250   9.276  10.649  10.022  0.1379 -0.3026 -0.4143
  788MOL0     C 6251   9.156  10.601   9.963 -0.2667 -0.9717 -0.0607
  788MOL0     C 6252   9.065  10.541  10.054 -0.7841 -0.4446  0.1818
  788MOL0     O 6253   8.951  10.485   9.999 -0.8216 -0.0196 -0.7680
  788MOL0     C 6254   8.829  10.480  10.086 -0.0426  0.2038  0.6136
  788MOL0     C 6255   8.696  10.441  10.009 -0.5176 -0.2672 -0.7575
  788MOL0     C 6256   8.663  10.527   9.894 -0.6327 -1.2462 -0.4473
  788MOL0     C 6257   8.541  10.475   9.818 -0.3561 -0.0750  0.6281
  788MOL0     C 6258   8.403  10.494   9.876  0.1496 -0.1708 -0.5769
  788MOL0     C 6259   8.290  10.460   9.771  0.0060  0.3907 -0.6323
  788MOL0     C 6260   8.152  10.430   9.836  0.3363  0.9355  0.1620
  788MOL0     C 6261   8.162  10.288   9.914 -0.2461 -0.4087 -0.4880
  788MOL0     N 6262   8.036  10.248   9.968 -0.5067 -0.4183  0.0616
  788MOL0     C 6263   7.914  10.233   9.899 -0.0876  0.6519 -0.4006
  788MOL0     C 6264   7.850  10.154   9.983  0.1658 -0.2592  0.1186
  788MOL0     C 6265   7.714  10.096   9.949 -0.2407  0.1631 -0.8457
  788MOL0     C 6266   7.716   9.947   9.920  1.3821  0.1012 -0.5844
  788MOL0     C 6267   7.568   9.895   9.910 -0.1514  0.5659 -0.3843
  788MOL0     C 6268   7.556   9.743   9.913  0.2064  0.0414  0.0521
  788MOL0     O 6269   7.435   9.702   9.851 -0.0695 -0.3228 -0.2827
  788MOL0     C 6270   7.320   9.679   9.922 -0.1228 -0.0792  0.1995
  788MOL0     C 6271   7.201   9.681   9.843 -0.5896 -0.0473  0.6463
  788MOL0     C 6272   7.075   9.671   9.907  0.6102  0.6469 -0.1696
  788MOL0     C 6273   6.946   9.674   9.822 -0.7643 -0.5204 -0.1691
  788MOL0     C 6274   7.067   9.645  10.044  0.2421 -0.5121  0.4750
  788MOL0     C 6275   6.945   9.628  10.120 -0.1968  0.5931 -0.3388
  788MOL0     O 6276   6.829   9.580  10.054 -0.3417 -0.0434  0.4753
  788MOL0     C 6277   6.718   9.548  10.129  0.2615 -0.5059  0.1563
  788MOL0     C 6278   6.597   9.608  10.102  0.3343 -1.0099  0.5484
  788MOL0     C 6279   6.481   9.570  10.169  0.6113  0.6144 -0.5815
  788MOL0     C 6280   6.482   9.474  10.268 -0.3293  0.9319 -0.1127
  788MOL0     O 6281   6.366   9.430  10.321  0.2597  0.6983  0.3633
  788MOL0     C 6282   6.375   9.352  10.439 -0.0471  0.3936  0.5175
  788MOL0     C 6283   6.238   9.303  10.492  0.3754 -0.1713  0.4574
  788MOL0     C 6284   6.179   9.190  10.414 -0.0660 -0.8643 -0.2924
  788MOL0     C 6285   6.264   9.064  10.453  0.5121 -0.3152  0.9454
  788MOL0     C 6286   6.196   8.935  10.405  0.3226  0.1125 -0.3871
  788MOL0     C 6287   6.167   8.932  10.255 -0.3991  0.1105  0.4747
  788MOL0     C 6288   6.083   8.817  10.217 -0.6215  0.3767  1.0212
  788MOL0     C 6289   5.940   8.838  10.279 -0.7100  0.5501  0.2037
  788MOL0    Cl 6290   5.866   8.991  10.232  0.1400  0.2164  0.0413
  788MOL0     C 6291   6.608   9.410  10.297  0.3562  0.3320  0.6040
  788MOL0     C 6292   6.724   9.445  10.225 -0.8801  0.2317 -0.8287
  788MOL0     O 6293   6.945   9.649  10.242  0.0348  0.3397  0.4755
  788MOL0     C 6294   7.188   9.645  10.113 -0.1340  0.2541  0.0897
  788MOL0     C 6295   7.316   9.660  10.061  0.2369 -0.0372  0.0618
  788MOL0     N 6296   7.921  10.133  10.107  0.4749  0.1288 -0.1207
  788MOL0     N 6297   8.032  10.191  10.090 -0.7292 -0.0828 -0.6281
  788MOL0     C 6298   9.097  10.533  10.192 -0.5336  0.8019 -0.0206
  788MOL0     C 6299   9.220  10.575  10.249  0.2786  0.0859  0.2697
  788MOL0     C 6300   9.638  10.792  10.222  0.5805 -0.3900 -0.2235
  788MOL0     C 6301   9.696  10.916  10.217 -0.1903 -0.0027  0.2898
  788MOL0     C 6302   9.833  10.924  10.207 -0.2116 -0.2188 -0.5533
  788MOL0     C 6303   9.909  10.811  10.232  0.3124 -0.0137 -0.7644
  788MOL0     O 6304  10.047  10.826  10.226  0.0324 -0.8883 -0.3622
  788MOL0     C 6305  10.112  10.787  10.350 -0.1635 -0.5482  0.1615
  788MOL0     C 6306  10.234  10.879  10.384 -0.9041 -0.3160 -0.0727
  788MOL0     C 6307  10.347  10.847  10.291 -0.2827 -0.1576  0.2460
  788MOL0     C 6308  10.458  10.941  10.303  0.0253 -0.3317 -0.6098
  788MOL0     C 6309  10.532  10.929  10.431 -0.6944  0.0226  0.1041
  788MOL0     C 6310  10.623  10.924  10.510  0.0815  0.2717 -0.3433
  788MOL0     C 6311   9.850  10.689  10.247  0.4030 -1.1360 -0.3090
  788MOL0     C 6312   9.713  10.677  10.252 -0.3358  0.4081  0.3467
  788MOL0     H 6313   9.364  10.679   9.966  3.1937 -2.9672  2.5129
  788MOL0     H 6314   9.133  10.615   9.858  0.6186 -2.4301 -0.4833
  788MOL0     H 6315   8.831  10.392  10.152 -2.0887 -1.2058 -1.0644
  788MOL0     H 6316   8.815  10.575  10.139 -1.3534 -0.2660  1.1618
  788MOL0     H 6317   8.709  10.337   9.978  1.2072 -0.0993 -0.6864
  788MOL0     H 6318   8.615  10.454  10.082  0.2460  1.3693 -0.1513
  788MOL0     H 6319   8.650  10.633   9.920  0.6690 -1.8204  2.9842
  788MOL0     H 6320   8.747  10.522   9.825  0.9946  1.5555  1.1318
  788MOL0     H 6321   8.553  10.528   9.723 -1.6896  0.8063  0.9159
  788MOL0     H 6322   8.558  10.368   9.801 -1.8086 -0.2333  0.0763
  788MOL0     H 6323   8.399  10.422   9.959 -0.0374 -1.1363 -1.4052
  788MOL0     H 6324   8.399  10.597   9.912  0.3907  0.6185 -2.7021
  788MOL0     H 6325   8.283  10.547   9.706 -0.4200  1.0648  0.2936
  788MOL0     H 6326   8.319  10.376   9.707 -1.9249  0.2956 -1.4519
  788MOL0     H 6327   8.118  10.516   9.894  0.6884  1.2158 -0.0410
  788MOL0     H 6328   8.081  10.411   9.755  1.2312  1.2396 -0.7185
  788MOL0     H 6329   8.231  10.308   9.998 -2.8056  1.4991  1.3232
  788MOL0     H 6330   8.192  10.214   9.840 -0.1064 -1.1490  0.2968
  788MOL0     H 6331   7.873  10.272   9.807  0.2334  1.0307 -0.3888
  788MOL0     H 6332   7.661  10.111  10.043  1.1943  0.7098 -0.0963
  788MOL0     H 6333   7.673  10.137   9.856 -0.3382 -1.9629 -1.8229
  788MOL0     H 6334   7.764   9.886   9.997  0.5615  0.1693  0.0027
  788MOL0     H 6335   7.777   9.927   9.832  0.0472  1.3666 -1.8578
  788MOL0     H 6336   7.512   9.947   9.832  0.2671 -0.6157 -1.5048
  788MOL0     H 6337   7.516   9.920  10.003  1.7686  1.5797  0.4796
  788MOL0     H 6338   7.559   9.707  10.016 -3.2506 -0.5690  0.0563
  788MOL0     H 6339   7.641   9.697   9.862 -0.1836 -0.0521 -0.5243
  788MOL0     H 6340   7.216   9.683   9.735 -2.0103 -1.4908  0.3823
  788MOL0     H 6341   6.867   9.730   9.873 -0.8108 -0.8141  0.0822
  788MOL0     H 6342   6.971   9.727   9.729  1.1528  0.3459  0.7699
  788MOL0     H 6343   6.905   9.573   9.813  0.2997 -1.5073  4.1180
  788MOL0     H 6344   6.601   9.690  10.031  1.5129  0.6240  2.3885
  788MOL0     H 6345   6.382   9.600  10.138 -0.1958  0.0622  1.3124
  788MOL0     H 6346   6.444   9.268  10.431  0.6934  0.8926  1.4808
  788MOL0     H 6347   6.420   9.412  10.520 -0.9285  0.5749  0.8816
  788MOL0     H 6348   6.251   9.270  10.596 -0.2810 -0.1814  0.5413
  788MOL0     H 6349   6.169   9.388  10.496  2.2249  1.3469  1.7653
  788MOL0     H 6350   6.188   9.218  10.308  2.1292  0.2763  0.1306
  788MOL0     H 6351   6.071   9.197  10.431 -0.0680  0.0435 -0.6096
  788MOL0     H 6352   6.360   9.069  10.401  0.7065  0.6776  1.3805
  788MOL0     H 6353   6.287   9.045  10.558 -1.0660 -1.8660  1.0531
  788MOL0     H 6354   6.101   8.934  10.458  0.8224  3.4925  0.8052
  788MOL0     H 6355   6.259   8.848  10.425 -0.1200  0.3488  2.3882
  788MOL0     H 6356   6.134   9.028  10.215 -0.2493 -0.2826 -0.6508
  788MOL0     H 6357   6.261   8.913  10.201  0.0982  1.5563  0.7959
  788MOL0     H 6358   6.124   8.721  10.252  1.7075  1.3567  1.2109
  788MOL0     H 6359   6.079   8.805  10.108  1.6597  0.4807  0.8750
  788MOL0     H 6360   5.940   8.828  10.388 -0.4196 -0.8186  0.1044
  788MOL0     H 6361   5.873   8.760  10.241 -0.0356 -0.5920  1.2745
  788MOL0     H 6362   6.624   9.333  10.372  2.7981  0.2485  0.0879
  788MOL0     H 6363   6.821   9.403  10.249 -0.7113 -0.4099 -2.5091
  788MOL0     H 6364   7.193   9.623  10.220  2.1298 -3.6591 -0.6309
  788MOL0     H 6365   7.404   9.662  10.124  0.2328 -1.5849  0.1652
  788MOL0     H 6366   9.022  10.491  10.259  0.0560 -1.6016 -0.7805
  788MOL0     H 6367   9.237  10.570  10.356 -1.9783 -0.0518  0.6821
  788MOL0     H 6368   9.642  11.008  10.195  1.8197  0.9049 -1.1210
  788MOL0     H 6369   9.883  11.018  10.191 -0.6167  0.0528 -0.2689
  788MOL0     H 6370  10.046  10.782  10.437 -0.6708 -0.6638 -0.2272
  788MOL0     H 6371  10.146  10.685  10.330  1.3277 -0.1500  0.4610
  788MOL0     H 6372  10.264  10.869  10.489 -2.0939 -1.2393  0.2101
  788MOL0     H 6373  10.200  10.980  10.362 -0.4186 -0.6208 -2.3708
  788MOL0     H 6374  10.312  10.850  10.187  1.0616  1.0773 -0.2126
  788MOL0     H 6375  10.385  10.746  10.306 -0.2700 -0.2875 -0.5724
  788MOL0     H 6376  10.420  11.042  10.283  0.7508 -0.1696 -1.2106
  788MOL0     H 6377  10.529  10.925  10.221 -0.4544  1.9295 -1.5501
  788MOL0     H 6378  10.703  10.919  10.581  0.9699 -0.1423 -1.3331
  788MOL0     H 6379   9.905  10.596  10.241  0.3241 -1.1072 -1.8917
  788MOL0     H 6380   9.667  10.579  10.252  0.2472  0.1218 -0.4508
  789MOL0     O 6381   4.428   2.541   7.946 -0.3119  0.6235  0.0289
  789MOL0     C 6382   4.491   2.643   7.977 -0.3562  0.3493  0.2737
  789MOL0     O 6383   4.429   2.758   8.034 -0.5024  0.8508 -0.4960
  789MOL0     C 6384   4.299   2.748   8.089  1.0912  0.8059 -0.1407
  789MOL0     C 6385   4.248   2.636   8.160  0.6887 -0.8435  0.3678
  789MOL0     C 6386   4.116   2.641   8.213 -0.6972 -0.5138 -0.2927
  789MOL0     C 6387   4.035   2.752   8.193 -0.2183  0.7496 -0.1889
  789MOL0     O 6388   3.908   2.743   8.229  0.3528 -0.6426  0.0743
  789MOL0     C 6389   3.823   2.737   8.107 -0.7556 -0.0810  0.1815
  789MOL0     C 6390   3.682   2.677   8.139 -1.3701 -0.7213 -0.2774
  789MOL0     C 6391   3.562   2.712   8.058 -0.2901 -0.1188 -0.5155
  789MOL0     C 6392   3.460   2.604   8.098 -0.7787 -0.8311  0.0502
  789MOL0     C 6393   3.324   2.612   8.027  0.1624  0.2355  0.4738
  789MOL0     C 6394   3.257   2.749   8.033  0.0160  0.5742  0.3369
  789MOL0     C 6395   3.106   2.751   8.002  0.7289  0.1038 -0.2052
  789MOL0     C 6396   3.029   2.652   8.081  0.2992  0.9526 -0.5834
  789MOL0     N 6397   3.057   2.666   8.227 -0.0419  0.3802  0.6499
  789MOL0     C 6398   3.059   2.779   8.310 -0.6264  0.6677  0.2083
  789MOL0     C 6399   3.134   2.736   8.417  0.1191 -0.1529 -0.1114
  789MOL0     C 6400   3.171   2.809   8.537  0.5617  0.3232 -1.1077
  789MOL0     C 6401   3.179   2.729   8.667  0.1237  0.5065  0.1217
  789MOL0     C 6402   3.165   2.830   8.786  0.6514  0.2202 -0.4289
  789MOL0     C 6403   3.175   2.749   8.911  0.4456  0.0685 -0.3613
  789MOL0     O 6404   3.043   2.699   8.945  0.0294 -0.4739  0.3322
  789MOL0     C 6405   2.932   2.773   8.980  0.7169  0.5777 -0.2133
  789MOL0     C 6406   2.924   2.907   9.018 -0.1450 -0.6485  0.9390
  789MOL0     C 6407   2.811   2.970   9.063  0.4293  0.4032 -0.5867
  789MOL0     C 6408   2.822   3.117   9.101 -0.5767  0.4737  1.0978
  789MOL0     C 6409   2.695   2.884   9.090  0.1443  1.0314  0.1957
  789MOL0     C 6410   2.559   2.932   9.134 -0.3770  0.0176 -0.1372
  789MOL0     O 6411   2.443   2.849   9.110  0.0812  0.2000  0.1410
  789MOL0     C 6412   2.318   2.897   9.116  0.4027  0.0985  0.0529
  789MOL0     C 6413   2.253   2.937   9.238  1.0877  0.2584  0.2342
  789MOL0     C 6414   2.125   2.982   9.236  0.4462 -1.5638  0.6038
  789MOL0     C 6415   2.048   2.976   9.115  0.7970 -0.0398 -1.0481
  789MOL0     O 6416   1.911   3.008   9.106 -0.1193 -0.5094  0.3738
  789MOL0     C 6417   1.834   2.986   9.216 -0.0421 -0.8576 -0.4790
  789MOL0     C 6418   1.686   2.976   9.178 -0.3242 -0.1154  0.1509
  789MOL0     C 6419   1.615   3.104   9.140 -0.2311 -0.0807 -0.4335
  789MOL0     C 6420   1.484   3.059   9.092  0.2662  0.2042  0.3049
  789MOL0     C 6421   1.408   3.193   9.072 -0.1916  0.7318 -0.0500
  789MOL0     C 6422   1.275   3.179   8.998  0.1336  0.1923  0.6800
  789MOL0     C 6423   1.221   3.315   8.942 -0.0610 -0.2348 -0.2174
  789MOL0     C 6424   1.119   3.300   8.834 -0.4951  0.1586  0.3154
  789MOL0    Cl 6425   1.059   3.462   8.786  0.3613 -0.0035 -0.0258
  789MOL0     C 6426   2.114   2.957   8.994 -0.0572 -0.1168 -0.4718
  789MOL0     C 6427   2.244   2.910   8.996  0.3956 -0.3239  0.7748
  789MOL0     O 6428   2.563   3.038   9.187  0.7195  0.5093 -0.0271
  789MOL0     C 6429   2.712   2.750   9.060  0.0064 -0.0642  0.2237
  789MOL0     C 6430   2.821   2.697   8.999 -0.8082 -0.7631 -0.0113
  789MOL0     N 6431   3.176   2.602   8.393 -0.7370 -0.0609 -0.2674
  789MOL0     N 6432   3.126   2.564   8.285  0.2233  0.6151  0.2133
  789MOL0     C 6433   4.085   2.858   8.115  0.5653 -0.5347 -0.0831
  789MOL0     C 6434   4.210   2.856   8.059  0.0871  0.1894  0.6494
  789MOL0     C 6435   4.628   2.657   7.935 -0.3358  0.2667  0.3320
  789MOL0     C 6436   4.712   2.772   7.943 -0.7249  0.1283 -0.1377
  789MOL0     C 6437   4.837   2.776   7.890 -0.2968 -0.0750  0.3168
  789MOL0     C 6438   4.894   2.668   7.836 -0.8656 -0.0894  0.1772
  789MOL0     O 6439   5.023   2.668   7.813  0.6588  0.2519 -0.2528
  789MOL0     C 6440   5.101   2.572   7.889 -1.0303  0.6638  0.1527
  789MOL0     C 6441   5.248   2.573   7.844 -0.1501 -1.0275  0.0554
  789MOL0     C 6442   5.315   2.708   7.857 -0.8812 -0.8912  0.2824
  789MOL0     C 6443   5.397   2.729   7.984  0.5846 -0.4563 -0.6589
  789MOL0     C 6444   5.524   2.652   7.981  0.0745  0.2419 -0.5793
  789MOL0     C 6445   5.620   2.582   7.971 -0.5235 -0.2284  0.3764
  789MOL0     C 6446   4.822   2.546   7.821 -0.3955 -0.2694  0.1316
  789MOL0     C 6447   4.691   2.549   7.863  0.2672 -0.2300  0.0873
  789MOL0     H 6448   4.308   2.546   8.173  1.1470 -0.6631 -0.4560
  789MOL0     H 6449   4.076   2.547   8.253 -0.3314 -1.3713 -1.8658
  789MOL0     H 6450   3.810   2.839   8.069  3.8050  0.8237  0.5010
  789MOL0     H 6451   3.875   2.672   8.036  1.3831  0.6996  0.9363
  789MOL0     H 6452   3.695   2.568   8.139  0.4925 -0.6310  2.9692
  789MOL0     H 6453   3.660   2.705   8.243  0.4496  1.0938 -0.3190
  789MOL0     H 6454   3.531   2.813   8.087  1.9361 -0.2346  2.7944
  789MOL0     H 6455   3.584   2.716   7.951 -2.5805 -2.8494 -1.2123
  789MOL0     H 6456   3.508   2.509   8.077 -2.6300 -2.0001  0.8565
  789MOL0     H 6457   3.438   2.605   8.205 -3.6370 -3.2203 -0.3850
  789MOL0     H 6458   3.329   2.584   7.921 -0.4355 -0.0213  0.5104
  789MOL0     H 6459   3.261   2.540   8.081  2.8448 -1.6162  1.3793
  789MOL0     H 6460   3.270   2.778   8.138  2.1682 -2.3083  0.9941
  789MOL0     H 6461   3.311   2.814   7.963  1.2484  0.1728  0.8911
  789MOL0     H 6462   3.064   2.847   8.033 -0.5147 -0.1661 -0.9720
  789MOL0     H 6463   3.078   2.750   7.896 -0.1551  2.5874 -0.0543
  789MOL0     H 6464   3.057   2.551   8.051  0.2099 -0.1383  2.6306
  789MOL0     H 6465   2.921   2.665   8.070 -0.3129 -2.6476 -0.1510
  789MOL0     H 6466   3.033   2.883   8.291 -0.6072  0.6159 -0.1037
  789MOL0     H 6467   3.266   2.863   8.531 -1.4065  3.9206 -4.2648
  789MOL0     H 6468   3.093   2.883   8.558  0.9162 -0.2196  2.9520
  789MOL0     H 6469   3.279   2.685   8.668 -0.9866 -2.3529 -1.7458
  789MOL0     H 6470   3.102   2.651   8.661  0.7646 -0.0605 -1.2388
  789MOL0     H 6471   3.070   2.885   8.786 -0.3196 -1.3909 -0.7560
  789MOL0     H 6472   3.241   2.908   8.780  0.4934  0.6405  1.9868
  789MOL0     H 6473   3.208   2.812   8.995  1.6813  1.6996 -1.9929
  789MOL0     H 6474   3.246   2.667   8.895 -2.2169 -2.3743 -0.3734
  789MOL0     H 6475   3.019   2.960   9.013 -0.1515 -0.5841  1.3979
  789MOL0     H 6476   2.913   3.161   9.060 -2.2443 -0.1478 -3.9313
  789MOL0     H 6477   2.742   3.187   9.076  0.0923  1.6609  2.2057
  789MOL0     H 6478   2.828   3.121   9.210 -2.7331 -1.0151  1.3363
  789MOL0     H 6479   2.309   2.956   9.329  1.6990  1.3216 -0.3323
  789MOL0     H 6480   2.080   3.023   9.325 -0.0763 -3.1711  1.1131
  789MOL0     H 6481   1.856   2.885   9.251 -1.4765 -0.8866  0.3962
  789MOL0     H 6482   1.855   3.060   9.294  1.4763 -0.8968 -0.8101
  789MOL0     H 6483   1.675   2.897   9.102 -1.3994  0.7769 -0.6581
  789MOL0     H 6484   1.636   2.931   9.263  1.5655 -0.8011  0.9522
  789MOL0     H 6485   1.661   3.165   9.061 -2.6408  1.1545 -0.9573
  789MOL0     H 6486   1.604   3.171   9.226 -2.5038 -1.7893  0.7038
  789MOL0     H 6487   1.493   3.013   8.993  0.9322  1.8378 -0.4283
  789MOL0     H 6488   1.435   3.006   9.174  1.4432  1.0636  1.6086
  789MOL0     H 6489   1.476   3.248   9.007  0.5185  0.2955  0.3100
  789MOL0     H 6490   1.397   3.249   9.166 -0.5946 -0.3698  0.5807
  789MOL0     H 6491   1.289   3.115   8.911  1.8778  1.0751  0.2547
  789MOL0     H 6492   1.207   3.132   9.070  1.6307 -0.1590  1.9189
  789MOL0     H 6493   1.306   3.368   8.897 -1.5181  1.7677 -0.7593
  789MOL0     H 6494   1.185   3.381   9.022 -2.3056 -0.8595 -0.6592
  789MOL0     H 6495   1.040   3.233   8.867 -1.0898 -0.6705 -2.5110
  789MOL0     H 6496   1.156   3.249   8.744  0.6808 -1.2172  1.5312
  789MOL0     H 6497   2.065   2.970   8.898  1.9384 -0.7706 -1.6363
  789MOL0     H 6498   2.284   2.880   8.900 -1.9202  1.6206 -0.8921
  789MOL0     H 6499   2.624   2.688   9.074 -1.8440  2.3172 -0.2415
  789MOL0     H 6500   2.821   2.592   8.973  0.5783 -1.1756  1.4379
  789MOL0     H 6501   4.030   2.945   8.082  0.1403 -0.0929  1.6996
  789MOL0     H 6502   4.241   2.942   8.002  0.6435  0.2528  1.0405
  789MOL0     H 6503   4.673   2.858   7.996  1.7025  1.2162  0.0454
  789MOL0     H 6504   4.891   2.870   7.883  1.6710 -1.2636 -2.5202
  789MOL0     H 6505   5.093   2.606   7.993 -0.0567  0.1786  0.3914
  789MOL0     H 6506   5.058   2.473   7.874 -2.2256  0.5816  3.3846
  789MOL0     H 6507   5.250   2.564   7.735 -0.2249  0.3670 -0.0727
  789MOL0     H 6508   5.304   2.492   7.891 -1.2030 -0.7172  1.9834
  789MOL0     H 6509   5.246   2.793   7.855  0.4724  0.2304 -1.7363
  789MOL0     H 6510   5.391   2.719   7.780  0.1280  0.7316  1.4440
  789MOL0     H 6511   5.329   2.706   8.066  0.3586  2.4581  0.0674
  789MOL0     H 6512   5.415   2.836   7.997  0.9370 -0.7418  1.6993
  789MOL0     H 6513   5.708   2.525   7.950  1.2629  1.8620  1.8560
  789MOL0     H 6514   4.868   2.452   7.792 -0.0963 -0.8011  2.1923
  789MOL0     H 6515   4.623   2.466   7.844  0.0893 -0.4209  1.4569
  790MOL0     O 6516  10.484   3.239   8.201 -0.0737 -0.1177  0.5257
  790MOL0     C 6517  10.604   3.225   8.169  0.3467 -0.9461  0.7160
  790MOL0     O 6518  10.663   3.291   8.057  0.4022 -0.9380  0.2105
  790MOL0     C 6519  10.583   3.364   7.968 -0.5673 -0.4487  0.2938
  790MOL0     C 6520  10.605   3.354   7.829  0.0446 -0.1048 -0.4586
  790MOL0     C 6521  10.542   3.435   7.740 -0.4780 -0.1448  0.2157
  790MOL0     C 6522  10.452   3.531   7.776  0.0220 -1.3660  0.3381
  790MOL0     O 6523  10.381   3.591   7.678  0.0673  0.2163  0.1551
  790MOL0     C 6524  10.310   3.493   7.591  0.1899 -0.1278  0.6206
  790MOL0     C 6525  10.216   3.575   7.499  0.7169 -0.1421 -0.4068
  790MOL0     C 6526  10.087   3.647   7.572 -0.0117  0.8903 -0.2619
  790MOL0     C 6527  10.005   3.548   7.645  0.4207  0.6553  0.5226
  790MOL0     C 6528   9.856   3.589   7.690  0.2594 -0.5889  0.0432
  790MOL0     C 6529   9.777   3.469   7.732  0.2357  0.3512 -0.7019
  790MOL0     C 6530   9.636   3.500   7.760  0.2393  0.1113  1.1219
  790MOL0     C 6531   9.552   3.368   7.799  0.0643  0.3746 -0.6381
  790MOL0     N 6532   9.411   3.381   7.790 -0.3533  0.1655 -0.7885
  790MOL0     C 6533   9.344   3.368   7.669  0.0101  0.4554 -1.0720
  790MOL0     C 6534   9.209   3.357   7.697 -0.0390 -0.0721 -0.3324
  790MOL0     C 6535   9.098   3.377   7.594  0.7467  0.4447  0.5070
  790MOL0     C 6536   8.996   3.494   7.611  0.6024 -0.2630  0.0292
  790MOL0     C 6537   8.907   3.511   7.488  0.2773  0.0791 -0.3951
  790MOL0     C 6538   8.816   3.638   7.486 -0.5828 -1.1255 -0.2992
  790MOL0     O 6539   8.742   3.645   7.363  0.0177 -0.4053  0.1935
  790MOL0     C 6540   8.620   3.592   7.360  0.3961  0.1711  0.6470
  790MOL0     C 6541   8.554   3.602   7.236 -0.2461 -0.3931  0.3607
  790MOL0     C 6542   8.429   3.555   7.215 -0.2784  0.3802 -0.0984
  790MOL0     C 6543   8.370   3.578   7.075 -0.1237 -0.0880  0.5983
  790MOL0     C 6544   8.352   3.492   7.311 -0.0551  0.4372  0.3948
  790MOL0     C 6545   8.207   3.448   7.299 -0.8129  0.1361  0.3562
  790MOL0     O 6546   8.135   3.482   7.185 -0.5645 -0.4656 -0.0519
  790MOL0     C 6547   8.004   3.461   7.175  0.4730  0.2632  0.8375
  790MOL0     C 6548   7.912   3.440   7.271 -1.0569 -0.3588  0.2960
  790MOL0     C 6549   7.774   3.419   7.251  0.0535 -0.5838  0.4936
  790MOL0     C 6550   7.729   3.413   7.121 -0.1471 -0.2522 -0.2616
  790MOL0     O 6551   7.600   3.384   7.090 -0.1262 -0.4133 -0.7122
  790MOL0     C 6552   7.545   3.278   7.162 -0.1565 -0.2761  0.2113
  790MOL0     C 6553   7.426   3.210   7.090 -0.0692  0.4197  0.7897
  790MOL0     C 6554   7.313   3.317   7.078 -0.4619  0.1073  0.5708
  790MOL0     C 6555   7.202   3.264   6.986 -0.2277  0.8916  0.2743
  790MOL0     C 6556   7.093   3.360   6.959  0.0475  0.4191 -0.1221
  790MOL0     C 6557   6.989   3.299   6.867  1.1815 -0.2906  0.0371
  790MOL0     C 6558   6.899   3.398   6.787  0.3504 -0.1370 -0.0829
  790MOL0     C 6559   6.813   3.482   6.869  0.7626  0.0226 -0.0821
  790MOL0    Cl 6560   6.671   3.377   6.924  0.2060  0.0911  0.0856
  790MOL0     C 6561   7.824   3.426   7.021  0.8822 -0.1680  1.0762
  790MOL0     C 6562   7.959   3.444   7.046 -0.2688 -0.2505 -0.3926
  790MOL0     O 6563   8.166   3.374   7.386 -0.0763  0.3116 -0.2525
  790MOL0     C 6564   8.426   3.456   7.427 -0.7981 -0.7208 -0.5212
  790MOL0     C 6565   8.556   3.512   7.452  0.3919 -0.2602 -0.4341
  790MOL0     N 6566   9.202   3.355   7.834  0.1522 -0.2670 -0.4920
  790MOL0     N 6567   9.314   3.375   7.887  0.2131  0.1119 -0.2371
  790MOL0     C 6568  10.433   3.548   7.911  0.8657  0.5630 -0.1239
  790MOL0     C 6569  10.499   3.470   8.008 -0.3268  0.8219 -0.0923
  790MOL0     C 6570  10.698   3.161   8.262  0.0211 -0.5324 -0.1046
  790MOL0     C 6571  10.676   3.152   8.400 -0.0598  0.2818 -0.0523
  790MOL0     C 6572  10.772   3.104   8.487 -0.5195  0.0072 -0.5003
  790MOL0     C 6573  10.893   3.053   8.438 -0.3451 -1.0287  0.1368
  790MOL0     O 6574  10.974   2.970   8.520 -0.1537 -0.6502 -0.2919
  790MOL0     C 6575  10.959   2.977   8.664 -0.1497  1.0992 -0.3549
  790MOL0     C 6576  11.054   2.883   8.734  0.3251  0.4739  0.2185
  790MOL0     C 6577  11.161   2.950   8.821  0.0793 -0.7884 -0.1642
  790MOL0     C 6578  11.294   2.883   8.825 -0.6173 -0.8589 -0.7743
  790MOL0     C 6579  11.366   2.879   8.950  0.1458 -0.2835  0.2343
  790MOL0     C 6580  11.433   2.868   9.049 -0.7642  0.0012  0.4849
  790MOL0     C 6581  10.920   3.054   8.297 -0.2440 -0.9814 -0.1381
  790MOL0     C 6582  10.831   3.122   8.212  0.1514  1.2282  0.6288
  790MOL0     H 6583  10.647   3.268   7.777 -0.8518  0.9198 -3.0698
  790MOL0     H 6584  10.567   3.413   7.637  1.5314 -2.2301  1.0572
  790MOL0     H 6585  10.378   3.440   7.524 -2.6053  1.5351 -4.0201
  790MOL0     H 6586  10.246   3.422   7.644  0.3901 -0.1543  0.8271
  790MOL0     H 6587  10.272   3.651   7.445  0.1515  0.4738 -0.1486
  790MOL0     H 6588  10.176   3.502   7.428  0.2026 -1.9915  1.6793
  790MOL0     H 6589  10.129   3.719   7.642 -0.7945  0.1358  1.0111
  790MOL0     H 6590  10.031   3.696   7.492 -2.3072 -0.8379  0.1769
  790MOL0     H 6591   9.989   3.463   7.578 -0.8106 -0.1562  1.7907
  790MOL0     H 6592  10.061   3.515   7.733 -2.4325 -1.9251  1.5724
  790MOL0     H 6593   9.864   3.659   7.774  2.0120 -0.3800 -0.2508
  790MOL0     H 6594   9.812   3.646   7.608 -0.4408  0.8079  1.3644
  790MOL0     H 6595   9.767   3.406   7.643 -0.6433 -0.1892 -0.2285
  790MOL0     H 6596   9.818   3.424   7.823  0.0415 -0.3261 -0.9420
  790MOL0     H 6597   9.624   3.572   7.841 -0.7243  1.0933  0.1307
  790MOL0     H 6598   9.600   3.534   7.663  2.9492 -0.5446 -0.2056
  790MOL0     H 6599   9.581   3.353   7.903  2.2717 -0.1747 -1.2757
  790MOL0     H 6600   9.581   3.284   7.734 -0.0188  0.9234 -1.3960
  790MOL0     H 6601   9.382   3.370   7.567  0.4395  3.7878 -0.9432
  790MOL0     H 6602   9.127   3.374   7.488 -3.6916  1.3807 -0.9341
  790MOL0     H 6603   9.032   3.292   7.614  0.8432  0.6047  1.5741
  790MOL0     H 6604   9.057   3.582   7.635  1.2705 -1.1191  1.5651
  790MOL0     H 6605   8.927   3.471   7.693 -0.7754 -1.6065 -1.4386
  790MOL0     H 6606   8.844   3.423   7.471  0.7307 -0.3775  0.2048
  790MOL0     H 6607   8.974   3.519   7.402 -0.2966 -0.6652 -0.9307
  790MOL0     H 6608   8.876   3.729   7.496  1.0483 -1.9608 -1.9726
  790MOL0     H 6609   8.747   3.647   7.571 -0.2106 -0.5487 -0.0511
  790MOL0     H 6610   8.603   3.665   7.164  0.6239  0.4650  1.6557
  790MOL0     H 6611   8.314   3.493   7.035 -1.6835  0.6843  1.0376
  790MOL0     H 6612   8.293   3.656   7.075 -0.2002 -0.1490  1.5952
  790MOL0     H 6613   8.448   3.600   7.002  0.3702 -3.6468 -0.1237
  790MOL0     H 6614   7.953   3.442   7.371  1.3808  2.7019 -0.6242
  790MOL0     H 6615   7.702   3.395   7.328  0.7514  0.1853  1.4088
  790MOL0     H 6616   7.611   3.196   7.193 -0.1642  0.1753  1.5068
  790MOL0     H 6617   7.509   3.317   7.258 -0.5776 -1.0517  0.3819
  790MOL0     H 6618   7.458   3.165   6.996 -3.0230  0.2969 -0.2611
  790MOL0     H 6619   7.391   3.134   7.161 -0.3572 -2.4650 -2.1873
  790MOL0     H 6620   7.357   3.399   7.020 -1.0164 -0.3577 -0.5314
  790MOL0     H 6621   7.278   3.337   7.180 -1.2411 -0.6031  0.4482
  790MOL0     H 6622   7.248   3.232   6.892  0.5635  0.5140  0.7763
  790MOL0     H 6623   7.166   3.170   7.028 -0.6629  1.0084  0.1682
  790MOL0     H 6624   7.139   3.448   6.914 -0.5299  1.9045  2.0195
  790MOL0     H 6625   7.044   3.386   7.053 -1.6402  3.4631 -1.6772
  790MOL0     H 6626   7.042   3.248   6.786 -0.7517 -0.9503 -0.8995
  790MOL0     H 6627   6.927   3.227   6.923 -1.1300 -0.9435 -3.0498
  790MOL0     H 6628   6.834   3.358   6.708  0.3294  0.3887 -0.3331
  790MOL0     H 6629   6.976   3.458   6.737  0.7483 -1.1454 -0.7195
  790MOL0     H 6630   6.775   3.564   6.808  1.6746 -0.1991 -0.9589
  790MOL0     H 6631   6.866   3.523   6.955  0.3829 -2.9659  1.7528
  790MOL0     H 6632   7.793   3.414   6.918  0.6469 -0.6662  1.2026
  790MOL0     H 6633   8.026   3.456   6.962  0.1400 -0.8972 -0.1611
  790MOL0     H 6634   8.376   3.396   7.503 -3.3373  0.5830 -1.0562
  790MOL0     H 6635   8.609   3.480   7.541  1.4592  3.8664  0.6486
  790MOL0     H 6636  10.350   3.614   7.932  1.2359  1.5310 -1.5537
  790MOL0     H 6637  10.479   3.497   8.111 -2.6905 -0.2470 -0.1848
  790MOL0     H 6638  10.577   3.165   8.444 -1.2618 -2.4513 -1.6408
  790MOL0     H 6639  10.753   3.104   8.594 -0.2638 -1.0611 -0.4436
  790MOL0     H 6640  10.977   3.078   8.702  1.2361  0.8784 -0.3746
  790MOL0     H 6641  10.855   2.958   8.692 -0.8143  5.2650  0.6305
  790MOL0     H 6642  11.099   2.829   8.650 -1.1139  1.7501 -1.4628
  790MOL0     H 6643  11.000   2.807   8.792  1.1273 -0.8886 -0.7463
  790MOL0     H 6644  11.123   2.952   8.923  2.4782 -0.3868  0.7724
  790MOL0     H 6645  11.175   3.052   8.786  0.5480 -1.0115 -0.6497
  790MOL0     H 6646  11.358   2.926   8.748 -1.6648 -0.9015 -1.6890
  790MOL0     H 6647  11.283   2.778   8.795 -3.7239 -1.0778  0.7136
  790MOL0     H 6648  11.484   2.831   9.136  0.3309  0.7952  0.1983
  790MOL0     H 6649  11.006   3.003   8.256  1.5737  0.8591  1.1754
  790MOL0     H 6650  10.859   3.143   8.110 -0.9597  0.9090  0.2429
  791MOL0     O 6651  10.243   3.131   0.223  0.1572 -0.3273  0.6751
  791MOL0     C 6652  10.356   3.101   0.180  0.2851  0.9318  0.0395
  791MOL0     O 6653  10.389   2.979   0.119 -0.0613 -0.7964 -0.4404
  791MOL0     C 6654  10.285   2.894   0.094  0.3763 -0.3578 -0.3699
  791MOL0     C 6655  10.204   2.829   0.190  0.3524 -0.0519 -0.9993
  791MOL0     C 6656  10.093   2.741   0.158  0.7966 -0.0886  0.3604
  791MOL0     C 6657  10.067   2.717   0.019 -0.5469 -0.7604 -1.0434
  791MOL0     O 6658   9.973   2.620   0.004  0.0418 -0.3235  0.1299
  791MOL0     C 6659   9.959   2.572  -0.129  0.2411 -0.0838  0.6040
  791MOL0     C 6660   9.872   2.445  -0.124 -0.7793  0.0685  0.3248
  791MOL0     C 6661   9.727   2.472  -0.090 -0.0848 -0.1905  0.1394
  791MOL0     C 6662   9.649   2.335  -0.034  0.5170 -0.6560  0.5372
  791MOL0     C 6663   9.490   2.353  -0.028 -0.0512 -0.3135 -0.6160
  791MOL0     C 6664   9.407   2.222  -0.035 -0.5470  0.3412  0.2936
  791MOL0     C 6665   9.259   2.256  -0.004  0.8575 -0.2740 -0.5570
  791MOL0     C 6666   9.178   2.315  -0.118  0.8714  0.8724  0.6765
  791MOL0     N 6667   9.050   2.361  -0.067  0.0713  0.1325 -0.0404
  791MOL0     C 6668   8.943   2.279  -0.038  0.6021  0.1742 -0.2622
  791MOL0     C 6669   8.839   2.355  -0.021 -0.2056  0.6858  0.6884
  791MOL0     C 6670   8.695   2.303  -0.012  0.5929  0.3096 -0.5179
  791MOL0     C 6671   8.607   2.363  -0.119 -0.2279  0.1708 -0.7760
  791MOL0     C 6672   8.459   2.338  -0.086 -0.3468 -0.5228 -0.0220
  791MOL0     C 6673   8.414   2.200  -0.140  0.1894 -0.2302 -0.3553
  791MOL0     O 6674   8.273   2.174  -0.100  0.0920  0.3108 -0.3333
  791MOL0     C 6675   8.173   2.237  -0.158 -0.1482 -0.2349 -0.4351
  791MOL0     C 6676   8.045   2.210  -0.103 -0.1339 -0.2606 -0.4673
  791MOL0     C 6677   7.921   2.259  -0.147 -0.8480 -0.1486  0.2356
  791MOL0     C 6678   7.798   2.222  -0.067 -0.1517 -0.1751  0.4244
  791MOL0     C 6679   7.930   2.336  -0.265 -0.0433 -0.1774  0.3469
  791MOL0     C 6680   7.809   2.395  -0.338  0.5474  0.2368  0.5081
  791MOL0     O 6681   7.826   2.479  -0.447  0.0123  0.6218  0.0369
  791MOL0     C 6682   7.710   2.498  -0.526  0.2838 -0.2049  0.4490
  791MOL0     C 6683   7.627   2.608  -0.508 -0.1155 -0.4549  0.4829
  791MOL0     C 6684   7.506   2.627  -0.572  0.5879  0.5000 -0.4721
  791MOL0     C 6685   7.461   2.535  -0.668 -0.2823  0.2805  0.8086
  791MOL0     O 6686   7.348   2.555  -0.743  0.2802  0.4245 -0.0336
  791MOL0     C 6687   7.263   2.452  -0.800  0.6280  0.3342  0.3202
  791MOL0     C 6688   7.188   2.369  -0.692 -0.2265  0.4474 -0.4235
  791MOL0     C 6689   7.083   2.278  -0.762  0.4996 -0.1216  0.4638
  791MOL0     C 6690   6.955   2.261  -0.670  0.3804  0.4495  0.1374
  791MOL0     C 6691   6.855   2.165  -0.737 -0.5121  0.3866  0.2829
  791MOL0     C 6692   6.726   2.141  -0.661  0.4048  0.3707 -0.0006
  791MOL0     C 6693   6.664   2.011  -0.704 -0.8005 -0.2272  0.3071
  791MOL0     C 6694   6.523   1.993  -0.651 -0.8754  0.0862  0.8836
  791MOL0    Cl 6695   6.485   1.817  -0.665 -0.0647  0.0543  0.0012
  791MOL0     C 6696   7.541   2.420  -0.692  1.0435  0.4662 -0.7417
  791MOL0     C 6697   7.663   2.403  -0.623  0.5096 -0.0517 -0.6317
  791MOL0     O 6698   7.707   2.340  -0.314  1.3471 -0.0137  0.8475
  791MOL0     C 6699   8.062   2.373  -0.321 -0.4770  0.1660 -0.4444
  791MOL0     C 6700   8.182   2.319  -0.274  0.4353  0.2657 -0.3279
  791MOL0     N 6701   8.881   2.490  -0.044  0.2648  0.3511 -0.2053
  791MOL0     N 6702   9.003   2.485  -0.067  0.4979 -0.0410  0.4485
  791MOL0     C 6703  10.161   2.773  -0.079 -0.0047 -0.2496 -0.9472
  791MOL0     C 6704  10.262   2.863  -0.039 -0.0079  0.2201 -0.2231
  791MOL0     C 6705  10.468   3.196   0.199 -0.1151  0.7771  0.0809
  791MOL0     C 6706  10.603   3.168   0.165  0.6141  0.7518 -0.0587
  791MOL0     C 6707  10.703   3.261   0.187  0.5291 -0.1162 -0.8023
  791MOL0     C 6708  10.673   3.388   0.243 -1.3899  0.0919  0.4439
  791MOL0     O 6709  10.767   3.483   0.282  0.0933  0.3887  0.1179
  791MOL0     C 6710  10.891   3.482   0.230 -0.1969 -0.1734  0.0700
  791MOL0     C 6711  10.967   3.603   0.290  0.3069 -0.0577  0.2248
  791MOL0     C 6712  11.017   3.694   0.176 -0.5748 -1.1887 -0.9307
  791MOL0     C 6713  11.062   3.834   0.232 -0.4880  0.1065  0.5385
  791MOL0     C 6714  11.180   3.834   0.324  0.2255 -0.4582  0.1143
  791MOL0     C 6715  11.279   3.847   0.396 -0.2236  0.9795  0.3674
  791MOL0     C 6716  10.541   3.421   0.269 -0.1582  0.4005 -0.4900
  791MOL0     C 6717  10.439   3.329   0.239 -0.5330  0.0793 -0.0728
  791MOL0     H 6718  10.231   2.847   0.294  1.4864 -0.7405 -1.1534
  791MOL0     H 6719  10.036   2.692   0.237  1.9501  1.2604  2.0999
  791MOL0     H 6720   9.908   2.645  -0.192  0.4013 -0.6795 -0.2221
  791MOL0     H 6721  10.061   2.545  -0.160  0.9239  1.5815  1.2332
  791MOL0     H 6722   9.881   2.386  -0.215  0.4225  1.1308 -0.2876
  791MOL0     H 6723   9.916   2.382  -0.047  0.4344  0.8178  0.2736
  791MOL0     H 6724   9.715   2.566  -0.035 -2.9016  0.0732 -0.7352
  791MOL0     H 6725   9.670   2.498  -0.180 -0.3595  2.1123  0.9133
  791MOL0     H 6726   9.655   2.250  -0.103  1.4189 -0.0797 -0.1281
  791MOL0     H 6727   9.696   2.304   0.060 -0.2409  1.2611  1.6125
  791MOL0     H 6728   9.470   2.410   0.064 -1.3378  0.9018 -1.6160
  791MOL0     H 6729   9.469   2.423  -0.109 -0.3298 -1.6863 -1.7760
  791MOL0     H 6730   9.420   2.177  -0.134  0.2686  2.4834 -0.6389
  791MOL0     H 6731   9.446   2.156   0.043 -0.7398 -0.2531 -0.1040
  791MOL0     H 6732   9.203   2.167   0.026 -1.2213  0.8795 -0.9066
  791MOL0     H 6733   9.262   2.322   0.083  0.9183 -0.2524 -0.5753
  791MOL0     H 6734   9.160   2.240  -0.197  0.6034 -0.1522  1.6897
  791MOL0     H 6735   9.225   2.401  -0.167  1.0369  0.1908 -0.4140
  791MOL0     H 6736   8.934   2.171  -0.034 -0.2900  0.2646  1.3650
  791MOL0     H 6737   8.681   2.195  -0.024 -2.9506  0.2100  2.6091
  791MOL0     H 6738   8.658   2.321   0.090 -2.7222 -0.8776 -1.3837
  791MOL0     H 6739   8.642   2.335  -0.219  1.3040 -1.4544  0.1578
  791MOL0     H 6740   8.621   2.471  -0.107 -3.6857  0.8208 -1.2764
  791MOL0     H 6741   8.398   2.418  -0.127 -0.4910 -0.8659 -0.4813
  791MOL0     H 6742   8.427   2.335   0.019 -5.8857 -0.1569 -1.3596
  791MOL0     H 6743   8.483   2.127  -0.097  0.3850 -0.6639 -1.3819
  791MOL0     H 6744   8.439   2.192  -0.246 -0.2493 -1.6607 -0.3629
  791MOL0     H 6745   8.035   2.151  -0.013 -0.3041  0.1527 -0.2117
  791MOL0     H 6746   7.745   2.315  -0.041 -1.2257 -0.8967  0.8704
  791MOL0     H 6747   7.735   2.153  -0.123 -0.0421  0.2727 -0.2684
  791MOL0     H 6748   7.808   2.179   0.033 -1.1611  0.0116  0.6205
  791MOL0     H 6749   7.649   2.680  -0.429 -1.6477  1.3223 -0.6313
  791MOL0     H 6750   7.448   2.713  -0.541 -0.3540 -0.1176 -0.4876
  791MOL0     H 6751   7.179   2.508  -0.841  0.7136 -0.5230 -1.1072
  791MOL0     H 6752   7.320   2.397  -0.876  1.0024  2.5779 -1.1023
  791MOL0     H 6753   7.266   2.318  -0.635 -0.1949  2.6623  1.6544
  791MOL0     H 6754   7.141   2.437  -0.621 -2.2001  1.0407 -2.1919
  791MOL0     H 6755   7.134   2.184  -0.781 -0.2118 -0.6655  1.1826
  791MOL0     H 6756   7.055   2.334  -0.852  0.3960  2.0440  1.7536
  791MOL0     H 6757   6.994   2.217  -0.578  2.5701 -0.5560 -1.1967
  791MOL0     H 6758   6.910   2.360  -0.663  0.6934  0.6978 -1.1728
  791MOL0     H 6759   6.914   2.078  -0.767  0.0189  1.7547 -3.0323
  791MOL0     H 6760   6.825   2.192  -0.838  3.3326  2.8738 -0.4216
  791MOL0     H 6761   6.741   2.163  -0.555 -3.3199  1.9831  0.3523
  791MOL0     H 6762   6.653   2.217  -0.691 -0.8803 -1.6513 -2.4340
  791MOL0     H 6763   6.725   1.926  -0.672  0.8015  0.9010  0.3596
  791MOL0     H 6764   6.656   2.003  -0.813  0.2996 -0.3826  0.2183
  791MOL0     H 6765   6.446   2.049  -0.705 -1.2245 -1.4660 -0.3089
  791MOL0     H 6766   6.523   2.026  -0.547  2.7046  0.1827  0.9897
  791MOL0     H 6767   7.511   2.342  -0.760  1.8323 -1.6149  1.1813
  791MOL0     H 6768   7.723   2.314  -0.633  1.7428  0.7035 -0.0999
  791MOL0     H 6769   8.074   2.435  -0.410  2.1179 -0.5433 -0.6728
  791MOL0     H 6770   8.267   2.318  -0.341 -1.0444 -0.9101 -2.3039
  791MOL0     H 6771  10.154   2.753  -0.185  1.5230 -2.2979 -0.7273
  791MOL0     H 6772  10.328   2.904  -0.115 -1.6957  1.1590 -1.2596
  791MOL0     H 6773  10.638   3.076   0.118 -0.8130  0.3285 -0.3580
  791MOL0     H 6774  10.799   3.216   0.162  1.0727  1.5172 -1.7869
  791MOL0     H 6775  10.947   3.389   0.246  0.6376  0.4999  1.3065
  791MOL0     H 6776  10.865   3.492   0.125 -0.5510 -0.3070  0.1440
  791MOL0     H 6777  11.057   3.569   0.342 -1.3120 -1.5512  2.1565
  791MOL0     H 6778  10.912   3.666   0.359  2.6654  0.0313  2.1603
  791MOL0     H 6779  10.936   3.713   0.105 -0.5208 -0.2780 -0.7537
  791MOL0     H 6780  11.100   3.638   0.131  0.0073 -0.1332 -1.1996
  791MOL0     H 6781  10.974   3.879   0.280 -0.5495  1.4126 -0.7066
  791MOL0     H 6782  11.076   3.907   0.151  0.6316  0.7058  1.2375
  791MOL0     H 6783  11.361   3.846   0.464 -0.0294  0.4342  0.1325
  791MOL0     H 6784  10.522   3.518   0.313 -3.0709 -0.8903  1.4656
  791MOL0     H 6785  10.335   3.350   0.263 -1.3278 -4.1266  1.0573
  792MOL0     O 6786  10.402   0.626   7.042 -0.2059 -0.0160 -0.1891
  792MOL0     C 6787  10.468   0.649   6.945 -1.1750  0.6524 -0.2616
  792MOL0     O 6788  10.421   0.653   6.815  0.2034 -0.4362  0.7325
  792MOL0     C 6789  10.288   0.628   6.781  0.1094 -0.2594 -0.3530
  792MOL0     C 6790  10.216   0.523   6.836 -0.2904 -0.1597 -0.2459
  792MOL0     C 6791  10.082   0.500   6.802 -0.8801  0.5130 -0.2193
  792MOL0     C 6792  10.021   0.590   6.706  0.2842  0.6073  0.0127
  792MOL0     O 6793   9.893   0.576   6.671  0.1340 -0.6101  0.6353
  792MOL0     C 6794   9.824   0.455   6.709  0.4417 -1.0774  0.2781
  792MOL0     C 6795   9.692   0.444   6.627 -0.1056  0.7605 -0.2844
  792MOL0     C 6796   9.571   0.380   6.705  0.7107  0.7281 -0.0115
  792MOL0     C 6797   9.437   0.427   6.635  0.2190  0.2286  0.0464
  792MOL0     C 6798   9.328   0.378   6.728 -0.7452 -0.1482  0.3948
  792MOL0     C 6799   9.194   0.436   6.684 -0.1528  0.0593 -0.4902
  792MOL0     C 6800   9.171   0.398   6.540  0.4761 -0.1725  0.3542
  792MOL0     C 6801   9.156   0.244   6.513 -0.0133 -0.2567  0.0081
  792MOL0     N 6802   9.090   0.214   6.386 -0.4749  0.4231  0.1834
  792MOL0     C 6803   8.961   0.164   6.386  0.0319  0.9607  0.1389
  792MOL0     C 6804   8.948   0.111   6.252 -0.9346 -0.1896 -1.1651
  792MOL0     C 6805   8.829   0.033   6.205 -0.2804  0.2925 -0.2196
  792MOL0     C 6806   8.702   0.118   6.175  0.1736 -0.1710  0.3329
  792MOL0     C 6807   8.651   0.203   6.294 -0.2209  0.1401 -0.1929
  792MOL0     C 6808   8.507   0.242   6.263  0.7321  0.2511  0.2420
  792MOL0     O 6809   8.495   0.328   6.147  0.0760  0.2486  0.4085
  792MOL0     C 6810   8.373   0.354   6.096  0.0862 -0.1486  0.3238
  792MOL0     C 6811   8.249   0.296   6.145  0.2831  0.0717 -0.1786
  792MOL0     C 6812   8.126   0.311   6.080  0.3265 -0.2140  1.7332
  792MOL0     C 6813   8.008   0.256   6.152 -0.6756 -0.7827 -0.3579
  792MOL0     C 6814   8.121   0.391   5.961  0.2907  1.2231 -0.4766
  792MOL0     C 6815   7.998   0.405   5.885  0.2127 -0.4236 -0.7255
  792MOL0     O 6816   7.888   0.439   5.957  0.8143  0.1568  0.4696
  792MOL0     C 6817   7.758   0.448   5.921  0.1108  0.1013 -0.5191
  792MOL0     C 6818   7.710   0.421   5.798 -1.0722  0.2054 -0.2135
  792MOL0     C 6819   7.580   0.451   5.758  0.6872 -0.5325  0.9616
  792MOL0     C 6820   7.484   0.494   5.846  1.2674  0.2308 -0.6548
  792MOL0     O 6821   7.358   0.497   5.806  0.6427 -0.4112 -0.1867
  792MOL0     C 6822   7.255   0.502   5.905 -0.8429 -1.2011 -0.3460
  792MOL0     C 6823   7.118   0.520   5.836  0.0552  1.1438 -0.2555
  792MOL0     C 6824   7.087   0.402   5.746 -0.2965 -0.5902  0.2839
  792MOL0     C 6825   6.957   0.417   5.668 -0.3881  0.2551  0.0441
  792MOL0     C 6826   6.937   0.327   5.547  0.0448 -0.5467 -1.0035
  792MOL0     C 6827   6.820   0.360   5.457 -0.4231  0.1221 -0.7625
  792MOL0     C 6828   6.682   0.353   5.515  0.6395  0.2036  1.0538
  792MOL0     C 6829   6.577   0.374   5.402 -0.5872  0.2156  0.4411
  792MOL0    Cl 6830   6.412   0.363   5.467  0.1373 -0.2121  0.4147
  792MOL0     C 6831   7.527   0.510   5.983  0.1662 -0.1701 -1.7255
  792MOL0     C 6832   7.661   0.482   6.015 -0.0377 -0.2900 -0.8036
  792MOL0     O 6833   8.006   0.386   5.763 -0.2018  0.5097  0.7618
  792MOL0     C 6834   8.243   0.445   5.909 -0.0706  0.1764  0.9683
  792MOL0     C 6835   8.367   0.432   5.977  0.8470  0.0841 -0.1454
  792MOL0     N 6836   9.059   0.140   6.186  0.2476 -0.2505 -0.3271
  792MOL0     N 6837   9.147   0.197   6.266  0.4215  0.5451 -0.0220
  792MOL0     C 6838  10.101   0.692   6.655  0.1440 -0.4722  0.0159
  792MOL0     C 6839  10.229   0.708   6.686  0.6915  0.7520 -0.6353
  792MOL0     C 6840  10.607   0.674   6.962 -0.8671 -1.0852  0.2794
  792MOL0     C 6841  10.680   0.766   6.870 -0.0415  0.2086  0.4498
  792MOL0     C 6842  10.812   0.780   6.869 -0.2692 -0.5165 -1.0322
  792MOL0     C 6843  10.884   0.707   6.972  0.8787 -0.1551 -0.0858
  792MOL0     O 6844  11.020   0.720   6.983  0.0662  0.0633 -0.4182
  792MOL0     C 6845  11.098   0.788   6.875  0.7568 -0.0306 -0.7795
  792MOL0     C 6846  11.240   0.792   6.928 -0.2633  0.5898  0.3791
  792MOL0     C 6847  11.306   0.663   6.994 -0.2992  0.2081  0.0000
  792MOL0     C 6848  11.430   0.700   7.069 -1.0142 -0.2649 -0.2334
  792MOL0     C 6849  11.391   0.783   7.189 -0.0380  0.4336 -0.0918
  792MOL0     C 6850  11.363   0.853   7.285  0.1434  0.7015 -0.0672
  792MOL0     C 6851  10.820   0.629   7.066 -0.3579  0.7749 -0.0736
  792MOL0     C 6852  10.686   0.611   7.070 -0.3074  0.1282  0.3116
  792MOL0     H 6853  10.259   0.462   6.915  0.3469 -0.6892 -0.9866
  792MOL0     H 6854  10.037   0.418   6.857  1.5097 -0.6502  0.1095
  792MOL0     H 6855   9.885   0.365   6.694  0.1275 -1.1757 -0.4476
  792MOL0     H 6856   9.789   0.465   6.813 -1.4350 -1.2677 -0.3036
  792MOL0     H 6857   9.670   0.542   6.581  0.1178  1.9685  2.0417
  792MOL0     H 6858   9.704   0.384   6.536  1.4573  1.9087 -0.8874
  792MOL0     H 6859   9.582   0.274   6.684  3.8885  1.2326 -1.4297
  792MOL0     H 6860   9.570   0.396   6.813 -2.6700 -1.4981  0.4119
  792MOL0     H 6861   9.434   0.536   6.644 -0.4811  0.2002  0.2538
  792MOL0     H 6862   9.422   0.391   6.532 -2.4533  0.6244  0.2321
  792MOL0     H 6863   9.328   0.268   6.724 -2.1728 -0.2683  2.2869
  792MOL0     H 6864   9.338   0.392   6.836 -1.0468 -0.5441  0.4794
  792MOL0     H 6865   9.111   0.396   6.742 -1.0213  0.9339 -1.1005
  792MOL0     H 6866   9.190   0.543   6.706 -1.5906 -0.7615  4.2344
  792MOL0     H 6867   9.076   0.448   6.521  0.5943 -0.3951 -0.9047
  792MOL0     H 6868   9.242   0.445   6.471 -0.1031  1.2000  0.6711
  792MOL0     H 6869   9.098   0.203   6.596  0.4609 -1.8206 -0.4002
  792MOL0     H 6870   9.258   0.205   6.513  1.3706  2.9490  1.7709
  792MOL0     H 6871   8.887   0.152   6.464 -0.1733 -0.7097 -0.2818
  792MOL0     H 6872   8.870  -0.019   6.117  0.7869  0.4827  0.1579
  792MOL0     H 6873   8.806  -0.041   6.281  0.5456  0.9870  0.7265
  792MOL0     H 6874   8.621   0.046   6.159  0.1765 -0.3726  1.1645
  792MOL0     H 6875   8.716   0.182   6.088 -1.0351  0.1661  0.3712
  792MOL0     H 6876   8.725   0.283   6.304 -0.6510  0.3841  1.1896
  792MOL0     H 6877   8.656   0.151   6.390  2.7009  0.8400  0.1221
  792MOL0     H 6878   8.471   0.286   6.356  1.6254 -2.0393  1.7492
  792MOL0     H 6879   8.450   0.149   6.258  0.7425  0.0325  2.7958
  792MOL0     H 6880   8.243   0.225   6.227 -0.7539  0.2428 -0.0876
  792MOL0     H 6881   7.943   0.337   6.186 -0.6226 -0.5848 -0.7261
  792MOL0     H 6882   7.947   0.208   6.075  0.5368  0.9373 -2.4692
  792MOL0     H 6883   8.044   0.208   6.244  3.0956  1.7762 -0.2699
  792MOL0     H 6884   7.769   0.376   5.719  0.4123 -1.4060  1.7470
  792MOL0     H 6885   7.559   0.435   5.653 -0.5203 -1.0173  1.2605
  792MOL0     H 6886   7.258   0.405   5.955  1.3783 -1.8723 -1.6378
  792MOL0     H 6887   7.262   0.583   5.978  0.3971 -1.9367  0.3794
  792MOL0     H 6888   7.054   0.525   5.925 -0.6511 -0.7013 -0.5923
  792MOL0     H 6889   7.114   0.614   5.781 -0.2924  0.9810 -0.5217
  792MOL0     H 6890   7.076   0.312   5.807  0.1096  0.0198  1.2901
  792MOL0     H 6891   7.166   0.388   5.672 -0.5159 -1.4434  0.2079
  792MOL0     H 6892   6.874   0.419   5.739 -1.1819  0.4973 -0.8757
  792MOL0     H 6893   6.958   0.518   5.624  1.3647  1.3565  2.3413
  792MOL0     H 6894   6.929   0.227   5.592  3.0893 -0.1597  0.5976
  792MOL0     H 6895   7.033   0.323   5.494  0.5886 -2.2270  0.0256
  792MOL0     H 6896   6.832   0.464   5.427 -0.5470  0.7623  1.2654
  792MOL0     H 6897   6.831   0.302   5.365  2.1518  0.4669 -0.7341
  792MOL0     H 6898   6.665   0.438   5.583 -2.7476  3.8758 -3.6072
  792MOL0     H 6899   6.677   0.257   5.567  1.5496 -1.5824 -1.9207
  792MOL0     H 6900   6.595   0.299   5.324 -1.0779 -1.8004  2.1551
  792MOL0     H 6901   6.588   0.470   5.351 -1.0189  0.0146 -0.0465
  792MOL0     H 6902   7.462   0.537   6.066  0.8493 -1.9426 -0.5388
  792MOL0     H 6903   7.697   0.499   6.116  0.9337 -2.8859 -0.6555
  792MOL0     H 6904   8.240   0.502   5.817  0.3324  1.3864  1.6795
  792MOL0     H 6905   8.458   0.469   5.933  0.5340 -0.2066 -1.0518
  792MOL0     H 6906  10.052   0.759   6.584 -0.9768 -0.4509  0.7769
  792MOL0     H 6907  10.286   0.788   6.639  0.7781  2.6985  2.5109
  792MOL0     H 6908  10.624   0.810   6.788  0.2372 -1.4914 -0.7126
  792MOL0     H 6909  10.846   0.844   6.788  2.2038  0.4488  0.6564
  792MOL0     H 6910  11.083   0.733   6.782 -1.5171 -1.4064  0.3229
  792MOL0     H 6911  11.067   0.893   6.869  1.5777  0.4528  1.9189
  792MOL0     H 6912  11.231   0.872   7.003  2.2569  1.1103  0.2270
  792MOL0     H 6913  11.313   0.824   6.853  0.4239  1.6319  1.4483
  792MOL0     H 6914  11.337   0.601   6.910  0.9101  1.3934 -0.4712
  792MOL0     H 6915  11.229   0.610   7.050 -0.7391  0.1544 -0.6414
  792MOL0     H 6916  11.497   0.766   7.015  0.7458  0.7063  2.8880
  792MOL0     H 6917  11.497   0.613   7.078  0.7130  0.6434 -3.0142
  792MOL0     H 6918  11.339   0.929   7.357 -0.2865  1.6291 -1.1502
  792MOL0     H 6919  10.884   0.577   7.137  1.9412  2.7405 -0.5580
  792MOL0     H 6920  10.646   0.553   7.153 -1.5416  2.1547  1.2135
  793MOL0     O 6921   0.499   5.009   4.067  0.0456  0.4184 -0.6883
  793MOL0     C 6922   0.559   4.965   3.970  0.0561 -0.9062 -0.8921
  793MOL0     O 6923   0.510   4.870   3.881 -0.1595 -0.4332 -0.3366
  793MOL0     C 6924   0.386   4.816   3.911  0.1931  0.4365 -0.2832
  793MOL0     C 6925   0.356   4.725   4.009  0.0445  0.1727 -0.5040
  793MOL0     C 6926   0.230   4.682   4.044  0.5784 -0.1435  0.1103
  793MOL0     C 6927   0.119   4.726   3.966 -0.0165 -0.9885 -0.2217
  793MOL0     O 6928  -0.013   4.685   3.979 -0.1103 -0.2942  0.2903
  793MOL0     C 6929  -0.041   4.563   4.042 -0.2036 -0.2300 -0.3410
  793MOL0     C 6930  -0.191   4.522   4.028 -0.6562  0.6971  0.3920
  793MOL0     C 6931  -0.221   4.461   3.895 -0.4034  0.5338 -0.8931
  793MOL0     C 6932  -0.370   4.440   3.877  0.1851  0.2542 -0.1493
  793MOL0     C 6933  -0.402   4.360   3.755 -0.0437  0.0681  0.2184
  793MOL0     C 6934  -0.545   4.356   3.712  0.0832  0.6557  0.2280
  793MOL0     C 6935  -0.641   4.311   3.813  0.8520  0.7122  0.0904
  793MOL0     C 6936  -0.785   4.287   3.754 -0.0957 -0.1287 -0.1190
  793MOL0     N 6937  -0.814   4.136   3.731  0.2795 -0.5259 -0.1959
  793MOL0     C 6938  -0.745   4.038   3.657  0.7485 -0.6711  0.1344
  793MOL0     C 6939  -0.821   3.925   3.678  0.2596 -0.5522 -0.0276
  793MOL0     C 6940  -0.785   3.792   3.634 -0.3628 -0.5388  0.4870
  793MOL0     C 6941  -0.908   3.704   3.601  0.6139  0.1756 -0.0154
  793MOL0     C 6942  -1.003   3.756   3.496 -0.4066  0.3154  0.1590
  793MOL0     C 6943  -1.100   3.658   3.448  0.4551  0.7512  0.3703
  793MOL0     O 6944  -1.035   3.528   3.420  0.6926 -0.3250  0.1869
  793MOL0     C 6945  -1.125   3.448   3.350 -0.0411  0.4821  0.6931
  793MOL0     C 6946  -1.138   3.450   3.212 -0.5712  0.4836 -0.0554
  793MOL0     C 6947  -1.239   3.377   3.153 -0.0874  0.0881  0.5284
  793MOL0     C 6948  -1.256   3.404   3.004 -0.4571 -0.1835 -0.4725
  793MOL0     C 6949  -1.314   3.282   3.231  0.4397  0.8823  0.6574
  793MOL0     C 6950  -1.416   3.198   3.168  0.7073 -0.6519 -0.0321
  793MOL0     O 6951  -1.424   3.191   3.032 -0.0982 -0.3665 -0.0034
  793MOL0     C 6952  -1.533   3.133   2.980 -0.2977 -0.7017 -0.4360
  793MOL0     C 6953  -1.665   3.173   3.005  0.5776 -0.1381 -0.1989
  793MOL0     C 6954  -1.766   3.118   2.924  0.1020  0.1917  0.1113
  793MOL0     C 6955  -1.740   2.998   2.843 -0.9659  0.3345  0.2465
  793MOL0     O 6956  -1.851   2.961   2.784 -0.2119 -0.3506 -0.6449
  793MOL0     C 6957  -1.833   2.879   2.664 -0.0135  0.1271 -0.2770
  793MOL0     C 6958  -1.953   2.882   2.580  0.1484 -1.1820  0.2470
  793MOL0     C 6959  -1.938   2.803   2.451  0.7093 -0.0666  0.0580
  793MOL0     C 6960  -2.071   2.790   2.373 -1.4335 -0.3214  0.0090
  793MOL0     C 6961  -2.140   2.651   2.391  0.7347  0.2113 -0.0525
  793MOL0     C 6962  -2.257   2.634   2.301  0.0619 -0.3149  0.6148
  793MOL0     C 6963  -2.342   2.516   2.330  0.5077  0.5257  1.0443
  793MOL0     C 6964  -2.296   2.395   2.256  0.1475 -0.0497  0.3265
  793MOL0    Cl 6965  -2.368   2.245   2.326 -0.2652 -0.0817  0.2641
  793MOL0     C 6966  -1.609   2.945   2.840  0.4415  0.3492  0.2270
  793MOL0     C 6967  -1.507   3.014   2.912 -0.1018  0.5368 -0.0370
  793MOL0     O 6968  -1.491   3.133   3.244  0.3468  1.1067  0.3979
  793MOL0     C 6969  -1.300   3.278   3.377  0.2851 -0.2993 -0.4994
  793MOL0     C 6970  -1.205   3.363   3.431  0.5823  0.0011 -0.1413
  793MOL0     N 6971  -0.935   3.966   3.748  0.9087 -0.4118 -0.7522
  793MOL0     N 6972  -0.928   4.087   3.785  0.0545 -0.2180 -0.0036
  793MOL0     C 6973   0.150   4.827   3.869  0.0098 -0.1020 -0.3062
  793MOL0     C 6974   0.278   4.869   3.836  0.3589  0.6134 -0.0416
  793MOL0     C 6975   0.700   5.019   3.940 -0.0174 -0.9469 -0.1569
  793MOL0     C 6976   0.781   4.960   3.849  0.3117  0.1192 -1.1614
  793MOL0     C 6977   0.914   4.998   3.834 -0.2755 -0.2439 -0.2340
  793MOL0     C 6978   0.970   5.110   3.911 -0.0545  0.3953  1.2847
  793MOL0     O 6979   1.100   5.165   3.907 -0.1102 -0.2371  0.6636
  793MOL0     C 6980   1.183   5.132   3.797 -0.4391 -0.0760 -0.0568
  793MOL0     C 6981   1.322   5.184   3.827  0.1754 -0.0683 -1.0548
  793MOL0     C 6982   1.419   5.212   3.721  0.6463  1.0792  0.5239
  793MOL0     C 6983   1.538   5.286   3.772  0.2569  0.3935 -0.3173
  793MOL0     C 6984   1.637   5.193   3.838  0.3147  0.1040 -0.1340
  793MOL0     C 6985   1.745   5.164   3.888  0.3639  0.0262  0.1455
  793MOL0     C 6986   0.887   5.162   4.001  0.9811 -0.1484  0.1957
  793MOL0     C 6987   0.751   5.130   4.010  0.1400  0.0035  0.0500
  793MOL0     H 6988   0.440   4.690   4.068 -1.1982  1.7575  2.4199
  793MOL0     H 6989   0.208   4.612   4.124  2.7701 -1.3336 -0.2388
  793MOL0     H 6990   0.015   4.479   4.000  1.7168  0.8888 -0.1117
  793MOL0     H 6991  -0.001   4.590   4.140  2.8305  0.7541 -1.7258
  793MOL0     H 6992  -0.221   4.453   4.108 -1.7686  0.2016 -0.4196
  793MOL0     H 6993  -0.249   4.615   4.035 -1.2293  0.4598 -0.9623
  793MOL0     H 6994  -0.196   4.532   3.816 -4.7392  2.4606 -0.8429
  793MOL0     H 6995  -0.184   4.360   3.877 -2.6849 -0.6313  0.3903
  793MOL0     H 6996  -0.418   4.396   3.965 -3.1077 -0.2424 -2.0327
  793MOL0     H 6997  -0.418   4.537   3.864 -1.4250 -0.3893  0.6264
  793MOL0     H 6998  -0.339   4.390   3.671  1.0043 -1.2702  0.5019
  793MOL0     H 6999  -0.375   4.255   3.773 -1.0385 -0.4745 -1.2416
  793MOL0     H 7000  -0.568   4.453   3.668  1.8778 -0.0032 -2.4684
  793MOL0     H 7001  -0.534   4.283   3.631 -0.9070  0.4663  0.2514
  793MOL0     H 7002  -0.608   4.216   3.857  1.8064  1.5528  1.2369
  793MOL0     H 7003  -0.641   4.388   3.890  0.5909  3.0573 -2.1150
  793MOL0     H 7004  -0.808   4.333   3.657  1.4272  0.3111 -0.2931
  793MOL0     H 7005  -0.860   4.328   3.822 -1.2634 -0.2894 -1.2648
  793MOL0     H 7006  -0.651   4.055   3.605  0.7252 -1.3648 -0.1449
  793MOL0     H 7007  -0.728   3.810   3.542 -3.4947  1.8397 -1.1800
  793MOL0     H 7008  -0.729   3.762   3.723 -0.0556  1.2536  0.9273
  793MOL0     H 7009  -0.970   3.709   3.691 -0.2352  0.6871 -0.6088
  793MOL0     H 7010  -0.879   3.602   3.576  1.5652  0.5459 -0.4625
  793MOL0     H 7011  -0.935   3.765   3.410 -2.1845 -0.1730 -1.3440
  793MOL0     H 7012  -1.046   3.853   3.522  2.5345  1.4804  1.1776
  793MOL0     H 7013  -1.134   3.708   3.358  0.7627  0.0203 -0.1644
  793MOL0     H 7014  -1.188   3.648   3.513 -1.5654 -1.5612 -2.4541
  793MOL0     H 7015  -1.090   3.529   3.154 -1.1063  0.5846 -0.3695
  793MOL0     H 7016  -1.205   3.498   2.980  3.0647 -2.5586 -3.1365
  793MOL0     H 7017  -1.211   3.328   2.940  2.3055  1.0647 -0.1356
  793MOL0     H 7018  -1.363   3.417   2.983 -0.5206 -0.8222 -0.5556
  793MOL0     H 7019  -1.681   3.254   3.075  3.6194 -0.8185  1.4771
  793MOL0     H 7020  -1.860   3.167   2.944 -0.2466  0.0063 -1.0234
  793MOL0     H 7021  -1.749   2.911   2.603  1.8623  1.0931  2.6452
  793MOL0     H 7022  -1.814   2.781   2.708 -3.0346 -0.9230 -1.0575
  793MOL0     H 7023  -2.042   2.849   2.634 -4.0424  1.9382 -3.9165
  793MOL0     H 7024  -1.975   2.987   2.559  1.3470 -1.3232 -2.0229
  793MOL0     H 7025  -1.882   2.711   2.466 -0.0262 -0.2442  2.0232
  793MOL0     H 7026  -1.872   2.858   2.383 -3.7766  0.2051 -4.6522
  793MOL0     H 7027  -2.140   2.860   2.420 -2.3145 -1.9293  1.2276
  793MOL0     H 7028  -2.059   2.812   2.267 -2.4415  1.3986  0.2212
  793MOL0     H 7029  -2.174   2.655   2.495 -2.0865  1.8039 -0.9209
  793MOL0     H 7030  -2.072   2.566   2.386  2.5113  1.5705 -0.0327
  793MOL0     H 7031  -2.321   2.720   2.321  1.1165  0.8502 -0.7840
  793MOL0     H 7032  -2.233   2.642   2.194  0.3247  2.7626  0.8315
  793MOL0     H 7033  -2.448   2.528   2.305  0.4630 -2.4555 -0.8394
  793MOL0     H 7034  -2.341   2.499   2.438  2.7639 -1.7675  0.7661
  793MOL0     H 7035  -2.190   2.379   2.273  0.5214  0.5655 -1.2329
  793MOL0     H 7036  -2.322   2.404   2.150 -0.8227 -0.7916  0.4866
  793MOL0     H 7037  -1.571   2.861   2.782  0.7033 -1.5624  2.9799
  793MOL0     H 7038  -1.406   2.976   2.894  0.4358  0.4362  2.7971
  793MOL0     H 7039  -1.358   3.215   3.444  2.3270  1.0344  2.7970
  793MOL0     H 7040  -1.180   3.357   3.537 -0.4741 -2.2277  0.0546
  793MOL0     H 7041   0.069   4.855   3.803 -1.2717 -2.6938  0.0357
  793MOL0     H 7042   0.284   4.941   3.755  1.2849  0.2358 -0.3188
  793MOL0     H 7043   0.736   4.883   3.787 -1.4252 -0.1441  0.3649
  793MOL0     H 7044   0.972   4.946   3.759 -3.3104 -1.8413 -1.6715
  793MOL0     H 7045   1.190   5.025   3.775  2.7742  0.0605 -0.1375
  793MOL0     H 7046   1.150   5.186   3.708 -1.3564 -1.8746 -0.8646
  793MOL0     H 7047   1.363   5.118   3.905  0.0947  1.5876  0.4654
  793MOL0     H 7048   1.316   5.272   3.892  2.1403 -0.9684  0.4626
  793MOL0     H 7049   1.366   5.274   3.648 -1.1327 -1.0540 -0.1145
  793MOL0     H 7050   1.454   5.118   3.678 -0.0195  1.0944 -0.0673
  793MOL0     H 7051   1.496   5.357   3.844 -0.3681  0.0064 -0.2950
  793MOL0     H 7052   1.583   5.340   3.688 -0.1771  0.1453 -0.7129
  793MOL0     H 7053   1.834   5.128   3.935 -0.0944 -1.4244 -0.0453
  793MOL0     H 7054   0.926   5.249   4.052 -1.9266  2.6852 -2.0024
  793MOL0     H 7055   0.685   5.192   4.070 -0.2434 -0.6251  0.2829
  794MOL0     O 7056   7.082   8.838   4.868 -0.7043 -0.2121 -0.2270
  794MOL0     C 7057   7.108   8.921   4.779  0.0704  0.3025  0.4037
  794MOL0     O 7058   7.025   8.951   4.676  0.5688 -0.4169 -0.3912
  794MOL0     C 7059   6.898   8.901   4.694  0.2094  0.0483 -0.5129
  794MOL0     C 7060   6.804   8.972   4.771 -0.0821  0.3852  0.4469
  794MOL0     C 7061   6.673   8.917   4.793 -0.4092 -0.5450 -0.4246
  794MOL0     C 7062   6.638   8.792   4.740  0.6402 -0.6626 -0.8935
  794MOL0     O 7063   6.520   8.729   4.769 -0.0808 -0.1158 -0.4651
  794MOL0     C 7064   6.457   8.755   4.900  0.0699 -0.5032 -0.2129
  794MOL0     C 7065   6.389   8.634   4.953 -1.0362 -0.0424  0.4722
  794MOL0     C 7066   6.285   8.570   4.864 -0.3848  1.4382  0.1979
  794MOL0     C 7067   6.167   8.672   4.859 -0.1782  0.2325 -1.0721
  794MOL0     C 7068   6.053   8.593   4.785 -0.0927 -0.0631 -0.3951
  794MOL0     C 7069   5.921   8.668   4.790 -0.2182  0.4943 -0.2174
  794MOL0     C 7070   5.808   8.558   4.759 -0.7348 -0.5557 -0.0251
  794MOL0     C 7071   5.689   8.644   4.776 -0.2881 -0.0646 -0.3720
  794MOL0     N 7072   5.574   8.555   4.755  0.2951  0.8675  0.0325
  794MOL0     C 7073   5.470   8.581   4.671 -0.2178  0.6227 -0.2066
  794MOL0     C 7074   5.368   8.495   4.696  0.5255  0.1619 -0.4486
  794MOL0     C 7075   5.231   8.503   4.634 -0.5343  0.3603  0.1896
  794MOL0     C 7076   5.131   8.573   4.734 -0.1399 -0.2642 -0.6196
  794MOL0     C 7077   4.999   8.594   4.662  0.3936  0.3990 -0.3057
  794MOL0     C 7078   4.900   8.676   4.742 -0.7277  0.3807 -0.2104
  794MOL0     O 7079   4.847   8.594   4.845  0.0333 -0.1878  0.2276
  794MOL0     C 7080   4.743   8.648   4.910  0.2229 -0.2491  0.4223
  794MOL0     C 7081   4.755   8.776   4.976  0.8112  0.2010 -0.5421
  794MOL0     C 7082   4.654   8.829   5.050  0.5323 -0.7970  0.5470
  794MOL0     C 7083   4.693   8.951   5.128  0.2410  0.7667 -1.1321
  794MOL0     C 7084   4.529   8.771   5.048  0.0242  0.2346  0.5894
  794MOL0     C 7085   4.410   8.835   5.087  0.7718  0.6909 -0.0022
  794MOL0     O 7086   4.308   8.753   5.134 -0.0453  0.5346 -0.2734
  794MOL0     C 7087   4.191   8.808   5.174 -0.1060 -0.4579  0.6313
  794MOL0     C 7088   4.070   8.769   5.112 -0.2359  0.4266  0.5612
  794MOL0     C 7089   3.949   8.821   5.167 -0.0034  0.3286  0.1205
  794MOL0     C 7090   3.939   8.909   5.279  0.4823  0.5260 -0.0620
  794MOL0     O 7091   3.828   8.965   5.343 -0.3315  0.0662 -0.3109
  794MOL0     C 7092   3.696   8.947   5.309 -0.3119  0.0075 -0.0939
  794MOL0     C 7093   3.593   8.997   5.419  0.3744 -0.0715 -0.0528
  794MOL0     C 7094   3.447   8.981   5.367  0.0015 -0.3223  0.2859
  794MOL0     C 7095   3.354   9.050   5.464 -0.1757  0.9175  0.3401
  794MOL0     C 7096   3.209   9.011   5.434 -0.0453  0.1820  0.7073
  794MOL0     C 7097   3.114   9.058   5.544  0.5664 -0.6794  0.5554
  794MOL0     C 7098   2.963   9.013   5.523 -0.1922 -0.2821 -0.2342
  794MOL0     C 7099   2.895   9.079   5.402 -0.1479  0.1874  0.6069
  794MOL0    Cl 7100   2.718   9.039   5.400 -0.2805 -0.1680  0.1924
  794MOL0     C 7101   4.066   8.942   5.332 -0.2635 -0.2126 -0.1890
  794MOL0     C 7102   4.186   8.888   5.284  0.1629 -0.1377 -0.2182
  794MOL0     O 7103   4.390   8.949   5.037  0.7876  0.0033 -0.3504
  794MOL0     C 7104   4.511   8.651   4.973  0.7269 -0.0428 -0.4365
  794MOL0     C 7105   4.617   8.585   4.907 -0.5271  0.1827 -0.1723
  794MOL0     N 7106   5.412   8.411   4.794 -0.7443  1.0155 -1.5999
  794MOL0     N 7107   5.529   8.460   4.835 -0.2473 -0.2923  0.2301
  794MOL0     C 7108   6.737   8.727   4.655 -0.0493  0.5383  0.2790
  794MOL0     C 7109   6.862   8.778   4.634  0.7349 -0.2268 -1.2267
  794MOL0     C 7110   7.241   8.992   4.761 -0.1157 -0.0475 -0.5590
  794MOL0     C 7111   7.274   9.110   4.684 -0.9863  0.4949 -0.1053
  794MOL0     C 7112   7.411   9.160   4.684  0.1412  0.4787 -0.3154
  794MOL0     C 7113   7.518   9.091   4.744  0.0210 -0.3776  0.1489
  794MOL0     O 7114   7.648   9.129   4.708 -0.4045 -0.5929 -0.4137
  794MOL0     C 7115   7.745   9.092   4.802 -0.4974 -0.4011 -0.1354
  794MOL0     C 7116   7.870   9.180   4.810  0.3184 -0.8686  1.0736
  794MOL0     C 7117   7.977   9.162   4.701 -0.0112 -0.1844 -0.8725
  794MOL0     C 7118   8.025   9.021   4.673 -0.4939  1.2268  0.1959
  794MOL0     C 7119   8.130   9.030   4.568 -0.3138 -0.4043 -0.8923
  794MOL0     C 7120   8.213   9.051   4.479  0.1918  0.8593 -0.4474
  794MOL0     C 7121   7.479   8.981   4.823 -0.2232 -1.3162  0.3210
  794MOL0     C 7122   7.347   8.937   4.828 -0.1493  0.2139  0.4213
  794MOL0     H 7123   6.827   9.056   4.836 -0.4825  1.4649 -0.7626
  794MOL0     H 7124   6.607   8.980   4.852  1.5976  0.5500  0.7622
  794MOL0     H 7125   6.541   8.775   4.967  2.5712 -0.8829 -3.0236
  794MOL0     H 7126   6.396   8.845   4.891  2.4192  1.0749 -1.3382
  794MOL0     H 7127   6.476   8.568   4.959  0.2519  1.2020 -2.4120
  794MOL0     H 7128   6.354   8.641   5.056  3.0686 -3.4996  2.4304
  794MOL0     H 7129   6.322   8.531   4.770  0.4805 -0.8303  1.3997
  794MOL0     H 7130   6.247   8.480   4.914  1.9528  0.7727  0.8979
  794MOL0     H 7131   6.128   8.700   4.958 -0.4986  1.3639 -1.4974
  794MOL0     H 7132   6.193   8.768   4.813 -0.9552  1.8329  1.5587
  794MOL0     H 7133   6.077   8.582   4.679 -0.0612  1.9032 -0.6290
  794MOL0     H 7134   6.040   8.499   4.841 -0.3648  0.5241  0.5488
  794MOL0     H 7135   5.904   8.717   4.886  1.3175  0.3439  0.1528
  794MOL0     H 7136   5.921   8.744   4.712 -0.1124  1.7074  0.9426
  794MOL0     H 7137   5.816   8.528   4.654 -0.2346 -0.1144 -0.1174
  794MOL0     H 7138   5.818   8.483   4.839  1.3449 -0.4610 -0.1581
  794MOL0     H 7139   5.701   8.722   4.700 -2.7246 -0.0540 -0.8252
  794MOL0     H 7140   5.680   8.691   4.875  2.5984  0.3020 -0.1922
  794MOL0     H 7141   5.453   8.654   4.593 -1.3739  0.9040  0.2896
  794MOL0     H 7142   5.239   8.548   4.535 -0.0530  2.2305  1.0301
  794MOL0     H 7143   5.201   8.399   4.616 -0.0886  0.3212 -0.3566
  794MOL0     H 7144   5.158   8.672   4.773 -2.6233  0.1658  0.1755
  794MOL0     H 7145   5.110   8.513   4.823  1.2119  1.6485  1.1105
  794MOL0     H 7146   4.958   8.495   4.643  1.7056 -0.5173  1.3491
  794MOL0     H 7147   5.022   8.653   4.573  0.7705 -1.1113 -1.2517
  794MOL0     H 7148   4.830   8.716   4.669  0.9887  0.7835 -1.6912
  794MOL0     H 7149   4.955   8.764   4.775  0.1016  0.2695 -1.2749
  794MOL0     H 7150   4.853   8.820   4.992 -0.4519  2.7906  0.6053
  794MOL0     H 7151   4.787   8.936   5.180 -0.7815 -3.5354 -0.1414
  794MOL0     H 7152   4.705   9.040   5.065 -3.3215  1.9123 -0.4072
  794MOL0     H 7153   4.617   8.977   5.202 -1.4132 -2.5172 -1.4807
  794MOL0     H 7154   4.062   8.715   5.019  0.0896  1.3515 -0.0152
  794MOL0     H 7155   3.853   8.786   5.131  1.0656 -2.9104  0.0700
  794MOL0     H 7156   3.664   8.998   5.217 -1.2571  1.8406  1.1847
  794MOL0     H 7157   3.674   8.841   5.293 -0.2436 -0.0265  0.0414
  794MOL0     H 7158   3.600   8.938   5.511  2.3896  0.9315  0.4892
  794MOL0     H 7159   3.617   9.101   5.445 -1.4928  0.5963 -0.8319
  794MOL0     H 7160   3.420   8.875   5.360 -1.5981 -0.1848  3.0624
  794MOL0     H 7161   3.438   9.026   5.268  0.8059  2.3922  1.3512
  794MOL0     H 7162   3.367   9.018   5.568  1.3956 -2.3079 -0.7221
  794MOL0     H 7163   3.369   9.159   5.463  2.8876  0.6926  2.9990
  794MOL0     H 7164   3.192   8.903   5.429  1.2953 -0.1424  2.5138
  794MOL0     H 7165   3.170   9.044   5.337  0.1532 -3.1262 -0.6329
  794MOL0     H 7166   3.139   9.022   5.644 -1.3777  2.3825  2.3246
  794MOL0     H 7167   3.115   9.167   5.548 -2.6505 -0.5768  1.0851
  794MOL0     H 7168   2.905   9.015   5.615  0.5202 -2.3403  0.3045
  794MOL0     H 7169   2.962   8.904   5.515 -1.2421 -0.4432  1.6651
  794MOL0     H 7170   2.939   9.044   5.308  0.6472  0.8682  0.7137
  794MOL0     H 7171   2.915   9.187   5.405  1.1215  0.0083 -0.4657
  794MOL0     H 7172   4.058   8.995   5.426 -2.1821  3.5501 -2.2727
  794MOL0     H 7173   4.280   8.917   5.332 -0.1292 -0.6279  0.6706
  794MOL0     H 7174   4.413   8.609   4.950 -0.7790  2.9495  0.0041
  794MOL0     H 7175   4.604   8.495   4.847 -1.8824  0.1936  0.0750
  794MOL0     H 7176   6.712   8.631   4.613  0.5243  0.5059  0.0085
  794MOL0     H 7177   6.933   8.713   4.584  0.7880 -1.6213  0.5589
  794MOL0     H 7178   7.199   9.161   4.625  0.3970  1.6265 -0.9578
  794MOL0     H 7179   7.439   9.236   4.612  0.2500 -1.8254 -2.8867
  794MOL0     H 7180   7.712   9.098   4.907  3.7458  0.5109  1.3501
  794MOL0     H 7181   7.765   8.986   4.783  0.7168 -0.5436  1.6128
  794MOL0     H 7182   7.927   9.184   4.904  0.8728  1.3333  0.6944
  794MOL0     H 7183   7.834   9.282   4.795 -0.5320 -1.1211  1.3571
  794MOL0     H 7184   8.068   9.210   4.737  0.2266 -1.5319  0.4736
  794MOL0     H 7185   7.953   9.216   4.609 -3.7943 -0.0389  0.0351
  794MOL0     H 7186   7.936   8.966   4.640  1.3602 -0.1946 -2.8263
  794MOL0     H 7187   8.063   8.980   4.767 -0.4977  2.0814  0.5799
  794MOL0     H 7188   8.281   9.070   4.398  0.7221  0.8149 -0.0177
  794MOL0     H 7189   7.565   8.928   4.863  0.4989  0.6574  1.5128
  794MOL0     H 7190   7.333   8.840   4.873 -2.6728 -0.8409 -2.2771
  795MOL0     O 7191   9.357   5.427   5.454 -0.4675 -0.5061  0.1533
  795MOL0     C 7192   9.432   5.470   5.545 -0.4080 -0.0621  1.1914
  795MOL0     O 7193   9.399   5.567   5.639 -0.2027 -0.7480  0.6305
  795MOL0     C 7194   9.274   5.625   5.635  0.4691 -0.2109  0.4412
  795MOL0     C 7195   9.257   5.745   5.577  0.3042 -0.5901  0.8536
  795MOL0     C 7196   9.128   5.807   5.577 -0.4944  0.3556 -0.0989
  795MOL0     C 7197   9.017   5.727   5.604  0.0328 -0.2877 -1.2392
  795MOL0     O 7198   8.889   5.779   5.580  0.2998 -0.2712  0.5219
  795MOL0     C 7199   8.806   5.782   5.694  0.2420  0.1598 -0.0481
  795MOL0     C 7200   8.656   5.786   5.638 -0.2436  0.0163 -0.0886
  795MOL0     C 7201   8.551   5.803   5.756 -0.8727  0.1679  0.3635
  795MOL0     C 7202   8.444   5.697   5.754  0.5497  0.2922 -0.4328
  795MOL0     C 7203   8.355   5.726   5.624 -0.3822  0.3743  0.4376
  795MOL0     C 7204   8.263   5.603   5.603  0.4298  1.0197 -0.7107
  795MOL0     C 7205   8.215   5.598   5.458  0.1219 -0.0829 -0.2336
  795MOL0     C 7206   8.319   5.551   5.356 -0.0860  0.0562 -0.0051
  795MOL0     N 7207   8.338   5.406   5.341  0.0479 -0.0170 -0.2892
  795MOL0     C 7208   8.340   5.303   5.440  0.5303 -0.0248  0.3510
  795MOL0     C 7209   8.375   5.197   5.362 -0.5971  1.1536 -0.7904
  795MOL0     C 7210   8.398   5.054   5.413  0.4078  0.0427 -0.3415
  795MOL0     C 7211   8.274   4.961   5.411 -0.2705  1.0315 -0.2787
  795MOL0     C 7212   8.175   5.013   5.512 -0.0599  0.3181 -0.0378
  795MOL0     C 7213   8.066   4.904   5.547  0.3533 -0.0683  0.6770
  795MOL0     O 7214   7.963   4.967   5.616  0.4157 -0.7276  0.2803
  795MOL0     C 7215   7.834   4.924   5.604 -0.5672  0.0667 -0.4509
  795MOL0     C 7216   7.798   4.793   5.579  0.2573 -0.1083  0.4145
  795MOL0     C 7217   7.667   4.754   5.591 -0.2007  0.4275  0.0119
  795MOL0     C 7218   7.649   4.607   5.552  0.0336  0.0376  0.2954
  795MOL0     C 7219   7.564   4.848   5.619 -0.9585  0.4232 -0.7002
  795MOL0     C 7220   7.411   4.817   5.609 -0.9208  0.7689 -0.1022
  795MOL0     O 7221   7.314   4.917   5.613 -0.3766  0.3992  0.1605
  795MOL0     C 7222   7.179   4.890   5.611 -0.0472  0.6028 -0.9934
  795MOL0     C 7223   7.120   4.790   5.697 -0.4228  0.2868 -0.1908
  795MOL0     C 7224   6.977   4.790   5.700 -0.1026 -0.4392 -0.8413
  795MOL0     C 7225   6.897   4.887   5.641 -0.0555 -0.2050 -0.6340
  795MOL0     O 7226   6.759   4.889   5.647  0.7954 -0.8383  0.6351
  795MOL0     C 7227   6.693   4.782   5.719  0.0620 -0.6656 -0.2997
  795MOL0     C 7228   6.539   4.789   5.688 -0.1749  0.4226 -0.9213
  795MOL0     C 7229   6.460   4.895   5.764 -0.2618 -0.3569 -0.1288
  795MOL0     C 7230   6.306   4.880   5.747  0.0715 -0.3746  0.0253
  795MOL0     C 7231   6.250   4.984   5.836  0.2082  0.7691 -0.4905
  795MOL0     C 7232   6.092   4.975   5.844  0.0130  0.3720 -0.6331
  795MOL0     C 7233   6.035   4.829   5.873  0.3043 -0.1384  0.1313
  795MOL0     C 7234   5.889   4.835   5.928 -0.2444  0.5596  1.1851
  795MOL0    Cl 7235   5.767   4.920   5.813 -0.1324  0.1432  0.0706
  795MOL0     C 7236   6.963   4.987   5.574  0.3691 -0.3587 -0.3740
  795MOL0     C 7237   7.101   4.991   5.555 -0.0417  0.4341  0.0960
  795MOL0     O 7238   7.387   4.698   5.586  0.2397  0.0049  0.4528
  795MOL0     C 7239   7.607   4.982   5.652  0.7709  0.3482 -0.7735
  795MOL0     C 7240   7.744   5.020   5.642 -0.3349  0.0405 -0.1402
  795MOL0     N 7241   8.400   5.233   5.238 -1.0586  0.0218  0.3921
  795MOL0     N 7242   8.373   5.354   5.221  0.0120  0.1178  0.0493
  795MOL0     C 7243   9.032   5.598   5.646 -0.7686  0.5016  0.1669
  795MOL0     C 7244   9.164   5.543   5.658  0.3470 -0.1306 -0.6009
  795MOL0     C 7245   9.573   5.426   5.552  0.1238  0.1495 -1.1455
  795MOL0     C 7246   9.611   5.300   5.508 -0.0107 -0.4730  0.5472
  795MOL0     C 7247   9.747   5.271   5.502 -0.3991 -0.1742 -0.3089
  795MOL0     C 7248   9.848   5.362   5.549 -0.6539 -0.0457  0.2815
  795MOL0     O 7249   9.982   5.330   5.521 -0.4493 -0.3394  0.0688
  795MOL0     C 7250  10.089   5.429   5.541  0.4098  0.5039  0.1762
  795MOL0     C 7251  10.233   5.360   5.512  0.1832 -0.5673  0.2196
  795MOL0     C 7252  10.270   5.256   5.612 -0.3560  0.9171 -0.7707
  795MOL0     C 7253  10.425   5.231   5.610  0.2220 -0.3056  1.0326
  795MOL0     C 7254  10.479   5.199   5.472  0.4003 -0.2008 -0.4428
  795MOL0     C 7255  10.520   5.143   5.381 -0.4258 -0.4716  0.4747
  795MOL0     C 7256   9.802   5.474   5.617  0.0051  0.0748 -0.2164
  795MOL0     C 7257   9.670   5.511   5.608  0.3025  1.0772  0.5309
  795MOL0     H 7258   9.345   5.800   5.545  0.1306  0.3435  1.9094
  795MOL0     H 7259   9.113   5.905   5.532 -1.5909 -0.1642 -0.9319
  795MOL0     H 7260   8.822   5.696   5.760  0.2640 -0.0934 -0.3796
  795MOL0     H 7261   8.833   5.871   5.752 -0.3238 -1.0480  2.1747
  795MOL0     H 7262   8.639   5.868   5.568 -3.8559 -1.2241 -0.8900
  795MOL0     H 7263   8.640   5.689   5.589  1.1395 -0.3160  0.0641
  795MOL0     H 7264   8.603   5.796   5.852 -0.1688  2.8299  0.2592
  795MOL0     H 7265   8.515   5.906   5.756  1.7897  1.1971  1.5928
  795MOL0     H 7266   8.486   5.597   5.741 -1.1594 -0.3330 -1.4318
  795MOL0     H 7267   8.388   5.709   5.847 -1.5085  1.3556 -1.7385
  795MOL0     H 7268   8.287   5.811   5.630 -0.0115  0.6355  1.0709
  795MOL0     H 7269   8.432   5.734   5.547  1.5797 -1.1388  2.1186
  795MOL0     H 7270   8.313   5.507   5.619 -1.7022  0.3830  3.2208
  795MOL0     H 7271   8.182   5.611   5.675  1.0260  0.8042 -0.0030
  795MOL0     H 7272   8.125   5.536   5.449  0.3597 -0.1040 -3.9090
  795MOL0     H 7273   8.187   5.701   5.437 -0.4592 -0.6298 -2.4598
  795MOL0     H 7274   8.420   5.581   5.385 -0.6992  0.2434  2.1071
  795MOL0     H 7275   8.291   5.597   5.261 -2.1531  0.9377  0.9568
  795MOL0     H 7276   8.317   5.311   5.546 -1.6343  0.4291 -0.0841
  795MOL0     H 7277   8.478   5.004   5.357 -0.5037 -1.8437 -0.0042
  795MOL0     H 7278   8.432   5.056   5.517 -0.1447 -1.2175 -0.1276
  795MOL0     H 7279   8.313   4.861   5.429 -0.6876  0.8485 -0.3662
  795MOL0     H 7280   8.225   4.952   5.313 -2.3238 -0.4130  0.7959
  795MOL0     H 7281   8.119   5.103   5.482  0.6927  0.3584 -1.3998
  795MOL0     H 7282   8.231   5.035   5.604 -0.6374 -5.2956  2.0714
  795MOL0     H 7283   8.106   4.826   5.613  0.7057  0.8747  1.6191
  795MOL0     H 7284   8.034   4.849   5.459  2.9942 -1.4471  0.4644
  795MOL0     H 7285   7.880   4.728   5.552 -0.2257  0.6122 -3.2914
  795MOL0     H 7286   7.744   4.573   5.509  0.2241  3.8560 -2.9058
  795MOL0     H 7287   7.618   4.544   5.636  1.1631  0.8825  1.3934
  795MOL0     H 7288   7.578   4.594   5.470 -0.6606 -2.1797  1.1601
  795MOL0     H 7289   7.188   4.721   5.745 -0.3716  0.7504  0.4224
  795MOL0     H 7290   6.948   4.706   5.762 -1.3718  0.2115 -0.5242
  795MOL0     H 7291   6.719   4.684   5.678  2.7395  0.5275 -1.7117
  795MOL0     H 7292   6.726   4.805   5.821  2.3753  1.2100 -1.3623
  795MOL0     H 7293   6.529   4.818   5.583  0.8855  1.6811 -0.6943
  795MOL0     H 7294   6.498   4.690   5.709  2.8987 -1.0309 -1.3701
  795MOL0     H 7295   6.492   4.994   5.733  0.1868 -0.2854  0.5531
  795MOL0     H 7296   6.486   4.878   5.869  1.8275 -1.6865 -0.8006
  795MOL0     H 7297   6.289   4.906   5.642 -0.4673 -0.7178  0.0190
  795MOL0     H 7298   6.273   4.776   5.762  0.7688 -0.7794 -1.1353
  795MOL0     H 7299   6.284   5.083   5.804  3.2484  0.5783  1.6768
  795MOL0     H 7300   6.286   4.980   5.939 -1.1413  1.2528  0.0324
  795MOL0     H 7301   6.053   5.043   5.919  0.1044  1.2304 -1.3479
  795MOL0     H 7302   6.053   5.004   5.746 -0.8693  2.2320  0.2268
  795MOL0     H 7303   6.097   4.767   5.938 -0.4706  0.5571  1.5859
  795MOL0     H 7304   6.034   4.779   5.776  0.8536 -0.7459  0.4312
  795MOL0     H 7305   5.870   4.879   6.027 -1.5134  0.2390  1.1019
  795MOL0     H 7306   5.862   4.729   5.938 -0.0535  0.2826 -0.9415
  795MOL0     H 7307   6.904   5.075   5.550  1.6515  1.0342  1.2923
  795MOL0     H 7308   7.153   5.072   5.505  1.3938  2.1132  3.9447
  795MOL0     H 7309   7.532   5.058   5.672  0.4422 -0.1251 -0.1585
  795MOL0     H 7310   7.760   5.126   5.658 -0.8067  0.5451 -2.5229
  795MOL0     H 7311   8.946   5.541   5.679 -0.6304 -0.8732 -1.6689
  795MOL0     H 7312   9.185   5.441   5.690 -0.5413  0.5016  2.3444
  795MOL0     H 7313   9.529   5.243   5.467 -3.4424  2.9132  2.1119
  795MOL0     H 7314   9.777   5.170   5.476 -0.6184 -0.5235  0.7283
  795MOL0     H 7315  10.060   5.512   5.476  0.5040  1.1768  0.9780
  795MOL0     H 7316  10.096   5.475   5.640  1.3127  1.5836 -0.3728
  795MOL0     H 7317  10.304   5.441   5.530 -1.9389  1.4223  0.1727
  795MOL0     H 7318  10.243   5.325   5.409 -0.0415 -0.9895  0.3406
  795MOL0     H 7319  10.215   5.164   5.588  1.2572 -0.4830  0.6446
  795MOL0     H 7320  10.243   5.291   5.712  3.5877 -0.3240  0.9338
  795MOL0     H 7321  10.464   5.160   5.683  1.4343 -2.6729 -1.6868
  795MOL0     H 7322  10.477   5.324   5.632  0.8090 -0.4178  0.1885
  795MOL0     H 7323  10.568   5.088   5.303  0.9244  0.2340  0.7761
  795MOL0     H 7324   9.872   5.542   5.663 -0.8434 -0.0774  1.3644
  795MOL0     H 7325   9.639   5.613   5.627  0.8685  1.3366  0.0744
  796MOL0     O 7326   7.202   3.219   7.908 -0.3236  0.4837 -0.4188
  796MOL0     C 7327   7.257   3.211   8.015 -0.2207 -0.6518 -0.3382
  796MOL0     O 7328   7.190   3.223   8.134 -0.3583  0.2055 -0.1134
  796MOL0     C 7329   7.052   3.208   8.131 -0.1105  0.5088 -0.7841
  796MOL0     C 7330   6.988   3.103   8.190 -0.0545  0.5326 -0.0896
  796MOL0     C 7331   6.853   3.075   8.166  0.2862  0.2579 -0.2148
  796MOL0     C 7332   6.775   3.155   8.081 -0.3458 -0.3182  0.3925
  796MOL0     O 7333   6.643   3.111   8.058 -0.0024 -0.3501  0.2190
  796MOL0     C 7334   6.542   3.209   8.008 -0.4677  1.2695  0.3866
  796MOL0     C 7335   6.406   3.148   7.984 -0.6391 -0.1640  0.4261
  796MOL0     C 7336   6.282   3.234   8.024  0.8139  0.2544  0.2169
  796MOL0     C 7337   6.255   3.223   8.176  0.1705 -0.7079 -0.3456
  796MOL0     C 7338   6.111   3.271   8.203  1.3404 -0.0602  0.3855
  796MOL0     C 7339   6.098   3.308   8.353 -0.6770 -0.5400 -0.2281
  796MOL0     C 7340   5.960   3.346   8.400  0.1985  0.1159 -0.9633
  796MOL0     C 7341   5.950   3.354   8.553  0.1297 -0.2298 -0.4804
  796MOL0     N 7342   6.033   3.462   8.611  0.0696  0.8486  0.6832
  796MOL0     C 7343   6.127   3.453   8.706  0.0874 -0.7504 -0.0797
  796MOL0     C 7344   6.159   3.583   8.742 -0.1518  0.1264  1.1441
  796MOL0     C 7345   6.266   3.629   8.838  1.0156  0.3337  1.4554
  796MOL0     C 7346   6.195   3.694   8.956 -0.2309 -0.7137  0.7540
  796MOL0     C 7347   6.283   3.772   9.054 -0.8442  0.5174  0.0369
  796MOL0     C 7348   6.227   3.817   9.181 -0.1169  0.1424 -0.1813
  796MOL0     O 7349   6.171   3.709   9.252 -0.0067  0.7379 -0.6214
  796MOL0     C 7350   6.075   3.735   9.351 -0.9375 -0.4103 -0.2714
  796MOL0     C 7351   6.053   3.859   9.406  0.1871 -0.0579  0.0964
  796MOL0     C 7352   5.974   3.872   9.527 -0.2448  0.2908 -0.2471
  796MOL0     C 7353   5.951   4.009   9.577 -0.3767  0.5414  0.1985
  796MOL0     C 7354   5.914   3.757   9.589  0.3037  0.0182 -0.4457
  796MOL0     C 7355   5.824   3.753   9.707  0.0049  0.4283 -0.2103
  796MOL0     O 7356   5.713   3.683   9.700  1.0469 -0.0571  0.5619
  796MOL0     C 7357   5.613   3.703   9.789 -0.3605  0.7434  0.0202
  796MOL0     C 7358   5.539   3.820   9.807 -0.5517  0.0857  0.1931
  796MOL0     C 7359   5.425   3.814   9.890 -0.0254  0.4404 -0.0488
  796MOL0     C 7360   5.388   3.699   9.962 -0.3972 -0.4229  0.3745
  796MOL0     O 7361   5.292   3.713  10.060  0.0634 -1.0037  0.0085
  796MOL0     C 7362   5.287   3.615  10.166  0.5440  0.3523 -0.0661
  796MOL0     C 7363   5.188   3.681  10.259  0.4113 -0.1363  0.2018
  796MOL0     C 7364   5.168   3.580  10.373 -0.0806 -0.2787  0.3441
  796MOL0     C 7365   5.019   3.544  10.383  0.7779  0.3430  0.1570
  796MOL0     C 7366   5.005   3.444  10.489 -0.8643  0.0293  0.1622
  796MOL0     C 7367   4.864   3.407  10.517 -0.4261  0.3750 -0.5920
  796MOL0     C 7368   4.849   3.345  10.658  0.0139 -0.0936 -1.1733
  796MOL0     C 7369   4.832   3.463  10.766  0.5653  0.3601  0.5475
  796MOL0    Cl 7370   4.871   3.386  10.923  0.0315 -0.4200  0.1952
  796MOL0     C 7371   5.464   3.580   9.939 -0.3492 -0.0957 -0.3736
  796MOL0     C 7372   5.583   3.583   9.857 -0.5090 -0.0231  0.0587
  796MOL0     O 7373   5.851   3.833   9.795  0.3218 -0.6154 -0.1781
  796MOL0     C 7374   5.932   3.634   9.524  0.2301 -1.0058  1.4297
  796MOL0     C 7375   6.023   3.618   9.409 -0.6732  0.8229 -1.0047
  796MOL0     N 7376   6.089   3.667   8.674 -0.1940  0.3768  0.5737
  796MOL0     N 7377   6.016   3.592   8.594  0.9791 -0.5670  0.1220
  796MOL0     C 7378   6.839   3.266   8.020  0.2231  0.6350  0.1666
  796MOL0     C 7379   6.973   3.293   8.058  0.2185  0.6646 -0.0864
  796MOL0     C 7380   7.403   3.179   8.015  0.1260 -0.2575  0.8664
  796MOL0     C 7381   7.467   3.148   7.891  0.0517 -0.1157  0.9165
  796MOL0     C 7382   7.607   3.131   7.892  0.5847 -0.3146 -0.2391
  796MOL0     C 7383   7.683   3.143   8.008 -0.0989 -0.6599 -0.4310
  796MOL0     O 7384   7.822   3.138   8.000  0.8530  0.2698  0.8770
  796MOL0     C 7385   7.874   3.261   7.961 -0.5548 -0.4379  1.1535
  796MOL0     C 7386   7.936   3.325   8.070 -1.1954  0.2046  0.2220
  796MOL0     C 7387   7.974   3.465   8.020 -1.4744  0.5918 -0.7114
  796MOL0     C 7388   8.077   3.543   8.106  0.3074  0.3940  0.6957
  796MOL0     C 7389   8.208   3.478   8.104 -0.3234  0.1874 -0.4170
  796MOL0     C 7390   8.304   3.410   8.098 -1.0838 -0.2538  0.6490
  796MOL0     C 7391   7.624   3.175   8.127  0.5108  0.5705 -0.2515
  796MOL0     C 7392   7.484   3.182   8.135 -0.1866  0.0339  0.0985
  796MOL0     H 7393   7.048   3.033   8.248  0.7677  0.1004 -1.4296
  796MOL0     H 7394   6.804   2.985   8.202 -0.0344  0.8120  0.7596
  796MOL0     H 7395   6.535   3.285   8.086  0.9605  0.0865  1.7363
  796MOL0     H 7396   6.585   3.253   7.917  0.9342 -0.4264  0.1623
  796MOL0     H 7397   6.391   3.120   7.879  0.6744  0.4091  0.0652
  796MOL0     H 7398   6.407   3.058   8.046  1.3044  0.1254  0.8629
  796MOL0     H 7399   6.298   3.340   8.003 -0.2295 -0.0715 -2.5916
  796MOL0     H 7400   6.188   3.206   7.976 -0.7419  0.0206  3.1393
  796MOL0     H 7401   6.248   3.120   8.210 -1.7246 -1.2220 -2.0902
  796MOL0     H 7402   6.326   3.281   8.235  0.3194 -0.5678 -0.6543
  796MOL0     H 7403   6.083   3.351   8.134  0.5903 -1.2904 -0.7891
  796MOL0     H 7404   6.051   3.183   8.179  0.6715  0.7972 -1.2893
  796MOL0     H 7405   6.136   3.225   8.413  0.7016 -0.5913 -1.1408
  796MOL0     H 7406   6.151   3.402   8.375 -1.5626 -0.5404  2.3387
  796MOL0     H 7407   5.940   3.443   8.354  0.6196 -0.4660 -2.4406
  796MOL0     H 7408   5.885   3.280   8.355  0.5663 -0.5332 -0.6454
  796MOL0     H 7409   5.969   3.261   8.607 -4.4089 -1.6518 -0.8798
  796MOL0     H 7410   5.850   3.394   8.572 -0.6468 -1.4730 -1.7611
  796MOL0     H 7411   6.165   3.361   8.749  1.8609  0.4838  1.1245
  796MOL0     H 7412   6.328   3.543   8.866 -0.5440 -0.7465  1.6978
  796MOL0     H 7413   6.328   3.697   8.778  1.1951 -1.1343 -0.1261
  796MOL0     H 7414   6.155   3.605   9.005  0.5889 -2.5561 -1.6944
  796MOL0     H 7415   6.116   3.761   8.921  0.7356 -0.0774 -0.2958
  796MOL0     H 7416   6.320   3.855   8.993 -2.7459  0.2649 -1.5181
  796MOL0     H 7417   6.366   3.708   9.087 -0.2361  0.4464 -1.5535
  796MOL0     H 7418   6.152   3.890   9.150  0.9773  1.8766  1.0603
  796MOL0     H 7419   6.307   3.865   9.239 -1.0759 -1.2690  2.4826
  796MOL0     H 7420   6.107   3.946   9.370 -1.2605  0.7551 -0.2056
  796MOL0     H 7421   5.869   4.018   9.648 -2.7085  0.4891 -2.3425
  796MOL0     H 7422   6.039   4.067   9.607  0.1210 -0.7143  1.2670
  796MOL0     H 7423   5.923   4.068   9.489  1.5145  1.1396 -0.0594
  796MOL0     H 7424   5.564   3.911   9.755  0.9609  0.8492  2.1166
  796MOL0     H 7425   5.365   3.903   9.903 -1.1351 -0.1781 -0.8671
  796MOL0     H 7426   5.238   3.520  10.142  2.7628 -1.1426  1.0068
  796MOL0     H 7427   5.381   3.592  10.216 -0.1682 -1.9639  0.3323
  796MOL0     H 7428   5.240   3.767  10.302  0.9106 -0.7977  0.9399
  796MOL0     H 7429   5.092   3.708  10.214 -0.1352 -1.4598  0.5294
  796MOL0     H 7430   5.206   3.625  10.466 -1.9956 -2.4077  2.3019
  796MOL0     H 7431   5.223   3.487  10.359  0.5180 -0.3742  2.7697
  796MOL0     H 7432   4.958   3.634  10.398  1.7141  1.2321 -1.1624
  796MOL0     H 7433   4.998   3.500  10.285  0.5882 -0.8076  0.6952
  796MOL0     H 7434   5.056   3.476  10.581  2.7250 -2.9421 -0.5662
  796MOL0     H 7435   5.051   3.355  10.446  1.6527  1.8247 -1.1529
  796MOL0     H 7436   4.800   3.496  10.515  0.5629  1.1639  0.8625
  796MOL0     H 7437   4.841   3.329  10.443 -0.1550  2.0573 -2.5368
  796MOL0     H 7438   4.915   3.261  10.683  3.6291  3.2214  1.7053
  796MOL0     H 7439   4.745   3.310  10.666 -0.8277  2.3647 -0.2720
  796MOL0     H 7440   4.731   3.505  10.766  0.1652 -0.4909 -1.4913
  796MOL0     H 7441   4.902   3.547  10.758 -0.7097  1.3951  0.0507
  796MOL0     H 7442   5.436   3.497  10.002 -3.1518  1.0377  0.0212
  796MOL0     H 7443   5.649   3.497   9.867  0.9678  1.0518 -0.1797
  796MOL0     H 7444   5.904   3.543   9.576  1.9182 -1.0972  2.2365
  796MOL0     H 7445   6.053   3.518   9.377  1.6180  1.0305  0.3056
  796MOL0     H 7446   6.803   3.337   7.946 -0.5219  1.7673  1.5638
  796MOL0     H 7447   7.022   3.384   8.028 -1.2148  1.0330 -1.4005
  796MOL0     H 7448   7.415   3.142   7.795 -0.3276  1.0619  1.0322
  796MOL0     H 7449   7.655   3.132   7.795  0.8402  0.8215 -0.1089
  796MOL0     H 7450   7.944   3.238   7.880 -1.9600 -3.1628  0.5867
  796MOL0     H 7451   7.795   3.328   7.925  1.9466  2.3666  0.5532
  796MOL0     H 7452   8.024   3.270   8.104 -2.3904 -1.3837  0.8704
  796MOL0     H 7453   7.863   3.329   8.151  0.0609 -0.9363  1.4680
  796MOL0     H 7454   7.881   3.521   8.009 -3.2949 -1.5006  2.3331
  796MOL0     H 7455   8.031   3.456   7.927  2.7848  0.1601  1.6909
  796MOL0     H 7456   8.036   3.561   8.205 -2.5095  1.5937 -0.5635
  796MOL0     H 7457   8.077   3.643   8.061 -0.3630 -0.1355 -0.5270
  796MOL0     H 7458   8.402   3.366   8.094 -0.5025  1.0795 -1.6632
  796MOL0     H 7459   7.677   3.202   8.217 -0.0082 -0.7364  0.4703
  796MOL0     H 7460   7.434   3.202   8.228 -2.3958  1.4791 -1.3069
  797MOL0     O 7461  10.550  10.179   9.539  0.4317  0.0741  0.3664
  797MOL0     C 7462  10.612  10.278   9.550  0.4953  0.0822 -0.4267
  797MOL0     O 7463  10.564  10.397   9.532  0.3379 -0.1931 -0.4320
  797MOL0     C 7464  10.430  10.425   9.502  0.5291 -0.5061  0.5572
  797MOL0     C 7465  10.394  10.454   9.371  1.0968  0.4834 -0.1744
  797MOL0     C 7466  10.257  10.459   9.345 -0.0026 -0.1164 -0.2894
  797MOL0     C 7467  10.154  10.443   9.435 -0.6043  0.1740  0.6883
  797MOL0     O 7468  10.017  10.456   9.404 -0.2869  0.2763 -0.0058
  797MOL0     C 7469   9.933  10.531   9.491  0.4740  0.3243 -0.1203
  797MOL0     C 7470   9.826  10.596   9.391 -0.5797  0.3358  0.4484
  797MOL0     C 7471   9.731  10.482   9.334 -0.1456  0.0759 -0.0003
  797MOL0     C 7472   9.583  10.529   9.317  0.1320  0.1688 -0.6177
  797MOL0     C 7473   9.473  10.421   9.316 -0.2713  0.0724  0.7846
  797MOL0     C 7474   9.478  10.325   9.198 -0.0743 -0.7364 -0.4144
  797MOL0     C 7475   9.364  10.224   9.208  0.6503  1.4504 -0.0472
  797MOL0     C 7476   9.373  10.117   9.106  0.1061 -0.0156 -0.1884
  797MOL0     N 7477   9.257  10.033   9.090  0.4092  1.1445  0.1440
  797MOL0     C 7478   9.209   9.987   8.973  0.2616  0.1004 -0.7155
  797MOL0     C 7479   9.075   9.964   8.991 -0.2551  0.3190  0.1919
  797MOL0     C 7480   8.988   9.923   8.875 -0.4534  0.2339  0.6234
  797MOL0     C 7481   8.845   9.930   8.898  0.8016 -0.0469 -0.8280
  797MOL0     C 7482   8.773   9.874   8.781 -0.7906 -1.0638  0.4841
  797MOL0     C 7483   8.621   9.847   8.806  0.0803 -0.5121  0.7535
  797MOL0     O 7484   8.542   9.851   8.685 -0.0644 -0.5773 -0.3026
  797MOL0     C 7485   8.417   9.790   8.685  0.3513  0.2698 -0.2370
  797MOL0     C 7486   8.332   9.780   8.790 -0.0766 -0.5128 -0.4559
  797MOL0     C 7487   8.206   9.722   8.784  0.1481  0.4921  0.0093
  797MOL0     C 7488   8.126   9.683   8.909 -0.5345 -0.1464 -0.1786
  797MOL0     C 7489   8.152   9.702   8.652 -0.0503 -0.6760 -0.0497
  797MOL0     C 7490   8.010   9.675   8.630 -0.5157  0.1555 -0.4664
  797MOL0     O 7491   7.972   9.583   8.544 -0.0408 -0.4682 -0.4881
  797MOL0     C 7492   7.834   9.562   8.508 -0.3935 -1.2368 -0.4752
  797MOL0     C 7493   7.784   9.437   8.486 -0.2466 -0.5708 -0.5573
  797MOL0     C 7494   7.653   9.428   8.435 -0.0147  0.8992 -0.5512
  797MOL0     C 7495   7.568   9.539   8.402 -0.8128  0.6342 -0.3681
  797MOL0     O 7496   7.447   9.541   8.347  0.3578 -0.0180  0.2950
  797MOL0     C 7497   7.397   9.413   8.291  0.0900 -0.9212 -0.5732
  797MOL0     C 7498   7.248   9.409   8.245 -0.1403  0.3711  0.6139
  797MOL0     C 7499   7.152   9.464   8.357 -0.6166 -0.2492  0.6162
  797MOL0     C 7500   7.006   9.422   8.329  0.0971  0.8678  0.4808
  797MOL0     C 7501   6.955   9.487   8.196 -0.6684 -0.1502 -0.9208
  797MOL0     C 7502   6.811   9.455   8.157 -0.3274 -0.6942 -0.9894
  797MOL0     C 7503   6.791   9.305   8.132 -0.1633 -0.1192 -0.1741
  797MOL0     C 7504   6.661   9.293   8.062  1.1355 -0.1689 -0.4884
  797MOL0    Cl 7505   6.681   9.350   7.889 -0.3867  0.0268  0.0314
  797MOL0     C 7506   7.625   9.666   8.434 -0.1075 -0.2227 -0.7403
  797MOL0     C 7507   7.755   9.678   8.479 -0.1834  0.0667 -0.6911
  797MOL0     O 7508   7.934   9.735   8.706  0.4040 -0.4785  0.2929
  797MOL0     C 7509   8.237   9.709   8.549  0.6926  1.1358  0.2080
  797MOL0     C 7510   8.368   9.755   8.559  0.0746  0.2150  0.0430
  797MOL0     N 7511   9.049   9.982   9.127 -0.7502  0.2214  0.0233
  797MOL0     N 7512   9.155  10.029   9.180  0.0625 -0.2247 -0.2120
  797MOL0     C 7513  10.198  10.434   9.570  0.2431  0.7947 -0.1715
  797MOL0     C 7514  10.332  10.413   9.604  0.3548  0.2794  0.0379
  797MOL0     C 7515  10.760  10.267   9.572 -0.6348  0.1618 -0.7053
  797MOL0     C 7516  10.829  10.375   9.523  0.2658 -0.3436  0.3587
  797MOL0     C 7517  10.968  10.385   9.544  0.4786  1.1624 -0.1631
  797MOL0     C 7518  11.034  10.279   9.612 -0.5727  0.5753 -0.2736
  797MOL0     O 7519  11.172  10.290   9.645 -0.4652  0.3735 -0.0949
  797MOL0     C 7520  11.243  10.404   9.601  0.0317 -0.3493  0.1434
  797MOL0     C 7521  11.389  10.380   9.640  0.8101 -0.5607  0.1784
  797MOL0     C 7522  11.446  10.301   9.522  0.4025 -0.6116  0.5847
  797MOL0     C 7523  11.596  10.291   9.532  0.6836  0.5758 -0.3191
  797MOL0     C 7524  11.655  10.234   9.406  0.2333  0.7635  0.2143
  797MOL0     C 7525  11.692  10.186   9.300 -0.3130 -0.3766 -0.2068
  797MOL0     C 7526  10.966  10.163   9.640  0.7641 -0.2316 -0.2718
  797MOL0     C 7527  10.827  10.159   9.626 -0.2067  0.1827 -0.9940
  797MOL0     H 7528  10.473  10.468   9.297 -0.1664  1.4915 -1.3718
  797MOL0     H 7529  10.219  10.483   9.247 -2.3388  1.9416  1.0235
  797MOL0     H 7530   9.883  10.478   9.573  0.3633 -0.3327 -0.6050
  797MOL0     H 7531   9.998  10.606   9.538  0.4501  0.9256 -1.0238
  797MOL0     H 7532   9.765  10.667   9.448 -0.3341  0.7282  0.2210
  797MOL0     H 7533   9.867  10.643   9.301 -3.2308  1.8219 -0.1057
  797MOL0     H 7534   9.784  10.446   9.245  0.6532  0.0881  0.4564
  797MOL0     H 7535   9.730  10.397   9.404  2.1939  0.4266  0.5673
  797MOL0     H 7536   9.544  10.576   9.407 -0.2693 -0.7748 -0.2850
  797MOL0     H 7537   9.583  10.600   9.233 -2.3793  0.6337 -0.3028
  797MOL0     H 7538   9.472  10.361   9.408  1.4244 -0.0218  0.7717
  797MOL0     H 7539   9.381  10.479   9.314 -0.8138 -0.7658  0.7663
  797MOL0     H 7540   9.468  10.384   9.107  0.7083 -0.4584 -0.3300
  797MOL0     H 7541   9.581  10.287   9.199  0.7210  1.3118  1.0417
  797MOL0     H 7542   9.356  10.174   9.305 -1.9976 -1.3629 -1.5196
  797MOL0     H 7543   9.270  10.278   9.199 -0.3668  0.1319  1.7955
  797MOL0     H 7544   9.447  10.042   9.135  1.4475  1.5843  0.7145
  797MOL0     H 7545   9.401  10.166   9.012 -2.7039 -0.7189 -1.5042
  797MOL0     H 7546   9.260   9.980   8.877  1.8101  1.1104 -0.0170
  797MOL0     H 7547   9.008   9.991   8.791 -0.6990 -0.7594 -0.2674
  797MOL0     H 7548   9.020   9.824   8.841  1.0837  0.6707  0.7184
  797MOL0     H 7549   8.830  10.036   8.918 -0.6703 -0.0096 -1.9604
  797MOL0     H 7550   8.821   9.861   8.979 -2.9256  0.3876 -1.3614
  797MOL0     H 7551   8.809   9.776   8.748  0.2617 -0.4484 -0.2622
  797MOL0     H 7552   8.786   9.944   8.698 -2.5065  0.6474  1.5733
  797MOL0     H 7553   8.581   9.923   8.873  2.2630  1.3392  0.0694
  797MOL0     H 7554   8.621   9.748   8.852  2.8736 -2.0532 -2.0980
  797MOL0     H 7555   8.371   9.808   8.888 -0.9474  0.5228 -0.3805
  797MOL0     H 7556   8.186   9.643   8.991 -0.5404 -1.7394 -0.9196
  797MOL0     H 7557   8.071   9.773   8.941  0.5242  1.3286 -2.2660
  797MOL0     H 7558   8.052   9.606   8.887  1.3351 -2.1748  0.3407
  797MOL0     H 7559   7.842   9.346   8.503  0.1892 -0.0740  0.8003
  797MOL0     H 7560   7.622   9.326   8.419  1.8603  0.5012 -2.1464
  797MOL0     H 7561   7.455   9.361   8.215  0.2288  0.8163 -1.7056
  797MOL0     H 7562   7.395   9.337   8.369 -1.8023  0.1044  0.4482
  797MOL0     H 7563   7.235   9.477   8.160  0.1787  1.4968  1.4493
  797MOL0     H 7564   7.209   9.308   8.228 -4.3935  1.3369  3.1416
  797MOL0     H 7565   7.163   9.573   8.363  2.5091 -0.3342 -1.3429
  797MOL0     H 7566   7.183   9.421   8.453 -0.4489 -0.8218  0.3114
  797MOL0     H 7567   7.004   9.313   8.323  0.4271  0.8367  0.9331
  797MOL0     H 7568   6.948   9.452   8.417 -1.0099 -0.3797  0.1989
  797MOL0     H 7569   7.022   9.453   8.117  1.1065 -2.2894  1.3404
  797MOL0     H 7570   6.968   9.595   8.208 -0.6669 -0.4091  2.4238
  797MOL0     H 7571   6.759   9.501   8.241  1.7961 -1.7830  1.0513
  797MOL0     H 7572   6.802   9.507   8.061 -1.8502  0.1973 -0.3884
  797MOL0     H 7573   6.791   9.249   8.225  0.0581 -0.3574 -0.3188
  797MOL0     H 7574   6.865   9.262   8.064  0.2365 -0.1445  0.2726
  797MOL0     H 7575   6.579   9.347   8.110  0.4562 -1.7517  0.2183
  797MOL0     H 7576   6.629   9.188   8.062 -0.7436  0.1639  4.1463
  797MOL0     H 7577   7.563   9.755   8.428 -1.5435 -0.9394  2.0531
  797MOL0     H 7578   7.786   9.779   8.504 -2.3439  0.1681  2.0276
  797MOL0     H 7579   8.209   9.675   8.450  0.9279 -2.2628  1.1730
  797MOL0     H 7580   8.435   9.772   8.476 -1.5319 -0.9663 -1.5817
  797MOL0     H 7581  10.132  10.435   9.656 -0.4525 -0.5606 -0.6684
  797MOL0     H 7582  10.349  10.397   9.710 -1.1106 -1.2747  0.0794
  797MOL0     H 7583  10.787  10.462   9.473  3.1296  0.8766 -0.1257
  797MOL0     H 7584  11.030  10.470   9.517  2.1408  0.3145  0.7971
  797MOL0     H 7585  11.230  10.428   9.495 -0.9336 -2.2804 -0.2152
  797MOL0     H 7586  11.208  10.486   9.663 -0.6979  1.0992 -2.0489
  797MOL0     H 7587  11.386  10.320   9.732 -2.7746  0.4191  0.8567
  797MOL0     H 7588  11.437  10.478   9.644  0.2682 -0.0773 -2.9497
  797MOL0     H 7589  11.431  10.356   9.428 -1.1192 -1.9740 -0.0069
  797MOL0     H 7590  11.398  10.204   9.526 -0.9173  0.0666  3.0385
  797MOL0     H 7591  11.612  10.214   9.608 -0.1669 -1.5003 -2.1142
  797MOL0     H 7592  11.648  10.384   9.556  0.8479  0.2635  0.5727
  797MOL0     H 7593  11.729  10.139   9.211  0.4890  1.2695 -0.7940
  797MOL0     H 7594  11.017  10.079   9.684 -0.0148 -0.2252  0.6744
  797MOL0     H 7595  10.757  10.084   9.662 -0.9616  0.4436 -1.8856
  798MOL0     O 7596  10.076   9.778  10.840 -0.3123 -0.2504  0.3809
  798MOL0     C 7597  10.127   9.875  10.780 -0.1266  0.6904  0.3537
  798MOL0     O 7598  10.075   9.996  10.762 -0.4289 -0.4994 -0.3331
  798MOL0     C 7599   9.960  10.048  10.811 -0.4736 -0.4877 -0.0536
  798MOL0     C 7600   9.917  10.167  10.744 -0.0532  0.2086  0.7789
  798MOL0     C 7601   9.795  10.219  10.784  0.1205 -0.1210 -0.5000
  798MOL0     C 7602   9.724  10.163  10.888  0.0930 -1.2227 -0.2687
  798MOL0     O 7603   9.615  10.218  10.941 -0.3112  0.3835  0.1521
  798MOL0     C 7604   9.520  10.292  10.852 -0.2836  0.5416 -0.0416
  798MOL0     C 7605   9.408  10.367  10.925 -0.3388  0.6885 -0.1446
  798MOL0     C 7606   9.346  10.286  11.037 -0.9319 -0.0218 -1.1851
  798MOL0     C 7607   9.300  10.141  11.001 -0.0232  0.0255 -0.2679
  798MOL0     C 7608   9.207  10.140  10.878  0.2825 -0.0970  0.9053
  798MOL0     C 7609   9.066  10.197  10.911 -0.4055 -1.1008  1.1873
  798MOL0     C 7610   8.990  10.273  10.792 -0.0799 -0.7208 -0.3291
  798MOL0     C 7611   8.860  10.346  10.832 -0.6250  0.2727  0.4874
  798MOL0     N 7612   8.747  10.259  10.798  0.5698  0.8850 -0.0543
  798MOL0     C 7613   8.624  10.275  10.840  0.6604  0.2188  0.0457
  798MOL0     C 7614   8.551  10.169  10.795 -0.7536 -0.8462 -0.2105
  798MOL0     C 7615   8.398  10.137  10.812 -0.3760 -1.0537  0.2868
  798MOL0     C 7616   8.377   9.997  10.882  0.8038  0.0076 -0.1703
  798MOL0     C 7617   8.221   9.984  10.906 -0.9198 -0.3573  0.2924
  798MOL0     C 7618   8.177   9.854  10.974 -0.6504  0.0979 -0.2796
  798MOL0     O 7619   8.089   9.876  11.082  0.2705 -0.0821 -0.1935
  798MOL0     C 7620   7.957   9.851  11.051  0.0053 -0.9124  0.1693
  798MOL0     C 7621   7.895   9.880  10.925 -0.4508 -0.2051  0.1116
  798MOL0     C 7622   7.758   9.866  10.901  0.4379  0.0690 -0.3409
  798MOL0     C 7623   7.702   9.912  10.771 -0.1522 -0.5707  0.3967
  798MOL0     C 7624   7.689   9.814  11.011  1.0294  0.6519 -0.5823
  798MOL0     C 7625   7.542   9.774  11.009  0.8911  0.2715  0.6391
  798MOL0     O 7626   7.479   9.757  11.125 -0.6983  0.4953 -0.9573
  798MOL0     C 7627   7.342   9.743  11.134 -0.2189  0.0230 -0.2140
  798MOL0     C 7628   7.276   9.626  11.173  0.2472 -0.0523 -0.5382
  798MOL0     C 7629   7.140   9.610  11.169  0.5979  0.6707  0.8766
  798MOL0     C 7630   7.060   9.709  11.121 -0.9401 -0.1841  0.2247
  798MOL0     O 7631   6.923   9.678  11.124  0.2016  0.3216 -0.3408
  798MOL0     C 7632   6.839   9.775  11.058  0.1760 -0.1639  0.2646
  798MOL0     C 7633   6.686   9.728  11.052  0.1862 -0.9229 -0.0269
  798MOL0     C 7634   6.630   9.706  11.196 -0.4852 -0.8170  0.2995
  798MOL0     C 7635   6.486   9.665  11.202  0.2673  0.6060  0.3833
  798MOL0     C 7636   6.440   9.633  11.345  0.9029  0.0281 -0.1242
  798MOL0     C 7637   6.306   9.561  11.352  0.2135 -0.2643  0.3269
  798MOL0     C 7638   6.190   9.639  11.293 -0.0671 -0.3149 -0.2801
  798MOL0     C 7639   6.065   9.572  11.340 -0.7664  0.6475 -0.2455
  798MOL0    Cl 7640   6.051   9.421  11.255 -0.0665  0.3216  0.3079
  798MOL0     C 7641   7.125   9.831  11.067  0.8788  0.3102 -0.1980
  798MOL0     C 7642   7.262   9.844  11.076 -0.2523 -0.3488 -0.3882
  798MOL0     O 7643   7.489   9.753  10.899 -0.3548  0.4832  0.0994
  798MOL0     C 7644   7.746   9.794  11.136  0.0456  0.6076  0.1997
  798MOL0     C 7645   7.882   9.805  11.157  1.0875 -0.5281  0.5421
  798MOL0     N 7646   8.641  10.077  10.748 -0.0192  0.3691  0.7433
  798MOL0     N 7647   8.758  10.135  10.741 -0.2874  0.9042 -0.2174
  798MOL0     C 7648   9.765  10.052  10.963 -0.9572 -0.1120  0.2075
  798MOL0     C 7649   9.884   9.988  10.918  0.1559 -0.3419 -1.0444
  798MOL0     C 7650  10.275   9.868  10.733  0.4928  0.2382 -0.6078
  798MOL0     C 7651  10.350   9.755  10.767 -0.1026  0.0520 -0.0254
  798MOL0     C 7652  10.486   9.751  10.742 -0.4330 -1.1989  0.7242
  798MOL0     C 7653  10.559   9.868  10.701  0.6561  0.5553  0.7485
  798MOL0     O 7654  10.698   9.858  10.711  0.3274 -0.1642 -0.3365
  798MOL0     C 7655  10.774   9.967  10.669 -0.8059 -0.0195  0.4940
  798MOL0     C 7656  10.921   9.908  10.642  1.0819  0.4266 -0.4694
  798MOL0     C 7657  10.973   9.872  10.779 -0.1772  0.0796 -0.5954
  798MOL0     C 7658  11.119   9.837  10.773  0.6131  0.2519  0.2883
  798MOL0     C 7659  11.214   9.952  10.748 -0.1759  0.2490  0.6471
  798MOL0     C 7660  11.299  10.041  10.734 -0.3370 -0.0463 -0.5785
  798MOL0     C 7661  10.484   9.981  10.662  0.2377 -0.0511 -1.2140
  798MOL0     C 7662  10.337   9.973  10.669 -0.5981  0.3106 -0.6528
  798MOL0     H 7663   9.979  10.217  10.670 -0.9464  1.0116  0.5511
  798MOL0     H 7664   9.766  10.314  10.741 -1.5673  0.8573  2.5629
  798MOL0     H 7665   9.584  10.362  10.798  1.5980 -1.9845 -1.2950
  798MOL0     H 7666   9.478  10.219  10.782 -0.2855 -0.0483  0.5600
  798MOL0     H 7667   9.438  10.461  10.973  1.7636 -0.3311  0.6642
  798MOL0     H 7668   9.337  10.388  10.845 -2.1909  3.7253  2.0850
  798MOL0     H 7669   9.414  10.266  11.120  0.5076  1.2051 -2.0257
  798MOL0     H 7670   9.260  10.344  11.073 -0.5607  1.0823 -2.0258
  798MOL0     H 7671   9.379  10.070  10.976 -1.7292 -2.7273  1.5322
  798MOL0     H 7672   9.249  10.101  11.089 -0.8882  0.6310 -0.4809
  798MOL0     H 7673   9.249  10.192  10.791 -1.1680 -0.6327 -0.1509
  798MOL0     H 7674   9.190  10.038  10.844 -2.1612  0.8330 -0.9461
  798MOL0     H 7675   9.002  10.120  10.954 -0.3514 -0.3337  2.7020
  798MOL0     H 7676   9.073  10.273  10.989 -0.4465 -0.8470  0.9450
  798MOL0     H 7677   9.055  10.348  10.746  0.2284 -1.5918 -1.3861
  798MOL0     H 7678   8.970  10.201  10.711  2.1322 -1.4805 -0.2864
  798MOL0     H 7679   8.858  10.442  10.780  2.0419 -0.6320 -1.4942
  798MOL0     H 7680   8.865  10.368  10.939  2.8665  1.3342  0.2057
  798MOL0     H 7681   8.598  10.367  10.892  3.0703  0.9524  0.0509
  798MOL0     H 7682   8.356  10.224  10.863  0.2273 -0.2733 -0.5162
  798MOL0     H 7683   8.344  10.128  10.717 -1.6573  0.3877  0.8391
  798MOL0     H 7684   8.443   9.992  10.969  0.8830 -1.1548 -0.2790
  798MOL0     H 7685   8.405   9.913  10.818 -1.4360  1.0066 -2.6313
  798MOL0     H 7686   8.156   9.996  10.819  0.9272  0.5632 -1.0524
  798MOL0     H 7687   8.202  10.068  10.973  0.1439  0.1497 -0.0080
  798MOL0     H 7688   8.262   9.802  11.019 -0.6871 -0.7539 -1.1611
  798MOL0     H 7689   8.140   9.785  10.899 -0.8454 -0.1892  0.0785
  798MOL0     H 7690   7.961   9.909  10.844 -2.1281 -0.1891 -1.2951
  798MOL0     H 7691   7.669   9.835  10.700 -2.8308 -1.3053  2.2905
  798MOL0     H 7692   7.620   9.978  10.799  0.5621  0.4434  0.1483
  798MOL0     H 7693   7.776   9.981  10.730 -0.9519 -0.1485 -0.3770
  798MOL0     H 7694   7.329   9.543  11.219  1.1464  1.5841  1.5210
  798MOL0     H 7695   7.094   9.515  11.197 -1.9708  1.2146 -1.1013
  798MOL0     H 7696   6.846   9.875  11.104  1.1843 -0.9790  1.9689
  798MOL0     H 7697   6.859   9.773  10.951 -2.7554 -2.1561 -0.3499
  798MOL0     H 7698   6.613   9.798  11.011  1.3669  0.3278 -0.1004
  798MOL0     H 7699   6.700   9.639  10.991  2.7642 -0.1673 -0.6974
  798MOL0     H 7700   6.650   9.795  11.257  0.7662  0.1658 -1.4518
  798MOL0     H 7701   6.691   9.621  11.227  2.2326  1.0567  0.4176
  798MOL0     H 7702   6.424   9.753  11.180  0.3384  0.4885 -0.2916
  798MOL0     H 7703   6.464   9.588  11.128 -2.1807 -0.4983  2.1070
  798MOL0     H 7704   6.435   9.725  11.404 -1.1632 -0.6369  0.8286
  798MOL0     H 7705   6.520   9.569  11.383 -0.6701 -1.0665  1.5740
  798MOL0     H 7706   6.311   9.465  11.298 -1.6671 -0.3010  0.1677
  798MOL0     H 7707   6.286   9.545  11.458  0.8513  0.7016  0.5991
  798MOL0     H 7708   6.186   9.621  11.186 -5.3135  0.6726 -0.5210
  798MOL0     H 7709   6.195   9.748  11.300  2.2924 -0.3575 -0.4684
  798MOL0     H 7710   5.972   9.626  11.318 -2.1045 -1.8601 -1.0843
  798MOL0     H 7711   6.071   9.558  11.448  0.2472  1.0757 -0.2415
  798MOL0     H 7712   7.063   9.913  11.033  0.7814 -0.3881 -1.8116
  798MOL0     H 7713   7.318   9.928  11.038  2.8686 -1.6494  0.9718
  798MOL0     H 7714   7.696   9.759  11.225 -0.6369 -2.5868 -1.2784
  798MOL0     H 7715   7.926   9.793  11.256 -0.8688  3.9930  2.2614
  798MOL0     H 7716   9.717  10.015  11.053 -2.5170 -3.3077 -1.7527
  798MOL0     H 7717   9.912   9.893  10.961 -0.1604  0.6511  1.5350
  798MOL0     H 7718  10.293   9.668  10.800 -4.8234  3.0795  0.7398
  798MOL0     H 7719  10.540   9.657  10.742 -1.2405 -1.7297 -1.1528
  798MOL0     H 7720  10.729  10.017  10.583 -0.1775 -1.5689 -0.7966
  798MOL0     H 7721  10.787  10.041  10.749  0.2830 -1.7703  2.0221
  798MOL0     H 7722  10.979   9.994  10.607  0.6868  1.7523  1.9112
  798MOL0     H 7723  10.919   9.817  10.580 -2.6400 -0.4003  0.5926
  798MOL0     H 7724  10.926   9.783  10.821 -0.9843  0.0417 -1.5531
  798MOL0     H 7725  10.966   9.949  10.856 -1.2153 -1.1808  0.6187
  798MOL0     H 7726  11.133   9.752  10.706 -0.2388 -0.0134  0.4455
  798MOL0     H 7727  11.137   9.798  10.874 -2.0193 -0.9055  0.3764
  798MOL0     H 7728  11.377  10.115  10.735 -3.4201  3.4934 -0.1360
  798MOL0     H 7729  10.533  10.073  10.634  0.4077 -0.4186 -2.1607
  798MOL0     H 7730  10.276  10.053  10.628  2.6695  2.6611 -1.3663
  799MOL0     O 7731   2.262   5.805   4.214  0.6333  0.6247  0.0024
  799MOL0     C 7732   2.328   5.830   4.314  0.0765 -0.1572 -0.0057
  799MOL0     O 7733   2.286   5.873   4.439  0.1928  0.1896  0.0632
  799MOL0     C 7734   2.148   5.873   4.466 -0.0813 -0.3952  0.2573
  799MOL0     C 7735   2.098   5.967   4.555 -0.2681  0.3650  0.1731
  799MOL0     C 7736   1.968   5.985   4.594  0.6775 -0.2540 -0.0087
  799MOL0     C 7737   1.870   5.902   4.531 -0.6728  0.8561 -0.0074
  799MOL0     O 7738   1.739   5.892   4.567 -0.3881 -1.0531 -0.8228
  799MOL0     C 7739   1.675   5.995   4.647 -0.5060  0.5768  0.1495
  799MOL0     C 7740   1.531   5.962   4.684 -0.3852 -0.3766 -0.9929
  799MOL0     C 7741   1.452   5.921   4.565 -0.2534  0.0235 -0.8111
  799MOL0     C 7742   1.300   5.919   4.604 -0.6787  0.3480 -0.5334
  799MOL0     C 7743   1.203   5.891   4.489 -0.9054  0.1023 -1.1053
  799MOL0     C 7744   1.065   5.860   4.547 -0.3452 -0.1663 -0.6966
  799MOL0     C 7745   0.966   5.814   4.442  0.7349  0.4857 -0.2007
  799MOL0     C 7746   0.931   5.934   4.353  0.4747 -0.3480  0.7062
  799MOL0     N 7747   0.803   5.912   4.281  0.3361  0.1822  1.1203
  799MOL0     C 7748   0.687   5.974   4.312  0.7167  0.4395  0.1117
  799MOL0     C 7749   0.614   5.949   4.197 -0.2460  0.3950 -0.3273
  799MOL0     C 7750   0.467   5.985   4.185  0.4815 -0.2746 -1.1018
  799MOL0     C 7751   0.375   5.887   4.264 -0.1486  0.6928  0.0033
  799MOL0     C 7752   0.225   5.909   4.253 -0.1338 -0.0304 -0.1636
  799MOL0     C 7753   0.155   5.794   4.323  0.1019  0.7132 -0.5009
  799MOL0     O 7754   0.021   5.792   4.274  0.4882 -0.0566 -0.4124
  799MOL0     C 7755  -0.070   5.697   4.300  0.5909  0.6833 -0.8851
  799MOL0     C 7756  -0.051   5.577   4.368  0.6968  0.5984  0.0627
  799MOL0     C 7757  -0.162   5.497   4.408 -0.0251 -0.1596 -0.4051
  799MOL0     C 7758  -0.132   5.377   4.490  0.1947  0.0384 -0.2628
  799MOL0     C 7759  -0.285   5.532   4.355  0.8102  0.5178 -0.0641
  799MOL0     C 7760  -0.403   5.449   4.389  0.1813 -0.6982 -0.0461
  799MOL0     O 7761  -0.515   5.514   4.362  0.1356 -0.3363 -0.5201
  799MOL0     C 7762  -0.628   5.454   4.393 -0.9872  0.9896  0.4628
  799MOL0     C 7763  -0.709   5.408   4.288 -0.1586 -0.5741  0.6071
  799MOL0     C 7764  -0.833   5.343   4.312 -0.4576 -0.3319  0.5124
  799MOL0     C 7765  -0.863   5.340   4.454  1.1194  0.5756  0.0087
  799MOL0     O 7766  -0.982   5.294   4.505 -0.5224  0.6845  0.1909
  799MOL0     C 7767  -1.052   5.186   4.437 -0.1468 -0.4901 -0.7989
  799MOL0     C 7768  -1.195   5.228   4.404 -0.0112  0.5296 -0.2767
  799MOL0     C 7769  -1.202   5.344   4.311  0.0829 -1.0011 -0.5246
  799MOL0     C 7770  -1.349   5.373   4.280  0.5951 -0.2529 -0.8635
  799MOL0     C 7771  -1.365   5.452   4.145  0.0937 -0.2416  1.0276
  799MOL0     C 7772  -1.507   5.514   4.137 -0.3643 -0.1467  0.0532
  799MOL0     C 7773  -1.621   5.402   4.110 -0.6794 -1.2527  0.0174
  799MOL0     C 7774  -1.757   5.485   4.106  0.3741  0.6931 -0.2918
  799MOL0    Cl 7775  -1.769   5.573   3.956  0.1140 -0.1332 -0.5556
  799MOL0     C 7776  -0.765   5.371   4.558  0.4175 -0.3080 -0.4234
  799MOL0     C 7777  -0.654   5.435   4.528 -0.3190 -0.4856  0.1846
  799MOL0     O 7778  -0.398   5.341   4.442 -0.3358  0.4935  0.2723
  799MOL0     C 7779  -0.300   5.644   4.270 -0.4774 -0.3754 -0.1083
  799MOL0     C 7780  -0.196   5.732   4.255  0.2301 -0.3803  0.4245
  799MOL0     N 7781   0.688   5.873   4.107 -0.1402  0.2590  0.8197
  799MOL0     N 7782   0.802   5.855   4.156  0.9928  0.5399 -0.8463
  799MOL0     C 7783   1.913   5.812   4.433  0.1221 -1.1347  0.1955
  799MOL0     C 7784   2.053   5.796   4.401  0.6466 -0.1640  0.5752
  799MOL0     C 7785   2.473   5.814   4.297 -1.0293 -0.2293  0.1083
  799MOL0     C 7786   2.527   5.801   4.165 -1.0524  0.1878  0.0516
  799MOL0     C 7787   2.669   5.807   4.145  0.5229  0.5193 -0.2130
  799MOL0     C 7788   2.758   5.814   4.257  1.0999  0.0376  0.3923
  799MOL0     O 7789   2.894   5.815   4.255 -0.2682  0.4892 -0.3810
  799MOL0     C 7790   2.970   5.829   4.138 -0.2030  0.8208 -0.6517
  799MOL0     C 7791   3.116   5.837   4.190 -0.2189  0.9571 -0.2178
  799MOL0     C 7792   3.147   5.962   4.277 -0.6250  1.0147  0.0510
  799MOL0     C 7793   3.111   6.089   4.207 -0.5532  0.0384 -0.0750
  799MOL0     C 7794   3.180   6.093   4.076 -0.0303 -0.1688 -0.5620
  799MOL0     C 7795   3.212   6.095   3.963  0.1170  0.2836  0.2892
  799MOL0     C 7796   2.702   5.814   4.380  0.9450  0.0081 -0.8413
  799MOL0     C 7797   2.568   5.821   4.404  0.1990  0.0658  0.3738
  799MOL0     H 7798   2.170   6.042   4.586  1.2436 -0.0796 -2.0180
  799MOL0     H 7799   1.943   6.065   4.663  0.7967  0.5018 -0.8233
  799MOL0     H 7800   1.738   6.023   4.732  0.3342  2.4125 -1.0014
  799MOL0     H 7801   1.677   6.087   4.588  3.3690 -1.7026 -3.8357
  799MOL0     H 7802   1.526   5.885   4.762 -1.5629  0.7380  0.0883
  799MOL0     H 7803   1.478   6.050   4.722 -1.8043 -1.4047 -0.5025
  799MOL0     H 7804   1.473   5.985   4.479  1.1062 -0.0906 -0.5949
  799MOL0     H 7805   1.484   5.821   4.536 -0.8718 -1.8396  3.9713
  799MOL0     H 7806   1.292   5.842   4.681  1.8425  0.8747  0.3808
  799MOL0     H 7807   1.275   6.015   4.650 -1.5200  1.1326 -2.5285
  799MOL0     H 7808   1.200   5.979   4.424  1.4982  0.3832 -0.9481
  799MOL0     H 7809   1.240   5.802   4.436 -2.0227 -0.9608 -0.1667
  799MOL0     H 7810   1.075   5.768   4.606 -1.0635  1.7737  2.6900
  799MOL0     H 7811   1.012   5.925   4.617 -1.6914 -2.2779  0.3447
  799MOL0     H 7812   1.015   5.738   4.381  0.2917  1.4715 -1.8647
  799MOL0     H 7813   0.880   5.773   4.495 -1.7228  3.6748 -1.3908
  799MOL0     H 7814   1.014   5.951   4.284  1.8801 -1.3404  2.0779
  799MOL0     H 7815   0.925   6.027   4.411 -0.7363  1.9000 -2.6878
  799MOL0     H 7816   0.666   6.025   4.406  0.6860 -1.8436  1.3968
  799MOL0     H 7817   0.452   6.089   4.215 -1.9389 -0.3236 -1.9208
  799MOL0     H 7818   0.430   5.986   4.082 -0.3209  2.8737 -0.8778
  799MOL0     H 7819   0.404   5.891   4.370  3.7482 -0.0930 -0.8739
  799MOL0     H 7820   0.400   5.792   4.217  0.8114  1.3289 -0.7974
  799MOL0     H 7821   0.195   5.923   4.149  1.9682  1.0998 -0.6686
  799MOL0     H 7822   0.197   6.004   4.301  2.6034 -0.6002  2.9427
  799MOL0     H 7823   0.151   5.800   4.432  1.6871  0.4739 -0.4113
  799MOL0     H 7824   0.204   5.699   4.302  0.0630  0.8136 -1.0588
  799MOL0     H 7825   0.049   5.540   4.390  0.3017 -0.8187 -0.4258
  799MOL0     H 7826  -0.151   5.292   4.424 -0.1694 -0.0511 -0.0412
  799MOL0     H 7827  -0.029   5.370   4.528 -0.3964 -3.0723  1.0320
  799MOL0     H 7828  -0.194   5.362   4.579 -1.6245  3.3241 -0.8225
  799MOL0     H 7829  -0.682   5.439   4.187 -0.5458 -3.1716 -0.3853
  799MOL0     H 7830  -0.893   5.302   4.232  0.3223 -1.3229  0.4179
  799MOL0     H 7831  -0.991   5.154   4.352  4.0327  2.6506  0.6741
  799MOL0     H 7832  -1.060   5.104   4.508 -1.5815  0.8582  0.6780
  799MOL0     H 7833  -1.239   5.139   4.358  0.3956  1.3911 -2.4507
  799MOL0     H 7834  -1.252   5.246   4.495  0.4382 -1.5724  0.4979
  799MOL0     H 7835  -1.149   5.307   4.222  1.9276 -1.2773  0.6319
  799MOL0     H 7836  -1.160   5.435   4.354 -1.9823 -0.3194  0.1570
  799MOL0     H 7837  -1.405   5.279   4.276  0.2146 -0.0453 -0.5124
  799MOL0     H 7838  -1.394   5.427   4.364 -1.4004 -2.1557 -0.6336
  799MOL0     H 7839  -1.351   5.378   4.066  0.7609  0.6515  0.2893
  799MOL0     H 7840  -1.292   5.534   4.144 -0.3961  0.2025  0.8075
  799MOL0     H 7841  -1.536   5.554   4.235 -0.4249  0.1299 -0.0772
  799MOL0     H 7842  -1.514   5.591   4.060  1.1717 -1.2277 -1.2436
  799MOL0     H 7843  -1.614   5.341   4.200 -1.3955  2.0098  2.4961
  799MOL0     H 7844  -1.616   5.347   4.016 -0.0734  0.3211 -0.9192
  799MOL0     H 7845  -1.774   5.544   4.196 -1.5082 -0.8581  0.4298
  799MOL0     H 7846  -1.848   5.425   4.108  0.0872  1.1135 -0.6622
  799MOL0     H 7847  -0.801   5.358   4.659 -0.9689  1.7236 -0.6012
  799MOL0     H 7848  -0.590   5.476   4.605 -0.3321 -1.7600  0.8956
  799MOL0     H 7849  -0.396   5.675   4.231 -0.5099 -0.7478 -0.3312
  799MOL0     H 7850  -0.200   5.827   4.204  1.4866  0.0328  1.0505
  799MOL0     H 7851   1.833   5.761   4.380  1.0834 -1.2046 -1.2474
  799MOL0     H 7852   2.083   5.731   4.319  0.4535  1.5081 -0.8855
  799MOL0     H 7853   2.465   5.796   4.077  0.4206 -0.0469 -1.0177
  799MOL0     H 7854   2.711   5.805   4.044 -1.1463 -0.4021 -0.9328
  799MOL0     H 7855   2.968   5.735   4.082  1.9499 -1.4790  2.7024
  799MOL0     H 7856   2.938   5.918   4.084  2.1467  0.4737 -2.8144
  799MOL0     H 7857   3.175   5.835   4.098 -1.3304  2.8949 -1.0280
  799MOL0     H 7858   3.146   5.744   4.241 -0.5745  1.5210  1.0636
  799MOL0     H 7859   3.252   5.958   4.307 -0.3768 -3.2614 -0.7245
  799MOL0     H 7860   3.082   5.952   4.365  0.5616 -1.3612  0.7436
  799MOL0     H 7861   3.144   6.173   4.268  2.9429 -1.8605  0.9376
  799MOL0     H 7862   3.002   6.096   4.202 -0.6296  1.7517  2.3213
  799MOL0     H 7863   3.255   6.112   3.866  2.6199  0.1258  1.2962
  799MOL0     H 7864   2.759   5.822   4.472  0.5837 -1.7001 -0.4358
  799MOL0     H 7865   2.541   5.832   4.509 -0.6324  0.3529  0.1351
  800MOL0     O 7866   0.086   2.266   7.341  0.5611 -0.2695 -0.1824
  800MOL0     C 7867   0.139   2.274   7.232  0.0842 -0.2099  0.2748
  800MOL0     O 7868   0.101   2.216   7.121  0.3213 -0.3085 -0.4024
  800MOL0     C 7869  -0.027   2.187   7.103  0.1964  0.2370 -0.1659
  800MOL0     C 7870  -0.075   2.074   7.042  0.4689 -0.0574  0.5010
  800MOL0     C 7871  -0.206   2.059   6.997 -0.0363  0.5203 -0.2922
  800MOL0     C 7872  -0.302   2.149   7.041 -0.3318 -1.1191 -0.0541
  800MOL0     O 7873  -0.431   2.125   7.010  0.1314 -0.0441 -0.1372
  800MOL0     C 7874  -0.550   2.180   7.080 -0.3005 -0.3572  0.2198
  800MOL0     C 7875  -0.669   2.101   7.040  0.5969  0.0460  0.1906
  800MOL0     C 7876  -0.792   2.140   7.124  1.4153  0.0398 -0.3976
  800MOL0     C 7877  -0.917   2.058   7.088 -0.1335  0.5865  0.3738
  800MOL0     C 7878  -1.053   2.122   7.109 -0.1196 -0.8959 -0.0675
  800MOL0     C 7879  -1.178   2.055   7.050 -0.2068 -0.1056 -0.1919
  800MOL0     C 7880  -1.161   2.024   6.900 -0.3583 -0.4195 -0.3886
  800MOL0     C 7881  -1.288   1.961   6.840 -0.2550 -0.3149 -0.9543
  800MOL0     N 7882  -1.403   2.060   6.844 -0.3599 -0.0262  0.0814
  800MOL0     C 7883  -1.425   2.187   6.780  0.2332 -0.4123 -0.3504
  800MOL0     C 7884  -1.535   2.237   6.842  0.4337  0.2440  1.2621
  800MOL0     C 7885  -1.594   2.375   6.803  0.1434  0.4464  0.1907
  800MOL0     C 7886  -1.711   2.370   6.697  0.1695  0.2621 -0.3605
  800MOL0     C 7887  -1.816   2.259   6.722  0.0458  0.1415 -0.1146
  800MOL0     C 7888  -1.950   2.285   6.659 -0.0070 -0.4448  0.6063
  800MOL0     O 7889  -2.047   2.181   6.678  0.1697 -0.4138 -0.3538
  800MOL0     C 7890  -2.175   2.184   6.636 -0.0360  0.1814  0.4139
  800MOL0     C 7891  -2.255   2.073   6.659 -0.4193  0.4719 -0.5343
  800MOL0     C 7892  -2.374   2.056   6.592 -0.5816  0.0299  0.8738
  800MOL0     C 7893  -2.454   1.933   6.616 -0.2512  0.3659 -0.5055
  800MOL0     C 7894  -2.426   2.171   6.523  0.3010  0.3573  0.8730
  800MOL0     C 7895  -2.546   2.172   6.433  0.5608  0.0581 -1.1342
  800MOL0     O 7896  -2.599   2.294   6.402 -0.2037  0.3704  0.4107
  800MOL0     C 7897  -2.716   2.294   6.335 -0.0825  0.1206  0.8628
  800MOL0     C 7898  -2.718   2.369   6.217  0.3332 -0.2854  0.3148
  800MOL0     C 7899  -2.842   2.393   6.145  0.2921 -0.0982  0.2777
  800MOL0     C 7900  -2.958   2.327   6.182  0.4258 -0.2140  0.5057
  800MOL0     O 7901  -3.077   2.340   6.118  0.4383  0.2578  0.0455
  800MOL0     C 7902  -3.079   2.381   5.978 -0.1471 -0.3987  0.3221
  800MOL0     C 7903  -3.202   2.336   5.905  0.2202  0.0651  0.2091
  800MOL0     C 7904  -3.232   2.404   5.770 -0.2058  0.1619  0.1235
  800MOL0     C 7905  -3.314   2.527   5.802  0.9244 -0.1873 -0.5743
  800MOL0     C 7906  -3.363   2.601   5.684 -0.1595  0.2292  0.7961
  800MOL0     C 7907  -3.450   2.732   5.715  0.3088  0.1625 -0.3002
  800MOL0     C 7908  -3.466   2.796   5.578 -0.4428 -0.3162 -0.2367
  800MOL0     C 7909  -3.348   2.887   5.546  1.2695  0.1832 -0.2430
  800MOL0    Cl 7910  -3.360   3.038   5.644 -0.2410  0.0424 -0.2278
  800MOL0     C 7911  -2.959   2.264   6.304  0.2034  0.1556 -1.2076
  800MOL0     C 7912  -2.837   2.234   6.370  0.2951 -0.0245 -0.7706
  800MOL0     O 7913  -2.581   2.068   6.382 -0.4162 -0.3669 -0.1760
  800MOL0     C 7914  -2.355   2.289   6.517 -0.1940  0.0461 -0.4387
  800MOL0     C 7915  -2.221   2.292   6.560 -0.1777 -0.1626  0.3724
  800MOL0     N 7916  -1.586   2.144   6.930  0.2860 -0.0617 -0.2161
  800MOL0     N 7917  -1.499   2.046   6.932  0.6270  0.0825 -0.3217
  800MOL0     C 7918  -0.261   2.261   7.119  0.0231  0.8187  0.5202
  800MOL0     C 7919  -0.125   2.274   7.150  0.2562  0.4106 -0.1060
  800MOL0     C 7920   0.288   2.318   7.240  1.0530 -0.1231  0.1217
  800MOL0     C 7921   0.355   2.355   7.355 -0.4074 -0.0094 -0.2979
  800MOL0     C 7922   0.493   2.392   7.360 -0.6336  0.3748 -0.0301
  800MOL0     C 7923   0.566   2.390   7.241 -0.8085 -0.6934 -0.5125
  800MOL0     O 7924   0.702   2.422   7.227  0.1951  0.1224 -0.0807
  800MOL0     C 7925   0.773   2.456   7.341  0.5603 -0.2779 -0.0830
  800MOL0     C 7926   0.918   2.500   7.307 -1.0979  0.7254  0.6009
  800MOL0     C 7927   1.011   2.378   7.280  0.1519  0.4458 -1.5313
  800MOL0     C 7928   1.164   2.408   7.282  0.3284 -0.5514  0.9957
  800MOL0     C 7929   1.201   2.518   7.187 -0.0807 -0.0290  0.7817
  800MOL0     C 7930   1.221   2.610   7.106 -0.9533  0.5153  0.9986
  800MOL0     C 7931   0.505   2.345   7.125 -0.1302 -0.1566  0.1085
  800MOL0     C 7932   0.369   2.316   7.118 -0.6529 -0.2833  0.2343
  800MOL0     H 7933  -0.004   1.994   7.028  1.7957  0.8208  1.8904
  800MOL0     H 7934  -0.233   1.972   6.939  0.7456  0.7033 -0.9470
  800MOL0     H 7935  -0.532   2.189   7.187  0.5960 -3.2794  0.4204
  800MOL0     H 7936  -0.565   2.280   7.038  2.0473 -0.0093  0.1167
  800MOL0     H 7937  -0.679   2.120   6.932 -0.0031  4.1090  0.8109
  800MOL0     H 7938  -0.653   1.995   7.060 -0.5913  0.0710  1.3737
  800MOL0     H 7939  -0.759   2.138   7.228  1.2283  2.8712 -0.1997
  800MOL0     H 7940  -0.820   2.243   7.100 -2.3879 -1.1601 -1.9878
  800MOL0     H 7941  -0.904   2.042   6.980  0.2223  2.6470  0.0628
  800MOL0     H 7942  -0.930   1.958   7.128 -0.6977  0.6516  0.3596
  800MOL0     H 7943  -1.068   2.114   7.217  0.2575 -1.6262 -0.0617
  800MOL0     H 7944  -1.042   2.222   7.068  2.9281 -0.7981  0.7902
  800MOL0     H 7945  -1.197   1.960   7.101 -0.4055 -1.4823 -2.6352
  800MOL0     H 7946  -1.265   2.120   7.063 -1.1270 -1.4638  0.6864
  800MOL0     H 7947  -1.135   2.114   6.843 -0.4429 -0.5646 -0.6591
  800MOL0     H 7948  -1.072   1.961   6.896  1.8118  2.1946  2.2064
  800MOL0     H 7949  -1.302   1.879   6.911  1.5734  1.0751  1.1240
  800MOL0     H 7950  -1.279   1.938   6.733  1.5568  2.7007 -1.5624
  800MOL0     H 7951  -1.362   2.233   6.705 -0.4519 -0.8146 -1.1865
  800MOL0     H 7952  -1.654   2.423   6.880  2.2400  1.7223  1.1216
  800MOL0     H 7953  -1.514   2.449   6.790  0.7125 -0.1711  0.1143
  800MOL0     H 7954  -1.659   2.356   6.602 -0.5055  1.2465 -0.9034
  800MOL0     H 7955  -1.758   2.469   6.693  0.6562  0.5453  0.5305
  800MOL0     H 7956  -1.835   2.244   6.829  1.2638 -1.4197 -0.0858
  800MOL0     H 7957  -1.766   2.168   6.687  1.6597  0.4330  1.3246
  800MOL0     H 7958  -1.944   2.296   6.550 -2.1751  0.0776  0.4931
  800MOL0     H 7959  -1.989   2.379   6.699  1.5495  0.6673 -0.3819
  800MOL0     H 7960  -2.222   1.986   6.716 -0.2282  0.0892 -1.2205
  800MOL0     H 7961  -2.549   1.974   6.651  2.3167  3.1696  4.2657
  800MOL0     H 7962  -2.467   1.880   6.521  2.0942  0.6821 -1.0553
  800MOL0     H 7963  -2.405   1.856   6.677  2.1950  2.0594 -0.1654
  800MOL0     H 7964  -2.628   2.419   6.182 -0.5414  0.5796 -0.7448
  800MOL0     H 7965  -2.856   2.468   6.068  0.7842 -0.4133 -0.1262
  800MOL0     H 7966  -3.060   2.489   5.977  1.2477 -0.6154 -1.0869
  800MOL0     H 7967  -3.004   2.341   5.908  1.2211  0.0175  1.4970
  800MOL0     H 7968  -3.194   2.229   5.885  0.8800  0.2805 -0.7251
  800MOL0     H 7969  -3.290   2.337   5.970  1.9012  0.7226  2.6102
  800MOL0     H 7970  -3.293   2.340   5.706  1.2935  0.6409 -1.8773
  800MOL0     H 7971  -3.142   2.433   5.716  0.7653 -1.3444  0.8408
  800MOL0     H 7972  -3.402   2.513   5.864  2.2894  1.3930  1.9014
  800MOL0     H 7973  -3.252   2.597   5.860 -0.3672  0.8551 -0.4120
  800MOL0     H 7974  -3.435   2.534   5.635 -2.4126  1.1200  2.6617
  800MOL0     H 7975  -3.273   2.624   5.628 -0.6639 -0.1713 -0.2164
  800MOL0     H 7976  -3.543   2.708   5.767 -0.0184  1.7650 -0.0851
  800MOL0     H 7977  -3.389   2.798   5.777 -0.4143  0.8609 -0.3205
  800MOL0     H 7978  -3.557   2.857   5.580 -1.9558 -2.4685  0.2034
  800MOL0     H 7979  -3.476   2.725   5.496 -0.4437  0.0784 -0.5841
  800MOL0     H 7980  -3.360   2.920   5.442  1.8572  1.2353  0.0161
  800MOL0     H 7981  -3.253   2.834   5.556  0.1283 -1.8899  0.2850
  800MOL0     H 7982  -3.052   2.240   6.354  1.0807  1.9272  1.5111
  800MOL0     H 7983  -2.829   2.174   6.460  0.5874  0.8511 -0.2019
  800MOL0     H 7984  -2.399   2.378   6.473 -0.4696  1.2166  1.9920
  800MOL0     H 7985  -2.161   2.383   6.556  1.2797 -1.1424 -1.7750
  800MOL0     H 7986  -0.337   2.323   7.164 -0.3586  0.0219  1.0032
  800MOL0     H 7987  -0.094   2.360   7.208 -1.1223  1.9022 -1.4955
  800MOL0     H 7988   0.300   2.361   7.449  0.0186 -2.7856  0.2353
  800MOL0     H 7989   0.547   2.417   7.451 -0.0909 -3.8844  1.0093
  800MOL0     H 7990   0.724   2.543   7.387 -1.7048 -0.8392 -1.2959
  800MOL0     H 7991   0.770   2.374   7.414  2.2077 -0.1021  0.2302
  800MOL0     H 7992   0.954   2.551   7.397  1.9771 -0.0233 -0.0943
  800MOL0     H 7993   0.920   2.554   7.212  0.0778 -0.0715  0.1633
  800MOL0     H 7994   0.971   2.316   7.199 -0.3923  1.0497 -1.7362
  800MOL0     H 7995   0.990   2.316   7.368 -3.1258 -0.0896 -2.5492
  800MOL0     H 7996   1.209   2.317   7.242 -1.6907 -0.8919 -0.6912
  800MOL0     H 7997   1.195   2.433   7.384  1.5916 -0.8738  0.7044
  800MOL0     H 7998   1.230   2.671   7.018  0.2204 -3.0935 -1.5959
  800MOL0     H 7999   0.570   2.351   7.038 -0.9531  0.4662 -0.4889
  800MOL0     H 8000   0.330   2.283   7.022 -0.1171  0.7740 -0.3665
  801MOL0     O 8001  11.155   6.387   3.057  0.1507 -0.1834  0.4770
  801MOL0     C 8002  11.179   6.272   3.030  0.0018  0.8670  0.4253
  801MOL0     O 8003  11.124   6.197   2.935  0.0845  0.0556 -0.2049
  801MOL0     C 8004  11.022   6.245   2.863 -0.2992  0.1566  0.0004
  801MOL0     C 8005  11.042   6.304   2.741  0.2473 -0.0683 -0.2110
  801MOL0     C 8006  10.936   6.343   2.670 -0.2525  0.4120 -0.6120
  801MOL0     C 8007  10.802   6.326   2.713  0.4556  0.1198  0.3615
  801MOL0     O 8008  10.697   6.369   2.632  0.7230  0.3929 -0.6974
  801MOL0     C 8009  10.567   6.313   2.664 -0.2199 -0.6811  0.7794
  801MOL0     C 8010  10.462   6.352   2.564 -0.1946 -0.5987 -0.0334
  801MOL0     C 8011  10.332   6.304   2.615  0.1680 -0.0124  0.2503
  801MOL0     C 8012  10.222   6.358   2.522  0.1673 -0.2249  0.9730
  801MOL0     C 8013  10.086   6.330   2.574 -0.3201  0.6856 -0.1793
  801MOL0     C 8014   9.980   6.407   2.488 -0.7300  0.2735  0.2338
  801MOL0     C 8015   9.842   6.375   2.539 -0.3795 -0.6367 -0.0214
  801MOL0     C 8016   9.747   6.464   2.458 -0.0901 -0.1679 -0.0952
  801MOL0     N 8017   9.607   6.430   2.491 -1.0367  0.2609 -0.2439
  801MOL0     C 8018   9.536   6.478   2.592 -0.0666  0.8846 -0.4119
  801MOL0     C 8019   9.408   6.434   2.557 -0.7238 -1.3396 -0.4030
  801MOL0     C 8020   9.280   6.494   2.623 -0.9816  0.5891 -0.3287
  801MOL0     C 8021   9.226   6.605   2.535  0.5059  0.7615 -0.5497
  801MOL0     C 8022   9.093   6.655   2.580  0.3077  0.0448 -1.2189
  801MOL0     C 8023   8.974   6.567   2.558  1.4398  0.6374 -0.7447
  801MOL0     O 8024   8.854   6.633   2.593  0.4164 -0.0798 -0.1844
  801MOL0     C 8025   8.756   6.537   2.619  0.2100 -0.3176 -0.0325
  801MOL0     C 8026   8.771   6.427   2.696 -0.3325  0.0637  0.5591
  801MOL0     C 8027   8.673   6.330   2.715  0.6949  0.5897  0.3317
  801MOL0     C 8028   8.725   6.217   2.815  0.7859 -0.7257  0.2500
  801MOL0     C 8029   8.538   6.348   2.657 -0.9200  0.2114  0.1663
  801MOL0     C 8030   8.427   6.248   2.675 -0.8723 -0.1634  0.3243
  801MOL0     O 8031   8.319   6.272   2.602  0.4421 -0.0140  0.4587
  801MOL0     C 8032   8.211   6.181   2.583 -0.0408  0.4540 -0.7204
  801MOL0     C 8033   8.093   6.234   2.531 -0.0762 -0.6252 -0.3162
  801MOL0     C 8034   7.987   6.158   2.490 -0.7334  0.6946 -0.3883
  801MOL0     C 8035   7.999   6.019   2.493  0.5505 -0.5221 -0.0228
  801MOL0     O 8036   7.900   5.940   2.445  0.4177 -0.0433  0.3284
  801MOL0     C 8037   7.763   5.980   2.475 -0.0045  0.6466  0.3136
  801MOL0     C 8038   7.659   5.872   2.466 -0.0977 -0.7812 -0.1890
  801MOL0     C 8039   7.517   5.930   2.488  0.3042  0.1191  1.0380
  801MOL0     C 8040   7.412   5.814   2.480  0.1119 -0.1123 -0.0250
  801MOL0     C 8041   7.291   5.848   2.564 -0.8497  0.4409  0.3536
  801MOL0     C 8042   7.298   5.783   2.699 -0.5360  0.4213  0.2065
  801MOL0     C 8043   7.176   5.808   2.796 -0.5101 -0.4637 -0.1549
  801MOL0     C 8044   7.036   5.763   2.753  1.0120 -0.0652  0.9186
  801MOL0    Cl 8045   7.012   5.588   2.735  0.4711 -0.0496  0.5904
  801MOL0     C 8046   8.115   5.958   2.535 -0.0375 -0.2111 -0.7244
  801MOL0     C 8047   8.220   6.038   2.593 -0.2017 -0.1218  0.6967
  801MOL0     O 8048   8.451   6.143   2.727 -0.1957 -0.2658  0.1847
  801MOL0     C 8049   8.521   6.466   2.579 -0.1659  0.1698 -0.1867
  801MOL0     C 8050   8.629   6.558   2.562 -0.1412 -0.1464 -0.3920
  801MOL0     N 8051   9.410   6.361   2.444  1.3472  0.3446  0.3435
  801MOL0     N 8052   9.526   6.364   2.404 -0.6846  0.1276  0.6203
  801MOL0     C 8053  10.782   6.268   2.843 -0.3047 -0.7218 -0.2414
  801MOL0     C 8054  10.894   6.234   2.920  0.2522  0.4341 -0.3393
  801MOL0     C 8055  11.292   6.222   3.104  0.0530  0.0508 -0.2246
  801MOL0     C 8056  11.371   6.110   3.059  0.5405  0.1861  0.5746
  801MOL0     C 8057  11.471   6.047   3.129 -0.7149 -0.1491 -0.1779
  801MOL0     C 8058  11.503   6.103   3.254  0.8304  0.9625 -1.0005
  801MOL0     O 8059  11.589   6.056   3.353 -0.0835  0.2800 -0.0875
  801MOL0     C 8060  11.670   5.946   3.332  0.1792  0.8177 -0.5800
  801MOL0     C 8061  11.754   5.928   3.458  0.8322  1.0370  0.3226
  801MOL0     C 8062  11.833   6.053   3.469 -0.7603 -0.5426 -0.4926
  801MOL0     C 8063  11.945   6.030   3.568 -0.0006  0.2623  0.2372
  801MOL0     C 8064  11.893   6.011   3.703  0.2024 -0.6694  0.1046
  801MOL0     C 8065  11.843   6.011   3.812 -0.4576 -0.4973 -0.9018
  801MOL0     C 8066  11.440   6.219   3.300 -0.2192  0.5301  0.2060
  801MOL0     C 8067  11.338   6.272   3.225 -0.3993 -0.7742 -0.0744
  801MOL0     H 8068  11.145   6.321   2.710  0.9247  0.0460  1.9285
  801MOL0     H 8069  10.961   6.389   2.575 -0.8088 -0.0313 -0.9820
  801MOL0     H 8070  10.568   6.203   2.657 -2.7240 -0.7953  1.3197
  801MOL0     H 8071  10.549   6.353   2.764  2.9806  0.6787  0.9120
  801MOL0     H 8072  10.461   6.461   2.560  3.7009 -0.2362  2.9803
  801MOL0     H 8073  10.477   6.304   2.467 -1.6204 -2.0665  0.4285
  801MOL0     H 8074  10.321   6.196   2.612 -2.2913  0.1974  0.0940
  801MOL0     H 8075  10.321   6.348   2.715  0.3675  0.6834 -0.0227
  801MOL0     H 8076  10.238   6.466   2.520 -0.0570 -0.1973 -0.6307
  801MOL0     H 8077  10.231   6.312   2.423  1.2965  1.4165  0.2691
  801MOL0     H 8078  10.056   6.225   2.564 -0.2516  0.7543 -1.2537
  801MOL0     H 8079  10.081   6.366   2.677  0.4754 -2.2392  0.9870
  801MOL0     H 8080   9.986   6.515   2.504  1.3387  0.7724 -2.9739
  801MOL0     H 8081   9.991   6.381   2.382  1.0329 -0.4985  0.5762
  801MOL0     H 8082   9.822   6.268   2.525  1.6657 -1.5828  3.2645
  801MOL0     H 8083   9.832   6.405   2.644  3.5016  2.2415 -0.2687
  801MOL0     H 8084   9.771   6.440   2.354 -1.2305  1.8174 -0.8792
  801MOL0     H 8085   9.767   6.569   2.480  2.3303 -0.3506 -1.0831
  801MOL0     H 8086   9.568   6.543   2.673 -1.2755  0.1929  0.6404
  801MOL0     H 8087   9.211   6.410   2.638 -1.1685  0.2712 -2.6159
  801MOL0     H 8088   9.309   6.527   2.723  1.7636 -0.6068 -0.6360
  801MOL0     H 8089   9.230   6.575   2.430 -1.5128  1.0169 -0.7406
  801MOL0     H 8090   9.292   6.692   2.541 -0.5177  1.7793 -2.9506
  801MOL0     H 8091   9.081   6.750   2.526  1.0412 -0.1219 -1.6832
  801MOL0     H 8092   9.091   6.666   2.688 -0.3120 -1.3776 -1.0616
  801MOL0     H 8093   8.994   6.469   2.601  2.2305  1.1546  0.1089
  801MOL0     H 8094   8.975   6.551   2.450  1.9597 -1.3854 -0.4758
  801MOL0     H 8095   8.867   6.414   2.745  1.2537  3.0987 -1.3646
  801MOL0     H 8096   8.689   6.250   2.913 -2.0220  1.1044 -1.2328
  801MOL0     H 8097   8.692   6.115   2.795  2.1926 -1.6904  2.4321
  801MOL0     H 8098   8.834   6.208   2.812  0.8316 -0.5213  1.0732
  801MOL0     H 8099   8.097   6.343   2.537 -0.0861 -0.4948 -2.0360
  801MOL0     H 8100   7.898   6.216   2.468 -0.7060  1.5479  1.5437
  801MOL0     H 8101   7.754   6.021   2.576 -1.9901  1.4985 -0.1614
  801MOL0     H 8102   7.736   6.062   2.408  3.2454  1.5277 -0.0804
  801MOL0     H 8103   7.657   5.817   2.371  0.1570 -1.2516  0.0739
  801MOL0     H 8104   7.685   5.796   2.541  2.6800  1.4213  1.2738
  801MOL0     H 8105   7.484   6.020   2.435 -1.1549 -0.9665  0.0380
  801MOL0     H 8106   7.522   5.964   2.592  2.8808 -0.2359  1.0898
  801MOL0     H 8107   7.379   5.808   2.376 -1.3971  0.9704  0.3529
  801MOL0     H 8108   7.458   5.718   2.508  1.3013 -0.7670 -3.6720
  801MOL0     H 8109   7.195   5.824   2.518 -0.7388  1.5230 -0.4894
  801MOL0     H 8110   7.302   5.957   2.571 -0.9209  0.4501  0.3240
  801MOL0     H 8111   7.308   5.675   2.686 -1.8828  0.3340 -0.2630
  801MOL0     H 8112   7.386   5.826   2.747 -0.1975  0.9222 -0.8335
  801MOL0     H 8113   7.161   5.914   2.818 -2.6682 -0.5064 -1.2511
  801MOL0     H 8114   7.199   5.753   2.888 -1.4325 -1.6410 -0.6043
  801MOL0     H 8115   7.011   5.814   2.659 -1.2723 -0.4462  1.2859
  801MOL0     H 8116   6.964   5.810   2.820 -0.7378 -0.1947 -0.7713
  801MOL0     H 8117   8.123   5.850   2.545 -0.4110 -0.2095 -0.3751
  801MOL0     H 8118   8.312   5.992   2.629 -0.0369  1.2895  2.1904
  801MOL0     H 8119   8.424   6.499   2.543  0.1460  2.7710  1.1105
  801MOL0     H 8120   8.616   6.653   2.512 -3.1547  0.3496  1.1235
  801MOL0     H 8121  10.684   6.246   2.884  0.2990 -0.9450  1.1296
  801MOL0     H 8122  10.874   6.192   3.018 -1.6667  3.1218  0.5494
  801MOL0     H 8123  11.335   6.067   2.966 -0.3485  1.6183  0.2307
  801MOL0     H 8124  11.514   5.955   3.091 -1.9002 -0.3770 -0.9931
  801MOL0     H 8125  11.621   5.853   3.303 -0.1037  1.4745 -2.3317
  801MOL0     H 8126  11.731   5.964   3.243 -0.9836 -2.2025 -2.1023
  801MOL0     H 8127  11.811   5.834   3.455 -0.4956  0.1998 -2.8170
  801MOL0     H 8128  11.683   5.923   3.540 -2.8572 -0.0520 -2.6564
  801MOL0     H 8129  11.776   6.144   3.493  0.0328  0.9427 -3.7651
  801MOL0     H 8130  11.875   6.074   3.371 -0.2460 -0.1997 -0.2063
  801MOL0     H 8131  12.006   6.121   3.566  2.8188 -1.5090 -1.3020
  801MOL0     H 8132  12.003   5.944   3.535 -0.2816  0.6839 -1.4839
  801MOL0     H 8133  11.793   6.015   3.907 -0.6059 -0.2002 -0.9880
  801MOL0     H 8134  11.469   6.263   3.395  1.6304 -2.5397  1.2021
  801MOL0     H 8135  11.286   6.356   3.271 -2.3645 -1.9986  0.0737
  802MOL0     O 8136   0.067   8.593  10.983 -0.5885  0.5876 -0.1285
  802MOL0     C 8137  -0.016   8.497  10.980 -0.9977 -0.0356 -0.2047
  802MOL0     O 8138   0.022   8.368  10.984  0.7151  0.1782 -0.2042
  802MOL0     C 8139   0.153   8.333  10.969 -0.0492  0.3844 -0.6653
  802MOL0     C 8140   0.201   8.327  10.839  0.5623  0.0853 -0.2146
  802MOL0     C 8141   0.333   8.286  10.818 -0.9312 -0.1835  0.0524
  802MOL0     C 8142   0.421   8.282  10.924  0.2078  0.2193  0.0675
  802MOL0     O 8143   0.556   8.240  10.923 -0.3708 -0.5367 -0.3576
  802MOL0     C 8144   0.613   8.206  10.798 -1.1354 -0.0305  0.5862
  802MOL0     C 8145   0.763   8.191  10.811  0.3542 -0.3005 -0.8369
  802MOL0     C 8146   0.840   8.327  10.795 -0.1308  0.1373  0.1532
  802MOL0     C 8147   0.986   8.314  10.811  0.4130  0.0824 -0.0720
  802MOL0     C 8148   1.081   8.435  10.812 -0.2283 -0.9089 -0.1645
  802MOL0     C 8149   1.081   8.515  10.942 -0.0921 -0.3995  0.3213
  802MOL0     C 8150   1.188   8.624  10.958 -0.0273  0.3564  0.3578
  802MOL0     C 8151   1.197   8.721  10.843  0.3199 -0.4579  0.3270
  802MOL0     N 8152   1.091   8.815  10.839 -0.7880 -0.1526 -0.0194
  802MOL0     C 8153   1.076   8.915  10.926  0.2013 -0.0877 -0.1916
  802MOL0     C 8154   0.943   8.950  10.911 -0.3808  0.1448 -0.3567
  802MOL0     C 8155   0.879   9.057  10.999 -0.0748  0.8648  0.4275
  802MOL0     C 8156   0.917   9.206  10.951 -0.3297  0.6315 -1.0662
  802MOL0     C 8157   0.897   9.230  10.805 -1.2146  0.3591  0.3392
  802MOL0     C 8158   0.761   9.186  10.761  0.6576  0.3906  0.1281
  802MOL0     O 8159   0.747   9.246  10.634 -0.0424 -0.0748 -0.1278
  802MOL0     C 8160   0.620   9.225  10.578 -0.8310  0.4862 -0.5386
  802MOL0     C 8161   0.611   9.257  10.444  0.5702 -0.5915  0.5114
  802MOL0     C 8162   0.495   9.249  10.373 -0.4216  0.5434  0.1612
  802MOL0     C 8163   0.495   9.308  10.234  0.2153 -0.1681 -0.0996
  802MOL0     C 8164   0.381   9.195  10.438 -0.6716  0.7888 -0.3747
  802MOL0     C 8165   0.245   9.194  10.385  0.1292  0.1860 -0.1172
  802MOL0     O 8166   0.136   9.198  10.474 -0.5762  0.0822  0.1870
  802MOL0     C 8167  -0.000   9.215  10.447  0.5272  1.1066  0.0648
  802MOL0     C 8168  -0.098   9.204  10.556  0.1093 -0.6011  0.0800
  802MOL0     C 8169  -0.225   9.222  10.535  0.1690  0.3910 -0.1656
  802MOL0     C 8170  -0.271   9.243  10.413  0.2541 -0.4748  0.2796
  802MOL0     O 8171  -0.403   9.264  10.413  0.0453 -0.4720 -0.4989
  802MOL0     C 8172  -0.483   9.280  10.295 -0.5618  0.0812 -0.2478
  802MOL0     C 8173  -0.632   9.232  10.326 -0.0312  0.1396 -0.2930
  802MOL0     C 8174  -0.695   9.298  10.450 -0.1428 -0.0599  0.5184
  802MOL0     C 8175  -0.844   9.264  10.459  0.1706  0.5302 -0.2315
  802MOL0     C 8176  -0.926   9.369  10.545 -0.0123 -0.2594 -0.1070
  802MOL0     C 8177  -1.072   9.363  10.495 -0.3485 -0.5653 -0.3974
  802MOL0     C 8178  -1.148   9.446  10.597 -0.5877  0.2147 -0.4897
  802MOL0     C 8179  -1.293   9.429  10.568  0.1136 -0.0960  0.3433
  802MOL0    Cl 8180  -1.388   9.560  10.639  0.3057  0.3561 -0.2728
  802MOL0     C 8181  -0.186   9.249  10.307 -0.5254 -0.4211  0.2798
  802MOL0     C 8182  -0.054   9.238  10.324 -0.4546  0.2871 -0.1027
  802MOL0     O 8183   0.233   9.172  10.267 -0.1002 -0.2086 -0.7678
  802MOL0     C 8184   0.391   9.153  10.572  0.3392 -0.0828 -0.3765
  802MOL0     C 8185   0.512   9.170  10.645  0.2752 -0.7546  0.5533
  802MOL0     N 8186   0.884   8.861  10.817  0.3570  0.3087 -0.6634
  802MOL0     N 8187   0.972   8.785  10.776  0.6941  0.7478 -0.4686
  802MOL0     C 8188   0.373   8.298  11.054  0.4310 -0.1211  0.8786
  802MOL0     C 8189   0.245   8.318  11.079  0.3853  0.8335  0.3815
  802MOL0     C 8190  -0.156   8.524  10.990  0.3499 -0.6666  0.1227
  802MOL0     C 8191  -0.209   8.648  11.010 -0.4166  0.1979 -0.4818
  802MOL0     C 8192  -0.341   8.678  11.008 -0.7578  0.1212 -0.5331
  802MOL0     C 8193  -0.433   8.579  11.004  0.8615  0.7482  0.0889
  802MOL0     O 8194  -0.564   8.613  10.985  0.1963  0.1643 -0.0632
  802MOL0     C 8195  -0.668   8.526  11.038  0.1770 -0.0698 -0.2658
  802MOL0     C 8196  -0.790   8.609  11.049 -0.4265 -0.8562  0.3395
  802MOL0     C 8197  -0.920   8.529  11.077  0.0463  0.5658  0.7154
  802MOL0     C 8198  -1.040   8.628  11.086  0.1275 -0.1221  0.8986
  802MOL0     C 8199  -1.168   8.556  11.125 -0.8465  0.1258 -0.1563
  802MOL0     C 8200  -1.271   8.498  11.141 -0.0561 -0.1392  0.6008
  802MOL0     C 8201  -0.384   8.443  10.985 -0.6115  0.0998  0.3219
  802MOL0     C 8202  -0.249   8.417  10.980  0.7379 -0.6268 -0.4904
  802MOL0     H 8203   0.148   8.341  10.746  1.2793  1.1257 -0.4850
  802MOL0     H 8204   0.370   8.279  10.716  1.4763  0.1966  0.8220
  802MOL0     H 8205   0.570   8.110  10.769 -1.9390  0.7393 -0.8603
  802MOL0     H 8206   0.588   8.281  10.722  0.1347 -2.1796 -2.1105
  802MOL0     H 8207   0.785   8.129  10.899 -0.9933 -1.7900 -1.4980
  802MOL0     H 8208   0.794   8.128  10.727  0.6948 -1.5932  0.2296
  802MOL0     H 8209   0.821   8.356  10.691 -1.9669 -0.2145  0.3604
  802MOL0     H 8210   0.806   8.394  10.874  1.0866 -1.5424  2.2127
  802MOL0     H 8211   1.006   8.268  10.909 -1.9684 -0.1623  0.3649
  802MOL0     H 8212   1.012   8.250  10.727  2.4646 -1.7118  1.8137
  802MOL0     H 8213   1.184   8.411  10.785  0.6246  0.1196  1.9622
  802MOL0     H 8214   1.052   8.492  10.724  1.3197 -3.9762 -2.8825
  802MOL0     H 8215   0.983   8.562  10.953 -1.4660 -2.8976 -0.4408
  802MOL0     H 8216   1.091   8.455  11.033  0.4354 -0.0722  0.4781
  802MOL0     H 8217   1.178   8.665  11.058 -1.2843 -0.0803  0.4260
  802MOL0     H 8218   1.284   8.573  10.967 -0.8219 -0.9837  1.7650
  802MOL0     H 8219   1.208   8.655  10.756  1.8455  1.3289 -0.9107
  802MOL0     H 8220   1.295   8.768  10.846  1.0170 -1.8567  0.4501
  802MOL0     H 8221   1.143   8.949  11.005  0.6075 -1.1451 -0.0562
  802MOL0     H 8222   0.771   9.043  11.001 -0.3882  2.8478  0.1611
  802MOL0     H 8223   0.906   9.046  11.104 -2.2849 -0.3852  0.9280
  802MOL0     H 8224   1.013   9.237  10.992 -1.1073  1.5776  0.0965
  802MOL0     H 8225   0.846   9.263  11.011 -1.3147 -1.1050 -0.5049
  802MOL0     H 8226   0.972   9.181  10.742  0.1946 -0.7520  2.7246
  802MOL0     H 8227   0.912   9.338  10.792 -1.4530  0.1733 -1.7995
  802MOL0     H 8228   0.688   9.219  10.835 -3.0077 -2.4836 -1.8639
  802MOL0     H 8229   0.747   9.081  10.735 -0.8438  0.2171  1.5303
  802MOL0     H 8230   0.701   9.301  10.404  0.8445 -1.5128  0.0968
  802MOL0     H 8231   0.424   9.262  10.165  0.0024 -0.5877  0.3883
  802MOL0     H 8232   0.465   9.413  10.243  0.0394 -0.3909  3.9266
  802MOL0     H 8233   0.587   9.305  10.176  0.2796  0.5275 -0.0454
  802MOL0     H 8234  -0.063   9.174  10.654 -1.4678 -1.8951  0.2757
  802MOL0     H 8235  -0.302   9.224  10.613 -0.1378 -1.2417 -0.3996
  802MOL0     H 8236  -0.489   9.383  10.256 -0.3836  0.2076  0.0574
  802MOL0     H 8237  -0.450   9.223  10.208  3.1187 -0.0954  1.0854
  802MOL0     H 8238  -0.695   9.240  10.237  3.0116 -0.4189 -2.6554
  802MOL0     H 8239  -0.624   9.125  10.347 -0.6460  0.2882  0.7804
  802MOL0     H 8240  -0.680   9.402  10.420  3.1074 -0.6864 -0.3516
  802MOL0     H 8241  -0.643   9.284  10.545  0.0335 -1.8812  0.1920
  802MOL0     H 8242  -0.888   9.266  10.359 -2.1293 -1.4046  0.6449
  802MOL0     H 8243  -0.864   9.165  10.501  0.7045  1.5598  2.6746
  802MOL0     H 8244  -0.876   9.465  10.538  2.3523 -1.5070 -2.1564
  802MOL0     H 8245  -0.924   9.334  10.648 -0.4607 -0.6709 -0.2297
  802MOL0     H 8246  -1.074   9.407  10.395  2.2673  0.3586 -0.1118
  802MOL0     H 8247  -1.114   9.263  10.484  1.0194 -1.2689  0.4680
  802MOL0     H 8248  -1.120   9.552  10.596  0.9598 -0.1115  2.0819
  802MOL0     H 8249  -1.128   9.414  10.699 -2.7023 -3.0743 -0.9606
  802MOL0     H 8250  -1.327   9.335  10.613  0.4845 -1.0328 -1.2325
  802MOL0     H 8251  -1.302   9.430  10.459  0.2876  1.3054  0.3249
  802MOL0     H 8252  -0.232   9.247  10.209 -2.0497 -0.9757  0.9764
  802MOL0     H 8253  -0.001   9.245  10.230 -0.7503  0.8839 -0.2295
  802MOL0     H 8254   0.300   9.124  10.622  0.3365  0.1645 -0.2375
  802MOL0     H 8255   0.513   9.144  10.751  2.6165 -0.2056  0.7196
  802MOL0     H 8256   0.440   8.276  11.136  2.5403 -2.1376 -1.2211
  802MOL0     H 8257   0.215   8.336  11.182  1.7507 -1.1680  1.1814
  802MOL0     H 8258  -0.138   8.731  11.014  1.0385 -0.9702 -1.0317
  802MOL0     H 8259  -0.380   8.779  11.003 -2.3524 -0.5311 -2.2057
  802MOL0     H 8260  -0.683   8.435  10.979  0.0495  0.1899 -0.6363
  802MOL0     H 8261  -0.646   8.498  11.142  0.1413 -3.6864 -1.1071
  802MOL0     H 8262  -0.816   8.658  10.954  0.2826  3.5142  2.1447
  802MOL0     H 8263  -0.769   8.693  11.116  0.0076 -0.0774 -0.7389
  802MOL0     H 8264  -0.904   8.487  11.177  1.4653  0.3120  0.4084
  802MOL0     H 8265  -0.938   8.451  11.002  2.4056 -0.5782  1.2464
  802MOL0     H 8266  -1.056   8.667  10.985  0.6408  0.0963  0.8950
  802MOL0     H 8267  -1.027   8.713  11.153 -2.1705 -0.2833  1.6079
  802MOL0     H 8268  -1.364   8.447  11.161 -0.8573  0.1038 -2.1008
  802MOL0     H 8269  -0.453   8.359  10.977 -1.7790  0.9118  1.2945
  802MOL0     H 8270  -0.218   8.316  10.958 -1.6778 -0.8499 -3.6027
  803MOL0     O 8271   0.793   2.368   1.981  0.5694  0.3366  0.7024
  803MOL0     C 8272   0.886   2.291   2.004 -0.6892  0.3563 -0.7389
  803MOL0     O 8273   0.954   2.222   1.905  0.5878  0.1825 -0.2447
  803MOL0     C 8274   0.889   2.215   1.784  0.2386  0.3511  0.5516
  803MOL0     C 8275   0.787   2.126   1.774  0.0418 -0.0452 -1.2264
  803MOL0     C 8276   0.711   2.111   1.656 -0.2517 -0.0909  0.3362
  803MOL0     C 8277   0.728   2.197   1.540 -0.6666 -0.2456  0.5490
  803MOL0     O 8278   0.660   2.189   1.419 -0.6889 -0.0887 -0.2623
  803MOL0     C 8279   0.602   2.059   1.390  0.4181 -0.5929  0.1965
  803MOL0     C 8280   0.449   2.060   1.415  0.5279 -0.2575  0.3391
  803MOL0     C 8281   0.377   1.937   1.352 -0.1022 -0.7032  0.6566
  803MOL0     C 8282   0.230   1.928   1.385 -0.5161 -0.0461  1.2188
  803MOL0     C 8283   0.135   2.046   1.353  0.6857 -1.0968  0.0561
  803MOL0     C 8284  -0.020   2.022   1.347  0.1184  0.9861 -0.1031
  803MOL0     C 8285  -0.059   1.873   1.347 -0.3207  0.1586 -0.0703
  803MOL0     C 8286  -0.213   1.857   1.365  0.2666 -0.1192  0.4593
  803MOL0     N 8287  -0.272   1.889   1.235  0.1278 -0.6191  0.6257
  803MOL0     C 8288  -0.336   2.010   1.197 -0.7323  0.3826 -0.0339
  803MOL0     C 8289  -0.382   1.982   1.070 -0.5872 -0.4320 -0.0183
  803MOL0     C 8290  -0.455   2.074   0.977 -1.4037  0.1129  0.4271
  803MOL0     C 8291  -0.576   2.000   0.921  0.4928 -0.0981  0.1918
  803MOL0     C 8292  -0.691   1.975   1.017  0.0625 -0.8888 -0.4672
  803MOL0     C 8293  -0.785   1.869   0.952 -0.6020 -0.0705 -0.1751
  803MOL0     O 8294  -0.881   1.846   1.056  0.3955  0.4059 -0.1809
  803MOL0     C 8295  -1.004   1.833   1.006  0.3476  0.0308 -1.0397
  803MOL0     C 8296  -1.111   1.904   1.060  0.5772 -0.3442 -0.2695
  803MOL0     C 8297  -1.243   1.891   1.019  0.5086 -0.3415  0.1771
  803MOL0     C 8298  -1.350   1.975   1.082 -0.1878 -0.0030  0.1468
  803MOL0     C 8299  -1.270   1.800   0.908 -0.0856 -0.5743 -0.2354
  803MOL0     C 8300  -1.401   1.770   0.839  0.0207 -0.0105  0.2529
  803MOL0     O 8301  -1.404   1.656   0.768  0.8209 -0.2627  0.4972
  803MOL0     C 8302  -1.527   1.628   0.709  0.6796  0.1275  0.4922
  803MOL0     C 8303  -1.648   1.636   0.786  0.1942 -0.0368 -0.4462
  803MOL0     C 8304  -1.773   1.588   0.739 -0.2212 -0.0816  0.0885
  803MOL0     C 8305  -1.780   1.561   0.599 -0.4725 -0.2367 -0.6567
  803MOL0     O 8306  -1.898   1.520   0.542  0.8859  0.4725  0.1450
  803MOL0     C 8307  -1.992   1.436   0.624 -0.7382  0.4295 -0.7743
  803MOL0     C 8308  -2.105   1.395   0.530 -0.6586 -0.4873  0.2539
  803MOL0     C 8309  -2.208   1.304   0.603  0.0140 -1.0461 -1.3264
  803MOL0     C 8310  -2.285   1.207   0.507 -0.5228  0.0860 -0.2023
  803MOL0     C 8311  -2.410   1.154   0.570  0.4052  1.2307 -0.7741
  803MOL0     C 8312  -2.465   1.049   0.471  0.4040 -0.1023 -0.3642
  803MOL0     C 8313  -2.606   1.014   0.513 -0.9021 -0.3793  0.6503
  803MOL0     C 8314  -2.660   0.916   0.411 -0.5832 -0.5303 -0.5849
  803MOL0    Cl 8315  -2.567   0.768   0.383 -0.2297  0.4457  0.0450
  803MOL0     C 8316  -1.661   1.560   0.526 -0.0369  0.6270  0.4678
  803MOL0     C 8317  -1.534   1.583   0.581 -0.2392 -0.1152 -0.8462
  803MOL0     O 8318  -1.484   1.861   0.838  0.0875 -0.5064  0.0709
  803MOL0     C 8319  -1.161   1.730   0.851  1.0224  0.1366  0.7195
  803MOL0     C 8320  -1.033   1.742   0.905  0.3643 -0.6987  0.9163
  803MOL0     N 8321  -0.362   1.848   1.042  0.0472 -0.0924  0.1235
  803MOL0     N 8322  -0.292   1.800   1.135  0.9058  0.4635  0.1723
  803MOL0     C 8323   0.831   2.299   1.561  0.7608  0.7724 -0.1075
  803MOL0     C 8324   0.909   2.308   1.675  0.5112  0.5816 -1.2158
  803MOL0     C 8325   0.937   2.277   2.144  0.2192  0.5540  0.3885
  803MOL0     C 8326   1.064   2.230   2.161 -0.4030  0.6728 -0.1303
  803MOL0     C 8327   1.119   2.222   2.290  0.4192  0.1684 -0.4688
  803MOL0     C 8328   1.047   2.260   2.404  0.7536  0.3019  0.6740
  803MOL0     O 8329   1.092   2.256   2.538  0.3511  0.9609  0.1082
  803MOL0     C 8330   1.214   2.184   2.563 -1.0682  0.2460  0.1366
  803MOL0     C 8331   1.253   2.194   2.720  0.3892  0.5348  0.2739
  803MOL0     C 8332   1.398   2.139   2.748 -0.2294 -0.1741  0.5385
  803MOL0     C 8333   1.387   2.044   2.872  0.5002  0.5643 -0.6548
  803MOL0     C 8334   1.504   1.961   2.886 -0.2233 -0.3538  0.2037
  803MOL0     C 8335   1.613   1.918   2.902  0.1792 -0.4775  0.0792
  803MOL0     C 8336   0.917   2.305   2.385  0.4708  0.3322 -0.1149
  803MOL0     C 8337   0.862   2.311   2.255  0.9054 -0.3999 -0.2306
  803MOL0     H 8338   0.759   2.057   1.853  2.4449  0.6102  0.3178
  803MOL0     H 8339   0.627   2.042   1.656 -0.8652  0.6417  0.1395
  803MOL0     H 8340   0.610   2.041   1.282  1.1878  0.8149 -0.0203
  803MOL0     H 8341   0.658   1.980   1.441 -2.7466 -2.2170  1.3707
  803MOL0     H 8342   0.428   2.053   1.522 -3.7277  0.9514 -0.2620
  803MOL0     H 8343   0.400   2.150   1.378 -1.8988 -1.6324 -0.0134
  803MOL0     H 8344   0.397   1.946   1.245  0.2882 -0.0068  0.7820
  803MOL0     H 8345   0.428   1.845   1.383 -0.8281 -1.4791 -0.3926
  803MOL0     H 8346   0.189   1.838   1.337 -1.5152  1.5178 -1.0214
  803MOL0     H 8347   0.228   1.911   1.493 -2.1962 -1.7271  0.9888
  803MOL0     H 8348   0.139   2.132   1.421 -1.0517 -1.4965  0.6877
  803MOL0     H 8349   0.174   2.087   1.259  0.8280 -2.7522 -0.6363
  803MOL0     H 8350  -0.063   2.076   1.432 -2.3796  1.0577 -1.3196
  803MOL0     H 8351  -0.068   2.053   1.254 -2.2702 -0.0844  0.6775
  803MOL0     H 8352  -0.028   1.823   1.255 -3.7010 -1.5115 -0.5003
  803MOL0     H 8353  -0.015   1.818   1.431 -0.4330 -1.4793 -1.0361
  803MOL0     H 8354  -0.256   1.923   1.441  0.3682  1.3962 -0.7541
  803MOL0     H 8355  -0.236   1.753   1.389 -2.4159 -0.4290 -2.8324
  803MOL0     H 8356  -0.356   2.102   1.250 -1.5324  1.0801 -1.5039
  803MOL0     H 8357  -0.477   2.168   1.029 -1.1484  0.5650 -0.2687
  803MOL0     H 8358  -0.393   2.093   0.889 -0.3133  0.1242  1.1767
  803MOL0     H 8359  -0.551   1.901   0.881 -1.8813 -1.5341  2.0206
  803MOL0     H 8360  -0.610   2.065   0.839 -2.2498  2.5720  3.1716
  803MOL0     H 8361  -0.737   2.073   1.029  2.6698  0.1875  1.6158
  803MOL0     H 8362  -0.657   1.928   1.109 -2.6846 -2.5092 -0.1395
  803MOL0     H 8363  -0.732   1.778   0.922  0.6325 -0.2992  2.4213
  803MOL0     H 8364  -0.829   1.922   0.867  1.1384 -2.0597 -2.4601
  803MOL0     H 8365  -1.103   1.988   1.128 -1.3194  0.2749 -0.7361
  803MOL0     H 8366  -1.320   2.015   1.179 -0.9424  1.8179 -0.3204
  803MOL0     H 8367  -1.369   2.061   1.017  1.4393  0.9582  0.8876
  803MOL0     H 8368  -1.437   1.912   1.105  0.6104 -0.5790  1.7107
  803MOL0     H 8369  -1.638   1.665   0.891  0.2232 -0.1761 -0.4107
  803MOL0     H 8370  -1.854   1.580   0.811  0.6294  3.4058  1.6546
  803MOL0     H 8371  -1.941   1.348   0.667 -3.2411  0.1019  1.8447
  803MOL0     H 8372  -2.040   1.494   0.704 -1.3299 -1.9058  0.6990
  803MOL0     H 8373  -2.145   1.490   0.493  0.1237 -1.0200 -2.1940
  803MOL0     H 8374  -2.070   1.338   0.443 -0.2551 -1.8634  1.2896
  803MOL0     H 8375  -2.280   1.364   0.660 -0.0926 -0.2613 -2.2606
  803MOL0     H 8376  -2.154   1.234   0.667  0.1086  0.1232 -0.0656
  803MOL0     H 8377  -2.305   1.257   0.411 -1.6363  0.4254  0.1884
  803MOL0     H 8378  -2.216   1.124   0.488  0.9418  1.5378 -1.6350
  803MOL0     H 8379  -2.478   1.237   0.590  0.4712  1.1991 -0.4168
  803MOL0     H 8380  -2.398   1.100   0.664 -1.1761 -0.5461 -1.5265
  803MOL0     H 8381  -2.457   1.101   0.375  3.2291 -0.0090 -0.1717
  803MOL0     H 8382  -2.401   0.960   0.470  0.8815  0.1442  1.8998
  803MOL0     H 8383  -2.671   1.101   0.501  1.4446  1.2675 -0.9299
  803MOL0     H 8384  -2.601   0.957   0.607 -1.7807 -3.4625 -1.0289
  803MOL0     H 8385  -2.659   0.970   0.316 -0.1133  0.8996  0.1867
  803MOL0     H 8386  -2.753   0.882   0.457  2.2807 -3.8433  3.6458
  803MOL0     H 8387  -1.667   1.544   0.419  1.9761 -1.3990  0.5852
  803MOL0     H 8388  -1.441   1.585   0.525  0.1078 -0.8668 -0.3034
  803MOL0     H 8389  -1.155   1.661   0.767  0.5110  2.6600 -1.5225
  803MOL0     H 8390  -0.957   1.689   0.848  0.8260 -0.3995  1.2514
  803MOL0     H 8391   0.847   2.371   1.482 -1.0884  3.0840  1.4969
  803MOL0     H 8392   0.984   2.386   1.687  0.1468  0.5930  2.0055
  803MOL0     H 8393   1.129   2.193   2.082  0.9902 -1.0881  1.7161
  803MOL0     H 8394   1.213   2.169   2.295 -0.3250 -1.1150  0.7632
  803MOL0     H 8395   1.202   2.082   2.527  0.2463  1.0506 -2.8851
  803MOL0     H 8396   1.299   2.218   2.502 -0.4906 -3.3435 -1.3004
  803MOL0     H 8397   1.181   2.132   2.775  0.2570 -1.1582 -1.7103
  803MOL0     H 8398   1.254   2.295   2.762 -0.5888  1.0492 -0.8810
  803MOL0     H 8399   1.459   2.226   2.772 -0.1300 -0.9123  3.3632
  803MOL0     H 8400   1.425   2.075   2.663 -2.0279  1.3847 -1.3135
  803MOL0     H 8401   1.309   1.968   2.880  3.7580 -2.9912  1.2462
  803MOL0     H 8402   1.372   2.100   2.964 -2.6231  1.1613 -1.4127
  803MOL0     H 8403   1.708   1.872   2.917  0.0972 -1.1579 -1.3047
  803MOL0     H 8404   0.869   2.331   2.479  1.1395  0.6140  0.1575
  803MOL0     H 8405   0.765   2.357   2.241  0.4038 -1.8906 -2.0396
  804MOL0     O 8406   9.636   2.113   5.003 -0.0975  0.0318  0.5955
  804MOL0     C 8407   9.723   2.074   4.921 -0.4000 -0.6603 -0.5770
  804MOL0     O 8408   9.695   1.989   4.816 -0.2082  0.1391  0.5703
  804MOL0     C 8409   9.573   1.924   4.830  0.2261 -0.5524 -0.3756
  804MOL0     C 8410   9.465   1.990   4.773 -0.4197 -0.0588 -0.6893
  804MOL0     C 8411   9.352   1.914   4.756  0.3864 -0.0491  0.1042
  804MOL0     C 8412   9.328   1.789   4.803  0.6219  0.2184 -0.4663
  804MOL0     O 8413   9.213   1.720   4.797  0.2064  0.0405 -0.5752
  804MOL0     C 8414   9.127   1.737   4.686  0.6053  0.0683 -0.4595
  804MOL0     C 8415   9.023   1.845   4.718  0.2490 -0.4353  0.7836
  804MOL0     C 8416   8.904   1.841   4.615  0.9269  0.1030 -0.7119
  804MOL0     C 8417   8.796   1.944   4.656 -0.4373 -0.0296 -0.4959
  804MOL0     C 8418   8.663   1.913   4.572  0.4736  0.3692 -0.0161
  804MOL0     C 8419   8.570   2.027   4.612  0.3868  0.0965  0.5536
  804MOL0     C 8420   8.431   2.006   4.545 -0.1975  0.8200  0.3157
  804MOL0     C 8421   8.343   2.127   4.595 -0.0005 -0.2111  0.4878
  804MOL0     N 8422   8.219   2.100   4.527  0.5248  0.1092 -0.4737
  804MOL0     C 8423   8.184   2.149   4.398  0.2945  0.3407 -0.7404
  804MOL0     C 8424   8.058   2.119   4.369  0.9487  0.1495  0.7328
  804MOL0     C 8425   7.969   2.138   4.249  0.1747  0.0021 -0.2156
  804MOL0     C 8426   7.884   2.262   4.256  0.4394  0.4936  0.8654
  804MOL0     C 8427   7.793   2.278   4.381 -0.1213 -0.0472  0.8213
  804MOL0     C 8428   7.710   2.150   4.416  0.8113  0.1397  0.6691
  804MOL0     O 8429   7.639   2.116   4.296  0.1302  0.1092  0.1728
  804MOL0     C 8430   7.501   2.144   4.289  0.1791 -1.2175 -0.7124
  804MOL0     C 8431   7.449   2.269   4.324  1.2583  0.5602  0.0078
  804MOL0     C 8432   7.321   2.312   4.303  0.7474 -0.0343  0.2739
  804MOL0     C 8433   7.279   2.444   4.364  0.1569 -0.2139  0.5752
  804MOL0     C 8434   7.229   2.230   4.235  0.7168 -0.4746 -0.3751
  804MOL0     C 8435   7.093   2.260   4.197  0.0527 -0.3728 -0.1213
  804MOL0     O 8436   7.038   2.200   4.081  0.3523  0.1571 -0.1969
  804MOL0     C 8437   6.900   2.205   4.071 -0.4480 -0.3422  0.2248
  804MOL0     C 8438   6.840   2.311   4.000  0.6768  0.0954 -0.3419
  804MOL0     C 8439   6.706   2.320   4.000 -0.5046 -0.7012  0.2435
  804MOL0     C 8440   6.623   2.233   4.072  0.7146  0.2107  0.6145
  804MOL0     O 8441   6.483   2.251   4.065 -0.4687 -0.6742  0.0707
  804MOL0     C 8442   6.414   2.191   4.170 -0.3422 -0.4826 -0.4361
  804MOL0     C 8443   6.277   2.243   4.168 -0.3766  0.2662 -0.8060
  804MOL0     C 8444   6.185   2.173   4.263 -0.7719  0.0377 -0.5844
  804MOL0     C 8445   6.064   2.263   4.295 -0.3308  0.1125 -0.2587
  804MOL0     C 8446   5.966   2.206   4.394  0.4917 -0.2945 -0.5368
  804MOL0     C 8447   5.851   2.300   4.428  0.3847  0.6814  0.1446
  804MOL0     C 8448   5.790   2.242   4.554  0.4642  0.0448 -0.2709
  804MOL0     C 8449   5.667   2.321   4.588 -0.2594  0.0704  0.1034
  804MOL0    Cl 8450   5.542   2.299   4.457 -0.2262 -0.0186 -0.2640
  804MOL0     C 8451   6.682   2.129   4.143 -0.1864 -0.3647  0.6230
  804MOL0     C 8452   6.820   2.111   4.135 -0.4013  0.2800  0.3368
  804MOL0     O 8453   7.024   2.322   4.277  0.1413  0.5323 -0.8119
  804MOL0     C 8454   7.279   2.111   4.184 -0.1007 -0.1384 -0.6852
  804MOL0     C 8455   7.414   2.069   4.212  0.6617 -0.8998 -0.6524
  804MOL0     N 8456   8.016   2.045   4.482 -0.1396  0.5250 -0.0693
  804MOL0     N 8457   8.112   2.041   4.575  0.1147  0.1656  0.7313
  804MOL0     C 8458   9.433   1.728   4.871 -0.0885  0.4554 -0.6276
  804MOL0     C 8459   9.558   1.789   4.873  0.5954 -0.2430 -1.4198
  804MOL0     C 8460   9.861   2.119   4.954 -0.4837  0.1567  0.4153
  804MOL0     C 8461   9.888   2.226   5.036  0.3642 -0.1137  0.2213
  804MOL0     C 8462  10.015   2.264   5.066 -0.1759  0.0018 -0.6911
  804MOL0     C 8463  10.129   2.214   5.006 -0.6660 -0.5336  0.9718
  804MOL0     O 8464  10.250   2.279   4.999 -0.4122 -0.8619  0.7686
  804MOL0     C 8465  10.273   2.388   5.093 -0.2243 -0.0386  0.3340
  804MOL0     C 8466  10.422   2.430   5.078  0.3197 -0.2803 -0.0492
  804MOL0     C 8467  10.446   2.542   5.182  0.2238  0.8070 -0.7837
  804MOL0     C 8468  10.593   2.582   5.200  0.4692  0.2108  0.3624
  804MOL0     C 8469  10.602   2.676   5.313 -0.2674 -0.2727  0.2226
  804MOL0     C 8470  10.626   2.753   5.397  0.5510 -0.2938 -0.4298
  804MOL0     C 8471  10.109   2.099   4.925  0.6516 -0.0380 -0.9381
  804MOL0     C 8472   9.978   2.056   4.895 -0.0633 -1.1354  0.0120
  804MOL0     H 8473   9.485   2.092   4.745  0.2119  1.1739  3.4830
  804MOL0     H 8474   9.278   1.973   4.704  0.6658  1.3978  1.2879
  804MOL0     H 8475   9.182   1.755   4.593  1.8777 -0.4722  0.1654
  804MOL0     H 8476   9.078   1.640   4.673 -0.4833  0.2210  1.9331
  804MOL0     H 8477   8.989   1.828   4.821 -1.6051 -1.2995  0.0848
  804MOL0     H 8478   9.067   1.945   4.707 -1.0513  0.1076  0.2878
  804MOL0     H 8479   8.947   1.877   4.521 -0.0551  0.8531 -0.8952
  804MOL0     H 8480   8.859   1.741   4.609 -1.1153  0.9149  0.0726
  804MOL0     H 8481   8.791   1.950   4.765  2.6488 -0.2744 -0.2635
  804MOL0     H 8482   8.826   2.043   4.620  0.5431 -0.3078 -0.4612
  804MOL0     H 8483   8.673   1.910   4.463 -2.1454 -0.1750 -0.2981
  804MOL0     H 8484   8.623   1.814   4.596 -1.0123  0.9568  0.0443
  804MOL0     H 8485   8.551   2.021   4.720 -1.6360 -0.0098  0.2254
  804MOL0     H 8486   8.614   2.126   4.598  1.6451 -0.3715  1.0536
  804MOL0     H 8487   8.430   2.012   4.436 -0.8708  1.0800  0.3334
  804MOL0     H 8488   8.398   1.904   4.568  0.6047  0.3792 -0.4293
  804MOL0     H 8489   8.383   2.224   4.561 -0.5391  0.9146  2.8900
  804MOL0     H 8490   8.332   2.121   4.703 -0.2143  1.9397  0.6291
  804MOL0     H 8491   8.254   2.209   4.341  0.2293  2.4632  1.2667
  804MOL0     H 8492   8.037   2.158   4.166 -0.9430  1.2771 -0.8733
  804MOL0     H 8493   7.912   2.046   4.241  1.6890 -0.8598 -1.6720
  804MOL0     H 8494   7.825   2.275   4.165 -1.6712  1.3532  2.2859
  804MOL0     H 8495   7.961   2.340   4.255  1.3994 -0.4359  0.4154
  804MOL0     H 8496   7.728   2.367   4.375 -1.1777 -0.5993  3.0166
  804MOL0     H 8497   7.857   2.297   4.468 -2.1863  0.6382  2.2935
  804MOL0     H 8498   7.649   2.170   4.505  0.0492  1.1623 -0.0534
  804MOL0     H 8499   7.781   2.072   4.445  0.5841 -0.1291  0.5039
  804MOL0     H 8500   7.512   2.342   4.374  1.6865 -0.0069  0.3118
  804MOL0     H 8501   7.247   2.429   4.468  0.3199 -0.9670  0.5242
  804MOL0     H 8502   7.364   2.513   4.364  1.3527 -1.6085 -0.3703
  804MOL0     H 8503   7.195   2.503   4.326 -0.2294  2.0980  4.5418
  804MOL0     H 8504   6.890   2.380   3.933 -0.4687 -0.8307 -2.2201
  804MOL0     H 8505   6.650   2.396   3.946  1.5155  1.3450  0.8889
  804MOL0     H 8506   6.405   2.083   4.153 -2.2526 -0.1211 -2.1867
  804MOL0     H 8507   6.459   2.213   4.267  0.5098 -1.4313 -0.5960
  804MOL0     H 8508   6.278   2.349   4.196 -2.4953  0.1373 -0.0591
  804MOL0     H 8509   6.223   2.248   4.073  1.0429  0.1753 -1.6578
  804MOL0     H 8510   6.250   2.149   4.349 -1.0455 -0.0064 -0.3899
  804MOL0     H 8511   6.148   2.084   4.212 -0.2691  0.9444 -2.6211
  804MOL0     H 8512   6.098   2.362   4.327 -0.6311  0.2543 -0.3766
  804MOL0     H 8513   6.020   2.274   4.196  0.2949 -0.8912 -0.6618
  804MOL0     H 8514   6.030   2.191   4.482  0.1949 -1.0103 -0.4295
  804MOL0     H 8515   5.928   2.108   4.363  1.3950 -0.3308 -1.5932
  804MOL0     H 8516   5.882   2.404   4.438  0.2814  0.7828 -0.5584
  804MOL0     H 8517   5.781   2.294   4.344  3.9524 -0.7411 -3.0442
  804MOL0     H 8518   5.864   2.233   4.635  0.8927 -0.3625 -0.6949
  804MOL0     H 8519   5.744   2.144   4.539  1.2075  0.0085 -2.9531
  804MOL0     H 8520   5.688   2.427   4.609  0.9739 -0.4320  1.6058
  804MOL0     H 8521   5.632   2.289   4.686  2.2713  0.5723  1.2732
  804MOL0     H 8522   6.629   2.056   4.205  0.5568 -1.9171 -0.5057
  804MOL0     H 8523   6.877   2.039   4.192 -0.4125 -0.8123 -0.9912
  804MOL0     H 8524   7.218   2.045   4.124 -1.2615  1.6059 -1.4812
  804MOL0     H 8525   7.471   1.987   4.170 -1.1957 -0.9999 -3.2208
  804MOL0     H 8526   9.433   1.624   4.902 -1.5608  0.2281 -1.3342
  804MOL0     H 8527   9.643   1.731   4.907  0.5039 -0.0145 -0.7743
  804MOL0     H 8528   9.802   2.276   5.081  0.1093 -2.4403  2.6010
  804MOL0     H 8529  10.025   2.341   5.142 -0.6600  0.6030 -1.2203
  804MOL0     H 8530  10.205   2.471   5.072 -0.1277  0.5389  2.0637
  804MOL0     H 8531  10.258   2.358   5.198  1.4287 -3.2799 -0.2174
  804MOL0     H 8532  10.430   2.469   4.976  1.9857  0.5954  0.3866
  804MOL0     H 8533  10.496   2.351   5.088  0.0245 -0.4046  1.4316
  804MOL0     H 8534  10.422   2.489   5.274  1.4730 -0.1661 -0.9855
  804MOL0     H 8535  10.377   2.625   5.164 -5.0232 -2.7283  0.9650
  804MOL0     H 8536  10.637   2.627   5.111  0.8740  0.9556  0.9314
  804MOL0     H 8537  10.650   2.491   5.222  1.5040  0.5069 -1.0045
  804MOL0     H 8538  10.653   2.825   5.472 -3.3686 -0.6224  1.5785
  804MOL0     H 8539  10.196   2.048   4.885 -0.0721 -1.5416 -0.6332
  804MOL0     H 8540   9.969   1.966   4.836  2.1476 -1.1557 -0.3698
  805MOL0     O 8541   9.177   8.882   1.776  0.1128 -0.1395  0.1427
  805MOL0     C 8542   9.171   8.900   1.654  0.4650 -0.5128 -0.2892
  805MOL0     O 8543   9.053   8.929   1.582  0.6653 -0.7161  0.1038
  805MOL0     C 8544   8.932   8.921   1.644  1.3643  0.5600 -0.0600
  805MOL0     C 8545   8.890   8.819   1.728 -0.0633  0.6994  0.9695
  805MOL0     C 8546   8.770   8.799   1.791 -0.3690 -0.7017  0.3668
  805MOL0     C 8547   8.668   8.884   1.758 -0.5684  0.7309 -0.0955
  805MOL0     O 8548   8.537   8.876   1.803 -0.5057 -0.3838  0.0620
  805MOL0     C 8549   8.514   8.906   1.936 -0.6069 -0.5547  0.3047
  805MOL0     C 8550   8.466   8.777   2.013 -0.7724 -0.7667  0.0965
  805MOL0     C 8551   8.330   8.719   1.970 -0.3261 -1.1076 -0.0643
  805MOL0     C 8552   8.220   8.811   2.022  0.0548  0.1635 -0.9653
  805MOL0     C 8553   8.080   8.745   2.025  0.7762 -0.0187  0.4303
  805MOL0     C 8554   8.080   8.618   2.113 -0.3188 -0.2184 -0.2704
  805MOL0     C 8555   7.945   8.590   2.172  0.5569  0.6780  0.3158
  805MOL0     C 8556   7.927   8.454   2.255 -0.7721 -0.6234 -0.1088
  805MOL0     N 8557   8.022   8.441   2.367  0.2572  0.0352 -0.3907
  805MOL0     C 8558   8.020   8.526   2.480  0.2947  0.2133  0.7831
  805MOL0     C 8559   8.132   8.502   2.544  0.0348  0.9092  0.7297
  805MOL0     C 8560   8.183   8.552   2.677  0.3444  0.3897 -0.5702
  805MOL0     C 8561   8.065   8.565   2.776 -0.0234 -0.8692  0.3961
  805MOL0     C 8562   8.134   8.564   2.923 -0.3574 -0.9630  0.4118
  805MOL0     C 8563   8.027   8.561   3.029  0.1976 -0.1350  0.3402
  805MOL0     O 8564   7.939   8.676   3.035 -0.5363  0.6539 -0.1510
  805MOL0     C 8565   7.806   8.657   3.071 -0.1685 -0.0219  0.1698
  805MOL0     C 8566   7.721   8.735   2.994 -0.1190  0.1826 -0.1551
  805MOL0     C 8567   7.584   8.740   3.032  0.4002  0.4496 -0.6502
  805MOL0     C 8568   7.499   8.831   2.954 -0.5638  0.5046 -0.0232
  805MOL0     C 8569   7.536   8.647   3.132  0.0208 -0.2230  0.5932
  805MOL0     C 8570   7.395   8.623   3.166  0.5349 -0.6224  0.1792
  805MOL0     O 8571   7.357   8.520   3.248 -0.5933  0.1054 -0.1272
  805MOL0     C 8572   7.228   8.490   3.264 -0.3411 -0.6193 -0.0960
  805MOL0     C 8573   7.184   8.489   3.396  0.3097 -0.1956  0.7628
  805MOL0     C 8574   7.053   8.443   3.418  0.0540  0.2207 -0.7956
  805MOL0     C 8575   6.959   8.406   3.318 -0.1441  0.0224  0.2007
  805MOL0     O 8576   6.823   8.372   3.341 -0.1157  0.4109 -0.7361
  805MOL0     C 8577   6.771   8.400   3.467 -0.1872 -0.7266 -0.3688
  805MOL0     C 8578   6.616   8.390   3.446 -1.0979 -0.2189 -0.1427
  805MOL0     C 8579   6.574   8.272   3.361 -0.3667 -0.4416 -0.1206
  805MOL0     C 8580   6.426   8.250   3.342 -0.7269  0.4813 -0.1279
  805MOL0     C 8581   6.414   8.109   3.277 -0.0411 -0.2992 -0.6739
  805MOL0     C 8582   6.270   8.081   3.227  1.3794  0.1006 -0.6539
  805MOL0     C 8583   6.148   8.106   3.323  0.6650  0.7099 -0.5703
  805MOL0     C 8584   6.027   8.020   3.266 -0.0273 -0.0386 -1.3852
  805MOL0    Cl 8585   5.991   8.084   3.103 -0.1649  0.1271 -0.5743
  805MOL0     C 8586   7.013   8.407   3.193  0.7684 -0.9227 -0.0004
  805MOL0     C 8587   7.142   8.461   3.156  0.2893 -0.5967 -1.0639
  805MOL0     O 8588   7.316   8.707   3.118 -0.7477 -0.8268 -0.7127
  805MOL0     C 8589   7.623   8.575   3.202  0.1037  0.4195  1.5168
  805MOL0     C 8590   7.760   8.571   3.174 -0.1604 -0.4325  0.0630
  805MOL0     N 8591   8.213   8.425   2.456  0.0612  0.1886 -1.0748
  805MOL0     N 8592   8.142   8.385   2.351  0.9636 -0.0301 -0.3939
  805MOL0     C 8593   8.701   8.983   1.662 -0.4185  0.1198 -0.6347
  805MOL0     C 8594   8.823   8.998   1.605 -0.0615  0.6395  0.0469
  805MOL0     C 8595   9.300   8.901   1.584 -0.0502 -0.5982  0.0647
  805MOL0     C 8596   9.422   8.915   1.656  0.0585  0.7213 -0.1625
  805MOL0     C 8597   9.544   8.933   1.593 -0.3403  0.7892 -0.2720
  805MOL0     C 8598   9.558   8.926   1.454  0.5718  0.5042  0.3788
  805MOL0     O 8599   9.673   8.922   1.372  0.2502  0.0134  0.1508
  805MOL0     C 8600   9.794   8.975   1.441 -0.2451  0.0590 -0.7743
  805MOL0     C 8601   9.913   8.963   1.340 -0.9527 -0.6818  0.5504
  805MOL0     C 8602   9.900   9.079   1.241  0.4457  0.2883  0.8029
  805MOL0     C 8603  10.024   9.083   1.144  0.7770  0.4802 -0.7429
  805MOL0     C 8604  10.103   9.201   1.154  0.5171  0.7909 -0.8001
  805MOL0     C 8605  10.186   9.293   1.163  0.9193  0.0611  0.6021
  805MOL0     C 8606   9.439   8.915   1.381 -0.4747 -0.1966  0.7046
  805MOL0     C 8607   9.315   8.913   1.444 -0.1528 -0.0570 -0.3193
  805MOL0     H 8608   8.972   8.751   1.745 -0.8255 -1.3501 -2.4893
  805MOL0     H 8609   8.759   8.717   1.861 -1.9831 -0.3344  0.5956
  805MOL0     H 8610   8.601   8.949   1.986  1.6075 -1.5045 -2.4734
  805MOL0     H 8611   8.438   8.985   1.945  1.3751  1.3453  1.1957
  805MOL0     H 8612   8.541   8.699   1.997 -0.2814  0.0671 -2.0145
  805MOL0     H 8613   8.455   8.804   2.118 -2.5604 -0.1031 -0.2298
  805MOL0     H 8614   8.318   8.717   1.861 -2.3480  4.0398 -0.2373
  805MOL0     H 8615   8.331   8.620   2.016  0.5077 -0.5231  1.2393
  805MOL0     H 8616   8.235   8.829   2.129 -2.0630  0.9467 -0.7590
  805MOL0     H 8617   8.213   8.904   1.965 -1.3434 -0.6296 -2.1474
  805MOL0     H 8618   8.011   8.818   2.069 -0.4551 -0.5865 -0.5005
  805MOL0     H 8619   8.045   8.728   1.923  1.1451 -0.7470  0.4151
  805MOL0     H 8620   8.117   8.536   2.052  0.8422  1.9490 -2.6901
  805MOL0     H 8621   8.150   8.632   2.196  0.1906  0.5424 -0.8155
  805MOL0     H 8622   7.913   8.671   2.238  1.5499  1.0653  0.3328
  805MOL0     H 8623   7.872   8.582   2.091  1.1493 -4.9929 -0.0650
  805MOL0     H 8624   7.932   8.361   2.198 -0.2316 -1.0562  0.6250
  805MOL0     H 8625   7.822   8.455   2.285 -1.7075  1.7358 -2.9275
  805MOL0     H 8626   7.941   8.587   2.522  0.4154  0.6422  0.3933
  805MOL0     H 8627   8.257   8.480   2.714  0.5115  1.7314  1.9055
  805MOL0     H 8628   8.228   8.652   2.669 -0.8033  1.0251  0.5320
  805MOL0     H 8629   8.009   8.473   2.756  0.1358 -1.1386  1.1318
  805MOL0     H 8630   8.005   8.654   2.757 -0.7991 -1.1535  1.4116
  805MOL0     H 8631   8.199   8.650   2.942  0.8362 -1.8121  0.3013
  805MOL0     H 8632   8.192   8.471   2.926 -0.3762 -0.9725  0.4536
  805MOL0     H 8633   8.076   8.552   3.127  1.5594 -1.7071 -0.4296
  805MOL0     H 8634   7.968   8.469   3.017  2.6399 -1.7284 -0.1475
  805MOL0     H 8635   7.753   8.802   2.914 -1.5460  3.3475  1.7076
  805MOL0     H 8636   7.433   8.887   3.021 -1.3180 -0.1380 -0.2201
  805MOL0     H 8637   7.554   8.910   2.901 -1.3528  0.6794 -0.5923
  805MOL0     H 8638   7.438   8.779   2.879  0.1267  0.2591 -0.4266
  805MOL0     H 8639   7.248   8.522   3.478  3.7951  0.2493 -1.8766
  805MOL0     H 8640   7.021   8.444   3.522  1.2723  0.2329 -0.4030
  805MOL0     H 8641   6.802   8.338   3.552  1.2411  2.9225  2.0128
  805MOL0     H 8642   6.803   8.498   3.503  0.4567 -0.6296 -1.1677
  805MOL0     H 8643   6.582   8.375   3.549  1.7072 -2.3293  0.6217
  805MOL0     H 8644   6.573   8.481   3.404 -1.3130  0.8418  2.2196
  805MOL0     H 8645   6.620   8.181   3.401  0.3657 -1.2612 -2.6339
  805MOL0     H 8646   6.614   8.280   3.260 -1.1143  0.1517 -0.3832
  805MOL0     H 8647   6.383   8.240   3.442  0.1723 -0.5371  0.1793
  805MOL0     H 8648   6.381   8.329   3.281  2.1653  1.3528 -1.3157
  805MOL0     H 8649   6.434   8.033   3.353 -0.8142  0.6436  0.5047
  805MOL0     H 8650   6.488   8.107   3.196  0.7622  1.8503 -0.0542
  805MOL0     H 8651   6.253   8.141   3.138  0.3798  0.5903 -0.1528
  805MOL0     H 8652   6.268   7.974   3.202 -2.6236 -0.1212  0.0816
  805MOL0     H 8653   6.115   8.210   3.322  1.2798  0.9030 -0.9978
  805MOL0     H 8654   6.168   8.072   3.425 -2.9325 -0.1901 -0.0122
  805MOL0     H 8655   5.938   8.051   3.323 -0.9171 -2.1416 -1.5307
  805MOL0     H 8656   6.043   7.913   3.279 -1.1695 -0.2157 -1.3114
  805MOL0     H 8657   6.951   8.379   3.109 -1.5446  0.0376  1.2983
  805MOL0     H 8658   7.187   8.467   3.057  0.6721 -1.5073 -0.9512
  805MOL0     H 8659   7.580   8.519   3.284  0.1703  0.4935  1.6020
  805MOL0     H 8660   7.829   8.520   3.242 -0.8351  1.3256  2.1853
  805MOL0     H 8661   8.623   9.047   1.622 -0.7563  1.3673  1.8303
  805MOL0     H 8662   8.844   9.065   1.521  3.0807  0.2453  0.4125
  805MOL0     H 8663   9.432   8.912   1.764 -1.5214  1.3397  0.0361
  805MOL0     H 8664   9.628   8.938   1.661 -2.0728 -1.6540  2.2606
  805MOL0     H 8665   9.774   9.081   1.460 -2.2091 -0.3943 -0.1269
  805MOL0     H 8666   9.803   8.917   1.533 -2.1923  0.0225 -0.5704
  805MOL0     H 8667   9.911   8.865   1.291  0.9103  0.0892 -1.2231
  805MOL0     H 8668  10.005   8.975   1.397 -1.4070 -0.8032  1.3237
  805MOL0     H 8669   9.893   9.177   1.290  1.1024  0.6828  0.1362
  805MOL0     H 8670   9.805   9.061   1.189  0.5304  0.6203  0.5315
  805MOL0     H 8671   9.976   9.078   1.045  0.7986 -1.7613 -0.6954
  805MOL0     H 8672  10.089   8.996   1.155  1.2526  1.0674  1.4805
  805MOL0     H 8673  10.247   9.381   1.158  0.8067  0.1833  1.2917
  805MOL0     H 8674   9.439   8.906   1.273 -1.0813  3.4598  0.2552
  805MOL0     H 8675   9.223   8.897   1.389 -0.7507 -2.7591  1.2348
  806MOL0     O 8676   1.646   4.393   6.610 -0.1895 -0.5720 -0.6661
  806MOL0     C 8677   1.707   4.504   6.603  0.8361  0.1357  0.6010
  806MOL0     O 8678   1.654   4.631   6.616  0.6080 -0.2002  0.5557
  806MOL0     C 8679   1.514   4.651   6.662  0.6174  0.0504 -0.1030
  806MOL0     C 8680   1.412   4.549   6.691  0.6661  0.5180  0.4192
  806MOL0     C 8681   1.290   4.586   6.741 -0.0685 -0.2622 -0.1399
  806MOL0     C 8682   1.261   4.723   6.775 -0.4234  0.2029  0.1662
  806MOL0     O 8683   1.133   4.744   6.822  0.2278  0.0127 -0.4714
  806MOL0     C 8684   1.108   4.870   6.887  0.3417 -0.2469  0.2185
  806MOL0     C 8685   0.972   4.861   6.957 -0.6424 -0.0654  0.0940
  806MOL0     C 8686   0.856   4.808   6.867 -0.3456 -0.0610 -0.2891
  806MOL0     C 8687   0.723   4.823   6.947 -0.2743 -0.2077  0.3476
  806MOL0     C 8688   0.605   4.774   6.866 -0.4776 -0.6482 -0.0013
  806MOL0     C 8689   0.468   4.796   6.925 -0.4567  0.0031 -0.4713
  806MOL0     C 8690   0.366   4.696   6.874 -0.3139 -0.4925 -0.0281
  806MOL0     C 8691   0.220   4.722   6.925 -0.6904  0.7304 -0.3167
  806MOL0     N 8692   0.120   4.665   6.832  0.3433 -0.2031  0.2184
  806MOL0     C 8693   0.058   4.735   6.732  0.2394  0.5621 -0.4404
  806MOL0     C 8694  -0.006   4.629   6.669 -0.0178  0.3041  0.0853
  806MOL0     C 8695  -0.095   4.637   6.544  0.5588 -0.0449 -0.4895
  806MOL0     C 8696  -0.241   4.594   6.570  0.1603  0.6771 -0.4934
  806MOL0     C 8697  -0.314   4.704   6.649  0.5029  0.2301  0.1687
  806MOL0     C 8698  -0.464   4.718   6.632 -0.3588  0.3186 -0.2779
  806MOL0     O 8699  -0.502   4.753   6.500  0.0036  0.8097  0.2172
  806MOL0     C 8700  -0.635   4.748   6.456 -0.1486 -0.1855  0.4479
  806MOL0     C 8701  -0.639   4.763   6.320 -0.2742 -0.4272 -0.2422
  806MOL0     C 8702  -0.766   4.781   6.263  0.4134 -0.3272 -0.3296
  806MOL0     C 8703  -0.775   4.792   6.115  0.3805  0.3345  0.3515
  806MOL0     C 8704  -0.889   4.771   6.338 -0.9012  0.5264  0.2116
  806MOL0     C 8705  -1.022   4.768   6.283  0.1700 -0.7431 -0.3274
  806MOL0     O 8706  -1.116   4.692   6.350  0.1028  0.4546  0.4745
  806MOL0     C 8707  -1.245   4.718   6.348  1.0210 -0.0035  0.6554
  806MOL0     C 8708  -1.323   4.628   6.418  0.0165  0.2212  0.2418
  806MOL0     C 8709  -1.458   4.647   6.412 -0.1130 -0.1386  0.6759
  806MOL0     C 8710  -1.521   4.755   6.346  0.8704  0.3525  0.1988
  806MOL0     O 8711  -1.659   4.759   6.359 -1.1430 -0.5141  0.0841
  806MOL0     C 8712  -1.738   4.830   6.263 -0.1316  0.3231 -0.1861
  806MOL0     C 8713  -1.718   4.789   6.114 -0.7933 -0.2616 -1.3230
  806MOL0     C 8714  -1.781   4.656   6.060  0.4728 -0.6787  0.6578
  806MOL0     C 8715  -1.724   4.543   6.145  0.6477 -0.1935  0.8370
  806MOL0     C 8716  -1.761   4.399   6.100 -0.5765 -0.3013 -0.6745
  806MOL0     C 8717  -1.910   4.363   6.122  0.5594 -0.2032  0.5586
  806MOL0     C 8718  -1.951   4.215   6.089  0.3232 -0.7250 -0.1489
  806MOL0     C 8719  -2.076   4.164   6.167 -0.0659 -0.0356 -0.2228
  806MOL0    Cl 8720  -2.223   4.256   6.139  0.2166  0.1200 -0.2885
  806MOL0     C 8721  -1.446   4.856   6.292 -0.3196  0.1710  0.0631
  806MOL0     C 8722  -1.305   4.838   6.299  0.4485 -0.3683  0.3089
  806MOL0     O 8723  -1.046   4.849   6.195  0.7054 -0.2918  0.1591
  806MOL0     C 8724  -0.874   4.734   6.470 -0.4304  0.1246 -0.4627
  806MOL0     C 8725  -0.747   4.741   6.532  0.1132 -0.4505 -0.4554
  806MOL0     N 8726   0.017   4.511   6.730 -0.6742  0.5793  0.4702
  806MOL0     N 8727   0.098   4.532   6.821  0.5847 -0.6424  0.1455
  806MOL0     C 8728   1.364   4.816   6.758 -0.3289  0.7184 -0.2808
  806MOL0     C 8729   1.484   4.779   6.702 -0.2279  0.7502 -0.1593
  806MOL0     C 8730   1.849   4.497   6.548  0.7468 -0.4085  0.6607
  806MOL0     C 8731   1.919   4.626   6.524  0.5764  0.1417 -0.0559
  806MOL0     C 8732   2.042   4.619   6.463  0.1929 -0.4941  0.5443
  806MOL0     C 8733   2.109   4.500   6.445 -0.2271  0.0253  0.0045
  806MOL0     O 8734   2.230   4.511   6.391 -0.5292 -0.9584 -0.0428
  806MOL0     C 8735   2.337   4.529   6.483  0.0103  0.3469  0.4899
  806MOL0     C 8736   2.460   4.604   6.416  0.2769 -0.1752  0.1088
  806MOL0     C 8737   2.498   4.534   6.288 -0.1268 -0.5217 -0.0449
  806MOL0     C 8738   2.634   4.604   6.238  0.3199  0.2997 -0.4633
  806MOL0     C 8739   2.752   4.555   6.319  0.2927 -0.4003  0.2950
  806MOL0     C 8740   2.847   4.512   6.384 -0.2408 -0.8557 -0.4200
  806MOL0     C 8741   2.043   4.380   6.462 -0.2067  0.0947  0.3657
  806MOL0     C 8742   1.910   4.375   6.511 -0.1048 -0.4203  0.1464
  806MOL0     H 8743   1.428   4.444   6.670  1.5745  0.8307 -0.5343
  806MOL0     H 8744   1.214   4.509   6.736 -2.2786  1.8433 -2.5298
  806MOL0     H 8745   1.189   4.890   6.958  1.0187  1.8559 -1.0616
  806MOL0     H 8746   1.097   4.954   6.819 -0.5128  0.1673  0.8466
  806MOL0     H 8747   0.981   4.802   7.049 -0.6596  1.1893  0.9359
  806MOL0     H 8748   0.948   4.963   6.988  1.6409  1.7160 -3.3491
  806MOL0     H 8749   0.855   4.863   6.773 -1.4548 -0.5349 -0.5770
  806MOL0     H 8750   0.874   4.705   6.836  0.1164  0.2989 -1.2220
  806MOL0     H 8751   0.729   4.758   7.035 -0.1613 -0.3541  0.2346
  806MOL0     H 8752   0.712   4.928   6.975 -1.0203  0.0702 -0.8925
  806MOL0     H 8753   0.596   4.826   6.770 -0.6466  0.0884  0.4048
  806MOL0     H 8754   0.623   4.668   6.847 -0.0100 -1.0810  2.5790
  806MOL0     H 8755   0.464   4.794   7.034 -0.1121 -4.0187 -0.3954
  806MOL0     H 8756   0.426   4.892   6.893 -0.6177  0.4036  0.8645
  806MOL0     H 8757   0.376   4.700   6.765 -1.4605  0.3702 -0.1221
  806MOL0     H 8758   0.392   4.597   6.913  0.9787  0.4001  1.5265
  806MOL0     H 8759   0.212   4.831   6.927  1.3941  0.9212 -0.1258
  806MOL0     H 8760   0.200   4.688   7.027  0.1226  4.1136  1.1119
  806MOL0     H 8761   0.048   4.842   6.724 -0.6289  0.6781  1.6327
  806MOL0     H 8762  -0.096   4.739   6.503 -1.4653 -0.3608 -1.3064
  806MOL0     H 8763  -0.056   4.573   6.464  3.2843 -0.4299  1.0050
  806MOL0     H 8764  -0.236   4.497   6.618 -1.1443  0.7395 -0.1994
  806MOL0     H 8765  -0.289   4.579   6.473  2.6578 -0.7055 -1.6101
  806MOL0     H 8766  -0.271   4.801   6.620  0.0112  0.3534 -0.1673
  806MOL0     H 8767  -0.294   4.694   6.756 -0.0354  1.4049  0.3954
  806MOL0     H 8768  -0.511   4.786   6.703  1.7851  2.5990 -0.8894
  806MOL0     H 8769  -0.513   4.621   6.647 -1.6048  0.7024 -1.5545
  806MOL0     H 8770  -0.553   4.773   6.255  0.2549  1.0610  0.6420
  806MOL0     H 8771  -0.715   4.709   6.077  2.3359  2.6227 -1.8896
  806MOL0     H 8772  -0.875   4.772   6.076  0.0182 -0.7709  1.7694
  806MOL0     H 8773  -0.732   4.888   6.087  1.2947  0.2806  1.4637
  806MOL0     H 8774  -1.273   4.545   6.467  2.7456  1.2081 -0.7033
  806MOL0     H 8775  -1.520   4.574   6.463  1.4518 -0.7812  1.7070
  806MOL0     H 8776  -1.844   4.810   6.280 -0.1614 -3.5332 -3.4085
  806MOL0     H 8777  -1.721   4.936   6.286 -2.9819  0.6308  0.8940
  806MOL0     H 8778  -1.756   4.876   6.060 -1.5476  0.8332  0.8315
  806MOL0     H 8779  -1.612   4.774   6.095 -0.3345  1.2447 -0.1810
  806MOL0     H 8780  -1.753   4.637   5.956  0.2334 -3.2095  1.0101
  806MOL0     H 8781  -1.890   4.660   6.064  0.4596  1.0818 -0.2775
  806MOL0     H 8782  -1.615   4.549   6.148  0.6685 -0.7609  1.3080
  806MOL0     H 8783  -1.768   4.562   6.243  0.9891  0.6958  0.8265
  806MOL0     H 8784  -1.695   4.329   6.152 -1.3571 -0.2915  0.3781
  806MOL0     H 8785  -1.745   4.391   5.992  3.8107 -1.8917 -0.1107
  806MOL0     H 8786  -1.927   4.378   6.229 -0.3468  0.1906  0.3725
  806MOL0     H 8787  -1.980   4.428   6.069  0.5115 -0.6212  0.1013
  806MOL0     H 8788  -1.874   4.142   6.114 -0.6288 -1.3675  1.0301
  806MOL0     H 8789  -1.962   4.212   5.981  1.6575  1.1528 -0.3974
  806MOL0     H 8790  -2.050   4.167   6.273  2.6567 -0.8534 -0.7980
  806MOL0     H 8791  -2.097   4.061   6.138 -1.6399  0.1684  0.0521
  806MOL0     H 8792  -1.491   4.944   6.246  0.7359  0.4353 -0.4876
  806MOL0     H 8793  -1.251   4.922   6.256 -0.6083  0.7821  1.1330
  806MOL0     H 8794  -0.962   4.702   6.525 -1.6414 -1.5550 -3.1707
  806MOL0     H 8795  -0.744   4.727   6.640  0.0632  0.4705 -0.3240
  806MOL0     H 8796   1.347   4.920   6.783 -0.6553  0.7925 -0.8172
  806MOL0     H 8797   1.561   4.855   6.689  2.1318 -1.2537  1.1819
  806MOL0     H 8798   1.873   4.722   6.546  0.5917  0.6174 -1.9684
  806MOL0     H 8799   2.093   4.711   6.439 -1.9141  0.5259 -0.2556
  806MOL0     H 8800   2.315   4.587   6.573 -0.2912 -0.4133  0.9186
  806MOL0     H 8801   2.368   4.429   6.515  0.5112  0.0984 -0.7220
  806MOL0     H 8802   2.547   4.599   6.482 -1.7212  0.2021  2.9878
  806MOL0     H 8803   2.438   4.710   6.400 -4.9981 -0.7087  1.7317
  806MOL0     H 8804   2.428   4.545   6.205  0.3836  1.0080 -0.2970
  806MOL0     H 8805   2.518   4.430   6.317 -0.3963  0.0238  2.3484
  806MOL0     H 8806   2.620   4.712   6.249  0.8560  0.5103 -1.6878
  806MOL0     H 8807   2.653   4.568   6.136  2.3037 -0.2868  0.0691
  806MOL0     H 8808   2.931   4.483   6.443  0.4934 -0.1645 -1.1133
  806MOL0     H 8809   2.093   4.287   6.438  0.8520  1.2677 -2.3575
  806MOL0     H 8810   1.856   4.280   6.513  1.2540 -1.2553  3.0483
  807MOL0     O 8811   6.940   7.524   5.360 -0.3901 -0.4112  0.0307
  807MOL0     C 8812   6.988   7.540   5.475  0.4203  0.3121  0.1728
  807MOL0     O 8813   6.923   7.543   5.592  0.4056  0.4029 -0.1618
  807MOL0     C 8814   6.791   7.528   5.594 -0.1699 -0.2879  0.0823
  807MOL0     C 8815   6.725   7.448   5.691 -0.1677  0.2538 -0.8139
  807MOL0     C 8816   6.583   7.432   5.689  0.2754 -0.7388 -0.0518
  807MOL0     C 8817   6.503   7.511   5.601 -0.1350 -0.3453 -0.1745
  807MOL0     O 8818   6.374   7.488   5.578  0.0962  0.0667  0.7949
  807MOL0     C 8819   6.324   7.367   5.632 -0.2582  0.8775  1.0322
  807MOL0     C 8820   6.188   7.355   5.578  0.1052 -0.2559  0.3121
  807MOL0     C 8821   6.082   7.457   5.632 -0.4989 -0.6578 -0.4002
  807MOL0     C 8822   5.944   7.433   5.568  0.2176 -0.3709  0.2226
  807MOL0     C 8823   5.831   7.497   5.640  0.4810 -0.1919 -0.3656
  807MOL0     C 8824   5.809   7.447   5.786  0.2539  0.2745  0.1388
  807MOL0     C 8825   5.691   7.531   5.842 -0.4350  0.5539 -0.0497
  807MOL0     C 8826   5.645   7.457   5.973  0.6151  0.2552  0.4645
  807MOL0     N 8827   5.558   7.543   6.057  0.6883  0.8289 -0.5006
  807MOL0     C 8828   5.594   7.647   6.125 -0.3364  0.0517 -0.5732
  807MOL0     C 8829   5.479   7.680   6.193 -0.3925  0.0477 -0.3066
  807MOL0     C 8830   5.466   7.795   6.295  0.5149 -0.2952  0.4381
  807MOL0     C 8831   5.525   7.752   6.431 -0.1994 -0.2741 -0.1708
  807MOL0     C 8832   5.485   7.834   6.554 -0.3329 -0.2779  0.1650
  807MOL0     C 8833   5.334   7.857   6.561 -0.4813 -0.2753 -0.0239
  807MOL0     O 8834   5.261   7.738   6.534  0.3605 -0.1064 -0.2216
  807MOL0     C 8835   5.131   7.746   6.493  0.1066 -0.3942  0.1473
  807MOL0     C 8836   5.092   7.636   6.430  0.0045 -0.3644  0.3663
  807MOL0     C 8837   4.965   7.619   6.379  0.6333  0.0745 -0.1948
  807MOL0     C 8838   4.920   7.478   6.335  0.1866  0.2037 -0.2022
  807MOL0     C 8839   4.873   7.727   6.389  0.9458 -0.2456  0.2230
  807MOL0     C 8840   4.743   7.739   6.331  1.0124 -0.2060  0.3741
  807MOL0     O 8841   4.664   7.847   6.367 -0.0151  0.5271 -0.7474
  807MOL0     C 8842   4.526   7.836   6.347  0.0902  0.2537  0.0397
  807MOL0     C 8843   4.443   7.841   6.455 -0.1456  0.0453  0.3729
  807MOL0     C 8844   4.304   7.847   6.441  0.0666  0.0380  0.6456
  807MOL0     C 8845   4.247   7.857   6.309 -0.1267  0.5823 -0.6329
  807MOL0     O 8846   4.113   7.870   6.269 -0.5230  0.0970  0.4271
  807MOL0     C 8847   4.029   7.863   6.385  0.1014  0.6983 -0.0027
  807MOL0     C 8848   3.896   7.892   6.325 -0.1170  0.8410 -0.6449
  807MOL0     C 8849   3.790   7.859   6.421  0.0664  0.7787 -0.6592
  807MOL0     C 8850   3.657   7.908   6.365 -0.4815  0.4228 -0.1122
  807MOL0     C 8851   3.533   7.869   6.453  0.1153 -0.6973 -0.1647
  807MOL0     C 8852   3.408   7.913   6.376  0.9137  0.1303  0.4196
  807MOL0     C 8853   3.284   7.904   6.465 -0.0553 -0.6641  0.5627
  807MOL0     C 8854   3.155   7.937   6.382 -0.2458 -0.2033  0.5447
  807MOL0    Cl 8855   3.081   7.787   6.317 -0.7564 -0.3111  0.1475
  807MOL0     C 8856   4.341   7.857   6.205 -0.0771  0.1569  0.5229
  807MOL0     C 8857   4.475   7.847   6.219 -0.1703  0.1662 -0.4434
  807MOL0     O 8858   4.722   7.674   6.224  0.5501 -0.1326 -0.1706
  807MOL0     C 8859   4.915   7.843   6.463 -0.0042  0.5537  0.2447
  807MOL0     C 8860   5.046   7.858   6.508  0.3876  0.1851  0.3871
  807MOL0     N 8861   5.386   7.580   6.172  0.4109 -0.4502  0.0722
  807MOL0     N 8862   5.433   7.494   6.093  0.3439  0.1553  0.2334
  807MOL0     C 8863   6.572   7.603   5.523 -0.7920 -0.6125 -0.6585
  807MOL0     C 8864   6.713   7.616   5.524  1.1333 -0.3513  0.4274
  807MOL0     C 8865   7.138   7.551   5.494  0.1356  0.0094  0.0521
  807MOL0     C 8866   7.220   7.504   5.396 -0.4090  0.8539  0.6921
  807MOL0     C 8867   7.356   7.508   5.415 -0.3673  0.2179  0.0239
  807MOL0     C 8868   7.415   7.574   5.522 -0.3187 -0.7148  0.1823
  807MOL0     O 8869   7.543   7.602   5.537 -0.4227  0.1091  0.5832
  807MOL0     C 8870   7.602   7.694   5.451  0.0562  0.4941  0.3804
  807MOL0     C 8871   7.746   7.702   5.481 -0.2872 -0.2422  0.0030
  807MOL0     C 8872   7.826   7.571   5.455 -0.5307  0.2609 -0.1815
  807MOL0     C 8873   7.983   7.594   5.453  0.3538 -0.4378  0.2146
  807MOL0     C 8874   8.023   7.671   5.336 -0.7472 -0.2560  0.0387
  807MOL0     C 8875   8.065   7.733   5.238  0.6523 -0.4670  0.3600
  807MOL0     C 8876   7.334   7.627   5.619 -0.2885 -0.3435  0.3042
  807MOL0     C 8877   7.193   7.614   5.611 -0.3844  0.5871 -0.5466
  807MOL0     H 8878   6.789   7.393   5.759  0.6881  1.6576 -0.4453
  807MOL0     H 8879   6.541   7.348   5.744 -2.0786  0.1012 -0.4400
  807MOL0     H 8880   6.383   7.282   5.597 -0.4654  2.2089 -3.0936
  807MOL0     H 8881   6.303   7.369   5.739 -2.2707  0.5073  0.6846
  807MOL0     H 8882   6.175   7.355   5.470 -4.5629  0.9266  0.6748
  807MOL0     H 8883   6.157   7.252   5.600  1.7345 -0.7489  0.4728
  807MOL0     H 8884   6.077   7.447   5.741  0.1199  1.9275 -0.0500
  807MOL0     H 8885   6.109   7.561   5.612 -0.0368 -0.2839  1.8370
  807MOL0     H 8886   5.947   7.460   5.463  0.0060  1.5753  0.6881
  807MOL0     H 8887   5.926   7.326   5.585 -0.0697 -0.0631  2.0828
  807MOL0     H 8888   5.831   7.607   5.635  0.5046 -0.2182 -0.9188
  807MOL0     H 8889   5.745   7.466   5.581 -0.0527  2.4068 -1.1006
  807MOL0     H 8890   5.790   7.341   5.769  4.2736 -1.0007  2.3431
  807MOL0     H 8891   5.897   7.451   5.851  0.2849  0.8537  0.0699
  807MOL0     H 8892   5.718   7.635   5.863 -1.2580  0.5079  1.3449
  807MOL0     H 8893   5.607   7.530   5.771  1.6068 -0.6857 -2.6247
  807MOL0     H 8894   5.738   7.434   6.025  1.9282  0.5252 -1.6319
  807MOL0     H 8895   5.591   7.366   5.946 -0.2908  0.6294  0.9741
  807MOL0     H 8896   5.684   7.707   6.116 -0.9442  0.8141 -1.8680
  807MOL0     H 8897   5.506   7.891   6.262 -0.5060  0.5481  1.5446
  807MOL0     H 8898   5.359   7.807   6.313  0.3404  1.6916 -1.4416
  807MOL0     H 8899   5.635   7.749   6.436 -0.2503 -0.3237  1.3557
  807MOL0     H 8900   5.489   7.649   6.436 -0.8240 -0.0373  0.2484
  807MOL0     H 8901   5.536   7.929   6.537 -1.2168  0.1504 -0.1963
  807MOL0     H 8902   5.530   7.793   6.644 -0.2671  0.2170  0.3592
  807MOL0     H 8903   5.299   7.938   6.496  0.7545 -0.9448 -1.5697
  807MOL0     H 8904   5.317   7.907   6.657 -2.8612  1.3613 -1.2056
  807MOL0     H 8905   5.172   7.562   6.424 -2.8248 -3.6912 -0.0435
  807MOL0     H 8906   4.906   7.468   6.227 -1.0267  1.5294 -0.1937
  807MOL0     H 8907   5.000   7.408   6.358 -1.5153 -1.4909  0.8946
  807MOL0     H 8908   4.825   7.437   6.372  0.9803 -0.8831  0.6901
  807MOL0     H 8909   4.489   7.838   6.553  0.8904 -0.3990 -0.1099
  807MOL0     H 8910   4.247   7.839   6.533 -1.9858 -3.6095 -0.7438
  807MOL0     H 8911   4.032   7.764   6.432  2.1650  1.0956  0.8209
  807MOL0     H 8912   4.056   7.945   6.452 -0.6467  1.0007 -0.0670
  807MOL0     H 8913   3.886   7.992   6.282  0.4972  0.7905 -0.9153
  807MOL0     H 8914   3.874   7.820   6.245 -3.4716 -1.0358  1.7016
  807MOL0     H 8915   3.819   7.908   6.515  0.4112  0.1189 -0.4150
  807MOL0     H 8916   3.782   7.751   6.433  0.0200  0.8503  0.0473
  807MOL0     H 8917   3.663   8.016   6.349 -0.2715  0.5339  0.6576
  807MOL0     H 8918   3.636   7.870   6.265  0.9311 -0.7464 -0.0052
  807MOL0     H 8919   3.543   7.916   6.551 -1.1876  0.8340 -0.7306
  807MOL0     H 8920   3.530   7.762   6.478 -0.1330 -0.7192 -0.2876
  807MOL0     H 8921   3.419   8.015   6.336 -0.5701  0.1222 -0.0734
  807MOL0     H 8922   3.400   7.841   6.294  0.3634 -2.6269  2.7459
  807MOL0     H 8923   3.285   7.978   6.546 -4.3815  0.4521 -0.1188
  807MOL0     H 8924   3.273   7.807   6.513  1.4695 -1.5511 -0.7949
  807MOL0     H 8925   3.160   8.018   6.309 -0.3364 -1.7290 -1.1968
  807MOL0     H 8926   3.081   7.981   6.450  0.7311  2.2163  0.1441
  807MOL0     H 8927   4.304   7.868   6.104  0.1967 -2.2930  0.0830
  807MOL0     H 8928   4.556   7.851   6.148 -0.5431 -1.0342 -0.9534
  807MOL0     H 8929   4.848   7.929   6.468  1.6896  2.3080 -3.0679
  807MOL0     H 8930   5.081   7.946   6.561  0.2443 -0.7653  2.1453
  807MOL0     H 8931   6.521   7.676   5.460 -0.4132 -0.3066 -0.6127
  807MOL0     H 8932   6.760   7.693   5.463 -3.5502  2.5567 -0.0297
  807MOL0     H 8933   7.186   7.460   5.303 -0.1552 -0.3176  1.1427
  807MOL0     H 8934   7.426   7.457   5.349  2.2956  1.8727  1.3715
  807MOL0     H 8935   7.578   7.668   5.348 -0.8869 -1.7258  1.1029
  807MOL0     H 8936   7.560   7.795   5.447  1.2125  0.9924  0.4036
  807MOL0     H 8937   7.751   7.724   5.588  0.1616  3.4569 -0.6446
  807MOL0     H 8938   7.784   7.782   5.415  2.3141  0.9401  2.7124
  807MOL0     H 8939   7.795   7.524   5.361  2.7660 -1.6559 -0.4806
  807MOL0     H 8940   7.807   7.491   5.527  1.8258 -2.0325 -1.9132
  807MOL0     H 8941   8.036   7.498   5.440  0.8710  0.0782 -1.7732
  807MOL0     H 8942   8.012   7.652   5.541  0.1102  1.8531 -1.1609
  807MOL0     H 8943   8.100   7.794   5.158  1.6507  0.7739  1.6757
  807MOL0     H 8944   7.387   7.660   5.708 -1.2911 -0.0181  0.8007
  807MOL0     H 8945   7.122   7.646   5.687 -1.0179 -0.7431 -0.5537
  808MOL0     O 8946   2.377   0.098   2.037  0.1773  0.1757 -0.0235
  808MOL0     C 8947   2.489   0.122   2.081  0.2038 -0.0805 -0.1094
  808MOL0     O 8948   2.514   0.177   2.200 -0.4183 -0.0439 -0.3899
  808MOL0     C 8949   2.414   0.220   2.282 -0.0363 -0.6315 -0.4331
  808MOL0     C 8950   2.419   0.342   2.337  0.8432  1.1891  0.0665
  808MOL0     C 8951   2.307   0.381   2.416 -0.3290 -0.4385 -0.6944
  808MOL0     C 8952   2.201   0.301   2.455 -1.1244  0.0664  0.7277
  808MOL0     O 8953   2.109   0.328   2.549  0.1145 -0.5181 -0.3080
  808MOL0     C 8954   2.090   0.466   2.591  0.0809  0.4952  0.2294
  808MOL0     C 8955   1.966   0.473   2.688  0.1463  0.1814 -0.2990
  808MOL0     C 8956   1.935   0.621   2.731 -0.1569  0.9295  0.4994
  808MOL0     C 8957   1.800   0.646   2.790  0.0566 -0.5895  0.5623
  808MOL0     C 8958   1.770   0.793   2.815  0.7870 -0.4663  0.3450
  808MOL0     C 8959   1.760   0.885   2.689 -0.9671  0.9404 -0.6973
  808MOL0     C 8960   1.676   1.008   2.702  0.8193  0.4426 -0.0589
  808MOL0     C 8961   1.719   1.095   2.823  0.0570 -0.3670  0.3675
  808MOL0     N 8962   1.618   1.203   2.836 -0.0292 -0.1819 -0.0499
  808MOL0     C 8963   1.614   1.323   2.771  0.1967  0.4163 -0.1223
  808MOL0     C 8964   1.500   1.381   2.819  1.0451  0.0186 -0.0807
  808MOL0     C 8965   1.456   1.518   2.781 -0.3000 -0.0402 -0.7778
  808MOL0     C 8966   1.299   1.528   2.772  0.5958  0.0290  0.0349
  808MOL0     C 8967   1.272   1.672   2.721 -0.2136  0.5477  0.1399
  808MOL0     C 8968   1.115   1.686   2.740  0.5275 -0.7217 -0.5782
  808MOL0     O 8969   1.080   1.819   2.698 -0.6205 -0.0565  0.2716
  808MOL0     C 8970   0.947   1.840   2.666  0.2739 -0.0515 -0.2887
  808MOL0     C 8971   0.904   1.968   2.684  0.1231 -0.1626  0.3724
  808MOL0     C 8972   0.768   2.005   2.659  0.5491  0.1502  0.1736
  808MOL0     C 8973   0.727   2.145   2.672 -0.0619 -0.4638 -0.1352
  808MOL0     C 8974   0.671   1.899   2.628  0.0130 -0.2617 -0.1788
  808MOL0     C 8975   0.525   1.903   2.600  0.6873 -0.2736 -0.0593
  808MOL0     O 8976   0.456   1.791   2.606  0.3495 -0.5087  0.0848
  808MOL0     C 8977   0.337   1.784   2.539 -0.5717  0.3601  0.3869
  808MOL0     C 8978   0.352   1.772   2.400  0.7222 -0.3211 -0.1705
  808MOL0     C 8979   0.233   1.774   2.326 -0.1655  0.3662 -0.0163
  808MOL0     C 8980   0.104   1.784   2.379 -0.6779 -0.5582 -0.3140
  808MOL0     O 8981  -0.012   1.788   2.290  0.3434 -0.0179 -0.0533
  808MOL0     C 8982  -0.141   1.792   2.358  1.4205 -1.0675  0.0874
  808MOL0     C 8983  -0.255   1.805   2.258  0.1842  0.1318 -0.4600
  808MOL0     C 8984  -0.384   1.747   2.326  0.8569  0.2046 -0.0010
  808MOL0     C 8985  -0.500   1.754   2.231 -0.2554 -1.1541 -0.3778
  808MOL0     C 8986  -0.618   1.663   2.271 -0.3982 -0.1197 -0.0742
  808MOL0     C 8987  -0.744   1.686   2.180 -0.1713 -0.3142  0.7557
  808MOL0     C 8988  -0.850   1.788   2.235  0.3268  0.0860  0.4990
  808MOL0     C 8989  -0.941   1.845   2.119 -0.5040  0.0777  0.3108
  808MOL0    Cl 8990  -1.005   1.727   2.010  0.1875  0.4114 -0.0755
  808MOL0     C 8991   0.095   1.801   2.525  0.0029  0.1593 -0.8559
  808MOL0     C 8992   0.210   1.799   2.602 -0.4463  0.8922 -0.2705
  808MOL0     O 8993   0.487   2.005   2.545 -0.0373 -0.6030 -0.5143
  808MOL0     C 8994   0.722   1.766   2.616  0.1482 -0.2090  0.4200
  808MOL0     C 8995   0.851   1.737   2.639 -0.2823  0.2248  0.1765
  808MOL0     N 8996   1.448   1.305   2.922  0.2911 -0.4478 -0.2222
  808MOL0     N 8997   1.521   1.202   2.931 -0.2893  0.3823 -0.2958
  808MOL0     C 8998   2.196   0.174   2.400 -0.6484 -1.0913  0.3613
  808MOL0     C 8999   2.299   0.138   2.315 -0.2105 -0.1694 -0.3836
  808MOL0     C 9000   2.603   0.092   1.992 -0.8367 -0.2329 -0.5139
  808MOL0     C 9001   2.731   0.084   2.044 -0.6852  0.4108 -0.3145
  808MOL0     C 9002   2.838   0.039   1.969  0.3743  0.3000  0.2624
  808MOL0     C 9003   2.818   0.004   1.834  1.1315  0.0663 -0.2105
  808MOL0     O 9004   2.910  -0.058   1.749 -0.2236 -0.1334 -0.0554
  808MOL0     C 9005   3.049  -0.059   1.783  0.3027 -0.3531 -0.0412
  808MOL0     C 9006   3.126  -0.110   1.670  0.6367  0.1352  0.1825
  808MOL0     C 9007   3.097  -0.263   1.663 -0.0409  0.4007  0.9641
  808MOL0     C 9008   3.158  -0.331   1.534  0.1056 -0.4791 -0.2880
  808MOL0     C 9009   3.303  -0.345   1.548 -0.3465  0.4056  0.0907
  808MOL0     C 9010   3.414  -0.388   1.587 -0.4077 -0.1122 -0.2099
  808MOL0     C 9011   2.684   0.004   1.780 -0.0829  0.4036  0.0099
  808MOL0     C 9012   2.578   0.052   1.857 -0.6563 -0.0117 -0.1051
  808MOL0     H 9013   2.501   0.409   2.315  1.5085 -0.4414 -2.9800
  808MOL0     H 9014   2.327   0.476   2.466  2.7329 -0.7910 -1.0211
  808MOL0     H 9015   2.178   0.510   2.638 -0.2809 -0.5998  2.0501
  808MOL0     H 9016   2.068   0.529   2.505  2.3069  1.4249  0.2738
  808MOL0     H 9017   1.874   0.432   2.643 -0.9377 -0.0630  1.9999
  808MOL0     H 9018   1.978   0.411   2.777  0.1989  2.2881  1.2119
  808MOL0     H 9019   2.010   0.651   2.805  1.3567 -0.1373 -0.5297
  808MOL0     H 9020   1.946   0.691   2.647  0.5752  2.0389  1.4848
  808MOL0     H 9021   1.723   0.609   2.722  0.1170  2.6288 -1.4507
  808MOL0     H 9022   1.788   0.595   2.886 -1.1233 -1.0658  0.1811
  808MOL0     H 9023   1.678   0.797   2.873  0.6606  0.4647  0.0996
  808MOL0     H 9024   1.847   0.833   2.882  3.3912 -1.1877 -2.0210
  808MOL0     H 9025   1.862   0.924   2.675 -0.3046  0.6070  2.3045
  808MOL0     H 9026   1.731   0.822   2.605  0.6366 -2.2684  0.9581
  808MOL0     H 9027   1.663   1.061   2.607  0.6951  0.3933 -0.0698
  808MOL0     H 9028   1.578   0.967   2.727  0.9090  0.5426  0.4639
  808MOL0     H 9029   1.816   1.145   2.829 -0.4620  0.8286 -0.7948
  808MOL0     H 9030   1.695   1.034   2.911 -2.4193  0.8700  0.6438
  808MOL0     H 9031   1.690   1.359   2.701 -0.7842 -0.6899 -1.8330
  808MOL0     H 9032   1.492   1.600   2.844 -1.9982  0.8144 -0.8503
  808MOL0     H 9033   1.499   1.537   2.682  1.5643 -1.4441 -0.2852
  808MOL0     H 9034   1.260   1.525   2.875 -1.3821  2.6672 -0.5251
  808MOL0     H 9035   1.256   1.461   2.697  1.4312 -0.4426 -0.0316
  808MOL0     H 9036   1.297   1.692   2.616 -1.6897  1.0374 -0.1335
  808MOL0     H 9037   1.315   1.751   2.783 -2.6696  1.1976  1.0900
  808MOL0     H 9038   1.081   1.672   2.843 -3.0138 -0.0502 -1.5263
  808MOL0     H 9039   1.063   1.615   2.676 -3.6235  1.8546 -0.3868
  808MOL0     H 9040   0.976   2.046   2.709  0.8554 -0.2011 -1.4696
  808MOL0     H 9041   0.671   2.158   2.765 -1.7526  0.7656 -1.2721
  808MOL0     H 9042   0.811   2.215   2.664 -1.6581  1.4841 -0.5665
  808MOL0     H 9043   0.650   2.163   2.597 -0.3982 -0.2794  0.2494
  808MOL0     H 9044   0.453   1.759   2.362  0.4862 -0.2746 -0.8253
  808MOL0     H 9045   0.234   1.746   2.221 -3.2600 -3.2022  0.6933
  808MOL0     H 9046  -0.158   1.714   2.433  0.2351  0.1273  1.1174
  808MOL0     H 9047  -0.152   1.885   2.415 -0.4555 -2.0725  1.4516
  808MOL0     H 9048  -0.278   1.907   2.227 -2.2697 -0.4610 -0.8584
  808MOL0     H 9049  -0.229   1.742   2.173  1.4879 -0.5910  0.4387
  808MOL0     H 9050  -0.412   1.802   2.416  0.3643  1.3497 -0.8249
  808MOL0     H 9051  -0.357   1.643   2.345  1.8093  0.3031 -0.7144
  808MOL0     H 9052  -0.535   1.857   2.234 -2.6481 -1.8772  2.2305
  808MOL0     H 9053  -0.459   1.722   2.135  0.7772  1.4191 -0.8504
  808MOL0     H 9054  -0.634   1.684   2.377  0.3978 -3.0041  0.7015
  808MOL0     H 9055  -0.586   1.559   2.260  1.8274  0.2710  1.7171
  808MOL0     H 9056  -0.715   1.711   2.077 -0.4421 -1.0710  0.4881
  808MOL0     H 9057  -0.797   1.591   2.188  0.7863 -0.7976  1.5456
  808MOL0     H 9058  -0.796   1.867   2.288  2.8485 -0.5389 -0.9600
  808MOL0     H 9059  -0.922   1.742   2.304  1.1059 -2.1521 -0.0949
  808MOL0     H 9060  -0.869   1.894   2.052  0.7618 -0.5393  1.1664
  808MOL0     H 9061  -1.013   1.911   2.168  1.7736  2.4030  0.7465
  808MOL0     H 9062   0.005   1.802   2.587 -2.2223 -2.5431 -3.7345
  808MOL0     H 9063   0.208   1.804   2.711 -1.3514 -0.7720 -0.1695
  808MOL0     H 9064   0.649   1.687   2.604 -1.4803  1.1804  0.7456
  808MOL0     H 9065   0.873   1.631   2.635  0.4798  0.4207 -1.8119
  808MOL0     H 9066   2.129   0.094   2.430  2.5088 -3.5018  1.6018
  808MOL0     H 9067   2.314   0.038   2.277 -0.3249 -0.0997 -0.6083
  808MOL0     H 9068   2.760   0.114   2.145  3.8511 -0.4853 -1.1361
  808MOL0     H 9069   2.930   0.030   2.024 -0.6724  0.6853  2.1406
  808MOL0     H 9070   3.091   0.040   1.800 -0.8091 -0.3428  3.3246
  808MOL0     H 9071   3.064  -0.121   1.872 -0.3117 -0.3108  0.0936
  808MOL0     H 9072   3.235  -0.104   1.672  1.0385 -2.7608 -3.2998
  808MOL0     H 9073   3.089  -0.062   1.579 -0.0236  2.0933  1.4214
  808MOL0     H 9074   2.989  -0.277   1.670 -0.1172  1.2845  1.8054
  808MOL0     H 9075   3.130  -0.318   1.752 -0.0156 -0.6017  0.3423
  808MOL0     H 9076   3.124  -0.281   1.443 -0.4110  1.1728  0.7647
  808MOL0     H 9077   3.106  -0.427   1.524 -0.4200 -0.1801 -0.5102
  808MOL0     H 9078   3.508  -0.436   1.608 -0.7089 -0.1940  1.0491
  808MOL0     H 9079   2.660  -0.033   1.681  1.3341 -1.0385  0.1560
  808MOL0     H 9080   2.475   0.035   1.827 -0.7464  1.7565 -0.9128
  809MOL0     O 9081  10.057   1.689   6.678  0.1711 -0.2467  0.5533
  809MOL0     C 9082  10.078   1.589   6.750 -0.6923  0.5305  0.4407
  809MOL0     O 9083   9.986   1.486   6.764 -0.1613  0.5019  0.5391
  809MOL0     C 9084   9.879   1.501   6.689 -0.3135  0.2224 -0.1590
  809MOL0     C 9085   9.755   1.515   6.750 -0.4511  0.7520  0.1160
  809MOL0     C 9086   9.639   1.513   6.676 -0.1134  0.7152  0.8773
  809MOL0     C 9087   9.645   1.486   6.536 -0.5323  0.0072 -0.5356
  809MOL0     O 9088   9.539   1.454   6.460  0.5448 -0.4094 -0.1513
  809MOL0     C 9089   9.464   1.564   6.417  0.8464  0.3152 -0.9721
  809MOL0     C 9090   9.378   1.521   6.297  0.1092 -0.1213  0.4358
  809MOL0     C 9091   9.235   1.475   6.328 -1.0222 -0.3651  0.2919
  809MOL0     C 9092   9.169   1.425   6.199  0.2697  0.2639  0.3372
  809MOL0     C 9093   9.032   1.356   6.236  0.0613 -0.3549 -0.4317
  809MOL0     C 9094   8.923   1.459   6.260  0.0778 -0.3980 -0.2206
  809MOL0     C 9095   8.781   1.390   6.247  0.8644 -0.2077 -0.2706
  809MOL0     C 9096   8.665   1.497   6.249 -0.0018  0.4967  0.4935
  809MOL0     N 9097   8.542   1.413   6.249 -0.4721  0.9007  0.0546
  809MOL0     C 9098   8.491   1.342   6.148 -0.9912  0.1356  0.2829
  809MOL0     C 9099   8.377   1.289   6.188  0.9300 -0.3364 -0.0490
  809MOL0     C 9100   8.260   1.221   6.114  0.6410  0.7523 -0.9134
  809MOL0     C 9101   8.134   1.303   6.081 -0.8479 -0.1958  0.3595
  809MOL0     C 9102   8.162   1.395   5.962  0.1588  0.6917  0.2058
  809MOL0     C 9103   8.041   1.490   5.961  0.8277 -0.3864  0.2077
  809MOL0     O 9104   7.928   1.431   5.899  0.6695 -0.0909 -0.2635
  809MOL0     C 9105   7.808   1.491   5.899  0.5194  0.0654 -0.1708
  809MOL0     C 9106   7.697   1.425   5.856  0.3765 -1.3482  0.2534
  809MOL0     C 9107   7.571   1.487   5.854 -0.1474 -0.1180 -0.4102
  809MOL0     C 9108   7.449   1.393   5.833  0.2546 -0.7796 -0.5523
  809MOL0     C 9109   7.560   1.626   5.889  0.6992  0.1384  0.9241
  809MOL0     C 9110   7.441   1.714   5.859  0.8685  0.0638  0.2055
  809MOL0     O 9111   7.446   1.843   5.900 -0.1075 -0.7704 -1.0680
  809MOL0     C 9112   7.327   1.917   5.911  0.1911  0.1683  0.3344
  809MOL0     C 9113   7.224   1.880   5.996  0.0813  0.0948 -0.3897
  809MOL0     C 9114   7.101   1.946   5.996 -0.7380 -0.1403  0.0146
  809MOL0     C 9115   7.069   2.047   5.911 -0.0009  0.3897 -0.2585
  809MOL0     O 9116   6.947   2.124   5.903  0.5149  0.3495 -0.0544
  809MOL0     C 9117   6.844   2.107   5.998 -0.1916 -0.1061 -0.2949
  809MOL0     C 9118   6.752   2.230   5.975  0.2354 -0.0263  1.2787
  809MOL0     C 9119   6.663   2.230   5.848  0.1657 -0.0459  0.3126
  809MOL0     C 9120   6.510   2.235   5.870 -0.8441 -0.3584 -0.9980
  809MOL0     C 9121   6.424   2.198   5.747 -0.3007 -0.0003  0.2318
  809MOL0     C 9122   6.450   2.290   5.627 -1.3902 -0.3986  0.7064
  809MOL0     C 9123   6.437   2.439   5.659  0.9184 -0.6694 -0.7046
  809MOL0     C 9124   6.464   2.521   5.538  1.0522  0.8998 -0.1713
  809MOL0    Cl 9125   6.642   2.532   5.506 -0.1827 -0.2704 -0.0122
  809MOL0     C 9126   7.163   2.074   5.814 -0.1847 -0.3006  1.0115
  809MOL0     C 9127   7.289   2.016   5.815 -0.6919  1.0984  0.3989
  809MOL0     O 9128   7.355   1.663   5.785  0.0628  0.2502  0.0788
  809MOL0     C 9129   7.670   1.694   5.931  1.2459 -0.6609 -0.4991
  809MOL0     C 9130   7.795   1.628   5.946  0.5664  0.2914 -0.0378
  809MOL0     N 9131   8.366   1.328   6.323 -0.3649  0.9146  0.5487
  809MOL0     N 9132   8.465   1.408   6.359 -0.9020  0.5588  0.2232
  809MOL0     C 9133   9.767   1.458   6.472  0.0286 -0.1027  0.1973
  809MOL0     C 9134   9.882   1.469   6.549 -0.0439  0.2736  0.4293
  809MOL0     C 9135  10.206   1.575   6.825  0.7698 -1.1538 -0.8846
  809MOL0     C 9136  10.297   1.683   6.836 -0.5178  1.0162  0.0736
  809MOL0     C 9137  10.410   1.674   6.914 -0.2875 -0.2543  0.7997
  809MOL0     C 9138  10.443   1.553   6.977 -0.1413  0.0077 -0.0237
  809MOL0     O 9139  10.565   1.543   7.043  0.6257  0.4624  0.3706
  809MOL0     C 9140  10.670   1.637   7.024  0.7245 -0.0265  0.1047
  809MOL0     C 9141  10.799   1.589   7.091 -0.1500  0.1137  0.5434
  809MOL0     C 9142  10.767   1.551   7.243 -0.6464  0.0945  0.6020
  809MOL0     C 9143  10.729   1.671   7.328  0.3158 -0.1554  0.4619
  809MOL0     C 9144  10.822   1.779   7.317 -0.9512  0.0391  0.1950
  809MOL0     C 9145  10.912   1.866   7.315 -0.0835 -0.2913 -0.1548
  809MOL0     C 9146  10.346   1.456   6.987 -0.8837  0.5146  0.4281
  809MOL0     C 9147  10.229   1.459   6.906 -0.2487 -0.4522 -0.9845
  809MOL0     H 9148   9.761   1.525   6.858 -0.7134  0.5548  0.1481
  809MOL0     H 9149   9.546   1.531   6.731  0.3806 -0.0426  1.9809
  809MOL0     H 9150   9.411   1.601   6.505  1.2516  0.2008 -0.6748
  809MOL0     H 9151   9.537   1.638   6.383  0.8529  1.9895  2.3247
  809MOL0     H 9152   9.378   1.604   6.225  1.3088  0.3823  0.9851
  809MOL0     H 9153   9.425   1.433   6.253 -0.2358  0.1897 -0.5897
  809MOL0     H 9154   9.246   1.385   6.388  0.5597 -0.6074 -0.3185
  809MOL0     H 9155   9.174   1.552   6.377 -1.5172  0.9277 -2.2001
  809MOL0     H 9156   9.172   1.505   6.125  1.3154 -0.4027 -0.3784
  809MOL0     H 9157   9.221   1.345   6.145  0.9041  0.8097  0.1321
  809MOL0     H 9158   9.013   1.285   6.155 -0.1184 -1.0145  0.1797
  809MOL0     H 9159   9.043   1.294   6.325  0.1998  0.6843  0.2937
  809MOL0     H 9160   8.917   1.501   6.361 -1.0564  1.2815 -0.9317
  809MOL0     H 9161   8.925   1.536   6.182 -4.3351 -1.9637 -2.2291
  809MOL0     H 9162   8.763   1.329   6.158  0.4329  1.2562 -1.2218
  809MOL0     H 9163   8.772   1.313   6.324 -0.9319 -0.4541 -0.6917
  809MOL0     H 9164   8.664   1.566   6.164 -0.5731  0.9047  0.8304
  809MOL0     H 9165   8.678   1.559   6.338 -0.4909  1.8364 -0.3365
  809MOL0     H 9166   8.522   1.347   6.044  0.5154  0.4490  0.7224
  809MOL0     H 9167   8.307   1.181   6.023  0.3007  1.3571 -1.3667
  809MOL0     H 9168   8.224   1.148   6.187 -0.0422  1.7464 -0.2259
  809MOL0     H 9169   8.117   1.352   6.178 -1.0869 -0.4630  0.4533
  809MOL0     H 9170   8.047   1.244   6.051 -2.8752  2.2923  0.8754
  809MOL0     H 9171   8.166   1.338   5.869 -0.3370  0.9182  0.0359
  809MOL0     H 9172   8.252   1.452   5.986  0.0472  0.8624  0.2257
  809MOL0     H 9173   8.064   1.565   5.885 -1.7236 -2.1281 -2.4958
  809MOL0     H 9174   8.020   1.533   6.059  0.7685  0.2344 -0.0740
  809MOL0     H 9175   7.719   1.322   5.832  2.0489 -1.2787  1.3116
  809MOL0     H 9176   7.481   1.289   5.843 -0.4449 -0.8523  1.3093
  809MOL0     H 9177   7.368   1.418   5.902  0.4653  1.9472 -1.1962
  809MOL0     H 9178   7.401   1.396   5.735 -1.9339  0.5420  0.4858
  809MOL0     H 9179   7.234   1.798   6.066 -1.1813 -2.1358 -2.6385
  809MOL0     H 9180   7.044   1.897   6.074 -0.3158 -2.3949 -1.0086
  809MOL0     H 9181   6.785   2.015   5.991  0.9325 -0.8369 -0.3986
  809MOL0     H 9182   6.886   2.109   6.099 -1.1285  2.1283  0.1039
  809MOL0     H 9183   6.684   2.240   6.060 -1.3875  1.7050 -0.1316
  809MOL0     H 9184   6.818   2.317   5.970  2.1188 -1.4643 -0.9903
  809MOL0     H 9185   6.678   2.139   5.789 -0.9825 -1.6349  2.3449
  809MOL0     H 9186   6.691   2.318   5.789 -2.6417  1.7712  1.5446
  809MOL0     H 9187   6.490   2.168   5.955  0.1577 -0.5682 -0.9035
  809MOL0     H 9188   6.490   2.335   5.909 -0.2716 -0.9227  0.8833
  809MOL0     H 9189   6.317   2.194   5.767 -0.5954  1.1598 -0.9878
  809MOL0     H 9190   6.449   2.100   5.706 -0.2100  0.4432 -0.8075
  809MOL0     H 9191   6.553   2.267   5.596 -2.3222 -1.2621 -1.9366
  809MOL0     H 9192   6.384   2.268   5.543  0.9931 -0.6578 -1.1976
  809MOL0     H 9193   6.502   2.471   5.741  1.2407  0.1699 -1.2679
  809MOL0     H 9194   6.334   2.458   5.692  1.4318  1.0960 -0.0025
  809MOL0     H 9195   6.419   2.620   5.551 -0.3534 -0.0048  2.5993
  809MOL0     H 9196   6.418   2.484   5.447 -1.8114 -0.2290  1.6029
  809MOL0     H 9197   7.128   2.148   5.742 -2.4039 -1.3862  0.8905
  809MOL0     H 9198   7.367   2.035   5.742 -0.2143 -0.5303  0.4518
  809MOL0     H 9199   7.655   1.797   5.961 -1.8356 -1.0919 -0.2240
  809MOL0     H 9200   7.880   1.668   5.999 -1.6413 -0.5153  4.5996
  809MOL0     H 9201   9.764   1.417   6.372 -0.5042 -1.6776  0.8266
  809MOL0     H 9202   9.976   1.449   6.500 -1.0455  2.1004 -2.4937
  809MOL0     H 9203  10.294   1.777   6.782  0.5662  1.2670  0.4290
  809MOL0     H 9204  10.476   1.759   6.903 -1.9504  0.8530 -1.1424
  809MOL0     H 9205  10.698   1.646   6.919  0.2751 -1.2535 -0.1310
  809MOL0     H 9206  10.644   1.730   7.076 -1.4891 -0.5838  0.0915
  809MOL0     H 9207  10.869   1.672   7.078  2.0000 -1.3489  1.9431
  809MOL0     H 9208  10.839   1.501   7.040  0.5451 -1.2258  3.2249
  809MOL0     H 9209  10.858   1.505   7.280 -0.2114  0.7081  0.3184
  809MOL0     H 9210  10.683   1.480   7.248 -0.9857  0.4712  0.3467
  809MOL0     H 9211  10.709   1.652   7.434  0.3497  0.8657  0.6546
  809MOL0     H 9212  10.627   1.697   7.298  1.1957 -1.1048 -4.0359
  809MOL0     H 9213  10.987   1.942   7.301 -0.4896  0.3340  0.9227
  809MOL0     H 9214  10.369   1.366   7.044  0.5481 -0.2536 -1.2599
  809MOL0     H 9215  10.162   1.375   6.918  1.4807 -1.5509  2.4406
  810MOL0     O 9216   2.085   2.174   9.772  0.1006  1.0937 -0.3092
  810MOL0     C 9217   2.128   2.183   9.657  0.0373  0.5535 -0.8500
  810MOL0     O 9218   2.061   2.206   9.545  0.0882 -0.0641  0.1224
  810MOL0     C 9219   1.921   2.206   9.557 -0.6384 -0.3993  0.2099
  810MOL0     C 9220   1.853   2.322   9.589  0.2693 -0.5286  0.7753
  810MOL0     C 9221   1.718   2.316   9.627  0.1483 -0.2491  0.5093
  810MOL0     C 9222   1.649   2.190   9.620 -0.6807 -1.0583  0.5459
  810MOL0     O 9223   1.517   2.174   9.638  0.0416  0.0031 -0.1146
  810MOL0     C 9224   1.437   2.266   9.719  0.2419 -0.3707  0.2959
  810MOL0     C 9225   1.291   2.233   9.699 -0.2885  0.5956  0.5255
  810MOL0     C 9226   1.225   2.205   9.839  0.6528  0.5932 -0.2262
  810MOL0     C 9227   1.071   2.230   9.839  0.2211 -0.7013 -0.1803
  810MOL0     C 9228   1.034   2.345   9.949  0.1209 -0.4791  1.0376
  810MOL0     C 9229   0.883   2.369   9.965 -0.7720  0.7019 -0.1811
  810MOL0     C 9230   0.837   2.446  10.082  0.8937 -0.0939  0.0503
  810MOL0     C 9231   0.805   2.376  10.220  0.9747 -0.4471  0.7003
  810MOL0     N 9232   0.914   2.293  10.268  0.0977  0.0205  0.6782
  810MOL0     C 9233   0.997   2.334  10.369 -0.1805 -0.1278 -0.3655
  810MOL0     C 9234   1.074   2.222  10.397  0.0301 -0.1784  0.1442
  810MOL0     C 9235   1.196   2.213  10.487  0.1218  0.4451 -0.8299
  810MOL0     C 9236   1.188   2.103  10.597 -0.2895  0.3558  0.5210
  810MOL0     C 9237   1.140   2.162  10.729  0.2744  0.6681 -0.7746
  810MOL0     C 9238   0.994   2.228  10.715 -0.8903  0.2675  0.3806
  810MOL0     O 9239   0.896   2.119  10.690  0.1566 -0.5548 -0.1551
  810MOL0     C 9240   0.798   2.156  10.603 -0.1075 -0.2146 -0.5359
  810MOL0     C 9241   0.747   2.288  10.591 -0.5201 -0.1414 -0.2580
  810MOL0     C 9242   0.638   2.313  10.505  1.0563  0.2717 -0.0452
  810MOL0     C 9243   0.582   2.454  10.512  0.3873 -0.4726  0.1080
  810MOL0     C 9244   0.586   2.204  10.426  0.6625  0.2318 -0.3032
  810MOL0     C 9245   0.464   2.219  10.346 -0.8054  0.1368  0.3506
  810MOL0     O 9246   0.364   2.122  10.368 -0.1062  0.2614 -0.1591
  810MOL0     C 9247   0.255   2.137  10.287 -0.4332 -0.3270  1.2701
  810MOL0     C 9248   0.233   2.062  10.176 -0.2733 -0.6793 -0.8226
  810MOL0     C 9249   0.108   2.066  10.120 -0.2744  0.0225 -0.7628
  810MOL0     C 9250   0.008   2.158  10.157 -0.5452  0.2999 -0.3278
  810MOL0     O 9251  -0.117   2.152  10.101  0.0422  0.3843 -0.1749
  810MOL0     C 9252  -0.218   2.242  10.150 -0.3206 -1.1716 -0.0693
  810MOL0     C 9253  -0.359   2.214  10.084 -0.3546  0.1574  0.0114
  810MOL0     C 9254  -0.392   2.066  10.055 -0.2329 -0.3762 -0.1857
  810MOL0     C 9255  -0.543   2.052  10.012 -0.1986 -0.8441  0.2196
  810MOL0     C 9256  -0.583   1.910  10.027 -0.4257  0.0207 -0.1876
  810MOL0     C 9257  -0.725   1.886   9.967 -0.0436  0.3074  0.1750
  810MOL0     C 9258  -0.770   1.744   9.985 -0.4596  1.1399 -0.6554
  810MOL0     C 9259  -0.792   1.688  10.126  0.1506 -0.4318  0.8678
  810MOL0    Cl 9260  -0.945   1.756  10.188 -0.0452 -0.0828 -0.1786
  810MOL0     C 9261   0.042   2.253  10.258 -0.3262  0.1034 -0.1027
  810MOL0     C 9262   0.156   2.229  10.328 -0.6932  0.1984  0.2428
  810MOL0     O 9263   0.457   2.317  10.268 -0.2630 -0.2613  0.0245
  810MOL0     C 9264   0.639   2.080  10.431  0.0747 -0.8583  0.7201
  810MOL0     C 9265   0.740   2.055  10.518 -0.2030 -0.3951  0.4512
  810MOL0     N 9266   1.032   2.126  10.303  0.1338 -0.0034 -0.4700
  810MOL0     N 9267   0.935   2.162  10.230  0.0975 -0.1274 -0.2169
  810MOL0     C 9268   1.718   2.077   9.576 -0.1367  0.3106  0.5934
  810MOL0     C 9269   1.854   2.085   9.536 -0.0943  0.3152 -0.4160
  810MOL0     C 9270   2.274   2.169   9.650 -0.5006  0.2893  0.2896
  810MOL0     C 9271   2.351   2.152   9.765  0.1259  0.5586  0.5096
  810MOL0     C 9272   2.490   2.140   9.768 -0.2768 -0.2248  0.1952
  810MOL0     C 9273   2.564   2.142   9.649 -0.0981  0.2415  0.2527
  810MOL0     O 9274   2.703   2.132   9.641  0.0920 -0.7586  0.0623
  810MOL0     C 9275   2.773   2.036   9.723 -0.0391 -0.0382  0.2837
  810MOL0     C 9276   2.890   1.960   9.656 -0.2306 -0.0014  0.3017
  810MOL0     C 9277   2.974   1.875   9.740 -0.1728  0.3345 -0.1768
  810MOL0     C 9278   3.032   1.757   9.667 -0.1446  0.2850  0.2269
  810MOL0     C 9279   3.148   1.782   9.573  0.3853 -0.2277 -1.4185
  810MOL0     C 9280   3.235   1.797   9.486 -0.0366 -0.5825  0.0069
  810MOL0     C 9281   2.490   2.135   9.533  0.5807 -1.0408  0.7033
  810MOL0     C 9282   2.351   2.150   9.528 -0.0401 -0.3567 -0.1689
  810MOL0     H 9283   1.909   2.415   9.596  0.4267 -0.7056  2.1111
  810MOL0     H 9284   1.676   2.408   9.666 -1.3793  0.3204 -2.1967
  810MOL0     H 9285   1.464   2.277   9.825 -1.1874  0.6915  0.5667
  810MOL0     H 9286   1.459   2.366   9.679 -0.2831 -0.3626  0.0267
  810MOL0     H 9287   1.238   2.316   9.652 -1.1255 -0.9280 -1.4148
  810MOL0     H 9288   1.288   2.143   9.636 -0.3184 -0.2866  1.7460
  810MOL0     H 9289   1.243   2.105   9.879 -1.4918  0.4757  0.6241
  810MOL0     H 9290   1.265   2.282   9.906  2.0095  0.5054 -0.9008
  810MOL0     H 9291   1.032   2.267   9.744 -1.6372 -0.5826  0.5916
  810MOL0     H 9292   1.021   2.135   9.859 -0.5216 -0.0297  1.2799
  810MOL0     H 9293   1.085   2.326  10.045  2.4138  0.0475  0.0014
  810MOL0     H 9294   1.087   2.438   9.925  1.1030 -1.2652  0.0444
  810MOL0     H 9295   0.861   2.429   9.876  1.6361 -0.4829 -1.6951
  810MOL0     H 9296   0.829   2.275   9.963 -0.5873  0.4201  3.0049
  810MOL0     H 9297   0.896   2.536  10.102  1.3245 -0.6161  1.2456
  810MOL0     H 9298   0.742   2.493  10.053  0.4885 -1.3096 -0.6547
  810MOL0     H 9299   0.709   2.324  10.222 -0.9456  2.5986 -2.2284
  810MOL0     H 9300   0.810   2.454  10.296  0.3675 -0.5485  0.8531
  810MOL0     H 9301   1.008   2.435  10.406  0.7802  0.8785 -3.1122
  810MOL0     H 9302   1.286   2.198  10.426  1.4995  0.3607  1.1231
  810MOL0     H 9303   1.205   2.314  10.527  0.1844  0.6307 -1.3115
  810MOL0     H 9304   1.289   2.065  10.616  0.1835  1.5514  0.4687
  810MOL0     H 9305   1.119   2.027  10.560  1.0625 -0.1332 -1.1354
  810MOL0     H 9306   1.209   2.240  10.761  2.0984 -0.8529 -0.8514
  810MOL0     H 9307   1.131   2.079  10.800  1.5863 -0.3251 -1.7211
  810MOL0     H 9308   1.002   2.305  10.639  1.7330 -1.3247 -1.1157
  810MOL0     H 9309   0.963   2.283  10.805 -4.8129 -1.2634  0.1440
  810MOL0     H 9310   0.791   2.369  10.648 -0.1909 -1.7950  1.9729
  810MOL0     H 9311   0.512   2.471  10.594  0.1482 -0.3235 -0.1252
  810MOL0     H 9312   0.655   2.535  10.515 -3.2518  3.1153  1.1606
  810MOL0     H 9313   0.515   2.479  10.429 -1.6793 -0.2245  1.7570
  810MOL0     H 9314   0.310   1.995  10.139 -1.1351 -1.5510 -1.0928
  810MOL0     H 9315   0.087   2.000  10.036  2.4310 -1.9891  0.0120
  810MOL0     H 9316  -0.234   2.219  10.256 -2.3035 -0.7669 -0.2431
  810MOL0     H 9317  -0.190   2.348  10.139  1.0115 -1.1935  2.2840
  810MOL0     H 9318  -0.435   2.254  10.152  0.9858  1.0289  1.0524
  810MOL0     H 9319  -0.363   2.269   9.989  2.2066  1.7198  0.7100
  810MOL0     H 9320  -0.383   2.007  10.147  0.4297 -0.8124 -0.5295
  810MOL0     H 9321  -0.321   2.030   9.981 -0.0822 -2.2997  0.8252
  810MOL0     H 9322  -0.615   2.110  10.070 -0.6154 -0.1445 -0.9648
  810MOL0     H 9323  -0.569   2.085   9.911 -1.5745 -0.0519  0.7971
  810MOL0     H 9324  -0.575   1.892  10.134 -2.6003  1.9673  0.3842
  810MOL0     H 9325  -0.505   1.859   9.969  0.8090  0.5943  0.9355
  810MOL0     H 9326  -0.793   1.957  10.016 -0.3735 -0.3507  0.6879
  810MOL0     H 9327  -0.713   1.899   9.859  0.7042 -1.4331  0.0165
  810MOL0     H 9328  -0.697   1.683   9.930 -2.0955 -3.4902  1.7151
  810MOL0     H 9329  -0.862   1.720   9.930  0.6064  2.1044 -2.9878
  810MOL0     H 9330  -0.705   1.697  10.192  0.6946 -0.3907  0.1520
  810MOL0     H 9331  -0.807   1.582  10.105  0.1152  0.3865 -4.8922
  810MOL0     H 9332  -0.031   2.325  10.293  0.0804 -0.2657  1.6138
  810MOL0     H 9333   0.177   2.298  10.410 -0.3029  0.9590 -0.4792
  810MOL0     H 9334   0.603   1.998  10.370  3.0574 -2.2132  0.5834
  810MOL0     H 9335   0.784   1.956  10.503  0.9473  0.6520 -5.9639
  810MOL0     H 9336   1.671   1.980   9.577 -0.8429  0.5986 -0.9817
  810MOL0     H 9337   1.916   2.003   9.504 -2.7660 -1.0087 -2.6112
  810MOL0     H 9338   2.312   2.159   9.866  0.2847  0.0165  0.6120
  810MOL0     H 9339   2.536   2.159   9.864 -0.3385 -2.3783  0.6988
  810MOL0     H 9340   2.822   2.095   9.800  1.2825 -1.0047  0.2049
  810MOL0     H 9341   2.718   1.951   9.766 -0.5179 -0.9174 -1.9151
  810MOL0     H 9342   2.951   2.035   9.605 -3.3073  3.0747  0.7670
  810MOL0     H 9343   2.844   1.906   9.573 -1.1172  0.7544  0.2836
  810MOL0     H 9344   2.917   1.823   9.818  1.2008  0.0303  0.6510
  810MOL0     H 9345   3.054   1.939   9.777  0.0238  0.8403 -1.4277
  810MOL0     H 9346   2.955   1.702   9.612 -0.0382  2.0379 -1.8091
  810MOL0     H 9347   3.076   1.690   9.742  0.7654 -0.1214 -0.6351
  810MOL0     H 9348   3.299   1.832   9.408 -3.2378  2.1600 -1.6451
  810MOL0     H 9349   2.540   2.133   9.437 -0.6723 -1.5345  0.0441
  810MOL0     H 9350   2.299   2.165   9.435 -2.1843  4.6831  1.5117
  811MOL0     O 9351  10.448   5.049   0.654 -0.1362 -0.6258 -0.2778
  811MOL0     C 9352  10.542   4.982   0.616 -0.1638  0.4981  0.4382
  811MOL0     O 9353  10.557   4.927   0.486 -0.2301  0.1441  0.2548
  811MOL0     C 9354  10.452   4.899   0.400  0.0080  0.3093 -0.6706
  811MOL0     C 9355  10.477   4.902   0.265 -1.3954  0.6653  0.2988
  811MOL0     C 9356  10.380   4.859   0.166 -0.2492 -0.9391 -0.1003
  811MOL0     C 9357  10.251   4.841   0.208 -0.3243 -0.1901  0.2575
  811MOL0     O 9358  10.161   4.827   0.110  0.0089 -0.0053  0.5554
  811MOL0     C 9359  10.038   4.760   0.123  0.2395  0.4604 -0.8896
  811MOL0     C 9360   9.995   4.748  -0.022  0.2039  0.8810  0.0235
  811MOL0     C 9361   9.864   4.669  -0.039 -0.1525  0.3215 -0.3101
  811MOL0     C 9362   9.732   4.738   0.011  1.0998 -0.8250 -0.2895
  811MOL0     C 9363   9.687   4.843  -0.087 -0.0781  0.6167 -1.0690
  811MOL0     C 9364   9.613   4.777  -0.206  0.1575  0.0429  1.0034
  811MOL0     C 9365   9.641   4.859  -0.338  0.6724  0.2289 -0.2445
  811MOL0     C 9366   9.515   4.847  -0.429 -0.2438  0.2414  0.8495
  811MOL0     N 9367   9.540   4.733  -0.523 -0.0190  0.6250 -0.0063
  811MOL0     C 9368   9.480   4.622  -0.491 -1.0908  0.3112  0.3250
  811MOL0     C 9369   9.499   4.547  -0.604 -0.0675  0.5089 -0.0113
  811MOL0     C 9370   9.426   4.412  -0.623 -0.1418  0.4358  1.3054
  811MOL0     C 9371   9.278   4.443  -0.625 -0.3365  0.4354  0.1504
  811MOL0     C 9372   9.191   4.322  -0.650  0.0542  0.2510  0.5762
  811MOL0     C 9373   9.037   4.346  -0.657 -0.2837 -0.6835  0.0905
  811MOL0     O 9374   8.988   4.401  -0.530 -1.2960 -0.1098 -0.6839
  811MOL0     C 9375   8.855   4.424  -0.514  0.2030 -0.7180 -0.1288
  811MOL0     C 9376   8.825   4.493  -0.394 -0.3907 -0.2195  0.2533
  811MOL0     C 9377   8.691   4.520  -0.368  0.4170  0.1327 -0.2681
  811MOL0     C 9378   8.662   4.590  -0.238  0.1463  0.3673  0.2057
  811MOL0     C 9379   8.584   4.499  -0.461 -0.0823  0.6786  0.5234
  811MOL0     C 9380   8.444   4.531  -0.443  0.1606  0.0952  0.3236
  811MOL0     O 9381   8.367   4.496  -0.544 -0.0321  0.0811  0.0708
  811MOL0     C 9382   8.233   4.502  -0.514  0.0275  0.6665  0.0566
  811MOL0     C 9383   8.146   4.577  -0.591  0.1353 -0.1608  0.0853
  811MOL0     C 9384   8.012   4.584  -0.562 -0.3029 -0.1199 -0.4525
  811MOL0     C 9385   7.961   4.520  -0.454  0.8308  0.1030  0.1477
  811MOL0     O 9386   7.829   4.525  -0.420 -0.3106  0.1159  0.3537
  811MOL0     C 9387   7.734   4.591  -0.509 -0.3221 -0.5248 -0.8326
  811MOL0     C 9388   7.588   4.581  -0.463 -0.4841  0.5323  0.4147
  811MOL0     C 9389   7.552   4.427  -0.452 -0.2096  0.0107 -0.1552
  811MOL0     C 9390   7.410   4.419  -0.396 -0.5672 -0.2020 -0.1217
  811MOL0     C 9391   7.353   4.285  -0.414  0.1161  0.3326 -0.3243
  811MOL0     C 9392   7.217   4.270  -0.347  0.3123  0.6193 -0.2669
  811MOL0     C 9393   7.215   4.257  -0.195  0.1422 -0.0905 -0.5172
  811MOL0     C 9394   7.074   4.241  -0.127 -0.4239 -0.7779  0.4147
  811MOL0    Cl 9395   6.980   4.374  -0.189 -0.2464 -0.0817  0.4041
  811MOL0     C 9396   8.042   4.438  -0.378  0.0436  0.1422  0.3258
  811MOL0     C 9397   8.179   4.430  -0.404  0.3841 -0.4649  0.7372
  811MOL0     O 9398   8.407   4.601  -0.350  0.1028  0.3123  0.1762
  811MOL0     C 9399   8.624   4.432  -0.576  0.5061  0.5851 -0.2976
  811MOL0     C 9400   8.754   4.385  -0.598  0.1870 -0.3460  0.2164
  811MOL0     N 9401   9.575   4.615  -0.695  0.0560  0.6988 -0.9832
  811MOL0     N 9402   9.598   4.727  -0.645  0.0209  0.2248  0.5306
  811MOL0     C 9403  10.225   4.837   0.347 -0.1235  0.1947 -0.6965
  811MOL0     C 9404  10.329   4.858   0.443 -0.1433 -0.3437 -0.0628
  811MOL0     C 9405  10.662   4.981   0.704  0.0015  0.6452 -0.4781
  811MOL0     C 9406  10.657   5.033   0.839  0.0041 -0.5230 -0.4886
  811MOL0     C 9407  10.763   5.036   0.926  0.0444 -0.1909 -0.0652
  811MOL0     C 9408  10.881   4.968   0.886  0.0982 -0.8227 -0.0939
  811MOL0     O 9409  10.997   4.977   0.961  0.0873 -0.0462  0.2568
  811MOL0     C 9410  10.992   5.050   1.084  0.2834 -1.1187 -0.8580
  811MOL0     C 9411  11.123   5.064   1.145 -0.0246  0.4785 -0.3430
  811MOL0     C 9412  11.215   5.148   1.057  0.0342  0.7292  0.4780
  811MOL0     C 9413  11.330   5.203   1.136 -0.1559 -0.1852  0.0996
  811MOL0     C 9414  11.403   5.294   1.052 -0.0236 -0.0029 -0.6496
  811MOL0     C 9415  11.456   5.379   0.984  0.4805 -0.7264  0.4583
  811MOL0     C 9416  10.893   4.913   0.759  0.2095  0.1860  1.1673
  811MOL0     C 9417  10.783   4.917   0.669  0.5171  0.4528  0.1605
  811MOL0     H 9418  10.584   4.919   0.251 -1.0249 -0.7667  1.2236
  811MOL0     H 9419  10.418   4.850   0.065 -0.0200  2.1536 -0.3817
  811MOL0     H 9420  10.048   4.668   0.183  0.4908  0.3765 -1.0579
  811MOL0     H 9421   9.964   4.820   0.176  0.6494 -2.2198  3.1632
  811MOL0     H 9422   9.990   4.846  -0.070  0.7124  0.1691 -1.5266
  811MOL0     H 9423  10.079   4.697  -0.068 -0.8617 -1.1561  0.2221
  811MOL0     H 9424   9.851   4.635  -0.142  0.9622 -1.4957  0.1058
  811MOL0     H 9425   9.878   4.582   0.026  0.1913  0.1111 -0.6608
  811MOL0     H 9426   9.652   4.664   0.017 -0.5257  0.7249 -1.5570
  811MOL0     H 9427   9.752   4.779   0.110  3.7001 -0.2713 -0.9542
  811MOL0     H 9428   9.614   4.911  -0.042 -1.6077 -0.1815 -2.2234
  811MOL0     H 9429   9.774   4.903  -0.111  0.4907  0.4741  0.5107
  811MOL0     H 9430   9.653   4.675  -0.214 -1.0585 -0.3002 -1.7454
  811MOL0     H 9431   9.508   4.771  -0.175  0.0508  0.4067  0.7095
  811MOL0     H 9432   9.643   4.968  -0.323 -0.5979  0.3390 -0.7670
  811MOL0     H 9433   9.734   4.823  -0.382 -0.5729 -1.2904 -1.7332
  811MOL0     H 9434   9.494   4.939  -0.485 -3.1624 -1.1641 -0.5540
  811MOL0     H 9435   9.423   4.848  -0.371 -0.8826  1.3275 -0.1269
  811MOL0     H 9436   9.427   4.594  -0.400  1.7901 -2.8502  1.2277
  811MOL0     H 9437   9.452   4.362  -0.716  1.1115 -1.1410  2.4467
  811MOL0     H 9438   9.442   4.351  -0.534  0.8997 -1.0460  0.1389
  811MOL0     H 9439   9.269   4.519  -0.704 -2.0501  1.3755  1.1874
  811MOL0     H 9440   9.248   4.476  -0.525  0.0898 -1.6991  1.0416
  811MOL0     H 9441   9.205   4.254  -0.566  0.9319 -0.1787  0.0946
  811MOL0     H 9442   9.219   4.265  -0.739 -2.3097  2.4379 -1.7615
  811MOL0     H 9443   8.988   4.253  -0.688 -3.6044  1.1259 -0.6448
  811MOL0     H 9444   9.018   4.412  -0.742 -0.6730 -1.0362 -0.1025
  811MOL0     H 9445   8.906   4.527  -0.331  0.2513 -0.5532 -0.3826
  811MOL0     H 9446   8.737   4.554  -0.167 -0.3590  1.3815  1.2835
  811MOL0     H 9447   8.681   4.698  -0.245 -1.1385  0.5837 -0.2145
  811MOL0     H 9448   8.565   4.567  -0.194 -0.2645  0.5057 -0.6131
  811MOL0     H 9449   8.184   4.640  -0.670 -0.7532  0.3236  0.0422
  811MOL0     H 9450   7.942   4.651  -0.612 -2.1345 -2.4719 -1.2208
  811MOL0     H 9451   7.758   4.695  -0.532 -1.3916  0.0906  0.6446
  811MOL0     H 9452   7.742   4.532  -0.600 -0.1561 -0.8085 -0.6345
  811MOL0     H 9453   7.579   4.629  -0.365 -1.6985  3.9160 -1.2068
  811MOL0     H 9454   7.520   4.638  -0.527  1.1650  2.2686  0.0838
  811MOL0     H 9455   7.624   4.389  -0.380  1.0729  2.7470  0.1545
  811MOL0     H 9456   7.560   4.390  -0.555  1.5392  2.0470 -0.8460
  811MOL0     H 9457   7.414   4.462  -0.296  2.4199  3.7889 -1.6561
  811MOL0     H 9458   7.347   4.493  -0.446  0.7390  2.8904  2.4863
  811MOL0     H 9459   7.428   4.218  -0.372 -0.1009  1.9192  2.9022
  811MOL0     H 9460   7.327   4.267  -0.519 -1.3969  1.6726 -0.2208
  811MOL0     H 9461   7.156   4.357  -0.375 -0.2921  0.2821 -0.0359
  811MOL0     H 9462   7.158   4.185  -0.383  2.9927 -0.4908 -2.3192
  811MOL0     H 9463   7.274   4.342  -0.159  2.2227 -1.3747 -0.7472
  811MOL0     H 9464   7.285   4.176  -0.173 -0.7772 -1.1462 -1.3137
  811MOL0     H 9465   7.082   4.258  -0.019  0.4965  1.1431  0.0827
  811MOL0     H 9466   7.029   4.143  -0.144 -0.7945 -0.6527  0.6763
  811MOL0     H 9467   7.990   4.375  -0.306 -0.2920 -3.1210 -2.4808
  811MOL0     H 9468   8.243   4.371  -0.338 -0.6181 -1.9649  0.4153
  811MOL0     H 9469   8.549   4.408  -0.651 -1.3314  3.9757  0.2813
  811MOL0     H 9470   8.766   4.313  -0.678  1.6594  0.5487 -0.3977
  811MOL0     H 9471  10.128   4.810   0.387 -0.4152 -0.6979 -1.9336
  811MOL0     H 9472  10.314   4.844   0.550  2.8965  1.1683  0.6902
  811MOL0     H 9473  10.564   5.079   0.870  0.0432 -0.9167  0.2191
  811MOL0     H 9474  10.755   5.091   1.019  3.3847 -0.9856  0.8122
  811MOL0     H 9475  10.951   5.151   1.080  3.3071  0.3877  1.5624
  811MOL0     H 9476  10.929   4.989   1.149 -0.5976 -0.3926 -1.0069
  811MOL0     H 9477  11.163   4.963   1.153  2.6555  1.4715 -0.1206
  811MOL0     H 9478  11.111   5.103   1.246  0.4059 -0.4131  0.0652
  811MOL0     H 9479  11.146   5.228   1.028 -0.8412  0.3560  1.4880
  811MOL0     H 9480  11.262   5.104   0.969  2.4789  1.9445  1.0995
  811MOL0     H 9481  11.392   5.126   1.182 -0.7375 -1.8923 -1.8356
  811MOL0     H 9482  11.290   5.261   1.219  1.2204 -1.3131  1.6015
  811MOL0     H 9483  11.487   5.464   0.927 -0.4183 -0.1232  0.8524
  811MOL0     H 9484  10.989   4.868   0.733 -1.1023 -2.8100  1.1342
  811MOL0     H 9485  10.786   4.870   0.571  3.1806  0.6671  0.0536
  812MOL0     O 9486   3.827  10.803   4.466 -0.1611  0.0816 -0.1385
  812MOL0     C 9487   3.810  10.918   4.511 -0.1865  0.6106  0.4683
  812MOL0     O 9488   3.909  11.015   4.515 -0.3400  0.0126 -0.1266
  812MOL0     C 9489   4.038  10.985   4.464  0.1859  0.1311 -0.4900
  812MOL0     C 9490   4.141  11.066   4.517 -1.4623  0.9208  0.3261
  812MOL0     C 9491   4.279  11.071   4.458  0.6216 -0.5805  0.4490
  812MOL0     C 9492   4.305  10.999   4.342 -0.4705  0.8321 -1.1005
  812MOL0     O 9493   4.426  11.012   4.289 -0.1723 -0.0846  0.0744
  812MOL0     C 9494   4.455  10.965   4.154 -0.5799  0.8649  0.3238
  812MOL0     C 9495   4.596  10.993   4.109  0.6789  0.1925  0.2958
  812MOL0     C 9496   4.631  10.955   3.963 -0.2020  0.5498  0.6916
  812MOL0     C 9497   4.774  11.009   3.915  0.4997  0.5067  0.4921
  812MOL0     C 9498   4.802  10.987   3.764 -0.8359  0.0527 -0.3050
  812MOL0     C 9499   4.805  10.846   3.707 -0.5460 -0.1883  0.3534
  812MOL0     C 9500   4.848  10.849   3.561  0.1048  0.9942 -0.1357
  812MOL0     C 9501   4.828  10.716   3.500  0.0951 -0.4993 -0.6824
  812MOL0     N 9502   4.687  10.663   3.493 -0.1006 -0.3272  0.1567
  812MOL0     C 9503   4.641  10.565   3.572 -0.6060 -0.1007 -0.4586
  812MOL0     C 9504   4.514  10.556   3.534  0.5145  0.8429  0.6749
  812MOL0     C 9505   4.414  10.472   3.618  0.1827 -0.0819 -0.1439
  812MOL0     C 9506   4.316  10.551   3.691 -0.4523 -0.0404  0.9649
  812MOL0     C 9507   4.215  10.468   3.769  0.4801  0.3614 -0.5884
  812MOL0     C 9508   4.116  10.388   3.681  0.2765 -0.0661  0.3338
  812MOL0     O 9509   4.016  10.321   3.764 -0.4675  0.0898  0.0950
  812MOL0     C 9510   3.891  10.318   3.725 -0.5387  0.4951  0.3819
  812MOL0     C 9511   3.861  10.287   3.593 -0.0668 -0.8852 -0.2576
  812MOL0     C 9512   3.736  10.298   3.542 -0.3796  0.1675 -0.1226
  812MOL0     C 9513   3.739  10.268   3.393  0.6662 -0.0661  0.3800
  812MOL0     C 9514   3.626  10.326   3.628  0.6035 -0.4633 -0.5036
  812MOL0     C 9515   3.479  10.328   3.589 -0.7557  0.0967  0.7344
  812MOL0     O 9516   3.391  10.388   3.678 -0.7674 -0.1779  0.0773
  812MOL0     C 9517   3.256  10.386   3.647 -0.0263 -0.4704  0.4684
  812MOL0     C 9518   3.184  10.506   3.618 -0.6521  1.0100  0.7892
  812MOL0     C 9519   3.057  10.495   3.576  0.3990  0.6078 -0.2064
  812MOL0     C 9520   2.995  10.367   3.547 -1.4924  0.4286  0.5558
  812MOL0     O 9521   2.867  10.377   3.493 -0.0710 -0.3885  0.5366
  812MOL0     C 9522   2.823  10.264   3.417 -0.1674 -0.1527  0.5652
  812MOL0     C 9523   2.747  10.311   3.288 -0.9341 -0.0375 -0.5737
  812MOL0     C 9524   2.836  10.390   3.188  0.7317 -0.1647 -0.2170
  812MOL0     C 9525   2.838  10.544   3.215  0.7482 -0.2561 -0.3097
  812MOL0     C 9526   2.933  10.603   3.114  0.2343 -1.4624  0.5900
  812MOL0     C 9527   2.979  10.754   3.132  0.4817  0.9656  0.0344
  812MOL0     C 9528   3.072  10.778   3.257 -0.3175 -0.2871 -0.0965
  812MOL0     C 9529   3.109  10.929   3.266 -0.2677 -0.1207 -0.6337
  812MOL0    Cl 9530   2.970  11.004   3.330 -0.0772 -0.3052  0.4706
  812MOL0     C 9531   3.066  10.250   3.583 -0.4864 -1.1885 -0.1172
  812MOL0     C 9532   3.193  10.261   3.637  0.1472 -0.6082  0.6819
  812MOL0     O 9533   3.452  10.273   3.481  0.2880 -0.2579 -0.0013
  812MOL0     C 9534   3.655  10.355   3.762 -0.3678 -0.5978 -0.0176
  812MOL0     C 9535   3.788  10.352   3.810  0.9745  0.5847 -1.0090
  812MOL0     N 9536   4.482  10.650   3.439 -0.2261 -0.6651  0.2391
  812MOL0     N 9537   4.588  10.720   3.422  0.5360  0.1497  0.0206
  812MOL0     C 9538   4.198  10.931   4.286  0.1877  0.1290  1.0597
  812MOL0     C 9539   4.067  10.913   4.348  0.0307  0.2127  0.0744
  812MOL0     C 9540   3.677  10.947   4.572  0.3468 -0.1832 -0.7911
  812MOL0     C 9541   3.650  11.064   4.643  0.1954 -0.5086  0.0240
  812MOL0     C 9542   3.528  11.100   4.692  0.3191 -0.7804 -0.3094
  812MOL0     C 9543   3.421  11.007   4.684 -0.3635  0.0077  0.6484
  812MOL0     O 9544   3.300  11.057   4.717  0.2717  0.6560 -1.1300
  812MOL0     C 9545   3.173  10.986   4.691  0.2249 -0.4313  0.5882
  812MOL0     C 9546   3.128  10.883   4.800  0.7425 -0.3764 -0.1951
  812MOL0     C 9547   2.989  10.836   4.750  0.2715 -0.7381 -0.3093
  812MOL0     C 9548   2.946  10.708   4.826  0.6888 -0.5924 -1.6416
  812MOL0     C 9549   2.893  10.750   4.957  0.9549 -0.2465  0.4071
  812MOL0     C 9550   2.856  10.781   5.073  0.0827 -0.5826 -0.0990
  812MOL0     C 9551   3.444  10.881   4.619 -0.2867 -0.3948 -0.0303
  812MOL0     C 9552   3.571  10.850   4.562  0.6751  0.5907  1.2477
  812MOL0     H 9553   4.124  11.134   4.600 -0.6402  0.7187  0.6747
  812MOL0     H 9554   4.356  11.127   4.510 -0.2758 -1.7577  3.2847
  812MOL0     H 9555   4.430  10.859   4.147  1.3169  0.4573 -1.1307
  812MOL0     H 9556   4.396  11.018   4.078  0.5900  0.0344 -1.2383
  812MOL0     H 9557   4.612  11.101   4.111  1.0802  0.1397 -0.0962
  812MOL0     H 9558   4.662  10.947   4.184  2.0818  3.0548  0.9391
  812MOL0     H 9559   4.613  10.849   3.942 -3.1315  1.3366 -1.4283
  812MOL0     H 9560   4.553  10.999   3.900 -0.3866 -0.9360 -0.1536
  812MOL0     H 9561   4.777  11.117   3.930  0.1767  0.3217  2.1223
  812MOL0     H 9562   4.840  10.947   3.976 -1.3775  0.7524  2.9691
  812MOL0     H 9563   4.724  11.052   3.723 -1.0478  1.5415  2.2532
  812MOL0     H 9564   4.895  11.040   3.743 -0.6423 -0.5533 -1.0418
  812MOL0     H 9565   4.870  10.780   3.764  1.7912  1.0923 -0.6804
  812MOL0     H 9566   4.709  10.795   3.719  0.3726 -1.7956  1.1349
  812MOL0     H 9567   4.794  10.929   3.508 -2.0033 -0.2296  0.0660
  812MOL0     H 9568   4.955  10.874   3.560  0.8005 -1.0234  3.7729
  812MOL0     H 9569   4.894  10.649   3.555 -0.6377  0.6581  1.7680
  812MOL0     H 9570   4.852  10.728   3.395 -2.0086 -2.8234 -1.5375
  812MOL0     H 9571   4.703  10.508   3.641  2.6618  0.9977 -2.2520
  812MOL0     H 9572   4.370  10.393   3.557 -2.1970 -0.2346  1.6342
  812MOL0     H 9573   4.481  10.424   3.689 -0.5958  2.3303  2.4344
  812MOL0     H 9574   4.271  10.620   3.620  0.8065  1.1115  1.2422
  812MOL0     H 9575   4.373  10.617   3.758  1.6076  0.4453 -1.1441
  812MOL0     H 9576   4.158  10.538   3.832  2.1627  1.6784 -0.4661
  812MOL0     H 9577   4.272  10.405   3.839  2.1473  0.4009 -1.8583
  812MOL0     H 9578   4.170  10.310   3.626 -1.7902 -0.7282 -0.9028
  812MOL0     H 9579   4.067  10.469   3.626  1.5468  1.3847  1.2754
  812MOL0     H 9580   3.944  10.268   3.526 -0.6840  0.0802 -1.3288
  812MOL0     H 9581   3.697  10.168   3.375 -3.0914  0.9877  2.2706
  812MOL0     H 9582   3.674  10.344   3.348 -1.1395 -2.1034 -0.6979
  812MOL0     H 9583   3.840  10.277   3.354 -0.7123  0.2950 -3.4952
  812MOL0     H 9584   3.235  10.598   3.647  1.6508 -0.7851  2.8497
  812MOL0     H 9585   2.991  10.581   3.570 -0.6711  0.0050  1.8461
  812MOL0     H 9586   2.905  10.199   3.384 -1.4049 -1.7241  0.4963
  812MOL0     H 9587   2.751  10.216   3.484  1.1435 -4.7423 -0.9778
  812MOL0     H 9588   2.700  10.228   3.235 -2.2715  1.3986 -1.7008
  812MOL0     H 9589   2.663  10.369   3.326 -0.1448  0.7502  0.0174
  812MOL0     H 9590   2.781  10.377   3.094 -0.0895 -1.9775  0.4736
  812MOL0     H 9591   2.934  10.343   3.178  0.4572 -0.5101 -1.4359
  812MOL0     H 9592   2.743  10.597   3.208  1.0512  0.2630 -0.5265
  812MOL0     H 9593   2.882  10.557   3.314  1.3231 -0.4897 -0.5309
  812MOL0     H 9594   2.887  10.590   3.015  0.9418 -0.0691  0.0594
  812MOL0     H 9595   3.028  10.548   3.117 -0.3352 -2.5504 -0.3447
  812MOL0     H 9596   3.030  10.788   3.042 -0.2545 -0.6319 -1.0311
  812MOL0     H 9597   2.888  10.815   3.130 -0.2086 -0.0414 -2.8913
  812MOL0     H 9598   3.160  10.714   3.248  0.0556  0.2358 -0.1956
  812MOL0     H 9599   3.021  10.759   3.352  1.1771 -0.2310  0.7415
  812MOL0     H 9600   3.125  10.970   3.165 -1.0640 -0.4431 -0.9009
  812MOL0     H 9601   3.198  10.950   3.325 -0.6016  3.9241 -1.2498
  812MOL0     H 9602   3.029  10.151   3.556  0.1426 -0.5682 -3.9043
  812MOL0     H 9603   3.237  10.164   3.658 -3.5683 -2.1674  2.1879
  812MOL0     H 9604   3.575  10.386   3.829  0.7104  1.6199  0.3411
  812MOL0     H 9605   3.789  10.384   3.913 -2.5092 -2.7337  0.3321
  812MOL0     H 9606   4.206  10.872   4.196  0.0440  1.0481  0.4243
  812MOL0     H 9607   3.989  10.854   4.300  0.7854 -2.0483  1.4969
  812MOL0     H 9608   3.734  11.132   4.643  0.6710 -1.0858  0.2221
  812MOL0     H 9609   3.523  11.201   4.733 -0.3297 -1.0451  0.2845
  812MOL0     H 9610   3.094  11.061   4.685  1.5057  0.8471 -2.0148
  812MOL0     H 9611   3.182  10.933   4.596  1.9193  0.4642  0.2097
  812MOL0     H 9612   3.126  10.915   4.904  0.5017  0.5192 -0.4632
  812MOL0     H 9613   3.190  10.793   4.799 -2.3806 -2.7114 -0.8470
  812MOL0     H 9614   2.981  10.815   4.643 -1.4122  1.0132 -0.5857
  812MOL0     H 9615   2.910  10.911   4.756  0.1624 -0.5744 -2.7987
  812MOL0     H 9616   3.030  10.643   4.853  0.8544  0.4066  0.4204
  812MOL0     H 9617   2.866  10.658   4.771 -0.2158  0.6788 -1.5068
  812MOL0     H 9618   2.828  10.808   5.173  0.0869 -1.3848  0.1260
  812MOL0     H 9619   3.359  10.813   4.625 -0.8875  0.3942  0.5534
  812MOL0     H 9620   3.578  10.754   4.513 -2.8627  0.8640 -0.0968
  813MOL0     O 9621   4.589   4.239   5.696 -0.4672  0.3078  0.0994
  813MOL0     C 9622   4.607   4.354   5.723 -0.1655 -0.3474 -0.3785
  813MOL0     O 9623   4.508   4.444   5.769  0.7779 -1.1212 -0.2441
  813MOL0     C 9624   4.386   4.398   5.799 -0.2525  0.1487  0.5054
  813MOL0     C 9625   4.277   4.478   5.777  0.0609 -0.4453  0.2936
  813MOL0     C 9626   4.154   4.431   5.807  0.5470 -0.4022  0.7412
  813MOL0     C 9627   4.136   4.296   5.857 -0.3058 -0.2317  0.7778
  813MOL0     O 9628   4.021   4.241   5.898 -0.0987 -0.2208 -0.2572
  813MOL0     C 9629   3.924   4.241   5.794 -0.3455 -0.1222 -0.9145
  813MOL0     C 9630   3.831   4.127   5.828  0.1784 -0.4099 -0.2401
  813MOL0     C 9631   3.723   4.106   5.724 -1.3317 -0.6430  0.8776
  813MOL0     C 9632   3.628   3.994   5.776  0.1216 -0.5179  0.8504
  813MOL0     C 9633   3.513   3.960   5.682 -0.3385 -0.6115  1.0453
  813MOL0     C 9634   3.380   4.042   5.706  0.5562 -0.4188  0.0726
  813MOL0     C 9635   3.258   3.954   5.698  0.6423  0.5694  0.0935
  813MOL0     C 9636   3.243   3.888   5.556 -0.8905 -0.5412  0.0919
  813MOL0     N 9637   3.107   3.854   5.529 -0.0751 -0.3568 -1.0052
  813MOL0     C 9638   3.000   3.933   5.494  0.5823 -0.6199  0.0671
  813MOL0     C 9639   2.885   3.866   5.508 -0.8034 -0.1054  0.2731
  813MOL0     C 9640   2.744   3.912   5.484 -0.3375 -0.5559  0.1608
  813MOL0     C 9641   2.715   3.992   5.612  0.5576  0.3381  0.4096
  813MOL0     C 9642   2.702   3.911   5.740  0.5054  0.1046  0.4211
  813MOL0     C 9643   2.582   3.820   5.749 -0.0389  0.5451 -0.9621
  813MOL0     O 9644   2.453   3.894   5.737 -0.0930 -0.1816 -0.6632
  813MOL0     C 9645   2.328   3.829   5.766 -0.4336  0.2671 -0.1494
  813MOL0     C 9646   2.311   3.692   5.759  0.6572  0.3466  0.3095
  813MOL0     C 9647   2.182   3.635   5.766 -0.7319 -0.5234  0.0635
  813MOL0     C 9648   2.183   3.486   5.755 -1.5925 -0.8792  0.9444
  813MOL0     C 9649   2.073   3.707   5.807  0.4238 -0.7145  0.3454
  813MOL0     C 9650   1.938   3.651   5.849  0.9598  0.0222  0.0079
  813MOL0     O 9651   1.841   3.739   5.854 -0.5757 -0.2268  0.2222
  813MOL0     C 9652   1.727   3.702   5.909  1.0666 -0.3757  0.1562
  813MOL0     C 9653   1.700   3.727   6.049 -0.4883 -0.4117  0.0889
  813MOL0     C 9654   1.581   3.696   6.110 -0.3683  0.0759 -0.3692
  813MOL0     C 9655   1.486   3.632   6.034  0.5329  0.3983 -0.4010
  813MOL0     O 9656   1.357   3.603   6.079  0.0649 -0.1165  0.2456
  813MOL0     C 9657   1.334   3.608   6.220  0.0714 -0.5378  1.1422
  813MOL0     C 9658   1.204   3.531   6.254 -0.5337 -0.2366  0.2060
  813MOL0     C 9659   1.075   3.584   6.201 -0.0622 -0.3280  0.2714
  813MOL0     C 9660   0.964   3.491   6.256  0.6230  0.3654 -0.1073
  813MOL0     C 9661   0.826   3.541   6.209  0.5643 -0.0415 -0.6543
  813MOL0     C 9662   0.711   3.458   6.263 -0.3361 -0.7863  0.2006
  813MOL0     C 9663   0.581   3.515   6.205  0.5234 -0.8066 -0.4793
  813MOL0     C 9664   0.455   3.431   6.241  0.2275  0.0673 -0.2926
  813MOL0    Cl 9665   0.397   3.486   6.399  0.3058  0.2162  0.2682
  813MOL0     C 9666   1.505   3.600   5.902 -0.7464 -0.7970  0.5727
  813MOL0     C 9667   1.631   3.628   5.839  0.3221  0.2891  0.2186
  813MOL0     O 9668   1.937   3.533   5.882 -0.4643  0.0815 -0.0028
  813MOL0     C 9669   2.095   3.845   5.818 -0.7002  0.1394  0.3938
  813MOL0     C 9670   2.219   3.903   5.799  0.2463 -0.2824  0.4924
  813MOL0     N 9671   2.925   3.745   5.557  0.1282  0.6228 -0.3099
  813MOL0     N 9672   3.054   3.736   5.561  0.7599  0.2860  0.3482
  813MOL0     C 9673   4.243   4.224   5.893 -0.5046  0.5384 -0.3967
  813MOL0     C 9674   4.369   4.274   5.871  0.7899  0.0429 -0.4259
  813MOL0     C 9675   4.748   4.406   5.710  0.0293  0.7589  0.2540
  813MOL0     C 9676   4.859   4.322   5.674 -0.7848  1.3202  0.3527
  813MOL0     C 9677   4.992   4.372   5.669 -0.1782 -1.1108  0.3906
  813MOL0     C 9678   5.012   4.507   5.679  0.3571  0.9167 -0.0276
  813MOL0     O 9679   5.133   4.566   5.671 -0.1606 -0.6696  0.1096
  813MOL0     C 9680   5.232   4.514   5.754 -0.1154 -0.0661  0.5146
  813MOL0     C 9681   5.354   4.609   5.751 -0.7970 -0.0424  0.3927
  813MOL0     C 9682   5.313   4.754   5.786  0.0017 -0.2116  0.2490
  813MOL0     C 9683   5.428   4.848   5.808  0.3252 -0.2000  0.0736
  813MOL0     C 9684   5.481   4.864   5.944  0.5003  0.3271 -0.2876
  813MOL0     C 9685   5.522   4.884   6.060 -0.2233 -0.6683  0.2916
  813MOL0     C 9686   4.902   4.592   5.688 -0.5303  0.2366  0.4974
  813MOL0     C 9687   4.774   4.544   5.713 -0.1618 -0.5252 -0.3301
  813MOL0     H 9688   4.298   4.576   5.734  0.9366 -0.4101  0.7579
  813MOL0     H 9689   4.064   4.488   5.784  1.6865  0.6716 -1.2670
  813MOL0     H 9690   3.870   4.336   5.799 -2.5161 -1.3524  1.1863
  813MOL0     H 9691   3.963   4.233   5.692  4.1084  2.0769  0.3791
  813MOL0     H 9692   3.883   4.031   5.842 -0.3460 -0.4086  2.2512
  813MOL0     H 9693   3.795   4.133   5.931 -2.7722 -2.0221 -1.0628
  813MOL0     H 9694   3.679   4.205   5.709  1.9268  0.7607 -0.2032
  813MOL0     H 9695   3.762   4.077   5.627 -0.2052  1.9929  0.4569
  813MOL0     H 9696   3.689   3.908   5.806 -1.2808 -0.3996  4.5474
  813MOL0     H 9697   3.589   4.033   5.871 -0.9609  1.9164 -0.4915
  813MOL0     H 9698   3.541   3.962   5.576  1.4792 -0.3257  1.4925
  813MOL0     H 9699   3.485   3.858   5.709 -1.0797 -1.1233 -1.4502
  813MOL0     H 9700   3.369   4.079   5.808 -2.0762  0.8603 -0.5782
  813MOL0     H 9701   3.366   4.130   5.642  0.2793  1.7570  2.9099
  813MOL0     H 9702   3.248   3.887   5.784  1.7316 -0.5821 -0.6433
  813MOL0     H 9703   3.176   4.024   5.716  0.8698  1.0676 -0.7782
  813MOL0     H 9704   3.299   3.795   5.552 -0.2577 -0.1729  0.1649
  813MOL0     H 9705   3.291   3.953   5.481  0.5497 -0.4157  1.0719
  813MOL0     H 9706   3.007   4.041   5.481  0.3009 -0.4963  0.9092
  813MOL0     H 9707   2.754   3.973   5.393  3.2935 -2.1557 -0.7008
  813MOL0     H 9708   2.664   3.841   5.460 -0.6708  0.4850 -2.1139
  813MOL0     H 9709   2.618   4.039   5.589  1.2399  0.5950 -2.3739
  813MOL0     H 9710   2.784   4.076   5.616  0.7933  0.1560  0.1465
  813MOL0     H 9711   2.702   3.985   5.821 -0.4216  0.2476  0.3052
  813MOL0     H 9712   2.791   3.851   5.761  1.5543  1.9481  1.5643
  813MOL0     H 9713   2.585   3.772   5.847 -1.1600 -0.2665 -1.3077
  813MOL0     H 9714   2.596   3.741   5.674  2.5373  1.2270 -1.3060
  813MOL0     H 9715   2.396   3.633   5.726 -1.2181 -1.6827 -1.2105
  813MOL0     H 9716   2.086   3.445   5.723 -2.3445  2.5009 -1.6063
  813MOL0     H 9717   2.252   3.459   5.675 -1.6258 -2.4352  1.3907
  813MOL0     H 9718   2.213   3.436   5.848 -2.7780 -2.4678  0.5291
  813MOL0     H 9719   1.784   3.771   6.102  1.9354 -1.6294 -2.4892
  813MOL0     H 9720   1.571   3.730   6.212 -0.7239  1.0681 -0.7276
  813MOL0     H 9721   1.418   3.557   6.269  2.9629  1.2634 -1.5600
  813MOL0     H 9722   1.328   3.714   6.248  4.3620  0.8003 -1.9611
  813MOL0     H 9723   1.214   3.432   6.210 -0.9026 -0.1340 -0.1154
  813MOL0     H 9724   1.206   3.513   6.362 -2.5533 -1.1859  0.1352
  813MOL0     H 9725   1.074   3.588   6.091  0.7999  1.4583  0.2912
  813MOL0     H 9726   1.053   3.684   6.240 -0.6014 -0.0525 -0.6813
  813MOL0     H 9727   0.982   3.389   6.220  2.2632 -0.0872  1.8363
  813MOL0     H 9728   0.977   3.488   6.365  0.8490 -3.1183 -0.1173
  813MOL0     H 9729   0.822   3.546   6.100 -0.8439  1.8567 -0.5697
  813MOL0     H 9730   0.803   3.642   6.245 -1.4367 -0.5114 -0.4554
  813MOL0     H 9731   0.716   3.353   6.232  0.2897 -0.8150  0.3724
  813MOL0     H 9732   0.716   3.454   6.372  4.6887  0.3395  0.2499
  813MOL0     H 9733   0.594   3.513   6.096 -1.6003 -1.1905 -0.7703
  813MOL0     H 9734   0.566   3.621   6.227  0.8900 -0.3235 -2.3695
  813MOL0     H 9735   0.482   3.326   6.255  4.6469  1.0148 -0.2796
  813MOL0     H 9736   0.371   3.451   6.174 -1.3954  3.3277  2.4017
  813MOL0     H 9737   1.425   3.548   5.850 -0.7925  1.2619 -1.5591
  813MOL0     H 9738   1.649   3.613   5.733  1.5750  2.0404  0.1382
  813MOL0     H 9739   2.020   3.909   5.864 -0.3891 -1.3697  3.1930
  813MOL0     H 9740   2.233   4.009   5.820  0.5315 -0.3783  0.8042
  813MOL0     H 9741   4.232   4.137   5.957 -0.5360  0.4348 -0.5456
  813MOL0     H 9742   4.454   4.224   5.917  1.9200  3.8124  2.0769
  813MOL0     H 9743   4.837   4.216   5.672 -0.7133  1.3153 -0.9739
  813MOL0     H 9744   5.072   4.301   5.654  0.4742 -0.7816  2.0105
  813MOL0     H 9745   5.202   4.495   5.857  0.4299 -1.8115  0.3940
  813MOL0     H 9746   5.268   4.417   5.717 -0.5711  0.0948 -0.3796
  813MOL0     H 9747   5.397   4.610   5.651 -1.3501  1.7665  0.1251
  813MOL0     H 9748   5.435   4.578   5.817 -1.8320 -4.2550 -0.0802
  813MOL0     H 9749   5.251   4.761   5.876 -0.0770  1.1864  0.1097
  813MOL0     H 9750   5.250   4.794   5.707  0.4156  0.3491  0.1957
  813MOL0     H 9751   5.399   4.950   5.780  0.4875 -0.1469  0.1037
  813MOL0     H 9752   5.504   4.827   5.732 -0.1514 -0.9768 -0.2010
  813MOL0     H 9753   5.557   4.913   6.157  3.1924  2.2853 -1.5892
  813MOL0     H 9754   4.918   4.699   5.686 -1.0233  0.3222  0.8876
  813MOL0     H 9755   4.703   4.624   5.733  0.4636  0.6202 -2.3580
  814MOL0     O 9756   7.631   0.587   3.571  0.4674  0.2610 -0.1734
  814MOL0     C 9757   7.744   0.611   3.561 -0.3308  0.7577 -0.0564
  814MOL0     O 9758   7.803   0.733   3.564  0.4851  0.0595  0.2967
  814MOL0     C 9759   7.729   0.845   3.593  0.5169 -0.2589  0.1018
  814MOL0     C 9760   7.652   0.916   3.499 -0.9318  0.2044 -0.6022
  814MOL0     C 9761   7.588   1.039   3.529  0.3575  0.0961  0.1345
  814MOL0     C 9762   7.586   1.082   3.664 -0.5958  0.1934  0.6501
  814MOL0     O 9763   7.509   1.188   3.703 -0.1450 -0.2713 -0.1216
  814MOL0     C 9764   7.405   1.222   3.610 -0.3368  0.1859 -0.3296
  814MOL0     C 9765   7.313   1.329   3.684 -0.3692  0.1592 -0.4499
  814MOL0     C 9766   7.187   1.368   3.599 -0.4448 -1.1617  0.4818
  814MOL0     C 9767   7.233   1.471   3.481  0.0025  0.3852 -0.0612
  814MOL0     C 9768   7.306   1.600   3.521  0.2110  1.2017  0.0723
  814MOL0     C 9769   7.217   1.689   3.613 -0.0477  0.0165 -0.2708
  814MOL0     C 9770   7.081   1.727   3.562  0.6405 -0.3018  0.4257
  814MOL0     C 9771   7.083   1.817   3.437 -0.0067 -0.3575  0.1916
  814MOL0     N 9772   6.943   1.868   3.412  0.2588 -0.1605 -0.3058
  814MOL0     C 9773   6.817   1.830   3.462 -0.9034 -0.0558 -0.0062
  814MOL0     C 9774   6.727   1.911   3.406  0.6764 -0.8415 -0.1624
  814MOL0     C 9775   6.581   1.903   3.438 -0.2249 -0.2462 -0.0532
  814MOL0     C 9776   6.527   2.035   3.472 -0.3530  0.4900 -0.5399
  814MOL0     C 9777   6.577   2.088   3.608  0.1058  0.2054 -0.2860
  814MOL0     C 9778   6.584   1.980   3.719 -0.8027 -0.2792  0.4644
  814MOL0     O 9779   6.471   1.895   3.725 -0.1866 -0.5039 -0.2651
  814MOL0     C 9780   6.351   1.954   3.736  0.4101  0.5120  0.0505
  814MOL0     C 9781   6.236   1.880   3.700 -0.7999 -0.5029  0.4383
  814MOL0     C 9782   6.101   1.921   3.714 -0.1835  0.1728 -1.3236
  814MOL0     C 9783   5.996   1.814   3.674 -0.0831 -0.0358 -0.0413
  814MOL0     C 9784   6.079   2.049   3.769 -0.3713  0.1636 -0.0517
  814MOL0     C 9785   5.946   2.104   3.815 -0.2792  0.1101  0.0705
  814MOL0     O 9786   5.838   2.026   3.836  0.0019 -0.8315  0.3433
  814MOL0     C 9787   5.724   2.088   3.869 -0.6051  0.1420 -0.2942
  814MOL0     C 9788   5.623   2.113   3.781  0.6999  0.4157 -0.2538
  814MOL0     C 9789   5.498   2.163   3.827 -0.7863 -0.6902 -0.5653
  814MOL0     C 9790   5.480   2.205   3.963  0.0835 -0.2475 -0.1042
  814MOL0     O 9791   5.356   2.263   3.985  0.2274  0.6746 -0.2705
  814MOL0     C 9792   5.305   2.252   4.121  0.1089 -1.1190 -0.1103
  814MOL0     C 9793   5.172   2.334   4.144 -0.3388 -0.1022 -0.9360
  814MOL0     C 9794   5.196   2.483   4.180 -0.1140  0.1227 -0.0330
  814MOL0     C 9795   5.063   2.557   4.206 -0.0557 -0.1985 -0.3169
  814MOL0     C 9796   5.081   2.704   4.256  0.4167 -0.2590 -0.4430
  814MOL0     C 9797   4.952   2.758   4.313  0.2130 -0.1777 -0.2791
  814MOL0     C 9798   4.851   2.801   4.208  0.3890 -0.0580  0.4497
  814MOL0     C 9799   4.733   2.880   4.260  0.0725  0.6530  0.1651
  814MOL0    Cl 9800   4.644   2.780   4.384 -0.5053 -0.0537  0.7150
  814MOL0     C 9801   5.589   2.184   4.047  1.1659 -0.5932  0.4496
  814MOL0     C 9802   5.704   2.124   3.999 -0.1278  0.0505  0.3452
  814MOL0     O 9803   5.947   2.225   3.814  0.0000 -0.6091 -0.2849
  814MOL0     C 9804   6.194   2.124   3.802  0.9793  0.4304 -0.3790
  814MOL0     C 9805   6.319   2.083   3.782  0.1747  0.2688 -0.0226
  814MOL0     N 9806   6.789   1.995   3.319 -0.0655  0.3358 -0.1164
  814MOL0     N 9807   6.921   1.978   3.338  0.4744  0.4686 -0.1578
  814MOL0     C 9808   7.660   1.008   3.759  0.0712  0.0205  0.0430
  814MOL0     C 9809   7.726   0.891   3.726 -0.2126  0.6241 -0.2893
  814MOL0     C 9810   7.841   0.490   3.549  0.5207  0.1675  0.2340
  814MOL0     C 9811   7.793   0.362   3.549  0.1925 -0.3141 -0.1027
  814MOL0     C 9812   7.882   0.251   3.548  0.5260 -0.4986 -0.2975
  814MOL0     C 9813   8.020   0.268   3.553  0.2387 -0.0669 -0.6564
  814MOL0     O 9814   8.091   0.160   3.530 -0.0122 -0.5180 -0.4048
  814MOL0     C 9815   8.234   0.183   3.505  0.3110  0.1309  1.3025
  814MOL0     C 9816   8.311   0.049   3.507  1.1884  0.1404  1.1447
  814MOL0     C 9817   8.466   0.059   3.493 -0.1178 -0.3977 -0.4852
  814MOL0     C 9818   8.534  -0.080   3.496 -0.5729 -0.2262  0.0572
  814MOL0     C 9819   8.479  -0.172   3.588  0.3026  0.0770  0.2952
  814MOL0     C 9820   8.432  -0.260   3.657  1.0577  0.6117  0.8581
  814MOL0     C 9821   8.072   0.401   3.566 -0.0580 -0.3408  0.1178
  814MOL0     C 9822   7.982   0.512   3.558 -0.1724  0.3108 -0.5349
  814MOL0     H 9823   7.656   0.877   3.398  0.3973  0.9419 -0.8608
  814MOL0     H 9824   7.531   1.076   3.444  1.6660 -2.9146 -2.2403
  814MOL0     H 9825   7.450   1.271   3.524 -3.2444  2.1483 -0.9001
  814MOL0     H 9826   7.342   1.141   3.572  0.4534  0.2912 -1.9751
  814MOL0     H 9827   7.271   1.282   3.774 -2.7642  2.0087 -0.4895
  814MOL0     H 9828   7.356   1.422   3.722 -1.7432  0.3352  0.7635
  814MOL0     H 9829   7.134   1.280   3.561 -3.9129 -0.1613  2.5208
  814MOL0     H 9830   7.121   1.425   3.665  1.4637  1.4912  0.2603
  814MOL0     H 9831   7.303   1.411   3.422 -0.7127 -0.0930 -0.4400
  814MOL0     H 9832   7.146   1.486   3.417  1.3490 -1.7797 -2.6000
  814MOL0     H 9833   7.399   1.581   3.575 -2.4900 -3.8223  3.8338
  814MOL0     H 9834   7.325   1.642   3.422 -1.9912 -0.8375 -1.3108
  814MOL0     H 9835   7.202   1.634   3.707  2.2052  0.4478  0.4093
  814MOL0     H 9836   7.274   1.780   3.634  1.6724 -0.2908 -3.0888
  814MOL0     H 9837   7.030   1.632   3.541  0.7182 -0.8326  2.4507
  814MOL0     H 9838   7.044   1.772   3.654  2.7231  1.4167  0.5110
  814MOL0     H 9839   7.124   1.772   3.346 -1.1790  1.0993 -1.0946
  814MOL0     H 9840   7.144   1.903   3.467 -1.2519 -0.1987  2.5577
  814MOL0     H 9841   6.795   1.751   3.533 -3.2428  0.0298 -0.5640
  814MOL0     H 9842   6.531   1.870   3.346 -0.4760 -0.3861  0.1303
  814MOL0     H 9843   6.563   1.829   3.517 -1.1714  0.8953  0.8362
  814MOL0     H 9844   6.419   2.023   3.483 -0.2219  0.9413  1.6890
  814MOL0     H 9845   6.549   2.112   3.398  1.5187 -0.1809 -0.7249
  814MOL0     H 9846   6.512   2.170   3.641 -0.1690 -0.2031  0.2021
  814MOL0     H 9847   6.675   2.134   3.589 -0.6206  2.2083  0.5325
  814MOL0     H 9848   6.599   2.029   3.816 -0.2802 -0.9472  0.7285
  814MOL0     H 9849   6.669   1.914   3.700 -1.2332 -0.6100 -0.3856
  814MOL0     H 9850   6.261   1.781   3.662 -1.0655  0.3991 -2.3356
  814MOL0     H 9851   6.024   1.728   3.736 -0.2567 -1.1337 -1.4351
  814MOL0     H 9852   5.893   1.848   3.691 -0.2048 -0.6662  0.5148
  814MOL0     H 9853   6.012   1.786   3.570  1.6019  3.0748 -0.7383
  814MOL0     H 9854   5.636   2.103   3.674  1.9950  2.6189 -0.3779
  814MOL0     H 9855   5.420   2.156   3.752 -1.5200 -0.3819  0.1459
  814MOL0     H 9856   5.287   2.144   4.131  0.0943 -1.1874 -0.8075
  814MOL0     H 9857   5.378   2.281   4.196 -0.5135 -0.0082  0.0848
  814MOL0     H 9858   5.101   2.323   4.062  0.2685  2.0548 -1.8190
  814MOL0     H 9859   5.121   2.294   4.233  3.5439 -1.5536  0.8655
  814MOL0     H 9860   5.245   2.536   4.098  0.1366  0.9695  0.6453
  814MOL0     H 9861   5.260   2.487   4.269 -1.2686  2.3557  0.7723
  814MOL0     H 9862   5.007   2.562   4.113  1.5759  3.7777 -1.2890
  814MOL0     H 9863   5.008   2.513   4.291  0.4321  2.6221  1.5942
  814MOL0     H 9864   5.127   2.769   4.180  0.9379 -2.7449 -2.3769
  814MOL0     H 9865   5.150   2.688   4.339 -1.1602 -4.8616  0.2310
  814MOL0     H 9866   4.910   2.678   4.374 -1.1876  0.3868 -0.4690
  814MOL0     H 9867   4.981   2.847   4.368  0.4748 -0.7498  0.5313
  814MOL0     H 9868   4.811   2.714   4.154  0.0066  0.0316  0.5832
  814MOL0     H 9869   4.906   2.855   4.131 -0.6869 -0.5935 -0.7355
  814MOL0     H 9870   4.668   2.901   4.174  1.2455 -0.9432 -1.1776
  814MOL0     H 9871   4.770   2.975   4.299  0.9848  0.1438  0.5668
  814MOL0     H 9872   5.579   2.224   4.147 -2.8106  1.0707 -0.3903
  814MOL0     H 9873   5.780   2.093   4.070 -1.2800  1.1143  2.1397
  814MOL0     H 9874   6.183   2.229   3.826  0.5217 -0.1103  1.9940
  814MOL0     H 9875   6.396   2.156   3.805 -0.2458 -0.2980  3.9442
  814MOL0     H 9876   7.657   1.048   3.859  3.0456  2.6908 -0.7745
  814MOL0     H 9877   7.767   0.823   3.800 -1.2443 -1.9942 -1.9574
  814MOL0     H 9878   7.685   0.353   3.550 -0.1929  2.8526 -1.7156
  814MOL0     H 9879   7.845   0.150   3.537  0.7133 -0.6103  0.0866
  814MOL0     H 9880   8.251   0.239   3.412 -1.0166  0.0478  0.9954
  814MOL0     H 9881   8.285   0.240   3.583  2.7353  2.0725 -1.4444
  814MOL0     H 9882   8.267  -0.019   3.434  0.7840 -0.5860  2.0455
  814MOL0     H 9883   8.283   0.001   3.601 -0.6757 -1.3136 -0.0789
  814MOL0     H 9884   8.512   0.120   3.571 -0.1969  1.8631 -2.0981
  814MOL0     H 9885   8.479   0.119   3.402  1.2906  1.4064  0.8134
  814MOL0     H 9886   8.641  -0.072   3.514 -0.4238 -2.2188  0.2973
  814MOL0     H 9887   8.514  -0.121   3.396 -2.0210 -0.4726  0.4271
  814MOL0     H 9888   8.411  -0.348   3.715  1.2706  1.0994  1.6857
  814MOL0     H 9889   8.178   0.425   3.568 -0.2386  0.5224 -0.2175
  814MOL0     H 9890   8.021   0.613   3.560 -2.0886  1.1833  3.7025
  815MOL0     O 9891   8.056   1.983   5.245  0.2560  0.3389  0.2239
  815MOL0     C 9892   8.087   2.076   5.316  0.1247 -0.3981  0.3631
  815MOL0     O 9893   8.017   2.193   5.332  0.7158 -0.8905 -0.5388
  815MOL0     C 9894   7.901   2.239   5.276  0.9832  0.5154  0.7707
  815MOL0     C 9895   7.844   2.356   5.326 -0.5377  0.7875 -0.1495
  815MOL0     C 9896   7.732   2.409   5.259  0.1279  0.1817  0.2327
  815MOL0     C 9897   7.665   2.340   5.160 -0.6476 -0.6966  0.0173
  815MOL0     O 9898   7.552   2.404   5.117  0.6688 -0.2327  0.0606
  815MOL0     C 9899   7.466   2.349   5.013  0.5964  0.4198  0.1200
  815MOL0     C 9900   7.389   2.458   4.928  0.0374  0.0947 -0.8644
  815MOL0     C 9901   7.283   2.529   5.009 -0.0346 -0.1262  0.1179
  815MOL0     C 9902   7.251   2.671   4.954 -0.4136  0.2583 -0.3174
  815MOL0     C 9903   7.132   2.741   5.032  0.3060 -0.2272  0.5971
  815MOL0     C 9904   7.151   2.746   5.183  1.4972  0.3714  0.3659
  815MOL0     C 9905   7.055   2.832   5.260  0.4448 -0.6934 -0.7284
  815MOL0     C 9906   6.922   2.763   5.273  0.1100 -0.3512  0.1519
  815MOL0     N 9907   6.817   2.864   5.312 -0.0573  0.3234 -0.1426
  815MOL0     C 9908   6.794   2.915   5.439  0.1027 -0.4825  0.0649
  815MOL0     C 9909   6.684   3.001   5.439 -0.1048 -0.2214  0.7567
  815MOL0     C 9910   6.615   3.056   5.563 -0.3179  0.2469 -0.7302
  815MOL0     C 9911   6.496   3.141   5.520 -0.9790  0.2037 -0.1438
  815MOL0     C 9912   6.453   3.229   5.649 -0.0024 -0.1175 -0.5246
  815MOL0     C 9913   6.332   3.309   5.613  0.2761  0.5683 -0.5595
  815MOL0     O 9914   6.268   3.385   5.721 -0.3833 -0.7460 -0.5291
  815MOL0     C 9915   6.185   3.330   5.809  0.2272 -0.5035 -0.3241
  815MOL0     C 9916   6.168   3.192   5.826 -0.4331  0.3547  0.0797
  815MOL0     C 9917   6.073   3.138   5.917  0.5113  0.1303  0.2088
  815MOL0     C 9918   6.055   2.990   5.925 -0.5163  0.5972  0.5154
  815MOL0     C 9919   6.001   3.227   6.001  0.4673  1.1058 -0.4150
  815MOL0     C 9920   5.909   3.176   6.108  0.4971 -0.0281 -0.3437
  815MOL0     O 9921   5.889   3.265   6.207  0.8304  0.0477 -0.3288
  815MOL0     C 9922   5.784   3.249   6.294  0.3371  0.1844 -0.3415
  815MOL0     C 9923   5.792   3.169   6.409  0.0367 -0.9247  0.2053
  815MOL0     C 9924   5.703   3.179   6.512  1.0289  0.5727  1.0229
  815MOL0     C 9925   5.588   3.258   6.507  0.3395 -0.6345  0.0576
  815MOL0     O 9926   5.496   3.245   6.612  0.5610  0.4168  0.7070
  815MOL0     C 9927   5.414   3.360   6.653  0.4529 -0.2146  0.0138
  815MOL0     C 9928   5.368   3.350   6.797  0.5049 -0.2561 -0.2363
  815MOL0     C 9929   5.263   3.451   6.825  0.1541  1.0726 -0.3017
  815MOL0     C 9930   5.207   3.444   6.968 -0.3793  0.0198 -0.3201
  815MOL0     C 9931   5.088   3.540   6.993  0.6099  0.6094 -0.3119
  815MOL0     C 9932   5.032   3.522   7.139  0.0821 -0.1082 -0.0735
  815MOL0     C 9933   4.914   3.617   7.154 -0.8676 -0.4258  0.2235
  815MOL0     C 9934   4.867   3.625   7.302 -0.3645 -0.4372 -0.4439
  815MOL0    Cl 9935   4.686   3.645   7.319 -0.0594 -0.4144  0.1427
  815MOL0     C 9936   5.573   3.333   6.389 -0.1236  0.0863 -0.5342
  815MOL0     C 9937   5.671   3.330   6.291 -0.1358 -0.0937 -0.4459
  815MOL0     O 9938   5.856   3.068   6.102 -0.5393  0.5216 -0.6695
  815MOL0     C 9939   6.024   3.363   5.976  0.8139 -0.0703 -0.2052
  815MOL0     C 9940   6.116   3.415   5.887 -0.0799 -0.3887 -0.0675
  815MOL0     N 9941   6.661   3.018   5.305  0.8042 -0.1507  0.7736
  815MOL0     N 9942   6.727   2.933   5.239  1.0365 -0.1493  0.2939
  815MOL0     C 9943   7.716   2.223   5.121 -0.0301 -0.7416 -0.0599
  815MOL0     C 9944   7.835   2.175   5.175  0.3375 -0.0752  0.0100
  815MOL0     C 9945   8.208   2.056   5.403  0.1298  0.4526  0.5710
  815MOL0     C 9946   8.246   2.149   5.504 -0.6121  0.2859 -0.2007
  815MOL0     C 9947   8.374   2.142   5.568  0.1698  0.4005  0.3070
  815MOL0     C 9948   8.447   2.021   5.556 -0.1016  0.4617  0.4075
  815MOL0     O 9949   8.575   2.025   5.609 -0.8251 -0.2966  0.6404
  815MOL0     C 9950   8.664   1.909   5.605  0.0635 -0.1840  0.1906
  815MOL0     C 9951   8.790   1.935   5.682  1.1615  0.1381 -0.0559
  815MOL0     C 9952   8.856   2.062   5.632 -0.1814 -0.5157 -0.3130
  815MOL0     C 9953   8.990   2.107   5.691 -0.0308  0.7685  0.0752
  815MOL0     C 9954   9.109   2.022   5.687 -0.3166  0.1485  0.8852
  815MOL0     C 9955   9.213   1.962   5.682  0.0831  0.8665  0.0038
  815MOL0     C 9956   8.394   1.911   5.480 -0.3175 -0.5659  0.1865
  815MOL0     C 9957   8.285   1.933   5.397  0.5755 -0.4342  0.0051
  815MOL0     H 9958   7.883   2.411   5.411  1.0529  0.3659 -0.5621
  815MOL0     H 9959   7.682   2.499   5.294  0.1922 -0.4782  2.1507
  815MOL0     H 9960   7.524   2.287   4.944  1.0599  1.3023 -0.3006
  815MOL0     H 9961   7.389   2.286   5.059  0.2925  0.2989 -0.5435
  815MOL0     H 9962   7.462   2.525   4.881 -0.3973  0.3992 -1.1106
  815MOL0     H 9963   7.336   2.401   4.851 -3.3472  2.0664 -0.2160
  815MOL0     H 9964   7.192   2.468   5.014 -1.0565  1.4462  2.1031
  815MOL0     H 9965   7.310   2.528   5.115 -2.0299 -0.2648  0.6698
  815MOL0     H 9966   7.340   2.734   4.958  0.0762 -0.3973 -0.6869
  815MOL0     H 9967   7.221   2.652   4.851  2.3604 -0.0722 -1.1459
  815MOL0     H 9968   7.116   2.838   4.985  0.4022 -0.6273 -0.2849
  815MOL0     H 9969   7.039   2.687   5.008 -0.6227  1.1496  0.9788
  815MOL0     H 9970   7.141   2.643   5.218  1.0623  0.0358 -0.6890
  815MOL0     H 9971   7.253   2.780   5.205  1.4621  0.4749  0.3665
  815MOL0     H 9972   7.099   2.846   5.359  0.6018 -1.5482 -0.6637
  815MOL0     H 9973   7.047   2.928   5.209  0.6636 -0.8230 -1.0148
  815MOL0     H 9974   6.918   2.685   5.350  1.2425 -1.2195 -0.6484
  815MOL0     H 9975   6.893   2.714   5.180 -0.9022  1.1533 -0.3695
  815MOL0     H 9976   6.843   2.885   5.531  0.6482  3.1211  1.0741
  815MOL0     H 9977   6.569   2.969   5.610  0.9223 -0.3072 -0.5096
  815MOL0     H 9978   6.691   3.104   5.626 -1.7818  1.5778  0.0920
  815MOL0     H 9979   6.419   3.069   5.492 -0.4588 -1.2162  1.8420
  815MOL0     H 9980   6.520   3.206   5.436 -3.7401  0.4294 -0.8328
  815MOL0     H 9981   6.533   3.300   5.671  1.1542 -1.3765 -0.6242
  815MOL0     H 9982   6.434   3.165   5.735  1.7892  0.7853  0.5899
  815MOL0     H 9983   6.260   3.236   5.572 -0.9705  0.6418  1.3891
  815MOL0     H 9984   6.351   3.373   5.526 -0.2015 -0.8514 -1.7622
  815MOL0     H 9985   6.226   3.116   5.773 -0.8213 -2.0877  2.9075
  815MOL0     H 9986   6.109   2.943   5.843  0.4947  0.1850  1.4064
  815MOL0     H 9987   6.098   2.946   6.015 -1.5687 -0.4318  0.5366
  815MOL0     H 9988   5.952   2.952   5.921 -0.9669  1.7297  0.8607
  815MOL0     H 9989   5.881   3.108   6.420  0.0370 -0.9420  0.1125
  815MOL0     H 9990   5.708   3.114   6.598  0.8790 -0.2855  0.3937
  815MOL0     H 9991   5.473   3.451   6.641  2.5883 -1.7299 -1.8614
  815MOL0     H 9992   5.325   3.348   6.590  2.1862 -0.2998 -2.5665
  815MOL0     H 9993   5.334   3.248   6.818 -2.7405  1.2550  2.8785
  815MOL0     H 9994   5.446   3.379   6.868 -1.4103 -0.3179  2.0140
  815MOL0     H 9995   5.183   3.434   6.753  1.2134 -0.8757 -1.1013
  815MOL0     H 9996   5.304   3.552   6.814  0.5058  0.9613 -0.0215
  815MOL0     H 9997   5.166   3.345   6.991 -1.3871  1.1025  3.0604
  815MOL0     H 9998   5.286   3.463   7.042 -1.9582  0.0537  1.4238
  815MOL0     H 9999   5.009   3.499   6.930 -1.2024 -0.0778  2.2192
  815MOL0     H10000   5.109   3.647   6.981 -2.3852  1.3155 -0.1231
  815MOL0     H10001   4.997   3.420   7.158  0.3718 -0.4693 -1.3897
  815MOL0     H10002   5.114   3.541   7.209  1.1324 -0.0125 -1.2985
  815MOL0     H10003   4.829   3.582   7.095 -2.3885  1.8367  0.9390
  815MOL0     H10004   4.933   3.721   7.126  0.4413 -0.6593  0.2000
  815MOL0     H10005   4.922   3.697   7.364 -0.0841 -1.9899  1.2082
  815MOL0     H10006   4.881   3.532   7.359 -0.7369 -0.1046  0.1991
  815MOL0     H10007   5.478   3.386   6.383  0.8969  2.2221  0.9173
  815MOL0     H10008   5.660   3.394   6.205 -0.9700  0.6312  0.1773
  815MOL0     H10009   5.961   3.427   6.037  0.9020 -0.2048  0.0270
  815MOL0     H10010   6.127   3.523   5.877 -0.7254 -0.2579  0.5477
  815MOL0     H10011   7.660   2.165   5.049 -2.5513  2.1593 -0.6272
  815MOL0     H10012   7.875   2.088   5.122 -0.9002 -0.3387 -0.5284
  815MOL0     H10013   8.183   2.237   5.515 -0.7349  0.1844 -0.0774
  815MOL0     H10014   8.405   2.226   5.630 -0.6574  1.3841 -0.5677
  815MOL0     H10015   8.605   1.825   5.645 -1.6132  1.0575  0.4363
  815MOL0     H10016   8.697   1.886   5.504 -2.2655  0.7151 -0.8387
  815MOL0     H10017   8.854   1.848   5.668  2.0669  1.0647 -2.0860
  815MOL0     H10018   8.765   1.948   5.788  0.3809 -1.0174 -0.0826
  815MOL0     H10019   8.780   2.141   5.636 -1.7802 -1.8858 -1.8118
  815MOL0     H10020   8.864   2.052   5.524 -2.3499  2.3303 -0.8676
  815MOL0     H10021   8.956   2.135   5.791 -0.4579 -2.1035  0.8020
  815MOL0     H10022   9.027   2.200   5.647 -2.3854  1.8143  0.1643
  815MOL0     H10023   9.302   1.902   5.689 -0.9039 -0.9293 -1.6665
  815MOL0     H10024   8.452   1.820   5.489  2.3219  0.9726 -0.0776
  815MOL0     H10025   8.255   1.854   5.329  1.5435 -2.5939  1.9714
  816MOL0     O10026   1.753   6.170   2.980 -0.4332  0.6188 -0.5884
  816MOL0     C10027   1.692   6.266   3.021  0.3957 -1.1333 -0.5110
  816MOL0     O10028   1.567   6.305   2.976 -0.5040 -0.0068 -0.6913
  816MOL0     C10029   1.492   6.233   2.883  0.0250  0.3089 -0.4852
  816MOL0     C10030   1.464   6.097   2.895  0.1948  0.5124 -0.0090
  816MOL0     C10031   1.361   6.036   2.815 -0.2371 -0.2736 -0.9816
  816MOL0     C10032   1.296   6.116   2.722 -0.0176  0.3852 -0.3382
  816MOL0     O10033   1.184   6.060   2.673 -0.4552 -0.4201  0.3826
  816MOL0     C10034   1.072   6.153   2.689 -0.8818  0.2152  0.3926
  816MOL0     C10035   0.940   6.073   2.712 -0.7008 -0.5262 -0.3458
  816MOL0     C10036   0.906   5.979   2.599  0.5749  0.0375  0.1268
  816MOL0     C10037   0.812   5.860   2.637  0.2185  0.1589 -0.5414
  816MOL0     C10038   0.684   5.904   2.713 -0.5080 -0.1116 -0.0648
  816MOL0     C10039   0.579   5.792   2.748  0.3729 -0.4902 -0.3746
  816MOL0     C10040   0.483   5.786   2.634 -0.6467 -0.0108 -0.8867
  816MOL0     C10041   0.370   5.687   2.653  0.3146  0.3573 -0.7873
  816MOL0     N10042   0.243   5.752   2.700  0.0009  1.2972 -0.4197
  816MOL0     C10043   0.154   5.826   2.621  0.8493  0.9818 -0.2151
  816MOL0     C10044   0.058   5.862   2.708  0.3444 -0.3542  0.2968
  816MOL0     C10045  -0.057   5.945   2.690  0.0897 -0.5632  0.4712
  816MOL0     C10046  -0.162   5.868   2.609  0.0879  0.8479  0.2903
  816MOL0     C10047  -0.310   5.930   2.615  0.0556  0.5862  0.1571
  816MOL0     C10048  -0.354   5.984   2.478 -0.1233 -0.0457  0.7128
  816MOL0     O10049  -0.496   6.008   2.475 -0.7886  0.3323 -0.1727
  816MOL0     C10050  -0.557   6.038   2.358  0.3275 -0.5731  0.7244
  816MOL0     C10051  -0.485   6.055   2.238  0.0626 -0.3535  0.9354
  816MOL0     C10052  -0.546   6.081   2.115 -0.3834  0.1323 -0.2987
  816MOL0     C10053  -0.452   6.081   1.996 -0.2802  0.3623 -0.2132
  816MOL0     C10054  -0.686   6.099   2.109 -0.1097 -0.1021  0.6623
  816MOL0     C10055  -0.754   6.124   1.980  0.0402 -0.6183 -0.3287
  816MOL0     O10056  -0.893   6.126   1.995  0.1049  0.2805 -0.1444
  816MOL0     C10057  -0.979   6.150   1.889 -0.5526 -0.8466  0.6609
  816MOL0     C10058  -1.108   6.094   1.903 -0.9942  0.7701  0.0217
  816MOL0     C10059  -1.211   6.124   1.808  0.0214  0.9843  0.1615
  816MOL0     C10060  -1.184   6.205   1.696 -0.1756 -0.0645 -1.0582
  816MOL0     O10061  -1.276   6.249   1.606  0.2818 -0.9497 -0.7992
  816MOL0     C10062  -1.380   6.153   1.571  0.0322 -1.0959 -0.5446
  816MOL0     C10063  -1.461   6.211   1.453 -0.0262  0.1460 -0.0316
  816MOL0     C10064  -1.571   6.113   1.417  0.6334  0.6303 -0.8367
  816MOL0     C10065  -1.668   6.154   1.306 -0.6119 -0.7517 -0.4615
  816MOL0     C10066  -1.793   6.068   1.293  0.2683  0.0973  1.2677
  816MOL0     C10067  -1.881   6.132   1.181  1.0504 -0.3336  1.1042
  816MOL0     C10068  -1.966   6.255   1.241  0.4319  0.7092 -0.1558
  816MOL0     C10069  -2.087   6.292   1.147 -0.5968  0.9400 -1.0688
  816MOL0    Cl10070  -2.222   6.181   1.184 -0.0252 -0.3257  0.4736
  816MOL0     C10071  -1.050   6.255   1.687 -0.2594 -0.0468 -0.2206
  816MOL0     C10072  -0.948   6.229   1.775  0.1840  0.3639 -0.6600
  816MOL0     O10073  -0.697   6.129   1.872  0.3630  0.0421 -0.4038
  816MOL0     C10074  -0.758   6.090   2.232 -0.1882 -0.2055  0.5467
  816MOL0     C10075  -0.699   6.050   2.350  0.0156 -0.3003 -0.2929
  816MOL0     N10076   0.091   5.808   2.830 -0.5542 -0.0368 -0.0591
  816MOL0     N10077   0.197   5.741   2.830 -1.0620 -0.1421  0.2337
  816MOL0     C10078   1.337   6.248   2.708  0.3758 -0.3735 -0.1554
  816MOL0     C10079   1.438   6.307   2.782  0.0352  0.0390 -0.2581
  816MOL0     C10080   1.732   6.339   3.147  0.1413 -0.2637  1.1452
  816MOL0     C10081   1.681   6.460   3.193  0.1971  0.1171 -1.5391
  816MOL0     C10082   1.743   6.525   3.303  0.7059 -1.2553 -0.6112
  816MOL0     C10083   1.846   6.467   3.381 -0.6645 -0.3170  0.3670
  816MOL0     O10084   1.883   6.528   3.498  0.1888  0.2620 -0.0107
  816MOL0     C10085   1.942   6.444   3.601  0.2613 -0.3039 -0.1614
  816MOL0     C10086   1.927   6.522   3.728 -0.2362 -0.6804 -0.1435
  816MOL0     C10087   2.043   6.627   3.732 -0.1916 -0.2047  0.4111
  816MOL0     C10088   2.049   6.711   3.861  0.0135  0.1906 -0.6264
  816MOL0     C10089   2.130   6.826   3.830 -0.0995  0.5415 -0.4220
  816MOL0     C10090   2.208   6.921   3.801  0.3570 -0.1969 -0.6449
  816MOL0     C10091   1.889   6.344   3.336 -0.3587  0.4205  0.0429
  816MOL0     C10092   1.841   6.288   3.223 -0.2289  0.8828  0.6060
  816MOL0     H10093   1.517   6.037   2.969 -2.1555 -0.9172  0.6021
  816MOL0     H10094   1.324   5.935   2.831 -1.6116  0.2281 -0.8447
  816MOL0     H10095   1.078   6.219   2.776 -0.4099 -0.6371  1.0176
  816MOL0     H10096   1.064   6.215   2.599 -2.2519 -0.9170 -0.2948
  816MOL0     H10097   0.970   6.008   2.795  0.9067 -1.5954 -1.6863
  816MOL0     H10098   0.858   6.135   2.750  0.5603  0.5754  0.6777
  816MOL0     H10099   0.852   6.041   2.526  1.7946  4.5986  2.7566
  816MOL0     H10100   0.991   5.933   2.547  0.6215  1.9770 -1.6720
  816MOL0     H10101   0.783   5.812   2.543 -1.1288 -1.3682  0.6131
  816MOL0     H10102   0.866   5.792   2.703 -1.3285 -0.5277  0.0520
  816MOL0     H10103   0.711   5.954   2.807 -3.1737  1.1030  0.1425
  816MOL0     H10104   0.638   5.987   2.658  2.0074  1.4494 -0.0050
  816MOL0     H10105   0.621   5.692   2.762 -1.4040 -1.7249 -3.0306
  816MOL0     H10106   0.544   5.810   2.850  1.4968 -1.9920  0.3244
  816MOL0     H10107   0.440   5.883   2.607  0.0937  0.2351 -1.2097
  816MOL0     H10108   0.539   5.744   2.550  1.7316  0.8940  0.1651
  816MOL0     H10109   0.403   5.624   2.736 -0.2829  1.8370  0.6248
  816MOL0     H10110   0.359   5.629   2.561 -0.6513 -1.5963  0.5021
  816MOL0     H10111   0.164   5.843   2.514 -2.5983 -0.6987 -0.9586
  816MOL0     H10112  -0.099   5.981   2.784 -2.6161  0.3643 -0.9898
  816MOL0     H10113  -0.030   6.034   2.632 -1.9396 -0.4228 -0.3256
  816MOL0     H10114  -0.163   5.766   2.647 -0.8641  1.0353  0.8115
  816MOL0     H10115  -0.134   5.866   2.503  0.3847 -2.4746  0.3298
  816MOL0     H10116  -0.320   6.002   2.697 -0.8489  1.1068 -0.4010
  816MOL0     H10117  -0.373   5.843   2.636 -1.9472  1.7410 -0.7681
  816MOL0     H10118  -0.334   5.911   2.399  1.3814  1.8813 -0.8015
  816MOL0     H10119  -0.294   6.072   2.451  1.1462 -1.4706 -1.4052
  816MOL0     H10120  -0.377   6.052   2.232  0.1486  2.4925 -0.7302
  816MOL0     H10121  -0.455   6.173   1.938  0.2183  0.0188 -0.7956
  816MOL0     H10122  -0.348   6.070   2.028 -0.0264 -0.2824 -1.2085
  816MOL0     H10123  -0.480   5.993   1.938  0.8229  0.8939 -1.6069
  816MOL0     H10124  -1.131   6.035   1.991 -1.2775  2.3641  1.0463
  816MOL0     H10125  -1.315   6.093   1.819 -0.3454  0.6677 -3.1048
  816MOL0     H10126  -1.343   6.052   1.550  0.8347 -0.4136 -2.7397
  816MOL0     H10127  -1.455   6.146   1.650  1.0676 -3.0483  0.3434
  816MOL0     H10128  -1.508   6.306   1.480 -0.5494 -0.3271  0.7886
  816MOL0     H10129  -1.395   6.234   1.370  0.2534 -1.8854 -0.4371
  816MOL0     H10130  -1.634   6.099   1.505 -0.6415 -0.2809 -1.8480
  816MOL0     H10131  -1.522   6.018   1.393 -0.3280  0.1706 -0.9963
  816MOL0     H10132  -1.704   6.257   1.316 -1.3578 -1.2295  4.1777
  816MOL0     H10133  -1.605   6.156   1.217 -0.4602 -1.6471 -0.3817
  816MOL0     H10134  -1.850   6.057   1.386  1.7166 -0.6575  2.0978
  816MOL0     H10135  -1.773   5.966   1.258 -0.1225  0.0132  1.2818
  816MOL0     H10136  -1.821   6.162   1.094  0.6359 -1.7821  0.2908
  816MOL0     H10137  -1.960   6.062   1.153  0.9980  0.4632 -0.9704
  816MOL0     H10138  -1.901   6.342   1.254 -1.6239  2.2302  0.4664
  816MOL0     H10139  -1.995   6.231   1.344  2.6394  1.2127  0.6507
  816MOL0     H10140  -2.057   6.272   1.043 -0.0072  1.2063 -0.9578
  816MOL0     H10141  -2.117   6.394   1.173 -4.4237  0.0016 -1.1901
  816MOL0     H10142  -1.023   6.324   1.608  2.1619  1.7848  2.0356
  816MOL0     H10143  -0.848   6.272   1.772 -0.1286  1.0981 -0.9010
  816MOL0     H10144  -0.867   6.090   2.237 -0.1725 -2.1867  1.9166
  816MOL0     H10145  -0.754   6.033   2.442  0.5821 -2.1936 -0.2496
  816MOL0     H10146   1.287   6.307   2.631  1.7335  2.5607  1.0836
  816MOL0     H10147   1.467   6.411   2.765  0.6321 -0.2855 -1.3471
  816MOL0     H10148   1.593   6.512   3.156 -0.2570  1.9811  1.7461
  816MOL0     H10149   1.698   6.612   3.350  2.2912 -0.9611  0.4261
  816MOL0     H10150   1.887   6.350   3.616 -0.7950  0.7428  3.6977
  816MOL0     H10151   2.049   6.428   3.584  0.0526 -0.7074 -1.1805
  816MOL0     H10152   1.951   6.455   3.811 -0.1092 -0.5998 -0.1129
  816MOL0     H10153   1.826   6.561   3.741 -0.5277 -0.9468 -1.5066
  816MOL0     H10154   2.028   6.690   3.644  1.5675 -2.0085 -1.2996
  816MOL0     H10155   2.142   6.581   3.724  1.5163  3.2314 -0.3250
  816MOL0     H10156   2.085   6.645   3.940 -1.3631  0.3954  0.1908
  816MOL0     H10157   1.948   6.740   3.893  0.7304  1.1308  0.9001
  816MOL0     H10158   2.284   6.988   3.766 -0.4867  1.7082  0.9811
  816MOL0     H10159   1.974   6.291   3.379 -0.6412 -0.4379 -0.4248
  816MOL0     H10160   1.878   6.191   3.192  2.2149  1.5853  1.0553
  817MOL0     O10161   6.106   8.346   8.604  0.0400  0.6040 -0.7251
  817MOL0     C10162   6.111   8.313   8.487 -0.1375  0.5581  0.6610
  817MOL0     O10163   5.998   8.285   8.414 -0.9854  0.7214  0.1624
  817MOL0     C10164   5.879   8.271   8.474  0.0714 -0.0573 -0.2826
  817MOL0     C10165   5.771   8.317   8.393  0.1182  0.2601 -0.1651
  817MOL0     C10166   5.644   8.308   8.447  0.2123  0.2779  0.5972
  817MOL0     C10167   5.614   8.243   8.564  0.2223  0.3618 -0.5715
  817MOL0     O10168   5.491   8.232   8.625 -0.1634  0.4357  0.0461
  817MOL0     C10169   5.385   8.220   8.522 -0.9187  0.1373 -0.0581
  817MOL0     C10170   5.269   8.163   8.601  0.0223  0.3844  0.0969
  817MOL0     C10171   5.316   8.031   8.674  0.6446  0.0035  0.5237
  817MOL0     C10172   5.196   7.935   8.683 -0.4578  1.0331  0.2494
  817MOL0     C10173   5.091   7.975   8.783 -0.1562 -0.7655 -0.3146
  817MOL0     C10174   4.979   7.882   8.785  0.0506 -0.3978 -0.0823
  817MOL0     C10175   4.872   7.923   8.890  0.0103 -0.6757 -0.0824
  817MOL0     C10176   4.805   8.056   8.866 -0.3258  0.1163 -0.1867
  817MOL0     N10177   4.708   8.069   8.756  0.1606  0.2552  0.2964
  817MOL0     C10178   4.703   8.000   8.639  0.0438 -0.1183  0.4348
  817MOL0     C10179   4.580   8.031   8.603 -0.3166  0.1404  0.3176
  817MOL0     C10180   4.496   7.959   8.503 -0.1863  0.2445  0.0108
  817MOL0     C10181   4.454   7.832   8.569  0.0433  0.1414  0.5546
  817MOL0     C10182   4.341   7.757   8.496  0.3834 -0.5247  0.1095
  817MOL0     C10183   4.329   7.611   8.544  0.5023  0.3210 -0.8319
  817MOL0     O10184   4.238   7.601   8.660 -0.7712 -0.0291  0.5599
  817MOL0     C10185   4.105   7.579   8.630 -0.9534 -0.5043 -0.0860
  817MOL0     C10186   4.023   7.560   8.745  0.4608  0.3714  0.6679
  817MOL0     C10187   3.881   7.558   8.726  0.6497  0.1777  0.0147
  817MOL0     C10188   3.788   7.529   8.836 -0.6400 -0.9520 -0.2786
  817MOL0     C10189   3.823   7.591   8.597  0.2761 -0.1834 -0.2462
  817MOL0     C10190   3.679   7.611   8.575 -0.0883  0.8615  1.1440
  817MOL0     O10191   3.622   7.548   8.471  0.5019  0.2919 -0.2519
  817MOL0     C10192   3.482   7.558   8.462 -0.1558 -0.1143 -0.4193
  817MOL0     C10193   3.419   7.639   8.372 -0.0898  0.6214  0.3269
  817MOL0     C10194   3.278   7.644   8.366  0.2468 -0.2647 -0.0819
  817MOL0     C10195   3.200   7.564   8.451 -0.1436  0.3386  0.1287
  817MOL0     O10196   3.064   7.548   8.466  0.3195 -0.6564  0.1187
  817MOL0     C10197   2.987   7.647   8.398  0.0566  1.0506 -0.9511
  817MOL0     C10198   2.848   7.640   8.452 -0.3028  0.0717  0.0420
  817MOL0     C10199   2.753   7.557   8.368  0.9216 -0.5917 -0.7711
  817MOL0     C10200   2.623   7.514   8.442  0.3335  0.7204  0.4095
  817MOL0     C10201   2.516   7.449   8.347 -0.0026 -1.0748 -0.5552
  817MOL0     C10202   2.380   7.427   8.423  0.0800  0.4121  0.9076
  817MOL0     C10203   2.264   7.364   8.346 -0.8587 -0.5630 -0.0727
  817MOL0     C10204   2.135   7.364   8.417 -0.1906  0.0499 -0.0613
  817MOL0    Cl10205   1.996   7.323   8.324  0.0801  0.2809  0.1732
  817MOL0     C10206   3.266   7.476   8.539 -0.1328  0.0860  1.0799
  817MOL0     C10207   3.410   7.471   8.551  1.0691  0.3903  0.8154
  817MOL0     O10208   3.621   7.680   8.656  0.0129  0.0843  0.4536
  817MOL0     C10209   3.906   7.601   8.484  0.6176  0.0770 -0.6135
  817MOL0     C10210   4.045   7.606   8.504 -0.4061 -0.1524  0.1612
  817MOL0     N10211   4.519   8.131   8.677  0.3889 -0.4383 -0.7887
  817MOL0     N10212   4.599   8.154   8.775 -0.2815 -0.2363  0.4931
  817MOL0     C10213   5.716   8.197   8.643 -0.8206 -0.2029  0.1141
  817MOL0     C10214   5.849   8.203   8.594 -0.7693 -0.2811 -0.5517
  817MOL0     C10215   6.242   8.309   8.409  1.4868 -0.5177  0.6129
  817MOL0     C10216   6.360   8.372   8.438 -0.2169 -0.2229 -0.8780
  817MOL0     C10217   6.476   8.356   8.367 -0.3735  0.8712  0.6812
  817MOL0     C10218   6.484   8.260   8.253  0.1895  0.1317  0.8085
  817MOL0     O10219   6.606   8.230   8.188 -0.5846  0.4150  0.4159
  817MOL0     C10220   6.613   8.131   8.086 -0.2010  0.6723  0.2946
  817MOL0     C10221   6.759   8.106   8.043 -0.2074  0.0267  0.4104
  817MOL0     C10222   6.856   8.067   8.153 -0.0930  0.4945 -0.3680
  817MOL0     C10223   6.897   8.179   8.251 -0.4336 -0.1730 -0.3745
  817MOL0     C10224   7.047   8.183   8.257  0.0314 -0.5659 -0.3044
  817MOL0     C10225   7.164   8.192   8.267 -0.1932 -1.2067 -0.6678
  817MOL0     C10226   6.367   8.195   8.232 -0.5377 -0.0519 -0.2642
  817MOL0     C10227   6.248   8.213   8.308 -0.1610 -0.4241  0.7656
  817MOL0     H10228   5.801   8.376   8.307 -0.5509  0.6451 -0.1327
  817MOL0     H10229   5.563   8.341   8.383  0.1996 -1.9009 -0.6241
  817MOL0     H10230   5.364   8.322   8.490  1.5891  1.5783  2.4036
  817MOL0     H10231   5.398   8.150   8.439 -0.0365  1.8006 -1.3921
  817MOL0     H10232   5.234   8.233   8.677 -0.2122  2.5095 -1.8656
  817MOL0     H10233   5.187   8.154   8.529  0.4043  1.7275 -0.5451
  817MOL0     H10234   5.397   7.979   8.621  1.3476  0.9921  0.6006
  817MOL0     H10235   5.350   8.063   8.773  1.5228  0.5220  0.0685
  817MOL0     H10236   5.161   7.911   8.582 -0.8900  0.4706  0.5286
  817MOL0     H10237   5.232   7.837   8.716  1.8934  2.0200  0.7858
  817MOL0     H10238   5.139   7.974   8.881 -0.9525 -1.5115  0.0789
  817MOL0     H10239   5.061   8.079   8.769 -0.8562 -0.5478  2.3201
  817MOL0     H10240   4.940   7.864   8.684 -0.1391 -1.1125  0.1161
  817MOL0     H10241   5.026   7.794   8.827 -2.2322 -0.8379  1.7539
  817MOL0     H10242   4.798   7.846   8.916 -1.2126  0.1120 -1.0940
  817MOL0     H10243   4.928   7.929   8.983  1.0775  1.3731 -0.8083
  817MOL0     H10244   4.881   8.133   8.847  0.9533 -0.9029  0.6551
  817MOL0     H10245   4.763   8.085   8.963  0.5943 -1.3720  0.6947
  817MOL0     H10246   4.760   7.923   8.589 -0.3197  0.5425 -1.0437
  817MOL0     H10247   4.403   8.014   8.487 -0.4701 -0.6513 -1.6444
  817MOL0     H10248   4.555   7.939   8.413  0.0384 -2.4738  0.6637
  817MOL0     H10249   4.416   7.854   8.669  2.3075 -1.1269  1.7739
  817MOL0     H10250   4.541   7.766   8.575 -1.0783 -1.3954  0.4961
  817MOL0     H10251   4.378   7.749   8.394  1.5566 -3.3276  0.6682
  817MOL0     H10252   4.250   7.819   8.493  1.3405  1.0058  1.1320
  817MOL0     H10253   4.429   7.581   8.578  0.8109 -0.6336 -2.4474
  817MOL0     H10254   4.306   7.546   8.459 -2.4840 -1.2222  1.0342
  817MOL0     H10255   4.068   7.538   8.841 -1.8190  1.1748  2.0054
  817MOL0     H10256   3.721   7.445   8.819 -1.4189 -0.5117  0.5009
  817MOL0     H10257   3.848   7.502   8.924 -1.8868 -1.4060  0.4654
  817MOL0     H10258   3.738   7.621   8.868  0.3035  0.0995 -1.7017
  817MOL0     H10259   3.479   7.704   8.309 -0.4415  0.1414 -0.5144
  817MOL0     H10260   3.232   7.726   8.311  1.7719  0.4447 -0.3294
  817MOL0     H10261   3.028   7.748   8.412 -1.8362  1.6739  0.5652
  817MOL0     H10262   2.980   7.621   8.292  1.7908 -2.2752 -0.3945
  817MOL0     H10263   2.842   7.583   8.545 -3.2356  0.5762  0.2680
  817MOL0     H10264   2.800   7.738   8.461 -1.1022 -0.4135  1.1903
  817MOL0     H10265   2.802   7.465   8.335 -3.1942 -3.1113 -0.5361
  817MOL0     H10266   2.726   7.624   8.286 -1.3330  0.3902  0.6825
  817MOL0     H10267   2.646   7.443   8.522 -1.4633  0.6441  0.9043
  817MOL0     H10268   2.577   7.602   8.488 -0.4849  0.1667  0.6854
  817MOL0     H10269   2.557   7.349   8.331  4.1557 -0.4802  3.9431
  817MOL0     H10270   2.508   7.506   8.255 -0.8040 -0.3319 -0.0408
  817MOL0     H10271   2.384   7.355   8.505 -1.9031 -1.4906 -0.5335
  817MOL0     H10272   2.352   7.527   8.457 -1.2625  0.7329 -0.9624
  817MOL0     H10273   2.289   7.259   8.328 -2.9408 -1.2937  0.9860
  817MOL0     H10274   2.252   7.413   8.249 -0.7064 -0.4908 -0.0560
  817MOL0     H10275   2.117   7.466   8.455  0.6928  0.2168 -0.0688
  817MOL0     H10276   2.139   7.297   8.503  2.7781 -0.0819 -0.2022
  817MOL0     H10277   3.214   7.419   8.616 -1.4217  0.3554  0.4350
  817MOL0     H10278   3.467   7.419   8.627  2.7979  2.0726  0.7553
  817MOL0     H10279   3.867   7.623   8.385  0.1102 -1.5556 -0.8012
  817MOL0     H10280   4.096   7.646   8.417  1.3348  0.4760  1.3948
  817MOL0     H10281   5.692   8.147   8.737 -0.4910  0.5500  0.6119
  817MOL0     H10282   5.928   8.168   8.659 -1.6537 -2.7238 -0.7061
  817MOL0     H10283   6.351   8.431   8.529 -0.3844 -2.7454  0.8460
  817MOL0     H10284   6.570   8.402   8.393  1.7669 -1.3684 -2.3367
  817MOL0     H10285   6.572   8.035   8.122 -0.0187  0.8243  0.9263
  817MOL0     H10286   6.562   8.165   7.996  2.5909  3.8236 -0.2561
  817MOL0     H10287   6.789   8.198   7.992 -1.1700  0.3635  0.4329
  817MOL0     H10288   6.760   8.018   7.977  0.9240  0.2827  0.0509
  817MOL0     H10289   6.943   8.021   8.105  1.0626 -1.0509  2.9235
  817MOL0     H10290   6.820   7.984   8.216 -0.1995  1.7062  1.2245
  817MOL0     H10291   6.861   8.164   8.353  2.5043 -1.7488  0.5446
  817MOL0     H10292   6.880   8.281   8.214  2.5999  1.0032  1.1949
  817MOL0     H10293   7.271   8.198   8.261 -0.2475 -0.0029 -0.6698
  817MOL0     H10294   6.366   8.121   8.152  1.6277  0.9018 -1.2520
  817MOL0     H10295   6.160   8.153   8.287 -0.0437 -1.1448  2.1752
  818MOL0     O10296   5.388   0.429   4.158  0.0595  0.2388  0.0569
  818MOL0     C10297   5.416   0.476   4.046 -0.9203 -0.8762 -0.1445
  818MOL0     O10298   5.328   0.525   3.954 -0.6640  0.0987  0.0916
  818MOL0     C10299   5.196   0.543   3.973  0.9636  0.0691 -0.2258
  818MOL0     C10300   5.155   0.600   4.089 -0.1130 -0.1146  0.7494
  818MOL0     C10301   5.022   0.632   4.110 -0.0793 -0.0427  0.2513
  818MOL0     C10302   4.934   0.597   4.016  1.0689  0.1885  0.1671
  818MOL0     O10303   4.802   0.609   4.042  0.0031 -0.0060  0.4620
  818MOL0     C10304   4.743   0.570   4.169 -0.9871  0.3612 -0.5776
  818MOL0     C10305   4.596   0.557   4.149 -0.0282  0.5566  0.0588
  818MOL0     C10306   4.519   0.696   4.117 -0.3858  0.8052 -0.1932
  818MOL0     C10307   4.371   0.670   4.147 -0.1724  0.1761 -0.0121
  818MOL0     C10308   4.302   0.802   4.134 -0.9599 -0.4292  0.3212
  818MOL0     C10309   4.150   0.803   4.170 -0.3242 -0.1281 -0.8609
  818MOL0     C10310   4.059   0.706   4.087  0.8031  0.2301  0.4718
  818MOL0     C10311   4.047   0.742   3.934 -0.3252 -0.6644  0.3241
  818MOL0     N10312   4.058   0.630   3.845  0.3006  0.2145  0.1043
  818MOL0     C10313   3.955   0.544   3.810 -0.0161 -0.2990 -0.4025
  818MOL0     C10314   4.013   0.453   3.731  0.3224  0.6816 -0.5616
  818MOL0     C10315   3.931   0.339   3.672  0.0481  0.5321  0.9889
  818MOL0     C10316   3.947   0.203   3.752  0.2466 -0.1745 -0.4958
  818MOL0     C10317   3.859   0.087   3.696 -0.4089 -0.5913 -0.5790
  818MOL0     C10318   3.719   0.135   3.662 -0.4995 -0.6698  0.5048
  818MOL0     O10319   3.668   0.192   3.780  0.2273  0.1145  0.3284
  818MOL0     C10320   3.532   0.185   3.805 -0.2138  0.4160  0.4723
  818MOL0     C10321   3.502   0.192   3.939 -0.4152  0.2272  0.0946
  818MOL0     C10322   3.361   0.190   3.988 -0.4036 -0.0337  0.9012
  818MOL0     C10323   3.349   0.182   4.129 -0.1062  0.0941  0.4669
  818MOL0     C10324   3.258   0.172   3.893 -0.7276  0.0770  0.3132
  818MOL0     C10325   3.116   0.137   3.928 -0.3971 -0.2130  0.1520
  818MOL0     O10326   3.032   0.105   3.828  0.1117  0.0244 -0.0161
  818MOL0     C10327   2.894   0.104   3.852 -0.4778 -0.0627 -0.0494
  818MOL0     C10328   2.818  -0.014   3.876 -0.6577 -0.2216  0.2060
  818MOL0     C10329   2.685  -0.014   3.918 -0.3116 -0.4803  0.2797
  818MOL0     C10330   2.610   0.108   3.917  0.2165  0.1581 -0.5149
  818MOL0     O10331   2.476   0.117   3.948 -0.3498  0.3210 -0.4784
  818MOL0     C10332   2.395   0.209   3.872 -0.5562 -0.5858  0.2705
  818MOL0     C10333   2.243   0.169   3.875  0.0201 -0.3349  0.0538
  818MOL0     C10334   2.206   0.045   3.792 -0.0748 -0.2442  0.4512
  818MOL0     C10335   2.055   0.001   3.801  0.4130  0.3799  0.8974
  818MOL0     C10336   1.954   0.091   3.720 -0.0375 -0.2722 -0.3385
  818MOL0     C10337   1.806   0.056   3.756  0.8363 -0.8711 -0.5463
  818MOL0     C10338   1.771  -0.087   3.710 -0.3890  0.5473  0.0090
  818MOL0     C10339   1.633  -0.147   3.760  0.3722  0.4117 -0.1284
  818MOL0    Cl10340   1.618  -0.123   3.944  0.5750 -0.0680  0.1333
  818MOL0     C10341   2.686   0.223   3.889  0.6918  0.5163  0.3019
  818MOL0     C10342   2.818   0.223   3.859 -0.9880 -0.1711 -0.0535
  818MOL0     O10343   3.084   0.136   4.044  0.0212 -0.0556 -0.4449
  818MOL0     C10344   3.291   0.171   3.753  0.1191 -0.5716 -0.3721
  818MOL0     C10345   3.426   0.166   3.713 -0.8177 -0.1371  0.4292
  818MOL0     N10346   4.152   0.467   3.730 -0.1393  0.2115 -0.0942
  818MOL0     N10347   4.173   0.582   3.791 -0.5783  0.2045  0.0806
  818MOL0     C10348   4.967   0.544   3.892 -0.1048  0.1032 -1.0202
  818MOL0     C10349   5.103   0.510   3.870 -0.1922 -0.1523  0.0629
  818MOL0     C10350   5.555   0.473   4.016  0.2847 -0.0858 -1.0711
  818MOL0     C10351   5.601   0.507   3.888  0.5892  1.0640  0.0574
  818MOL0     C10352   5.738   0.507   3.862  0.7155  0.2300  0.0984
  818MOL0     C10353   5.832   0.471   3.959  0.0369 -0.9036  0.0998
  818MOL0     O10354   5.971   0.477   3.948  0.2618  0.6360 -0.8582
  818MOL0     C10355   6.030   0.548   3.840  0.7065 -0.0771  1.0187
  818MOL0     C10356   6.074   0.688   3.874  0.7768 -0.2543 -0.3653
  818MOL0     C10357   5.963   0.797   3.859 -0.1324 -0.0088  0.5393
  818MOL0     C10358   6.018   0.926   3.901  0.8892 -0.3051  0.4156
  818MOL0     C10359   6.098   0.991   3.798  0.1354  0.6177 -0.3040
  818MOL0     C10360   6.151   1.040   3.702 -0.5467  0.4062  0.2383
  818MOL0     C10361   5.787   0.429   4.081 -0.0389  0.6709 -0.1554
  818MOL0     C10362   5.652   0.431   4.114  0.4704  0.0636  0.3125
  818MOL0     H10363   5.227   0.629   4.165  0.1654  0.3947  0.2936
  818MOL0     H10364   4.986   0.684   4.198  1.4396  2.3150 -0.4372
  818MOL0     H10365   4.781   0.469   4.188  0.6624  0.9277 -0.6978
  818MOL0     H10366   4.763   0.648   4.243 -2.4818 -0.5143  0.7993
  818MOL0     H10367   4.582   0.475   4.078 -0.5678  0.2843  0.4681
  818MOL0     H10368   4.568   0.524   4.249  2.1199  2.7672  1.5010
  818MOL0     H10369   4.564   0.765   4.189  1.5580 -1.5940  1.0416
  818MOL0     H10370   4.527   0.738   4.016 -0.2597 -0.1097 -0.5719
  818MOL0     H10371   4.332   0.601   4.072  0.2181  0.5976 -0.6143
  818MOL0     H10372   4.350   0.627   4.245 -4.1003 -1.6517 -1.4424
  818MOL0     H10373   4.363   0.865   4.200  2.1165 -1.1918 -1.6350
  818MOL0     H10374   4.305   0.844   4.033 -0.6877 -1.1228  0.0388
  818MOL0     H10375   4.132   0.784   4.276 -1.4411  3.0278 -0.3670
  818MOL0     H10376   4.120   0.908   4.176  1.4429  0.3917 -0.6514
  818MOL0     H10377   4.097   0.606   4.106  0.4166  0.0348  0.2386
  818MOL0     H10378   3.961   0.705   4.136 -0.4004 -3.3891 -1.6387
  818MOL0     H10379   4.126   0.813   3.907 -2.2042  1.2304 -0.4215
  818MOL0     H10380   3.955   0.798   3.916  0.6207  0.3074 -1.7713
  818MOL0     H10381   3.851   0.569   3.824 -0.0240 -1.2359  1.5941
  818MOL0     H10382   3.830   0.381   3.676  0.4495  1.4861  1.4021
  818MOL0     H10383   3.954   0.333   3.565  1.1556  4.7188  0.8256
  818MOL0     H10384   3.914   0.218   3.855  0.7344  2.1609 -0.6239
  818MOL0     H10385   4.052   0.174   3.765  0.3557 -0.3583 -1.6784
  818MOL0     H10386   3.860   0.003   3.767  0.2159  0.7580  1.0865
  818MOL0     H10387   3.902   0.046   3.605  1.0604 -2.5164  0.8808
  818MOL0     H10388   3.660   0.045   3.638 -2.1954  0.8355 -1.3363
  818MOL0     H10389   3.711   0.218   3.592  0.0348  0.7097  2.0292
  818MOL0     H10390   3.575   0.207   4.017  1.2971 -3.6313 -0.5246
  818MOL0     H10391   3.285   0.260   4.172  1.1006 -1.0910  5.0466
  818MOL0     H10392   3.309   0.086   4.164  0.9356 -0.0904  1.2037
  818MOL0     H10393   3.441   0.187   4.188 -1.5084 -1.4115  3.0044
  818MOL0     H10394   2.876  -0.105   3.869 -1.0241 -0.3347 -2.3726
  818MOL0     H10395   2.632  -0.107   3.932 -1.3231 -0.0877 -0.8559
  818MOL0     H10396   2.403   0.310   3.915 -1.5769 -1.4318  2.6314
  818MOL0     H10397   2.440   0.218   3.772  2.2636  0.2681  1.5050
  818MOL0     H10398   2.216   0.151   3.980  1.0705 -1.5201  0.1404
  818MOL0     H10399   2.178   0.252   3.845  0.5985 -0.2026 -0.8587
  818MOL0     H10400   2.264  -0.041   3.829  0.1340 -1.1852 -1.8630
  818MOL0     H10401   2.234   0.072   3.690 -1.9839  0.7083  0.1456
  818MOL0     H10402   2.046  -0.099   3.758 -2.1689  0.8823  0.0759
  818MOL0     H10403   2.022  -0.008   3.904  1.0942 -3.2645  0.9179
  818MOL0     H10404   1.965   0.082   3.611 -0.1212 -2.4276 -0.2133
  818MOL0     H10405   1.974   0.188   3.766  0.7936 -0.7545  0.3575
  818MOL0     H10406   1.798   0.064   3.865  1.7353 -0.5358 -0.4959
  818MOL0     H10407   1.731   0.118   3.705 -0.3067  0.1468  2.1448
  818MOL0     H10408   1.846  -0.155   3.751 -1.6697 -1.2516 -0.5077
  818MOL0     H10409   1.767  -0.093   3.601  0.7566  0.6135 -0.0514
  818MOL0     H10410   1.615  -0.248   3.722 -0.0833 -0.2592  1.7630
  818MOL0     H10411   1.552  -0.088   3.715 -0.2525  1.6475  2.4659
  818MOL0     H10412   2.634   0.315   3.916  1.1089  0.4840  1.2390
  818MOL0     H10413   2.866   0.320   3.851  2.1968 -1.8039 -3.4453
  818MOL0     H10414   3.218   0.168   3.672 -1.3436  0.4260  0.8443
  818MOL0     H10415   3.452   0.157   3.608 -0.5169 -1.8865  0.6183
  818MOL0     H10416   4.892   0.525   3.816 -2.2624 -0.0795  1.0444
  818MOL0     H10417   5.134   0.461   3.778  1.9936 -0.8613  1.1187
  818MOL0     H10418   5.530   0.523   3.808 -2.2659 -1.2034  1.9134
  818MOL0     H10419   5.769   0.537   3.762  0.6188 -1.5269 -0.4901
  818MOL0     H10420   6.112   0.486   3.803 -0.2476 -0.6195 -0.2466
  818MOL0     H10421   5.962   0.555   3.755  3.0932 -0.0738 -1.0005
  818MOL0     H10422   6.155   0.717   3.808  2.2814  0.0153  1.5121
  818MOL0     H10423   6.105   0.694   3.979 -1.6316 -0.3183  0.4288
  818MOL0     H10424   5.879   0.764   3.921  1.2622 -3.9347  0.6594
  818MOL0     H10425   5.936   0.799   3.753 -1.1463  0.3018  0.7955
  818MOL0     H10426   6.081   0.906   3.989 -1.0593 -1.1695  1.6791
  818MOL0     H10427   5.935   0.989   3.933  0.1752 -1.5518  1.0960
  818MOL0     H10428   6.209   1.084   3.623 -1.4473 -0.0468 -0.7009
  818MOL0     H10429   5.851   0.393   4.161 -0.3064 -1.2928 -0.7695
  818MOL0     H10430   5.621   0.403   4.214 -0.8182 -0.1505 -0.1334
  819MOL0     O10431  10.951   5.938  10.622 -0.4070 -0.0578 -0.5738
  819MOL0     C10432  10.839   5.928  10.686  0.1403 -0.6969  0.8473
  819MOL0     O10433  10.827   5.967  10.817  0.1763 -0.6887 -0.1244
  819MOL0     C10434  10.928   6.006  10.901  0.1849 -0.0700  0.2395
  819MOL0     C10435  10.930   5.949  11.028  0.2062 -0.2664 -0.3313
  819MOL0     C10436  11.021   5.987  11.122  0.6413  0.7354  0.0408
  819MOL0     C10437  11.120   6.085  11.098  0.4384  0.4185  0.4581
  819MOL0     O10438  11.193   6.135  11.204  0.1004  0.6431  0.2800
  819MOL0     C10439  11.215   6.055  11.318 -0.1229 -0.7682  0.3740
  819MOL0     C10440  11.340   6.103  11.392  0.0733 -0.2347 -0.0984
  819MOL0     C10441  11.437   6.161  11.293  0.2498  0.7849  1.0521
  819MOL0     C10442  11.573   6.181  11.352 -0.9798  0.1363 -0.1284
  819MOL0     C10443  11.675   6.231  11.245  0.3074 -0.6883  0.0028
  819MOL0     C10444  11.810   6.260  11.308  0.7173  0.0603  0.1833
  819MOL0     C10445  11.920   6.305  11.211 -0.3708 -0.0859  0.7892
  819MOL0     C10446  12.063   6.312  11.285  0.4449 -0.2911 -0.0575
  819MOL0     N10447  12.093   6.208  11.381 -0.5960 -0.2704 -0.2922
  819MOL0     C10448  12.101   6.072  11.355 -0.3705 -0.4870 -0.0832
  819MOL0     C10449  12.116   6.020  11.479 -0.5496 -0.4484 -0.5897
  819MOL0     C10450  12.150   5.873  11.501  0.1861  0.7446 -0.6666
  819MOL0     C10451  12.030   5.800  11.564  0.4657 -0.3089  0.5349
  819MOL0     C10452  12.042   5.660  11.613 -0.5811  1.1426  0.4900
  819MOL0     C10453  11.915   5.589  11.664 -0.4535 -0.1405 -0.1351
  819MOL0     O10454  11.792   5.651  11.632  0.3596 -0.2990 -0.5576
  819MOL0     C10455  11.740   5.644  11.504 -0.2719  0.2072 -0.3797
  819MOL0     C10456  11.767   5.545  11.415 -0.6297 -0.0885  0.3715
  819MOL0     C10457  11.706   5.539  11.288 -0.3258 -0.5667 -0.3470
  819MOL0     C10458  11.743   5.432  11.187  0.3446  0.4387  0.3827
  819MOL0     C10459  11.605   5.632  11.267 -0.3945 -0.5861 -0.0182
  819MOL0     C10460  11.535   5.636  11.146  0.1657 -0.1771  0.4701
  819MOL0     O10461  11.414   5.574  11.148 -0.0728 -0.5546 -0.1981
  819MOL0     C10462  11.338   5.572  11.037  0.0662  0.8247 -0.2219
  819MOL0     C10463  11.265   5.682  10.985  0.3123 -0.5838  0.6300
  819MOL0     C10464  11.169   5.659  10.886 -0.1051  0.1972 -0.0854
  819MOL0     C10465  11.149   5.529  10.836  0.5447 -0.3445  0.2892
  819MOL0     O10466  11.049   5.503  10.745 -0.1809  0.1718 -0.9499
  819MOL0     C10467  11.001   5.607  10.652  0.5234 -0.2434 -0.3192
  819MOL0     C10468  10.943   5.535  10.532  1.4978 -0.4176 -0.5592
  819MOL0     C10469  10.810   5.466  10.568  0.0599 -0.2389  0.1056
  819MOL0     C10470  10.752   5.395  10.450 -0.1207 -0.2971  0.3558
  819MOL0     C10471  10.636   5.303  10.483 -0.7758 -0.2489  0.5488
  819MOL0     C10472  10.577   5.257  10.347 -0.7626  0.2256 -0.7198
  819MOL0     C10473  10.532   5.111  10.361 -1.1062  0.8682 -0.7856
  819MOL0     C10474  10.442   5.080  10.237  0.1917  0.1989  0.1502
  819MOL0    Cl10475  10.283   5.152  10.248  0.0947 -0.2856 -0.5007
  819MOL0     C10476  11.224   5.424  10.886 -0.4665 -0.4457  0.3189
  819MOL0     C10477  11.321   5.442  10.987 -0.0517 -0.8423  0.3924
  819MOL0     O10478  11.583   5.692  11.048 -0.2590 -0.2116  0.4883
  819MOL0     C10479  11.570   5.737  11.360 -0.5561 -0.9461 -0.6933
  819MOL0     C10480  11.653   5.741  11.469  0.6048  0.0366 -0.6518
  819MOL0     N10481  12.115   6.119  11.574  0.3643  0.3057 -0.4861
  819MOL0     N10482  12.110   6.231  11.514  1.6865 -0.6834  0.0973
  819MOL0     C10483  11.126   6.136  10.971  0.2417 -1.1548  0.6986
  819MOL0     C10484  11.030   6.106  10.872 -0.3831 -0.4912 -0.1719
  819MOL0     C10485  10.721   5.882  10.609 -0.4642 -0.4185  0.0571
  819MOL0     C10486  10.607   5.833  10.679  0.0694 -0.0566 -0.0983
  819MOL0     C10487  10.510   5.748  10.616 -0.1780 -0.7475 -0.0381
  819MOL0     C10488  10.516   5.737  10.477  0.9396  0.4043 -0.7712
  819MOL0     O10489  10.431   5.654  10.419 -0.3061 -0.4164  0.3363
  819MOL0     C10490  10.417   5.651  10.275 -0.5561 -0.6088  0.0795
  819MOL0     C10491  10.270   5.636  10.248 -0.0795 -0.1639 -0.4608
  819MOL0     C10492  10.199   5.509  10.295  0.6887  0.5796 -0.3855
  819MOL0     C10493  10.065   5.469  10.225  0.1602 -0.1551 -0.1109
  819MOL0     C10494   9.978   5.374  10.297  0.4931 -0.2778  0.5837
  819MOL0     C10495   9.926   5.289  10.375 -0.1133 -0.4825 -0.1177
  819MOL0     C10496  10.627   5.784  10.406  0.6420  0.2630 -0.0170
  819MOL0     C10497  10.727   5.855  10.474  0.8105 -0.2010 -0.1063
  819MOL0     H10498  10.864   5.865  11.046 -0.1421  0.1941  0.5705
  819MOL0     H10499  11.012   5.940  11.220  2.4583  0.9497  0.3546
  819MOL0     H10500  11.131   6.082  11.381 -0.4238  0.1180 -0.3843
  819MOL0     H10501  11.219   5.947  11.301  0.9876 -0.8935  1.3196
  819MOL0     H10502  11.318   6.173  11.473  0.8661 -0.3767  0.2485
  819MOL0     H10503  11.385   6.018  11.445  2.7336  1.8742  1.3015
  819MOL0     H10504  11.448   6.091  11.210 -2.3711  0.3648  0.9636
  819MOL0     H10505  11.400   6.257  11.256  0.8124  0.0389 -1.6452
  819MOL0     H10506  11.570   6.249  11.438  3.8971  0.5757  0.0200
  819MOL0     H10507  11.615   6.087  11.387  3.0721  0.9460 -2.1491
  819MOL0     H10508  11.693   6.155  11.168  0.0738 -0.1524 -0.5937
  819MOL0     H10509  11.626   6.319  11.202 -0.0957 -0.3657  1.0973
  819MOL0     H10510  11.800   6.343  11.379 -1.9155  0.5461 -0.6477
  819MOL0     H10511  11.840   6.174  11.369  0.4381 -0.4539 -0.3882
  819MOL0     H10512  11.926   6.231  11.130  0.9383 -1.3055  1.9471
  819MOL0     H10513  11.886   6.403  11.177 -1.8623 -0.8678 -0.0881
  819MOL0     H10514  12.077   6.406  11.340  0.3539 -1.8020  2.7532
  819MOL0     H10515  12.146   6.307  11.215 -0.1411  0.0569 -0.7934
  819MOL0     H10516  12.110   6.008  11.268  1.1383 -2.0041  1.1342
  819MOL0     H10517  12.166   5.815  11.409 -0.3166  2.9443 -2.2284
  819MOL0     H10518  12.239   5.866  11.563 -1.5098  1.2269  1.9716
  819MOL0     H10519  11.958   5.807  11.482  2.8611 -0.1319 -1.6898
  819MOL0     H10520  11.992   5.860  11.647  0.1765  0.6957 -0.2918
  819MOL0     H10521  12.120   5.634  11.685 -0.1393 -0.2086 -0.4493
  819MOL0     H10522  12.066   5.605  11.522 -1.1672  0.2763  0.8437
  819MOL0     H10523  11.916   5.585  11.774  1.6418 -0.2220 -0.1160
  819MOL0     H10524  11.921   5.483  11.637 -0.0025 -0.2612  0.4227
  819MOL0     H10525  11.843   5.473  11.444 -2.2242 -2.4089 -0.8740
  819MOL0     H10526  11.783   5.474  11.095  0.2738 -1.6731 -0.6658
  819MOL0     H10527  11.826   5.377  11.234 -0.4524  0.2753  1.6658
  819MOL0     H10528  11.656   5.371  11.163  0.4586  0.0138  1.0036
  819MOL0     H10529  11.271   5.780  11.033  2.0570 -0.4855  0.2781
  819MOL0     H10530  11.101   5.729  10.838  0.4295 -0.0841 -1.2868
  819MOL0     H10531  10.921   5.668  10.693  0.8689  2.3510 -3.1882
  819MOL0     H10532  11.082   5.678  10.635 -0.6888  1.4951  0.8598
  819MOL0     H10533  10.919   5.616  10.463 -1.2174 -0.2452  0.4350
  819MOL0     H10534  11.013   5.461  10.493  2.4149  1.6526 -3.0556
  819MOL0     H10535  10.736   5.539  10.604  1.3488  1.5233 -0.6797
  819MOL0     H10536  10.838   5.397  10.648 -0.2364  0.9653  1.2901
  819MOL0     H10537  10.714   5.470  10.380  1.1613  0.5734  0.5459
  819MOL0     H10538  10.832   5.341  10.398 -1.4347 -1.7448 -0.2349
  819MOL0     H10539  10.555   5.348  10.541  0.4421  0.8649  1.4441
  819MOL0     H10540  10.668   5.216  10.541 -0.3304 -0.2505  0.3050
  819MOL0     H10541  10.498   5.322  10.307 -0.8439 -0.1253 -1.1446
  819MOL0     H10542  10.642   5.268  10.260 -2.3916  1.8368 -1.8263
  819MOL0     H10543  10.473   5.085  10.450  0.9808 -0.3939  0.3017
  819MOL0     H10544  10.612   5.037  10.356 -3.9207 -2.3747 -1.8110
  819MOL0     H10545  10.431   4.973  10.220 -0.9169  0.5392 -1.4786
  819MOL0     H10546  10.489   5.118  10.146 -0.4217  2.1870  0.6125
  819MOL0     H10547  11.211   5.329  10.835  3.3382  0.6137 -3.1651
  819MOL0     H10548  11.395   5.369  11.018  1.9008  1.2993  1.1427
  819MOL0     H10549  11.490   5.809  11.345  1.3819  1.4706 -0.1331
  819MOL0     H10550  11.636   5.824  11.536  0.6966 -1.1572  0.9149
  819MOL0     H10551  11.200   6.211  10.946  0.8392 -2.2709 -1.0716
  819MOL0     H10552  11.027   6.157  10.776  4.9712  1.9758  0.6027
  819MOL0     H10553  10.598   5.860  10.784 -0.7212  1.5054 -0.5328
  819MOL0     H10554  10.437   5.709  10.687  1.5278  0.3661  2.4806
  819MOL0     H10555  10.451   5.741  10.222  0.1219  1.2377  3.3428
  819MOL0     H10556  10.468   5.561  10.241 -1.4236 -2.0685  2.3948
  819MOL0     H10557  10.258   5.642  10.139 -0.3882  1.8499 -0.3523
  819MOL0     H10558  10.223   5.722  10.297 -1.2899  0.1765 -2.1401
  819MOL0     H10559  10.174   5.514  10.401 -1.5902 -0.0098 -0.8389
  819MOL0     H10560  10.257   5.418  10.277 -2.2513 -1.2915 -1.1888
  819MOL0     H10561  10.099   5.420  10.134  3.1352  0.5387  0.5481
  819MOL0     H10562   9.998   5.554  10.211 -0.0702 -0.3741 -0.3575
  819MOL0     H10563   9.889   5.222  10.450 -1.6590  1.4086  0.9105
  819MOL0     H10564  10.647   5.758  10.302  0.5276  0.5717 -0.1196
  819MOL0     H10565  10.813   5.865  10.408 -0.0509  1.9578 -0.9899
  820MOL0     O10566  10.858  11.226   6.886 -0.8763  0.1327 -0.1177
  820MOL0     C10567  10.914  11.119   6.870 -0.1740 -1.1443 -0.3302
  820MOL0     O10568  10.854  11.001   6.843 -1.0756  0.1989  0.0308
  820MOL0     C10569  10.723  10.996   6.852 -0.1139  0.7360  0.4211
  820MOL0     C10570  10.646  11.025   6.742  0.5678  0.1034  0.4179
  820MOL0     C10571  10.503  11.006   6.753 -0.3227  0.6168 -0.8683
  820MOL0     C10572  10.443  10.971   6.881  0.6162 -0.1524 -0.3387
  820MOL0     O10573  10.305  10.981   6.907  0.5903 -0.6212 -0.1208
  820MOL0     C10574  10.219  10.952   6.793  0.4272  0.5683 -0.2245
  820MOL0     C10575  10.085  10.906   6.850 -0.7923 -0.3510 -0.5170
  820MOL0     C10576   9.975  10.879   6.750 -0.1508 -0.4868 -0.3342
  820MOL0     C10577   9.859  10.809   6.817  0.4919 -0.0766  0.0397
  820MOL0     C10578   9.760  10.758   6.706 -0.7363 -0.1685  0.5166
  820MOL0     C10579   9.631  10.688   6.751 -0.9133 -0.3613 -0.1127
  820MOL0     C10580   9.555  10.638   6.622 -0.1311 -0.2943 -0.4680
  820MOL0     C10581   9.459  10.753   6.566  0.6893 -0.0630  0.3725
  820MOL0     N10582   9.344  10.712   6.479  0.1837  0.3027 -0.5209
  820MOL0     C10583   9.236  10.627   6.518 -0.8061 -0.2014  0.2039
  820MOL0     C10584   9.155  10.626   6.401  0.4272 -0.3516 -0.5541
  820MOL0     C10585   9.047  10.517   6.381 -0.1012  0.7529  0.5598
  820MOL0     C10586   8.912  10.583   6.347  0.3556  0.6723 -0.3621
  820MOL0     C10587   8.806  10.470   6.324 -0.0922 -0.7410  0.0508
  820MOL0     C10588   8.671  10.538   6.298  0.4538 -0.0967  0.8731
  820MOL0     O10589   8.632  10.595   6.415 -0.1263  0.0459  0.0610
  820MOL0     C10590   8.501  10.639   6.434 -1.1264  0.4376 -0.4721
  820MOL0     C10591   8.412  10.638   6.328  0.5280 -0.0047  0.6559
  820MOL0     C10592   8.284  10.689   6.338 -0.4921 -0.5615  0.4372
  820MOL0     C10593   8.206  10.717   6.206  0.2396 -0.0866  0.5130
  820MOL0     C10594   8.236  10.705   6.475  0.6077 -0.1122  0.3736
  820MOL0     C10595   8.097  10.741   6.512  0.2133  0.1049  0.8449
  820MOL0     O10596   8.090  10.826   6.618 -0.6170 -0.1918  0.5127
  820MOL0     C10597   7.980  10.860   6.691  0.7223  0.9135 -0.1519
  820MOL0     C10598   8.012  10.924   6.810 -0.1540 -0.0289  0.1042
  820MOL0     C10599   7.906  10.965   6.890 -0.3481 -0.2812  0.1777
  820MOL0     C10600   7.765  10.950   6.857 -0.6605  0.5967  0.2636
  820MOL0     O10601   7.669  10.969   6.955  0.1610 -0.1818  0.5829
  820MOL0     C10602   7.526  10.977   6.915 -0.7009 -0.5834 -0.3140
  820MOL0     C10603   7.434  11.040   7.022 -0.5271 -0.5248  0.1388
  820MOL0     C10604   7.287  11.041   6.978  0.6474  0.2686  0.5102
  820MOL0     C10605   7.197  11.110   7.070  0.3815  0.1761 -0.1231
  820MOL0     C10606   7.056  11.114   7.024  0.4370 -0.2213 -0.5353
  820MOL0     C10607   6.966  11.162   7.140  0.0689 -0.0654 -0.2698
  820MOL0     C10608   6.818  11.188   7.101 -0.6479 -0.5294  0.0783
  820MOL0     C10609   6.733  11.240   7.216  0.0021  0.4106 -0.2312
  820MOL0    Cl10610   6.651  11.121   7.317  0.7169 -0.5860 -0.1799
  820MOL0     C10611   7.737  10.892   6.736 -0.6449 -0.3059 -0.4086
  820MOL0     C10612   7.847  10.850   6.649 -0.2196  0.5188 -0.1986
  820MOL0     O10613   7.999  10.692   6.454 -0.2302  0.4284 -0.5127
  820MOL0     C10614   8.327  10.699   6.583  0.1368  0.2643  0.7296
  820MOL0     C10615   8.461  10.666   6.569  0.1923  0.1659 -0.0943
  820MOL0     N10616   9.203  10.711   6.303 -0.1006  0.2573  0.0016
  820MOL0     N10617   9.314  10.750   6.343 -0.6346 -0.2168 -0.8578
  820MOL0     C10618  10.529  10.951   6.985  0.2059  0.1955 -0.3983
  820MOL0     C10619  10.664  10.966   6.979 -0.4752  0.1646 -0.4039
  820MOL0     C10620  11.060  11.125   6.870 -0.6654 -0.2222  0.0377
  820MOL0     C10621  11.142  11.010   6.842  0.6007 -0.2953  0.1175
  820MOL0     C10622  11.285  11.027   6.821 -0.1043 -0.9120  0.1149
  820MOL0     C10623  11.349  11.141   6.861  0.2891 -0.4974 -0.2311
  820MOL0     O10624  11.482  11.125   6.857  0.0889 -0.3348 -0.0774
  820MOL0     C10625  11.566  11.232   6.899 -0.6138  0.7104 -1.0082
  820MOL0     C10626  11.588  11.241   7.048 -0.4183  0.3161 -0.2706
  820MOL0     C10627  11.696  11.346   7.072 -0.6142  0.0048 -0.7125
  820MOL0     C10628  11.712  11.376   7.225 -1.0186 -0.9991 -0.4868
  820MOL0     C10629  11.804  11.489   7.254 -0.4238  0.1415  0.1698
  820MOL0     C10630  11.870  11.593   7.253  0.1291  0.0935  0.5343
  820MOL0     C10631  11.273  11.248   6.896  0.5122 -0.8932 -0.3731
  820MOL0     C10632  11.133  11.246   6.897 -0.6367  0.8501 -0.1889
  820MOL0     H10633  10.696  11.071   6.657 -0.9160  0.7242 -0.1583
  820MOL0     H10634  10.449  11.048   6.669 -0.4690 -1.2325 -1.7333
  820MOL0     H10635  10.208  11.048   6.741 -1.2726  1.6609  1.9737
  820MOL0     H10636  10.265  10.872   6.735  0.1311 -0.3642  0.8068
  820MOL0     H10637  10.116  10.814   6.901  2.9620  2.5184  3.0310
  820MOL0     H10638  10.052  10.968   6.934 -0.2299 -2.2881  1.2260
  820MOL0     H10639   9.939  10.967   6.695  1.7281  0.3337 -0.3152
  820MOL0     H10640  10.017  10.810   6.676 -0.0363  0.0577 -0.7828
  820MOL0     H10641   9.892  10.722   6.876 -5.1414 -3.4114 -0.9292
  820MOL0     H10642   9.800  10.868   6.887 -2.2566 -2.5158 -0.0297
  820MOL0     H10643   9.727  10.841   6.642  0.4091 -2.2041 -2.9925
  820MOL0     H10644   9.820  10.695   6.640  0.1851  2.9677 -1.9339
  820MOL0     H10645   9.662  10.607   6.818 -0.1188  0.7001  0.8283
  820MOL0     H10646   9.561  10.743   6.814 -0.5896 -2.1844  1.9387
  820MOL0     H10647   9.620  10.591   6.548  1.5309  2.2600 -0.7728
  820MOL0     H10648   9.482  10.566   6.658 -2.6817  2.3333 -0.0040
  820MOL0     H10649   9.509  10.812   6.488 -0.1328 -0.6721 -0.6353
  820MOL0     H10650   9.410  10.816   6.641 -0.9512  0.1790 -0.8651
  820MOL0     H10651   9.228  10.574   6.612 -1.5919  1.3129  1.0182
  820MOL0     H10652   9.071  10.446   6.301 -1.3487  1.5955 -0.6192
  820MOL0     H10653   9.034  10.455   6.470  0.1869 -0.8047 -0.4410
  820MOL0     H10654   8.932  10.642   6.257  1.4361 -1.3542 -1.5206
  820MOL0     H10655   8.883  10.641   6.435 -1.2060  2.1964 -1.8201
  820MOL0     H10656   8.802  10.407   6.413 -0.6936 -1.6932 -0.6312
  820MOL0     H10657   8.826  10.400   6.242  0.9826 -0.2432 -0.1232
  820MOL0     H10658   8.600  10.461   6.267  1.9274 -0.0297 -3.3267
  820MOL0     H10659   8.667  10.614   6.219  0.1269  0.9392  1.8501
  820MOL0     H10660   8.443  10.620   6.225 -1.4603 -2.2292  0.3373
  820MOL0     H10661   8.097  10.716   6.216  0.1542 -1.8726 -0.2448
  820MOL0     H10662   8.244  10.803   6.151  1.4304 -1.7046 -1.3237
  820MOL0     H10663   8.227  10.632   6.141  1.5323  0.3192  0.3649
  820MOL0     H10664   8.109  10.946   6.855 -0.4726 -0.9461  1.2829
  820MOL0     H10665   7.928  11.000   6.991  1.2695 -1.1467  0.1652
  820MOL0     H10666   7.520  11.037   6.823 -2.7717 -0.9479 -0.4633
  820MOL0     H10667   7.484  10.880   6.884 -0.9852 -0.1996 -1.1727
  820MOL0     H10668   7.449  10.982   7.114 -1.5478 -4.0901 -1.7227
  820MOL0     H10669   7.461  11.144   7.036 -1.3816  0.0711 -2.2026
  820MOL0     H10670   7.264  10.934   6.971  0.8968  0.3178 -1.7120
  820MOL0     H10671   7.285  11.083   6.877  4.7234  0.7245  0.4463
  820MOL0     H10672   7.189  11.061   7.167 -1.2402  3.2122  1.4488
  820MOL0     H10673   7.235  11.212   7.081 -1.4309  0.9713 -0.7740
  820MOL0     H10674   7.028  11.014   6.990  1.5935 -0.2225 -1.5500
  820MOL0     H10675   7.044  11.174   6.933 -1.2864  1.2160  0.5655
  820MOL0     H10676   6.979  11.086   7.217 -1.2137 -0.0251 -0.0032
  820MOL0     H10677   7.006  11.257   7.178  0.0426  0.0576 -0.5454
  820MOL0     H10678   6.773  11.107   7.043 -3.5502  1.2914 -0.3912
  820MOL0     H10679   6.817  11.270   7.029 -2.2676 -2.3192 -2.0654
  820MOL0     H10680   6.655  11.308   7.180 -0.8979 -0.8299 -0.6839
  820MOL0     H10681   6.808  11.287   7.280  0.9222  0.1095 -1.0515
  820MOL0     H10682   7.636  10.877   6.699 -0.7150  2.4143 -1.5878
  820MOL0     H10683   7.808  10.811   6.556 -2.2924 -3.1488  1.9169
  820MOL0     H10684   8.291  10.724   6.683  1.2743 -0.0042  1.2301
  820MOL0     H10685   8.534  10.660   6.649 -1.0192  0.6576  1.0750
  820MOL0     H10686  10.489  10.935   7.085  3.8549  1.1707  1.3628
  820MOL0     H10687  10.717  10.943   7.071 -0.6578  0.1448 -0.3028
  820MOL0     H10688  11.080  10.922   6.833 -1.0531  0.6666  1.5732
  820MOL0     H10689  11.346  10.940   6.800 -1.5140 -2.1751  1.0169
  820MOL0     H10690  11.667  11.218   6.859 -0.1363 -2.8596  1.0602
  820MOL0     H10691  11.539  11.330   6.857 -1.8713  0.3512 -1.0712
  820MOL0     H10692  11.619  11.146   7.094  1.7329  0.6381 -0.9519
  820MOL0     H10693  11.496  11.265   7.101 -0.3906 -0.4557  0.1431
  820MOL0     H10694  11.678  11.441   7.022  0.6761  0.4562 -0.3739
  820MOL0     H10695  11.790  11.309   7.027 -1.6065  0.9986 -3.8649
  820MOL0     H10696  11.750  11.289   7.280  2.9202  1.1407  0.4996
  820MOL0     H10697  11.613  11.400   7.265 -0.2319  0.4010  0.7282
  820MOL0     H10698  11.925  11.686   7.253  2.9132 -1.4309  1.0587
  820MOL0     H10699  11.308  11.347   6.923 -2.4004  0.4299 -1.1304
  820MOL0     H10700  11.083  11.340   6.917 -0.6960  0.8546 -0.3580
  821MOL0     O10701   6.584   9.120   9.139  0.0929 -0.3185 -0.6651
  821MOL0     C10702   6.642   9.093   9.036 -0.1774  0.1549 -0.9372
  821MOL0     O10703   6.584   9.081   8.912  0.0011 -0.2261  0.3132
  821MOL0     C10704   6.444   9.096   8.896  0.0392 -0.4595  0.0111
  821MOL0     C10705   6.388   9.212   8.942 -0.8921  1.0192 -0.0143
  821MOL0     C10706   6.250   9.237   8.925 -0.0907  0.5585 -0.2788
  821MOL0     C10707   6.174   9.143   8.851 -0.2803 -0.4486 -0.8935
  821MOL0     O10708   6.044   9.159   8.813  0.3234 -0.0847 -0.8537
  821MOL0     C10709   5.954   9.089   8.896  0.1129 -0.7001 -1.2845
  821MOL0     C10710   5.827   9.170   8.918  0.0712  0.4289  0.4189
  821MOL0     C10711   5.711   9.123   8.822 -0.0030  0.4612  0.6260
  821MOL0     C10712   5.565   9.180   8.845 -0.4168 -0.0262  0.3257
  821MOL0     C10713   5.472   9.070   8.787 -0.4302 -0.1509  0.2285
  821MOL0     C10714   5.324   9.100   8.807 -0.7762  0.3454 -0.1828
  821MOL0     C10715   5.231   8.990   8.763  0.1894  0.2714  0.0895
  821MOL0     C10716   5.213   8.869   8.857  0.0673 -0.0091  0.8357
  821MOL0     N10717   5.126   8.758   8.810  0.2131 -0.0552  0.0855
  821MOL0     C10718   5.176   8.651   8.743  0.8814 -0.2353  1.2236
  821MOL0     C10719   5.068   8.573   8.725 -0.1972  0.3837 -0.3907
  821MOL0     C10720   5.059   8.445   8.636 -0.2475 -1.0669  0.0673
  821MOL0     C10721   4.932   8.436   8.554 -0.1434 -0.6216 -0.4170
  821MOL0     C10722   4.906   8.291   8.492 -0.3420 -0.8747 -0.2343
  821MOL0     C10723   4.769   8.276   8.421  0.2855  0.4121  0.7716
  821MOL0     O10724   4.742   8.383   8.330  0.1531  0.7001 -0.7780
  821MOL0     C10725   4.618   8.409   8.282 -0.2459 -0.0822  0.5096
  821MOL0     C10726   4.588   8.520   8.205  0.3725 -0.3004  0.3638
  821MOL0     C10727   4.471   8.548   8.147 -0.4710 -0.6910  0.1156
  821MOL0     C10728   4.464   8.664   8.061 -0.0591 -0.0588 -0.2272
  821MOL0     C10729   4.363   8.461   8.173 -0.1814 -0.2569 -0.5449
  821MOL0     C10730   4.225   8.460   8.104  0.2594 -0.4108  0.0392
  821MOL0     O10731   4.130   8.401   8.176  0.6741 -0.1707  0.1848
  821MOL0     C10732   4.000   8.434   8.145  0.8400 -0.5742 -0.1018
  821MOL0     C10733   3.946   8.555   8.167 -0.8574 -0.4370 -0.1263
  821MOL0     C10734   3.810   8.578   8.143 -0.3904  0.8898 -0.4779
  821MOL0     C10735   3.726   8.480   8.074  0.5115 -0.1260 -0.2736
  821MOL0     O10736   3.591   8.502   8.056 -0.0723  0.3147  0.1242
  821MOL0     C10737   3.542   8.635   8.055  0.5186 -0.0318 -0.5889
  821MOL0     C10738   3.385   8.619   8.051  0.7046  0.4612 -0.5890
  821MOL0     C10739   3.319   8.505   8.125 -0.3015 -0.1749 -0.4864
  821MOL0     C10740   3.163   8.524   8.117  0.2899  0.6006  0.1231
  821MOL0     C10741   3.077   8.396   8.135 -0.2608 -0.3609 -0.0908
  821MOL0     C10742   2.926   8.416   8.108 -0.0786  0.2219  0.3861
  821MOL0     C10743   2.857   8.283   8.126  0.9278  0.5089 -0.1700
  821MOL0     C10744   2.717   8.284   8.061  0.3531 -0.3805  0.7980
  821MOL0    Cl10745   2.729   8.312   7.884  0.0004  0.0576 -0.8151
  821MOL0     C10746   3.789   8.357   8.045  1.0421 -0.0565 -0.0400
  821MOL0     C10747   3.917   8.339   8.083 -0.3268  0.2273  0.3448
  821MOL0     O10748   4.209   8.504   7.992 -0.1894  0.5279 -0.1500
  821MOL0     C10749   4.386   8.350   8.262  0.4790 -1.0133  0.1023
  821MOL0     C10750   4.518   8.319   8.314  0.7970 -0.0277  0.2309
  821MOL0     N10751   4.955   8.629   8.795 -0.0497 -0.5289 -0.3343
  821MOL0     N10752   4.993   8.743   8.838 -0.0762 -0.0582 -0.6020
  821MOL0     C10753   6.236   9.022   8.806  0.1898  0.0722  0.3301
  821MOL0     C10754   6.369   8.999   8.831 -0.0619 -0.5988  0.4955
  821MOL0     C10755   6.790   9.087   9.040 -1.1837  0.3866  0.3310
  821MOL0     C10756   6.864   9.064   8.924 -0.0643 -0.1693 -1.0193
  821MOL0     C10757   7.005   9.063   8.932 -0.0863 -0.7047 -0.7005
  821MOL0     C10758   7.071   9.061   9.055 -0.7613  0.0532 -0.0019
  821MOL0     O10759   7.205   9.071   9.060  0.0905 -1.0787 -0.3826
  821MOL0     C10760   7.266   9.114   9.177 -0.8743  0.1022 -0.0883
  821MOL0     C10761   7.413   9.153   9.148  0.8518 -0.9759  0.0306
  821MOL0     C10762   7.494   9.164   9.277  1.0466  0.6799 -0.5886
  821MOL0     C10763   7.645   9.178   9.262  0.0598  0.3266  0.1445
  821MOL0     C10764   7.706   9.192   9.391  0.1101  0.9712  0.2998
  821MOL0     C10765   7.759   9.195   9.499  0.0015  0.0976  0.0179
  821MOL0     C10766   6.994   9.069   9.167  0.7016 -0.4415 -0.0121
  821MOL0     C10767   6.859   9.083   9.162  0.8105  0.4354 -0.4325
  821MOL0     H10768   6.440   9.290   8.995  0.2504 -0.8012  1.6385
  821MOL0     H10769   6.203   9.325   8.967 -1.7458 -1.5204  2.7158
  821MOL0     H10770   5.939   8.998   8.837  1.0858 -0.1804 -2.3706
  821MOL0     H10771   6.003   9.063   8.990 -1.8032 -0.6427 -0.2195
  821MOL0     H10772   5.800   9.159   9.023  2.3748  0.5709  1.0820
  821MOL0     H10773   5.848   9.275   8.897  2.1552 -0.0327 -0.0418
  821MOL0     H10774   5.727   9.150   8.717 -2.6762  0.7028  0.2188
  821MOL0     H10775   5.715   9.014   8.833 -1.5418  0.5749  2.9120
  821MOL0     H10776   5.554   9.187   8.953  2.0891 -0.5304  0.6524
  821MOL0     H10777   5.546   9.285   8.819 -2.1486 -0.6287 -1.0910
  821MOL0     H10778   5.491   9.069   8.679  0.7675  1.4586  0.3898
  821MOL0     H10779   5.505   8.975   8.831  0.3910  0.4467  0.9532
  821MOL0     H10780   5.317   9.135   8.911  3.7418  2.7831 -0.4001
  821MOL0     H10781   5.303   9.188   8.746 -0.2617  1.1035  0.6967
  821MOL0     H10782   5.129   9.028   8.756 -0.3444 -1.3001 -1.4579
  821MOL0     H10783   5.255   8.954   8.662  0.7175 -2.4833  1.0947
  821MOL0     H10784   5.176   8.918   8.947 -1.0804 -0.2510  0.5069
  821MOL0     H10785   5.315   8.832   8.876  0.4375 -0.4550 -1.5872
  821MOL0     H10786   5.281   8.634   8.719  0.3117 -0.3865 -1.3631
  821MOL0     H10787   5.145   8.447   8.569  0.5597 -2.4031  1.0055
  821MOL0     H10788   5.063   8.359   8.704 -0.0171 -2.0251 -1.1201
  821MOL0     H10789   4.950   8.504   8.470 -0.0691  3.0555  2.3248
  821MOL0     H10790   4.843   8.446   8.617  1.9984 -1.7733  3.0473
  821MOL0     H10791   4.909   8.216   8.572 -0.2095  0.9356  1.5266
  821MOL0     H10792   4.984   8.269   8.418 -0.7693 -1.0931 -0.6263
  821MOL0     H10793   4.691   8.275   8.497 -1.5213 -2.6507 -0.9187
  821MOL0     H10794   4.764   8.178   8.373 -1.2572  0.8297  0.0208
  821MOL0     H10795   4.676   8.580   8.186  1.5075 -1.5811  1.3939
  821MOL0     H10796   4.443   8.631   7.959  2.3899  3.1526 -1.9709
  821MOL0     H10797   4.393   8.740   8.095 -0.3102 -0.6005  0.4773
  821MOL0     H10798   4.558   8.714   8.033  0.0803 -0.4833 -0.5248
  821MOL0     H10799   4.014   8.632   8.203  0.1492 -0.6199 -1.5402
  821MOL0     H10800   3.768   8.676   8.161 -0.1168  1.1489 -1.2078
  821MOL0     H10801   3.562   8.688   8.148  3.4786 -2.3481  0.2727
  821MOL0     H10802   3.577   8.693   7.969  2.0334 -1.4192 -0.9701
  821MOL0     H10803   3.356   8.716   8.093  2.2983  0.1757  1.2878
  821MOL0     H10804   3.349   8.616   7.948  2.8937  0.1767 -1.3918
  821MOL0     H10805   3.354   8.500   8.229 -1.6579  1.8078  0.1307
  821MOL0     H10806   3.350   8.413   8.075  2.5562  0.8719 -0.8557
  821MOL0     H10807   3.126   8.601   8.186 -0.8584  0.9245 -0.8169
  821MOL0     H10808   3.140   8.565   8.018 -0.1771  1.6501  0.6524
  821MOL0     H10809   3.103   8.362   8.236 -0.9040 -0.5784  0.0093
  821MOL0     H10810   3.104   8.327   8.054 -2.2220  1.2572 -2.2624
  821MOL0     H10811   2.887   8.493   8.175  0.0659 -0.3204  1.1101
  821MOL0     H10812   2.919   8.460   8.009 -0.1371 -2.2790 -0.8028
  821MOL0     H10813   2.845   8.244   8.228  1.6998 -0.9309 -0.5974
  821MOL0     H10814   2.925   8.210   8.081  1.0080 -0.4796  1.4733
  821MOL0     H10815   2.661   8.368   8.104 -0.4360 -0.3094 -0.3313
  821MOL0     H10816   2.666   8.191   8.089  0.4715 -0.8350 -0.4648
  821MOL0     H10817   3.728   8.279   8.000  2.4955 -2.4828  1.9086
  821MOL0     H10818   3.955   8.237   8.074 -0.3555  0.2477 -0.0014
  821MOL0     H10819   4.308   8.279   8.285 -0.8427 -0.1322 -1.4617
  821MOL0     H10820   4.528   8.235   8.382 -1.0559  0.7585  1.5578
  821MOL0     H10821   6.179   8.953   8.745  2.4249 -1.7446  0.1434
  821MOL0     H10822   6.431   8.915   8.802  0.6717 -0.1944  0.8699
  821MOL0     H10823   6.805   9.065   8.833 -0.7032  0.3869 -0.6019
  821MOL0     H10824   7.068   9.062   8.844 -0.9506  0.9360 -1.3743
  821MOL0     H10825   7.220   9.192   9.238  0.2424 -0.4536  1.5293
  821MOL0     H10826   7.269   9.020   9.234  0.0184  1.7652  2.8144
  821MOL0     H10827   7.421   9.251   9.099  2.0631 -0.1746  1.7482
  821MOL0     H10828   7.462   9.087   9.077 -1.1523 -0.8820 -1.5519
  821MOL0     H10829   7.480   9.076   9.341  1.9521  1.7385  1.1367
  821MOL0     H10830   7.460   9.252   9.333 -0.6393 -2.1772  3.3955
  821MOL0     H10831   7.664   9.268   9.204 -0.0502  0.1729 -0.1355
  821MOL0     H10832   7.682   9.093   9.204  2.1797  2.2721 -1.5269
  821MOL0     H10833   7.802   9.197   9.598  0.3020 -1.8041 -0.0280
  821MOL0     H10834   7.031   9.069   9.269  1.1595 -1.5726 -0.1618
  821MOL0     H10835   6.800   9.085   9.253 -2.3744 -1.0936 -2.3023
  822MOL0     O10836   9.022   6.161   7.858  0.1907  0.9763 -0.3413
  822MOL0     C10837   9.128   6.125   7.909  0.3561 -0.9334  0.6114
  822MOL0     O10838   9.160   6.003   7.953  0.6550  0.3750 -0.1500
  822MOL0     C10839   9.063   5.905   7.958 -0.4275  0.2493 -0.1656
  822MOL0     C10840   9.044   5.842   8.084  0.1742  0.2141  0.1238
  822MOL0     C10841   8.938   5.751   8.103  0.3570  0.0199 -0.2552
  822MOL0     C10842   8.860   5.717   7.992  0.3426 -0.0049 -0.3824
  822MOL0     O10843   8.748   5.642   7.997 -0.5191 -0.1270  0.0558
  822MOL0     C10844   8.736   5.551   8.109 -0.0135 -0.0367  1.0893
  822MOL0     C10845   8.626   5.445   8.088  0.2206 -0.4273  0.2481
  822MOL0     C10846   8.485   5.508   8.096  0.1332 -0.6815  0.5364
  822MOL0     C10847   8.373   5.409   8.089  1.0555  0.3854  0.1815
  822MOL0     C10848   8.252   5.486   8.044  0.7612 -0.7340  0.4307
  822MOL0     C10849   8.125   5.394   8.036 -0.8636 -0.3363  0.2547
  822MOL0     C10850   8.014   5.469   7.962 -0.2944 -0.9281  0.2566
  822MOL0     C10851   7.973   5.590   8.039  0.4958 -0.1117 -0.0674
  822MOL0     N10852   7.843   5.645   7.992 -0.9279 -0.3092  0.4681
  822MOL0     C10853   7.723   5.589   8.003  0.5660  0.0783 -1.4906
  822MOL0     C10854   7.633   5.674   7.949 -0.9288 -0.3762  0.4232
  822MOL0     C10855   7.487   5.657   7.925 -0.1980 -0.0735 -0.8903
  822MOL0     C10856   7.422   5.566   8.025  0.5624 -0.0869 -0.3478
  822MOL0     C10857   7.271   5.559   7.990  0.2269 -0.3525 -0.0103
  822MOL0     C10858   7.190   5.456   8.063  0.0823 -0.4190  0.9641
  822MOL0     O10859   7.052   5.483   8.044  0.2987 -0.5365 -0.1666
  822MOL0     C10860   6.954   5.390   8.076  0.6631  0.7417 -0.4027
  822MOL0     C10861   6.820   5.419   8.051  0.1404  0.2264  0.0867
  822MOL0     C10862   6.712   5.330   8.089 -0.5890  0.6950  0.7904
  822MOL0     C10863   6.573   5.363   8.039  0.1165 -0.2974  0.3748
  822MOL0     C10864   6.744   5.212   8.165 -0.0133  0.8965 -0.3712
  822MOL0     C10865   6.650   5.130   8.234  0.9287 -0.0523 -0.5407
  822MOL0     O10866   6.540   5.189   8.282  0.1680  0.1149 -0.2606
  822MOL0     C10867   6.437   5.112   8.339 -0.5202 -0.8660 -0.2201
  822MOL0     C10868   6.450   5.019   8.448  0.8469 -0.5822  1.4134
  822MOL0     C10869   6.341   4.962   8.519 -0.5526  0.0185 -0.0273
  822MOL0     C10870   6.213   5.005   8.481 -0.3236 -0.2682  0.1334
  822MOL0     O10871   6.089   4.959   8.535 -0.0364 -0.8062 -0.6101
  822MOL0     C10872   6.097   4.872   8.652 -1.3521  0.8580 -0.2685
  822MOL0     C10873   5.959   4.814   8.705 -0.3561 -0.0026 -0.1989
  822MOL0     C10874   5.874   4.917   8.779 -0.0475 -0.0677 -0.9995
  822MOL0     C10875   5.734   4.868   8.809 -0.1026  0.9900 -0.4909
  822MOL0     C10876   5.675   4.944   8.925  0.2083 -1.4250 -0.0074
  822MOL0     C10877   5.527   4.917   8.933  0.1558  0.6701 -0.2802
  822MOL0     C10878   5.446   5.032   8.998 -0.7896 -0.0572  0.6269
  822MOL0     C10879   5.390   4.972   9.132  0.4045 -0.3113 -0.7164
  822MOL0    Cl10880   5.287   5.092   9.227 -0.0134 -0.2870  0.0357
  822MOL0     C10881   6.198   5.086   8.366 -0.6327 -0.2288  0.2576
  822MOL0     C10882   6.306   5.140   8.291  0.2433  0.0259  0.0799
  822MOL0     O10883   6.682   5.012   8.255  0.1583 -0.2017  0.9054
  822MOL0     C10884   6.877   5.195   8.188  0.2645 -0.2844 -0.1495
  822MOL0     C10885   6.983   5.279   8.153  0.5008 -0.0051 -0.2914
  822MOL0     N10886   7.707   5.779   7.902 -0.2901 -0.8653  0.0190
  822MOL0     N10887   7.835   5.764   7.927  0.1225 -0.3705 -0.6404
  822MOL0     C10888   8.886   5.777   7.870 -0.5566  0.1960 -0.4072
  822MOL0     C10889   8.991   5.864   7.847  0.2037  0.8668  0.3894
  822MOL0     C10890   9.225   6.233   7.900 -0.0388  0.3597  0.2720
  822MOL0     C10891   9.197   6.358   7.846  0.8921 -0.6344 -0.4520
  822MOL0     C10892   9.298   6.451   7.847 -0.5199 -0.8207  0.2777
  822MOL0     C10893   9.428   6.422   7.890 -0.5052 -0.1400  0.1990
  822MOL0     O10894   9.526   6.513   7.884 -0.0172 -0.0972 -0.3298
  822MOL0     C10895   9.587   6.547   8.008  0.5424  0.0490 -0.5230
  822MOL0     C10896   9.501   6.651   8.083 -0.1773 -0.5458  0.5512
  822MOL0     C10897   9.511   6.790   8.012  0.3637  0.1219 -0.9874
  822MOL0     C10898   9.464   6.912   8.088 -0.5411  0.2916 -0.7751
  822MOL0     C10899   9.323   6.896   8.137  0.1020  0.3163  0.6233
  822MOL0     C10900   9.219   6.867   8.194 -0.4332  0.6962  0.6439
  822MOL0     C10901   9.456   6.295   7.936  0.2799 -0.0868  0.2742
  822MOL0     C10902   9.351   6.203   7.944 -0.8228  0.5294 -0.1225
  822MOL0     H10903   9.114   5.884   8.155  0.1224 -0.9399  0.8771
  822MOL0     H10904   8.906   5.714   8.200  0.7770  0.8176  0.1967
  822MOL0     H10905   8.829   5.496   8.129 -0.5702 -1.5443 -0.2023
  822MOL0     H10906   8.701   5.602   8.199 -1.0393 -1.3787  1.4965
  822MOL0     H10907   8.633   5.389   7.995 -0.1461 -2.0462  1.1456
  822MOL0     H10908   8.639   5.366   8.163  2.0381 -0.2733  0.1396
  822MOL0     H10909   8.473   5.580   8.178 -0.0831  1.1149 -0.9930
  822MOL0     H10910   8.475   5.574   8.009  0.6683 -1.8445 -0.4340
  822MOL0     H10911   8.382   5.326   8.019 -2.0482  1.3730 -1.6419
  822MOL0     H10912   8.364   5.364   8.188 -1.1650 -0.7991 -0.4789
  822MOL0     H10913   8.223   5.552   8.126 -0.2857 -0.7274  0.0711
  822MOL0     H10914   8.264   5.547   7.954  0.8176  1.5278  1.9147
  822MOL0     H10915   8.162   5.304   7.987 -0.2328 -0.4389  0.9037
  822MOL0     H10916   8.087   5.372   8.136  1.8990  1.0440  1.7215
  822MOL0     H10917   8.050   5.516   7.870 -2.4663  1.8613  0.6828
  822MOL0     H10918   7.931   5.401   7.941 -1.5392 -0.1988  2.5253
  822MOL0     H10919   8.042   5.674   8.034 -0.4188  0.5887 -1.9204
  822MOL0     H10920   7.956   5.557   8.142 -0.4610  3.7175  1.1546
  822MOL0     H10921   7.699   5.491   8.042  1.1351  0.2843 -0.5923
  822MOL0     H10922   7.444   5.758   7.918  0.8288  0.3147 -2.0300
  822MOL0     H10923   7.478   5.606   7.829  0.8635 -0.5786 -0.7279
  822MOL0     H10924   7.429   5.598   8.130 -2.1275  2.3380 -0.7839
  822MOL0     H10925   7.463   5.465   8.018  0.7830 -0.0373  0.1789
  822MOL0     H10926   7.264   5.524   7.887 -2.9438 -3.6250  1.0923
  822MOL0     H10927   7.227   5.658   8.006  1.7666  0.6522 -1.6178
  822MOL0     H10928   7.207   5.468   8.170  1.0833  0.1238  0.7567
  822MOL0     H10929   7.220   5.360   8.020 -0.2928  0.2761 -0.9209
  822MOL0     H10930   6.800   5.513   8.001 -2.7214 -0.1191  0.4535
  822MOL0     H10931   6.551   5.290   7.960 -0.1215 -0.1162  0.2730
  822MOL0     H10932   6.497   5.338   8.113  0.5165 -2.2402  0.1834
  822MOL0     H10933   6.556   5.468   8.012 -1.0569 -0.5522  0.0606
  822MOL0     H10934   6.552   5.012   8.485  2.8436  2.3448 -2.6441
  822MOL0     H10935   6.347   4.894   8.603 -0.6387  0.4088  0.2991
  822MOL0     H10936   6.153   4.781   8.630 -2.5473  0.0681 -0.1358
  822MOL0     H10937   6.148   4.924   8.734  1.4991 -2.6414  0.4449
  822MOL0     H10938   5.904   4.778   8.618  0.4453  0.2704 -0.8257
  822MOL0     H10939   5.996   4.733   8.769  2.3562  0.4240 -1.1098
  822MOL0     H10940   5.882   5.017   8.734  1.1536  0.4876  0.3935
  822MOL0     H10941   5.925   4.930   8.875  0.0524 -4.2029 -0.3229
  822MOL0     H10942   5.665   4.872   8.724 -0.6429 -1.7910 -0.2591
  822MOL0     H10943   5.738   4.762   8.833  0.0680  1.4630  1.7242
  822MOL0     H10944   5.691   5.051   8.911  1.1791 -1.8630 -3.0028
  822MOL0     H10945   5.734   4.932   9.016  1.6698  1.4458 -0.4458
  822MOL0     H10946   5.490   4.901   8.831 -0.2150 -1.7481  0.1617
  822MOL0     H10947   5.509   4.823   8.987  0.3525 -0.9372 -2.7898
  822MOL0     H10948   5.361   5.066   8.938 -0.5481  0.3905  0.5356
  822MOL0     H10949   5.509   5.121   9.004  0.1641 -0.5630 -1.0458
  822MOL0     H10950   5.481   4.964   9.191 -0.0490  3.7640  0.8620
  822MOL0     H10951   5.340   4.875   9.126  1.4026 -0.9166  0.4474
  822MOL0     H10952   6.098   5.109   8.330 -0.6528  1.9557  1.5436
  822MOL0     H10953   6.284   5.195   8.201 -1.8588 -2.4468 -1.0363
  822MOL0     H10954   6.918   5.116   8.251 -1.7361 -0.4661  1.0080
  822MOL0     H10955   7.081   5.253   8.194  0.0156  0.6817  1.3941
  822MOL0     H10956   8.817   5.753   7.791 -1.8889 -0.9640  1.0350
  822MOL0     H10957   9.005   5.908   7.749 -3.2974  3.3949  0.8189
  822MOL0     H10958   9.099   6.380   7.804  0.0637  1.2559  2.2334
  822MOL0     H10959   9.273   6.546   7.801 -1.0088 -0.8738  0.4345
  822MOL0     H10960   9.597   6.461   8.075  1.0029  1.4515  1.3254
  822MOL0     H10961   9.691   6.577   7.992  0.5853 -0.0848 -0.5014
  822MOL0     H10962   9.525   6.664   8.189 -0.1872  4.8135  0.1827
  822MOL0     H10963   9.395   6.625   8.081  0.0065 -1.2835  0.3298
  822MOL0     H10964   9.460   6.786   7.916  2.4532 -0.7154 -2.1337
  822MOL0     H10965   9.616   6.815   7.999 -0.1892  3.4089  0.0116
  822MOL0     H10966   9.469   7.002   8.027 -0.4446 -0.2406 -1.5584
  822MOL0     H10967   9.533   6.924   8.172 -0.5649 -0.0237 -0.7074
  822MOL0     H10968   9.132   6.815   8.230 -1.6708  1.3729 -1.2111
  822MOL0     H10969   9.553   6.264   7.975 -0.3528  0.4090  2.3662
  822MOL0     H10970   9.382   6.106   7.980  0.4352  1.2461  0.7662
  823MOL0     O10971   3.379  10.747   7.603 -0.2735  0.6899 -0.0115
  823MOL0     C10972   3.459  10.692   7.535 -1.0348 -0.2743 -0.6758
  823MOL0     O10973   3.437  10.586   7.455 -0.3441 -0.5563 -0.7382
  823MOL0     C10974   3.309  10.534   7.463  0.1429 -1.4385 -0.0405
  823MOL0     C10975   3.277  10.401   7.490 -0.6680 -0.2089  0.1946
  823MOL0     C10976   3.149  10.354   7.493  0.0783  0.0014 -0.2138
  823MOL0     C10977   3.052  10.436   7.429 -0.4275  0.2899 -0.2812
  823MOL0     O10978   2.913  10.419   7.431 -0.4114  0.1983  0.3620
  823MOL0     C10979   2.862  10.294   7.482 -0.0214  0.1180 -0.1792
  823MOL0     C10980   2.724  10.277   7.434  0.5181  0.3960  0.4623
  823MOL0     C10981   2.647  10.156   7.493 -0.8974 -0.0900 -0.2873
  823MOL0     C10982   2.516  10.139   7.424  1.0061 -0.4806 -0.0096
  823MOL0     C10983   2.432  10.032   7.492 -0.5867  0.0723  0.1986
  823MOL0     C10984   2.301  10.026   7.404 -0.3276  0.6768  0.4417
  823MOL0     C10985   2.229   9.892   7.434  0.2864  0.5805 -0.3731
  823MOL0     C10986   2.194   9.866   7.591 -0.4481  0.5300  0.2031
  823MOL0     N10987   2.059   9.924   7.623  0.2639 -0.1076  0.2220
  823MOL0     C10988   2.045  10.056   7.659  0.4274 -0.0781 -0.5567
  823MOL0     C10989   1.914  10.078   7.688  0.5241  0.0031 -0.2223
  823MOL0     C10990   1.862  10.205   7.731  0.2611 -0.2433  0.2612
  823MOL0     C10991   1.710  10.200   7.736 -0.5049 -0.4264  0.3704
  823MOL0     C10992   1.655  10.326   7.801 -1.2525 -1.0357  0.6349
  823MOL0     C10993   1.680  10.452   7.717  0.1948  0.0254  1.2026
  823MOL0     O10994   1.657  10.435   7.576 -0.9335  0.5642  0.4576
  823MOL0     C10995   1.533  10.443   7.530 -0.1587  0.4537  0.1914
  823MOL0     C10996   1.524  10.445   7.396  0.2599 -0.1118  0.3963
  823MOL0     C10997   1.398  10.454   7.323 -0.4722  0.7900  0.3130
  823MOL0     C10998   1.397  10.462   7.169 -0.0723  0.0207 -0.0993
  823MOL0     C10999   1.283  10.466   7.409  0.1169 -0.2121  0.0083
  823MOL0     C11000   1.149  10.471   7.344  0.3545 -0.8533 -0.3446
  823MOL0     O11001   1.046  10.491   7.437 -0.4044  0.8762  1.0673
  823MOL0     C11002   0.918  10.475   7.398  0.0904 -0.7987 -0.3286
  823MOL0     C11003   0.838  10.356   7.406 -0.2558  0.0420 -0.1020
  823MOL0     C11004   0.708  10.357   7.369  0.1460 -0.7195 -1.2402
  823MOL0     C11005   0.645  10.482   7.337  0.4902  0.4815 -0.4859
  823MOL0     O11006   0.516  10.488   7.307  0.2488  0.2124 -0.4821
  823MOL0     C11007   0.463  10.404   7.204 -0.2471  0.0939  0.3457
  823MOL0     C11008   0.310  10.415   7.218 -0.4067  0.1667  0.3675
  823MOL0     C11009   0.266  10.314   7.331  0.1201 -0.7413  1.0733
  823MOL0     C11010   0.113  10.304   7.337 -0.2153 -0.4472 -0.8323
  823MOL0     C11011   0.044  10.243   7.228  0.1588  0.1526  0.0462
  823MOL0     C11012  -0.068  10.153   7.275  0.3461 -0.4757 -0.5023
  823MOL0     C11013  -0.143  10.083   7.162  0.0295  0.3702  0.9297
  823MOL0     C11014  -0.283  10.129   7.122 -0.0999  0.2111 -0.0407
  823MOL0    Cl11015  -0.393  10.164   7.265  0.0992  0.0400 -0.1272
  823MOL0     C11016   0.724  10.599   7.324  0.8630  0.4873 -0.2687
  823MOL0     C11017   0.858  10.592   7.352  0.5686  0.3591 -0.8633
  823MOL0     O11018   1.125  10.428   7.226  0.0786  0.4160 -0.3802
  823MOL0     C11019   1.293  10.466   7.550 -0.8753 -1.2288  0.1458
  823MOL0     C11020   1.416  10.450   7.610 -0.3565 -0.5220 -1.2495
  823MOL0     N11021   1.854   9.955   7.686 -0.9346  0.2608  0.6577
  823MOL0     N11022   1.942   9.864   7.648  0.6732  0.2291  1.5478
  823MOL0     C11023   3.087  10.571   7.400  0.6374  0.0726  0.4352
  823MOL0     C11024   3.209  10.621   7.414  0.0718 -0.2141 -0.3268
  823MOL0     C11025   3.598  10.743   7.563  0.3218  0.0600  0.1783
  823MOL0     C11026   3.716  10.673   7.541 -0.2407 -0.2892  0.2447
  823MOL0     C11027   3.835  10.713   7.589  0.1485 -0.4021  0.4155
  823MOL0     C11028   3.851  10.844   7.630 -0.6016 -0.1297 -0.7266
  823MOL0     O11029   3.976  10.881   7.690  0.2838 -0.4501  0.2506
  823MOL0     C11030   4.038  10.999   7.638 -0.5015 -0.1915  0.0937
  823MOL0     C11031   4.115  11.058   7.747 -0.1973 -0.4207 -0.7200
  823MOL0     C11032   4.020  11.108   7.856  0.3393  0.1988  0.5415
  823MOL0     C11033   4.084  11.208   7.942  0.4983 -0.7708  0.0296
  823MOL0     C11034   4.205  11.167   7.997 -0.3057  0.7792 -0.1306
  823MOL0     C11035   4.301  11.112   8.050  1.0200 -0.1246 -0.6791
  823MOL0     C11036   3.738  10.927   7.637  0.5617  0.3141 -0.4370
  823MOL0     C11037   3.610  10.877   7.604 -0.8065 -0.3555  0.3941
  823MOL0     H11038   3.358  10.352   7.543 -0.1383  1.7456  1.2948
  823MOL0     H11039   3.128  10.262   7.547  3.2733  0.1094  1.4808
  823MOL0     H11040   2.917  10.213   7.432 -2.5741 -0.9045 -1.4762
  823MOL0     H11041   2.875  10.302   7.591 -0.3599  0.9560 -0.1938
  823MOL0     H11042   2.678  10.374   7.458  0.9351  0.5819  0.5082
  823MOL0     H11043   2.715  10.270   7.325  0.3183 -1.5754  0.5706
  823MOL0     H11044   2.695  10.058   7.482 -1.7320 -0.6720  0.9713
  823MOL0     H11045   2.627  10.165   7.600  1.5046 -0.0633  0.2159
  823MOL0     H11046   2.452  10.227   7.431 -0.1847 -1.3811  0.7505
  823MOL0     H11047   2.540  10.136   7.317  0.9295  2.0553 -0.1604
  823MOL0     H11048   2.484   9.936   7.500  1.4179  1.0444 -0.4816
  823MOL0     H11049   2.407  10.067   7.592 -2.1456  0.1879 -0.2040
  823MOL0     H11050   2.231  10.110   7.414 -2.0210 -0.6957  0.5629
  823MOL0     H11051   2.333  10.018   7.300  0.5122 -1.9599  0.8374
  823MOL0     H11052   2.135   9.885   7.379 -0.8517  1.4566  1.4105
  823MOL0     H11053   2.304   9.819   7.400  0.1683 -0.8959  2.2937
  823MOL0     H11054   2.271   9.910   7.655  0.8058 -1.1080 -0.0971
  823MOL0     H11055   2.184   9.759   7.614 -3.3004  0.2031 -1.9614
  823MOL0     H11056   2.118  10.136   7.658  0.8640 -0.4734 -1.4931
  823MOL0     H11057   1.904  10.232   7.828  1.3189  2.5123 -0.8648
  823MOL0     H11058   1.901  10.285   7.668 -0.0733  0.3709  0.8263
  823MOL0     H11059   1.681  10.116   7.799  3.4749 -3.8081 -1.7663
  823MOL0     H11060   1.664  10.178   7.639 -0.0084  1.8527 -0.4507
  823MOL0     H11061   1.709  10.347   7.893 -1.1771 -1.9085  0.7918
  823MOL0     H11062   1.548  10.325   7.821 -1.2115  0.7145  1.1333
  823MOL0     H11063   1.787  10.473   7.721  0.3432 -0.5050  0.2349
  823MOL0     H11064   1.619  10.538   7.747 -0.8273  0.1949 -1.1415
  823MOL0     H11065   1.613  10.430   7.335 -1.1240 -2.4953 -1.1982
  823MOL0     H11066   1.333  10.384   7.128 -0.2073 -1.7006  3.0522
  823MOL0     H11067   1.353  10.561   7.152  0.0368  0.3075  1.1773
  823MOL0     H11068   1.497  10.456   7.126 -0.3787 -1.7631 -0.6255
  823MOL0     H11069   0.887  10.273   7.455  0.7667  0.0273 -1.1198
  823MOL0     H11070   0.645  10.270   7.379 -0.8283  0.2057  2.3104
  823MOL0     H11071   0.502  10.439   7.108 -1.4911  0.4592 -0.0402
  823MOL0     H11072   0.496  10.300   7.213  0.1252 -0.0109 -1.7940
  823MOL0     H11073   0.286  10.518   7.247  0.6298  0.6853 -0.5730
  823MOL0     H11074   0.258  10.379   7.129 -2.0516  0.2997  1.2266
  823MOL0     H11075   0.296  10.359   7.427  0.2794 -0.0636  0.7107
  823MOL0     H11076   0.312  10.216   7.313  2.8020  0.6345 -0.1973
  823MOL0     H11077   0.088  10.238   7.421  0.9323 -0.1936 -0.2685
  823MOL0     H11078   0.070  10.403   7.352 -0.7158 -0.9197  1.1367
  823MOL0     H11079   0.111  10.177   7.172 -0.3617 -0.6569  0.3508
  823MOL0     H11080   0.012  10.323   7.160 -0.4606  0.1325  0.3077
  823MOL0     H11081  -0.026  10.086   7.350  0.1046  0.9618  0.9917
  823MOL0     H11082  -0.142  10.207   7.336 -1.0089 -2.3915 -0.3601
  823MOL0     H11083  -0.160   9.979   7.189  1.4245 -0.1604 -0.1289
  823MOL0     H11084  -0.078  10.078   7.074 -1.1346  0.9396 -0.0007
  823MOL0     H11085  -0.327  10.048   7.062  3.8867  0.3744 -3.6574
  823MOL0     H11086  -0.267  10.208   7.049  0.2584  0.2013  0.0256
  823MOL0     H11087   0.687  10.690   7.278 -2.1367 -1.0772 -1.1783
  823MOL0     H11088   0.916  10.684   7.345 -0.2499  1.2190  2.1070
  823MOL0     H11089   1.203  10.466   7.611 -0.1627 -1.3324  1.2226
  823MOL0     H11090   1.411  10.439   7.718  0.8066  1.1519 -0.9765
  823MOL0     H11091   3.010  10.640   7.368 -0.0039 -0.2139  1.3221
  823MOL0     H11092   3.227  10.726   7.394  0.1706  0.3811  2.5091
  823MOL0     H11093   3.715  10.566   7.527 -4.4412 -0.4873  0.8418
  823MOL0     H11094   3.917  10.642   7.581  1.0184  0.8007 -2.5637
  823MOL0     H11095   4.103  10.978   7.552 -0.7377  1.7802 -0.6153
  823MOL0     H11096   3.972  11.075   7.596 -1.7032 -0.0462  2.1404
  823MOL0     H11097   4.189  11.127   7.707  4.0249 -2.5739  2.5493
  823MOL0     H11098   4.177  10.977   7.787 -2.5086 -2.3583 -0.8350
  823MOL0     H11099   3.984  11.023   7.915  0.3285  1.3313  2.2291
  823MOL0     H11100   3.929  11.153   7.815 -0.6462 -1.0099  1.3033
  823MOL0     H11101   4.025  11.239   8.030 -1.3126 -0.7580 -1.1403
  823MOL0     H11102   4.103  11.300   7.886  1.4532  0.3655  2.0697
  823MOL0     H11103   4.386  11.059   8.090 -0.9550 -2.4956  0.6716
  823MOL0     H11104   3.742  11.027   7.678 -0.5124  0.5749 -0.9384
  823MOL0     H11105   3.527  10.946   7.615  0.3190  0.9710  0.9368
  824MOL0     O11106   2.444   4.768   4.506 -0.1097 -0.0840  0.0362
  824MOL0     C11107   2.528   4.697   4.551 -0.8534  0.2599 -0.7325
  824MOL0     O11108   2.513   4.560   4.573 -0.3658  0.2339  0.3837
  824MOL0     C11109   2.393   4.499   4.588 -0.0188 -0.5491  0.6459
  824MOL0     C11110   2.264   4.558   4.589 -0.3817 -0.5214 -0.5834
  824MOL0     C11111   2.145   4.483   4.608 -0.5916  0.6873 -0.2729
  824MOL0     C11112   2.159   4.341   4.617 -1.2398 -0.0976 -0.3891
  824MOL0     O11113   2.055   4.267   4.649  0.1152 -0.3813 -0.7457
  824MOL0     C11114   1.973   4.305   4.765  0.1435  0.3856  0.0312
  824MOL0     C11115   1.893   4.182   4.813 -0.3823  1.0773  0.0784
  824MOL0     C11116   1.805   4.214   4.933 -0.5111  0.5574  0.0945
  824MOL0     C11117   1.850   4.167   5.068  0.9433 -0.6435  0.0146
  824MOL0     C11118   1.732   4.154   5.165  0.4124 -0.2924 -0.1060
  824MOL0     C11119   1.672   4.292   5.188 -0.1558 -0.4861 -0.4945
  824MOL0     C11120   1.551   4.296   5.285 -0.4922 -0.3676  0.2292
  824MOL0     C11121   1.422   4.241   5.222 -0.2075 -0.7732  0.0716
  824MOL0     N11122   1.315   4.258   5.324  0.5009  0.4541  0.6717
  824MOL0     C11123   1.322   4.230   5.457 -0.0035  0.8066  0.7543
  824MOL0     C11124   1.202   4.250   5.506  0.1236  0.6350 -0.5875
  824MOL0     C11125   1.148   4.219   5.649  0.1437  0.2089 -0.1631
  824MOL0     C11126   1.000   4.171   5.657 -0.4813 -0.2919 -0.9345
  824MOL0     C11127   0.930   4.207   5.796  0.9221 -0.3134 -0.3174
  824MOL0     C11128   0.794   4.132   5.798 -0.8098  0.5350 -0.1717
  824MOL0     O11129   0.710   4.196   5.703  0.2944 -0.4881  0.4957
  824MOL0     C11130   0.591   4.146   5.670  0.2166  0.0948  0.0196
  824MOL0     C11131   0.502   4.233   5.605  0.3120 -0.5279 -0.0033
  824MOL0     C11132   0.377   4.190   5.567  0.3809 -0.9416  0.0507
  824MOL0     C11133   0.283   4.290   5.501 -0.0083 -0.1483 -0.0867
  824MOL0     C11134   0.345   4.057   5.581  0.5926  0.4887  0.1437
  824MOL0     C11135   0.222   4.007   5.529  1.6282  0.2449  0.4453
  824MOL0     O11136   0.104   4.085   5.546  0.4897 -0.2547  0.0792
  824MOL0     C11137   0.006   4.074   5.453  0.8543  0.3139 -0.5582
  824MOL0     C11138   0.024   4.064   5.314  0.4732  0.0173  0.7752
  824MOL0     C11139  -0.089   4.069   5.227 -0.4719 -0.2994  0.0643
  824MOL0     C11140  -0.218   4.078   5.277  0.2975  0.5698  0.6608
  824MOL0     O11141  -0.340   4.088   5.208 -0.1682  0.6517  0.6438
  824MOL0     C11142  -0.332   4.088   5.066 -0.1968 -0.1039  0.1790
  824MOL0     C11143  -0.459   4.109   5.001  0.0201 -0.3441  0.4036
  824MOL0     C11144  -0.570   4.006   5.050 -0.2862 -0.6894 -0.5579
  824MOL0     C11145  -0.700   4.033   4.967  1.2141  0.7337 -0.0626
  824MOL0     C11146  -0.812   3.926   4.987  0.4338  0.1304 -0.3343
  824MOL0     C11147  -0.937   3.952   4.902  0.6946 -0.3086  0.2694
  824MOL0     C11148  -1.048   3.854   4.924 -0.0654 -0.1789 -0.2807
  824MOL0     C11149  -1.182   3.906   4.880 -0.3552  0.3201 -0.1545
  824MOL0    Cl11150  -1.295   3.783   4.905 -0.5239  0.1538  0.2087
  824MOL0     C11151  -0.229   4.092   5.411  0.0561 -0.4485  0.1586
  824MOL0     C11152  -0.124   4.097   5.500  0.2962 -0.2459  0.1722
  824MOL0     O11153   0.228   3.901   5.464  0.0756  0.0405  0.5279
  824MOL0     C11154   0.435   3.966   5.631  0.1811 -0.1438 -0.1010
  824MOL0     C11155   0.554   4.014   5.685  0.3451  0.7943  0.4257
  824MOL0     N11156   1.124   4.306   5.405 -0.0316 -0.1494 -0.6938
  824MOL0     N11157   1.190   4.308   5.304 -0.0815 -0.7579  0.0574
  824MOL0     C11158   2.286   4.288   4.600  0.1053 -0.4217  0.5534
  824MOL0     C11159   2.402   4.363   4.595 -0.2000  0.6906  0.9818
  824MOL0     C11160   2.662   4.771   4.578 -0.1844  0.2710 -0.7608
  824MOL0     C11161   2.771   4.708   4.648 -0.1287 -0.9980  0.1755
  824MOL0     C11162   2.884   4.785   4.683  0.1711  0.6994 -0.2765
  824MOL0     C11163   2.900   4.917   4.647  0.2397 -0.8409  0.0724
  824MOL0     O11164   3.020   4.973   4.674  0.2544  0.2850 -0.3738
  824MOL0     C11165   3.052   5.106   4.643 -0.4196  0.2291 -0.9032
  824MOL0     C11166   3.179   5.141   4.718 -0.8759  0.5979 -0.1025
  824MOL0     C11167   3.157   5.136   4.870  0.4342  0.4428  0.7022
  824MOL0     C11168   3.043   5.231   4.917  0.1126 -0.2159  0.0985
  824MOL0     C11169   3.074   5.372   4.909 -0.1422  0.0813 -0.2981
  824MOL0     C11170   3.092   5.488   4.917  1.2116 -0.3644 -0.6013
  824MOL0     C11171   2.805   4.973   4.561  0.4659  0.5532  0.0225
  824MOL0     C11172   2.684   4.901   4.536  0.0119 -0.3501  1.1189
  824MOL0     H11173   2.265   4.667   4.582  0.8245 -0.6261 -3.7617
  824MOL0     H11174   2.051   4.537   4.615 -0.1924  1.2061  2.1935
  824MOL0     H11175   2.029   4.321   4.858 -3.7998 -4.8253  3.9959
  824MOL0     H11176   1.908   4.391   4.745 -0.0302 -0.0720 -1.4865
  824MOL0     H11177   1.838   4.140   4.729  3.8236 -1.9364 -1.5318
  824MOL0     H11178   1.956   4.103   4.855  0.5426  2.5723  1.6684
  824MOL0     H11179   1.781   4.321   4.936 -0.9513  0.4433  0.7728
  824MOL0     H11180   1.704   4.175   4.916 -0.0677  0.2186 -2.1190
  824MOL0     H11181   1.897   4.069   5.051 -2.6170 -2.4026 -0.6457
  824MOL0     H11182   1.928   4.234   5.106  1.6009  0.5355 -3.1452
  824MOL0     H11183   1.655   4.089   5.122 -0.8080  0.7764  0.3737
  824MOL0     H11184   1.771   4.107   5.255  0.0215  0.2379  0.3487
  824MOL0     H11185   1.742   4.365   5.230 -0.0615 -1.4738  1.1991
  824MOL0     H11186   1.643   4.338   5.094  0.4441 -0.2533 -0.5643
  824MOL0     H11187   1.583   4.251   5.379  0.5340 -1.1169 -0.4568
  824MOL0     H11188   1.540   4.404   5.287 -1.5659 -0.3421 -2.7030
  824MOL0     H11189   1.441   4.135   5.205  2.1993  0.1519 -4.9241
  824MOL0     H11190   1.395   4.278   5.123 -1.9911 -3.4285 -0.5432
  824MOL0     H11191   1.399   4.173   5.509 -1.0746 -3.4451 -1.7673
  824MOL0     H11192   1.206   4.148   5.708 -0.4797  1.2989  1.8657
  824MOL0     H11193   1.157   4.314   5.703  0.0630 -0.0222  0.2610
  824MOL0     H11194   0.990   4.063   5.644 -2.8474 -0.1333 -0.9576
  824MOL0     H11195   0.945   4.223   5.578  0.8055  0.2393 -1.5018
  824MOL0     H11196   0.905   4.313   5.805 -2.3944 -1.1182  2.0721
  824MOL0     H11197   0.988   4.170   5.881  0.3534 -0.8394 -0.1523
  824MOL0     H11198   0.758   4.130   5.902 -0.0118  1.6196  0.1517
  824MOL0     H11199   0.806   4.026   5.778 -0.9357  0.3096  0.8846
  824MOL0     H11200   0.546   4.327   5.574  2.9540 -0.7411  2.7034
  824MOL0     H11201   0.254   4.250   5.403  1.0286  0.5875 -0.7123
  824MOL0     H11202   0.197   4.312   5.565 -0.7348  0.1672 -1.1581
  824MOL0     H11203   0.338   4.381   5.478  1.1251  0.0558  3.0179
  824MOL0     H11204   0.124   4.045   5.277 -0.6710 -2.7667 -1.1566
  824MOL0     H11205  -0.072   4.071   5.120  2.1422 -0.8840  0.4054
  824MOL0     H11206  -0.266   4.172   5.043  1.9385 -2.1406 -1.6828
  824MOL0     H11207  -0.292   3.992   5.032 -2.6583 -1.0218 -0.3493
  824MOL0     H11208  -0.499   4.210   5.012  0.3097 -0.1185 -0.4930
  824MOL0     H11209  -0.445   4.111   4.892 -0.8464  3.0022  0.2651
  824MOL0     H11210  -0.593   4.021   5.156 -0.9489 -0.4151 -0.7330
  824MOL0     H11211  -0.553   3.901   5.024 -1.8589 -0.4939 -2.7165
  824MOL0     H11212  -0.738   4.132   4.991 -0.3943  0.1597 -0.0958
  824MOL0     H11213  -0.668   4.025   4.862 -1.3777  1.6973 -1.0110
  824MOL0     H11214  -0.835   3.936   5.093  0.2343 -0.7297 -0.2949
  824MOL0     H11215  -0.775   3.828   4.957 -3.6087 -2.1300  1.1927
  824MOL0     H11216  -0.978   4.052   4.922 -1.8811 -1.3205  0.4040
  824MOL0     H11217  -0.893   3.940   4.803  1.3380 -0.7750  0.6038
  824MOL0     H11218  -1.048   3.832   5.031  0.7774 -0.1779 -0.2770
  824MOL0     H11219  -1.007   3.762   4.882  0.4434  0.3364 -0.9208
  824MOL0     H11220  -1.165   3.932   4.775 -1.0753 -2.3117 -0.9993
  824MOL0     H11221  -1.205   3.997   4.937  3.5192  1.2806  0.1325
  824MOL0     H11222  -0.326   4.097   5.460 -0.0821  0.1852 -0.1702
  824MOL0     H11223  -0.136   4.117   5.606 -0.2437  0.1963  0.0299
  824MOL0     H11224   0.421   3.859   5.641  0.3353 -0.0124  2.1884
  824MOL0     H11225   0.617   3.935   5.725  4.9401  2.3841 -2.6858
  824MOL0     H11226   2.298   4.180   4.599 -2.5462 -0.8079  2.1236
  824MOL0     H11227   2.503   4.325   4.584 -0.8371 -0.4121 -2.4283
  824MOL0     H11228   2.781   4.605   4.679 -1.5088 -1.9088 -2.1379
  824MOL0     H11229   2.974   4.747   4.730  0.9290  1.9479 -0.6847
  824MOL0     H11230   3.068   5.109   4.535  1.4171 -0.7899 -0.7022
  824MOL0     H11231   2.969   5.174   4.666  0.3232  0.2359  2.0861
  824MOL0     H11232   3.221   5.238   4.691  2.0713 -0.5215  0.1073
  824MOL0     H11233   3.258   5.070   4.690 -1.1133 -0.6422  2.1283
  824MOL0     H11234   3.247   5.154   4.929  0.7346 -1.1346  0.7850
  824MOL0     H11235   3.132   5.031   4.890 -3.1533  1.1839  0.7937
  824MOL0     H11236   3.028   5.200   5.021 -1.1054 -0.3677 -0.1081
  824MOL0     H11237   2.948   5.219   4.864 -0.1709  2.1183 -0.0330
  824MOL0     H11238   3.078   5.593   4.932  1.7505 -0.4049  0.2092
  824MOL0     H11239   2.801   5.078   4.531 -2.4991  0.4711 -0.1978
  824MOL0     H11240   2.604   4.953   4.485 -1.9702 -0.2748  4.0276
  825MOL0     O11241   8.617   0.713   4.156 -0.0678 -0.6316 -0.3398
  825MOL0     C11242   8.555   0.717   4.261  0.3256 -0.0062 -0.5231
  825MOL0     O11243   8.426   0.758   4.278 -0.7032 -0.0890 -0.2866
  825MOL0     C11244   8.363   0.810   4.170  0.1254  0.9872 -0.2011
  825MOL0     C11245   8.282   0.726   4.088  0.0338 -0.3358  0.3052
  825MOL0     C11246   8.222   0.782   3.974  0.9774 -0.9925 -0.4021
  825MOL0     C11247   8.243   0.919   3.937 -0.2692 -0.0777 -0.2463
  825MOL0     O11248   8.222   0.973   3.816 -0.1434 -0.2005  0.0787
  825MOL0     C11249   8.106   0.933   3.741  0.3756  1.0186  0.4611
  825MOL0     C11250   8.068   1.036   3.628  0.1998 -0.3255 -0.3506
  825MOL0     C11251   8.007   1.156   3.691  0.0392 -0.4626 -0.8139
  825MOL0     C11252   7.970   1.258   3.577  0.3919 -0.0288 -0.0774
  825MOL0     C11253   7.935   1.390   3.642 -0.1213 -0.3087 -0.0120
  825MOL0     C11254   7.795   1.400   3.718  0.2605 -0.0897 -1.0502
  825MOL0     C11255   7.790   1.541   3.780 -0.7514  0.8196  0.0953
  825MOL0     C11256   7.656   1.553   3.848  0.7502  0.6341 -0.4281
  825MOL0     N11257   7.649   1.470   3.973  0.5540  0.1024  0.3867
  825MOL0     C11258   7.594   1.347   3.983 -0.1627 -0.1865 -0.4474
  825MOL0     C11259   7.583   1.329   4.120  0.3292 -0.2370  0.3419
  825MOL0     C11260   7.520   1.214   4.192  0.0087  0.0499  0.6638
  825MOL0     C11261   7.394   1.259   4.267  0.3153  0.7344  0.2491
  825MOL0     C11262   7.290   1.347   4.200 -0.1955  0.3936 -0.9826
  825MOL0     C11263   7.235   1.290   4.072 -0.3798  0.1115  0.0645
  825MOL0     O11264   7.165   1.385   3.997  0.1472 -0.1871 -0.3726
  825MOL0     C11265   7.031   1.354   3.970 -0.2296 -0.0933  0.1755
  825MOL0     C11266   7.002   1.243   3.890  0.1051 -0.0736 -0.1341
  825MOL0     C11267   6.871   1.220   3.847 -0.3653 -0.3654 -1.0984
  825MOL0     C11268   6.851   1.109   3.747 -0.6654  0.1802 -0.2938
  825MOL0     C11269   6.761   1.303   3.902 -0.2682 -0.3817  0.8393
  825MOL0     C11270   6.618   1.272   3.867 -0.3352 -0.5678 -1.0662
  825MOL0     O11271   6.550   1.380   3.826 -0.2692 -0.8090 -0.1294
  825MOL0     C11272   6.415   1.377   3.822 -0.5149 -0.3018  0.0044
  825MOL0     C11273   6.329   1.294   3.895  0.2657  0.7472  0.5052
  825MOL0     C11274   6.188   1.320   3.879  0.3910  0.1141 -0.3537
  825MOL0     C11275   6.141   1.426   3.799  0.0842  0.3811  0.3145
  825MOL0     O11276   6.010   1.461   3.782 -0.1907  0.5476 -0.3649
  825MOL0     C11277   5.912   1.413   3.887 -0.1847  0.3088  0.2767
  825MOL0     C11278   5.830   1.294   3.837 -0.3864 -0.7160  0.5467
  825MOL0     C11279   5.729   1.253   3.947  0.4052  0.0581 -0.6213
  825MOL0     C11280   5.619   1.350   3.990  0.4209  0.6406 -0.2410
  825MOL0     C11281   5.530   1.291   4.095 -0.1693 -0.1037 -0.0143
  825MOL0     C11282   5.428   1.396   4.135 -0.8874 -0.2192  0.0075
  825MOL0     C11283   5.351   1.336   4.258  0.7635 -0.1958  0.4825
  825MOL0     C11284   5.248   1.440   4.298 -0.0172  0.0288 -0.2235
  825MOL0    Cl11285   5.134   1.490   4.163  0.0447  0.0972 -0.4471
  825MOL0     C11286   6.225   1.508   3.737  0.0250 -0.0258 -0.3002
  825MOL0     C11287   6.357   1.480   3.740  0.4252 -0.1662 -0.0514
  825MOL0     O11288   6.583   1.157   3.846 -0.4226  0.6552  0.7251
  825MOL0     C11289   6.793   1.418   3.978  0.0097  1.0916  0.1366
  825MOL0     C11290   6.929   1.444   4.011 -0.1997  0.5106 -0.7799
  825MOL0     N11291   7.631   1.444   4.179 -0.0007 -0.5767  0.1640
  825MOL0     N11292   7.664   1.527   4.085  0.0723 -0.4929 -0.8551
  825MOL0     C11293   8.330   0.994   4.017 -0.8025  0.3828  0.1322
  825MOL0     C11294   8.399   0.937   4.126  0.0689 -0.9396  0.0022
  825MOL0     C11295   8.625   0.681   4.385 -0.0241 -0.5362 -0.0677
  825MOL0     C11296   8.752   0.618   4.371  0.9361 -0.3354  0.4061
  825MOL0     C11297   8.819   0.567   4.481 -0.5089  0.8464  0.3999
  825MOL0     C11298   8.771   0.589   4.612  0.2818 -0.5299  0.0746
  825MOL0     O11299   8.837   0.559   4.729 -0.1732 -0.0524  1.1054
  825MOL0     C11300   8.975   0.511   4.723  0.4485  0.0728 -0.7867
  825MOL0     C11301   9.028   0.542   4.857 -0.3481  0.5377 -0.1970
  825MOL0     C11302   9.173   0.504   4.873 -0.8053  0.5833  0.4084
  825MOL0     C11303   9.199   0.355   4.878 -0.9082  1.1510 -0.3827
  825MOL0     C11304   9.336   0.334   4.932 -0.3681 -0.3012  0.4714
  825MOL0     C11305   9.445   0.309   4.980  0.4484 -0.1899 -0.6158
  825MOL0     C11306   8.633   0.631   4.622 -0.1705 -0.3390 -0.3771
  825MOL0     C11307   8.563   0.670   4.509 -0.6270  0.5499  0.2608
  825MOL0     H11308   8.261   0.626   4.123  1.0722 -0.9456 -0.7845
  825MOL0     H11309   8.173   0.715   3.904 -0.6219 -0.4273  0.1341
  825MOL0     H11310   8.126   0.834   3.699  0.1261  0.1932  2.2051
  825MOL0     H11311   8.020   0.909   3.804 -1.6390 -0.8759 -2.7316
  825MOL0     H11312   8.167   1.053   3.583  0.4224  0.4412  0.4241
  825MOL0     H11313   7.990   0.999   3.561 -1.7517 -1.8755  2.5549
  825MOL0     H11314   7.915   1.123   3.740  0.5819  0.4150  0.8808
  825MOL0     H11315   8.068   1.203   3.769 -0.7888  0.7068 -0.8441
  825MOL0     H11316   8.053   1.275   3.508  2.0043 -0.3566  1.6766
  825MOL0     H11317   7.886   1.236   3.511 -1.0368  2.1556  0.8912
  825MOL0     H11318   8.013   1.428   3.708  1.1790 -1.6224 -0.7475
  825MOL0     H11319   7.934   1.470   3.568  3.9591  0.3836  0.4654
  825MOL0     H11320   7.707   1.381   3.655  0.1569  0.3640 -1.0489
  825MOL0     H11321   7.792   1.325   3.797 -0.0696 -0.2718 -1.2359
  825MOL0     H11322   7.873   1.548   3.851  0.0114 -1.5440 -0.4852
  825MOL0     H11323   7.809   1.618   3.705 -0.7063 -1.4423 -2.3501
  825MOL0     H11324   7.577   1.532   3.776  1.4909  1.1951 -1.4210
  825MOL0     H11325   7.629   1.656   3.876 -3.9256  0.2888 -2.6722
  825MOL0     H11326   7.573   1.275   3.904 -0.6390 -0.7518  0.1780
  825MOL0     H11327   7.505   1.125   4.130 -0.5783  0.2513  0.5081
  825MOL0     H11328   7.595   1.179   4.263  1.4303  1.1333 -0.2605
  825MOL0     H11329   7.422   1.300   4.365 -0.1889  2.7662 -0.3921
  825MOL0     H11330   7.339   1.171   4.300 -0.6968  0.9699 -0.7368
  825MOL0     H11331   7.347   1.439   4.185  0.3088  0.4724  1.1385
  825MOL0     H11332   7.215   1.356   4.278  1.4045 -0.9475  0.8219
  825MOL0     H11333   7.168   1.206   4.093 -2.3416  1.0898 -1.9276
  825MOL0     H11334   7.311   1.269   3.996  0.5697 -2.3931  1.5693
  825MOL0     H11335   7.087   1.189   3.850  1.1819  2.8115 -2.0546
  825MOL0     H11336   6.924   1.110   3.666  0.5028 -1.1607  0.6849
  825MOL0     H11337   6.859   1.009   3.791  1.3620 -0.0616 -1.0768
  825MOL0     H11338   6.756   1.110   3.694 -1.0127 -0.8254  0.2841
  825MOL0     H11339   6.361   1.226   3.973 -2.1433 -2.2647 -0.9538
  825MOL0     H11340   6.122   1.253   3.933  0.3684 -0.3699 -0.9796
  825MOL0     H11341   5.955   1.390   3.985  1.5986  0.3848 -0.4432
  825MOL0     H11342   5.849   1.500   3.906  0.0385  0.4146  0.5447
  825MOL0     H11343   5.772   1.309   3.745 -1.5300 -0.0620  1.3424
  825MOL0     H11344   5.895   1.210   3.814 -0.1192 -0.6582  1.0936
  825MOL0     H11345   5.788   1.222   4.034 -1.8882  2.1298  1.8284
  825MOL0     H11346   5.682   1.159   3.917 -1.9512  1.2242 -0.7978
  825MOL0     H11347   5.661   1.441   4.034 -1.6490  1.3373  0.4089
  825MOL0     H11348   5.565   1.370   3.897  0.1487 -1.2583 -0.5242
  825MOL0     H11349   5.585   1.253   4.181 -0.5852 -2.1478 -0.5936
  825MOL0     H11350   5.474   1.208   4.049 -0.1459 -0.2679  0.2495
  825MOL0     H11351   5.476   1.489   4.168  3.6579 -1.4972 -2.1423
  825MOL0     H11352   5.362   1.423   4.051 -0.4572  1.4161  0.1530
  825MOL0     H11353   5.413   1.316   4.346  0.3300  0.0256  0.8403
  825MOL0     H11354   5.296   1.248   4.225 -1.2738  0.4858  1.8894
  825MOL0     H11355   5.302   1.530   4.328  0.0069  0.4950 -1.5743
  825MOL0     H11356   5.197   1.413   4.390  1.0399  2.8048  1.3003
  825MOL0     H11357   6.184   1.593   3.682 -2.1590 -1.8382 -1.6540
  825MOL0     H11358   6.424   1.548   3.688  0.1197  1.3142  1.3902
  825MOL0     H11359   6.711   1.481   4.012 -1.5337 -0.2209 -1.0327
  825MOL0     H11360   6.951   1.527   4.078 -0.0893 -0.5146  0.4853
  825MOL0     H11361   8.352   1.091   3.974  1.7904 -0.9375 -1.7351
  825MOL0     H11362   8.466   1.013   4.165  0.9624  1.8422 -5.9247
  825MOL0     H11363   8.792   0.609   4.271 -0.1870  1.7329 -0.2835
  825MOL0     H11364   8.917   0.525   4.460  0.5998  2.9631  1.1360
  825MOL0     H11365   8.967   0.407   4.692  0.1974  0.4901 -2.2532
  825MOL0     H11366   9.037   0.562   4.648  1.6479 -0.9665 -0.5299
  825MOL0     H11367   8.972   0.475   4.923 -1.6261  4.1468  2.7132
  825MOL0     H11368   9.003   0.640   4.899 -1.8537  0.1341 -0.0972
  825MOL0     H11369   9.203   0.556   4.964 -0.4146 -0.3841  0.8521
  825MOL0     H11370   9.232   0.549   4.793  0.7773  1.8541  2.2111
  825MOL0     H11371   9.191   0.307   4.781 -0.6159 -0.7826  0.5027
  825MOL0     H11372   9.122   0.313   4.944  1.9329  1.4477  3.4764
  825MOL0     H11373   9.534   0.283   5.034 -0.1276 -2.1329 -0.5247
  825MOL0     H11374   8.588   0.649   4.719  0.6522  2.0959 -0.3590
  825MOL0     H11375   8.459   0.699   4.514 -0.7050  0.3831 -0.3609
  826MOL0     O11376  10.804   0.611  10.167 -0.2498 -0.4946  0.2189
  826MOL0     C11377  10.804   0.493  10.137 -1.1110  0.2654 -0.0313
  826MOL0     O11378  10.696   0.412  10.110  0.7856 -0.8588 -0.3374
  826MOL0     C11379  10.585   0.480  10.079  0.6948  0.1888 -0.0845
  826MOL0     C11380  10.568   0.540   9.947 -0.4253  0.6948 -0.6583
  826MOL0     C11381  10.450   0.606   9.915  0.0602  0.5325 -1.0363
  826MOL0     C11382  10.338   0.605   9.997  0.2968  0.2976 -0.3031
  826MOL0     O11383  10.215   0.663   9.961  0.0058  0.1165  0.7154
  826MOL0     C11384  10.089   0.629  10.014  0.2695 -0.0899 -0.1399
  826MOL0     C11385   9.999   0.718   9.933  0.3836  0.6043 -0.1124
  826MOL0     C11386   9.979   0.659   9.793 -0.1713 -0.6658 -0.2042
  826MOL0     C11387   9.846   0.587   9.774  0.3837 -0.2478 -0.4072
  826MOL0     C11388   9.843   0.551   9.626 -0.1375 -0.0788 -0.7898
  826MOL0     C11389   9.708   0.528   9.572 -0.3951 -0.3161  0.5918
  826MOL0     C11390   9.624   0.430   9.653 -0.6039 -0.5203 -0.1323
  826MOL0     C11391   9.479   0.413   9.602  0.5595  0.5497  0.4688
  826MOL0     N11392   9.392   0.527   9.624  0.7096  0.1333  0.5609
  826MOL0     C11393   9.298   0.523   9.724  0.1319  0.4260  0.6989
  826MOL0     C11394   9.243   0.641   9.738  0.6755 -0.5779 -0.2654
  826MOL0     C11395   9.155   0.691   9.850  0.7379  0.6683 -0.3437
  826MOL0     C11396   9.016   0.639   9.850 -0.4009 -0.0491 -0.1816
  826MOL0     C11397   8.932   0.684   9.976  0.1349  0.2262  0.0504
  826MOL0     C11398   8.799   0.616   9.983 -0.5755  0.2335 -0.1037
  826MOL0     O11399   8.713   0.672  10.078  0.2292  0.3770 -0.2790
  826MOL0     C11400   8.591   0.610  10.095  0.1404  0.6541  0.1204
  826MOL0     C11401   8.524   0.535   9.999 -0.3866  0.2174  0.3713
  826MOL0     C11402   8.401   0.474  10.018 -0.5403  0.7451 -1.6036
  826MOL0     C11403   8.338   0.405   9.894 -0.5794 -0.4727  0.5049
  826MOL0     C11404   8.339   0.486  10.136 -0.0431  0.7353 -0.7236
  826MOL0     C11405   8.225   0.414  10.174 -0.0636  0.3081 -0.8706
  826MOL0     O11406   8.171   0.450  10.296 -0.0348  0.3506  0.5458
  826MOL0     C11407   8.044   0.417  10.324  0.4445  0.1832  0.5118
  826MOL0     C11408   7.936   0.405  10.232  0.4492 -0.3430  0.2331
  826MOL0     C11409   7.810   0.370  10.276 -0.4767 -0.5298 -0.2979
  826MOL0     C11410   7.781   0.343  10.411  0.8480 -0.2998  0.4554
  826MOL0     O11411   7.662   0.297  10.461  0.4252  0.2833  0.7066
  826MOL0     C11412   7.556   0.273  10.373  0.8258 -0.2704  0.4867
  826MOL0     C11413   7.454   0.190  10.444 -0.1790  0.1563 -0.0740
  826MOL0     C11414   7.497   0.044  10.456 -0.5004  1.0255 -0.0059
  826MOL0     C11415   7.415  -0.034  10.559  0.1255 -0.0565  0.7667
  826MOL0     C11416   7.446  -0.178  10.551 -0.4229  0.3093 -0.1036
  826MOL0     C11417   7.404  -0.263  10.670  0.4829 -0.9696 -0.3759
  826MOL0     C11418   7.460  -0.401  10.669 -0.3698  0.2233 -0.1862
  826MOL0     C11419   7.409  -0.474  10.793  0.2648 -0.3113 -0.2283
  826MOL0    Cl11420   7.443  -0.647  10.794 -0.6141 -0.2985 -0.4073
  826MOL0     C11421   7.889   0.359  10.507  1.1149  0.4267 -0.1933
  826MOL0     C11422   8.010   0.385  10.464 -0.6243  0.5901  1.3373
  826MOL0     O11423   8.185   0.322  10.105  0.5337  0.6262  0.5134
  826MOL0     C11424   8.395   0.564  10.239 -0.6552  0.2717 -0.0569
  826MOL0     C11425   8.523   0.621  10.213 -0.1699  0.3110 -0.1136
  826MOL0     N11426   9.294   0.721   9.630  0.4595  0.2493  0.4329
  826MOL0     N11427   9.385   0.649   9.569  0.6522 -0.5941 -0.0517
  826MOL0     C11428  10.348   0.543  10.118 -0.6349  0.3546 -0.5484
  826MOL0     C11429  10.468   0.475  10.157 -0.1596 -0.2534  0.4319
  826MOL0     C11430  10.927   0.417  10.123 -0.6640 -0.2065  0.1353
  826MOL0     C11431  10.926   0.284  10.092  0.1584 -0.0926  0.0895
  826MOL0     C11432  11.038   0.206  10.088 -0.0085 -0.3997 -0.3927
  826MOL0     C11433  11.164   0.259  10.109  1.1823  1.3868 -0.7115
  826MOL0     O11434  11.279   0.193  10.110 -0.9426  0.1166  0.3663
  826MOL0     C11435  11.275   0.046  10.112  0.2840  0.5587  0.1494
  826MOL0     C11436  11.414  -0.014  10.091  0.6994 -0.6498  0.3382
  826MOL0     C11437  11.425  -0.159  10.064  0.2535  0.0684 -0.8212
  826MOL0     C11438  11.566  -0.210  10.030 -0.6050  0.4818 -0.3250
  826MOL0     C11439  11.657  -0.196  10.145 -0.3417 -0.5904 -0.3078
  826MOL0     C11440  11.734  -0.184  10.238  0.3883  0.2541  0.2797
  826MOL0     C11441  11.168   0.395  10.140 -0.4695 -0.2989  0.0923
  826MOL0     C11442  11.055   0.477  10.145 -0.2281  0.6665  0.1799
  826MOL0     H11443  10.658   0.547   9.885 -0.0318 -0.8547 -0.2913
  826MOL0     H11444  10.420   0.651   9.822 -3.1184  0.6130 -0.1109
  826MOL0     H11445  10.069   0.523   9.996 -0.8470  0.1018 -0.1179
  826MOL0     H11446  10.074   0.665  10.116  0.4167  4.7757 -1.5510
  826MOL0     H11447   9.903   0.726   9.985  1.5628 -2.5599  2.9548
  826MOL0     H11448  10.050   0.814   9.921  0.8600  0.6972  2.2035
  826MOL0     H11449   9.996   0.745   9.727  0.9160  0.5925  1.6228
  826MOL0     H11450  10.058   0.584   9.779 -0.8629 -1.3375 -0.5702
  826MOL0     H11451   9.849   0.495   9.832 -0.7909 -2.0920 -3.0733
  826MOL0     H11452   9.769   0.653   9.814  1.6584  0.6740  0.6500
  826MOL0     H11453   9.898   0.623   9.566 -0.8389  0.1309 -1.1966
  826MOL0     H11454   9.903   0.460   9.616 -0.2515 -0.2059 -0.3504
  826MOL0     H11455   9.654   0.620   9.548 -2.1025 -1.6271 -0.9157
  826MOL0     H11456   9.722   0.482   9.474 -1.7312 -0.4102  0.4304
  826MOL0     H11457   9.687   0.341   9.655  1.4527  0.4944 -5.1553
  826MOL0     H11458   9.615   0.467   9.756 -2.4432 -1.2728  0.0168
  826MOL0     H11459   9.430   0.336   9.662 -2.8551  1.8176 -0.4751
  826MOL0     H11460   9.476   0.384   9.496  0.7607  0.9594  0.3480
  826MOL0     H11461   9.288   0.445   9.799  2.0000 -0.8457 -0.2760
  826MOL0     H11462   9.200   0.669   9.948  1.3414  1.0961 -0.5140
  826MOL0     H11463   9.165   0.800   9.843  0.6844  0.6294 -1.1517
  826MOL0     H11464   9.018   0.530   9.856  2.1764 -0.1181 -0.8501
  826MOL0     H11465   8.966   0.666   9.756  1.0347 -0.2778 -1.0464
  826MOL0     H11466   8.923   0.793   9.985 -0.3338  0.2306 -0.4258
  826MOL0     H11467   8.987   0.653  10.065  2.5483 -2.4024 -2.1801
  826MOL0     H11468   8.798   0.508   9.992 -2.0251  0.1981 -0.4140
  826MOL0     H11469   8.758   0.629   9.882  1.4153  0.1734 -0.9870
  826MOL0     H11470   8.568   0.526   9.901 -0.5492 -1.3833  0.4202
  826MOL0     H11471   8.343   0.296   9.908 -2.1183 -0.3433  2.3741
  826MOL0     H11472   8.240   0.452   9.880  0.4857  2.5132  2.3795
  826MOL0     H11473   8.396   0.415   9.802 -0.0933  0.1769  0.8759
  826MOL0     H11474   7.958   0.438  10.131 -0.2756 -0.5008  0.0207
  826MOL0     H11475   7.735   0.352  10.199 -2.0771 -2.0716  1.5258
  826MOL0     H11476   7.514   0.370  10.344 -1.9140 -1.5828 -0.2411
  826MOL0     H11477   7.582   0.226  10.278 -1.1573  1.7139 -1.1698
  826MOL0     H11478   7.440   0.234  10.543 -2.0384 -1.5503  0.4828
  826MOL0     H11479   7.362   0.188  10.387  0.3010 -0.9999 -0.8370
  826MOL0     H11480   7.600   0.041  10.492  0.1878 -0.6324 -1.9701
  826MOL0     H11481   7.487   0.002  10.356 -0.0145 -2.1465  1.1639
  826MOL0     H11482   7.430  -0.004  10.663 -1.7830  1.1710  0.7457
  826MOL0     H11483   7.310  -0.016  10.533  0.1860 -0.5575  0.1498
  826MOL0     H11484   7.555  -0.185  10.540 -0.5387 -2.3967 -0.2882
  826MOL0     H11485   7.396  -0.233  10.471  0.5713 -0.8355  0.0201
  826MOL0     H11486   7.426  -0.208  10.762 -2.9778 -1.8193  1.1313
  826MOL0     H11487   7.295  -0.269  10.676  0.3421 -0.7386 -2.2107
  826MOL0     H11488   7.569  -0.398  10.668 -0.3483 -0.0198  0.9038
  826MOL0     H11489   7.425  -0.451  10.578 -1.5322  1.7615 -0.6202
  826MOL0     H11490   7.300  -0.468  10.805  0.2257 -2.5961  1.1249
  826MOL0     H11491   7.444  -0.438  10.890 -0.8047  0.1881 -0.0142
  826MOL0     H11492   7.870   0.358  10.614  1.4682  0.8668 -0.1219
  826MOL0     H11493   8.084   0.383  10.544  1.9205  0.0895 -0.8621
  826MOL0     H11494   8.362   0.586  10.340 -0.5395  1.6998 -0.3224
  826MOL0     H11495   8.575   0.679  10.288  1.6798 -0.5917 -0.6295
  826MOL0     H11496  10.275   0.555  10.197  0.8981  0.4054  0.9070
  826MOL0     H11497  10.482   0.426  10.253  2.2014  1.5161  1.0683
  826MOL0     H11498  10.835   0.232  10.064  0.5726 -0.2844 -0.9392
  826MOL0     H11499  11.020   0.101  10.065  1.2445 -0.2047 -2.4825
  826MOL0     H11500  11.233   0.010  10.207  0.6517 -1.2406 -0.3380
  826MOL0     H11501  11.201   0.012  10.039 -0.3007 -0.1941  1.0677
  826MOL0     H11502  11.458   0.017  10.187  0.8155 -2.1475  0.7894
  826MOL0     H11503  11.468   0.040  10.013 -0.2328  0.6830  0.5828
  826MOL0     H11504  11.363  -0.191   9.979  2.0216 -0.6145 -1.9156
  826MOL0     H11505  11.400  -0.208  10.159  0.7940 -0.0605 -0.7387
  826MOL0     H11506  11.598  -0.146   9.947  0.2291  0.9368  0.3255
  826MOL0     H11507  11.562  -0.315  10.001 -1.4591 -0.0619  1.6158
  826MOL0     H11508  11.800  -0.176  10.322 -0.7042 -1.5089  1.3883
  826MOL0     H11509  11.264   0.443  10.156 -0.4497 -0.0192 -0.8421
  826MOL0     H11510  11.079   0.581  10.170 -0.6495  0.9355 -0.5314
  827MOL0     O11511   9.027   3.390   8.270  0.2573  0.2263 -0.6692
  827MOL0     C11512   9.074   3.461   8.355 -0.1104 -0.1723  0.8368
  827MOL0     O11513   9.021   3.491   8.477 -0.2522 -0.1102 -0.5442
  827MOL0     C11514   8.885   3.468   8.501 -0.5209 -0.0813 -0.0030
  827MOL0     C11515   8.842   3.404   8.617  0.8407  0.4569  0.5123
  827MOL0     C11516   8.705   3.380   8.637 -0.6547  0.8644 -0.1020
  827MOL0     C11517   8.612   3.383   8.536 -0.8991  0.1855  0.6954
  827MOL0     O11518   8.490   3.322   8.535  0.7101 -0.0362  0.2604
  827MOL0     C11519   8.405   3.326   8.652  0.1677 -0.4275 -0.0332
  827MOL0     C11520   8.350   3.186   8.692  0.5091  0.7776  0.3934
  827MOL0     C11521   8.244   3.194   8.803 -0.6804  0.8006  0.2915
  827MOL0     C11522   8.191   3.054   8.832 -0.8787 -0.7198 -0.6463
  827MOL0     C11523   8.061   3.059   8.918  0.4008 -0.4174  0.3748
  827MOL0     C11524   8.093   3.099   9.069  0.5839  0.2050  0.0199
  827MOL0     C11525   7.970   3.110   9.164  0.5235  0.3699  0.1461
  827MOL0     C11526   7.873   2.984   9.180 -0.0156 -0.1723  0.5581
  827MOL0     N11527   7.748   3.016   9.254  0.5499 -0.3697  0.1779
  827MOL0     C11528   7.702   2.969   9.379 -0.1465 -1.1762 -0.2749
  827MOL0     C11529   7.585   3.027   9.399  0.1669  0.0388  0.1321
  827MOL0     C11530   7.508   3.009   9.527  0.0212 -0.8330  0.0820
  827MOL0     C11531   7.359   2.991   9.494  0.5495 -0.1452 -0.4912
  827MOL0     C11532   7.267   2.994   9.618  0.7258  0.0788 -0.0731
  827MOL0     C11533   7.114   2.964   9.578 -0.8652  0.5634 -0.3822
  827MOL0     O11534   7.024   2.934   9.692  0.0904  0.3701 -0.2267
  827MOL0     C11535   6.912   2.866   9.678  0.4651 -0.8189  0.1750
  827MOL0     C11536   6.866   2.808   9.561  0.9165  0.1122  0.6745
  827MOL0     C11537   6.743   2.746   9.544 -0.6030  0.5347 -0.0632
  827MOL0     C11538   6.701   2.674   9.425 -0.5755 -0.0118  1.0108
  827MOL0     C11539   6.657   2.740   9.664 -0.0927  0.0617  0.8898
  827MOL0     C11540   6.527   2.685   9.656 -0.3770  0.1313 -0.1444
  827MOL0     O11541   6.516   2.572   9.720 -0.0627 -0.2401 -0.1369
  827MOL0     C11542   6.399   2.497   9.719 -1.0194 -0.5219  0.0802
  827MOL0     C11543   6.303   2.494   9.618  0.5629  0.5718  0.3035
  827MOL0     C11544   6.192   2.403   9.629  0.3285  0.4124  0.0909
  827MOL0     C11545   6.184   2.308   9.731  0.5026  0.4328 -0.2347
  827MOL0     O11546   6.094   2.207   9.738  0.7669  0.0051 -0.0143
  827MOL0     C11547   6.000   2.180   9.625  0.5972 -1.0576 -0.0214
  827MOL0     C11548   5.893   2.083   9.682  0.1619  0.2455  0.3893
  827MOL0     C11549   5.777   2.068   9.578  0.9204 -0.2165  0.5397
  827MOL0     C11550   5.660   1.993   9.645 -1.0995  0.0627  0.1207
  827MOL0     C11551   5.530   1.999   9.570  0.3663 -0.0622 -0.0996
  827MOL0     C11552   5.535   1.947   9.428 -0.2403 -0.1337  0.2470
  827MOL0     C11553   5.396   1.950   9.360  0.8109  0.0927  0.0666
  827MOL0     C11554   5.393   1.874   9.232 -0.1660 -0.4432  0.5863
  827MOL0    Cl11555   5.230   1.844   9.167  0.0038 -0.0789  0.6887
  827MOL0     C11556   6.282   2.302   9.833 -0.5318 -0.2487 -0.2235
  827MOL0     C11557   6.386   2.403   9.824 -0.3140 -0.5398  0.3638
  827MOL0     O11558   6.438   2.739   9.594  0.5587  0.0035 -0.4188
  827MOL0     C11559   6.705   2.796   9.781  0.9402 -0.3813 -0.2443
  827MOL0     C11560   6.826   2.866   9.789 -0.2884 -0.8561 -0.4375
  827MOL0     N11561   7.556   3.113   9.297  0.3562 -0.3817 -0.0984
  827MOL0     N11562   7.664   3.118   9.214  0.3041 -0.9329  0.5575
  827MOL0     C11563   8.657   3.436   8.414  0.2528  0.0509 -0.3404
  827MOL0     C11564   8.789   3.481   8.396 -0.0445 -0.3514  0.2170
  827MOL0     C11565   9.206   3.519   8.311  0.4574 -0.0275  1.5097
  827MOL0     C11566   9.277   3.608   8.392  0.6784  0.1735  0.5192
  827MOL0     C11567   9.411   3.642   8.366  0.2269 -0.0151  0.1234
  827MOL0     C11568   9.476   3.578   8.258  0.0869  0.1368  0.2879
  827MOL0     O11569   9.616   3.599   8.234 -0.4668 -0.5044 -0.3067
  827MOL0     C11570   9.651   3.696   8.134 -0.5809  0.2367  0.6112
  827MOL0     C11571   9.789   3.647   8.077 -0.0763  0.0040 -0.0145
  827MOL0     C11572   9.905   3.660   8.176  0.4450  0.0621 -1.0115
  827MOL0     C11573  10.039   3.657   8.105  0.0194 -0.6421  0.2253
  827MOL0     C11574  10.063   3.532   8.043  0.5028  1.6019 -0.3667
  827MOL0     C11575  10.096   3.423   8.001  0.8874 -0.6615  0.2435
  827MOL0     C11576   9.410   3.500   8.169  0.6027  0.0736 -0.5145
  827MOL0     C11577   9.275   3.465   8.196 -0.2827  0.5735  0.1638
  827MOL0     H11578   8.917   3.377   8.690  1.8904  0.7268 -0.4489
  827MOL0     H11579   8.676   3.327   8.728  1.1472 -0.0813 -0.0402
  827MOL0     H11580   8.460   3.365   8.739  0.4393 -2.1273  0.5893
  827MOL0     H11581   8.330   3.404   8.637  2.0916  2.2303  2.7542
  827MOL0     H11582   8.310   3.126   8.610  2.1253 -1.2157  0.9853
  827MOL0     H11583   8.440   3.132   8.720 -0.2670 -1.0700 -0.4857
  827MOL0     H11584   8.280   3.248   8.891  1.5504 -1.1410  0.6351
  827MOL0     H11585   8.163   3.257   8.765 -0.1034  1.9039  0.8505
  827MOL0     H11586   8.168   2.999   8.741  1.0904  1.9971 -2.9371
  827MOL0     H11587   8.268   2.991   8.879  0.7243 -0.0663 -2.3021
  827MOL0     H11588   7.994   3.133   8.874  0.6420 -1.1024 -1.1849
  827MOL0     H11589   8.019   2.958   8.915  1.4965 -0.8733 -0.2437
  827MOL0     H11590   8.151   3.012   9.102  1.9859  0.1477 -2.3750
  827MOL0     H11591   8.151   3.191   9.080  0.7546 -0.1959  3.5639
  827MOL0     H11592   8.005   3.143   9.262  1.2535 -1.2145  0.4400
  827MOL0     H11593   7.910   3.193   9.125  3.2042  1.5589 -1.7751
  827MOL0     H11594   7.929   2.904   9.231 -0.9322 -1.3579 -0.2418
  827MOL0     H11595   7.854   2.944   9.080  2.0527  2.9579 -1.2504
  827MOL0     H11596   7.761   2.894   9.429  1.5649 -0.0211 -0.4901
  827MOL0     H11597   7.550   2.925   9.583  0.7286  0.4413  1.5782
  827MOL0     H11598   7.509   3.105   9.580 -0.5833 -0.1624 -1.0793
  827MOL0     H11599   7.353   2.891   9.449  3.1295 -1.7515  2.3488
  827MOL0     H11600   7.327   3.069   9.425 -0.3104  0.9930  1.1211
  827MOL0     H11601   7.272   3.097   9.656  0.4840 -0.1226  0.5038
  827MOL0     H11602   7.296   2.918   9.690  1.0142 -1.1664 -1.4439
  827MOL0     H11603   7.122   2.875   9.514  0.3845  1.5093 -1.6128
  827MOL0     H11604   7.073   3.044   9.516  1.0086  2.2570  0.4483
  827MOL0     H11605   6.918   2.821   9.467  1.1445  2.0059  1.0234
  827MOL0     H11606   6.762   2.666   9.334 -1.3503  0.9489  0.3857
  827MOL0     H11607   6.676   2.569   9.446 -1.2203 -0.2086 -0.5667
  827MOL0     H11608   6.614   2.723   9.381 -2.0895 -3.4495 -0.2379
  827MOL0     H11609   6.298   2.557   9.529 -2.9416  0.9498  0.5984
  827MOL0     H11610   6.122   2.401   9.546 -0.6297 -1.7685  0.8677
  827MOL0     H11611   5.944   2.268   9.592  1.0576 -0.5318  0.5733
  827MOL0     H11612   6.037   2.136   9.532 -0.4939  1.9801 -2.0101
  827MOL0     H11613   5.927   1.981   9.699 -0.6632 -0.1249 -0.1285
  827MOL0     H11614   5.860   2.115   9.781  1.5512 -1.8690  1.6147
  827MOL0     H11615   5.806   2.017   9.485 -1.4301  0.5948 -0.7162
  827MOL0     H11616   5.747   2.166   9.540  2.4339  0.0457 -0.0467
  827MOL0     H11617   5.690   1.890   9.667  1.0360 -0.3458 -3.8275
  827MOL0     H11618   5.644   2.041   9.742  1.4242  1.9143 -0.2878
  827MOL0     H11619   5.495   2.103   9.580 -2.1945 -0.9534  0.9916
  827MOL0     H11620   5.454   1.948   9.630 -1.1114  1.7812 -0.3096
  827MOL0     H11621   5.612   2.006   9.378 -0.0327  0.2498  1.0058
  827MOL0     H11622   5.566   1.842   9.426  1.3883  0.3165 -1.4546
  827MOL0     H11623   5.367   2.055   9.347 -0.7694 -0.0902  1.6663
  827MOL0     H11624   5.324   1.899   9.425  1.1289  1.9314  1.9884
  827MOL0     H11625   5.421   1.771   9.256  0.3877 -0.1063  1.4073
  827MOL0     H11626   5.456   1.916   9.152 -1.8660  2.4259  0.6244
  827MOL0     H11627   6.280   2.224   9.908  0.3035 -0.2074 -0.1518
  827MOL0     H11628   6.465   2.411   9.898  1.6252  1.7549 -1.7633
  827MOL0     H11629   6.638   2.791   9.866  1.2466 -0.0384  0.0220
  827MOL0     H11630   6.853   2.913   9.883  2.0436 -2.4637 -0.2428
  827MOL0     H11631   8.578   3.432   8.339  1.8229 -0.8428 -2.0243
  827MOL0     H11632   8.820   3.523   8.300  2.1243  1.8907  1.7538
  827MOL0     H11633   9.233   3.642   8.485  3.8622  3.9442  0.9200
  827MOL0     H11634   9.478   3.709   8.419  1.3695  0.1384 -1.4226
  827MOL0     H11635   9.572   3.698   8.059 -1.5910  1.1084  1.6505
  827MOL0     H11636   9.662   3.787   8.194  1.2428 -0.7883  1.9356
  827MOL0     H11637   9.814   3.705   7.988 -1.6252 -1.8473 -1.7389
  827MOL0     H11638   9.779   3.547   8.032 -0.9551  0.9589 -2.0711
  827MOL0     H11639   9.896   3.574   8.243 -0.1006 -0.7672 -2.1007
  827MOL0     H11640   9.895   3.754   8.231  1.5456 -1.2573  1.6349
  827MOL0     H11641  10.122   3.678   8.173 -0.1499  3.0187 -0.5048
  827MOL0     H11642  10.041   3.730   8.024 -0.6365  0.4031  1.1203
  827MOL0     H11643  10.105   3.323   7.963 -2.3599 -0.7452 -0.5427
  827MOL0     H11644   9.461   3.463   8.081 -0.1562 -2.2491 -0.0630
  827MOL0     H11645   9.217   3.390   8.142  3.4995 -3.1453  0.7673
  828MOL0     O11646   7.551   1.848   9.388  0.3509  0.1721  0.0536
  828MOL0     C11647   7.560   1.923   9.293 -0.7967 -0.2534  0.6803
  828MOL0     O11648   7.470   1.949   9.195  0.4006  0.0152 -0.1215
  828MOL0     C11649   7.334   1.920   9.196  0.7033  0.2964  0.0047
  828MOL0     C11650   7.276   1.813   9.272  0.6277  0.5251  0.8850
  828MOL0     C11651   7.147   1.780   9.241 -0.3339 -0.1889 -0.2081
  828MOL0     C11652   7.057   1.862   9.168 -0.9303  0.9075  0.2542
  828MOL0     O11653   6.929   1.816   9.142  0.4091 -0.3329 -0.3735
  828MOL0     C11654   6.811   1.900   9.123  0.7327 -0.1368  0.2188
  828MOL0     C11655   6.691   1.801   9.129 -0.4309 -0.1916 -0.2411
  828MOL0     C11656   6.569   1.878   9.185 -0.2904 -0.2955  0.1716
  828MOL0     C11657   6.445   1.782   9.174  0.2838  0.6580  0.0668
  828MOL0     C11658   6.355   1.819   9.053  0.4483 -0.8481  0.1374
  828MOL0     C11659   6.264   1.702   9.040  0.3218  0.4524 -0.5015
  828MOL0     C11660   6.145   1.736   8.958  0.8137 -0.1356 -0.2691
  828MOL0     C11661   6.052   1.614   8.926 -0.2588  0.6483  0.7314
  828MOL0     N11662   5.980   1.628   8.796  0.6233 -0.9272  0.3859
  828MOL0     C11663   5.895   1.733   8.761 -0.4220  0.2764 -0.4328
  828MOL0     C11664   5.861   1.696   8.632  0.2105 -0.5853 -0.0227
  828MOL0     C11665   5.785   1.773   8.531  0.5352 -0.0962 -0.1178
  828MOL0     C11666   5.884   1.817   8.417  0.1608 -0.4229 -0.0327
  828MOL0     C11667   5.817   1.894   8.301  1.0651  0.0727  0.1976
  828MOL0     C11668   5.750   1.801   8.201 -0.2995 -0.3367 -1.1166
  828MOL0     O11669   5.713   1.877   8.084  0.7331  0.1247  0.0632
  828MOL0     C11670   5.609   1.962   8.078 -0.7091  0.0911 -0.4417
  828MOL0     C11671   5.595   2.048   7.968 -0.2033 -0.2753 -0.4590
  828MOL0     C11672   5.483   2.127   7.945 -0.0033 -0.7594  0.0376
  828MOL0     C11673   5.497   2.230   7.833  0.1351 -0.1675 -0.3586
  828MOL0     C11674   5.378   2.126   8.038  0.6898  0.5829 -0.5325
  828MOL0     C11675   5.255   2.216   8.045 -0.9058  0.3981 -0.9473
  828MOL0     O11676   5.206   2.239   8.169  0.4583  0.1085 -0.4807
  828MOL0     C11677   5.081   2.295   8.170  0.6254 -0.0571  1.1879
  828MOL0     C11678   5.064   2.428   8.214 -0.4034 -0.6119  0.0570
  828MOL0     C11679   4.945   2.489   8.204  0.7539 -0.3517  0.0380
  828MOL0     C11680   4.831   2.416   8.176  0.5679 -0.2983  0.8044
  828MOL0     O11681   4.707   2.474   8.194  0.1970  0.1105 -0.2407
  828MOL0     C11682   4.669   2.470   8.337  0.2782  0.0003  0.0151
  828MOL0     C11683   4.512   2.455   8.348 -0.2551  0.5858  0.4550
  828MOL0     C11684   4.474   2.472   8.494 -0.8632 -0.2466 -0.1734
  828MOL0     C11685   4.323   2.443   8.509  0.5077  0.5065  0.1274
  828MOL0     C11686   4.279   2.391   8.645  0.0854  0.4255 -0.5554
  828MOL0     C11687   4.301   2.487   8.767 -0.1030 -0.1101 -0.2417
  828MOL0     C11688   4.245   2.632   8.748 -0.6160  0.5294  0.5139
  828MOL0     C11689   4.253   2.720   8.875 -0.3590 -1.0624 -0.2996
  828MOL0    Cl11690   4.158   2.652   9.003 -0.0101 -0.2710  0.0091
  828MOL0     C11691   4.847   2.283   8.138 -0.1019 -0.0331 -0.1264
  828MOL0     C11692   4.971   2.221   8.131 -0.1349  0.5066  0.6851
  828MOL0     O11693   5.218   2.271   7.941  0.3167  0.3831  0.2910
  828MOL0     C11694   5.394   2.035   8.145 -0.4922 -0.2722  0.3589
  828MOL0     C11695   5.501   1.958   8.170 -0.0017 -0.9184 -0.0326
  828MOL0     N11696   5.925   1.581   8.592 -0.1305  0.0370  0.1835
  828MOL0     N11697   5.992   1.540   8.693 -0.3356 -0.1024  0.3129
  828MOL0     C11698   7.114   1.975   9.100  0.4380  0.1727 -0.1594
  828MOL0     C11699   7.249   1.996   9.113 -0.8465  0.6107  0.6825
  828MOL0     C11700   7.704   1.960   9.274  0.2288  0.2020 -0.1138
  828MOL0     C11701   7.806   1.908   9.353  0.3474 -0.0306  0.1420
  828MOL0     C11702   7.939   1.926   9.305  0.2549  0.6024  0.0112
  828MOL0     C11703   7.973   1.987   9.186 -0.5308  0.1261  1.1070
  828MOL0     O11704   8.097   2.009   9.129  0.1166 -0.3871  0.3256
  828MOL0     C11705   8.215   1.963   9.189  0.3618 -0.0271 -0.0313
  828MOL0     C11706   8.324   2.020   9.095 -0.2419  0.7770 -0.4550
  828MOL0     C11707   8.454   1.957   9.139 -0.4030 -0.2348 -0.2348
  828MOL0     C11708   8.524   2.028   9.248 -0.5934 -0.3996  0.1461
  828MOL0     C11709   8.570   2.166   9.214  0.2273  0.0199 -0.6607
  828MOL0     C11710   8.611   2.281   9.210 -0.3143 -0.4212  0.5063
  828MOL0     C11711   7.866   2.053   9.120  0.0050 -0.6655  0.0501
  828MOL0     C11712   7.736   2.047   9.167  0.0132 -0.9085  0.3742
  828MOL0     H11713   7.331   1.745   9.336  0.4196  0.2157  0.7378
  828MOL0     H11714   7.108   1.686   9.278 -1.3509  0.3295  0.0602
  828MOL0     H11715   6.815   1.968   9.209  1.4973  1.9080 -1.3484
  828MOL0     H11716   6.815   1.950   9.026 -1.6535  0.2387  0.2593
  828MOL0     H11717   6.671   1.759   9.030 -1.7339 -0.9234  0.3089
  828MOL0     H11718   6.723   1.724   9.200  2.7171  1.3567  0.2069
  828MOL0     H11719   6.597   1.898   9.288 -0.8917  0.4322  0.2047
  828MOL0     H11720   6.551   1.968   9.126 -1.2196 -1.3316 -1.2075
  828MOL0     H11721   6.481   1.679   9.184  1.7342  1.2218  0.9583
  828MOL0     H11722   6.380   1.799   9.261  0.5290  3.4092 -0.1891
  828MOL0     H11723   6.315   1.917   9.079  2.9252  0.5684 -0.9896
  828MOL0     H11724   6.420   1.834   8.966  1.5551  4.0941  1.4905
  828MOL0     H11725   6.318   1.632   8.976 -0.4294 -1.4141  0.7922
  828MOL0     H11726   6.238   1.650   9.133  0.0880 -1.0161 -1.3532
  828MOL0     H11727   6.088   1.820   9.000  1.2021 -0.6528  1.3407
  828MOL0     H11728   6.184   1.773   8.862  1.4826  2.6496  0.9835
  828MOL0     H11729   5.971   1.610   8.999 -0.3934  0.0913  0.5600
  828MOL0     H11730   6.114   1.523   8.928 -1.1345  0.0075 -0.0374
  828MOL0     H11731   5.863   1.820   8.816  1.1349 -0.8684  2.5035
  828MOL0     H11732   5.704   1.716   8.485 -0.5459  0.3374  1.1940
  828MOL0     H11733   5.744   1.859   8.584 -1.4908 -0.9697 -0.1968
  828MOL0     H11734   5.935   1.734   8.367 -0.3258 -0.8537  0.1735
  828MOL0     H11735   5.961   1.882   8.459  0.5815  0.3157 -1.8512
  828MOL0     H11736   5.899   1.949   8.254  0.3253  1.2211  0.2180
  828MOL0     H11737   5.741   1.965   8.336  0.0473 -1.7248  1.8082
  828MOL0     H11738   5.655   1.762   8.239 -0.0188  0.1936  0.2144
  828MOL0     H11739   5.810   1.716   8.170 -3.5082 -3.6819  1.0470
  828MOL0     H11740   5.682   2.073   7.908 -0.4611  0.6785 -0.4482
  828MOL0     H11741   5.404   2.267   7.790 -0.3795 -1.8654 -0.7730
  828MOL0     H11742   5.568   2.310   7.859  0.0486 -0.9753  2.8177
  828MOL0     H11743   5.524   2.175   7.743 -1.8388 -0.8120 -0.6110
  828MOL0     H11744   5.146   2.477   8.266 -1.8797  1.2637  0.7241
  828MOL0     H11745   4.935   2.595   8.224 -0.7336  0.2463 -3.2363
  828MOL0     H11746   4.714   2.389   8.396  0.7628  1.3940  1.6417
  828MOL0     H11747   4.703   2.562   8.385  0.6003 -0.9656  1.7161
  828MOL0     H11748   4.474   2.546   8.299 -2.4311  0.6007  2.0282
  828MOL0     H11749   4.461   2.368   8.307 -1.7197  0.9127  1.4922
  828MOL0     H11750   4.510   2.567   8.534  1.3053 -1.3579  0.6766
  828MOL0     H11751   4.524   2.402   8.561 -1.8148  1.2955  2.2967
  828MOL0     H11752   4.260   2.529   8.484  1.1071  0.4929 -1.4992
  828MOL0     H11753   4.301   2.360   8.442  0.5945 -0.7836  1.6486
  828MOL0     H11754   4.330   2.297   8.670 -1.8046 -0.7594 -1.0033
  828MOL0     H11755   4.172   2.371   8.638 -0.3244  1.9529  0.6885
  828MOL0     H11756   4.240   2.439   8.844 -0.0996  0.0919 -0.1119
  828MOL0     H11757   4.407   2.487   8.796 -0.1432 -4.0629  0.5239
  828MOL0     H11758   4.143   2.622   8.710 -0.9897 -1.4684  1.8448
  828MOL0     H11759   4.301   2.680   8.668 -1.5312 -1.2637 -1.2874
  828MOL0     H11760   4.220   2.818   8.839  2.7813  0.5953  0.9879
  828MOL0     H11761   4.355   2.738   8.910 -0.3418 -0.5265 -0.6157
  828MOL0     H11762   4.760   2.222   8.117 -1.3004  1.2574  0.9534
  828MOL0     H11763   4.987   2.119   8.097 -0.2634  0.9123 -0.6522
  828MOL0     H11764   5.319   2.034   8.223 -1.9668 -0.3201 -1.0161
  828MOL0     H11765   5.506   1.894   8.257 -0.3483  1.4114  1.7799
  828MOL0     H11766   7.057   2.042   9.036 -1.4150  0.1792  1.3877
  828MOL0     H11767   7.287   2.085   9.063 -0.0262  0.5999  1.2845
  828MOL0     H11768   7.784   1.865   9.450  0.1033 -1.5265 -0.5382
  828MOL0     H11769   8.019   1.879   9.361 -0.2224  1.1000  1.1270
  828MOL0     H11770   8.216   2.013   9.286 -0.4523  1.4190 -0.7328
  828MOL0     H11771   8.228   1.854   9.186  1.5833  0.1207 -1.3129
  828MOL0     H11772   8.330   2.130   9.099 -5.0376  1.2080  0.1685
  828MOL0     H11773   8.300   1.990   8.993 -0.1039 -1.8865  0.2190
  828MOL0     H11774   8.525   1.935   9.059  2.1129  4.0670  0.5464
  828MOL0     H11775   8.429   1.857   9.177 -0.0723 -0.2395 -0.0252
  828MOL0     H11776   8.599   1.962   9.293 -1.8696 -1.0659  1.3818
  828MOL0     H11777   8.459   2.038   9.336  2.0738 -0.5623  2.2550
  828MOL0     H11778   8.649   2.381   9.207 -0.3538 -0.4154 -1.3430
  828MOL0     H11779   7.887   2.099   9.024 -0.3483 -1.9032 -0.6387
  828MOL0     H11780   7.665   2.098   9.103 -1.7489 -1.5535  1.7580
  829MOL0     O11781   7.379  10.645   9.690 -0.0617  0.1697 -0.2734
  829MOL0     C11782   7.363  10.739   9.770 -0.2348 -0.1596 -0.4003
  829MOL0     O11783   7.250  10.756   9.851  0.1634  0.2677 -0.2431
  829MOL0     C11784   7.146  10.663   9.842 -0.3700 -0.2159 -0.4932
  829MOL0     C11785   7.076  10.629   9.723 -0.6230 -0.7708 -0.0323
  829MOL0     C11786   6.968  10.542   9.726  1.6529  0.0928  0.5232
  829MOL0     C11787   6.914  10.496   9.846 -0.5361 -0.3586  0.1325
  829MOL0     O11788   6.808  10.407   9.856 -0.0021 -0.4364 -0.3598
  829MOL0     C11789   6.717  10.407   9.748 -0.7302  0.1097 -0.0500
  829MOL0     C11790   6.612  10.297   9.747 -0.1355  0.0965 -0.3073
  829MOL0     C11791   6.532  10.282   9.608  0.5609  0.3289 -0.7234
  829MOL0     C11792   6.434  10.165   9.604 -0.3853  0.1838 -0.5964
  829MOL0     C11793   6.340  10.169   9.490 -0.3618  0.2269  0.2081
  829MOL0     C11794   6.235  10.064   9.473 -0.2465 -0.0291  0.0494
  829MOL0     C11795   6.150  10.083   9.352 -0.8660  0.9606  0.0166
  829MOL0     C11796   6.014  10.012   9.350 -0.4883  0.3624  0.2100
  829MOL0     N11797   5.925  10.049   9.463  0.2926 -0.1519 -0.4191
  829MOL0     C11798   5.856  10.173   9.474 -0.5158  0.1219 -0.3273
  829MOL0     C11799   5.797  10.167   9.601 -0.5311 -0.7773  0.3105
  829MOL0     C11800   5.711  10.277   9.651 -0.3001 -0.0658  0.4146
  829MOL0     C11801   5.580  10.236   9.717 -0.0711 -0.4483 -0.7958
  829MOL0     C11802   5.466  10.230   9.616 -0.2977  0.3707 -0.7531
  829MOL0     C11803   5.344  10.168   9.681  0.8529 -0.1864 -0.3610
  829MOL0     O11804   5.295  10.256   9.790 -0.8771  0.3697  0.2093
  829MOL0     C11805   5.162  10.244   9.830 -1.2152 -0.4212 -0.6858
  829MOL0     C11806   5.131  10.234   9.968  0.3675 -0.3616  0.4429
  829MOL0     C11807   5.000  10.242  10.020  0.1049  0.7489  0.4824
  829MOL0     C11808   4.989  10.211  10.169 -0.2411  0.0846  0.3030
  829MOL0     C11809   4.885  10.242   9.931  0.7788 -0.2486  0.4313
  829MOL0     C11810   4.740  10.232   9.968  0.4028  0.1098  0.4994
  829MOL0     O11811   4.660  10.143   9.895 -0.2924  0.1227 -0.1236
  829MOL0     C11812   4.529  10.160   9.919  0.0005 -0.1549  0.7756
  829MOL0     C11813   4.467  10.129  10.038  0.6135 -0.0309  0.0661
  829MOL0     C11814   4.328  10.146  10.047  0.1878  0.6544  0.1182
  829MOL0     C11815   4.249  10.186   9.946  0.2954 -0.1882  0.5652
  829MOL0     O11816   4.117  10.202   9.968 -0.5155  0.2496  0.8429
  829MOL0     C11817   4.030  10.245   9.859 -0.4063  0.2327  0.8100
  829MOL0     C11818   3.885  10.275   9.909  0.3134 -1.0285  0.5929
  829MOL0     C11819   3.874  10.381  10.020 -0.3649 -0.2757 -0.0103
  829MOL0     C11820   3.731  10.422  10.059 -0.0803  0.5572 -0.5195
  829MOL0     C11821   3.730  10.504  10.186 -0.0899 -0.1951 -0.5047
  829MOL0     C11822   3.597  10.551  10.235 -0.0970  0.2996 -0.4237
  829MOL0     C11823   3.529  10.421  10.286 -0.2802 -0.6938 -0.1714
  829MOL0     C11824   3.378  10.435  10.310  0.7875 -0.2764  0.0822
  829MOL0    Cl11825   3.334  10.571  10.417  0.3720 -0.0842 -0.0659
  829MOL0     C11826   4.317  10.223   9.822  0.6664 -0.0312 -0.4736
  829MOL0     C11827   4.458  10.217   9.811  0.0300 -0.3587  0.2634
  829MOL0     O11828   4.695  10.311  10.050 -0.0541  0.3106 -0.2373
  829MOL0     C11829   4.921  10.247   9.790  0.1778  0.0790 -0.8114
  829MOL0     C11830   5.051  10.248   9.741  0.0612 -0.6630 -0.0023
  829MOL0     N11831   5.845  10.054   9.668  0.3438 -0.1311  0.4166
  829MOL0     N11832   5.919   9.985   9.585  0.3821  0.0772 -0.2774
  829MOL0     C11833   6.983  10.530   9.961 -1.0083  0.6558 -0.3682
  829MOL0     C11834   7.096  10.609   9.969  0.7982 -0.8269  0.1705
  829MOL0     C11835   7.460  10.852   9.759  0.2435  0.1606  0.2584
  829MOL0     C11836   7.571  10.843   9.673  0.4893 -0.1163  0.2039
  829MOL0     C11837   7.668  10.943   9.668  0.0071  0.0344 -0.7829
  829MOL0     C11838   7.663  11.058   9.745 -0.4400  0.6256 -0.0653
  829MOL0     O11839   7.764  11.152   9.755  0.0591  0.3038 -0.3311
  829MOL0     C11840   7.885  11.140   9.671 -0.8930  0.3145  0.5198
  829MOL0     C11841   7.981  11.251   9.699 -0.3991 -0.0803  0.0762
  829MOL0     C11842   8.121  11.221   9.640 -0.2065  1.0418 -0.1922
  829MOL0     C11843   8.228  11.304   9.719  0.1331  0.6107 -0.2442
  829MOL0     C11844   8.358  11.323   9.654 -0.5835 -1.1161 -0.1577
  829MOL0     C11845   8.463  11.334   9.595 -0.4210 -0.3748  0.5254
  829MOL0     C11846   7.549  11.073   9.821 -0.7842 -1.1531 -0.3363
  829MOL0     C11847   7.455  10.976   9.832 -0.1884 -0.2449  0.5362
  829MOL0     H11848   7.116  10.669   9.630 -2.2796 -1.2893 -1.0248
  829MOL0     H11849   6.930  10.512   9.629 -1.6035  3.6240  0.4674
  829MOL0     H11850   6.664  10.502   9.733  0.2713  0.5226 -1.1782
  829MOL0     H11851   6.777  10.397   9.658 -0.5171 -2.1320  0.2941
  829MOL0     H11852   6.658  10.200   9.762 -0.7686  0.0151  1.3200
  829MOL0     H11853   6.544  10.313   9.831 -0.4463 -1.6233 -0.2127
  829MOL0     H11854   6.479  10.377   9.606  0.3746  0.2434 -0.0805
  829MOL0     H11855   6.603  10.268   9.526 -2.6608 -0.8214 -3.5530
  829MOL0     H11856   6.495  10.075   9.587  0.0689  0.2195  0.7355
  829MOL0     H11857   6.381  10.169   9.699 -2.5375  1.9110 -1.8003
  829MOL0     H11858   6.281  10.260   9.509  0.6415  0.6006  1.7034
  829MOL0     H11859   6.399  10.172   9.398 -2.1096  0.0352 -0.9542
  829MOL0     H11860   6.274   9.962   9.477 -0.4528 -0.1450 -0.6792
  829MOL0     H11861   6.174  10.078   9.563 -0.4990 -0.8867  0.0265
  829MOL0     H11862   6.144  10.186   9.317 -0.6565 -0.1911 -3.9211
  829MOL0     H11863   6.217  10.050   9.272  0.1044  1.5162  0.5811
  829MOL0     H11864   6.041   9.907   9.367 -0.5399  0.8237  4.2242
  829MOL0     H11865   5.961  10.028   9.256  2.4555  1.1212 -1.4463
  829MOL0     H11866   5.849  10.257   9.406  1.9145  0.8744  0.2584
  829MOL0     H11867   5.767  10.342   9.719  0.7127  1.3243 -1.6227
  829MOL0     H11868   5.702  10.342   9.564  0.0115 -0.4175  0.1146
  829MOL0     H11869   5.559  10.305   9.800  0.1936 -0.0212 -1.0776
  829MOL0     H11870   5.589  10.135   9.756 -2.3055 -0.8146 -1.0796
  829MOL0     H11871   5.491  10.173   9.527  0.3105  1.0060 -0.9992
  829MOL0     H11872   5.443  10.331   9.580  1.0432  0.9209 -0.1363
  829MOL0     H11873   5.359  10.068   9.723 -1.8853  0.5943  3.0043
  829MOL0     H11874   5.266  10.161   9.605 -2.7883 -0.8909  3.0363
  829MOL0     H11875   5.215  10.226  10.036 -1.6855 -1.4508  3.0322
  829MOL0     H11876   4.982  10.308  10.220 -0.5825  0.3851 -0.3037
  829MOL0     H11877   4.900  10.159  10.203 -0.3565  1.0972  1.6285
  829MOL0     H11878   5.077  10.161  10.210 -0.5569 -0.2078  0.6248
  829MOL0     H11879   4.529  10.087  10.117  1.0393  0.8382  0.2133
  829MOL0     H11880   4.272  10.115  10.135 -0.5510 -3.1022 -1.5024
  829MOL0     H11881   4.077  10.335   9.818  0.9584 -0.2624  1.2247
  829MOL0     H11882   4.021  10.171   9.780  1.5192 -1.3194  1.9533
  829MOL0     H11883   3.824  10.318   9.828 -0.1263 -0.5129  1.1896
  829MOL0     H11884   3.833  10.184   9.941 -0.4014 -0.4699  1.0530
  829MOL0     H11885   3.932  10.469   9.990  1.3786 -1.7069 -0.9588
  829MOL0     H11886   3.934  10.350  10.106  2.0061  0.1258 -1.4329
  829MOL0     H11887   3.677  10.469   9.976  0.5375 -0.3416 -1.4570
  829MOL0     H11888   3.685  10.323  10.069  3.1826 -0.9473  1.1166
  829MOL0     H11889   3.792  10.593  10.168  0.1081 -0.4266 -0.9882
  829MOL0     H11890   3.782  10.454  10.269 -3.1635 -0.4063  1.4516
  829MOL0     H11891   3.611  10.628  10.311 -1.8786 -1.0914  1.4605
  829MOL0     H11892   3.531  10.584  10.154  0.3656  1.5075 -0.3247
  829MOL0     H11893   3.584  10.399  10.378  2.0347 -1.4202 -1.6527
  829MOL0     H11894   3.539  10.338  10.215  3.0941 -1.4250  0.9809
  829MOL0     H11895   3.331  10.346  10.352 -1.6448  1.1287  0.5207
  829MOL0     H11896   3.324  10.469  10.221 -3.1260 -0.4898  2.1755
  829MOL0     H11897   4.257  10.249   9.735 -1.9095 -1.8763  0.6335
  829MOL0     H11898   4.517  10.246   9.725  2.6323 -2.2632  1.2900
  829MOL0     H11899   4.837  10.260   9.724 -2.5486 -1.8643  1.9893
  829MOL0     H11900   5.059  10.265   9.634 -2.1223 -2.6142 -0.5625
  829MOL0     H11901   6.941  10.478  10.046  3.2364  0.9872  2.2495
  829MOL0     H11902   7.134  10.633  10.068  1.0652 -2.0452  0.3823
  829MOL0     H11903   7.583  10.755   9.610 -2.8266 -0.0024 -0.7805
  829MOL0     H11904   7.750  10.919   9.600  1.9824  3.1638  0.2789
  829MOL0     H11905   7.923  11.040   9.696 -1.5989 -0.6778 -2.0552
  829MOL0     H11906   7.864  11.136   9.564 -0.0860 -1.4610  0.3784
  829MOL0     H11907   7.988  11.269   9.807 -1.5820  1.2447 -0.0305
  829MOL0     H11908   7.951  11.348   9.657  2.3604  2.7101  3.8275
  829MOL0     H11909   8.119  11.238   9.532  3.8997 -0.9591 -0.7984
  829MOL0     H11910   8.141  11.115   9.660  0.5610  1.0809 -0.7001
  829MOL0     H11911   8.240  11.267   9.821  0.3760 -0.1593 -0.5463
  829MOL0     H11912   8.187  11.405   9.725  2.3501  1.6495 -1.2062
  829MOL0     H11913   8.553  11.335   9.536 -1.7768 -0.6917 -1.6469
  829MOL0     H11914   7.531  11.156   9.888  0.8547  0.0668 -1.3458
  829MOL0     H11915   7.374  10.998   9.900 -0.3324 -0.6725  0.5087
  830MOL0     O11916   0.661   0.826   9.496 -0.2831  0.4088 -0.1810
  830MOL0     C11917   0.750   0.885   9.429  0.3878  0.5494  0.2878
  830MOL0     O11918   0.739   0.931   9.299 -0.7636  0.0495 -0.6745
  830MOL0     C11919   0.617   0.958   9.238 -0.4513  0.6826  0.5570
  830MOL0     C11920   0.620   0.982   9.105  0.0686 -0.6848 -0.0780
  830MOL0     C11921   0.503   1.009   9.031  0.3489 -0.0742 -0.1354
  830MOL0     C11922   0.379   1.015   9.099  0.3097  0.1676  0.5206
  830MOL0     O11923   0.269   1.030   9.021 -0.6619 -0.5806 -0.4318
  830MOL0     C11924   0.159   1.110   9.079  1.1273 -0.1295 -0.8748
  830MOL0     C11925   0.065   1.141   8.961  0.1903 -0.5384 -0.1333
  830MOL0     C11926   0.038   1.013   8.889  0.4168 -0.6473  0.1264
  830MOL0     C11927  -0.100   1.007   8.824 -0.0351  0.6393 -0.0846
  830MOL0     C11928  -0.114   0.915   8.706 -0.5666  0.1190  0.1055
  830MOL0     C11929  -0.256   0.879   8.667  0.4219 -0.8814 -0.6640
  830MOL0     C11930  -0.307   0.947   8.541  0.4920  0.4689  0.2872
  830MOL0     C11931  -0.452   0.903   8.509 -0.2735 -0.0689  0.7147
  830MOL0     N11932  -0.542   0.890   8.627  0.3827  0.1875 -0.4508
  830MOL0     C11933  -0.650   0.973   8.651  0.1464 -1.1989 -0.3136
  830MOL0     C11934  -0.729   0.900   8.736  0.1169  0.3272 -0.1690
  830MOL0     C11935  -0.865   0.926   8.786 -0.0015 -0.5312 -0.3203
  830MOL0     C11936  -0.875   1.004   8.922  0.7397 -0.1977  0.5858
  830MOL0     C11937  -0.988   0.950   9.009 -0.4946 -0.7739 -0.4354
  830MOL0     C11938  -1.131   0.976   8.956  0.8662 -0.2821  0.5690
  830MOL0     O11939  -1.147   1.115   8.950 -0.6062  0.0310  0.1656
  830MOL0     C11940  -1.264   1.172   8.944  0.3855 -0.2341  0.5598
  830MOL0     C11941  -1.270   1.302   9.001 -0.6828 -0.9834  0.2191
  830MOL0     C11942  -1.392   1.377   9.010 -0.2725 -0.0327 -0.4092
  830MOL0     C11943  -1.387   1.514   9.063 -0.0890 -0.0043 -0.2464
  830MOL0     C11944  -1.510   1.316   8.955 -0.0900  0.8069 -0.1854
  830MOL0     C11945  -1.646   1.381   8.972  0.2179  0.9109 -0.4478
  830MOL0     O11946  -1.739   1.386   8.870 -0.0307  0.3422  0.0741
  830MOL0     C11947  -1.859   1.446   8.874  0.7329 -0.5570  0.5436
  830MOL0     C11948  -1.908   1.503   8.758  0.8618  0.0673 -0.4662
  830MOL0     C11949  -2.040   1.552   8.743  0.4323 -0.0173  0.2113
  830MOL0     C11950  -2.127   1.557   8.860  0.2315  0.2958 -0.3637
  830MOL0     O11951  -2.256   1.618   8.863  0.1838 -0.4167  0.0253
  830MOL0     C11952  -2.344   1.590   8.757  0.6633  0.6525 -0.2404
  830MOL0     C11953  -2.464   1.668   8.791  0.3979  0.1192 -0.3814
  830MOL0     C11954  -2.584   1.632   8.707 -0.2589 -0.2756 -0.0157
  830MOL0     C11955  -2.715   1.702   8.761  0.0798  0.5146 -0.4313
  830MOL0     C11956  -2.829   1.644   8.685 -0.1819 -0.6070  0.2741
  830MOL0     C11957  -2.963   1.694   8.725 -0.4746 -0.8324 -0.1850
  830MOL0     C11958  -2.998   1.679   8.879 -0.6486 -0.5976  0.0336
  830MOL0     C11959  -3.147   1.709   8.904 -0.2783 -0.3318  0.4907
  830MOL0    Cl11960  -3.266   1.632   8.797 -0.4844  0.3454 -0.2199
  830MOL0     C11961  -2.074   1.516   8.982  0.4903 -0.4762  0.2388
  830MOL0     C11962  -1.952   1.452   8.986  0.4778  0.0604  0.2351
  830MOL0     O11963  -1.661   1.440   9.081 -0.2530  0.1833 -0.1159
  830MOL0     C11964  -1.493   1.199   8.896  0.2099  0.9983  0.9338
  830MOL0     C11965  -1.380   1.119   8.904  0.1200  0.6460 -0.4212
  830MOL0     N11966  -0.648   0.792   8.785  0.1704 -0.1719 -0.8212
  830MOL0     N11967  -0.541   0.783   8.717  0.3938  0.3834  0.2052
  830MOL0     C11968   0.377   1.012   9.240 -0.2430  0.4914  0.1426
  830MOL0     C11969   0.497   0.990   9.310  0.3001  0.2146  0.9804
  830MOL0     C11970   0.884   0.891   9.480  0.2322  0.1088  0.0364
  830MOL0     C11971   0.922   0.824   9.596 -0.7550 -0.7376 -0.5152
  830MOL0     C11972   1.056   0.837   9.643 -0.0870  0.5322  0.3274
  830MOL0     C11973   1.158   0.903   9.573 -0.0046 -0.4529 -0.5953
  830MOL0     O11974   1.288   0.895   9.620  0.2704 -0.9371 -0.5524
  830MOL0     C11975   1.382   0.958   9.533 -0.2867  0.2596 -0.4032
  830MOL0     C11976   1.507   0.923   9.603 -0.4859  0.0216 -0.2544
  830MOL0     C11977   1.545   0.770   9.605 -0.6355 -0.2989 -0.6045
  830MOL0     C11978   1.581   0.708   9.465  0.5733 -0.0396 -0.1328
  830MOL0     C11979   1.723   0.739   9.431  0.2907  0.4195  0.2838
  830MOL0     C11980   1.840   0.768   9.427  0.2449 -0.1360  0.5097
  830MOL0     C11981   1.117   0.979   9.459  0.5909 -0.2462 -0.6325
  830MOL0     C11982   0.982   0.971   9.414 -0.7449 -0.8182 -0.0835
  830MOL0     H11983   0.712   0.978   9.047 -0.7338 -3.2334 -1.3254
  830MOL0     H11984   0.509   1.026   8.924 -0.0525 -0.7281 -0.2656
  830MOL0     H11985   0.106   1.055   9.157  2.1710  1.2626  0.9043
  830MOL0     H11986   0.184   1.208   9.122  0.3988  1.0263 -2.9213
  830MOL0     H11987  -0.022   1.186   9.009  0.0674 -0.1755 -0.6792
  830MOL0     H11988   0.114   1.214   8.896 -0.9007  0.9063  0.6174
  830MOL0     H11989   0.108   1.005   8.805 -1.1078  0.4213 -1.3353
  830MOL0     H11990   0.054   0.925   8.951  2.8697 -0.5408 -0.2815
  830MOL0     H11991  -0.173   0.973   8.900  3.4553 -1.6055  2.5964
  830MOL0     H11992  -0.127   1.106   8.788 -1.2425  0.1729 -0.5212
  830MOL0     H11993  -0.059   0.959   8.621  2.5985 -2.4934  0.5772
  830MOL0     H11994  -0.065   0.821   8.735 -0.2802  0.7255  1.6561
  830MOL0     H11995  -0.278   0.773   8.661 -1.2667 -0.5446 -0.8701
  830MOL0     H11996  -0.316   0.919   8.749  1.3830 -1.1459  0.2015
  830MOL0     H11997  -0.311   1.054   8.565 -3.2312  0.1376  1.9087
  830MOL0     H11998  -0.241   0.921   8.458  1.6136 -1.5600  1.7235
  830MOL0     H11999  -0.445   0.804   8.463  0.1972  1.4499 -2.8624
  830MOL0     H12000  -0.493   0.974   8.437 -2.1501 -0.0993  1.7101
  830MOL0     H12001  -0.674   1.066   8.601  1.7112 -1.9517 -2.6703
  830MOL0     H12002  -0.930   0.980   8.717 -0.6283  0.4643  1.0078
  830MOL0     H12003  -0.898   0.823   8.804 -0.0034 -0.6840 -1.1876
  830MOL0     H12004  -0.888   1.110   8.901 -0.3737 -0.2510  0.9472
  830MOL0     H12005  -0.787   0.995   8.986  0.3463  2.3440  1.6129
  830MOL0     H12006  -0.990   0.996   9.109 -2.1186 -0.9075 -0.3758
  830MOL0     H12007  -0.970   0.842   9.017 -0.3410 -0.8762 -1.9728
  830MOL0     H12008  -1.216   0.937   9.012  1.2049  0.2212  1.4470
  830MOL0     H12009  -1.137   0.939   8.853  0.6241  2.1577 -0.3784
  830MOL0     H12010  -1.179   1.342   9.046 -0.7569 -1.5212  0.8686
  830MOL0     H12011  -1.285   1.549   9.043 -0.2730 -0.4462 -2.1308
  830MOL0     H12012  -1.456   1.576   9.006 -0.4139  0.2897  0.4499
  830MOL0     H12013  -1.401   1.514   9.172 -2.4124  0.0005 -0.4956
  830MOL0     H12014  -1.840   1.514   8.675  1.5733  2.0839  0.3152
  830MOL0     H12015  -2.081   1.585   8.648  1.0702  0.3869  0.0658
  830MOL0     H12016  -2.307   1.616   8.657 -1.3780 -0.8331 -1.4800
  830MOL0     H12017  -2.362   1.483   8.748  1.0169  0.4543  1.3002
  830MOL0     H12018  -2.482   1.643   8.896  1.8984  0.6895  0.0266
  830MOL0     H12019  -2.447   1.776   8.784  2.8452 -0.1933 -0.1401
  830MOL0     H12020  -2.596   1.523   8.718 -0.5367 -0.0981  1.6420
  830MOL0     H12021  -2.556   1.658   8.604  0.7387  1.2158  0.6069
  830MOL0     H12022  -2.726   1.683   8.868 -1.5868  1.3067 -0.4277
  830MOL0     H12023  -2.716   1.809   8.739  2.0067  1.3386  2.8717
  830MOL0     H12024  -2.835   1.535   8.690  0.9276 -0.8516 -2.4053
  830MOL0     H12025  -2.818   1.665   8.578 -1.9775  2.0814  0.5145
  830MOL0     H12026  -2.968   1.800   8.697 -0.0874 -0.9841 -0.8679
  830MOL0     H12027  -3.031   1.643   8.657 -0.3488 -0.2290 -0.7815
  830MOL0     H12028  -2.924   1.731   8.940 -0.1106 -2.0217  0.6297
  830MOL0     H12029  -2.981   1.576   8.909  0.0877 -0.3640  0.4335
  830MOL0     H12030  -3.155   1.814   8.875 -0.3151 -0.4665  0.0147
  830MOL0     H12031  -3.174   1.692   9.009  0.4250  0.1139  0.7483
  830MOL0     H12032  -2.141   1.528   9.067 -0.3260 -1.2201 -0.2779
  830MOL0     H12033  -1.932   1.414   9.086  0.1457  0.6792  0.5431
  830MOL0     H12034  -1.584   1.169   8.844 -0.2007  0.4334  1.9410
  830MOL0     H12035  -1.392   1.021   8.860  1.6166  0.2437  0.0030
  830MOL0     H12036   0.285   1.027   9.295 -0.9876 -2.9248  0.0731
  830MOL0     H12037   0.502   1.014   9.416 -0.0709  1.5003  0.7197
  830MOL0     H12038   0.865   0.758   9.660  1.0892 -1.8089  0.0864
  830MOL0     H12039   1.077   0.781   9.733 -2.0395  0.4930  0.7961
  830MOL0     H12040   1.367   0.917   9.433 -1.0017  1.7173 -0.9194
  830MOL0     H12041   1.366   1.067   9.534 -3.6691 -0.1098 -0.6604
  830MOL0     H12042   1.516   0.964   9.704  1.6164 -1.8926  0.4157
  830MOL0     H12043   1.586   0.974   9.547 -0.2396 -1.0295 -0.8862
  830MOL0     H12044   1.461   0.716   9.649 -1.7190  1.1191 -0.8706
  830MOL0     H12045   1.632   0.754   9.671 -1.0332 -1.3472 -0.3097
  830MOL0     H12046   1.522   0.752   9.384  1.6649  1.8798  0.0430
  830MOL0     H12047   1.565   0.600   9.464 -2.3846  0.3187 -1.2071
  830MOL0     H12048   1.941   0.803   9.425  0.7398 -1.4623  0.6272
  830MOL0     H12049   1.184   1.046   9.405  1.1234 -1.3496 -1.3888
  830MOL0     H12050   0.976   1.033   9.325  2.0307  0.0091  0.2076
  831MOL0     O12051  10.419   7.925   9.720 -0.3822  0.0918 -0.4549
  831MOL0     C12052  10.401   7.804   9.722 -0.4748  0.1488 -0.4311
  831MOL0     O12053  10.278   7.730   9.703 -0.5012 -0.6656 -0.0666
  831MOL0     C12054  10.161   7.800   9.693 -0.2996  0.4605  0.1537
  831MOL0     C12055  10.129   7.930   9.739 -0.1584  0.3375 -0.0037
  831MOL0     C12056  10.007   7.989   9.707  0.1006  0.2356  0.7694
  831MOL0     C12057   9.918   7.926   9.613 -0.2115  0.0184  0.3063
  831MOL0     O12058   9.803   7.976   9.571 -0.1698  0.3296 -0.3408
  831MOL0     C12059   9.773   8.109   9.597 -0.5190  0.3059 -0.0595
  831MOL0     C12060   9.636   8.146   9.547  0.0006  0.8598  0.1231
  831MOL0     C12061   9.639   8.137   9.397 -0.7376  0.0562 -0.6736
  831MOL0     C12062   9.507   8.180   9.342 -0.6292 -0.6034 -0.5906
  831MOL0     C12063   9.410   8.061   9.326  0.6139  0.1349  0.0650
  831MOL0     C12064   9.278   8.110   9.269 -0.2448  0.1698  0.7691
  831MOL0     C12065   9.177   8.011   9.195  0.6013 -0.5041 -0.6715
  831MOL0     C12066   9.034   8.070   9.193 -0.0681 -0.3494 -0.8030
  831MOL0     N12067   8.959   8.023   9.079 -0.7134 -0.5424  0.3605
  831MOL0     C12068   8.905   7.901   9.061 -0.0571 -0.2549 -0.1760
  831MOL0     C12069   8.822   7.914   8.955  0.1402 -0.2394  0.0202
  831MOL0     C12070   8.730   7.817   8.887  0.2825  0.3418 -0.0019
  831MOL0     C12071   8.585   7.865   8.859 -0.5080 -0.8269 -0.6069
  831MOL0     C12072   8.510   7.789   8.752  0.8241  0.2050 -0.5157
  831MOL0     C12073   8.472   7.646   8.780 -0.2260  1.0910 -0.3661
  831MOL0     O12074   8.436   7.587   8.653  0.2373 -0.4294 -0.0011
  831MOL0     C12075   8.303   7.565   8.628  0.3823  1.0810 -0.1295
  831MOL0     C12076   8.275   7.463   8.538  0.0904 -0.0174 -0.1746
  831MOL0     C12077   8.140   7.436   8.507 -0.3248 -0.4270  0.9933
  831MOL0     C12078   8.118   7.339   8.397 -0.4756  0.3788 -0.2461
  831MOL0     C12079   8.034   7.498   8.581  0.4820  0.1423  0.3969
  831MOL0     C12080   7.889   7.458   8.579 -0.5584 -0.0650 -0.3998
  831MOL0     O12081   7.803   7.511   8.675 -0.2882  0.7904  0.2310
  831MOL0     C12082   7.668   7.479   8.664  0.2196  0.2658 -0.3886
  831MOL0     C12083   7.626   7.344   8.646 -0.8981  0.7430 -0.0199
  831MOL0     C12084   7.494   7.314   8.627  0.2724  0.4277 -0.2983
  831MOL0     C12085   7.403   7.423   8.618  0.1791  0.0875  0.6452
  831MOL0     O12086   7.270   7.403   8.582 -0.4215  0.5994  0.1160
  831MOL0     C12087   7.214   7.269   8.605 -0.3559 -0.0240  0.2491
  831MOL0     C12088   7.065   7.283   8.604  0.3289 -0.3814  0.9166
  831MOL0     C12089   6.990   7.165   8.666 -0.7692  0.3968 -0.8369
  831MOL0     C12090   6.967   7.152   8.817 -0.4308  0.7174  0.1345
  831MOL0     C12091   6.848   7.061   8.858 -0.2073  0.1340 -0.1619
  831MOL0     C12092   6.714   7.124   8.854 -0.1154 -0.1386 -0.2539
  831MOL0     C12093   6.600   7.043   8.925 -0.9846 -0.4163  0.1654
  831MOL0     C12094   6.466   7.104   8.894 -0.2087 -0.2147 -0.1850
  831MOL0    Cl12095   6.477   7.278   8.904 -0.1369 -0.1196 -0.0429
  831MOL0     C12096   7.442   7.555   8.631  0.5648 -0.2835  0.3231
  831MOL0     C12097   7.576   7.583   8.649  0.1235  0.2847  0.2025
  831MOL0     O12098   7.859   7.388   8.485 -0.5063  0.7934  0.0909
  831MOL0     C12099   8.073   7.605   8.661  0.0943 -0.3313 -0.3067
  831MOL0     C12100   8.198   7.634   8.689 -0.2466  0.6610 -0.1101
  831MOL0     N12101   8.839   8.047   8.912  0.0665  0.0439  0.1876
  831MOL0     N12102   8.922   8.113   8.986 -0.1330 -0.0070  0.2362
  831MOL0     C12103   9.945   7.794   9.580  0.0346  0.3897 -0.3080
  831MOL0     C12104  10.062   7.728   9.613 -0.1231 -0.4940 -0.1713
  831MOL0     C12105  10.513   7.716   9.727  0.5334 -0.3043 -0.0236
  831MOL0     C12106  10.644   7.762   9.706 -0.6812 -0.4225  0.6976
  831MOL0     C12107  10.753   7.690   9.715 -0.3629 -0.1643  0.2845
  831MOL0     C12108  10.744   7.558   9.770 -0.2089 -0.3572  0.4415
  831MOL0     O12109  10.848   7.481   9.812  0.0748  0.0665  1.0737
  831MOL0     C12110  10.982   7.506   9.777  0.4412 -0.1164  0.5592
  831MOL0     C12111  11.077   7.447   9.879 -0.6281 -0.4065 -0.0010
  831MOL0     C12112  11.226   7.472   9.844  0.4603 -0.0363 -0.8011
  831MOL0     C12113  11.327   7.402   9.936  0.4951 -0.1045 -0.5540
  831MOL0     C12114  11.459   7.423   9.881 -0.6259 -0.6740 -0.1729
  831MOL0     C12115  11.559   7.470   9.825 -0.2064  0.7179  0.3921
  831MOL0     C12116  10.618   7.503   9.775 -0.4148 -0.7140 -1.0200
  831MOL0     C12117  10.505   7.576   9.748 -0.4347 -0.3295 -0.3773
  831MOL0     H12118  10.196   7.977   9.810 -0.1206  0.8337 -0.3599
  831MOL0     H12119   9.973   8.086   9.741 -2.1348  0.1295 -0.9369
  831MOL0     H12120   9.775   8.132   9.704 -0.9344 -1.0056  0.2592
  831MOL0     H12121   9.849   8.167   9.545  0.4977 -0.8220  0.1217
  831MOL0     H12122   9.566   8.075   9.592  0.6377  1.2473  1.8074
  831MOL0     H12123   9.610   8.239   9.598 -2.5842 -1.2394  2.9913
  831MOL0     H12124   9.720   8.190   9.345 -1.0966 -0.1722 -1.4758
  831MOL0     H12125   9.657   8.032   9.374 -2.6454 -0.7386  1.1759
  831MOL0     H12126   9.465   8.251   9.414  0.2654  0.6291 -1.2425
  831MOL0     H12127   9.518   8.234   9.247 -4.3943 -0.6606 -1.1986
  831MOL0     H12128   9.464   7.993   9.260  2.9142  0.9860  0.9842
  831MOL0     H12129   9.387   8.011   9.421 -2.8601 -0.6061 -1.0287
  831MOL0     H12130   9.230   8.167   9.349  0.7721  1.7137  0.3239
  831MOL0     H12131   9.303   8.188   9.197  2.6099 -0.9003  0.4434
  831MOL0     H12132   9.206   8.003   9.090 -0.5286 -2.4195 -0.8812
  831MOL0     H12133   9.178   7.919   9.253  3.6877  0.9113  1.7977
  831MOL0     H12134   9.041   8.179   9.194 -0.0960 -0.2947  1.7174
  831MOL0     H12135   8.980   8.046   9.285 -2.2386  2.8151 -1.0908
  831MOL0     H12136   8.925   7.817   9.126  2.3573 -0.3452 -0.9247
  831MOL0     H12137   8.776   7.795   8.790 -0.7841 -1.4579 -0.1522
  831MOL0     H12138   8.721   7.717   8.930  0.1397  1.1931  2.0236
  831MOL0     H12139   8.591   7.972   8.837 -1.0265 -0.6675  0.0153
  831MOL0     H12140   8.540   7.852   8.958  1.6040 -2.0784  0.2649
  831MOL0     H12141   8.559   7.795   8.655 -1.6549 -0.7715 -1.9412
  831MOL0     H12142   8.409   7.831   8.753 -0.4186 -2.3896  2.2273
  831MOL0     H12143   8.390   7.640   8.852  0.2417  0.7105  0.1438
  831MOL0     H12144   8.558   7.591   8.818 -2.7045 -3.8492 -1.0742
  831MOL0     H12145   8.360   7.411   8.496 -0.6257 -3.0973  1.8719
  831MOL0     H12146   8.042   7.378   8.328 -1.8099  0.8572  1.4282
  831MOL0     H12147   8.209   7.326   8.337  1.1759  0.8027  2.0556
  831MOL0     H12148   8.083   7.244   8.438  2.3562  0.3824  2.5210
  831MOL0     H12149   7.706   7.271   8.649 -1.0699  0.4028 -2.1201
  831MOL0     H12150   7.468   7.212   8.603  0.2733  0.4704 -0.4825
  831MOL0     H12151   7.266   7.196   8.542  2.3937  0.7296  1.5098
  831MOL0     H12152   7.233   7.246   8.710  3.2132  2.2432  0.2625
  831MOL0     H12153   7.042   7.373   8.662 -1.1207  2.2527 -3.2970
  831MOL0     H12154   7.026   7.315   8.507  1.5932  2.2042  1.1688
  831MOL0     H12155   7.039   7.074   8.632  0.7983  0.3282  1.4097
  831MOL0     H12156   6.891   7.171   8.620 -1.6795 -0.6803  0.8538
  831MOL0     H12157   7.057   7.111   8.863 -0.2072  0.6516 -0.3529
  831MOL0     H12158   6.955   7.254   8.855  1.4840 -0.0456  3.0697
  831MOL0     H12159   6.887   7.026   8.954  0.0417  1.9732  0.4409
  831MOL0     H12160   6.832   6.971   8.798 -3.4692  0.1566  0.4646
  831MOL0     H12161   6.731   7.221   8.902  1.8980 -0.4336 -0.2838
  831MOL0     H12162   6.682   7.155   8.754 -1.1624  2.1169  0.6948
  831MOL0     H12163   6.619   7.029   9.032  0.9283  1.1200  0.0825
  831MOL0     H12164   6.600   6.937   8.897 -2.2979 -0.3725 -0.0794
  831MOL0     H12165   6.389   7.063   8.960 -1.2222 -0.9888 -1.7859
  831MOL0     H12166   6.432   7.088   8.791 -2.9356 -2.4753  0.9475
  831MOL0     H12167   7.374   7.637   8.611 -0.9939 -1.7280 -0.4756
  831MOL0     H12168   7.603   7.688   8.640 -0.6504  0.4806  0.0532
  831MOL0     H12169   8.007   7.665   8.722 -0.4266 -0.5616 -0.6302
  831MOL0     H12170   8.227   7.713   8.757  1.8401 -0.8781  0.8960
  831MOL0     H12171   9.874   7.748   9.512  0.2599  0.3955 -0.5480
  831MOL0     H12172  10.082   7.627   9.578 -1.6708  0.3869 -4.2375
  831MOL0     H12173  10.668   7.865   9.680  0.1038 -0.5148  1.0344
  831MOL0     H12174  10.854   7.726   9.697 -0.6896  1.3952  1.4368
  831MOL0     H12175  11.013   7.473   9.677 -1.9915  1.7678 -0.9467
  831MOL0     H12176  11.002   7.614   9.774  2.9771 -0.5445 -0.0749
  831MOL0     H12177  11.062   7.339   9.885 -1.8570 -0.2582 -0.2352
  831MOL0     H12178  11.059   7.498   9.973  1.6552 -0.1691  0.3707
  831MOL0     H12179  11.244   7.577   9.868  0.4623 -0.0665 -0.6687
  831MOL0     H12180  11.251   7.443   9.742  2.8213  1.3803 -0.6927
  831MOL0     H12181  11.322   7.293   9.948 -2.0815  0.0284  0.2169
  831MOL0     H12182  11.331   7.434  10.040  0.2901  1.1618 -0.9218
  831MOL0     H12183  11.659   7.489   9.791  0.3669 -0.5353  1.3105
  831MOL0     H12184  10.598   7.401   9.807 -2.3474  0.5225  2.2839
  831MOL0     H12185  10.410   7.524   9.756 -0.1389 -0.7586  0.4548
  832MOL0     O12186   3.358   6.776   6.035  0.1693 -0.6252 -0.5989
  832MOL0     C12187   3.377   6.851   6.127 -0.1418  0.0170 -0.2373
  832MOL0     O12188   3.283   6.907   6.209  0.1380  0.1198  0.4835
  832MOL0     C12189   3.152   6.880   6.193  0.1797 -0.1754  0.4075
  832MOL0     C12190   3.084   6.948   6.094 -0.2114  0.7272  0.7176
  832MOL0     C12191   2.946   6.927   6.084 -0.0051  0.6605  1.6529
  832MOL0     C12192   2.875   6.838   6.170 -0.3763  1.0082  0.8205
  832MOL0     O12193   2.734   6.827   6.160  0.0151  0.3919  0.3046
  832MOL0     C12194   2.665   6.713   6.213 -0.6342 -0.1001  1.0696
  832MOL0     C12195   2.526   6.702   6.162  0.1602 -0.1783  0.6592
  832MOL0     C12196   2.438   6.801   6.237  0.0121 -0.5050 -0.5606
  832MOL0     C12197   2.295   6.829   6.187 -0.1756 -0.2018 -0.5628
  832MOL0     C12198   2.195   6.714   6.201  0.4390  0.5166 -0.4493
  832MOL0     C12199   2.045   6.762   6.195 -0.3741  0.2247  0.1600
  832MOL0     C12200   1.956   6.634   6.210 -0.5607 -0.8236  0.2592
  832MOL0     C12201   1.804   6.664   6.221 -1.0896  0.3475  0.2154
  832MOL0     N12202   1.759   6.748   6.112  0.2610  0.1555 -0.4706
  832MOL0     C12203   1.732   6.709   5.986  0.0073 -0.3550 -0.1016
  832MOL0     C12204   1.658   6.804   5.929 -0.4722  0.7576 -0.0403
  832MOL0     C12205   1.579   6.780   5.807 -0.2673 -0.9662 -0.1594
  832MOL0     C12206   1.437   6.712   5.836  0.2824  0.0190  0.1691
  832MOL0     C12207   1.354   6.761   5.958  0.0576  0.3071  0.3669
  832MOL0     C12208   1.213   6.725   5.926  0.2459 -0.3354  0.5715
  832MOL0     O12209   1.140   6.787   6.036 -1.0463  0.0899  0.0616
  832MOL0     C12210   1.005   6.781   6.046  0.6234  0.1155 -0.0180
  832MOL0     C12211   0.950   6.836   6.162  0.1081 -0.2461  0.5102
  832MOL0     C12212   0.805   6.839   6.180  0.7889  1.3135  0.2003
  832MOL0     C12213   0.755   6.919   6.299  0.1701 -0.8156 -0.1335
  832MOL0     C12214   0.728   6.771   6.089 -0.0904  0.3464 -0.1998
  832MOL0     C12215   0.575   6.764   6.085 -1.3076 -0.2107  0.4176
  832MOL0     O12216   0.515   6.675   6.011  0.3962  0.2419  0.0314
  832MOL0     C12217   0.376   6.676   6.001 -0.3634 -0.2135 -0.3993
  832MOL0     C12218   0.284   6.622   6.092 -0.4542 -0.3630 -0.3387
  832MOL0     C12219   0.147   6.645   6.087 -0.1251 -0.0122 -0.1765
  832MOL0     C12220   0.098   6.726   5.986 -0.1733  0.9635 -0.4757
  832MOL0     O12221  -0.038   6.747   5.967 -0.1594 -0.9217  0.0639
  832MOL0     C12222  -0.091   6.702   5.844  0.6373 -0.2602  0.0223
  832MOL0     C12223  -0.245   6.736   5.837 -0.1347 -0.4567  0.6073
  832MOL0     C12224  -0.301   6.694   5.697 -0.6713  0.9140  0.6701
  832MOL0     C12225  -0.438   6.749   5.671 -0.3373  0.0892 -0.2894
  832MOL0     C12226  -0.480   6.743   5.525  0.3490 -0.2005 -0.2645
  832MOL0     C12227  -0.475   6.595   5.478  0.2388  0.6495  0.0812
  832MOL0     C12228  -0.583   6.504   5.519 -1.4378  0.5334 -0.1766
  832MOL0     C12229  -0.696   6.526   5.432  0.5505 -0.3006  0.5098
  832MOL0    Cl12230  -0.811   6.390   5.455  0.3445  0.0593 -0.2513
  832MOL0     C12231   0.190   6.794   5.896 -0.3639  0.8506 -0.5476
  832MOL0     C12232   0.329   6.763   5.905  0.5980 -0.5084 -0.1484
  832MOL0     O12233   0.524   6.854   6.151  0.5912  0.2145 -0.2799
  832MOL0     C12234   0.791   6.705   5.981 -0.2480 -0.6667 -0.0926
  832MOL0     C12235   0.929   6.710   5.957 -0.4279  0.0192  0.4828
  832MOL0     N12236   1.634   6.902   6.026 -0.0376 -0.4601 -0.1191
  832MOL0     N12237   1.686   6.870   6.137  0.0614  0.5487  0.1567
  832MOL0     C12238   2.940   6.778   6.272  0.1517 -0.4695 -0.9172
  832MOL0     C12239   3.081   6.794   6.279  0.2907 -0.1955 -0.5345
  832MOL0     C12240   3.511   6.891   6.166 -0.5839  0.7275  0.1507
  832MOL0     C12241   3.526   6.988   6.258 -0.4428  1.1540 -0.4033
  832MOL0     C12242   3.654   7.014   6.317 -0.2878  0.7266 -0.0934
  832MOL0     C12243   3.774   6.957   6.269 -0.4263 -0.1918 -0.1927
  832MOL0     O12244   3.885   6.999   6.336 -0.1489 -0.1653  0.3804
  832MOL0     C12245   4.009   6.996   6.262 -0.6961  0.2020 -0.4399
  832MOL0     C12246   4.125   7.063   6.348  0.0031 -0.9155  0.1722
  832MOL0     C12247   4.259   7.040   6.268 -0.3588 -0.3874 -0.6685
  832MOL0     C12248   4.384   7.068   6.354 -0.5138 -0.7898 -1.1311
  832MOL0     C12249   4.498   7.016   6.279 -0.1908 -0.5659 -0.3123
  832MOL0     C12250   4.573   6.962   6.210 -1.0206  0.4935  0.1421
  832MOL0     C12251   3.756   6.860   6.165  0.3121  0.7036  0.1906
  832MOL0     C12252   3.630   6.836   6.109  0.1063  0.5454 -0.0406
  832MOL0     H12253   3.146   7.021   6.045  2.1178  0.1708  2.6463
  832MOL0     H12254   2.887   6.983   6.012  1.0301 -0.8128 -0.4472
  832MOL0     H12255   2.708   6.618   6.181 -1.1976  0.5110 -1.7111
  832MOL0     H12256   2.677   6.716   6.322 -0.5666  1.3032  1.0414
  832MOL0     H12257   2.532   6.728   6.056 -0.3859 -0.4094  0.5682
  832MOL0     H12258   2.483   6.601   6.156  3.9180 -1.8860 -1.1199
  832MOL0     H12259   2.437   6.778   6.344 -1.0394  0.5507 -0.3286
  832MOL0     H12260   2.485   6.899   6.241  1.7364 -1.3283  1.5659
  832MOL0     H12261   2.263   6.916   6.246  0.3312 -0.3122 -0.1250
  832MOL0     H12262   2.297   6.860   6.081  1.8449  1.6133 -0.0632
  832MOL0     H12263   2.230   6.625   6.148 -1.3092 -0.3560 -0.2129
  832MOL0     H12264   2.198   6.671   6.302 -1.4826 -0.8463 -0.9384
  832MOL0     H12265   2.021   6.836   6.272 -0.3053  1.6617 -1.1648
  832MOL0     H12266   2.019   6.806   6.099 -3.9004 -0.1038  0.8233
  832MOL0     H12267   1.976   6.568   6.125  1.2649 -0.0686  0.0615
  832MOL0     H12268   1.989   6.578   6.299  0.4182 -0.3415  0.2163
  832MOL0     H12269   1.792   6.716   6.317 -0.2352 -1.9647  1.6428
  832MOL0     H12270   1.742   6.575   6.234 -0.0630 -0.3115  0.8080
  832MOL0     H12271   1.750   6.616   5.933 -0.4571  0.7312 -2.2653
  832MOL0     H12272   1.570   6.868   5.742 -1.9659 -0.6809  0.4146
  832MOL0     H12273   1.623   6.710   5.735  1.0182  0.5018 -0.8620
  832MOL0     H12274   1.458   6.605   5.848 -2.1146 -0.7666 -1.7355
  832MOL0     H12275   1.369   6.706   5.751  0.0326 -2.5442  0.4890
  832MOL0     H12276   1.357   6.869   5.973 -0.4885  0.3410  0.2507
  832MOL0     H12277   1.399   6.706   6.041  0.1364 -1.4242 -0.7511
  832MOL0     H12278   1.211   6.616   5.930 -2.8166 -0.3353  1.3073
  832MOL0     H12279   1.179   6.746   5.824  0.5345  0.3716  0.6138
  832MOL0     H12280   1.016   6.894   6.226 -1.8363  0.7429  1.7340
  832MOL0     H12281   0.711   6.844   6.365  2.1221 -1.2666  0.7055
  832MOL0     H12282   0.830   6.964   6.364  0.5529  2.2307 -2.4135
  832MOL0     H12283   0.683   6.995   6.266 -0.8735 -1.4717  0.5777
  832MOL0     H12284   0.331   6.556   6.165  2.1560  1.6481 -0.0874
  832MOL0     H12285   0.071   6.614   6.158  0.3765  1.4758  1.0782
  832MOL0     H12286  -0.045   6.744   5.754 -0.6097  0.9158 -0.0951
  832MOL0     H12287  -0.081   6.593   5.840  0.9289 -0.4429  3.0779
  832MOL0     H12288  -0.301   6.679   5.912  1.7357 -2.2303  0.7163
  832MOL0     H12289  -0.254   6.845   5.845  1.5633 -0.0526 -1.8551
  832MOL0     H12290  -0.302   6.585   5.689 -0.5743  0.9121  0.6810
  832MOL0     H12291  -0.233   6.732   5.620 -1.4406  0.4886 -0.2449
  832MOL0     H12292  -0.509   6.683   5.723  2.2607 -1.4194  1.5980
  832MOL0     H12293  -0.444   6.853   5.703  1.0951  0.3137 -0.6896
  832MOL0     H12294  -0.416   6.800   5.457  0.2343 -0.3096 -0.4668
  832MOL0     H12295  -0.584   6.777   5.515  0.0073 -1.4065 -1.0605
  832MOL0     H12296  -0.478   6.614   5.370  0.6409  0.7138  0.0798
  832MOL0     H12297  -0.380   6.542   5.490  2.4789  4.6958  2.6177
  832MOL0     H12298  -0.606   6.525   5.624  0.9644 -1.4427  0.8720
  832MOL0     H12299  -0.545   6.402   5.505  1.4787  1.6649 -1.3489
  832MOL0     H12300  -0.657   6.526   5.329  0.1179 -1.7210  0.3148
  832MOL0     H12301  -0.754   6.615   5.456 -2.2897 -1.6698 -0.8132
  832MOL0     H12302   0.156   6.859   5.816  0.4249 -0.4168 -1.9534
  832MOL0     H12303   0.402   6.809   5.839  1.2305  0.5611  1.2339
  832MOL0     H12304   0.745   6.635   5.912 -0.4007  0.3899 -1.0913
  832MOL0     H12305   0.968   6.656   5.871 -2.6019  0.6368 -0.9861
  832MOL0     H12306   2.891   6.725   6.353 -0.4140 -0.6092 -1.3491
  832MOL0     H12307   3.139   6.743   6.355  0.3222  2.0293  1.0281
  832MOL0     H12308   3.451   7.049   6.306 -0.1472  1.9438 -0.9228
  832MOL0     H12309   3.661   7.095   6.389 -1.2793  0.7889 -0.0606
  832MOL0     H12310   4.033   6.892   6.237  2.4911  0.0283  2.5059
  832MOL0     H12311   3.996   7.051   6.169 -0.4859 -1.7029 -1.6399
  832MOL0     H12312   4.132   7.030   6.452  1.3434  1.5719  0.9488
  832MOL0     H12313   4.106   7.171   6.357 -1.0819 -0.9188 -1.6081
  832MOL0     H12314   4.254   7.108   6.183  2.5127  3.7251  2.0725
  832MOL0     H12315   4.260   6.938   6.229 -1.3989 -0.6986  0.0626
  832MOL0     H12316   4.372   7.013   6.448 -1.7978 -0.6471 -1.1858
  832MOL0     H12317   4.395   7.170   6.391 -1.1360 -0.9693 -0.4091
  832MOL0     H12318   4.656   6.922   6.156 -0.0574  1.6500  0.7096
  832MOL0     H12319   3.841   6.825   6.108 -1.1335  1.5627 -2.6939
  832MOL0     H12320   3.623   6.763   6.028  0.9410 -0.1480  0.4989
  833MOL0     O12321   6.909   5.906   0.627 -0.1493  0.5584 -0.1580
  833MOL0     C12322   6.970   6.015   0.644 -0.7927 -0.1243  0.5055
  833MOL0     O12323   6.912   6.142   0.669 -0.2591  0.1656 -0.8592
  833MOL0     C12324   6.775   6.157   0.668 -0.6390  0.1170  0.4601
  833MOL0     C12325   6.722   6.214   0.782  0.6463 -0.5810  0.3627
  833MOL0     C12326   6.583   6.256   0.783 -0.2494  0.6289  0.4197
  833MOL0     C12327   6.501   6.226   0.676 -0.4179 -0.3891  0.1593
  833MOL0     O12328   6.365   6.259   0.670  0.8195 -0.0066 -0.9166
  833MOL0     C12329   6.301   6.359   0.753 -0.1925 -0.4238  0.2637
  833MOL0     C12330   6.186   6.418   0.681  0.1120 -0.3098 -0.2588
  833MOL0     C12331   6.085   6.318   0.643 -0.6019 -0.4753 -0.1751
  833MOL0     C12332   5.961   6.368   0.588  0.7198 -0.3073  0.2012
  833MOL0     C12333   5.848   6.270   0.566 -0.4379  0.2951 -1.0001
  833MOL0     C12334   5.726   6.321   0.485 -1.2160  0.0217 -0.4262
  833MOL0     C12335   5.653   6.200   0.427  0.5418 -0.5178 -0.2451
  833MOL0     C12336   5.595   6.105   0.531 -0.1708 -0.1906 -0.7757
  833MOL0     N12337   5.506   6.181   0.621 -0.5478  0.1424 -0.4844
  833MOL0     C12338   5.376   6.205   0.580 -0.7130 -0.3435 -0.1296
  833MOL0     C12339   5.322   6.273   0.683 -0.1578 -0.4559 -0.2597
  833MOL0     C12340   5.182   6.332   0.695 -0.2076  0.3605 -0.2574
  833MOL0     C12341   5.075   6.234   0.642 -0.1165  0.0379  0.6651
  833MOL0     C12342   4.936   6.299   0.636  0.3219 -0.7159  0.8141
  833MOL0     C12343   4.896   6.394   0.745  0.0563  0.7515  0.4808
  833MOL0     O12344   4.790   6.471   0.683  0.2333 -0.7499 -0.3976
  833MOL0     C12345   4.664   6.419   0.679 -0.2390  0.2024 -0.3141
  833MOL0     C12346   4.587   6.461   0.572 -0.2990  0.3473  0.8267
  833MOL0     C12347   4.448   6.429   0.565 -0.1752  0.2817  0.1548
  833MOL0     C12348   4.369   6.488   0.448  0.6226  0.1469 -0.1032
  833MOL0     C12349   4.394   6.347   0.660 -0.0944 -0.3143 -0.5099
  833MOL0     C12350   4.251   6.321   0.662 -0.0750  0.1621  1.0585
  833MOL0     O12351   4.177   6.431   0.707  0.4024  0.3672  0.3426
  833MOL0     C12352   4.041   6.406   0.715  0.2184 -0.2144 -0.4433
  833MOL0     C12353   3.966   6.425   0.600 -0.3483  0.7075 -0.4925
  833MOL0     C12354   3.832   6.385   0.607 -0.4977  0.1233  0.2667
  833MOL0     C12355   3.772   6.341   0.724  0.3719  0.0995  0.8028
  833MOL0     O12356   3.640   6.307   0.736 -0.2452  0.1357  0.4789
  833MOL0     C12357   3.557   6.258   0.631  0.1910  0.1545  0.4070
  833MOL0     C12358   3.410   6.291   0.650  0.6321 -0.0347 -0.1918
  833MOL0     C12359   3.345   6.248   0.784  0.0856 -0.6602 -0.2383
  833MOL0     C12360   3.211   6.303   0.792 -0.1335  0.6840 -0.5491
  833MOL0     C12361   3.140   6.282   0.922  0.1594 -0.9360 -0.5068
  833MOL0     C12362   3.095   6.134   0.923  0.7442 -0.1348 -0.1849
  833MOL0     C12363   3.027   6.109   1.053 -0.6504  0.5442 -0.3115
  833MOL0     C12364   3.022   5.967   1.100 -0.0603 -0.3518 -0.2087
  833MOL0    Cl12365   2.925   5.847   0.992  0.0393  0.4897  0.1794
  833MOL0     C12366   3.853   6.337   0.836 -0.6091 -0.2817 -0.8381
  833MOL0     C12367   3.991   6.352   0.827  0.1150  0.1645 -0.2471
  833MOL0     O12368   4.209   6.201   0.643 -0.8536 -0.4861  0.9728
  833MOL0     C12369   4.468   6.308   0.774  0.6615  0.0440  1.2018
  833MOL0     C12370   4.605   6.339   0.779 -0.9489  0.5071 -0.6763
  833MOL0     N12371   5.425   6.289   0.775  0.1353 -0.4454 -0.4917
  833MOL0     N12372   5.531   6.230   0.743  0.8682  0.7342 -0.1891
  833MOL0     C12373   6.556   6.165   0.562  0.2796  1.0198  0.0107
  833MOL0     C12374   6.693   6.130   0.555 -0.8440  0.2757 -0.4985
  833MOL0     C12375   7.118   6.014   0.643 -0.4162  0.0791 -0.6223
  833MOL0     C12376   7.193   5.900   0.614  0.0996 -0.4436 -0.0369
  833MOL0     C12377   7.337   5.916   0.614 -0.7515 -0.0699  0.9545
  833MOL0     C12378   7.403   6.033   0.660 -0.3689  0.8552 -0.2270
  833MOL0     O12379   7.535   6.017   0.674 -0.5383  0.0888 -0.0479
  833MOL0     C12380   7.619   6.136   0.648 -0.8230  0.0876 -1.2901
  833MOL0     C12381   7.766   6.089   0.616 -1.1661 -0.0531  0.2251
  833MOL0     C12382   7.820   5.999   0.727  0.9474  0.2164 -0.4406
  833MOL0     C12383   7.972   6.003   0.747 -1.0263 -0.0492 -0.6448
  833MOL0     C12384   8.013   6.127   0.809  0.0913 -0.2714  0.0354
  833MOL0     C12385   8.055   6.231   0.853  0.5753 -0.4555  0.0292
  833MOL0     C12386   7.323   6.146   0.676  0.5393 -0.6853  0.3689
  833MOL0     C12387   7.185   6.139   0.668 -0.2135 -1.5438 -0.2603
  833MOL0     H12388   6.788   6.237   0.865  2.5456  1.4369 -1.5634
  833MOL0     H12389   6.529   6.303   0.865 -3.7916 -1.3768 -0.5228
  833MOL0     H12390   6.258   6.312   0.841 -1.6128  0.7357  0.2140
  833MOL0     H12391   6.379   6.433   0.776  0.0410 -0.7220  0.4434
  833MOL0     H12392   6.138   6.496   0.740 -2.4711 -1.5089 -0.6382
  833MOL0     H12393   6.210   6.459   0.582 -0.8865 -1.3974 -0.9799
  833MOL0     H12394   6.125   6.246   0.571  1.0701 -1.1745  1.3693
  833MOL0     H12395   6.064   6.269   0.739  1.9323 -0.2291  0.5720
  833MOL0     H12396   5.930   6.457   0.643  0.1166  1.5287 -2.8752
  833MOL0     H12397   5.985   6.401   0.487  1.5624 -2.7037 -0.4461
  833MOL0     H12398   5.891   6.190   0.506  1.5385  0.6086 -0.0623
  833MOL0     H12399   5.814   6.231   0.662 -0.6702 -0.6094 -1.4420
  833MOL0     H12400   5.661   6.374   0.554  2.2506  0.2275  3.0195
  833MOL0     H12401   5.755   6.395   0.410  0.1989  1.3651  1.3731
  833MOL0     H12402   5.576   6.230   0.355 -1.7756 -2.2737  1.3299
  833MOL0     H12403   5.733   6.150   0.372  1.0467  1.2037 -1.1300
  833MOL0     H12404   5.680   6.065   0.587 -0.3332  2.6076  1.6965
  833MOL0     H12405   5.540   6.024   0.483 -1.5022 -0.5638  1.2509
  833MOL0     H12406   5.328   6.161   0.493 -0.8783 -0.9384  0.2535
  833MOL0     H12407   5.158   6.345   0.801  1.7517 -1.3542  0.4655
  833MOL0     H12408   5.190   6.433   0.652 -0.2345  0.3805 -0.2154
  833MOL0     H12409   5.081   6.137   0.693  1.0216  0.6144  1.6734
  833MOL0     H12410   5.102   6.205   0.540 -2.0592 -2.0794  0.6583
  833MOL0     H12411   4.858   6.222   0.634  0.3591 -0.8694  3.1642
  833MOL0     H12412   4.932   6.356   0.543 -1.2823 -0.1422  1.1971
  833MOL0     H12413   4.975   6.462   0.778  0.3425  0.1651  1.0207
  833MOL0     H12414   4.870   6.338   0.835  2.6671  1.0949  1.5488
  833MOL0     H12415   4.627   6.520   0.490 -2.8281 -3.0693 -3.2831
  833MOL0     H12416   4.430   6.550   0.382  0.6205  0.6282  0.3432
  833MOL0     H12417   4.323   6.406   0.392 -0.9968  0.3493  0.8725
  833MOL0     H12418   4.292   6.551   0.493  0.1741 -0.0504 -0.5883
  833MOL0     H12419   4.006   6.480   0.515  2.0596  0.8813  0.6831
  833MOL0     H12420   3.778   6.404   0.514 -1.7357 -1.5182  0.6086
  833MOL0     H12421   3.586   6.300   0.534  0.3908 -0.5031  0.1765
  833MOL0     H12422   3.563   6.149   0.630 -1.6614  0.0229 -0.6496
  833MOL0     H12423   3.388   6.397   0.635 -2.2714 -0.4973  0.1275
  833MOL0     H12424   3.355   6.250   0.564  1.0451 -0.9762 -0.0169
  833MOL0     H12425   3.406   6.270   0.872 -0.8773  1.7882 -0.0918
  833MOL0     H12426   3.336   6.140   0.777  0.4126 -0.6115 -1.8361
  833MOL0     H12427   3.209   6.410   0.770  0.6935  0.4956 -1.6135
  833MOL0     H12428   3.150   6.255   0.715 -0.8497 -0.0695  0.4499
  833MOL0     H12429   3.062   6.358   0.926  0.3486 -0.6715 -1.5120
  833MOL0     H12430   3.206   6.297   1.008 -1.9689 -0.2619  1.1040
  833MOL0     H12431   3.028   6.102   0.842  0.5724  0.4998 -0.2964
  833MOL0     H12432   3.188   6.077   0.916  0.7161 -0.2611  0.4408
  833MOL0     H12433   2.925   6.149   1.049 -1.0150 -0.3397 -0.0940
  833MOL0     H12434   3.079   6.161   1.134 -2.5698 -0.6382  1.7829
  833MOL0     H12435   2.992   5.967   1.206  0.8343 -1.7879  0.0803
  833MOL0     H12436   3.127   5.937   1.104 -0.0823 -0.3853  0.2756
  833MOL0     H12437   3.808   6.296   0.926 -0.3963  1.6176  0.1860
  833MOL0     H12438   4.051   6.341   0.917 -0.3226  0.1066  0.0436
  833MOL0     H12439   4.416   6.259   0.856 -1.0914 -1.6733 -0.8103
  833MOL0     H12440   4.655   6.322   0.874 -1.3169  0.6992 -0.4430
  833MOL0     H12441   6.484   6.148   0.482 -1.5132 -2.0485  2.0236
  833MOL0     H12442   6.734   6.074   0.471  0.1491 -2.0271  1.4024
  833MOL0     H12443   7.159   5.800   0.589  0.1071 -0.3303 -0.5064
  833MOL0     H12444   7.405   5.834   0.594 -0.8381 -0.3763  1.8667
  833MOL0     H12445   7.591   6.189   0.557 -1.8045  0.5112 -0.7442
  833MOL0     H12446   7.613   6.204   0.733 -1.9511  0.2111 -1.4589
  833MOL0     H12447   7.844   6.166   0.613  1.5298 -2.4907  2.0972
  833MOL0     H12448   7.776   6.048   0.515 -3.2025  0.1032 -0.0814
  833MOL0     H12449   7.795   5.897   0.696 -3.5674  1.3059 -1.0133
  833MOL0     H12450   7.761   6.021   0.817  0.7234  1.5528 -0.8955
  833MOL0     H12451   8.017   5.989   0.648  0.1194 -2.7912  0.1584
  833MOL0     H12452   8.005   5.914   0.802  0.7864  0.9236 -0.0799
  833MOL0     H12453   8.103   6.314   0.900 -0.1210  0.0010 -0.0510
  833MOL0     H12454   7.370   6.240   0.703  4.1837 -1.2389 -3.0527
  833MOL0     H12455   7.130   6.225   0.706  0.6848 -0.5650 -1.1217
  834MOL0     O12456   2.609   1.569   6.656 -0.1478 -0.6143 -0.4012
  834MOL0     C12457   2.661   1.660   6.591 -0.7838  0.0706 -0.2224
  834MOL0     O12458   2.589   1.762   6.530  0.3212 -0.5559 -0.1461
  834MOL0     C12459   2.454   1.784   6.536 -0.0334 -0.4169 -0.6531
  834MOL0     C12460   2.358   1.675   6.539  0.5227 -0.5025 -0.1823
  834MOL0     C12461   2.221   1.708   6.537 -0.0761  0.8797  0.4305
  834MOL0     C12462   2.169   1.841   6.531  0.1623  0.3979  0.1138
  834MOL0     O12463   2.038   1.857   6.538  0.0266  0.3816  0.8304
  834MOL0     C12464   1.991   1.949   6.645  0.0627  1.3113 -1.2406
  834MOL0     C12465   1.833   1.918   6.655  0.0465 -0.6738  0.5977
  834MOL0     C12466   1.787   1.925   6.792 -0.3233 -0.7245  0.3562
  834MOL0     C12467   1.656   2.006   6.810  0.7565  0.0339 -0.4278
  834MOL0     C12468   1.524   1.943   6.771 -0.5541 -0.8247  0.5430
  834MOL0     C12469   1.492   1.973   6.622 -0.2613 -0.3168  0.1584
  834MOL0     C12470   1.370   1.900   6.585  0.2434 -0.9773  0.0015
  834MOL0     C12471   1.247   1.946   6.654  0.8527 -0.2933 -0.5586
  834MOL0     N12472   1.120   1.888   6.602 -0.3972 -0.5976 -0.0173
  834MOL0     C12473   1.004   1.882   6.668  0.8144 -0.8101 -0.5750
  834MOL0     C12474   0.912   1.836   6.583  0.1358 -0.2024  0.4949
  834MOL0     C12475   0.778   1.793   6.611 -0.3758  0.0051 -0.8732
  834MOL0     C12476   0.684   1.917   6.638 -0.3315  1.0619  0.0864
  834MOL0     C12477   0.619   1.971   6.517  0.1258 -0.0427 -0.0347
  834MOL0     C12478   0.552   2.098   6.544  0.0863 -0.7146 -0.2204
  834MOL0     O12479   0.430   2.074   6.615 -0.3541  0.2049 -0.9986
  834MOL0     C12480   0.303   2.074   6.552 -0.0891  0.8436 -0.4313
  834MOL0     C12481   0.191   2.065   6.633 -0.3687 -0.1555 -0.3731
  834MOL0     C12482   0.055   2.071   6.587  0.0380 -0.0655  0.3117
  834MOL0     C12483  -0.065   2.037   6.665 -0.2175  0.1657  0.2080
  834MOL0     C12484   0.040   2.091   6.453  0.2133 -0.4392  0.8655
  834MOL0     C12485  -0.090   2.122   6.392 -0.4384 -0.6089  0.5145
  834MOL0     O12486  -0.119   2.059   6.275  0.5592 -0.2593 -0.3527
  834MOL0     C12487  -0.245   2.065   6.214 -0.3134  0.6293  0.2542
  834MOL0     C12488  -0.251   2.069   6.068 -0.4838  0.0395 -0.5380
  834MOL0     C12489  -0.380   2.071   6.008  0.0338  0.3805 -0.2793
  834MOL0     C12490  -0.503   2.072   6.081  0.2226 -0.1516  0.9951
  834MOL0     O12491  -0.616   2.076   6.002 -0.0402  0.0027  0.1722
  834MOL0     C12492  -0.734   2.006   6.050 -0.6620  0.1063  0.4476
  834MOL0     C12493  -0.853   2.052   5.971 -0.0382 -0.3100  0.5804
  834MOL0     C12494  -0.888   2.198   5.998  0.0514 -0.1137  0.3322
  834MOL0     C12495  -0.962   2.227   6.127  0.0861  0.4581 -0.2319
  834MOL0     C12496  -1.042   2.362   6.126  0.2886  0.1828 -0.3794
  834MOL0     C12497  -1.132   2.375   6.246  0.1150  0.3824 -0.5449
  834MOL0     C12498  -1.215   2.503   6.233  0.0561 -0.1721 -0.1833
  834MOL0     C12499  -1.277   2.536   6.366 -0.4607  0.5859 -0.7243
  834MOL0    Cl12500  -1.395   2.405   6.419 -0.2169 -0.0225 -0.3056
  834MOL0     C12501  -0.492   2.057   6.215  0.6785 -0.8234 -0.0783
  834MOL0     C12502  -0.369   2.052   6.282  0.2141  0.7572 -0.4554
  834MOL0     O12503  -0.166   2.205   6.449  0.2085  0.1020  0.5117
  834MOL0     C12504   0.152   2.080   6.367  0.2224  0.6638 -0.1800
  834MOL0     C12505   0.282   2.064   6.417 -0.0081 -0.4975  0.8885
  834MOL0     N12506   0.973   1.822   6.456  0.2412 -0.0818 -0.3163
  834MOL0     N12507   1.096   1.847   6.476 -0.4626  0.0651  0.1390
  834MOL0     C12508   2.263   1.948   6.521 -0.4968 -0.1284 -0.7570
  834MOL0     C12509   2.400   1.918   6.521 -0.4026  0.2332  0.5352
  834MOL0     C12510   2.808   1.669   6.595 -0.0715 -0.2264 -0.2202
  834MOL0     C12511   2.889   1.610   6.686  0.0590  0.0735  1.1557
  834MOL0     C12512   3.029   1.628   6.684 -0.4453  0.2849 -0.3580
  834MOL0     C12513   3.095   1.705   6.590 -0.7514 -0.0679 -0.1508
  834MOL0     O12514   3.225   1.738   6.624  0.0439 -0.2407  0.0323
  834MOL0     C12515   3.318   1.777   6.518  0.1319  0.6910  0.4181
  834MOL0     C12516   3.346   1.662   6.421  1.0833 -0.5213  0.5773
  834MOL0     C12517   3.430   1.552   6.476 -0.0226  1.0888 -0.0655
  834MOL0     C12518   3.576   1.594   6.479 -0.0580 -0.7747 -0.2771
  834MOL0     C12519   3.663   1.479   6.509 -0.4210 -1.1139 -0.3766
  834MOL0     C12520   3.730   1.384   6.532 -0.6454  0.1083 -0.1709
  834MOL0     C12521   3.022   1.773   6.501  0.7737  0.1664  0.1907
  834MOL0     C12522   2.874   1.753   6.507 -0.2243  0.4779 -0.3057
  834MOL0     H12523   2.377   1.568   6.544 -0.3147 -0.6889 -0.7334
  834MOL0     H12524   2.151   1.627   6.553 -1.0092  1.5790 -0.0363
  834MOL0     H12525   2.040   1.947   6.742 -2.3019  2.7482  0.0973
  834MOL0     H12526   2.012   2.045   6.598 -1.7582  0.9578 -2.9585
  834MOL0     H12527   1.786   1.995   6.594  0.1862  0.3810  1.7885
  834MOL0     H12528   1.816   1.821   6.607 -0.2920 -0.1804 -0.2953
  834MOL0     H12529   1.778   1.820   6.824  2.7091 -1.4996 -0.9459
  834MOL0     H12530   1.865   1.981   6.844 -1.0489  1.5959 -0.9189
  834MOL0     H12531   1.661   2.014   6.919  0.8973  0.0687 -0.4359
  834MOL0     H12532   1.662   2.104   6.761  0.7766 -0.8581 -2.3027
  834MOL0     H12533   1.528   1.834   6.779 -1.2644 -0.9229 -0.2876
  834MOL0     H12534   1.450   1.998   6.832 -0.4532  0.7464 -0.6798
  834MOL0     H12535   1.481   2.079   6.597  0.5920 -0.2773 -0.0954
  834MOL0     H12536   1.570   1.930   6.559 -2.2977 -2.0356 -1.3382
  834MOL0     H12537   1.360   1.912   6.477  0.4946  1.5615  0.1995
  834MOL0     H12538   1.370   1.790   6.592 -6.0092 -1.3651 -0.4045
  834MOL0     H12539   1.240   2.055   6.645  2.3236 -0.1150  0.0668
  834MOL0     H12540   1.258   1.912   6.758 -0.1898  0.6763 -0.1040
  834MOL0     H12541   0.981   1.901   6.773  1.2906 -1.0678 -0.4199
  834MOL0     H12542   0.748   1.738   6.521 -0.6073  0.7720 -1.2750
  834MOL0     H12543   0.784   1.730   6.700  1.4438 -0.7010 -1.4448
  834MOL0     H12544   0.747   1.984   6.697  3.3929 -2.2360  0.2462
  834MOL0     H12545   0.602   1.880   6.701 -0.6546 -0.8398 -1.3621
  834MOL0     H12546   0.541   1.902   6.483 -0.4035  0.3332  0.3957
  834MOL0     H12547   0.685   1.979   6.430 -0.8706  2.6625 -0.6426
  834MOL0     H12548   0.532   2.153   6.452 -1.2855  0.9430  1.0272
  834MOL0     H12549   0.623   2.162   6.597  0.3894 -2.4736  1.6154
  834MOL0     H12550   0.211   2.059   6.739 -0.4467  0.8539 -0.2980
  834MOL0     H12551  -0.035   2.024   6.770 -1.5864  0.4273  0.6629
  834MOL0     H12552  -0.137   2.119   6.660 -0.2537  0.1554  0.5339
  834MOL0     H12553  -0.104   1.942   6.627  0.8837 -0.8476  1.5006
  834MOL0     H12554  -0.158   2.068   6.012 -0.1150 -0.8825  0.0626
  834MOL0     H12555  -0.382   2.088   5.901 -1.5439  0.6343 -0.2386
  834MOL0     H12556  -0.710   1.900   6.042  0.5408 -0.0303  3.9860
  834MOL0     H12557  -0.753   2.016   6.158 -0.2555  0.6786  0.4712
  834MOL0     H12558  -0.824   2.049   5.866  3.1278  1.2771  1.2863
  834MOL0     H12559  -0.946   1.996   5.984 -0.9502  1.0395  0.0957
  834MOL0     H12560  -0.954   2.231   5.918  2.2342 -1.0387 -1.9843
  834MOL0     H12561  -0.803   2.267   5.994 -1.2608  1.4966 -1.6485
  834MOL0     H12562  -1.027   2.142   6.148 -0.4060  0.3659 -2.0218
  834MOL0     H12563  -0.884   2.236   6.204  1.1872  0.0191 -1.2704
  834MOL0     H12564  -1.097   2.358   6.031 -2.8298 -1.3466  1.3213
  834MOL0     H12565  -0.973   2.446   6.115  0.2293  0.3436  0.4095
  834MOL0     H12566  -1.200   2.289   6.246 -2.0606  1.9509  1.6558
  834MOL0     H12567  -1.076   2.365   6.340  0.8526 -0.9586 -1.1002
  834MOL0     H12568  -1.298   2.469   6.170 -1.5255 -1.0305  2.2346
  834MOL0     H12569  -1.175   2.588   6.177 -2.0118  0.4061 -0.8443
  834MOL0     H12570  -1.330   2.632   6.366 -0.9867  0.3072 -0.1235
  834MOL0     H12571  -1.199   2.549   6.442 -2.9763  1.3305  1.9215
  834MOL0     H12572  -0.571   2.071   6.288  0.0003 -1.1255 -0.7513
  834MOL0     H12573  -0.350   2.028   6.386  1.7961  0.3151 -0.8129
  834MOL0     H12574   0.124   2.081   6.262 -1.8438  0.6163  0.3169
  834MOL0     H12575   0.370   2.049   6.356 -0.6852  0.3354 -0.3291
  834MOL0     H12576   2.237   2.052   6.506  1.3840  0.2519 -1.6832
  834MOL0     H12577   2.468   2.002   6.516  1.6629 -1.4156 -0.4627
  834MOL0     H12578   2.838   1.547   6.758 -3.3094  3.5715  2.1498
  834MOL0     H12579   3.078   1.566   6.758 -1.3803 -1.0306 -0.8109
  834MOL0     H12580   3.272   1.864   6.470  0.8846  0.3375 -1.0101
  834MOL0     H12581   3.409   1.808   6.570  2.6136 -1.0446 -2.5314
  834MOL0     H12582   3.403   1.695   6.334 -0.0190 -3.3694 -1.3554
  834MOL0     H12583   3.253   1.627   6.375  0.1879  1.7910  0.5148
  834MOL0     H12584   3.425   1.465   6.410  3.6499  2.2818 -2.1904
  834MOL0     H12585   3.409   1.536   6.582  1.8630 -0.7224  0.0832
  834MOL0     H12586   3.592   1.687   6.535 -1.6612  0.4480 -1.7503
  834MOL0     H12587   3.611   1.623   6.380  1.2721 -0.7604  0.1774
  834MOL0     H12588   3.776   1.297   6.575 -0.5830  0.0305 -0.3910
  834MOL0     H12589   3.051   1.846   6.425 -1.8192  0.3442 -0.7413
  834MOL0     H12590   2.810   1.811   6.440 -1.5277  0.2979  0.7442
  835MOL0     O12591   2.264   2.509   9.500 -0.4655  0.4509 -0.8302
  835MOL0     C12592   2.322   2.540   9.396  0.4814  0.0806  0.2234
  835MOL0     O12593   2.261   2.599   9.283  0.1923  0.3144 -0.1254
  835MOL0     C12594   2.124   2.618   9.287 -0.5004 -1.1383 -0.7818
  835MOL0     C12595   2.067   2.604   9.165  0.3233 -0.2860 -0.3032
  835MOL0     C12596   1.926   2.600   9.146 -0.8274 -0.6820  0.6290
  835MOL0     C12597   1.842   2.612   9.254  0.6140 -0.8243 -0.8103
  835MOL0     O12598   1.704   2.591   9.235 -0.6724  0.1448 -0.1948
  835MOL0     C12599   1.624   2.577   9.357 -0.0266 -0.1261 -0.0596
  835MOL0     C12600   1.470   2.566   9.347 -0.3756  0.6455  0.2381
  835MOL0     C12601   1.410   2.691   9.292 -0.1718 -0.1379  0.2952
  835MOL0     C12602   1.267   2.715   9.349  0.5961  0.5133 -0.8214
  835MOL0     C12603   1.200   2.837   9.298 -0.1686  0.8930 -1.4171
  835MOL0     C12604   1.050   2.831   9.341  0.3795  0.2986  0.2265
  835MOL0     C12605   0.984   2.971   9.335  0.2381  0.0395  0.2071
  835MOL0     C12606   0.832   2.978   9.379 -0.6970  0.1648  0.1605
  835MOL0     N12607   0.748   2.882   9.305 -0.2045  0.0993  0.4298
  835MOL0     C12608   0.775   2.854   9.173  0.1244 -0.6487  0.1481
  835MOL0     C12609   0.699   2.750   9.153  0.7017  0.7599 -0.2895
  835MOL0     C12610   0.676   2.670   9.018 -0.6504 -0.0342 -0.4811
  835MOL0     C12611   0.545   2.706   8.940 -0.1581  0.3936  0.6518
  835MOL0     C12612   0.577   2.690   8.790 -0.4590 -0.5559  0.2614
  835MOL0     C12613   0.451   2.715   8.704  0.4487  0.0037  0.4191
  835MOL0     O12614   0.348   2.619   8.736  0.0652 -0.7177  0.5823
  835MOL0     C12615   0.231   2.628   8.664  0.5817  0.5376 -1.0160
  835MOL0     C12616   0.201   2.718   8.570 -0.3132 -0.6148  1.3450
  835MOL0     C12617   0.075   2.728   8.511  0.9800  0.0198 -0.0790
  835MOL0     C12618   0.035   2.854   8.439 -0.5801  0.3045  0.4068
  835MOL0     C12619  -0.025   2.636   8.549  0.0151  0.4081  0.1261
  835MOL0     C12620  -0.161   2.632   8.490 -0.7280 -0.9805  0.8355
  835MOL0     O12621  -0.258   2.592   8.580 -0.1037 -0.3113  0.3683
  835MOL0     C12622  -0.382   2.559   8.532 -0.3626  0.3372 -0.2144
  835MOL0     C12623  -0.448   2.646   8.446  1.0073 -0.1051  0.0122
  835MOL0     C12624  -0.579   2.616   8.400  0.5676  0.5305  0.0862
  835MOL0     C12625  -0.641   2.498   8.440  0.6365 -0.1147 -0.1440
  835MOL0     O12626  -0.775   2.485   8.391 -0.2933  0.6041 -0.3348
  835MOL0     C12627  -0.863   2.389   8.463  0.3340  0.3941  0.0729
  835MOL0     C12628  -0.993   2.376   8.379 -0.1341 -0.1122 -0.6962
  835MOL0     C12629  -1.101   2.277   8.446 -0.4451 -0.0149  0.3845
  835MOL0     C12630  -1.208   2.229   8.349  0.1224  0.0185  0.2632
  835MOL0     C12631  -1.290   2.343   8.291  1.0606  0.2486 -0.3665
  835MOL0     C12632  -1.351   2.441   8.397  1.7803 -0.5322  0.0980
  835MOL0     C12633  -1.429   2.550   8.327 -0.0473  0.5447 -0.2745
  835MOL0     C12634  -1.503   2.637   8.427  0.2011  0.8227  1.5411
  835MOL0    Cl12635  -1.583   2.784   8.338 -0.5046  0.3677 -0.1478
  835MOL0     C12636  -0.576   2.421   8.536  0.2028 -0.0052  0.1704
  835MOL0     C12637  -0.448   2.448   8.580  0.5654 -0.6555 -0.2867
  835MOL0     O12638  -0.173   2.636   8.367 -0.4362 -0.0194  0.1354
  835MOL0     C12639   0.014   2.536   8.637  0.6780 -0.4563 -0.2063
  835MOL0     C12640   0.135   2.537   8.700 -0.3316  0.0210 -0.9050
  835MOL0     N12641   0.646   2.700   9.272 -0.0182 -1.0008  0.8074
  835MOL0     N12642   0.674   2.784   9.363 -0.3479 -0.1657  0.5712
  835MOL0     C12643   1.894   2.646   9.378 -0.0199 -0.1773 -0.7070
  835MOL0     C12644   2.036   2.652   9.396 -0.1967  0.9050  0.7859
  835MOL0     C12645   2.459   2.494   9.380  0.1150  0.0219 -0.0610
  835MOL0     C12646   2.537   2.460   9.491 -0.1638  0.2894 -0.2195
  835MOL0     C12647   2.677   2.428   9.487 -0.1016 -0.2038 -0.4300
  835MOL0     C12648   2.734   2.429   9.360 -0.3308 -0.0678  0.5900
  835MOL0     O12649   2.861   2.391   9.336  0.8774  0.7065  0.4018
  835MOL0     C12650   2.941   2.328   9.431 -0.3780 -0.4794  0.3176
  835MOL0     C12651   3.078   2.266   9.400  0.5187  0.3391 -0.1333
  835MOL0     C12652   3.084   2.209   9.256  0.0993 -0.8319 -0.4514
  835MOL0     C12653   3.222   2.151   9.207  0.2159 -1.1449  0.2197
  835MOL0     C12654   3.310   2.254   9.155  0.5781 -0.4150 -0.1867
  835MOL0     C12655   3.391   2.331   9.119 -0.0385 -0.4259  0.3887
  835MOL0     C12656   2.651   2.460   9.243 -0.6995 -0.2074 -0.6294
  835MOL0     C12657   2.515   2.492   9.256  0.4015  0.3432  0.4512
  835MOL0     H12658   2.126   2.591   9.075  2.9469 -0.1362  1.3062
  835MOL0     H12659   1.887   2.591   9.046 -2.0624  1.2435  0.8829
  835MOL0     H12660   1.651   2.480   9.400 -3.9343 -1.9897 -1.3161
  835MOL0     H12661   1.642   2.669   9.413 -0.0504 -0.6078  0.7486
  835MOL0     H12662   1.446   2.489   9.273 -0.2972  0.9944 -0.1553
  835MOL0     H12663   1.429   2.534   9.443 -1.1417 -2.0323 -0.8995
  835MOL0     H12664   1.475   2.778   9.307  0.1021  0.1341 -2.1761
  835MOL0     H12665   1.391   2.677   9.186  1.5748 -0.6564  0.0174
  835MOL0     H12666   1.219   2.620   9.324 -0.9041  0.8951  0.4376
  835MOL0     H12667   1.279   2.718   9.458  0.6271 -0.8131 -0.7741
  835MOL0     H12668   1.242   2.922   9.353 -0.9049 -0.3802  1.2867
  835MOL0     H12669   1.199   2.857   9.190 -1.4396  2.4490 -1.1529
  835MOL0     H12670   0.997   2.756   9.282  1.5973  1.5000 -2.5876
  835MOL0     H12671   1.040   2.789   9.442  1.5506 -1.6836 -0.4325
  835MOL0     H12672   1.038   3.042   9.399 -2.7771  2.0560  0.6858
  835MOL0     H12673   0.990   3.004   9.231 -2.0481 -2.5882 -0.8699
  835MOL0     H12674   0.789   3.077   9.362  0.1111  1.7631  5.6462
  835MOL0     H12675   0.818   2.959   9.485 -2.7779 -1.4854 -0.3356
  835MOL0     H12676   0.845   2.898   9.102 -0.4773 -2.5198 -1.7057
  835MOL0     H12677   0.767   2.695   8.962 -0.2435  0.4720  0.3759
  835MOL0     H12678   0.675   2.561   9.014  1.0985 -0.1522  0.6783
  835MOL0     H12679   0.502   2.801   8.972  1.1245  0.7906  1.2487
  835MOL0     H12680   0.473   2.629   8.970 -0.5932  0.4798 -0.1217
  835MOL0     H12681   0.622   2.596   8.757 -2.0583 -0.7958 -1.3967
  835MOL0     H12682   0.648   2.769   8.761 -0.2481 -1.3651 -1.5799
  835MOL0     H12683   0.488   2.706   8.602 -0.4788 -0.4132  0.1131
  835MOL0     H12684   0.429   2.822   8.710  3.2287  0.7606 -1.2382
  835MOL0     H12685   0.270   2.787   8.523 -0.5924 -1.5664 -0.5736
  835MOL0     H12686   0.111   2.931   8.455  1.8038 -1.7332 -0.4444
  835MOL0     H12687   0.027   2.835   8.331  1.8352  1.1556  0.0068
  835MOL0     H12688  -0.057   2.901   8.472 -0.7794 -0.2838  0.6902
  835MOL0     H12689  -0.410   2.740   8.405  0.7768 -0.0708 -0.1246
  835MOL0     H12690  -0.632   2.674   8.325 -0.2325 -1.7709 -1.2318
  835MOL0     H12691  -0.804   2.297   8.467  0.9186  0.7341 -0.5068
  835MOL0     H12692  -0.891   2.435   8.558 -3.1171  2.3034 -1.6459
  835MOL0     H12693  -1.037   2.476   8.371 -1.3921 -0.7162 -1.8418
  835MOL0     H12694  -0.957   2.340   8.283  0.8451  0.2793 -0.4861
  835MOL0     H12695  -1.147   2.321   8.535 -0.0482  1.3891 -0.0716
  835MOL0     H12696  -1.054   2.185   8.480 -1.1148 -1.9116 -3.3438
  835MOL0     H12697  -1.151   2.182   8.268  1.0988  0.1085  0.8745
  835MOL0     H12698  -1.261   2.147   8.397 -1.3888  0.7746 -0.0492
  835MOL0     H12699  -1.378   2.300   8.242  0.0173  2.1468 -0.2757
  835MOL0     H12700  -1.236   2.402   8.216  1.4259  0.3120 -0.0577
  835MOL0     H12701  -1.411   2.384   8.467 -1.1164  2.2285  0.1042
  835MOL0     H12702  -1.274   2.495   8.453 -0.1452  0.9176  1.4649
  835MOL0     H12703  -1.510   2.508   8.266 -1.4894  0.4395  1.6390
  835MOL0     H12704  -1.361   2.605   8.261 -0.0837 -1.6620 -2.2930
  835MOL0     H12705  -1.439   2.677   8.506 -0.0146 -0.9771  2.6840
  835MOL0     H12706  -1.581   2.580   8.477 -1.5692  0.3606 -1.4672
  835MOL0     H12707  -0.612   2.324   8.572 -0.5115  0.4144  0.6102
  835MOL0     H12708  -0.392   2.392   8.654  0.0308 -0.2273  0.4542
  835MOL0     H12709  -0.062   2.462   8.661  1.1820 -1.1527 -0.7325
  835MOL0     H12710   0.169   2.471   8.779  3.2546  2.7229  0.0653
  835MOL0     H12711   1.828   2.669   9.462  0.9452  2.7729 -0.6370
  835MOL0     H12712   2.088   2.668   9.490 -0.2148 -1.0665  1.1806
  835MOL0     H12713   2.491   2.459   9.589 -1.2938 -1.7078 -0.7182
  835MOL0     H12714   2.732   2.394   9.574  1.5968 -3.4945 -2.5877
  835MOL0     H12715   2.959   2.394   9.517  1.9313 -1.0305  0.3154
  835MOL0     H12716   2.879   2.243   9.463 -1.7208 -0.3541 -1.7864
  835MOL0     H12717   3.090   2.186   9.474  1.6746  2.2326  1.8365
  835MOL0     H12718   3.159   2.338   9.416 -0.5691  1.2411  1.5719
  835MOL0     H12719   3.051   2.292   9.192  3.5362  1.0447  0.0120
  835MOL0     H12720   3.010   2.128   9.252  0.8274 -1.6189  1.2987
  835MOL0     H12721   3.206   2.077   9.128  1.0284 -2.0002  0.8229
  835MOL0     H12722   3.277   2.099   9.287  1.3976 -1.2388 -0.6289
  835MOL0     H12723   3.468   2.383   9.066 -0.1013 -0.3093  0.4106
  835MOL0     H12724   2.697   2.462   9.145  0.7478 -0.3196  0.0183
  835MOL0     H12725   2.442   2.513   9.179 -2.8685 -2.2746  2.5377
  836MOL0     O12726  11.261  10.055   0.519 -0.3107 -0.3205  0.2650
  836MOL0     C12727  11.283   9.934   0.509 -0.1665  0.2733  0.1065
  836MOL0     O12728  11.189   9.842   0.534  0.1427  0.0281 -0.1027
  836MOL0     C12729  11.056   9.874   0.573  0.4089  0.0626  0.3234
  836MOL0     C12730  10.973   9.959   0.503 -0.1510  0.2878  0.3624
  836MOL0     C12731  10.836   9.976   0.530  0.3783  0.3044 -0.9530
  836MOL0     C12732  10.782   9.902   0.642 -0.2085 -0.1367  0.0987
  836MOL0     O12733  10.654   9.902   0.678  0.2665 -0.9363 -0.6964
  836MOL0     C12734  10.580  10.019   0.651 -0.6302 -0.5554  0.4951
  836MOL0     C12735  10.468  10.028   0.757  0.8039  0.4969 -0.4067
  836MOL0     C12736  10.361  10.121   0.704 -0.2691 -0.6088 -0.1326
  836MOL0     C12737  10.238  10.117   0.793  0.1616  0.3071 -0.0555
  836MOL0     C12738  10.150  10.230   0.740 -1.3697 -0.5840  0.5633
  836MOL0     C12739  10.006  10.216   0.799 -0.2588 -0.0427 -0.1184
  836MOL0     C12740   9.994  10.233   0.954 -0.0880  0.2423 -0.1889
  836MOL0     C12741   9.857  10.199   1.008  0.8629  0.4534  0.6446
  836MOL0     N12742   9.849  10.194   1.158 -0.8840 -0.0519  0.5671
  836MOL0     C12743   9.886  10.086   1.242 -0.6599  0.0385  0.2237
  836MOL0     C12744   9.863  10.123   1.369 -0.0518  0.6003 -0.0127
  836MOL0     C12745   9.877  10.053   1.494 -0.0104 -0.8236 -0.1946
  836MOL0     C12746   9.739  10.005   1.547 -0.6102  0.4220  0.3710
  836MOL0     C12747   9.662  10.121   1.622 -0.0771  0.9362 -0.1422
  836MOL0     C12748   9.531  10.068   1.672  0.0700 -0.1781  0.5927
  836MOL0     O12749   9.536   9.974   1.777  0.0564  0.2988 -0.4069
  836MOL0     C12750   9.412   9.945   1.848 -1.5626 -0.3159  0.0036
  836MOL0     C12751   9.301  10.029   1.853 -0.9919 -0.4642 -0.0582
  836MOL0     C12752   9.189   9.990   1.929 -0.2232  0.2147  0.5127
  836MOL0     C12753   9.060  10.087   1.929 -0.3124 -0.6760 -0.1161
  836MOL0     C12754   9.193   9.864   2.005 -0.3137  0.2476 -0.1665
  836MOL0     C12755   9.066   9.818   2.067  0.1218 -0.6522 -0.4963
  836MOL0     O12756   8.954   9.810   1.986  0.0817 -0.2114  0.8914
  836MOL0     C12757   8.842   9.766   2.046  0.3977  0.1057 -0.3762
  836MOL0     C12758   8.822   9.629   2.071 -0.1395  0.4289 -0.7607
  836MOL0     C12759   8.707   9.582   2.145  0.7353  0.4666  0.0019
  836MOL0     C12760   8.616   9.678   2.190 -0.5642 -0.2019  0.7238
  836MOL0     O12761   8.507   9.652   2.264 -0.4360  0.0619 -0.4053
  836MOL0     C12762   8.434   9.531   2.257 -0.5677 -0.1074 -0.4338
  836MOL0     C12763   8.314   9.549   2.347 -0.5844 -0.7676 -0.0446
  836MOL0     C12764   8.194   9.619   2.283 -0.5506 -0.3034 -0.3802
  836MOL0     C12765   8.078   9.614   2.385 -0.0385 -0.2567 -0.3384
  836MOL0     C12766   7.951   9.684   2.339 -0.2158  0.8177  0.2784
  836MOL0     C12767   7.837   9.679   2.443 -0.6838  0.0967  0.0532
  836MOL0     C12768   7.705   9.741   2.401  0.1608  0.1053  0.8845
  836MOL0     C12769   7.716   9.886   2.351 -0.7358  0.3588  0.3591
  836MOL0    Cl12770   7.773  10.006   2.469  0.2946 -0.8174 -0.3720
  836MOL0     C12771   8.625   9.817   2.141  1.1426 -0.2527  0.0751
  836MOL0     C12772   8.740   9.855   2.078 -0.0553 -0.6953 -0.1431
  836MOL0     O12773   9.071   9.774   2.181 -0.0980 -0.2500  1.3779
  836MOL0     C12774   9.306   9.790   2.006 -0.0841  0.4893 -0.4359
  836MOL0     C12775   9.418   9.826   1.921 -0.4359 -0.0347 -0.3555
  836MOL0     N12776   9.820  10.253   1.354 -0.3682  0.0421 -0.2670
  836MOL0     N12777   9.796  10.285   1.238  0.0861 -0.1455  0.1293
  836MOL0     C12778  10.864   9.817   0.719  0.6084 -0.4768  0.1745
  836MOL0     C12779  11.000   9.807   0.678  0.6214  0.4585 -0.3828
  836MOL0     C12780  11.419   9.893   0.473 -0.7415 -0.6674 -0.3748
  836MOL0     C12781  11.527   9.985   0.445 -0.1055  0.3741 -1.1156
  836MOL0     C12782  11.657   9.936   0.406  0.3836 -0.1223  0.0352
  836MOL0     C12783  11.681   9.801   0.396  0.4015 -1.0197 -0.2566
  836MOL0     O12784  11.812   9.763   0.365 -0.1560 -0.1820 -0.5935
  836MOL0     C12785  11.858   9.649   0.441  0.0870  1.1749 -0.6450
  836MOL0     C12786  12.004   9.641   0.418 -0.1821 -0.3172 -0.0374
  836MOL0     C12787  12.054   9.503   0.474  0.7183  0.0001 -0.1459
  836MOL0     C12788  12.197   9.456   0.455  0.4816 -0.7422  0.3690
  836MOL0     C12789  12.276   9.550   0.549  0.1613 -0.0679 -0.8683
  836MOL0     C12790  12.325   9.629   0.629 -1.2390  0.2855  0.9408
  836MOL0     C12791  11.576   9.716   0.411 -0.0847  0.8865 -0.3623
  836MOL0     C12792  11.443   9.755   0.449  0.0008 -1.1807 -0.1629
  836MOL0     H12793  11.012  10.015   0.419  0.0848  0.6493  0.7113
  836MOL0     H12794  10.776  10.034   0.461 -0.1944  1.5098  0.4788
  836MOL0     H12795  10.642  10.109   0.649 -0.4371 -0.6944 -1.2914
  836MOL0     H12796  10.540  10.010   0.549  1.5505 -1.6835 -0.3232
  836MOL0     H12797  10.450   9.924   0.787 -2.5250  0.7459 -1.1559
  836MOL0     H12798  10.523  10.071   0.840 -0.4126  1.2415  0.0372
  836MOL0     H12799  10.398  10.224   0.700 -2.5590  0.2300 -0.9821
  836MOL0     H12800  10.329  10.084   0.607  1.5299  1.4331 -1.6007
  836MOL0     H12801  10.179  10.026   0.780  1.5135 -0.5236 -0.5841
  836MOL0     H12802  10.253  10.138   0.899 -3.6987 -1.1456  0.9338
  836MOL0     H12803  10.196  10.324   0.770  0.2452 -1.2450  0.2100
  836MOL0     H12804  10.147  10.227   0.631  0.8536  2.7922  0.2767
  836MOL0     H12805   9.935  10.285   0.752  0.2210  1.9837  1.9758
  836MOL0     H12806   9.978  10.111   0.783  2.9997 -0.9848 -0.3415
  836MOL0     H12807  10.059  10.164   1.009 -2.0081 -1.1755  0.4419
  836MOL0     H12808  10.026  10.332   0.986  0.2254 -0.3406  1.4370
  836MOL0     H12809   9.845  10.094   0.979  2.9307  0.7033 -1.4117
  836MOL0     H12810   9.774  10.259   0.969 -0.6208 -0.1126  2.7279
  836MOL0     H12811   9.939   9.994   1.218  1.8635  0.7174  2.6991
  836MOL0     H12812   9.937   9.963   1.481  1.1447 -0.4713  2.1407
  836MOL0     H12813   9.933  10.125   1.554 -0.9450  0.1375 -0.4221
  836MOL0     H12814   9.755   9.914   1.606 -0.9150 -0.7104 -1.2445
  836MOL0     H12815   9.679   9.971   1.463 -2.0428  1.1303  1.0776
  836MOL0     H12816   9.641  10.203   1.553  2.2155 -0.2162 -2.3924
  836MOL0     H12817   9.726  10.155   1.703 -0.1228 -1.0462  0.7945
  836MOL0     H12818   9.468  10.029   1.592 -1.7749  3.1573  0.2182
  836MOL0     H12819   9.470  10.157   1.694 -0.7905 -0.7749  0.6645
  836MOL0     H12820   9.288  10.119   1.794  0.4437  0.6725  1.2472
  836MOL0     H12821   9.095  10.182   1.888 -0.0819 -0.5059  0.4653
  836MOL0     H12822   8.973  10.045   1.877  0.0727 -0.2298 -1.1523
  836MOL0     H12823   9.024  10.100   2.031 -1.3763 -2.1420 -0.2693
  836MOL0     H12824   8.902   9.559   2.047  1.3196  1.9145 -0.4446
  836MOL0     H12825   8.693   9.479   2.177 -3.3746 -0.9420 -4.9255
  836MOL0     H12826   8.406   9.506   2.154  2.8642 -0.5607 -1.3669
  836MOL0     H12827   8.490   9.440   2.282 -0.3122 -0.5824 -2.5522
  836MOL0     H12828   8.286   9.444   2.367 -1.3644 -1.0126 -2.1478
  836MOL0     H12829   8.350   9.595   2.439 -1.2523 -1.6159  0.6684
  836MOL0     H12830   8.168   9.565   2.192  1.1306 -2.0033  0.0652
  836MOL0     H12831   8.217   9.721   2.252  1.2343 -0.6178 -0.2477
  836MOL0     H12832   8.051   9.510   2.407  1.8952 -0.1546  3.2406
  836MOL0     H12833   8.103   9.665   2.478 -1.7517  0.4930 -0.2350
  836MOL0     H12834   7.923   9.634   2.245 -0.0658 -0.9581  1.1248
  836MOL0     H12835   7.977   9.788   2.318  2.6587  0.5487  1.9766
  836MOL0     H12836   7.828   9.573   2.470 -1.9923  0.3815  0.8131
  836MOL0     H12837   7.874   9.734   2.530  0.3771  1.5665 -1.2673
  836MOL0     H12838   7.632   9.738   2.482 -2.2689  0.4539 -1.1464
  836MOL0     H12839   7.651   9.686   2.324 -3.2264  4.2969 -0.1492
  836MOL0     H12840   7.615   9.917   2.324 -1.0430 -0.7397  0.1722
  836MOL0     H12841   7.780   9.893   2.263  0.7563 -1.3764  1.2215
  836MOL0     H12842   8.548   9.887   2.173  0.1471 -0.7793 -1.0742
  836MOL0     H12843   8.751   9.962   2.066  1.9436 -0.9528 -0.9539
  836MOL0     H12844   9.317   9.702   2.069  2.0043  1.7905  1.1355
  836MOL0     H12845   9.507   9.765   1.934  1.2505  2.6718  2.1393
  836MOL0     H12846  10.824   9.750   0.794 -1.6024  0.7287  0.1400
  836MOL0     H12847  11.062   9.733   0.728  0.7368  0.4113 -0.5948
  836MOL0     H12848  11.504  10.091   0.449 -0.3188  0.4606 -3.3234
  836MOL0     H12849  11.723  10.019   0.384  0.6369 -0.0219  1.1169
  836MOL0     H12850  11.852   9.660   0.549 -0.5926  0.0775 -0.5585
  836MOL0     H12851  11.821   9.549   0.417 -0.3383  1.2516 -0.3383
  836MOL0     H12852  12.054   9.720   0.475  0.9828 -2.0392  1.4245
  836MOL0     H12853  12.017   9.639   0.309 -0.5138 -1.7632 -0.0732
  836MOL0     H12854  12.005   9.417   0.426 -2.1459  2.0020 -1.1177
  836MOL0     H12855  12.020   9.501   0.578 -0.6934  1.6012 -0.5375
  836MOL0     H12856  12.226   9.460   0.349 -1.5757 -1.3150 -0.2712
  836MOL0     H12857  12.218   9.353   0.486 -0.0291 -0.9580  0.0085
  836MOL0     H12858  12.377   9.694   0.697 -1.3490 -1.0372  2.3342
  836MOL0     H12859  11.577   9.612   0.380 -0.8730  0.3978  1.1618
  836MOL0     H12860  11.364   9.682   0.444 -0.2863 -0.8564 -0.3653
  837MOL0     O12861   3.997   9.535   5.345 -0.0409 -0.0176 -0.3726
  837MOL0     C12862   4.054   9.440   5.294  0.3825  0.4943  0.0703
  837MOL0     O12863   3.995   9.344   5.207 -0.2420  0.0244 -0.3132
  837MOL0     C12864   3.863   9.346   5.190 -0.0797 -0.3071  0.1165
  837MOL0     C12865   3.783   9.302   5.295  0.8263  0.5896 -0.1736
  837MOL0     C12866   3.643   9.328   5.286  0.2407 -0.0311 -0.0397
  837MOL0     C12867   3.581   9.394   5.179  0.1602 -0.5882 -0.2131
  837MOL0     O12868   3.449   9.399   5.154  0.0364 -0.2490 -0.0094
  837MOL0     C12869   3.354   9.396   5.267 -0.7900 -0.0393 -0.1233
  837MOL0     C12870   3.223   9.417   5.194 -0.2021  0.0523 -0.2968
  837MOL0     C12871   3.105   9.446   5.284  0.9116  0.4472 -0.0037
  837MOL0     C12872   3.006   9.521   5.209 -0.3467  0.0849  0.4060
  837MOL0     C12873   2.872   9.517   5.272  0.0257  0.0458 -0.0956
  837MOL0     C12874   2.768   9.580   5.174 -0.1992 -0.3288  0.7763
  837MOL0     C12875   2.631   9.542   5.212  0.2830  1.0901 -0.2631
  837MOL0     C12876   2.524   9.618   5.124 -0.7566 -0.6016 -0.5715
  837MOL0     N12877   2.396   9.564   5.168 -0.1604  0.6924  0.0421
  837MOL0     C12878   2.339   9.581   5.285 -0.3905  0.2540 -0.3768
  837MOL0     C12879   2.221   9.512   5.281 -0.0770  0.1007  1.1250
  837MOL0     C12880   2.122   9.511   5.384 -0.0244  0.4066  0.1338
  837MOL0     C12881   2.087   9.373   5.437  0.0208 -0.1664 -0.1381
  837MOL0     C12882   1.988   9.377   5.552  0.3273 -0.0380  0.5018
  837MOL0     C12883   1.855   9.428   5.498 -0.2194 -0.1184 -0.4775
  837MOL0     O12884   1.852   9.568   5.484  0.0555 -0.3657 -0.0200
  837MOL0     C12885   1.809   9.645   5.586 -0.3629  0.2552 -0.0568
  837MOL0     C12886   1.787   9.774   5.555  0.2272 -0.0620  0.1199
  837MOL0     C12887   1.724   9.865   5.643  0.4234  0.9268 -0.2772
  837MOL0     C12888   1.702   9.999   5.585  0.2538  0.4945 -0.1979
  837MOL0     C12889   1.684   9.816   5.770  0.5366 -0.2540  0.4525
  837MOL0     C12890   1.594   9.893   5.861  0.0353 -0.1395  0.1325
  837MOL0     O12891   1.537  10.013   5.827  0.0295 -0.6277  0.2857
  837MOL0     C12892   1.452  10.073   5.918  0.3040  0.0621 -0.8463
  837MOL0     C12893   1.318  10.047   5.912  0.4964  0.7028 -0.2107
  837MOL0     C12894   1.226  10.108   5.997 -1.2214 -0.1436 -0.7529
  837MOL0     C12895   1.270  10.196   6.093 -0.5059 -0.9758 -0.0263
  837MOL0     O12896   1.174  10.256   6.167 -0.1032  0.2654 -0.3190
  837MOL0     C12897   1.211  10.364   6.256 -0.1250  0.5884  0.3228
  837MOL0     C12898   1.095  10.415   6.333 -0.1140  0.0141  0.8492
  837MOL0     C12899   1.008  10.301   6.406  0.7393 -0.1214 -0.5413
  837MOL0     C12900   1.068  10.256   6.537 -0.0505  0.0386 -0.0571
  837MOL0     C12901   1.035  10.362   6.655 -0.5912 -0.0404 -0.4133
  837MOL0     C12902   0.915  10.314   6.741 -0.1242  0.3107 -1.2308
  837MOL0     C12903   0.891  10.411   6.857  0.1983 -0.0974 -0.6737
  837MOL0     C12904   0.852  10.339   6.988 -0.6178 -0.5432 -0.2817
  837MOL0    Cl12905   0.700  10.247   6.964  0.2629 -0.1217  0.1906
  837MOL0     C12906   1.410  10.226   6.102 -0.1876 -0.4355  0.5527
  837MOL0     C12907   1.494  10.170   6.002 -0.1842  0.6656  0.5194
  837MOL0     O12908   1.568   9.836   5.962  0.8336  0.0727  0.1237
  837MOL0     C12909   1.720   9.687   5.803 -0.3595  0.3569  0.3114
  837MOL0     C12910   1.786   9.601   5.713 -0.2203 -0.5424 -0.0611
  837MOL0     N12911   2.212   9.457   5.148  0.3851 -0.5372 -0.2483
  837MOL0     N12912   2.321   9.485   5.090  0.1296 -0.0247  0.3381
  837MOL0     C12913   3.659   9.429   5.067  0.6088 -0.8513  0.2575
  837MOL0     C12914   3.802   9.419   5.081 -0.2551  0.4162 -0.4110
  837MOL0     C12915   4.206   9.428   5.333 -0.1650  0.4973 -0.3563
  837MOL0     C12916   4.269   9.532   5.405  0.1678  0.1010 -0.1333
  837MOL0     C12917   4.405   9.534   5.422  0.5027 -0.2169  0.1667
  837MOL0     C12918   4.482   9.422   5.374  0.3297  0.0499  0.0558
  837MOL0     O12919   4.618   9.435   5.398  0.6025 -0.6452 -0.0543
  837MOL0     C12920   4.704   9.322   5.365  0.1294 -0.5204 -0.0772
  837MOL0     C12921   4.849   9.351   5.378 -0.1843  0.0975 -0.1434
  837MOL0     C12922   4.900   9.491   5.330  0.1420 -0.3838  0.1438
  837MOL0     C12923   5.043   9.507   5.388 -0.9385  0.4978  0.4611
  837MOL0     C12924   5.156   9.439   5.313 -0.4753  0.7701 -0.5781
  837MOL0     C12925   5.250   9.397   5.258 -0.2472 -0.2871 -0.1811
  837MOL0     C12926   4.423   9.317   5.301  0.4107  1.2196 -0.2157
  837MOL0     C12927   4.284   9.317   5.291  0.1892  0.1644  0.6114
  837MOL0     H12928   3.827   9.242   5.374 -1.2716 -0.4117  0.3138
  837MOL0     H12929   3.573   9.283   5.355 -0.2230 -1.5652 -1.4249
  837MOL0     H12930   3.343   9.299   5.316 -0.9067  0.2976  0.5263
  837MOL0     H12931   3.370   9.473   5.343 -1.2537 -0.0129 -0.0543
  837MOL0     H12932   3.233   9.502   5.126 -2.5205  0.2858 -0.4057
  837MOL0     H12933   3.207   9.327   5.134  0.1829 -0.0279 -0.2829
  837MOL0     H12934   3.055   9.361   5.330  1.4375  0.7237  1.1201
  837MOL0     H12935   3.131   9.504   5.373 -0.8350  2.5498 -0.7742
  837MOL0     H12936   3.038   9.624   5.190  1.2427 -0.1408  1.6513
  837MOL0     H12937   2.996   9.476   5.110 -0.8904  1.6162 -0.2711
  837MOL0     H12938   2.838   9.415   5.295  0.6941  0.0564  1.0200
  837MOL0     H12939   2.867   9.557   5.374  0.6127 -3.6117  1.5416
  837MOL0     H12940   2.788   9.687   5.171  0.9753 -0.4704  2.3299
  837MOL0     H12941   2.791   9.532   5.078 -2.3244  0.9690 -0.4635
  837MOL0     H12942   2.611   9.435   5.206 -0.6678  1.3164 -1.8612
  837MOL0     H12943   2.618   9.576   5.315 -1.0926  0.6816 -0.2778
  837MOL0     H12944   2.533   9.593   5.017 -0.8122  2.7216 -1.4577
  837MOL0     H12945   2.522   9.726   5.139  0.1574 -0.4092 -1.6980
  837MOL0     H12946   2.372   9.630   5.376  1.7086  0.9200 -1.4208
  837MOL0     H12947   2.167   9.571   5.464  0.9105 -0.5572  0.3651
  837MOL0     H12948   2.035   9.568   5.350 -1.4811 -1.6263  0.3051
  837MOL0     H12949   2.180   9.332   5.478 -0.9121 -0.3321  1.9167
  837MOL0     H12950   2.054   9.306   5.357  2.3896  0.3993 -1.7197
  837MOL0     H12951   2.020   9.448   5.628 -1.8581 -0.6583  2.1253
  837MOL0     H12952   1.970   9.277   5.594 -2.5083 -1.5689 -3.6259
  837MOL0     H12953   1.767   9.394   5.554 -2.2131  2.7554 -1.6383
  837MOL0     H12954   1.846   9.391   5.396  3.0344 -1.8886 -0.2732
  837MOL0     H12955   1.814   9.796   5.452 -3.2203  1.6682 -0.5458
  837MOL0     H12956   1.773  10.036   5.511  0.0361  1.9696  0.2829
  837MOL0     H12957   1.608   9.997   5.530  0.2873 -0.8112 -0.2170
  837MOL0     H12958   1.721  10.081   5.655  0.3204  0.0359  0.3270
  837MOL0     H12959   1.278   9.975   5.841  1.3016  2.5194 -2.6619
  837MOL0     H12960   1.122  10.077   5.993 -1.3097  0.0499 -0.1080
  837MOL0     H12961   1.291  10.343   6.328 -0.1911  2.5044  1.0154
  837MOL0     H12962   1.244  10.448   6.194  2.7359 -1.1345 -0.6470
  837MOL0     H12963   1.126  10.489   6.407  0.7331 -0.4988  1.0214
  837MOL0     H12964   1.040  10.472   6.257 -0.5922  0.9280  1.8661
  837MOL0     H12965   1.000  10.217   6.336 -2.1189  1.1733 -1.9096
  837MOL0     H12966   0.905  10.334   6.422  0.8775  0.7813 -1.4167
  837MOL0     H12967   1.040  10.155   6.570 -0.5933  0.7586  1.8081
  837MOL0     H12968   1.177  10.248   6.526  0.1875  0.5849  1.6197
  837MOL0     H12969   1.015  10.459   6.608  2.3517  0.9106  0.1045
  837MOL0     H12970   1.126  10.363   6.714 -0.7155  0.4442 -0.2292
  837MOL0     H12971   0.823  10.309   6.683 -1.4996  3.8516  0.3648
  837MOL0     H12972   0.944  10.217   6.782  2.2869  1.6929  0.5836
  837MOL0     H12973   0.816  10.491   6.854  2.8357  2.6690  1.0958
  837MOL0     H12974   0.985  10.466   6.868 -0.2917  0.4510  1.1356
  837MOL0     H12975   0.854  10.407   7.073  2.7057 -1.7580  0.7885
  837MOL0     H12976   0.925  10.262   7.017 -0.0428  0.8671  2.2752
  837MOL0     H12977   1.438  10.297   6.179 -1.4656 -0.8527  1.4271
  837MOL0     H12978   1.600  10.188   6.020  0.5778 -2.1587 -0.5774
  837MOL0     H12979   1.697   9.641   5.898 -0.0251  0.8791  0.6472
  837MOL0     H12980   1.786   9.498   5.744  0.5678  0.0504  2.0594
  837MOL0     H12981   3.620   9.467   4.973  1.5729 -1.9098 -0.5958
  837MOL0     H12982   3.873   9.447   5.004  2.1098  0.8988  1.7999
  837MOL0     H12983   4.200   9.603   5.449 -0.6410  1.8228 -3.7345
  837MOL0     H12984   4.447   9.622   5.471  0.5705 -0.6236  0.8461
  837MOL0     H12985   4.677   9.239   5.432  1.7085 -0.4709  0.6658
  837MOL0     H12986   4.681   9.294   5.262 -0.1266  0.2344 -0.2288
  837MOL0     H12987   4.919   9.275   5.340  1.1581  0.6968  1.0481
  837MOL0     H12988   4.861   9.343   5.486  1.0176  1.0044 -0.1858
  837MOL0     H12989   4.831   9.571   5.360 -2.0847 -1.1677 -2.4971
  837MOL0     H12990   4.909   9.498   5.221 -0.7771  2.9671  0.1576
  837MOL0     H12991   5.036   9.466   5.489 -2.5478  0.0582  0.1886
  837MOL0     H12992   5.079   9.608   5.410 -0.2663  0.2471  0.5306
  837MOL0     H12993   5.331   9.375   5.192 -0.3351 -2.9324  0.5122
  837MOL0     H12994   4.476   9.232   5.259  1.7496  2.0576 -0.2985
  837MOL0     H12995   4.235   9.235   5.239 -1.5711  2.1905 -1.1795
  838MOL0     O12996  10.033  10.786   1.147 -0.0256  0.4844 -1.0249
  838MOL0     C12997  10.103  10.739   1.061 -0.5333 -0.0023 -0.6248
  838MOL0     O12998  10.064  10.647   0.966  0.4445  0.6973  0.2853
  838MOL0     C12999   9.928  10.621   0.952 -0.4785 -0.8513 -0.4506
  838MOL0     C13000   9.858  10.659   0.842 -0.6293 -0.3663 -0.1229
  838MOL0     C13001   9.719  10.640   0.841 -0.2408 -0.6892 -0.0121
  838MOL0     C13002   9.644  10.577   0.938 -0.2008 -0.4605  0.4151
  838MOL0     O13003   9.508  10.564   0.919  0.5204  0.4242 -0.8054
  838MOL0     C13004   9.439  10.468   1.000 -0.0102 -0.3153 -1.3706
  838MOL0     C13005   9.308  10.429   0.934  0.1074 -0.3124  0.0432
  838MOL0     C13006   9.238  10.305   0.995 -0.0905  0.1104 -0.2730
  838MOL0     C13007   9.181  10.211   0.894  0.2474 -0.1038  0.4950
  838MOL0     C13008   9.116  10.083   0.950  0.3611  0.3051  0.9771
  838MOL0     C13009   8.969  10.093   0.967 -0.4135 -0.1706 -0.0528
  838MOL0     C13010   8.911   9.959   1.026  0.0651 -0.4544  0.0285
  838MOL0     C13011   8.935   9.939   1.175  0.2920  0.7193 -0.8131
  838MOL0     N13012   8.852   9.825   1.225  0.3141  0.5315  0.2689
  838MOL0     C13013   8.824   9.698   1.175  0.3222  0.0799 -0.7387
  838MOL0     C13014   8.750   9.644   1.279  0.0314  0.0847  0.4600
  838MOL0     C13015   8.679   9.513   1.279 -0.0801  0.1484  0.6766
  838MOL0     C13016   8.529   9.532   1.270  0.1534  0.2870 -0.8141
  838MOL0     C13017   8.445   9.407   1.285 -0.7841 -0.1325 -0.3318
  838MOL0     C13018   8.299   9.426   1.329  0.9635  0.4855  0.1107
  838MOL0     O13019   8.239   9.296   1.325 -0.4699 -0.8520  0.1334
  838MOL0     C13020   8.102   9.309   1.315 -0.4565 -0.4263 -0.8538
  838MOL0     C13021   8.024   9.415   1.333  0.3775  0.2873 -0.7593
  838MOL0     C13022   7.882   9.417   1.330 -0.3932  0.7175  0.4415
  838MOL0     C13023   7.811   9.547   1.349 -0.3002 -0.6083 -0.1822
  838MOL0     C13024   7.815   9.293   1.320  0.3152  0.0010  0.4123
  838MOL0     C13025   7.674   9.273   1.343 -0.1870  0.2884 -0.0893
  838MOL0     O13026   7.636   9.156   1.408 -0.0059  0.0860 -0.2129
  838MOL0     C13027   7.500   9.117   1.416  0.6719 -0.2596 -0.2156
  838MOL0     C13028   7.468   8.997   1.355  0.4745 -0.1627 -0.8435
  838MOL0     C13029   7.342   8.936   1.369 -0.4728  0.1062  0.6383
  838MOL0     C13030   7.241   9.000   1.436 -0.3718  0.3144 -1.4853
  838MOL0     O13031   7.113   8.950   1.448  0.2092  0.2543  0.1428
  838MOL0     C13032   7.064   8.840   1.371  0.0664  0.3076 -0.1531
  838MOL0     C13033   6.911   8.845   1.373 -0.8690 -0.2891 -1.1143
  838MOL0     C13034   6.839   8.980   1.339  0.8539 -0.1116 -0.2428
  838MOL0     C13035   6.823   9.065   1.465  0.4957  0.0661  0.3365
  838MOL0     C13036   6.734   9.183   1.440 -0.3070  0.1306 -0.5775
  838MOL0     C13037   6.713   9.264   1.575  0.8374 -0.2226  0.4681
  838MOL0     C13038   6.601   9.369   1.574  0.0039 -0.0016 -0.0096
  838MOL0     C13039   6.461   9.322   1.602  0.1373 -0.0658  0.5542
  838MOL0    Cl13040   6.337   9.449   1.603 -0.0590  0.0658 -0.3434
  838MOL0     C13041   7.267   9.122   1.502  0.0807 -0.2527  0.1603
  838MOL0     C13042   7.396   9.175   1.488  0.4079 -0.5040  1.4259
  838MOL0     O13043   7.593   9.353   1.299  0.3331  0.1247  0.2864
  838MOL0     C13044   7.893   9.181   1.293  0.3158 -0.3297 -0.7804
  838MOL0     C13045   8.030   9.190   1.296  0.1814  0.0952  0.2887
  838MOL0     N13046   8.739   9.731   1.384  0.2447  0.8956 -0.0563
  838MOL0     N13047   8.795   9.837   1.349 -0.0234 -0.5422 -0.1960
  838MOL0     C13048   9.722  10.546   1.053  0.2247  0.7015 -0.7916
  838MOL0     C13049   9.858  10.567   1.058  0.0429 -0.8096  0.0027
  838MOL0     C13050  10.241  10.786   1.064 -0.2434  0.4979  0.1336
  838MOL0     C13051  10.315  10.795   1.187  0.1652 -0.3543  0.0721
  838MOL0     C13052  10.447  10.831   1.182  0.1455  0.5768  0.3633
  838MOL0     C13053  10.509  10.860   1.062  0.4355  0.2474 -0.4451
  838MOL0     O13054  10.639  10.904   1.062 -0.2260  0.3909 -0.5133
  838MOL0     C13055  10.745  10.813   1.015 -0.2820  0.3238  0.6243
  838MOL0     C13056  10.808  10.754   1.135 -0.7897 -0.3517  0.3520
  838MOL0     C13057  10.762  10.602   1.142 -0.0908  0.2738  0.8943
  838MOL0     C13058  10.813  10.538   1.274 -0.1976 -0.2198 -0.6127
  838MOL0     C13059  10.750  10.422   1.326  0.3441 -0.1923  0.0590
  838MOL0     C13060  10.692  10.318   1.352 -0.5446 -0.1002  0.4127
  838MOL0     C13061  10.442  10.848   0.939  0.4617 -0.4877  0.1069
  838MOL0     C13062  10.311  10.803   0.940  0.9612 -0.0182 -0.1818
  838MOL0     H13063   9.903  10.722   0.766 -2.7268  1.8635  0.3545
  838MOL0     H13064   9.674  10.684   0.752 -1.8660  0.5608  1.3835
  838MOL0     H13065   9.506  10.383   1.014 -0.9684 -0.8596  0.2453
  838MOL0     H13066   9.419  10.525   1.091  5.3942  0.1942 -0.1844
  838MOL0     H13067   9.239  10.512   0.918  1.4471  0.9667  0.6003
  838MOL0     H13068   9.343  10.388   0.838  1.0125  2.4269 -0.8917
  838MOL0     H13069   9.308  10.246   1.056 -1.3548 -2.8779 -1.5272
  838MOL0     H13070   9.151  10.334   1.054 -0.2504 -0.1810 -0.3668
  838MOL0     H13071   9.108  10.259   0.827  0.4944  1.6963  1.4670
  838MOL0     H13072   9.261  10.179   0.827  1.6813  1.4378  1.4081
  838MOL0     H13073   9.132   9.996   0.886 -0.0344 -0.6298  2.0978
  838MOL0     H13074   9.157  10.070   1.051  0.1295  1.0153  1.1710
  838MOL0     H13075   8.938  10.175   1.033 -1.9622 -2.8916  2.9448
  838MOL0     H13076   8.929  10.098   0.865  3.4637  0.3611 -1.6933
  838MOL0     H13077   8.803   9.958   1.008 -0.1471  0.2099  1.1370
  838MOL0     H13078   8.941   9.871   0.968 -1.6767 -2.2228  1.6334
  838MOL0     H13079   8.925  10.025   1.242  2.5328  0.5444 -0.1719
  838MOL0     H13080   9.038   9.908   1.192  0.0190 -0.0303 -0.5007
  838MOL0     H13081   8.840   9.653   1.078 -3.3714  0.8488 -1.8609
  838MOL0     H13082   8.728   9.464   1.194 -1.2233  1.0398 -0.5410
  838MOL0     H13083   8.690   9.459   1.373 -2.8164  0.2326  1.1216
  838MOL0     H13084   8.493   9.570   1.174 -2.1765 -2.4828 -1.1562
  838MOL0     H13085   8.501   9.601   1.349 -3.6519 -2.0653  0.1319
  838MOL0     H13086   8.510   9.344   1.346 -1.2515 -0.0350  0.2741
  838MOL0     H13087   8.435   9.376   1.180 -3.4825 -0.6741  0.0289
  838MOL0     H13088   8.260   9.500   1.259  1.9365  0.1507 -0.8099
  838MOL0     H13089   8.294   9.468   1.430  1.4276  0.2574  0.2342
  838MOL0     H13090   8.078   9.506   1.358  1.1664 -1.1746  3.7381
  838MOL0     H13091   7.875   9.636   1.342 -0.8428 -0.1692  0.3855
  838MOL0     H13092   7.745   9.549   1.261 -0.0798 -0.2766 -0.3461
  838MOL0     H13093   7.754   9.543   1.441  0.1272  1.2559  0.2217
  838MOL0     H13094   7.551   8.949   1.306  0.6409  0.7017 -1.4260
  838MOL0     H13095   7.310   8.848   1.314 -4.7161  2.2872 -0.8643
  838MOL0     H13096   7.084   8.862   1.266 -0.4414 -1.0307 -0.5441
  838MOL0     H13097   7.110   8.745   1.400 -1.5126  0.1588  2.0782
  838MOL0     H13098   6.864   8.772   1.306 -0.1449 -1.3373 -0.5096
  838MOL0     H13099   6.885   8.824   1.477  1.9638  2.8631  0.4356
  838MOL0     H13100   6.738   8.965   1.298  0.6547  2.4556 -0.8432
  838MOL0     H13101   6.909   9.039   1.279  0.5795  1.3461  0.8222
  838MOL0     H13102   6.778   9.005   1.545  0.0306 -0.5285 -0.3571
  838MOL0     H13103   6.913   9.111   1.507  0.3799  1.2840 -0.6978
  838MOL0     H13104   6.635   9.143   1.416  0.0682 -3.3302  2.7327
  838MOL0     H13105   6.759   9.258   1.364  0.5021  1.6411  1.0965
  838MOL0     H13106   6.688   9.193   1.655 -1.3404 -2.0628 -1.6974
  838MOL0     H13107   6.808   9.306   1.610  1.0509 -1.5775  1.6141
  838MOL0     H13108   6.596   9.429   1.482  0.5679  0.5176  0.2919
  838MOL0     H13109   6.618   9.446   1.650 -2.0305  1.4607 -0.9137
  838MOL0     H13110   6.451   9.256   1.689  0.4424 -3.2039 -1.5895
  838MOL0     H13111   6.438   9.257   1.517 -1.5066  0.6931  0.3726
  838MOL0     H13112   7.204   9.178   1.571  1.1029  1.6283 -0.3365
  838MOL0     H13113   7.414   9.267   1.543 -0.7991 -2.0494  4.6931
  838MOL0     H13114   7.852   9.082   1.275 -0.0341 -0.3172 -0.0957
  838MOL0     H13115   8.090   9.100   1.296  0.2950  0.1462  2.2987
  838MOL0     H13116   9.677  10.498   1.139  1.0717  1.7977  0.2919
  838MOL0     H13117   9.902  10.533   1.151  0.6057 -2.4314 -0.8240
  838MOL0     H13118  10.272  10.762   1.281  0.8743 -0.0165  0.5213
  838MOL0     H13119  10.493  10.823   1.280  0.0744 -2.8195  0.2268
  838MOL0     H13120  10.707  10.744   0.940  0.7057  2.8303 -2.3871
  838MOL0     H13121  10.820  10.887   0.984  0.1845 -0.1683  0.5715
  838MOL0     H13122  10.776  10.811   1.222 -1.9643 -0.6277  0.1236
  838MOL0     H13123  10.917  10.757   1.127 -0.5879  0.2082  2.6003
  838MOL0     H13124  10.794  10.538   1.059 -0.6871 -1.8442  2.2013
  838MOL0     H13125  10.653  10.604   1.144 -0.2163 -0.6835 -1.5519
  838MOL0     H13126  10.791  10.614   1.349  0.9268  0.9604 -1.4077
  838MOL0     H13127  10.921  10.522   1.274 -0.3047 -1.3674 -2.7254
  838MOL0     H13128  10.664  10.217   1.376  2.1269 -0.7973  0.9291
  838MOL0     H13129  10.494  10.884   0.851  4.1661  1.1196  2.7059
  838MOL0     H13130  10.257  10.771   0.852 -1.2299 -1.1959  1.4810
  839MOL0     O13131  10.254   5.519   0.126 -0.2592  0.5384  0.3491
  839MOL0     C13132  10.307   5.407   0.139 -0.0546 -0.4847  0.2094
  839MOL0     O13133  10.260   5.301   0.080 -0.1912 -0.2118  0.6584
  839MOL0     C13134  10.149   5.296   0.004 -0.4442  1.2228 -0.8696
  839MOL0     C13135  10.075   5.177   0.015 -0.8800  0.0049  0.1704
  839MOL0     C13136   9.954   5.160  -0.061 -0.1874 -0.0003  0.1244
  839MOL0     C13137   9.915   5.253  -0.151  0.7683 -0.2330  0.3672
  839MOL0     O13138   9.802   5.215  -0.226 -0.7074 -0.5115  0.2574
  839MOL0     C13139   9.743   5.313  -0.309 -0.0834  0.2794 -0.6690
  839MOL0     C13140   9.615   5.251  -0.353  0.3436  0.9537  0.1567
  839MOL0     C13141   9.501   5.354  -0.380 -0.8830  0.6938  0.1477
  839MOL0     C13142   9.371   5.281  -0.391 -0.3469  0.6070 -0.3605
  839MOL0     C13143   9.255   5.380  -0.395 -0.5973 -0.6396  0.2139
  839MOL0     C13144   9.136   5.300  -0.437  0.9529  0.2167 -0.2460
  839MOL0     C13145   9.075   5.221  -0.323 -0.2227  1.0438 -0.2712
  839MOL0     C13146   8.953   5.137  -0.364  0.4057 -0.1583  0.1603
  839MOL0     N13147   8.857   5.208  -0.435  0.8983 -0.0524  0.2390
  839MOL0     C13148   8.834   5.216  -0.575 -0.4606 -0.2631 -0.5693
  839MOL0     C13149   8.720   5.292  -0.587  0.5597  0.3485 -0.1269
  839MOL0     C13150   8.655   5.343  -0.716 -0.1887  0.0588 -0.5604
  839MOL0     C13151   8.500   5.362  -0.701  0.1243 -0.4962 -0.6978
  839MOL0     C13152   8.435   5.409  -0.831  0.2408  0.3469 -0.4857
  839MOL0     C13153   8.293   5.453  -0.814  0.4253 -0.9777 -0.3755
  839MOL0     O13154   8.210   5.338  -0.808 -0.1769  0.0226  0.1579
  839MOL0     C13155   8.074   5.361  -0.802 -0.1723 -0.7061  0.2641
  839MOL0     C13156   8.006   5.475  -0.843  0.8548  0.5983  0.4481
  839MOL0     C13157   7.868   5.480  -0.842  0.2399 -0.5954  0.0136
  839MOL0     C13158   7.811   5.596  -0.913 -0.0470  0.3987 -0.3371
  839MOL0     C13159   7.789   5.372  -0.800  0.0491  0.5693 -0.9280
  839MOL0     C13160   7.639   5.381  -0.793  0.3014  0.5739  0.2065
  839MOL0     O13161   7.572   5.465  -0.881 -0.0045 -0.2388  0.1385
  839MOL0     C13162   7.442   5.497  -0.844  0.6400 -0.8743  0.7364
  839MOL0     C13163   7.414   5.586  -0.733  0.1269 -0.1271  0.8901
  839MOL0     C13164   7.276   5.626  -0.714 -0.3504 -0.1843 -0.1766
  839MOL0     C13165   7.169   5.577  -0.792  0.1033  0.7191  0.3470
  839MOL0     O13166   7.034   5.616  -0.790 -0.1955  0.2193  0.3978
  839MOL0     C13167   6.994   5.678  -0.664  0.1517  0.1260 -0.0406
  839MOL0     C13168   6.848   5.725  -0.658  0.5059 -0.4959  0.5766
  839MOL0     C13169   6.743   5.613  -0.654 -0.0347  0.5308 -0.8232
  839MOL0     C13170   6.602   5.680  -0.645  0.1377 -0.1781  0.0036
  839MOL0     C13171   6.500   5.562  -0.619 -0.2090  0.0729 -0.2805
  839MOL0     C13172   6.352   5.603  -0.605  0.4284 -0.0002 -0.1553
  839MOL0     C13173   6.302   5.669  -0.741  0.1193  0.5905 -0.7683
  839MOL0     C13174   6.161   5.712  -0.732 -0.3993  0.4651  0.0322
  839MOL0    Cl13175   6.146   5.826  -0.596  0.2072  0.3457 -0.5811
  839MOL0     C13176   7.206   5.489  -0.898  0.3046  0.1648 -0.1664
  839MOL0     C13177   7.336   5.453  -0.933 -0.3120  0.2023  0.3170
  839MOL0     O13178   7.581   5.307  -0.718  0.4982  0.2460  0.2410
  839MOL0     C13179   7.863   5.253  -0.765 -0.2332  0.0824  0.2110
  839MOL0     C13180   8.002   5.253  -0.762 -0.0192  1.0254 -0.8298
  839MOL0     N13181   8.667   5.317  -0.463  0.3591  0.5694 -1.0169
  839MOL0     N13182   8.744   5.253  -0.376  0.0406  0.1901  0.2728
  839MOL0     C13183   9.988   5.373  -0.165 -0.1714  0.0256  1.6718
  839MOL0     C13184  10.110   5.391  -0.090 -0.5597  0.0125 -0.4404
  839MOL0     C13185  10.419   5.405   0.232 -0.2152  0.0460  0.4472
  839MOL0     C13186  10.450   5.285   0.298 -0.0187 -0.6279  0.7337
  839MOL0     C13187  10.562   5.281   0.386 -0.4653  0.5825  0.1703
  839MOL0     C13188  10.651   5.393   0.399  0.5822  0.1162 -0.7763
  839MOL0     O13189  10.764   5.383   0.476 -0.4572 -0.1995 -0.0201
  839MOL0     C13190  10.806   5.260   0.536 -0.2127  0.0180 -1.0667
  839MOL0     C13191  10.960   5.272   0.583  0.4901  0.0375 -0.6709
  839MOL0     C13192  10.960   5.332   0.727  0.1501 -0.5654 -0.3657
  839MOL0     C13193  11.100   5.348   0.787  0.1436  0.6165 -0.1209
  839MOL0     C13194  11.180   5.445   0.719 -0.3145 -0.1193  0.8567
  839MOL0     C13195  11.233   5.542   0.667 -0.1119 -0.4199  0.7265
  839MOL0     C13196  10.610   5.508   0.342  1.5338  0.5203  0.1637
  839MOL0     C13197  10.495   5.516   0.264 -0.3478  0.0644 -0.5553
  839MOL0     H13198  10.101   5.102   0.089  1.3313  1.3860  0.8813
  839MOL0     H13199   9.908   5.062  -0.062  0.6102 -0.4106  1.1541
  839MOL0     H13200   9.733   5.408  -0.255  1.3383  0.7658 -1.2192
  839MOL0     H13201   9.810   5.341  -0.390 -0.6406 -0.6122 -1.4637
  839MOL0     H13202   9.625   5.188  -0.441  2.1445 -0.5230  1.3419
  839MOL0     H13203   9.579   5.182  -0.275  1.7912 -0.7287 -0.6057
  839MOL0     H13204   9.489   5.420  -0.294 -1.7153  2.2778 -1.1353
  839MOL0     H13205   9.532   5.410  -0.469  0.2962  0.8082  0.6119
  839MOL0     H13206   9.366   5.212  -0.476  0.8902  1.8625 -1.4899
  839MOL0     H13207   9.348   5.215  -0.307 -1.6331  0.9392 -0.4277
  839MOL0     H13208   9.243   5.421  -0.294  0.9930 -1.1544  0.6473
  839MOL0     H13209   9.293   5.450  -0.470  2.3657 -0.6974  1.4972
  839MOL0     H13210   9.060   5.369  -0.476  0.4794  0.0770  0.4138
  839MOL0     H13211   9.165   5.235  -0.520  0.8004  1.3025 -1.1865
  839MOL0     H13212   9.145   5.146  -0.286 -2.6568 -1.3620 -0.1831
  839MOL0     H13213   9.057   5.283  -0.235  0.0067  1.1636 -0.3077
  839MOL0     H13214   8.904   5.095  -0.276  1.3214 -0.8156  0.3791
  839MOL0     H13215   8.985   5.053  -0.427 -0.7563 -0.7764  0.3806
  839MOL0     H13216   8.904   5.178  -0.648 -1.1072 -1.2178 -0.7161
  839MOL0     H13217   8.700   5.441  -0.740 -1.9907  1.6427  2.0563
  839MOL0     H13218   8.667   5.268  -0.795  0.4835 -2.6284  1.9438
  839MOL0     H13219   8.469   5.435  -0.626 -1.0553 -1.1281 -0.5406
  839MOL0     H13220   8.455   5.264  -0.680  1.5132 -0.8828  0.6495
  839MOL0     H13221   8.448   5.330  -0.906  2.1864 -0.1379  0.2902
  839MOL0     H13222   8.491   5.498  -0.861  0.0209  1.4266  2.0957
  839MOL0     H13223   8.272   5.515  -0.901 -1.2606  1.5537  1.6933
  839MOL0     H13224   8.279   5.514  -0.724 -1.3285 -0.3885 -1.0057
  839MOL0     H13225   8.068   5.559  -0.872 -0.0044  0.9654 -0.3846
  839MOL0     H13226   7.743   5.654  -0.849  1.3753  3.0899 -1.0978
  839MOL0     H13227   7.888   5.664  -0.950 -0.4425 -0.2794 -2.5290
  839MOL0     H13228   7.771   5.567  -1.011  4.0129  1.1085 -2.4331
  839MOL0     H13229   7.491   5.632  -0.672  1.3987 -0.4513 -0.4089
  839MOL0     H13230   7.253   5.681  -0.624 -0.2277  0.7202 -0.6783
  839MOL0     H13231   7.016   5.606  -0.584  0.1056  0.9208  0.7021
  839MOL0     H13232   7.057   5.766  -0.651  1.7800 -1.3062  2.8698
  839MOL0     H13233   6.835   5.783  -0.566  2.5291  1.7098 -0.3982
  839MOL0     H13234   6.820   5.790  -0.742 -2.3437 -0.0622  1.7484
  839MOL0     H13235   6.758   5.561  -0.559  0.7235  3.7058  0.9711
  839MOL0     H13236   6.755   5.546  -0.740 -2.8482 -1.4615  0.1823
  839MOL0     H13237   6.610   5.764  -0.576  1.1903  0.0443 -0.3600
  839MOL0     H13238   6.588   5.728  -0.743 -0.7327  3.0911  1.5956
  839MOL0     H13239   6.527   5.508  -0.528 -1.2933  0.7103  0.4345
  839MOL0     H13240   6.516   5.488  -0.698 -1.4859 -3.2566  2.3155
  839MOL0     H13241   6.288   5.520  -0.575  1.8142 -0.3502  2.0825
  839MOL0     H13242   6.346   5.667  -0.517 -1.0077 -1.0601  0.5612
  839MOL0     H13243   6.325   5.591  -0.814  1.4809  1.1682 -0.9866
  839MOL0     H13244   6.362   5.757  -0.767 -1.4194  1.4470 -1.5394
  839MOL0     H13245   6.097   5.625  -0.712  0.3109 -0.2194 -0.6275
  839MOL0     H13246   6.109   5.748  -0.821 -1.2416  0.7885  0.6372
  839MOL0     H13247   7.131   5.466  -0.973  0.3067  0.4917 -0.2692
  839MOL0     H13248   7.347   5.398  -1.026 -2.6843  1.8949 -1.0888
  839MOL0     H13249   7.807   5.167  -0.732 -0.9829  1.5646  3.0786
  839MOL0     H13250   8.042   5.159  -0.725 -1.3812  0.4602 -0.7553
  839MOL0     H13251   9.956   5.448  -0.237 -0.7410 -0.2433  1.6433
  839MOL0     H13252  10.176   5.475  -0.108  0.6951 -0.1474  2.7590
  839MOL0     H13253  10.383   5.201   0.306 -0.2211 -0.4630  0.7830
  839MOL0     H13254  10.571   5.181   0.428  3.1697  0.3901 -0.7434
  839MOL0     H13255  10.746   5.237   0.626 -1.8343 -0.3179 -2.1866
  839MOL0     H13256  10.799   5.179   0.463  0.4339 -0.1508 -0.9477
  839MOL0     H13257  11.020   5.318   0.504 -1.8074 -1.3859 -3.4350
  839MOL0     H13258  11.000   5.171   0.601  0.6241  0.5178  2.2968
  839MOL0     H13259  10.898   5.271   0.793 -0.0496  0.3246  0.2893
  839MOL0     H13260  10.919   5.433   0.724 -3.3478 -1.8740 -1.1797
  839MOL0     H13261  11.140   5.247   0.801 -4.4056 -1.3929  0.2134
  839MOL0     H13262  11.096   5.389   0.888  1.5348  0.9300 -0.1713
  839MOL0     H13263  11.288   5.624   0.625 -0.4004  1.2448  3.3422
  839MOL0     H13264  10.686   5.583   0.363  2.6894  0.0456 -1.9877
  839MOL0     H13265  10.468   5.612   0.223 -1.9172  0.2288  0.7553
  840MOL0     O13266   2.568   5.527   2.659  0.2059 -0.2373 -0.8604
  840MOL0     C13267   2.622   5.582   2.566  0.3517 -0.6810  0.2090
  840MOL0     O13268   2.562   5.626   2.450  0.3393 -0.4791 -0.3504
  840MOL0     C13269   2.426   5.608   2.429 -0.2333 -0.0754  0.2165
  840MOL0     C13270   2.350   5.495   2.466 -0.2063  0.6381 -1.1980
  840MOL0     C13271   2.219   5.471   2.422 -0.8112  0.0335 -0.9450
  840MOL0     C13272   2.162   5.561   2.330 -0.3897 -0.6656  0.4008
  840MOL0     O13273   2.038   5.544   2.280 -0.6999  0.4151 -0.1094
  840MOL0     C13274   1.963   5.430   2.327  0.3708 -0.1918 -0.5974
  840MOL0     C13275   1.853   5.400   2.225  0.1064  0.3643  0.3515
  840MOL0     C13276   1.731   5.492   2.256 -0.2262 -0.7450 -0.4895
  840MOL0     C13277   1.617   5.457   2.155 -0.5207 -0.0721  0.2282
  840MOL0     C13278   1.495   5.545   2.185 -0.7296  0.5081 -0.0062
  840MOL0     C13279   1.394   5.536   2.065 -0.6259  0.1008 -0.1888
  840MOL0     C13280   1.381   5.397   1.999  0.1464 -0.3461 -0.2300
  840MOL0     C13281   1.314   5.304   2.108  0.4038  0.2174 -0.0324
  840MOL0     N13282   1.175   5.349   2.136  0.5760  0.8002 -0.2005
  840MOL0     C13283   1.066   5.325   2.059 -0.4437  0.2209 -0.3548
  840MOL0     C13284   0.966   5.305   2.155  0.4308  0.1941  0.3607
  840MOL0     C13285   0.833   5.254   2.117  0.7142 -0.2533 -0.4719
  840MOL0     C13286   0.726   5.296   2.219  0.0277 -0.2351 -0.0824
  840MOL0     C13287   0.700   5.453   2.207  0.2669 -0.1296 -0.2721
  840MOL0     C13288   0.563   5.487   2.264 -0.5694 -0.0900 -0.5413
  840MOL0     O13289   0.564   5.632   2.277 -0.4148 -0.4164  0.2191
  840MOL0     C13290   0.449   5.704   2.264 -0.3447  0.0233 -0.4060
  840MOL0     C13291   0.450   5.842   2.294  0.3809  0.9203 -0.1946
  840MOL0     C13292   0.338   5.922   2.279 -0.5121 -0.7084 -1.4294
  840MOL0     C13293   0.346   6.068   2.327 -0.4316 -0.5937  0.2500
  840MOL0     C13294   0.219   5.867   2.228 -0.2212  0.4704 -0.9410
  840MOL0     C13295   0.095   5.942   2.191 -0.5418 -0.1963  0.1423
  840MOL0     O13296   0.119   6.078   2.182  0.2070 -0.1132  0.3204
  840MOL0     C13297   0.012   6.157   2.197  0.0632 -0.5054  0.4440
  840MOL0     C13298  -0.070   6.207   2.089 -0.0401 -0.8059  0.1885
  840MOL0     C13299  -0.185   6.281   2.129  0.3405 -0.0891  0.3074
  840MOL0     C13300  -0.209   6.315   2.261 -0.0609 -0.5384 -0.2447
  840MOL0     O13301  -0.307   6.403   2.302 -0.3303 -0.0374  0.0652
  840MOL0     C13302  -0.423   6.437   2.220  0.5849 -0.1651  0.3681
  840MOL0     C13303  -0.498   6.543   2.296 -0.1033 -0.0862  0.2797
  840MOL0     C13304  -0.619   6.600   2.229  0.3606 -0.5625  0.0170
  840MOL0     C13305  -0.716   6.485   2.195 -0.5848 -0.2596 -0.2612
  840MOL0     C13306  -0.859   6.524   2.198 -0.2969  0.1220  0.3606
  840MOL0     C13307  -0.950   6.418   2.142  0.6114  0.0982  0.0745
  840MOL0     C13308  -1.096   6.470   2.166  0.4911 -0.0709  0.0104
  840MOL0     C13309  -1.210   6.384   2.104 -0.2436  0.0928 -0.2126
  840MOL0    Cl13310  -1.199   6.220   2.180  0.0392 -0.0936  0.0821
  840MOL0     C13311  -0.127   6.266   2.358  0.1023 -0.2723  0.3655
  840MOL0     C13312  -0.020   6.187   2.334 -0.3824 -0.3235 -0.4345
  840MOL0     O13313  -0.010   5.887   2.168 -0.2876 -0.6538  0.3125
  840MOL0     C13314   0.216   5.732   2.207  0.1223  0.2347  0.1721
  840MOL0     C13315   0.325   5.649   2.234  0.5039  0.5082 -0.0926
  840MOL0     N13316   1.012   5.337   2.277 -0.1959  0.4930 -0.1121
  840MOL0     N13317   1.136   5.357   2.268 -0.7858  0.0562 -0.7781
  840MOL0     C13318   2.226   5.684   2.308 -0.0402  0.3669  0.2475
  840MOL0     C13319   2.360   5.703   2.349  0.2354 -0.1725 -0.8903
  840MOL0     C13320   2.769   5.594   2.581  0.1317  0.7956  0.2206
  840MOL0     C13321   2.836   5.531   2.693 -0.5460 -0.0986 -0.4687
  840MOL0     C13322   2.977   5.550   2.698  0.4117 -0.7441 -0.3867
  840MOL0     C13323   3.052   5.604   2.595  0.2466 -0.1337 -0.3626
  840MOL0     O13324   3.183   5.586   2.609 -0.6844  0.7609  0.2999
  840MOL0     C13325   3.269   5.660   2.512  0.0132 -0.4628 -0.2614
  840MOL0     C13326   3.415   5.653   2.555 -0.4133 -0.3559 -0.0800
  840MOL0     C13327   3.460   5.498   2.554  0.1836 -0.8254 -0.0341
  840MOL0     C13328   3.610   5.490   2.605 -0.3946 -0.3528 -0.5368
  840MOL0     C13329   3.623   5.497   2.751  0.7966 -0.2750  0.4724
  840MOL0     C13330   3.623   5.494   2.873 -0.4127 -0.3699 -0.3458
  840MOL0     C13331   2.991   5.660   2.487  0.3224 -0.1556 -0.1780
  840MOL0     C13332   2.849   5.655   2.481 -0.1568  0.7138  0.3102
  840MOL0     H13333   2.399   5.412   2.516 -1.0012  0.6446 -0.3933
  840MOL0     H13334   2.181   5.379   2.463 -0.9727  0.5844  0.1955
  840MOL0     H13335   2.031   5.344   2.331 -0.0192 -0.5048 -0.6568
  840MOL0     H13336   1.919   5.455   2.423 -3.1289 -2.3869 -1.4495
  840MOL0     H13337   1.898   5.414   2.127  0.8688  2.5978  0.9529
  840MOL0     H13338   1.821   5.296   2.227  1.8300 -0.2859 -2.0864
  840MOL0     H13339   1.705   5.480   2.361  3.0424  0.6591  0.6129
  840MOL0     H13340   1.752   5.598   2.242 -2.1789 -0.1351  0.8031
  840MOL0     H13341   1.654   5.482   2.055 -2.8451 -0.3041 -0.7545
  840MOL0     H13342   1.600   5.349   2.150  1.1367 -0.5814  3.2248
  840MOL0     H13343   1.458   5.502   2.279  5.1221 -4.7394  0.5777
  840MOL0     H13344   1.543   5.640   2.207  4.3528 -1.4166 -1.3238
  840MOL0     H13345   1.297   5.576   2.097 -0.2431 -0.5633  1.9957
  840MOL0     H13346   1.441   5.600   1.990  3.3398 -0.0482  1.9098
  840MOL0     H13347   1.317   5.415   1.912  2.2914  0.6922 -1.6761
  840MOL0     H13348   1.480   5.365   1.967  0.9006  0.6150  1.0161
  840MOL0     H13349   1.369   5.300   2.202 -1.4035  3.6733  1.3915
  840MOL0     H13350   1.308   5.200   2.078 -0.2677  0.1361  0.3696
  840MOL0     H13351   1.055   5.298   1.954  0.1821  3.4232 -1.3569
  840MOL0     H13352   0.794   5.289   2.021  1.6319  0.1597 -0.7019
  840MOL0     H13353   0.843   5.145   2.113  4.0096 -0.2195  2.4523
  840MOL0     H13354   0.761   5.292   2.323 -0.3513  2.8753  0.2665
  840MOL0     H13355   0.633   5.243   2.194 -1.1170  1.8769 -0.5705
  840MOL0     H13356   0.702   5.488   2.103  0.7888  1.1964  0.1595
  840MOL0     H13357   0.770   5.508   2.271 -0.2440 -2.3569  2.3574
  840MOL0     H13358   0.561   5.444   2.365 -2.1375  1.0088 -0.0566
  840MOL0     H13359   0.486   5.451   2.195 -0.4250  0.9700 -1.2676
  840MOL0     H13360   0.541   5.896   2.315  1.5474 -1.1545  0.3658
  840MOL0     H13361   0.436   6.079   2.388 -1.8390  0.2590  2.3080
  840MOL0     H13362   0.350   6.136   2.242 -2.5645 -0.9445 -0.2048
  840MOL0     H13363   0.260   6.093   2.390  0.3038  0.4725  0.8593
  840MOL0     H13364  -0.043   6.172   1.990 -0.3959  2.7454 -1.3109
  840MOL0     H13365  -0.253   6.323   2.056  2.7415 -2.3852 -3.5942
  840MOL0     H13366  -0.391   6.483   2.126  2.7767 -0.5051  0.8694
  840MOL0     H13367  -0.490   6.353   2.202 -2.7702  2.3175  0.3468
  840MOL0     H13368  -0.537   6.501   2.389 -0.4084  0.1807  0.2760
  840MOL0     H13369  -0.425   6.623   2.313 -2.4497  2.2744  0.0460
  840MOL0     H13370  -0.589   6.663   2.144 -0.5249  0.1247  0.1938
  840MOL0     H13371  -0.663   6.667   2.304  2.4494  0.5463  0.3264
  840MOL0     H13372  -0.686   6.439   2.101  2.7676 -1.1975  1.1173
  840MOL0     H13373  -0.707   6.410   2.274 -0.3792  1.6281  1.6107
  840MOL0     H13374  -0.864   6.609   2.129  0.0979 -0.9284 -1.0265
  840MOL0     H13375  -0.883   6.551   2.301  0.7068  2.3745  0.0506
  840MOL0     H13376  -0.940   6.400   2.034  1.8193 -0.4691  0.2644
  840MOL0     H13377  -0.931   6.321   2.189 -1.1188 -0.1317  0.3676
  840MOL0     H13378  -1.106   6.566   2.113  2.2060  0.4741  0.5823
  840MOL0     H13379  -1.112   6.481   2.273 -2.7387 -1.8723 -0.1627
  840MOL0     H13380  -1.200   6.366   1.997 -1.8456  2.2321 -0.7927
  840MOL0     H13381  -1.313   6.419   2.118 -1.4307 -1.8128 -3.1589
  840MOL0     H13382  -0.145   6.284   2.464 -0.9832  2.1938 -0.1794
  840MOL0     H13383   0.032   6.136   2.414 -1.5156 -2.1016 -0.7658
  840MOL0     H13384   0.122   5.684   2.184  0.8340 -0.6767 -0.9451
  840MOL0     H13385   0.311   5.543   2.217 -1.1905  0.6366  0.3567
  840MOL0     H13386   2.171   5.747   2.238 -0.0109  1.0270  0.8103
  840MOL0     H13387   2.415   5.790   2.313  1.4889 -1.4237 -2.0833
  840MOL0     H13388   2.776   5.476   2.765 -1.7657 -1.8938 -2.6837
  840MOL0     H13389   3.032   5.506   2.780 -0.0941  1.7020  1.3507
  840MOL0     H13390   3.253   5.612   2.415  1.5072 -4.1374  1.1292
  840MOL0     H13391   3.247   5.767   2.515 -0.5552 -0.5914  1.0564
  840MOL0     H13392   3.420   5.694   2.656  0.8498 -0.1275 -0.2235
  840MOL0     H13393   3.469   5.712   2.481 -0.1052  0.7164  0.9693
  840MOL0     H13394   3.477   5.461   2.452  0.5568  1.7484 -0.9817
  840MOL0     H13395   3.391   5.438   2.614 -2.2423  1.3443 -0.4386
  840MOL0     H13396   3.673   5.564   2.554  0.8073  0.1335  1.5707
  840MOL0     H13397   3.648   5.392   2.573  1.0264  0.3363 -1.0243
  840MOL0     H13398   3.630   5.517   2.977 -0.5022 -1.4859 -0.0807
  840MOL0     H13399   3.042   5.703   2.402  0.5264  0.9412  0.4888
  840MOL0     H13400   2.815   5.702   2.389  1.9892 -1.2412 -1.5948
  841MOL0     O13401   5.347   8.831   9.128 -0.6758 -0.7265 -0.5062
  841MOL0     C13402   5.338   8.913   9.221  0.0489  0.4549  0.2394
  841MOL0     O13403   5.221   8.977   9.267 -0.0603 -0.1695  0.0343
  841MOL0     C13404   5.092   8.943   9.233 -0.0206  1.0184 -0.3507
  841MOL0     C13405   5.001   9.048   9.244 -0.5660 -0.0978  0.5292
  841MOL0     C13406   4.860   9.027   9.216  0.6955  0.2376  0.0643
  841MOL0     C13407   4.816   8.902   9.170  0.3184  0.3278 -0.3399
  841MOL0     O13408   4.692   8.885   9.107  0.8793  0.2097  0.1610
  841MOL0     C13409   4.674   8.957   8.984 -0.9441 -0.9145 -0.2161
  841MOL0     C13410   4.540   9.032   8.990 -0.2212 -0.2353 -0.8648
  841MOL0     C13411   4.558   9.183   9.035  0.3363  0.1974 -0.1838
  841MOL0     C13412   4.425   9.258   8.989 -0.3923  0.0555  0.2076
  841MOL0     C13413   4.425   9.406   9.015  0.2455  0.4232 -0.4469
  841MOL0     C13414   4.326   9.499   8.947  0.2783 -0.1986 -0.0984
  841MOL0     C13415   4.173   9.484   8.975  0.1714 -0.2431  0.2408
  841MOL0     C13416   4.095   9.567   8.878 -0.3116  0.0646 -0.2458
  841MOL0     N13417   3.951   9.590   8.898  0.3041 -0.6286  0.0998
  841MOL0     C13418   3.862   9.512   8.969  1.3308 -0.2539  0.0604
  841MOL0     C13419   3.756   9.594   8.977  0.1619 -0.3775 -0.6610
  841MOL0     C13420   3.644   9.555   9.069 -0.0440 -0.9195  0.2123
  841MOL0     C13421   3.520   9.642   9.034 -0.4922  0.6910 -0.9928
  841MOL0     C13422   3.420   9.637   9.153 -0.4764  0.4752  0.5989
  841MOL0     C13423   3.310   9.730   9.134  0.8187  0.6202  0.0660
  841MOL0     O13424   3.192   9.678   9.206  0.3004 -0.2702 -0.2585
  841MOL0     C13425   3.081   9.764   9.199  0.7601 -0.5993  0.3308
  841MOL0     C13426   2.973   9.720   9.266 -0.8277 -0.1713  0.4656
  841MOL0     C13427   2.852   9.794   9.274  0.3437  0.2498  0.7502
  841MOL0     C13428   2.743   9.730   9.356 -0.1397  0.1855  0.0918
  841MOL0     C13429   2.844   9.923   9.219 -0.0211  0.4899  1.0980
  841MOL0     C13430   2.734  10.016   9.237  0.1796 -0.4798  0.7842
  841MOL0     O13431   2.762  10.143   9.211  0.7608  0.6405  0.1642
  841MOL0     C13432   2.663  10.243   9.232 -0.2634 -0.0874 -0.5855
  841MOL0     C13433   2.649  10.268   9.364  0.4529 -0.9659 -0.7627
  841MOL0     C13434   2.563  10.373   9.405  0.2624  0.1588 -0.4470
  841MOL0     C13435   2.503  10.452   9.310  0.4402  0.3340  0.4893
  841MOL0     O13436   2.421  10.557   9.352 -0.2653  0.5091  0.3323
  841MOL0     C13437   2.298  10.592   9.290 -0.7480  0.2427 -0.2307
  841MOL0     C13438   2.188  10.536   9.376 -0.4202  0.0828  0.1365
  841MOL0     C13439   2.050  10.563   9.303 -0.7180  0.2369  1.3646
  841MOL0     C13440   1.943  10.509   9.380 -0.4894 -0.9325  0.3041
  841MOL0     C13441   1.823  10.521   9.296  0.1110 -0.1651  0.2572
  841MOL0     C13442   1.712  10.424   9.333  0.7865  0.6172 -0.0306
  841MOL0     C13443   1.601  10.437   9.230  0.5414 -0.3307  0.1796
  841MOL0     C13444   1.479  10.352   9.266 -0.3499  0.6280 -0.1841
  841MOL0    Cl13445   1.373  10.445   9.369  0.3792  0.3391  0.3715
  841MOL0     C13446   2.537  10.430   9.175 -0.3952  0.3364  0.9206
  841MOL0     C13447   2.622  10.322   9.131 -0.4517 -0.0137 -0.2430
  841MOL0     O13448   2.623   9.982   9.280  0.6346  0.5070 -0.1538
  841MOL0     C13449   2.960   9.973   9.153 -0.1147 -0.1343 -0.2468
  841MOL0     C13450   3.077   9.891   9.138  0.1358 -0.7925 -0.3142
  841MOL0     N13451   3.775   9.706   8.900  0.5966  0.4558 -0.1575
  841MOL0     N13452   3.894   9.701   8.841  0.4969  0.2299 -0.2867
  841MOL0     C13453   4.910   8.805   9.146 -0.5241 -0.0465  0.3611
  841MOL0     C13454   5.045   8.823   9.180 -0.1965  0.2136 -0.2967
  841MOL0     C13455   5.469   8.958   9.274 -0.0656  0.0760 -0.7519
  841MOL0     C13456   5.481   9.044   9.381 -0.1234 -0.2794 -0.1747
  841MOL0     C13457   5.603   9.110   9.415 -0.4215  0.1910  0.0549
  841MOL0     C13458   5.718   9.082   9.343 -0.6675  0.2350  0.6080
  841MOL0     O13459   5.836   9.155   9.355 -0.3994  0.0570 -0.0922
  841MOL0     C13460   5.967   9.117   9.297 -0.4519 -0.5029 -0.3113
  841MOL0     C13461   6.070   9.210   9.364  0.5609  0.2176 -0.7347
  841MOL0     C13462   6.206   9.157   9.307  0.0725 -0.2926  0.9941
  841MOL0     C13463   6.323   9.205   9.388  0.2929  0.0311 -0.2768
  841MOL0     C13464   6.346   9.345   9.351 -0.5363 -0.2019  0.7276
  841MOL0     C13465   6.377   9.443   9.299 -0.2865 -0.3822 -0.0077
  841MOL0     C13466   5.710   8.985   9.239 -0.4145 -0.1746  0.8104
  841MOL0     C13467   5.587   8.921   9.209 -0.9948  0.5784  1.0904
  841MOL0     H13468   5.026   9.149   9.275 -0.5575 -1.0896  4.3614
  841MOL0     H13469   4.795   9.114   9.207 -2.5746 -1.6488  2.9952
  841MOL0     H13470   4.757   9.028   8.976 -0.6741 -0.8167  2.4036
  841MOL0     H13471   4.673   8.884   8.903 -0.3952 -1.7657  0.5297
  841MOL0     H13472   4.494   9.023   8.891  1.4468  0.2680 -1.7087
  841MOL0     H13473   4.464   8.986   9.055  1.8104  0.0573  1.9075
  841MOL0     H13474   4.576   9.205   9.141 -2.0627 -0.1461  0.3766
  841MOL0     H13475   4.643   9.220   8.977 -0.0795 -2.0871 -2.4386
  841MOL0     H13476   4.399   9.240   8.884 -2.0694 -0.6356  0.6976
  841MOL0     H13477   4.342   9.208   9.040 -2.4917  1.3631 -1.7001
  841MOL0     H13478   4.423   9.422   9.123 -2.1915 -0.1887 -0.3468
  841MOL0     H13479   4.519   9.443   8.973 -0.4922  1.4626 -1.2372
  841MOL0     H13480   4.347   9.602   8.977 -0.7381 -0.6526  2.4340
  841MOL0     H13481   4.338   9.484   8.840 -2.6279 -0.8315 -0.4235
  841MOL0     H13482   4.139   9.381   8.972  2.3341 -0.9850 -2.4408
  841MOL0     H13483   4.154   9.516   9.078  0.4017 -0.9641  0.5085
  841MOL0     H13484   4.094   9.510   8.784  1.7045 -0.9610  0.2803
  841MOL0     H13485   4.142   9.665   8.868 -1.3631  0.6220  0.1664
  841MOL0     H13486   3.877   9.414   9.014 -0.2648  0.0453  1.3733
  841MOL0     H13487   3.618   9.448   9.064 -1.6510 -0.5822  0.7678
  841MOL0     H13488   3.675   9.585   9.169 -0.0727 -2.1802  0.6225
  841MOL0     H13489   3.479   9.596   8.944  1.3477 -3.9224  0.2414
  841MOL0     H13490   3.556   9.745   9.031  2.4038  0.0161  2.5456
  841MOL0     H13491   3.473   9.654   9.247  0.1299  0.8920  0.1985
  841MOL0     H13492   3.383   9.534   9.148  0.6166 -0.1877  3.9772
  841MOL0     H13493   3.280   9.756   9.033 -3.4516  1.1730  1.2717
  841MOL0     H13494   3.341   9.829   9.169 -1.1003  2.5996 -3.3287
  841MOL0     H13495   2.982   9.617   9.300 -1.3056  0.2263  1.8654
  841MOL0     H13496   2.712   9.789   9.442 -1.3186 -1.6230  0.9561
  841MOL0     H13497   2.652   9.727   9.296 -0.7281  0.9565  0.9276
  841MOL0     H13498   2.762   9.628   9.393 -1.2244 -0.0186  0.0999
  841MOL0     H13499   2.676  10.192   9.438  0.4079 -2.0150 -1.7947
  841MOL0     H13500   2.534  10.400   9.506  2.0394  2.1713 -0.3928
  841MOL0     H13501   2.293  10.697   9.258  0.8328  0.1922 -0.7146
  841MOL0     H13502   2.295  10.537   9.195 -0.2383 -0.8710  0.3791
  841MOL0     H13503   2.217  10.431   9.389  0.0089  0.4438  2.6681
  841MOL0     H13504   2.195  10.581   9.476 -2.8356  0.4683  0.1889
  841MOL0     H13505   2.058  10.515   9.206  4.1640 -0.0441  1.6807
  841MOL0     H13506   2.048  10.672   9.289 -1.8507  0.1526  0.7224
  841MOL0     H13507   1.966  10.403   9.396  1.3221 -0.7031 -0.5003
  841MOL0     H13508   1.938  10.571   9.470 -0.7396 -0.9928  0.3313
  841MOL0     H13509   1.846  10.500   9.191 -0.5916  0.8197 -0.1164
  841MOL0     H13510   1.789  10.625   9.289  1.1652  0.1370 -0.6152
  841MOL0     H13511   1.746  10.320   9.330  1.4412  0.7676  1.6310
  841MOL0     H13512   1.671  10.440   9.433  1.2011  1.5310  0.0021
  841MOL0     H13513   1.644  10.401   9.136  2.0381 -1.9898  1.4168
  841MOL0     H13514   1.563  10.540   9.226  1.1903 -0.0739  0.4615
  841MOL0     H13515   1.513  10.259   9.311  0.4692  0.7788 -0.4790
  841MOL0     H13516   1.441  10.321   9.168  0.5736 -2.1132  0.2255
  841MOL0     H13517   2.502  10.502   9.101  1.5900  1.5315  1.0859
  841MOL0     H13518   2.656  10.300   9.030  1.0668  0.5977  0.1018
  841MOL0     H13519   2.967  10.071   9.109  0.7485 -0.4938 -0.9571
  841MOL0     H13520   3.156   9.931   9.075 -0.5546  2.5858  0.7796
  841MOL0     H13521   4.889   8.728   9.072  1.8328 -2.4598  2.0368
  841MOL0     H13522   5.111   8.738   9.167 -1.9069 -1.5687  1.9045
  841MOL0     H13523   5.389   9.078   9.428 -0.5578  0.2060 -1.3321
  841MOL0     H13524   5.604   9.177   9.500 -2.4387  1.2945 -0.7336
  841MOL0     H13525   5.995   9.013   9.319  3.7636  0.2114 -1.3528
  841MOL0     H13526   5.963   9.131   9.188  0.4567 -0.8520 -0.3993
  841MOL0     H13527   6.055   9.192   9.471 -1.0547  0.4823 -0.8906
  841MOL0     H13528   6.052   9.316   9.343  1.5642  0.5769  0.1797
  841MOL0     H13529   6.218   9.183   9.202  0.3380 -1.5541  0.6886
  841MOL0     H13530   6.210   9.047   9.307 -0.8436 -0.3303  0.2920
  841MOL0     H13531   6.408   9.141   9.362  0.7089  0.1540  0.7577
  841MOL0     H13532   6.295   9.196   9.493  0.2982  0.1450 -0.2651
  841MOL0     H13533   6.411   9.543   9.283  1.1773 -0.0687  3.9417
  841MOL0     H13534   5.794   8.961   9.174 -2.1973 -0.2084 -1.6279
  841MOL0     H13535   5.585   8.845   9.131  2.1873 -0.0507  1.5021
  842MOL0     O13536   3.231   8.797   6.796  0.3668  0.5049  0.4150
  842MOL0     C13537   3.253   8.743   6.689  0.1648  0.4404 -0.3909
  842MOL0     O13538   3.165   8.721   6.592  0.8561  0.5887  0.2326
  842MOL0     C13539   3.034   8.769   6.593  0.2930 -0.1610 -0.0660
  842MOL0     C13540   2.978   8.799   6.474 -0.0691  0.0687 -0.7410
  842MOL0     C13541   2.854   8.850   6.457  0.3315  0.5488 -0.8314
  842MOL0     C13542   2.775   8.883   6.572 -0.1737  0.2444 -0.6359
  842MOL0     O13543   2.653   8.935   6.545  1.4662  0.1430 -1.1513
  842MOL0     C13544   2.648   9.061   6.471 -0.4103 -0.5321  0.0561
  842MOL0     C13545   2.571   9.026   6.340 -0.6507  0.4862 -0.2193
  842MOL0     C13546   2.437   8.959   6.358  0.2766  0.6109  0.4006
  842MOL0     C13547   2.366   8.946   6.226 -0.7112 -0.2515 -0.2352
  842MOL0     C13548   2.223   8.886   6.256 -0.1960  0.0665 -0.4349
  842MOL0     C13549   2.148   8.845   6.129  0.7254 -0.1568  0.6955
  842MOL0     C13550   2.012   8.780   6.149  0.4213  0.5487  0.8247
  842MOL0     C13551   1.904   8.891   6.179  0.6395 -0.2079 -0.0562
  842MOL0     N13552   1.851   8.978   6.075 -0.1421  0.2308 -0.2487
  842MOL0     C13553   1.731   8.977   6.022  0.1431 -0.3469  0.2352
  842MOL0     C13554   1.734   9.069   5.918  0.6758 -0.1035 -0.2851
  842MOL0     C13555   1.636   9.103   5.806 -0.0302 -0.0068  0.8731
  842MOL0     C13556   1.564   8.974   5.756  1.2392  0.0661  0.5698
  842MOL0     C13557   1.482   8.997   5.627  0.2618  0.3387 -0.3875
  842MOL0     C13558   1.374   9.094   5.652 -0.4059 -0.6260  0.0105
  842MOL0     O13559   1.420   9.228   5.655  0.0813 -0.2473  0.0680
  842MOL0     C13560   1.321   9.325   5.654 -0.3117  0.2781  0.4055
  842MOL0     C13561   1.356   9.458   5.679 -0.6207  0.3976  0.3910
  842MOL0     C13562   1.266   9.563   5.688 -0.4713 -0.0250  0.3424
  842MOL0     C13563   1.318   9.699   5.727 -0.9054  0.3587  0.0052
  842MOL0     C13564   1.130   9.544   5.658  0.2483 -0.2981 -0.2015
  842MOL0     C13565   1.025   9.645   5.650 -0.2963 -0.2121 -0.6675
  842MOL0     O13566   0.911   9.610   5.578 -0.4116  0.3090  0.1534
  842MOL0     C13567   0.809   9.702   5.594  0.0608 -0.6198  0.8426
  842MOL0     C13568   0.745   9.721   5.722 -0.2722  0.0776 -0.2584
  842MOL0     C13569   0.655   9.822   5.747 -0.4530  0.4248  0.0698
  842MOL0     C13570   0.607   9.900   5.651 -0.8671 -0.1904  0.2536
  842MOL0     O13571   0.520  10.008   5.676  0.5453 -0.6239 -0.4041
  842MOL0     C13572   0.509  10.125   5.595 -0.0330  0.3156  0.0381
  842MOL0     C13573   0.426  10.228   5.664  0.3009 -0.9189  1.0190
  842MOL0     C13574   0.277  10.179   5.675 -0.1084  0.9760  0.0049
  842MOL0     C13575   0.186  10.292   5.719 -0.1398  0.3093  0.3798
  842MOL0     C13576   0.047  10.243   5.738 -0.0123 -0.4020 -1.0378
  842MOL0     C13577  -0.049  10.367   5.742 -0.3410  0.4706  0.0362
  842MOL0     C13578  -0.196  10.320   5.772 -0.5143  0.4939  0.3249
  842MOL0     C13579  -0.291  10.440   5.757 -0.2128 -0.5756  0.2963
  842MOL0    Cl13580  -0.462  10.400   5.706 -0.1108 -0.0203 -0.0596
  842MOL0     C13581   0.660   9.882   5.516 -0.1889  0.1875  0.5564
  842MOL0     C13582   0.762   9.789   5.492  0.0831  0.2359 -0.8599
  842MOL0     O13583   1.046   9.755   5.708 -0.4842 -0.2327 -0.6722
  842MOL0     C13584   1.093   9.408   5.640  0.4344  0.3837 -1.2093
  842MOL0     C13585   1.184   9.301   5.637  0.2496  0.1382 -0.2687
  842MOL0     N13586   1.859   9.142   5.927 -0.7062  0.8136  0.5172
  842MOL0     N13587   1.923   9.084   6.025  0.1110 -0.0537  0.2700
  842MOL0     C13588   2.818   8.842   6.698 -0.2598  0.2981 -0.7271
  842MOL0     C13589   2.949   8.790   6.711 -0.0733 -0.0114  0.1212
  842MOL0     C13590   3.390   8.692   6.660  0.3154 -1.1529 -0.0524
  842MOL0     C13591   3.486   8.683   6.768 -0.0548 -1.1732  0.1050
  842MOL0     C13592   3.623   8.655   6.743  0.1634 -0.0265 -0.5512
  842MOL0     C13593   3.663   8.617   6.616  0.3326 -0.2471  0.4291
  842MOL0     O13594   3.792   8.586   6.582 -0.3359  0.4948  0.3907
  842MOL0     C13595   3.877   8.552   6.685 -0.5021  0.1359  0.2519
  842MOL0     C13596   3.993   8.488   6.602  0.2601 -0.5315 -0.2501
  842MOL0     C13597   4.111   8.427   6.667 -0.4507 -0.5508  0.0859
  842MOL0     C13598   4.191   8.527   6.752  0.3659 -0.5747  0.0159
  842MOL0     C13599   4.145   8.524   6.896  0.5569 -0.1366 -1.1332
  842MOL0     C13600   4.129   8.510   7.018  0.4236  0.7094 -0.1393
  842MOL0     C13601   3.566   8.615   6.514  0.7173 -0.1691 -0.0515
  842MOL0     C13602   3.432   8.648   6.536 -0.0076 -0.5823  0.6119
  842MOL0     H13603   3.029   8.765   6.383 -1.3303 -0.2384 -1.3491
  842MOL0     H13604   2.815   8.869   6.357  0.7282 -1.3161 -1.3889
  842MOL0     H13605   2.583   9.131   6.525 -0.4026 -0.8315  0.4595
  842MOL0     H13606   2.747   9.107   6.462 -0.6982 -0.1398 -1.3947
  842MOL0     H13607   2.567   9.115   6.276  0.8904  1.0953  0.4814
  842MOL0     H13608   2.627   8.950   6.284  0.5119 -1.0249  2.8024
  842MOL0     H13609   2.433   8.863   6.410  1.4996 -0.1918 -0.9232
  842MOL0     H13610   2.371   9.024   6.416 -1.1936 -0.5195  0.0824
  842MOL0     H13611   2.364   9.039   6.168 -1.9986 -1.6184 -2.5756
  842MOL0     H13612   2.419   8.884   6.153  1.1124  2.9269 -1.8200
  842MOL0     H13613   2.228   8.809   6.333  0.3453  0.8911  0.3829
  842MOL0     H13614   2.172   8.972   6.300 -2.3531 -1.3779 -0.0010
  842MOL0     H13615   2.149   8.936   6.068 -0.9644  0.3027  1.2919
  842MOL0     H13616   2.208   8.772   6.075 -0.8385 -1.5655  0.7767
  842MOL0     H13617   1.981   8.724   6.060  1.7561 -1.3319  1.4824
  842MOL0     H13618   2.005   8.704   6.227 -0.8751 -0.4915 -0.2650
  842MOL0     H13619   1.923   8.962   6.260 -0.0643  0.2241 -0.2582
  842MOL0     H13620   1.812   8.839   6.207 -0.1691 -2.1637 -5.2915
  842MOL0     H13621   1.647   8.908   6.023 -0.9123  0.7581 -2.7256
  842MOL0     H13622   1.562   9.177   5.841 -1.5427 -0.1461 -1.7637
  842MOL0     H13623   1.695   9.154   5.730 -0.5045 -2.4162 -1.2337
  842MOL0     H13624   1.499   8.929   5.831 -0.7412 -0.6805 -1.4589
  842MOL0     H13625   1.641   8.898   5.737 -1.1862 -2.5351  0.4203
  842MOL0     H13626   1.427   8.907   5.596 -0.8660  0.0527  2.2378
  842MOL0     H13627   1.549   9.024   5.544  1.9458 -1.3928  0.3459
  842MOL0     H13628   1.327   9.069   5.748 -1.7263 -1.8979 -0.9261
  842MOL0     H13629   1.300   9.079   5.573 -0.7557 -0.1329  0.2353
  842MOL0     H13630   1.463   9.468   5.687 -0.6551  2.1227 -0.8046
  842MOL0     H13631   1.281   9.735   5.823  0.4221 -0.1722  0.7510
  842MOL0     H13632   1.427   9.691   5.739 -0.5564  1.0989 -2.1827
  842MOL0     H13633   1.297   9.767   5.644 -1.6074  0.1427 -0.0016
  842MOL0     H13634   0.772   9.660   5.808  0.9100 -0.4748 -1.0033
  842MOL0     H13635   0.619   9.837   5.849  2.2726  2.9603  0.8010
  842MOL0     H13636   0.607  10.168   5.575  1.6146 -2.3736  1.7306
  842MOL0     H13637   0.460  10.098   5.500  1.8269  0.3936 -0.9866
  842MOL0     H13638   0.464  10.244   5.766 -0.2107 -0.2997  1.1162
  842MOL0     H13639   0.428  10.313   5.595  3.6433 -2.1529 -0.6186
  842MOL0     H13640   0.281  10.092   5.741  0.1737  1.3935  0.5402
  842MOL0     H13641   0.242  10.140   5.579 -0.6733 -1.0243  0.9709
  842MOL0     H13642   0.227  10.344   5.806  3.1073  0.0247 -0.8229
  842MOL0     H13643   0.180  10.365   5.637 -0.9568  0.0690  0.2204
  842MOL0     H13644   0.041  10.194   5.836 -0.5656  1.2345 -0.2139
  842MOL0     H13645   0.025  10.172   5.658  0.6741  1.2357 -2.7602
  842MOL0     H13646  -0.030  10.438   5.823 -2.5816  0.4963  0.5998
  842MOL0     H13647  -0.049  10.415   5.643  0.2904 -0.4439 -0.4243
  842MOL0     H13648  -0.212  10.281   5.873  1.5364 -1.3453  0.0160
  842MOL0     H13649  -0.222  10.248   5.695 -0.0723  1.0873 -0.3973
  842MOL0     H13650  -0.245  10.508   5.684 -0.7889 -1.3463 -0.8058
  842MOL0     H13651  -0.301  10.498   5.850 -0.9038  0.8566 -0.6344
  842MOL0     H13652   0.629   9.949   5.437 -0.0242 -0.3647  0.0120
  842MOL0     H13653   0.796   9.789   5.389 -2.6226  0.5068 -1.8363
  842MOL0     H13654   0.987   9.382   5.637  0.1848  0.8406  1.2849
  842MOL0     H13655   1.153   9.198   5.624  0.2755  0.2334 -1.1772
  842MOL0     H13656   2.762   8.871   6.787  0.0532 -1.2603  0.0022
  842MOL0     H13657   2.979   8.764   6.812 -0.0143  1.2689  0.4509
  842MOL0     H13658   3.462   8.735   6.860 -1.5084  1.8838 -1.8524
  842MOL0     H13659   3.686   8.680   6.827 -3.9948  0.9263  2.6185
  842MOL0     H13660   3.921   8.640   6.732  0.3865  0.7458 -1.6293
  842MOL0     H13661   3.832   8.486   6.760 -1.6957  2.6017  1.8438
  842MOL0     H13662   4.021   8.567   6.532 -0.1757 -1.3786 -1.4092
  842MOL0     H13663   3.940   8.408   6.550 -2.1746  1.4686 -1.0305
  842MOL0     H13664   4.172   8.385   6.586  0.0255 -1.6601  0.9871
  842MOL0     H13665   4.087   8.343   6.732 -0.7107 -0.2016  0.4451
  842MOL0     H13666   4.179   8.625   6.706  1.2048 -0.1826  0.6003
  842MOL0     H13667   4.297   8.502   6.739  0.9372  2.6750 -3.5709
  842MOL0     H13668   4.102   8.515   7.121 -0.3331  3.1932 -0.3845
  842MOL0     H13669   3.598   8.597   6.412  3.9307  0.9192  0.6345
  842MOL0     H13670   3.372   8.646   6.446 -2.6372  0.6219  2.2331
  843MOL0     O13671   1.588   8.012   4.844  0.0933 -0.4533  0.3108
  843MOL0     C13672   1.643   7.903   4.834  0.5559 -0.1047 -0.3017
  843MOL0     O13673   1.582   7.785   4.832 -0.2394 -0.1445  0.9976
  843MOL0     C13674   1.446   7.769   4.807 -0.4071  0.6670 -0.1597
  843MOL0     C13675   1.416   7.702   4.687  0.1099 -0.9964 -0.2290
  843MOL0     C13676   1.283   7.701   4.636 -0.0625 -0.6991 -0.6888
  843MOL0     C13677   1.176   7.757   4.713  0.1429  0.3456  0.6086
  843MOL0     O13678   1.049   7.726   4.667 -0.2234  0.6823 -0.2888
  843MOL0     C13679   0.931   7.744   4.751 -1.2916  0.9769 -0.6200
  843MOL0     C13680   0.820   7.689   4.671  0.3319  1.2170  1.3821
  843MOL0     C13681   0.793   7.542   4.684  0.1669 -0.4626 -0.0299
  843MOL0     C13682   0.695   7.490   4.569  0.7624 -0.4804 -0.3069
  843MOL0     C13683   0.553   7.457   4.614 -0.6231 -0.2175 -0.7952
  843MOL0     C13684   0.468   7.579   4.657  0.4383 -0.1478  0.2223
  843MOL0     C13685   0.314   7.562   4.646  0.1650  1.2041  0.5012
  843MOL0     C13686   0.233   7.671   4.713 -0.2332  0.4270 -0.9293
  843MOL0     N13687   0.095   7.638   4.683 -0.0065  0.3935 -0.3751
  843MOL0     C13688   0.021   7.553   4.748 -0.5613  0.1138 -0.3981
  843MOL0     C13689  -0.104   7.579   4.698 -0.2480  0.2715 -0.3132
  843MOL0     C13690  -0.225   7.512   4.751  0.0912 -0.3574 -0.1637
  843MOL0     C13691  -0.334   7.610   4.792 -0.2321  0.3154  0.3886
  843MOL0     C13692  -0.414   7.658   4.669  0.1284 -0.4710 -0.2940
  843MOL0     C13693  -0.523   7.761   4.712  0.3567 -0.3925 -0.7190
  843MOL0     O13694  -0.633   7.694   4.773  0.3584  0.0654  0.3017
  843MOL0     C13695  -0.763   7.742   4.769 -0.6635  0.2929 -0.6302
  843MOL0     C13696  -0.794   7.864   4.710  1.1403  0.3282 -0.1264
  843MOL0     C13697  -0.927   7.907   4.693  0.0459  0.3481  0.3100
  843MOL0     C13698  -0.960   8.009   4.584  0.0849 -0.0609 -0.0442
  843MOL0     C13699  -1.028   7.831   4.757  0.2722 -0.4907 -0.0500
  843MOL0     C13700  -1.171   7.872   4.781 -0.1266  0.8712 -0.5286
  843MOL0     O13701  -1.261   7.778   4.814 -0.7504 -0.1031 -0.3810
  843MOL0     C13702  -1.391   7.822   4.807  0.0433 -1.0062 -0.1725
  843MOL0     C13703  -1.462   7.860   4.919 -0.0919 -0.3080  0.2632
  843MOL0     C13704  -1.597   7.893   4.902  0.1173  0.1712 -0.2713
  843MOL0     C13705  -1.659   7.882   4.774 -1.6459 -0.0598  0.5488
  843MOL0     O13706  -1.799   7.894   4.780  0.2350 -0.2448  0.5315
  843MOL0     C13707  -1.884   7.866   4.669 -0.5380 -0.0587  0.3671
  843MOL0     C13708  -2.029   7.902   4.704  0.5541 -0.2408 -0.0591
  843MOL0     C13709  -2.109   7.798   4.787  0.0807  0.5638  0.8048
  843MOL0     C13710  -2.260   7.829   4.793 -0.1987  0.2842 -0.2136
  843MOL0     C13711  -2.342   7.757   4.904 -0.1856  0.1349 -0.1936
  843MOL0     C13712  -2.475   7.831   4.941 -0.4731  0.0463 -0.0952
  843MOL0     C13713  -2.537   7.794   5.069 -0.4651 -0.1484  0.4713
  843MOL0     C13714  -2.675   7.867   5.081  0.4339  0.0550 -0.6654
  843MOL0    Cl13715  -2.785   7.812   4.958  0.0257  0.1390  0.3928
  843MOL0     C13716  -1.581   7.843   4.661  0.3524 -0.2004  0.3443
  843MOL0     C13717  -1.448   7.808   4.675 -0.7575  0.7404 -0.4598
  843MOL0     O13718  -1.196   7.993   4.793 -0.1331  0.2121 -0.1730
  843MOL0     C13719  -0.989   7.714   4.825  0.0176 -0.0112  0.5607
  843MOL0     C13720  -0.862   7.667   4.828 -0.5859 -0.5353  0.0809
  843MOL0     N13721  -0.100   7.681   4.602 -0.3124 -0.6767 -0.4976
  843MOL0     N13722   0.018   7.721   4.600 -0.3184  0.0206 -0.3882
  843MOL0     C13723   1.205   7.805   4.845  0.2064 -0.4709 -0.0416
  843MOL0     C13724   1.346   7.812   4.892 -0.1406 -0.7620  0.3992
  843MOL0     C13725   1.791   7.899   4.831 -0.0068  0.4892 -0.2330
  843MOL0     C13726   1.866   7.786   4.789 -1.1476 -0.1595  1.0110
  843MOL0     C13727   2.006   7.790   4.796  0.1890 -0.6298  0.6125
  843MOL0     C13728   2.074   7.904   4.828 -0.3621  0.1683  0.8178
  843MOL0     O13729   2.213   7.899   4.821  0.1850  0.9841 -0.7466
  843MOL0     C13730   2.298   8.016   4.856 -0.6637  0.7083  0.4586
  843MOL0     C13731   2.371   7.989   4.988  0.0191 -0.6659 -0.1590
  843MOL0     C13732   2.436   8.116   5.052  0.4806 -0.6944  0.4917
  843MOL0     C13733   2.498   8.069   5.184 -0.1850 -0.0932  0.8628
  843MOL0     C13734   2.598   8.167   5.233 -1.1538  0.2332 -0.0341
  843MOL0     C13735   2.685   8.234   5.277 -0.3259  0.4081  0.2380
  843MOL0     C13736   1.997   8.017   4.868  0.8321  0.0404 -0.2882
  843MOL0     C13737   1.860   8.013   4.868 -0.0754 -0.4484  0.8158
  843MOL0     H13738   1.507   7.672   4.636 -0.9930 -1.7482 -1.8506
  843MOL0     H13739   1.277   7.650   4.541  2.4655 -0.9774 -0.7529
  843MOL0     H13740   0.948   7.682   4.840 -1.7636  0.6225 -0.7737
  843MOL0     H13741   0.910   7.848   4.779  1.2642  1.3504  0.1798
  843MOL0     H13742   0.725   7.732   4.705 -0.5516 -0.0892  0.6418
  843MOL0     H13743   0.833   7.720   4.567 -0.2569 -1.8525  0.2745
  843MOL0     H13744   0.891   7.499   4.663 -0.6657 -1.9976 -0.8835
  843MOL0     H13745   0.757   7.517   4.784  1.9606  5.2513  2.4947
  843MOL0     H13746   0.688   7.554   4.481 -3.7027 -0.9006 -0.5076
  843MOL0     H13747   0.739   7.401   4.523 -1.3084 -0.9537 -1.5386
  843MOL0     H13748   0.509   7.408   4.527  0.4767 -3.6881  0.4473
  843MOL0     H13749   0.564   7.389   4.699  0.9390  0.6292 -0.2660
  843MOL0     H13750   0.495   7.605   4.760 -1.0541  1.0318  0.3484
  843MOL0     H13751   0.483   7.665   4.592  3.7429 -1.3880 -0.8802
  843MOL0     H13752   0.299   7.574   4.538 -0.0377 -0.3215  0.3261
  843MOL0     H13753   0.282   7.463   4.680 -3.6618  1.7076 -1.0323
  843MOL0     H13754   0.262   7.769   4.674  2.7207  1.6962  3.7169
  843MOL0     H13755   0.249   7.671   4.821 -0.1040 -0.7528 -0.9297
  843MOL0     H13756   0.042   7.467   4.809  0.9192  0.1706 -0.7895
  843MOL0     H13757  -0.257   7.451   4.666 -2.6253  2.5464 -1.4089
  843MOL0     H13758  -0.211   7.455   4.844  0.7470 -0.6091 -0.4097
  843MOL0     H13759  -0.287   7.687   4.853  0.4415  1.7533 -1.8067
  843MOL0     H13760  -0.402   7.557   4.859 -1.2893 -0.9609 -1.5617
  843MOL0     H13761  -0.470   7.582   4.615 -0.1335 -0.0071 -0.6806
  843MOL0     H13762  -0.347   7.705   4.596  0.8632  0.6473  1.0314
  843MOL0     H13763  -0.549   7.796   4.613  1.9387  0.7238 -0.7768
  843MOL0     H13764  -0.495   7.843   4.779 -0.3854 -0.7864  0.0972
  843MOL0     H13765  -0.717   7.929   4.668 -0.3754  0.5645 -2.7460
  843MOL0     H13766  -0.870   8.071   4.580  0.2849 -0.1668  1.7490
  843MOL0     H13767  -0.972   7.965   4.485 -0.3885  1.9504 -0.9176
  843MOL0     H13768  -1.049   8.066   4.612 -0.8410 -0.4776 -1.9768
  843MOL0     H13769  -1.420   7.860   5.019  0.8597  0.2017 -0.1215
  843MOL0     H13770  -1.649   7.926   4.992  0.2003  1.6624 -0.7348
  843MOL0     H13771  -1.845   7.935   4.593  1.2008 -1.1690  0.1975
  843MOL0     H13772  -1.889   7.762   4.634 -3.0691 -0.7819  2.5527
  843MOL0     H13773  -2.043   7.997   4.756 -4.1691 -1.2301  0.9495
  843MOL0     H13774  -2.085   7.917   4.611  0.8192  0.3487 -0.1316
  843MOL0     H13775  -2.076   7.799   4.891 -0.5045 -1.2341  1.0411
  843MOL0     H13776  -2.097   7.696   4.749  1.2954  1.0934 -0.3041
  843MOL0     H13777  -2.267   7.937   4.813  0.5380  0.7768 -2.3341
  843MOL0     H13778  -2.302   7.799   4.696 -0.3125 -0.1648 -0.0262
  843MOL0     H13779  -2.291   7.747   5.000  1.8721 -0.1150 -1.2606
  843MOL0     H13780  -2.358   7.657   4.863 -1.0435  0.3572 -0.4256
  843MOL0     H13781  -2.467   7.940   4.949 -0.1415  0.0418 -0.3158
  843MOL0     H13782  -2.553   7.802   4.869 -4.1224 -1.3513  3.9728
  843MOL0     H13783  -2.471   7.827   5.150  0.5982 -0.3171 -0.3076
  843MOL0     H13784  -2.533   7.685   5.070  2.3931 -0.1811 -1.6962
  843MOL0     H13785  -2.653   7.974   5.067  2.4552 -0.4570 -1.7960
  843MOL0     H13786  -2.716   7.862   5.182  0.0616  1.0524 -0.7545
  843MOL0     H13787  -1.616   7.822   4.560 -2.2325 -1.5930  1.4386
  843MOL0     H13788  -1.389   7.770   4.592  1.4215 -0.0071  1.3215
  843MOL0     H13789  -1.052   7.656   4.892  0.4617  0.1188  1.0957
  843MOL0     H13790  -0.843   7.573   4.880 -0.4067 -1.1488 -1.0441
  843MOL0     H13791   1.124   7.837   4.910  0.2615 -2.5415  1.1433
  843MOL0     H13792   1.379   7.877   4.972 -0.9246  3.2530 -2.1740
  843MOL0     H13793   1.813   7.692   4.778  0.3291 -0.9793  0.6134
  843MOL0     H13794   2.062   7.697   4.790  1.9740  0.4480 -0.2715
  843MOL0     H13795   2.380   8.029   4.784  1.7841  1.6255  3.2290
  843MOL0     H13796   2.244   8.111   4.850  0.4543  1.3411 -0.0683
  843MOL0     H13797   2.450   7.917   4.966 -2.1914 -3.4093  0.3586
  843MOL0     H13798   2.298   7.951   5.060 -1.5777 -0.4653 -1.6129
  843MOL0     H13799   2.360   8.192   5.072 -0.3555 -1.5425  0.5649
  843MOL0     H13800   2.506   8.161   4.980 -2.9264  1.8056 -1.5235
  843MOL0     H13801   2.552   7.974   5.169  0.5951  0.4809 -0.0568
  843MOL0     H13802   2.419   8.053   5.257 -0.1034  2.4130  1.5725
  843MOL0     H13803   2.766   8.287   5.322 -1.5702  0.7797  2.1753
  843MOL0     H13804   2.048   8.107   4.900  1.1893 -0.8964  1.9826
  843MOL0     H13805   1.807   8.101   4.902  0.5080  0.2031  0.0813
  844MOL0     O13806   1.626   4.333   7.293  0.4530  0.5040 -0.0906
  844MOL0     C13807   1.658   4.269   7.193  0.6743  0.0053  0.1531
  844MOL0     O13808   1.578   4.234   7.090  0.2352  0.0906 -0.6400
  844MOL0     C13809   1.439   4.269   7.104  0.0095 -0.2291  0.3339
  844MOL0     C13810   1.385   4.384   7.039 -0.1370  0.1268 -0.3929
  844MOL0     C13811   1.248   4.425   7.060 -0.6008 -0.3611  0.0404
  844MOL0     C13812   1.167   4.355   7.155 -0.6510 -0.1184 -0.3568
  844MOL0     O13813   1.036   4.387   7.186 -0.4101 -0.0602  0.9634
  844MOL0     C13814   0.997   4.523   7.165  0.4386  0.1727  0.1115
  844MOL0     C13815   0.869   4.547   7.232 -0.3272 -0.0753 -0.2109
  844MOL0     C13816   0.751   4.445   7.194 -0.9011  0.2674  1.3257
  844MOL0     C13817   0.619   4.499   7.256  1.0052 -0.2816 -0.3130
  844MOL0     C13818   0.486   4.475   7.177 -0.4008 -0.1399  0.2281
  844MOL0     C13819   0.446   4.329   7.188  1.7921  0.7152  0.4296
  844MOL0     C13820   0.334   4.298   7.085 -0.5769  0.5363  0.0932
  844MOL0     C13821   0.247   4.177   7.132  0.7997  0.0904 -0.1010
  844MOL0     N13822   0.127   4.146   7.050  0.1149  0.4756  0.1364
  844MOL0     C13823   0.104   4.170   6.917  0.7373  0.0175 -0.1561
  844MOL0     C13824  -0.023   4.130   6.896  0.1457 -0.7795  0.2134
  844MOL0     C13825  -0.105   4.124   6.770  0.7366 -0.1786 -0.1143
  844MOL0     C13826  -0.234   4.209   6.784 -0.6025  0.1953 -0.1992
  844MOL0     C13827  -0.339   4.164   6.694  0.4207  0.5423  0.2325
  844MOL0     C13828  -0.450   4.263   6.677  0.7184  0.0750  0.7177
  844MOL0     O13829  -0.533   4.227   6.572  0.0164  0.3139 -0.3462
  844MOL0     C13830  -0.670   4.251   6.587 -0.3745  0.2204 -0.1065
  844MOL0     C13831  -0.723   4.326   6.683  0.7821  0.1755 -0.7699
  844MOL0     C13832  -0.854   4.358   6.691 -0.0854  0.1188  0.1469
  844MOL0     C13833  -0.894   4.462   6.797 -0.1782  1.0355 -0.6985
  844MOL0     C13834  -0.948   4.313   6.590 -0.8401 -0.2369  0.1925
  844MOL0     C13835  -1.093   4.347   6.585  0.2042 -0.8662 -0.0532
  844MOL0     O13836  -1.160   4.385   6.706 -0.7499  0.5446 -0.5468
  844MOL0     C13837  -1.299   4.387   6.713 -0.7844 -0.5251  0.0012
  844MOL0     C13838  -1.356   4.478   6.804  0.1488  0.5291  0.3993
  844MOL0     C13839  -1.500   4.492   6.813  0.3600 -0.9197 -0.6727
  844MOL0     C13840  -1.579   4.411   6.735  1.3655 -0.4128  0.6094
  844MOL0     O13841  -1.718   4.422   6.740 -0.1098 -0.0945  0.3082
  844MOL0     C13842  -1.802   4.405   6.623 -0.4284 -0.3038 -0.0361
  844MOL0     C13843  -1.951   4.437   6.654  0.4801 -0.7140 -0.5350
  844MOL0     C13844  -2.031   4.458   6.530  0.4384 -0.1332  0.7549
  844MOL0     C13845  -2.185   4.422   6.555 -0.5702  0.4112  0.6025
  844MOL0     C13846  -2.272   4.425   6.427 -0.0244  0.4087  0.6650
  844MOL0     C13847  -2.419   4.466   6.463  0.2645 -0.0791 -0.2766
  844MOL0     C13848  -2.493   4.477   6.328 -0.4971 -1.0425  0.6948
  844MOL0     C13849  -2.628   4.533   6.348  0.3810 -0.0555  0.1879
  844MOL0    Cl13850  -2.764   4.413   6.362  0.0922  0.0961 -0.1728
  844MOL0     C13851  -1.525   4.311   6.652  0.0980 -0.1961 -0.4525
  844MOL0     C13852  -1.383   4.301   6.641  0.3651 -0.4348  0.8572
  844MOL0     O13853  -1.150   4.312   6.480 -0.5547  0.1200 -0.1571
  844MOL0     C13854  -0.895   4.240   6.485  0.1408 -0.0753  0.6079
  844MOL0     C13855  -0.756   4.212   6.483 -1.0190 -0.0229  0.2017
  844MOL0     N13856  -0.071   4.070   7.005  0.1938 -0.3782  0.4497
  844MOL0     N13857   0.015   4.078   7.102 -0.1191 -0.1467 -0.1309
  844MOL0     C13858   1.218   4.241   7.207 -0.3773 -0.2276  0.2029
  844MOL0     C13859   1.351   4.195   7.176  0.3992 -0.0355 -0.0036
  844MOL0     C13860   1.785   4.195   7.207 -0.4715 -0.3662  0.8850
  844MOL0     C13861   1.817   4.093   7.110  0.6892 -0.2947 -0.5468
  844MOL0     C13862   1.941   4.031   7.124  1.0293  0.0312  0.0398
  844MOL0     C13863   2.032   4.066   7.233  0.3809 -0.3362  0.1445
  844MOL0     O13864   2.159   4.022   7.239  0.3210  0.4270 -0.1748
  844MOL0     C13865   2.197   3.924   7.150  0.5181 -0.1254  0.6529
  844MOL0     C13866   2.346   3.891   7.185  0.1362  0.1589 -0.6008
  844MOL0     C13867   2.410   3.808   7.063  0.2390  0.5173 -0.6895
  844MOL0     C13868   2.543   3.754   7.107  0.1302 -0.1976 -0.1492
  844MOL0     C13869   2.608   3.693   6.988 -0.4011  0.2060 -0.6299
  844MOL0     C13870   2.684   3.635   6.904 -0.0913 -0.6010  0.3293
  844MOL0     C13871   1.993   4.156   7.328 -0.0161 -0.1204 -0.4762
  844MOL0     C13872   1.869   4.218   7.310  0.4010 -0.0634 -0.7928
  844MOL0     H13873   1.453   4.453   6.989 -1.1055  1.2373 -0.2277
  844MOL0     H13874   1.216   4.519   7.016  3.1811 -0.4088 -3.5374
  844MOL0     H13875   1.063   4.599   7.207  0.7309 -0.2230  0.3744
  844MOL0     H13876   1.000   4.533   7.056  1.1737 -2.3113 -0.1599
  844MOL0     H13877   0.880   4.537   7.340  0.8429 -0.7106 -0.3676
  844MOL0     H13878   0.839   4.649   7.206  0.3323 -0.1353 -1.2736
  844MOL0     H13879   0.750   4.441   7.085  0.6514 -1.7227  1.3106
  844MOL0     H13880   0.767   4.343   7.231 -0.4992  0.7783  2.6201
  844MOL0     H13881   0.612   4.463   7.359  3.0491 -0.2858 -0.1384
  844MOL0     H13882   0.621   4.608   7.257  0.9776 -0.1757 -3.0735
  844MOL0     H13883   0.402   4.535   7.215 -2.2272 -2.4944  0.1460
  844MOL0     H13884   0.502   4.503   7.073  0.5649  0.0211  0.4123
  844MOL0     H13885   0.536   4.278   7.156  0.6831  0.8580 -3.3544
  844MOL0     H13886   0.421   4.306   7.292  1.0239 -0.7340 -0.0507
  844MOL0     H13887   0.265   4.382   7.071  0.3441  1.2809 -0.0704
  844MOL0     H13888   0.382   4.274   6.990  2.6749 -0.4595  1.8356
  844MOL0     H13889   0.214   4.196   7.235  0.0853 -1.4054 -0.0268
  844MOL0     H13890   0.304   4.083   7.130 -0.2315 -0.5559 -3.0561
  844MOL0     H13891   0.170   4.218   6.846  0.0842 -0.1366 -0.8796
  844MOL0     H13892  -0.052   4.162   6.682 -1.4352  2.3725 -0.4413
  844MOL0     H13893  -0.136   4.025   6.736  1.2815 -0.3007 -0.2631
  844MOL0     H13894  -0.205   4.314   6.770 -0.2335  0.3753  1.6512
  844MOL0     H13895  -0.269   4.193   6.887  0.0554 -0.4604 -0.0684
  844MOL0     H13896  -0.382   4.072   6.735 -1.8090  1.7227  0.6997
  844MOL0     H13897  -0.314   4.151   6.588 -0.5660  2.1820 -0.2430
  844MOL0     H13898  -0.419   4.367   6.662 -0.8948  0.9079  2.6853
  844MOL0     H13899  -0.506   4.252   6.770 -2.8413 -0.0018 -1.2627
  844MOL0     H13900  -0.668   4.362   6.769 -0.9411  0.1742  0.3865
  844MOL0     H13901  -0.960   4.536   6.751 -2.8736 -0.0769  1.0817
  844MOL0     H13902  -0.938   4.411   6.883  0.9866 -0.7123 -1.0834
  844MOL0     H13903  -0.809   4.520   6.834  0.2649 -1.1026  1.9554
  844MOL0     H13904  -1.292   4.551   6.852  0.9082  0.8593 -1.0685
  844MOL0     H13905  -1.540   4.573   6.873  1.0743 -1.0263 -0.0372
  844MOL0     H13906  -1.761   4.475   6.549  1.2529 -0.5297  0.6281
  844MOL0     H13907  -1.798   4.303   6.585 -1.6095 -0.3414 -0.0944
  844MOL0     H13908  -1.977   4.348   6.712 -0.0991  0.5964  1.3206
  844MOL0     H13909  -1.963   4.520   6.724 -0.6568 -1.7738  0.5671
  844MOL0     H13910  -1.993   4.398   6.448  4.8700  3.0080  0.1569
  844MOL0     H13911  -2.018   4.561   6.495 -0.4977 -0.6073 -1.1224
  844MOL0     H13912  -2.189   4.321   6.597  0.1000  0.1608  0.0809
  844MOL0     H13913  -2.232   4.488   6.628 -1.1890  0.2081  0.3999
  844MOL0     H13914  -2.275   4.322   6.389  0.3961  0.7145 -0.2243
  844MOL0     H13915  -2.223   4.480   6.346  0.4814 -3.3158 -1.8163
  844MOL0     H13916  -2.473   4.395   6.526  1.8762 -1.5548 -0.4831
  844MOL0     H13917  -2.423   4.564   6.512  0.3309  0.1125 -0.6501
  844MOL0     H13918  -2.493   4.379   6.280  0.9014 -1.0549  0.6748
  844MOL0     H13919  -2.444   4.555   6.269 -1.0246  0.0669  1.6663
  844MOL0     H13920  -2.664   4.584   6.258 -2.9557 -1.6743  0.4367
  844MOL0     H13921  -2.632   4.611   6.425 -1.9091 -0.2489  0.3475
  844MOL0     H13922  -1.590   4.245   6.595  1.5542  0.3150 -2.8284
  844MOL0     H13923  -1.341   4.225   6.577 -0.4077  0.6750 -1.0350
  844MOL0     H13924  -0.960   4.205   6.405  0.2801  0.7734  0.0987
  844MOL0     H13925  -0.719   4.148   6.403 -1.7310 -1.2101  0.7864
  844MOL0     H13926   1.162   4.176   7.275 -1.4510 -1.0726 -1.4164
  844MOL0     H13927   1.397   4.114   7.231  1.9128 -0.1541 -1.3683
  844MOL0     H13928   1.748   4.058   7.035 -0.3530  0.9770 -0.2196
  844MOL0     H13929   1.974   3.964   7.045 -0.0127  2.0847 -2.2479
  844MOL0     H13930   2.134   3.836   7.163 -2.4136  1.9964  1.9074
  844MOL0     H13931   2.196   3.951   7.044  1.8925  1.2851  0.9621
  844MOL0     H13932   2.355   3.829   7.274  1.0838 -1.7851 -1.9671
  844MOL0     H13933   2.391   3.989   7.199 -2.1031  1.1903 -0.1339
  844MOL0     H13934   2.413   3.867   6.971  0.8407 -0.6302 -1.4174
  844MOL0     H13935   2.337   3.728   7.045 -1.5142  1.9579 -0.3906
  844MOL0     H13936   2.531   3.675   7.182  1.9555 -1.9680 -1.5954
  844MOL0     H13937   2.598   3.835   7.155  0.9388 -1.2425  0.7571
  844MOL0     H13938   2.761   3.603   6.837  2.8315  1.7279  2.3323
  844MOL0     H13939   2.051   4.174   7.418  2.1361  0.5569 -1.9261
  844MOL0     H13940   1.835   4.289   7.385  1.1679 -0.7895  0.2564
  845MOL0     O13941   8.301   4.048   6.788 -0.9777  0.4249  0.5075
  845MOL0     C13942   8.364   3.949   6.769 -0.6053  0.0790  0.6381
  845MOL0     O13943   8.302   3.832   6.732  0.1295 -0.2086  0.0590
  845MOL0     C13944   8.166   3.838   6.724  0.7799 -0.1696  0.3572
  845MOL0     C13945   8.092   3.783   6.829  0.1500  1.1140  0.3504
  845MOL0     C13946   7.954   3.760   6.823  0.8950 -0.7978 -0.5220
  845MOL0     C13947   7.874   3.821   6.721  0.4453 -0.5778 -0.7146
  845MOL0     O13948   7.736   3.834   6.731  0.3558 -0.3529  0.4930
  845MOL0     C13949   7.669   3.851   6.607 -0.0734  0.1827  0.2348
  845MOL0     C13950   7.527   3.799   6.646  0.1520  0.0183 -0.4794
  845MOL0     C13951   7.513   3.653   6.684  0.0174  0.4233  0.1128
  845MOL0     C13952   7.497   3.570   6.559  0.6279  0.0291 -1.1201
  845MOL0     C13953   7.485   3.422   6.591  0.5329  0.0201 -0.0795
  845MOL0     C13954   7.437   3.341   6.463 -0.2278  0.3659  0.4508
  845MOL0     C13955   7.540   3.362   6.348  0.0649 -0.0234 -0.4934
  845MOL0     C13956   7.511   3.259   6.231 -1.0940 -1.5519 -0.3890
  845MOL0     N13957   7.549   3.127   6.260  0.4538  0.0699 -0.8894
  845MOL0     C13958   7.681   3.082   6.249  0.1736 -0.3417 -0.1314
  845MOL0     C13959   7.682   2.959   6.291 -0.2393  0.3674  0.4436
  845MOL0     C13960   7.802   2.878   6.319  0.4391  0.3763 -0.4502
  845MOL0     C13961   7.816   2.759   6.219 -0.8301  0.3660  0.0294
  845MOL0     C13962   7.882   2.809   6.094  0.2403 -0.5874  0.3147
  845MOL0     C13963   8.036   2.838   6.112 -0.2630 -0.4699  0.8476
  845MOL0     O13964   8.090   2.898   5.992  0.1333  0.1405 -0.0178
  845MOL0     C13965   8.223   2.892   5.977 -0.7240 -0.3214  0.2317
  845MOL0     C13966   8.274   2.920   5.847 -0.4727  0.5924 -0.4824
  845MOL0     C13967   8.411   2.895   5.819  0.1282  0.5829  0.9464
  845MOL0     C13968   8.447   2.912   5.674 -0.4647  0.8751 -0.3308
  845MOL0     C13969   8.505   2.867   5.923  0.2370 -0.5334  0.2557
  845MOL0     C13970   8.652   2.877   5.901 -0.7967  0.1280 -0.5106
  845MOL0     O13971   8.723   2.786   5.981  0.5102 -0.3294 -0.0531
  845MOL0     C13972   8.854   2.805   6.016 -0.0309 -0.1777  0.3148
  845MOL0     C13973   8.889   2.916   6.092  0.1628 -0.5148  0.5072
  845MOL0     C13974   9.029   2.932   6.117  0.7806  0.6110  0.2694
  845MOL0     C13975   9.134   2.851   6.078 -0.2785 -0.6065 -0.3547
  845MOL0     O13976   9.269   2.875   6.080 -0.2788 -0.1098 -0.9937
  845MOL0     C13977   9.334   2.950   6.186 -0.5270  0.5708 -0.3125
  845MOL0     C13978   9.442   3.038   6.121  0.6241  0.6703  0.4553
  845MOL0     C13979   9.500   3.141   6.216 -0.6354  0.3293  0.1211
  845MOL0     C13980   9.633   3.190   6.162 -0.3549 -0.0558 -0.2037
  845MOL0     C13981   9.599   3.290   6.047  0.1385 -0.1399  0.3866
  845MOL0     C13982   9.716   3.329   5.951  0.2457 -0.3134  0.4825
  845MOL0     C13983   9.814   3.414   6.026  0.4276  0.4537 -0.2790
  845MOL0     C13984   9.940   3.421   5.952 -0.6150 -0.0707  0.2392
  845MOL0    Cl13985  10.021   3.263   5.963 -0.2036  0.1048 -0.0131
  845MOL0     C13986   9.097   2.737   6.005 -0.0235  0.1410  0.5797
  845MOL0     C13987   8.960   2.719   5.974  0.3411 -0.2379 -0.1390
  845MOL0     O13988   8.698   2.973   5.845  0.5483  0.1894  0.8424
  845MOL0     C13989   8.452   2.838   6.048  0.2723  0.0373 -0.2462
  845MOL0     C13990   8.311   2.841   6.076 -1.1462 -0.7704  0.4340
  845MOL0     N13991   7.553   2.926   6.334 -0.7422  0.6113 -0.4108
  845MOL0     N13992   7.477   3.031   6.321 -0.4912  0.6851 -0.3248
  845MOL0     C13993   7.945   3.875   6.612 -0.7822  0.2466  0.5622
  845MOL0     C13994   8.093   3.886   6.612  0.7580  0.2674  0.2007
  845MOL0     C13995   8.502   3.931   6.816  0.7756 -0.4554 -0.2883
  845MOL0     C13996   8.578   3.817   6.776  0.8636 -0.9248  0.2611
  845MOL0     C13997   8.697   3.792   6.840  0.3399  0.2679  0.4695
  845MOL0     C13998   8.748   3.881   6.932 -0.4371 -0.2588  0.9686
  845MOL0     O13999   8.854   3.851   7.011 -0.1837  0.3623  0.2435
  845MOL0     C14000   8.914   3.723   7.000 -0.0341  0.5915 -0.1369
  845MOL0     C14001   9.034   3.709   7.091 -0.6931 -0.7013  0.1484
  845MOL0     C14002   9.128   3.829   7.085  0.2675  0.0350 -0.2940
  845MOL0     C14003   9.234   3.802   7.189  0.0822  0.0972 -0.5192
  845MOL0     C14004   9.346   3.889   7.162  0.7816 -0.1603  0.0399
  845MOL0     C14005   9.454   3.961   7.151 -0.4923 -0.4341 -0.0242
  845MOL0     C14006   8.682   3.998   6.965 -0.3884 -0.0004 -0.4170
  845MOL0     C14007   8.557   4.024   6.907 -0.4883  0.3508  0.1176
  845MOL0     H14008   8.144   3.751   6.919  0.9427 -0.4671 -0.6276
  845MOL0     H14009   7.903   3.700   6.898  0.3508 -0.0661 -0.2985
  845MOL0     H14010   7.683   3.954   6.574  0.9048 -0.2542 -0.8028
  845MOL0     H14011   7.703   3.785   6.526 -0.0963 -1.4260  1.4832
  845MOL0     H14012   7.497   3.861   6.731  0.8215  0.5518 -0.6159
  845MOL0     H14013   7.461   3.831   6.565 -3.6709 -1.3544  1.8201
  845MOL0     H14014   7.596   3.621   6.747 -1.8488 -0.1523  2.4564
  845MOL0     H14015   7.418   3.641   6.737 -0.0403 -1.8772 -0.3958
  845MOL0     H14016   7.401   3.601   6.516  0.0444 -1.7461 -1.1856
  845MOL0     H14017   7.575   3.595   6.487  1.0055 -1.2504 -1.1790
  845MOL0     H14018   7.584   3.390   6.626  0.6108  0.1334 -0.1930
  845MOL0     H14019   7.416   3.402   6.673  1.1268  0.2984  0.4990
  845MOL0     H14020   7.425   3.234   6.485  2.0233 -0.0092  0.0532
  845MOL0     H14021   7.335   3.374   6.442 -1.3155 -3.7964 -1.9857
  845MOL0     H14022   7.526   3.464   6.310  0.1799  0.2650  0.2313
  845MOL0     H14023   7.643   3.351   6.382  0.8372 -1.3505 -2.9886
  845MOL0     H14024   7.559   3.293   6.139 -2.1613  0.7073 -0.1735
  845MOL0     H14025   7.406   3.257   6.201 -1.9314  1.2479  1.8780
  845MOL0     H14026   7.769   3.135   6.213  0.3227 -1.6942 -1.8787
  845MOL0     H14027   7.890   2.941   6.305  0.8680 -0.3581 -1.1528
  845MOL0     H14028   7.798   2.831   6.418  2.9848 -0.0691 -0.4987
  845MOL0     H14029   7.718   2.711   6.208 -1.2171 -0.4052  4.6047
  845MOL0     H14030   7.887   2.698   6.274  1.6646  0.9742 -2.3429
  845MOL0     H14031   7.835   2.904   6.069 -2.2242 -1.1435  2.4142
  845MOL0     H14032   7.876   2.740   6.010 -1.1289 -0.8108  0.5762
  845MOL0     H14033   8.082   2.739   6.125 -0.3853 -0.6418  0.0328
  845MOL0     H14034   8.058   2.902   6.198 -5.6864  3.2444 -0.0238
  845MOL0     H14035   8.209   2.953   5.767  1.1851  0.5372 -1.9129
  845MOL0     H14036   8.365   2.903   5.603 -2.4686  1.7417  1.7331
  845MOL0     H14037   8.498   3.007   5.655  2.3471 -1.2099 -4.9583
  845MOL0     H14038   8.523   2.838   5.649 -1.3157 -0.5153  1.0200
  845MOL0     H14039   8.812   2.984   6.128 -0.2172  0.9624 -2.7163
  845MOL0     H14040   9.064   3.014   6.180  1.5134 -1.6139  2.9749
  845MOL0     H14041   9.257   3.015   6.229 -0.9477  2.7172 -3.9569
  845MOL0     H14042   9.367   2.885   6.268 -0.0028  1.0028 -0.1736
  845MOL0     H14043   9.517   2.977   6.070 -0.0569  0.9234 -0.9066
  845MOL0     H14044   9.398   3.096   6.039 -0.6134 -1.5832 -0.5606
  845MOL0     H14045   9.511   3.091   6.312 -3.5733  1.1628  0.9919
  845MOL0     H14046   9.424   3.219   6.228 -2.9238 -1.9339  1.2125
  845MOL0     H14047   9.691   3.240   6.240 -0.4583  1.6886 -1.1818
  845MOL0     H14048   9.688   3.108   6.116 -1.2062  1.1095 -3.6902
  845MOL0     H14049   9.557   3.384   6.083 -0.8663 -1.1204  1.8720
  845MOL0     H14050   9.526   3.250   5.976 -0.8596  2.7019 -0.3413
  845MOL0     H14051   9.758   3.237   5.910  2.1379 -0.7018  3.0350
  845MOL0     H14052   9.670   3.381   5.866  0.0537 -1.9379 -0.4390
  845MOL0     H14053   9.836   3.373   6.125 -0.1875 -0.3088 -0.4562
  845MOL0     H14054   9.772   3.514   6.040 -0.4338  0.2362 -1.1863
  845MOL0     H14055   9.998   3.505   5.990 -2.4102  2.3462 -1.9962
  845MOL0     H14056   9.919   3.446   5.848  0.4104  0.7149  0.2015
  845MOL0     H14057   9.177   2.670   5.974  1.1407  2.5893 -2.2492
  845MOL0     H14058   8.938   2.624   5.926 -1.7367  0.1298 -0.0333
  845MOL0     H14059   8.515   2.827   6.136  1.6494  2.6368 -0.8027
  845MOL0     H14060   8.283   2.806   6.175 -0.8119  1.8252  1.5358
  845MOL0     H14061   7.890   3.922   6.531 -1.6916 -0.5673  0.6785
  845MOL0     H14062   8.139   3.932   6.525  0.2629  1.4355  0.5289
  845MOL0     H14063   8.531   3.738   6.718  1.8497 -1.4797  0.2037
  845MOL0     H14064   8.762   3.711   6.809  0.7875 -0.5171  3.2196
  845MOL0     H14065   8.841   3.642   7.011 -0.2829  0.8527  0.1944
  845MOL0     H14066   8.965   3.712   6.904  0.7889 -3.3033  0.5889
  845MOL0     H14067   9.082   3.613   7.075  1.0501  0.3525 -1.3456
  845MOL0     H14068   8.987   3.711   7.190  2.4034 -0.3061  1.7276
  845MOL0     H14069   9.079   3.921   7.119  2.8166  0.7520  1.7813
  845MOL0     H14070   9.174   3.858   6.991  0.3638  1.4820  0.1761
  845MOL0     H14071   9.269   3.699   7.183  1.3999  0.4668  0.4556
  845MOL0     H14072   9.195   3.813   7.291  0.0963  0.4269 -0.5475
  845MOL0     H14073   9.540   4.019   7.123  1.6182 -2.0185  2.7188
  845MOL0     H14074   8.713   4.068   7.041  0.8941 -1.0621  0.0782
  845MOL0     H14075   8.494   4.106   6.940  0.8705  0.7621  1.8753
  846MOL0     O14076   7.695   2.651   1.021 -0.2232  0.2880  0.6228
  846MOL0     C14077   7.712   2.741   1.099  0.6087  0.4271 -1.0511
  846MOL0     O14078   7.618   2.788   1.183  0.6106 -0.3334  0.4160
  846MOL0     C14079   7.489   2.739   1.195  0.6944 -0.2673  0.2082
  846MOL0     C14080   7.388   2.754   1.091  0.1243  0.7743 -0.1173
  846MOL0     C14081   7.261   2.701   1.106 -0.0275 -0.0191  0.0661
  846MOL0     C14082   7.224   2.645   1.234  0.2619  0.0759  0.1983
  846MOL0     O14083   7.105   2.581   1.272 -0.2295 -0.7479  0.0487
  846MOL0     C14084   6.985   2.603   1.202  0.4953  0.1474  0.6238
  846MOL0     C14085   6.872   2.517   1.257 -0.0936 -0.3749  0.1614
  846MOL0     C14086   6.744   2.557   1.197  0.3571  0.6783 -0.1923
  846MOL0     C14087   6.629   2.480   1.267 -1.0780 -0.4863 -0.5460
  846MOL0     C14088   6.505   2.471   1.174  0.2017 -0.4697  0.7537
  846MOL0     C14089   6.461   2.604   1.101 -0.5836 -0.7253  0.6475
  846MOL0     C14090   6.419   2.717   1.188  0.0630  0.1080 -0.2401
  846MOL0     C14091   6.267   2.719   1.208 -0.2424 -0.0854 -0.2801
  846MOL0     N14092   6.224   2.598   1.277  0.4314  0.2818 -0.3973
  846MOL0     C14093   6.238   2.575   1.414 -0.1753  0.4886  0.1257
  846MOL0     C14094   6.177   2.461   1.439 -0.2411 -0.5713 -0.3165
  846MOL0     C14095   6.162   2.407   1.571  0.5408  0.7697 -0.7832
  846MOL0     C14096   6.040   2.469   1.643 -0.3305 -0.1565  0.2547
  846MOL0     C14097   5.976   2.386   1.756  0.3862 -0.6045 -0.1124
  846MOL0     C14098   5.849   2.463   1.807  1.0509  0.9400  0.3055
  846MOL0     O14099   5.769   2.389   1.904 -0.4476  0.2540  0.1883
  846MOL0     C14100   5.647   2.444   1.936  0.3827 -0.4483  0.1914
  846MOL0     C14101   5.560   2.361   2.012  0.2521 -0.6944 -0.4019
  846MOL0     C14102   5.442   2.412   2.072  0.3494  0.5801 -0.9296
  846MOL0     C14103   5.366   2.324   2.164 -0.1834 -0.7311 -0.5831
  846MOL0     C14104   5.399   2.546   2.043  0.0625  0.6659 -0.0951
  846MOL0     C14105   5.276   2.606   2.100  0.2121  0.8348 -0.3129
  846MOL0     O14106   5.210   2.704   2.018  0.1015 -0.5776 -0.2051
  846MOL0     C14107   5.103   2.760   2.074 -0.7578 -0.6711 -0.0672
  846MOL0     C14108   5.098   2.857   2.174 -0.7584 -0.7084  0.3087
  846MOL0     C14109   4.980   2.897   2.233 -0.0169  0.3192 -0.6356
  846MOL0     C14110   4.862   2.828   2.203  0.9290 -0.3371  0.1246
  846MOL0     O14111   4.741   2.830   2.276 -0.4152 -0.4773  0.1158
  846MOL0     C14112   4.742   2.875   2.408 -0.1312 -0.6073  0.4563
  846MOL0     C14113   4.594   2.873   2.444  0.3332 -0.1490 -0.5561
  846MOL0     C14114   4.549   2.732   2.495 -0.2497  0.8697 -0.1565
  846MOL0     C14115   4.391   2.718   2.491  0.2351  1.3144  0.2418
  846MOL0     C14116   4.366   2.586   2.573 -0.7371  0.2025 -0.0669
  846MOL0     C14117   4.218   2.559   2.607 -0.0084 -0.4840  0.2364
  846MOL0     C14118   4.119   2.553   2.482 -0.5517  0.2777  0.1463
  846MOL0     C14119   3.968   2.555   2.523 -0.2180 -0.3656 -0.0188
  846MOL0    Cl14120   3.937   2.680   2.643 -0.2172 -0.6938  0.3567
  846MOL0     C14121   4.864   2.733   2.107 -0.2225  0.2418 -0.3359
  846MOL0     C14122   4.984   2.702   2.043  1.0479  0.0472 -0.5648
  846MOL0     O14123   5.247   2.578   2.215  0.2788 -0.1635 -0.0608
  846MOL0     C14124   5.468   2.609   1.943 -0.7586 -0.4529 -0.6250
  846MOL0     C14125   5.593   2.569   1.893  0.3762  0.4503  1.0013
  846MOL0     N14126   6.113   2.424   1.322 -0.2168  0.3728  0.1411
  846MOL0     N14127   6.147   2.494   1.226  1.0945  0.3985  0.4594
  846MOL0     C14128   7.317   2.641   1.336  0.2981 -1.3788  0.8763
  846MOL0     C14129   7.446   2.681   1.313 -0.1660 -0.3966  0.2523
  846MOL0     C14130   7.843   2.797   1.115  0.8632 -0.3011 -0.3566
  846MOL0     C14131   7.879   2.841   1.241 -0.4744  0.4976  0.7768
  846MOL0     C14132   8.007   2.887   1.261 -0.5257 -0.2596 -0.0021
  846MOL0     C14133   8.107   2.881   1.158 -0.1706  0.5337  0.2525
  846MOL0     O14134   8.240   2.918   1.183  0.4758 -0.0881  0.4486
  846MOL0     C14135   8.288   2.871   1.308  0.4599 -0.2770 -0.8383
  846MOL0     C14136   8.439   2.864   1.305  0.2652  0.6522 -0.2681
  846MOL0     C14137   8.489   3.007   1.329  0.2989  0.0533 -0.6648
  846MOL0     C14138   8.636   3.025   1.283 -0.2570  0.0673  0.8462
  846MOL0     C14139   8.697   3.144   1.330  0.3250  0.1537  0.0635
  846MOL0     C14140   8.751   3.241   1.372 -0.3297  0.6004 -0.0490
  846MOL0     C14141   8.067   2.844   1.034 -0.7342  0.1512 -0.6717
  846MOL0     C14142   7.940   2.795   1.011 -0.3926  0.2672 -0.8019
  846MOL0     H14143   7.418   2.798   0.997 -1.8453  0.8270 -0.7750
  846MOL0     H14144   7.185   2.707   1.029 -0.0517 -1.5259 -0.0544
  846MOL0     H14145   6.972   2.712   1.199  0.8663  0.2751  2.4265
  846MOL0     H14146   6.996   2.559   1.103  2.3286 -1.7885  1.6036
  846MOL0     H14147   6.899   2.412   1.246 -0.9246 -0.6172  0.3982
  846MOL0     H14148   6.875   2.537   1.364  0.5034 -1.0367  0.2695
  846MOL0     H14149   6.726   2.665   1.200  0.6075  0.6849  2.0019
  846MOL0     H14150   6.741   2.521   1.093  0.3988  1.9219 -0.6504
  846MOL0     H14151   6.660   2.381   1.302 -0.8260  0.4489  2.1480
  846MOL0     H14152   6.602   2.535   1.357 -1.3348  1.9268 -2.0099
  846MOL0     H14153   6.537   2.405   1.092  0.9671  1.2015 -0.3544
  846MOL0     H14154   6.423   2.427   1.231  0.6322 -1.0595  0.9302
  846MOL0     H14155   6.542   2.639   1.036 -1.1385 -1.2376 -0.3458
  846MOL0     H14156   6.382   2.568   1.034 -2.1135 -0.5892  2.2949
  846MOL0     H14157   6.478   2.717   1.280 -0.2274 -1.8242 -0.0140
  846MOL0     H14158   6.438   2.807   1.129  1.3894 -1.2607 -2.0312
  846MOL0     H14159   6.225   2.722   1.106 -2.2051 -0.4832  0.4717
  846MOL0     H14160   6.239   2.806   1.268 -2.5332 -0.3709 -0.8273
  846MOL0     H14161   6.299   2.623   1.490  0.7827  1.9336 -1.5100
  846MOL0     H14162   6.171   2.298   1.563 -1.7474  0.5124 -0.4347
  846MOL0     H14163   6.247   2.432   1.636 -0.8417 -2.5197  2.6645
  846MOL0     H14164   5.960   2.505   1.578  1.8159  2.6258 -1.0501
  846MOL0     H14165   6.094   2.553   1.689  1.9455 -0.5168 -1.5696
  846MOL0     H14166   6.055   2.368   1.830  2.8822  0.4982 -2.3446
  846MOL0     H14167   5.940   2.289   1.720 -3.6253 -0.0311  1.8320
  846MOL0     H14168   5.789   2.467   1.716 -0.4018 -3.0499  0.8893
  846MOL0     H14169   5.873   2.559   1.854  0.8244  1.6261 -0.9293
  846MOL0     H14170   5.597   2.261   2.034  1.2508 -0.0145  1.1477
  846MOL0     H14171   5.260   2.302   2.145  0.0563 -1.7804 -0.7671
  846MOL0     H14172   5.409   2.224   2.167 -0.3068 -0.7742  2.3096
  846MOL0     H14173   5.367   2.354   2.269 -2.3422 -1.5977 -0.2757
  846MOL0     H14174   5.196   2.892   2.206 -1.0620  2.2797 -1.6704
  846MOL0     H14175   4.971   2.972   2.310  0.2230 -0.1412 -0.1486
  846MOL0     H14176   4.791   2.815   2.485 -1.0962  0.7469  2.1884
  846MOL0     H14177   4.782   2.976   2.416  0.0503 -0.5565 -0.8262
  846MOL0     H14178   4.577   2.943   2.527  1.0132 -3.4155  2.6206
  846MOL0     H14179   4.530   2.899   2.360  0.2200  1.9922  0.1415
  846MOL0     H14180   4.582   2.702   2.595 -3.2260 -1.1401  0.3649
  846MOL0     H14181   4.585   2.651   2.432 -1.7670 -1.6008  1.9562
  846MOL0     H14182   4.350   2.805   2.542 -1.3074  0.0399  1.2862
  846MOL0     H14183   4.355   2.715   2.387 -0.4367 -1.1482  0.4790
  846MOL0     H14184   4.422   2.587   2.666 -2.3051  0.1595  0.9128
  846MOL0     H14185   4.406   2.498   2.522  0.1037  1.1073 -1.0058
  846MOL0     H14186   4.204   2.468   2.665  0.3067 -0.1580  0.8268
  846MOL0     H14187   4.188   2.633   2.681  0.6595  0.2297 -0.1972
  846MOL0     H14188   4.137   2.457   2.433  0.4769  1.2446 -1.4467
  846MOL0     H14189   4.143   2.634   2.412  2.2602 -0.1634  0.4811
  846MOL0     H14190   3.926   2.463   2.566  2.8251 -1.8091  0.1603
  846MOL0     H14191   3.908   2.578   2.435 -1.9367 -2.2891  0.5873
  846MOL0     H14192   4.775   2.676   2.083  0.3519 -1.3085  0.9833
  846MOL0     H14193   4.985   2.638   1.955  0.7255  0.2204 -0.6972
  846MOL0     H14194   5.441   2.712   1.920 -2.0703 -0.3116  1.2714
  846MOL0     H14195   5.652   2.630   1.826  0.2155 -1.0218 -0.5648
  846MOL0     H14196   7.277   2.592   1.424 -3.3431 -0.0056  0.2017
  846MOL0     H14197   7.517   2.686   1.395  1.7624  0.3818 -1.3529
  846MOL0     H14198   7.814   2.841   1.328 -0.5046 -1.4284  0.7963
  846MOL0     H14199   8.043   2.923   1.357  1.0938  0.5197 -0.8425
  846MOL0     H14200   8.263   2.955   1.374  1.6443 -1.3549  1.0785
  846MOL0     H14201   8.245   2.775   1.337  0.4108  0.2649  1.0069
  846MOL0     H14202   8.461   2.826   1.204 -0.0678 -0.7755  0.1776
  846MOL0     H14203   8.485   2.792   1.372  2.9159  0.5343 -2.0496
  846MOL0     H14204   8.483   3.046   1.431  1.4857 -1.5466  0.0668
  846MOL0     H14205   8.429   3.070   1.263 -1.4654 -1.4596 -0.5887
  846MOL0     H14206   8.640   3.015   1.174 -0.0190 -1.8179  0.9998
  846MOL0     H14207   8.700   2.948   1.326  1.5448 -0.1204 -1.8914
  846MOL0     H14208   8.802   3.329   1.405 -2.7564  1.2644  2.1919
  846MOL0     H14209   8.139   2.834   0.953 -0.8729  0.8452 -0.8869
  846MOL0     H14210   7.917   2.748   0.916 -0.2054  1.0763 -1.2500
  847MOL0     O14211  10.133  10.634   1.483  0.6667  0.0683 -0.0282
  847MOL0     C14212  10.142  10.596   1.596 -1.1437  1.3058  0.0293
  847MOL0     O14213  10.255  10.599   1.666 -0.5103 -0.0142  0.0191
  847MOL0     C14214  10.365  10.666   1.617  0.7051  0.2365  0.3848
  847MOL0     C14215  10.356  10.798   1.564  0.8132  0.4751  0.1490
  847MOL0     C14216  10.470  10.870   1.527  0.3868  0.6528  0.4427
  847MOL0     C14217  10.593  10.814   1.550 -0.2203  0.2330  0.9416
  847MOL0     O14218  10.690  10.891   1.493 -0.4644  0.2046 -0.3308
  847MOL0     C14219  10.831  10.869   1.525 -0.3818  0.3392  0.1120
  847MOL0     C14220  10.924  10.951   1.433  0.2756 -0.3518  0.2273
  847MOL0     C14221  11.037  11.009   1.516 -0.2952  0.0638 -0.5493
  847MOL0     C14222  10.998  11.122   1.610 -0.7236 -0.7067  0.7291
  847MOL0     C14223  10.891  11.226   1.568  0.3531  0.6551  0.4095
  847MOL0     C14224  10.848  11.314   1.691  0.7757 -0.4656 -0.6296
  847MOL0     C14225  10.722  11.260   1.747  0.9000 -0.0471 -0.1542
  847MOL0     C14226  10.596  11.306   1.680  0.7738 -0.3441  0.7567
  847MOL0     N14227  10.469  11.264   1.743 -0.2734 -0.6905 -0.0916
  847MOL0     C14228  10.428  11.142   1.793 -0.3095  0.3578  0.7696
  847MOL0     C14229  10.329  11.174   1.871 -0.3505  0.5590  0.0719
  847MOL0     C14230  10.264  11.084   1.970  0.6403  0.3678  0.3173
  847MOL0     C14231  10.113  11.086   1.943 -0.1708  1.5899 -0.1618
  847MOL0     C14232  10.075  10.950   1.866 -0.2074 -0.2746 -0.5557
  847MOL0     C14233   9.923  10.921   1.876 -0.3228 -0.0873 -0.8224
  847MOL0     O14234   9.901  10.887   2.007 -0.2592 -0.0420 -0.0004
  847MOL0     C14235   9.768  10.857   2.046 -0.6576  0.2213  0.0915
  847MOL0     C14236   9.648  10.885   1.975 -0.0578 -0.5156 -0.6562
  847MOL0     C14237   9.523  10.844   2.016 -0.0275  0.2307  0.4758
  847MOL0     C14238   9.403  10.891   1.927 -0.2023  0.5278  0.0994
  847MOL0     C14239   9.513  10.776   2.132  0.3327  0.1861 -0.7061
  847MOL0     C14240   9.383  10.725   2.182 -0.5716  0.3168  0.7819
  847MOL0     O14241   9.353  10.753   2.316  0.3546  0.2852  0.1192
  847MOL0     C14242   9.232  10.713   2.364 -0.3424 -0.4556  0.4111
  847MOL0     C14243   9.219  10.682   2.500  0.5512 -0.5789  0.0965
  847MOL0     C14244   9.096  10.653   2.560 -0.2216  0.1466  0.6944
  847MOL0     C14245   8.976  10.645   2.483  0.0710 -0.2391 -0.2169
  847MOL0     O14246   8.847  10.615   2.520 -0.1300  0.0330  0.1745
  847MOL0     C14247   8.820  10.573   2.657  0.5322 -0.3726  0.5552
  847MOL0     C14248   8.856  10.422   2.675 -0.3913  0.2822 -0.7688
  847MOL0     C14249   8.796  10.324   2.571  0.6847 -0.5351 -0.3446
  847MOL0     C14250   8.788  10.178   2.643  0.3977 -0.5190 -0.1383
  847MOL0     C14251   8.777  10.065   2.541  0.0121 -0.5021 -0.1160
  847MOL0     C14252   8.642  10.063   2.458  0.6711  0.5045 -0.2004
  847MOL0     C14253   8.528  10.014   2.553  0.0964  0.4565 -0.1454
  847MOL0     C14254   8.420   9.916   2.483 -0.3733  0.1066 -0.7312
  847MOL0    Cl14255   8.270   9.919   2.586  0.0491  0.4769  0.1648
  847MOL0     C14256   8.988  10.664   2.345 -0.4844  0.0489 -0.5751
  847MOL0     C14257   9.109  10.703   2.287 -0.3315 -0.2308 -0.4128
  847MOL0     O14258   9.317  10.655   2.105 -0.0068 -0.2755 -0.4036
  847MOL0     C14259   9.626  10.755   2.217  1.4462  0.7831 -0.6189
  847MOL0     C14260   9.752  10.801   2.174 -0.2738 -0.2467 -0.2114
  847MOL0     N14261  10.308  11.310   1.873 -0.1635  0.2087 -0.2850
  847MOL0     N14262  10.391  11.362   1.797  0.7520  0.5924  0.4791
  847MOL0     C14263  10.599  10.685   1.611  0.3563 -0.2262  0.4293
  847MOL0     C14264  10.487  10.609   1.641  0.0646 -0.1551 -0.0234
  847MOL0     C14265  10.026  10.548   1.676  0.5547 -0.7946  0.1631
  847MOL0     C14266   9.921  10.494   1.596 -0.5725  0.3238 -0.5675
  847MOL0     C14267   9.804  10.452   1.648 -0.2070  0.2274 -0.6064
  847MOL0     C14268   9.780  10.451   1.783  0.4572  0.5112 -0.3311
  847MOL0     O14269   9.664  10.403   1.831  0.3415  0.2396  0.0706
  847MOL0     C14270   9.639  10.401   1.971  0.1751  0.1657  0.4291
  847MOL0     C14271   9.504  10.334   1.986 -0.7418 -0.1952  0.1448
  847MOL0     C14272   9.456  10.345   2.135  0.4987  0.4047  0.7993
  847MOL0     C14273   9.312  10.288   2.134  0.4519 -0.0588 -0.4843
  847MOL0     C14274   9.248  10.340   2.257 -0.5056  0.4531  0.4011
  847MOL0     C14275   9.188  10.378   2.360  0.0049 -0.2780  0.4642
  847MOL0     C14276   9.885  10.510   1.865 -0.0610 -0.0330 -0.1086
  847MOL0     C14277  10.010  10.557   1.814 -0.1908 -0.1526 -0.2680
  847MOL0     H14278  10.261  10.839   1.533 -0.1657 -3.1338 -2.2292
  847MOL0     H14279  10.461  10.957   1.462 -1.3088 -0.4066 -0.8399
  847MOL0     H14280  10.856  10.900   1.627  0.8164 -0.8945  0.2284
  847MOL0     H14281  10.848  10.761   1.527  1.4426  0.5876 -0.4181
  847MOL0     H14282  10.960  10.891   1.349 -0.7726  1.1507 -1.3556
  847MOL0     H14283  10.862  11.032   1.393 -2.1228 -1.4106  1.5634
  847MOL0     H14284  11.086  10.930   1.574 -0.4798 -0.5915 -1.2507
  847MOL0     H14285  11.128  11.033   1.460 -0.1150  1.7615  0.4356
  847MOL0     H14286  10.965  11.071   1.700 -1.8346 -0.8725  0.2434
  847MOL0     H14287  11.097  11.167   1.626 -0.6864 -1.0302  1.4220
  847MOL0     H14288  10.936  11.289   1.492  0.4826 -2.6158 -2.4601
  847MOL0     H14289  10.802  11.190   1.514  2.4623 -0.0452 -2.8432
  847MOL0     H14290  10.925  11.308   1.769  2.7751 -0.5270 -2.5048
  847MOL0     H14291  10.840  11.419   1.661  3.3163 -0.6880 -2.4337
  847MOL0     H14292  10.726  11.151   1.743  1.0105 -0.0407 -0.2137
  847MOL0     H14293  10.722  11.304   1.847  1.4305  2.3935 -1.1562
  847MOL0     H14294  10.600  11.274   1.575  0.3167  2.4656 -0.2056
  847MOL0     H14295  10.590  11.415   1.678 -1.0327 -0.4150  0.6647
  847MOL0     H14296  10.471  11.045   1.768  2.3783  2.1307 -2.2570
  847MOL0     H14297  10.316  10.987   1.972  0.5219  0.0807 -3.4442
  847MOL0     H14298  10.290  11.137   2.062 -1.1383  0.4377  0.8187
  847MOL0     H14299  10.071  11.160   1.874 -1.2027  0.2388 -1.0305
  847MOL0     H14300  10.051  11.084   2.033 -1.8020 -0.1728 -1.2491
  847MOL0     H14301  10.125  10.861   1.904  0.1370 -0.0796 -0.5477
  847MOL0     H14302  10.096  10.956   1.758 -0.4014 -1.3083 -0.6547
  847MOL0     H14303   9.899  10.836   1.811 -0.1983 -1.0633  0.3590
  847MOL0     H14304   9.866  11.012   1.857  1.1522  1.5233  1.8469
  847MOL0     H14305   9.669  10.946   1.888  0.9076 -3.0975 -2.3739
  847MOL0     H14306   9.433  10.987   1.886  0.7555  0.7789  1.3219
  847MOL0     H14307   9.386  10.814   1.851 -0.8876 -2.4116  2.9703
  847MOL0     H14308   9.312  10.900   1.988 -1.3752  0.6063 -1.5923
  847MOL0     H14309   9.309  10.677   2.561  0.9368  2.0353 -0.1507
  847MOL0     H14310   9.094  10.643   2.668 -0.1187  3.3815  1.0710
  847MOL0     H14311   8.880  10.633   2.727 -0.3753  2.6981 -1.0975
  847MOL0     H14312   8.718  10.598   2.685  0.1407 -0.6324 -0.6125
  847MOL0     H14313   8.965  10.421   2.682 -0.2816 -0.1183 -2.3016
  847MOL0     H14314   8.826  10.392   2.776  1.1828 -1.1472 -0.6762
  847MOL0     H14315   8.862  10.326   2.484  1.9716 -1.0133  0.5752
  847MOL0     H14316   8.693  10.347   2.546  0.4545 -1.6901 -0.5338
  847MOL0     H14317   8.880  10.166   2.701 -0.4665 -1.0066  1.1495
  847MOL0     H14318   8.706  10.170   2.714 -0.4067  1.3847 -0.7704
  847MOL0     H14319   8.795   9.972   2.597  2.5468 -1.2201 -1.9336
  847MOL0     H14320   8.855  10.078   2.466  0.2794 -3.7979 -0.5648
  847MOL0     H14321   8.627  10.158   2.406 -0.6232  0.2221 -0.3765
  847MOL0     H14322   8.660   9.991   2.378 -0.2173  2.3020 -2.0754
  847MOL0     H14323   8.484  10.108   2.586  0.9039  0.7762  0.0339
  847MOL0     H14324   8.565   9.970   2.646  3.9858  0.9539 -1.2818
  847MOL0     H14325   8.452   9.813   2.468 -1.3305 -0.1966 -0.7567
  847MOL0     H14326   8.392   9.952   2.384  0.8396 -1.5569 -1.7229
  847MOL0     H14327   8.908  10.645   2.274  0.8202 -0.8453 -1.8832
  847MOL0     H14328   9.100  10.723   2.180 -0.9864  1.8121 -0.0046
  847MOL0     H14329   9.617  10.704   2.313  0.5029  1.0706 -0.5440
  847MOL0     H14330   9.847  10.790   2.226  1.1405  1.1464 -2.3171
  847MOL0     H14331  10.694  10.633   1.621  2.8470  3.3414 -1.9868
  847MOL0     H14332  10.488  10.510   1.685 -0.4163  0.3538  1.1754
  847MOL0     H14333   9.929  10.495   1.487  2.6039  0.7210 -0.4236
  847MOL0     H14334   9.722  10.426   1.582  0.2632  2.9870 -2.4280
  847MOL0     H14335   9.716  10.344   2.024 -0.2498  0.2981  1.1975
  847MOL0     H14336   9.639  10.503   2.009  1.7208 -0.0896  1.1568
  847MOL0     H14337   9.514  10.228   1.961 -2.5264 -0.5800  0.8789
  847MOL0     H14338   9.431  10.383   1.920 -0.9891 -2.0993 -1.0611
  847MOL0     H14339   9.458  10.449   2.170 -0.7792 -0.2786  3.1405
  847MOL0     H14340   9.525  10.284   2.194  1.0560 -1.4878 -1.6463
  847MOL0     H14341   9.321  10.179   2.127 -0.1777 -0.3067  1.9171
  847MOL0     H14342   9.256  10.329   2.049  0.8492  0.0411 -0.7038
  847MOL0     H14343   9.133  10.409   2.446  0.6687  0.3494  0.6705
  847MOL0     H14344   9.870  10.515   1.973 -1.3838  4.2035 -0.3023
  847MOL0     H14345  10.076  10.604   1.887 -1.0335 -0.7084  0.8754
  848MOL0     O14346   1.100   5.933   1.036 -0.4116  0.9444 -0.7688
  848MOL0     C14347   1.142   5.889   1.143  0.1774  0.0775 -0.1033
  848MOL0     O14348   1.076   5.812   1.234 -0.4827  0.2478  0.1343
  848MOL0     C14349   0.961   5.768   1.194  0.0438  0.4298  0.0431
  848MOL0     C14350   0.949   5.650   1.111  0.7708 -1.1056 -0.4040
  848MOL0     C14351   0.817   5.595   1.083 -0.9523 -0.4878 -0.2729
  848MOL0     C14352   0.711   5.670   1.132 -0.0536  0.1446 -0.1357
  848MOL0     O14353   0.582   5.632   1.104  0.8662  0.2730 -0.0357
  848MOL0     C14354   0.478   5.738   1.098  0.0064  0.0558 -0.1003
  848MOL0     C14355   0.358   5.703   1.017 -0.6330 -0.3857 -0.4457
  848MOL0     C14356   0.254   5.811   1.017 -0.6006 -0.3501  0.3731
  848MOL0     C14357   0.125   5.774   0.946  0.4457  0.1058 -0.5657
  848MOL0     C14358   0.023   5.888   0.948  0.7648  0.9345  0.4732
  848MOL0     C14359  -0.092   5.869   0.838 -0.1819  0.1079  0.0920
  848MOL0     C14360  -0.199   5.969   0.864  0.5341 -0.1886 -0.4379
  848MOL0     C14361  -0.306   5.969   0.752 -0.6239  0.3468 -0.1227
  848MOL0     N14362  -0.366   5.835   0.729 -0.2456 -0.4740 -0.4449
  848MOL0     C14363  -0.441   5.760   0.822  0.6193 -0.0989  0.7460
  848MOL0     C14364  -0.528   5.687   0.748 -0.2251 -0.0963  0.5144
  848MOL0     C14365  -0.641   5.581   0.791 -0.4031 -0.4935  0.3840
  848MOL0     C14366  -0.759   5.586   0.701 -0.2007  0.2980 -0.3581
  848MOL0     C14367  -0.863   5.489   0.753 -0.1040  0.0150 -0.0254
  848MOL0     C14368  -0.980   5.471   0.651 -1.3252  1.0561  0.0867
  848MOL0     O14369  -1.068   5.585   0.676 -0.0010 -0.0150  0.2004
  848MOL0     C14370  -1.163   5.601   0.582  0.5051 -0.1204  0.1328
  848MOL0     C14371  -1.273   5.694   0.610  0.7834  0.7174  0.6057
  848MOL0     C14372  -1.375   5.725   0.517 -0.6423 -0.4256 -0.3088
  848MOL0     C14373  -1.483   5.825   0.556  0.3001  0.3192 -0.1705
  848MOL0     C14374  -1.377   5.656   0.389  0.2049  0.7021  0.0257
  848MOL0     C14375  -1.486   5.678   0.290 -0.7593  0.3727  0.7286
  848MOL0     O14376  -1.439   5.667   0.159  0.2267  0.9594 -0.0539
  848MOL0     C14377  -1.516   5.715   0.062  0.3839 -0.5544  0.8009
  848MOL0     C14378  -1.609   5.822   0.068 -0.4121  0.2827 -0.5254
  848MOL0     C14379  -1.691   5.849  -0.041 -1.0174  0.7108  0.6212
  848MOL0     C14380  -1.674   5.785  -0.164 -0.2352 -0.1876 -0.6035
  848MOL0     O14381  -1.754   5.835  -0.270 -0.5859 -0.5584 -0.3837
  848MOL0     C14382  -1.754   5.766  -0.392 -0.1222  0.7249 -0.4996
  848MOL0     C14383  -1.815   5.843  -0.508 -0.2702 -0.0176  0.4381
  848MOL0     C14384  -1.842   5.761  -0.639  0.9895 -0.0244  0.1021
  848MOL0     C14385  -1.926   5.833  -0.740  0.0214 -0.1193  0.0385
  848MOL0     C14386  -1.859   5.924  -0.839  0.1245 -0.5080  0.5862
  848MOL0     C14387  -1.807   5.831  -0.961 -0.0767  0.1829 -0.4451
  848MOL0     C14388  -1.754   5.923  -1.071 -0.0193 -1.1787  0.2324
  848MOL0     C14389  -1.744   5.843  -1.201 -0.5557 -0.1366  0.5566
  848MOL0    Cl14390  -1.627   5.708  -1.175  0.2275  0.2517 -0.1625
  848MOL0     C14391  -1.572   5.687  -0.176  0.6539  1.0205  0.5545
  848MOL0     C14392  -1.498   5.655  -0.058 -0.2380  0.3768  0.9273
  848MOL0     O14393  -1.607   5.697   0.328 -0.5973 -0.5224  1.0390
  848MOL0     C14394  -1.273   5.567   0.364  0.2898 -0.0845 -0.6546
  848MOL0     C14395  -1.161   5.554   0.453 -0.3424  0.1539  0.0748
  848MOL0     N14396  -0.507   5.714   0.616  0.1745 -0.2098 -0.0049
  848MOL0     N14397  -0.404   5.786   0.610  0.7965 -0.9455 -0.6935
  848MOL0     C14398   0.722   5.794   1.211  0.0406  0.3821  1.2580
  848MOL0     C14399   0.849   5.833   1.240  0.6116  0.4208 -0.5173
  848MOL0     C14400   1.283   5.935   1.175  1.0192  0.2290  0.8542
  848MOL0     C14401   1.345   6.022   1.089 -0.4612 -0.4237 -0.0884
  848MOL0     C14402   1.480   6.057   1.109  0.1362 -0.4954  0.5499
  848MOL0     C14403   1.553   6.014   1.218  0.2668 -0.0138 -0.4913
  848MOL0     O14404   1.676   6.053   1.254  0.2718 -0.0010  0.3268
  848MOL0     C14405   1.772   6.118   1.166  0.9598  1.4441 -0.9594
  848MOL0     C14406   1.902   6.130   1.248 -0.3526  0.5726 -0.0887
  848MOL0     C14407   1.892   6.226   1.365 -0.5317 -0.9576 -0.6230
  848MOL0     C14408   2.033   6.251   1.416 -0.2557 -0.1408 -0.2646
  848MOL0     C14409   2.029   6.322   1.547 -0.4227 -0.5589 -0.2300
  848MOL0     C14410   2.051   6.368   1.662  0.3254 -0.0071  0.0450
  848MOL0     C14411   1.485   5.929   1.303 -1.0070  0.8321 -0.1419
  848MOL0     C14412   1.353   5.884   1.285 -0.5413 -0.7783  0.4801
  848MOL0     H14413   1.034   5.597   1.068  1.9252  1.0173 -0.8786
  848MOL0     H14414   0.803   5.515   1.012 -0.4078  0.8538 -1.9590
  848MOL0     H14415   0.439   5.761   1.198 -2.7145  3.1014 -1.6308
  848MOL0     H14416   0.525   5.832   1.068 -0.5125 -0.5165 -2.9774
  848MOL0     H14417   0.392   5.682   0.915 -0.3781 -2.4706  0.0159
  848MOL0     H14418   0.313   5.614   1.061 -1.7772  0.8745  1.0376
  848MOL0     H14419   0.241   5.837   1.122  0.5000 -2.5573  1.1047
  848MOL0     H14420   0.297   5.897   0.964 -1.2246  0.4434  1.1092
  848MOL0     H14421   0.153   5.738   0.847  0.6402  2.1411 -1.2929
  848MOL0     H14422   0.083   5.692   1.005 -1.3440  2.0308  0.9929
  848MOL0     H14423  -0.018   5.907   1.048 -0.9731 -1.1097  0.2171
  848MOL0     H14424   0.079   5.979   0.925  0.7395  0.7530 -0.3271
  848MOL0     H14425  -0.060   5.888   0.735 -1.8801  0.6314 -0.3629
  848MOL0     H14426  -0.141   5.771   0.833 -0.1829  0.1709 -1.5480
  848MOL0     H14427  -0.240   5.956   0.964 -0.4233 -1.1328 -0.9289
  848MOL0     H14428  -0.145   6.063   0.852  1.7404 -0.6386  1.2318
  848MOL0     H14429  -0.263   6.015   0.662  0.5410  1.0508  0.7648
  848MOL0     H14430  -0.378   6.040   0.792  0.6360  1.2514  0.6192
  848MOL0     H14431  -0.443   5.776   0.929 -1.2873  1.1120  0.5701
  848MOL0     H14432  -0.604   5.479   0.801  0.1669 -0.0822  4.3364
  848MOL0     H14433  -0.655   5.603   0.898  1.3234  1.6475  0.2515
  848MOL0     H14434  -0.731   5.569   0.597  1.0283  1.7779 -0.2811
  848MOL0     H14435  -0.806   5.685   0.703  1.8096  1.4776 -3.7501
  848MOL0     H14436  -0.892   5.511   0.856  2.2164  0.3648  0.6087
  848MOL0     H14437  -0.822   5.388   0.755  0.1639  0.0642  3.8766
  848MOL0     H14438  -1.024   5.372   0.664  3.7207 -1.2826  1.5814
  848MOL0     H14439  -0.937   5.477   0.550  2.5320 -1.1346  1.4075
  848MOL0     H14440  -1.267   5.749   0.703  0.3622 -0.5640  1.4157
  848MOL0     H14441  -1.504   5.900   0.479  1.6821 -0.7610 -1.6604
  848MOL0     H14442  -1.577   5.771   0.571 -0.7443  1.9779 -0.4313
  848MOL0     H14443  -1.454   5.888   0.641  1.0954  1.3502 -1.1779
  848MOL0     H14444  -1.637   5.880   0.156 -1.5263 -0.8183 -0.1170
  848MOL0     H14445  -1.770   5.922  -0.026  1.1387  3.3150  0.2316
  848MOL0     H14446  -1.653   5.752  -0.431  0.1176  0.5903  0.1636
  848MOL0     H14447  -1.811   5.674  -0.376  0.3075  0.0913 -2.3122
  848MOL0     H14448  -1.913   5.874  -0.471 -0.2202  1.1477 -0.3464
  848MOL0     H14449  -1.745   5.922  -0.538  2.2656 -2.3856 -0.3206
  848MOL0     H14450  -1.889   5.670  -0.600 -1.4394  1.5900  1.2081
  848MOL0     H14451  -1.746   5.731  -0.683  2.0055  0.5774  1.8132
  848MOL0     H14452  -1.985   5.761  -0.797 -2.5307  1.3527  0.6578
  848MOL0     H14453  -2.001   5.893  -0.688  0.0581  0.1882 -0.2594
  848MOL0     H14454  -1.775   5.983  -0.801  0.8285 -2.6482  2.5998
  848MOL0     H14455  -1.935   5.992  -0.879  1.0757  0.6013  0.6089
  848MOL0     H14456  -1.730   5.762  -0.925  1.0410  2.7101  2.4832
  848MOL0     H14457  -1.886   5.765  -0.997 -1.3792  0.0394  2.4116
  848MOL0     H14458  -1.653   5.962  -1.055 -0.0600 -0.2430 -1.5804
  848MOL0     H14459  -1.831   5.995  -1.097  0.2365 -1.9884 -3.3488
  848MOL0     H14460  -1.704   5.899  -1.286  0.4283 -1.2179  0.2813
  848MOL0     H14461  -1.835   5.799  -1.242  1.3144 -4.2335  0.3310
  848MOL0     H14462  -1.566   5.633  -0.269 -0.4043  2.5958 -0.4858
  848MOL0     H14463  -1.418   5.581  -0.062 -0.3336  0.3179 -0.3058
  848MOL0     H14464  -1.264   5.508   0.274 -0.3702  1.1720 -1.5640
  848MOL0     H14465  -1.089   5.483   0.413 -2.6057 -1.5183 -1.2434
  848MOL0     H14466   0.639   5.852   1.249  2.6355  2.6575  4.0465
  848MOL0     H14467   0.862   5.925   1.296 -0.1358  1.0173 -1.2979
  848MOL0     H14468   1.303   6.072   1.003  2.2468  0.7374 -0.8678
  848MOL0     H14469   1.521   6.130   1.040 -0.0094 -3.5687 -3.1192
  848MOL0     H14470   1.775   6.053   1.078  2.2896  1.4005 -0.8982
  848MOL0     H14471   1.738   6.218   1.140 -2.3320  0.5059 -0.8089
  848MOL0     H14472   1.978   6.161   1.176  2.0828 -1.4761  1.4415
  848MOL0     H14473   1.928   6.032   1.289 -0.7802  0.5850  0.2183
  848MOL0     H14474   1.828   6.176   1.439  0.2435 -0.6277  0.2794
  848MOL0     H14475   1.849   6.324   1.343 -0.2640 -0.7687 -0.3224
  848MOL0     H14476   2.099   6.299   1.344  0.9311 -2.3592 -0.7271
  848MOL0     H14477   2.086   6.156   1.428 -0.0645  0.2177  2.2639
  848MOL0     H14478   2.069   6.416   1.756  1.7821 -1.0667  0.3488
  848MOL0     H14479   1.540   5.891   1.389 -0.1301 -2.4508 -1.9973
  848MOL0     H14480   1.312   5.823   1.365 -1.9408  1.5770  1.6521
  849MOL0     O14481   6.576   4.475   9.192 -0.2886 -0.7022 -0.3053
  849MOL0     C14482   6.667   4.392   9.178 -0.1956  1.1729  0.4335
  849MOL0     O14483   6.652   4.259   9.203 -0.0708  0.6068 -0.1880
  849MOL0     C14484   6.525   4.212   9.204  0.5863 -0.0033  0.2019
  849MOL0     C14485   6.461   4.183   9.088  1.0562  0.1579 -0.6577
  849MOL0     C14486   6.316   4.183   9.084 -0.9295  0.2734 -0.3464
  849MOL0     C14487   6.238   4.182   9.200  0.6641 -0.2148  0.4099
  849MOL0     O14488   6.101   4.199   9.211 -0.3986 -0.1426  0.2918
  849MOL0     C14489   6.022   4.178   9.098 -0.0941  0.0845 -0.0081
  849MOL0     C14490   6.014   4.298   9.009  0.7053 -0.4890  0.0788
  849MOL0     C14491   5.941   4.418   9.073  0.4532 -1.3096  0.8235
  849MOL0     C14492   5.786   4.409   9.074 -1.0175 -0.0883  0.7619
  849MOL0     C14493   5.730   4.543   9.124 -0.6370  0.2574 -0.3138
  849MOL0     C14494   5.583   4.547   9.160 -0.1984 -0.4317  0.1382
  849MOL0     C14495   5.549   4.468   9.288  0.1323  0.3117 -0.2340
  849MOL0     C14496   5.429   4.534   9.362 -1.4134 -0.6403  0.3939
  849MOL0     N14497   5.299   4.530   9.303  0.0591  0.8941  0.0400
  849MOL0     C14498   5.216   4.419   9.310 -0.8101 -0.1401  0.5287
  849MOL0     C14499   5.097   4.455   9.258 -0.0485  0.0107 -0.6969
  849MOL0     C14500   4.975   4.371   9.229 -0.3170  0.3496  0.0017
  849MOL0     C14501   4.931   4.286   9.352 -0.2448  0.6974  0.6027
  849MOL0     C14502   4.800   4.199   9.330 -1.0870 -0.3001 -0.4003
  849MOL0     C14503   4.680   4.260   9.396 -0.1719 -0.0207 -0.0283
  849MOL0     O14504   4.584   4.160   9.376  0.4756 -0.3624 -0.3541
  849MOL0     C14505   4.455   4.199   9.354  0.5715 -0.0525 -1.0697
  849MOL0     C14506   4.367   4.106   9.309 -0.5026 -0.0819 -0.2230
  849MOL0     C14507   4.227   4.121   9.294 -0.7172 -0.0971 -0.2019
  849MOL0     C14508   4.139   4.000   9.245 -0.1128 -0.1141  0.3925
  849MOL0     C14509   4.176   4.246   9.342 -0.2895 -0.1056 -0.1060
  849MOL0     C14510   4.037   4.286   9.331  0.7320 -0.8401 -0.0749
  849MOL0     O14511   3.964   4.235   9.221 -0.3011 -0.6385  0.5070
  849MOL0     C14512   3.833   4.248   9.226  0.3195  0.5806  0.3117
  849MOL0     C14513   3.752   4.135   9.216 -0.5492  0.1721  0.8908
  849MOL0     C14514   3.617   4.144   9.216 -0.3726 -0.1251  0.1405
  849MOL0     C14515   3.547   4.265   9.240 -0.3837  0.2031 -0.1553
  849MOL0     O14516   3.413   4.254   9.229  0.2427 -1.6650  0.1871
  849MOL0     C14517   3.353   4.359   9.301  0.4512 -0.2615  0.0211
  849MOL0     C14518   3.202   4.372   9.300 -0.5313  0.5618  0.1736
  849MOL0     C14519   3.140   4.260   9.377 -0.0803 -0.5666  0.5940
  849MOL0     C14520   3.126   4.139   9.281 -0.5079  0.5397 -0.6370
  849MOL0     C14521   3.060   4.004   9.330  0.1592 -0.4609 -0.7864
  849MOL0     C14522   2.920   4.019   9.390 -0.2163  0.9698 -0.0371
  849MOL0     C14523   2.862   3.889   9.434  0.4482 -0.4756 -0.8801
  849MOL0     C14524   2.752   3.908   9.535  0.2630  0.1570 -1.0603
  849MOL0    Cl14525   2.595   3.969   9.457  0.2048  0.0490  0.3919
  849MOL0     C14526   3.622   4.381   9.256 -0.3879 -0.8034  0.1131
  849MOL0     C14527   3.768   4.374   9.251  0.4670  0.1659 -0.0510
  849MOL0     O14528   3.986   4.343   9.425 -0.5847 -0.1416 -0.1873
  849MOL0     C14529   4.264   4.348   9.385  0.8654 -0.5201  0.2851
  849MOL0     C14530   4.396   4.324   9.383  0.2742  0.9431  0.2741
  849MOL0     N14531   5.109   4.581   9.224  0.4456  0.2424 -0.2305
  849MOL0     N14532   5.228   4.626   9.249 -0.0416 -0.6528 -0.4884
  849MOL0     C14533   6.315   4.176   9.315  0.1191 -0.1723 -0.5641
  849MOL0     C14534   6.454   4.197   9.323  0.3544  0.3001  0.2027
  849MOL0     C14535   6.801   4.451   9.168  0.3873  0.0547  0.3309
  849MOL0     C14536   6.916   4.365   9.167 -0.3617  0.1719 -0.1549
  849MOL0     C14537   7.038   4.417   9.208 -0.1931  0.7666  0.6144
  849MOL0     C14538   7.065   4.557   9.219 -0.5795 -0.1404  0.7548
  849MOL0     O14539   7.189   4.594   9.251 -0.4861  0.3860  0.0309
  849MOL0     C14540   7.209   4.720   9.311  0.2554 -0.5937  0.8072
  849MOL0     C14541   7.355   4.753   9.363 -0.1264  0.1831  0.5396
  849MOL0     C14542   7.450   4.743   9.240  0.4801 -0.3532 -0.2562
  849MOL0     C14543   7.590   4.767   9.289 -0.0779  0.8881  0.0394
  849MOL0     C14544   7.665   4.789   9.166 -0.5102  0.0097  0.2927
  849MOL0     C14545   7.746   4.797   9.080 -0.3281  0.5911  0.9670
  849MOL0     C14546   6.949   4.644   9.204 -0.1793 -0.0596  0.0795
  849MOL0     C14547   6.822   4.589   9.189 -0.2818 -0.3050  0.0323
  849MOL0     H14548   6.517   4.175   8.995  1.0521 -0.6926 -0.5940
  849MOL0     H14549   6.268   4.178   8.987 -2.3796 -2.9252  0.3910
  849MOL0     H14550   6.048   4.091   9.038 -0.4929 -0.1021  0.0894
  849MOL0     H14551   5.917   4.165   9.124 -0.6038  1.6687 -1.1290
  849MOL0     H14552   6.112   4.333   8.974  0.9103  0.3652  1.4113
  849MOL0     H14553   5.960   4.265   8.920 -2.5987 -0.4190  1.9120
  849MOL0     H14554   5.973   4.425   9.177  0.2270  2.2565  0.7822
  849MOL0     H14555   5.971   4.513   9.027 -0.3778 -1.3002  0.2641
  849MOL0     H14556   5.742   4.398   8.974 -2.7491  0.3815  1.4495
  849MOL0     H14557   5.751   4.326   9.136 -0.1676  2.1109  4.4434
  849MOL0     H14558   5.794   4.580   9.206 -0.3907 -1.1924  0.1742
  849MOL0     H14559   5.737   4.617   9.044 -0.1207  1.1846  0.5636
  849MOL0     H14560   5.549   4.650   9.158 -0.7477 -0.5493 -3.3873
  849MOL0     H14561   5.521   4.510   9.078  0.3230 -2.1148  0.4583
  849MOL0     H14562   5.523   4.366   9.258 -1.7786  0.8057 -0.3596
  849MOL0     H14563   5.636   4.466   9.354 -0.2006  0.6839  0.2207
  849MOL0     H14564   5.462   4.636   9.381 -0.1903 -0.3933 -2.5501
  849MOL0     H14565   5.413   4.482   9.457 -1.3230 -1.7303 -0.1777
  849MOL0     H14566   5.235   4.315   9.336  1.4929 -0.2503 -1.2916
  849MOL0     H14567   4.888   4.432   9.203 -0.3771  0.5466  0.6417
  849MOL0     H14568   4.990   4.308   9.142 -0.2311  0.2752  0.0699
  849MOL0     H14569   4.909   4.335   9.447 -1.6011 -2.0004  1.7842
  849MOL0     H14570   5.012   4.218   9.379 -1.1104 -1.0868 -0.9823
  849MOL0     H14571   4.809   4.100   9.375 -1.8885 -0.7936 -1.2837
  849MOL0     H14572   4.782   4.182   9.224 -0.0152 -0.8876 -0.4968
  849MOL0     H14573   4.663   4.354   9.342  0.8077 -0.9815 -2.1120
  849MOL0     H14574   4.681   4.275   9.504 -2.1706  1.0508 -0.1041
  849MOL0     H14575   4.406   4.014   9.268  0.1240  0.9249 -2.0101
  849MOL0     H14576   4.135   3.983   9.137 -0.5885 -3.0848  0.7849
  849MOL0     H14577   4.181   3.902   9.267  1.2318  0.1181 -0.9473
  849MOL0     H14578   4.032   4.006   9.267 -0.8211  0.5924 -2.7487
  849MOL0     H14579   3.797   4.038   9.196 -2.4623 -0.3964 -1.0713
  849MOL0     H14580   3.547   4.065   9.192 -0.4209  0.1746 -0.7596
  849MOL0     H14581   3.382   4.359   9.407 -1.0063  1.8934  0.4979
  849MOL0     H14582   3.387   4.457   9.267  0.5237  0.8388  2.9193
  849MOL0     H14583   3.181   4.470   9.343  0.0860  0.4582  0.7348
  849MOL0     H14584   3.173   4.368   9.194 -3.2153  2.6046  0.7223
  849MOL0     H14585   3.041   4.298   9.402 -0.3220 -0.5302 -0.3668
  849MOL0     H14586   3.193   4.236   9.470  2.5829  1.6758 -0.2034
  849MOL0     H14587   3.083   4.164   9.184 -0.4941 -0.7724 -1.0008
  849MOL0     H14588   3.228   4.111   9.255  0.7162  3.1949  0.8591
  849MOL0     H14589   3.128   3.953   9.398  1.1035  1.7407 -0.0109
  849MOL0     H14590   3.064   3.938   9.242  0.8222 -0.5146 -0.7184
  849MOL0     H14591   2.928   4.096   9.468  1.0074  0.5575  0.2734
  849MOL0     H14592   2.846   4.059   9.320  3.0133  1.2513 -3.6424
  849MOL0     H14593   2.936   3.824   9.481 -1.9560 -1.8956  1.2275
  849MOL0     H14594   2.825   3.842   9.343 -0.4303  4.2100 -3.2466
  849MOL0     H14595   2.774   3.966   9.625  1.7596 -2.5386  0.3969
  849MOL0     H14596   2.736   3.810   9.581  0.5096  1.7856  2.8760
  849MOL0     H14597   3.585   4.483   9.262  0.8718 -0.1141 -2.3806
  849MOL0     H14598   3.817   4.471   9.259  1.8909 -0.5995  0.9865
  849MOL0     H14599   4.217   4.442   9.411  0.5508 -0.0645 -1.7512
  849MOL0     H14600   4.462   4.396   9.430 -2.5772  1.7094  3.5345
  849MOL0     H14601   6.259   4.183   9.407 -1.5891  1.0923 -1.6556
  849MOL0     H14602   6.506   4.210   9.417  0.3619  1.1155  0.0884
  849MOL0     H14603   6.901   4.258   9.159  1.7928 -0.1500 -0.2717
  849MOL0     H14604   7.120   4.346   9.220  0.6159  0.9095 -2.8787
  849MOL0     H14605   7.177   4.802   9.245  0.5357 -2.1868 -1.4351
  849MOL0     H14606   7.126   4.737   9.380  0.6347 -1.0962  1.4005
  849MOL0     H14607   7.381   4.669   9.429 -1.5854 -0.4271  0.3663
  849MOL0     H14608   7.347   4.851   9.411 -0.6841 -0.1294  1.0939
  849MOL0     H14609   7.415   4.815   9.165  3.6786  2.5354  0.7931
  849MOL0     H14610   7.460   4.644   9.194  0.5689 -0.0188 -0.9748
  849MOL0     H14611   7.627   4.683   9.349  0.1389 -0.5149 -1.9635
  849MOL0     H14612   7.591   4.855   9.353 -1.8348  0.8875  0.1170
  849MOL0     H14613   7.811   4.810   8.996  2.0707  0.6360  2.7109
  849MOL0     H14614   6.961   4.751   9.219  2.0168  0.1953 -2.5345
  849MOL0     H14615   6.744   4.662   9.206 -1.0179 -1.5386  2.2913
  850MOL0     O14616   8.600   2.691   6.304  0.3435 -0.0766 -0.0308
  850MOL0     C14617   8.648   2.701   6.417  0.3544  1.0195 -0.9137
  850MOL0     O14618   8.571   2.698   6.537 -0.1206  0.3774  0.1998
  850MOL0     C14619   8.435   2.711   6.551  0.2857  0.0326  0.6459
  850MOL0     C14620   8.387   2.791   6.664 -0.2132 -0.0081  0.0019
  850MOL0     C14621   8.248   2.808   6.682  0.3284  0.3058 -0.1795
  850MOL0     C14622   8.159   2.734   6.602  0.9814 -0.4893  0.8367
  850MOL0     O14623   8.020   2.730   6.632 -0.1692 -0.2529 -0.0748
  850MOL0     C14624   7.997   2.643   6.745 -0.3652 -0.2391 -0.6789
  850MOL0     C14625   7.856   2.621   6.772 -0.3765  0.0622  0.0784
  850MOL0     C14626   7.796   2.558   6.650 -0.2822 -0.4529  1.1463
  850MOL0     C14627   7.659   2.499   6.686 -0.1032 -0.3514  0.2729
  850MOL0     C14628   7.608   2.421   6.557 -0.7599  0.3425 -0.4573
  850MOL0     C14629   7.477   2.356   6.577 -1.0808  0.5388 -0.5266
  850MOL0     C14630   7.359   2.448   6.619 -0.5463  0.0935  0.0153
  850MOL0     C14631   7.316   2.530   6.491 -0.0066  0.0493 -0.2760
  850MOL0     N14632   7.176   2.568   6.487  0.1501 -0.5011  0.4555
  850MOL0     C14633   7.073   2.497   6.428 -0.2509 -0.4555  0.0872
  850MOL0     C14634   6.959   2.556   6.467 -0.3457 -0.3930 -1.1976
  850MOL0     C14635   6.825   2.503   6.433  0.5672 -0.2345  0.0257
  850MOL0     C14636   6.760   2.585   6.327 -0.1750  0.0802  0.1764
  850MOL0     C14637   6.642   2.523   6.254 -0.1213  0.4486 -0.1551
  850MOL0     C14638   6.587   2.623   6.150 -0.0854  0.2865  0.4023
  850MOL0     O14639   6.474   2.574   6.081  0.5258 -0.2565 -0.2144
  850MOL0     C14640   6.343   2.581   6.121 -0.7571 -0.2193 -0.5337
  850MOL0     C14641   6.247   2.542   6.032 -0.2563  0.2812 -0.2581
  850MOL0     C14642   6.113   2.525   6.071  0.6336 -0.7164  0.7668
  850MOL0     C14643   6.018   2.478   5.967 -0.2746 -0.4795 -0.1914
  850MOL0     C14644   6.080   2.571   6.201 -0.3416  0.0215  0.4440
  850MOL0     C14645   5.943   2.570   6.266 -0.5673  0.8879  0.1341
  850MOL0     O14646   5.930   2.583   6.402 -0.4592  0.5963 -0.1752
  850MOL0     C14647   5.819   2.628   6.454  0.4446 -0.2021 -0.8444
  850MOL0     C14648   5.774   2.758   6.436 -0.1590  0.0350 -0.1704
  850MOL0     C14649   5.652   2.801   6.484 -0.1483  0.2988 -0.5379
  850MOL0     C14650   5.572   2.719   6.566 -0.5121  0.3580 -0.2472
  850MOL0     O14651   5.450   2.750   6.630 -0.5918 -0.0547  0.6366
  850MOL0     C14652   5.435   2.893   6.644  0.0373  0.0455  0.4683
  850MOL0     C14653   5.308   2.918   6.727  0.3556 -0.1241 -0.3372
  850MOL0     C14654   5.342   2.921   6.880 -0.7673 -0.1271 -0.3800
  850MOL0     C14655   5.225   2.967   6.968 -0.3985 -0.3085 -0.6853
  850MOL0     C14656   5.257   2.962   7.122  0.6840  0.0670 -0.4822
  850MOL0     C14657   5.390   3.030   7.148 -0.2156  0.3649 -0.0805
  850MOL0     C14658   5.411   3.067   7.295 -1.2811 -0.1434 -0.5540
  850MOL0     C14659   5.342   3.198   7.327 -0.0019  0.0573 -0.1256
  850MOL0    Cl14660   5.438   3.332   7.289  0.0542 -0.5319  0.5595
  850MOL0     C14661   5.626   2.588   6.590 -0.3760 -0.5338  0.6130
  850MOL0     C14662   5.743   2.540   6.539 -0.1880 -0.0255  0.0589
  850MOL0     O14663   5.851   2.553   6.191  0.1061 -0.6382 -0.0795
  850MOL0     C14664   6.182   2.613   6.294 -0.5575 -0.1828  0.2174
  850MOL0     C14665   6.312   2.620   6.253 -0.2153  0.3589 -0.0609
  850MOL0     N14666   6.989   2.676   6.541  0.3304  0.0402  0.3611
  850MOL0     N14667   7.120   2.678   6.547  0.8450 -0.1649  0.2155
  850MOL0     C14668   8.205   2.641   6.509  0.7448  0.7626  0.6225
  850MOL0     C14669   8.336   2.629   6.475 -0.0578 -0.2550  0.3240
  850MOL0     C14670   8.799   2.681   6.426  0.3784 -0.7078 -0.2079
  850MOL0     C14671   8.878   2.647   6.317  0.0451  0.4306 -0.2669
  850MOL0     C14672   9.011   2.616   6.337  1.0352  1.1190  0.0771
  850MOL0     C14673   9.079   2.640   6.456  0.0482 -0.4995 -0.3962
  850MOL0     O14674   9.219   2.630   6.471 -0.0284  0.0221  0.6055
  850MOL0     C14675   9.289   2.560   6.365  0.5119 -0.6358  0.6852
  850MOL0     C14676   9.433   2.526   6.391 -0.1199 -0.5833 -0.0180
  850MOL0     C14677   9.530   2.644   6.379  0.3070  0.7579  0.1092
  850MOL0     C14678   9.539   2.732   6.500  0.2680  0.2326 -0.0539
  850MOL0     C14679   9.617   2.858   6.474 -0.7573 -0.0598  0.1902
  850MOL0     C14680   9.687   2.949   6.475  0.5416  0.5213 -0.1637
  850MOL0     C14681   9.007   2.691   6.565 -0.4308  0.3750 -0.5755
  850MOL0     C14682   8.867   2.707   6.547  0.3845  0.1559 -1.1162
  850MOL0     H14683   8.470   2.830   6.723  1.0219 -1.4245 -0.7574
  850MOL0     H14684   8.194   2.863   6.758 -0.5359  0.1090 -0.6224
  850MOL0     H14685   8.052   2.549   6.735 -3.0771 -2.0526  0.2611
  850MOL0     H14686   8.045   2.691   6.831 -2.2364 -0.6405  0.6489
  850MOL0     H14687   7.844   2.562   6.863 -1.2841 -0.1151 -0.1519
  850MOL0     H14688   7.827   2.723   6.799  2.3916  0.6687  1.1428
  850MOL0     H14689   7.787   2.639   6.577  1.8884  1.1024  2.4948
  850MOL0     H14690   7.869   2.486   6.612 -0.2417  1.2774 -2.5295
  850MOL0     H14691   7.682   2.431   6.769  1.0307  0.0541  0.3149
  850MOL0     H14692   7.586   2.577   6.712  0.2479 -0.1479  0.6656
  850MOL0     H14693   7.587   2.498   6.481 -2.9408  1.9377  1.6097
  850MOL0     H14694   7.683   2.346   6.528  0.6823  0.7078  2.0538
  850MOL0     H14695   7.456   2.293   6.490  0.2144  0.9271 -1.1327
  850MOL0     H14696   7.489   2.281   6.656  2.7094 -0.1798 -1.5860
  850MOL0     H14697   7.274   2.394   6.661 -0.9112 -0.1754 -1.0207
  850MOL0     H14698   7.389   2.517   6.698  1.7958 -0.7917 -0.0225
  850MOL0     H14699   7.337   2.469   6.403 -0.5528  1.6618 -1.5769
  850MOL0     H14700   7.387   2.613   6.497  0.2250 -0.2521  1.6158
  850MOL0     H14701   7.075   2.413   6.359  2.6238 -0.1358 -0.3471
  850MOL0     H14702   6.837   2.399   6.401 -1.7453 -1.0448  1.5560
  850MOL0     H14703   6.759   2.513   6.520 -3.1718  1.3133 -2.7051
  850MOL0     H14704   6.836   2.615   6.254 -0.5136 -1.1414 -0.7113
  850MOL0     H14705   6.718   2.675   6.373 -2.4665  0.8649 -3.1109
  850MOL0     H14706   6.566   2.494   6.326 -0.6765  0.5293 -0.7037
  850MOL0     H14707   6.676   2.434   6.200 -2.2975 -1.9179  2.1076
  850MOL0     H14708   6.659   2.636   6.068 -0.4284 -1.8295 -0.2847
  850MOL0     H14709   6.557   2.722   6.185 -0.0977  0.3698  0.1630
  850MOL0     H14710   6.273   2.506   5.933  1.5503 -1.9627  0.9128
  850MOL0     H14711   5.963   2.560   5.920  3.4326  2.3485 -0.1021
  850MOL0     H14712   6.079   2.433   5.888 -0.1451 -3.7940  1.6274
  850MOL0     H14713   5.960   2.395   6.008  0.6796 -1.0056  0.1209
  850MOL0     H14714   5.823   2.839   6.381 -0.8404  0.0533 -0.7584
  850MOL0     H14715   5.630   2.903   6.454 -0.1071  0.8760  1.2602
  850MOL0     H14716   5.522   2.942   6.687  0.1228  0.3648 -0.0533
  850MOL0     H14717   5.418   2.933   6.543  1.8338  1.0202  0.5055
  850MOL0     H14718   5.259   3.013   6.704 -0.7691 -0.2732  1.2744
  850MOL0     H14719   5.230   2.845   6.700  1.1373 -0.9938 -0.3083
  850MOL0     H14720   5.431   2.984   6.893  0.4164 -1.4386 -1.8120
  850MOL0     H14721   5.373   2.818   6.900  1.1099  0.7679  1.7320
  850MOL0     H14722   5.203   3.072   6.945 -0.5333  0.2263  1.5885
  850MOL0     H14723   5.139   2.902   6.953 -1.0154  0.0642  1.0076
  850MOL0     H14724   5.279   2.857   7.140  1.6828  0.4466  0.6743
  850MOL0     H14725   5.178   3.004   7.185 -1.1830 -2.7987 -0.7501
  850MOL0     H14726   5.471   2.959   7.126 -1.9239 -1.9459  0.6163
  850MOL0     H14727   5.401   3.123   7.092 -2.0521  0.7465  0.1300
  850MOL0     H14728   5.513   3.072   7.335 -2.6819 -2.5895  4.0045
  850MOL0     H14729   5.368   2.987   7.356  0.5777 -0.9308 -0.1893
  850MOL0     H14730   5.311   3.206   7.431 -2.2260  0.7710 -0.7808
  850MOL0     H14731   5.247   3.198   7.272  0.0823 -2.4792 -0.3934
  850MOL0     H14732   5.576   2.518   6.655  0.4380  0.6249  2.5976
  850MOL0     H14733   5.774   2.440   6.565 -1.3743 -0.6633 -0.8833
  850MOL0     H14734   6.166   2.648   6.395 -1.2504  1.2663 -0.3691
  850MOL0     H14735   6.396   2.661   6.309  2.3006 -2.0396 -1.8276
  850MOL0     H14736   8.131   2.572   6.467 -2.0428  4.0722 -0.3587
  850MOL0     H14737   8.376   2.554   6.408 -1.6720  0.4312 -1.4947
  850MOL0     H14738   8.840   2.635   6.216  3.8643 -0.7545 -1.7384
  850MOL0     H14739   9.065   2.572   6.253 -0.2423  0.5623 -0.4868
  850MOL0     H14740   9.230   2.473   6.336  0.3791 -0.0511 -0.9119
  850MOL0     H14741   9.286   2.629   6.280 -1.3220 -1.1082  0.3326
  850MOL0     H14742   9.471   2.445   6.329  2.3004  1.0642 -0.8044
  850MOL0     H14743   9.451   2.482   6.489  2.3421  1.0736  0.3600
  850MOL0     H14744   9.507   2.703   6.290  0.6545 -0.8415 -1.0775
  850MOL0     H14745   9.628   2.602   6.356  0.1093  1.1772 -1.6508
  850MOL0     H14746   9.574   2.674   6.586  2.3288  0.1674 -0.8789
  850MOL0     H14747   9.437   2.765   6.524  0.0234  0.0322 -0.7784
  850MOL0     H14748   9.745   3.038   6.460  1.8164 -0.3461 -0.5325
  850MOL0     H14749   9.052   2.716   6.660 -0.2217 -0.6171 -0.4017
  850MOL0     H14750   8.811   2.753   6.628  1.0207 -2.2446  0.7819
  851MOL0     O14751   7.775   2.790   0.057 -0.5598 -0.2231  0.3972
  851MOL0     C14752   7.829   2.847  -0.042  1.2309 -0.6248 -0.3589
  851MOL0     O14753   7.765   2.867  -0.163  0.1516 -0.4058  0.4132
  851MOL0     C14754   7.633   2.839  -0.175 -0.1585 -0.2832  0.2926
  851MOL0     C14755   7.546   2.941  -0.188  0.2186 -0.1945  0.4147
  851MOL0     C14756   7.410   2.921  -0.206 -0.6244 -0.2358 -0.4692
  851MOL0     C14757   7.354   2.791  -0.212 -0.1906 -0.7326  0.6283
  851MOL0     O14758   7.222   2.757  -0.233  0.1835 -0.0851 -0.1320
  851MOL0     C14759   7.177   2.810  -0.361 -0.3121 -0.1147  0.5481
  851MOL0     C14760   7.084   2.713  -0.429  0.0065 -0.0003  0.5492
  851MOL0     C14761   6.936   2.735  -0.385 -0.2935  0.1780 -0.4210
  851MOL0     C14762   6.900   2.761  -0.249 -0.5468 -0.9943 -0.2652
  851MOL0     C14763   6.753   2.722  -0.209  0.5522 -1.0055  0.0287
  851MOL0     C14764   6.720   2.748  -0.066  0.1310  0.5824 -0.4209
  851MOL0     C14765   6.579   2.706  -0.047 -0.2343  0.1541  0.5217
  851MOL0     C14766   6.537   2.562  -0.091  0.3474 -0.1154 -0.6533
  851MOL0     N14767   6.399   2.539  -0.050  1.1386 -0.6332 -0.4351
  851MOL0     C14768   6.294   2.505  -0.133 -0.5827  0.6888 -0.3034
  851MOL0     C14769   6.202   2.464  -0.045  0.2324 -0.3882 -0.5435
  851MOL0     C14770   6.066   2.420  -0.096 -0.5508  0.0975 -0.5138
  851MOL0     C14771   5.940   2.458  -0.007 -0.2301 -0.1484 -0.1229
  851MOL0     C14772   5.912   2.344   0.100  0.6277  0.3925 -0.3450
  851MOL0     C14773   5.775   2.375   0.170 -0.3994 -0.0437  0.2834
  851MOL0     O14774   5.749   2.256   0.237  0.8552 -0.2522  0.0872
  851MOL0     C14775   5.619   2.226   0.278 -0.6038 -0.0060  0.0360
  851MOL0     C14776   5.597   2.095   0.324 -0.3905  0.0867 -0.2285
  851MOL0     C14777   5.484   2.059   0.391 -0.1195  0.1622 -0.3679
  851MOL0     C14778   5.486   1.911   0.436  0.6607  0.0118 -0.1325
  851MOL0     C14779   5.381   2.153   0.412  0.6755 -0.2963  0.1226
  851MOL0     C14780   5.256   2.119   0.494  0.2286  0.8113  0.0702
  851MOL0     O14781   5.207   2.236   0.556  0.2169 -0.5263 -0.0690
  851MOL0     C14782   5.093   2.241   0.633 -0.3591 -0.7390 -0.2576
  851MOL0     C14783   4.991   2.142   0.643 -0.0528  0.2177 -0.9016
  851MOL0     C14784   4.881   2.171   0.721  0.0787  0.0510  0.1536
  851MOL0     C14785   4.868   2.293   0.792  0.0072  0.5155  0.1854
  851MOL0     O14786   4.754   2.317   0.860 -0.0818  0.2737  0.4093
  851MOL0     C14787   4.691   2.432   0.804  0.0487 -0.0359 -0.8469
  851MOL0     C14788   4.571   2.472   0.891 -0.1705  0.8722 -0.5120
  851MOL0     C14789   4.468   2.357   0.879 -0.4719 -0.2624 -0.2688
  851MOL0     C14790   4.334   2.403   0.930  0.3196  0.0338  0.2073
  851MOL0     C14791   4.216   2.304   0.931 -0.2667 -0.2838 -0.2552
  851MOL0     C14792   4.075   2.375   0.949  0.0834 -0.1103 -0.1429
  851MOL0     C14793   4.011   2.405   0.809 -0.2471  0.4346 -0.5179
  851MOL0     C14794   3.869   2.456   0.825  0.1363  0.2529  0.3430
  851MOL0    Cl14795   3.887   2.609   0.896  0.2706  0.0933  0.0707
  851MOL0     C14796   4.972   2.387   0.781 -0.2433  0.0230 -0.3297
  851MOL0     C14797   5.085   2.361   0.703 -0.1442 -0.0290 -0.5052
  851MOL0     O14798   5.206   2.007   0.494  0.1566  0.1520 -0.1870
  851MOL0     C14799   5.395   2.287   0.357 -0.0455  0.5256 -0.2921
  851MOL0     C14800   5.517   2.318   0.294  1.1133  0.1891  0.4452
  851MOL0     N14801   6.245   2.442   0.078  0.5797 -1.5699  0.0643
  851MOL0     N14802   6.363   2.494   0.075 -0.2876  0.1515  0.4795
  851MOL0     C14803   7.443   2.690  -0.184  0.3251  0.7902  0.3060
  851MOL0     C14804   7.577   2.715  -0.165 -0.8906  0.1936  0.0356
  851MOL0     C14805   7.965   2.926  -0.031  0.7236  0.8655  0.2163
  851MOL0     C14806   8.076   2.881   0.045  0.1449  0.2657 -0.3563
  851MOL0     C14807   8.204   2.947   0.048  0.3281 -0.3437  0.0496
  851MOL0     C14808   8.218   3.060  -0.035 -0.0375 -0.5830  0.1431
  851MOL0     O14809   8.331   3.131  -0.056  0.2308 -0.2598 -0.5101
  851MOL0     C14810   8.448   3.094   0.032  0.3187 -1.0740 -0.3199
  851MOL0     C14811   8.556   3.205   0.037  0.2633  0.4770 -0.4707
  851MOL0     C14812   8.674   3.175  -0.054  0.2348  0.5991  0.3154
  851MOL0     C14813   8.613   3.187  -0.203  0.5930 -0.1051  0.1680
  851MOL0     C14814   8.712   3.174  -0.305 -0.4859  0.3032 -0.6412
  851MOL0     C14815   8.785   3.160  -0.400 -0.7606 -0.2544 -0.8009
  851MOL0     C14816   8.110   3.089  -0.122 -0.2101 -0.1586 -0.5680
  851MOL0     C14817   7.984   3.032  -0.118 -0.1235  0.1574 -0.3012
  851MOL0     H14818   7.588   3.040  -0.170 -2.1402  0.8671  0.5221
  851MOL0     H14819   7.349   3.011  -0.206  0.6086  0.7320  2.6496
  851MOL0     H14820   7.127   2.906  -0.344 -2.4836 -0.9158 -0.8343
  851MOL0     H14821   7.260   2.837  -0.426  0.6315  0.0431  1.7847
  851MOL0     H14822   7.089   2.730  -0.537  0.9269 -1.8798  0.2513
  851MOL0     H14823   7.119   2.611  -0.412 -1.1935 -1.1047 -2.8311
  851MOL0     H14824   6.898   2.810  -0.454 -1.7700  0.4395  0.6348
  851MOL0     H14825   6.882   2.643  -0.409  0.1704  0.0735 -1.0783
  851MOL0     H14826   6.970   2.701  -0.190  0.5318 -1.2740 -1.7808
  851MOL0     H14827   6.921   2.865  -0.225  3.7564 -1.3201 -1.7819
  851MOL0     H14828   6.680   2.783  -0.263 -0.9161 -2.2293  0.5435
  851MOL0     H14829   6.741   2.616  -0.236 -0.7066 -1.1790  1.1815
  851MOL0     H14830   6.781   2.691   0.005 -0.7444  0.0822 -0.0483
  851MOL0     H14831   6.716   2.855  -0.042  0.2601  1.4167 -3.6485
  851MOL0     H14832   6.548   2.731   0.055  0.9214  2.7707  0.3113
  851MOL0     H14833   6.532   2.781  -0.110  3.3083  2.8755  0.7804
  851MOL0     H14834   6.607   2.496  -0.041  0.6004  1.2310  0.8351
  851MOL0     H14835   6.537   2.552  -0.200  0.4499  0.3838 -0.7006
  851MOL0     H14836   6.284   2.499  -0.240 -1.8777  0.5398 -0.1945
  851MOL0     H14837   6.055   2.465  -0.195 -0.5067  3.4077  0.8576
  851MOL0     H14838   6.072   2.311  -0.103 -0.0356  0.0896 -0.0599
  851MOL0     H14839   5.859   2.474  -0.078 -0.1428 -0.8310 -0.3865
  851MOL0     H14840   5.969   2.548   0.048 -0.1071 -2.0604  3.2152
  851MOL0     H14841   5.993   2.336   0.173  0.5332  0.7634 -0.1984
  851MOL0     H14842   5.915   2.251   0.041  1.2362  0.9147 -1.1629
  851MOL0     H14843   5.700   2.392   0.092  0.7773 -0.3292 -0.9571
  851MOL0     H14844   5.785   2.456   0.242  0.7103 -0.4710  0.6301
  851MOL0     H14845   5.682   2.027   0.318  0.1010  0.7832 -1.6243
  851MOL0     H14846   5.585   1.865   0.446 -0.2804 -1.6876  2.1484
  851MOL0     H14847   5.439   1.914   0.535  0.5753 -0.7669 -0.1390
  851MOL0     H14848   5.425   1.846   0.373 -0.6372  1.9765 -0.9789
  851MOL0     H14849   5.005   2.058   0.577  3.1883  0.6587 -0.9244
  851MOL0     H14850   4.795   2.104   0.716 -0.4048  0.7270 -1.1493
  851MOL0     H14851   4.755   2.521   0.798  0.5005 -0.3718 -1.0812
  851MOL0     H14852   4.664   2.402   0.702 -2.7669 -1.1524  0.1218
  851MOL0     H14853   4.605   2.488   0.994  0.5349  1.5334 -0.8354
  851MOL0     H14854   4.526   2.567   0.861 -3.9869 -0.0123  1.7331
  851MOL0     H14855   4.493   2.273   0.945 -2.2415 -0.4651  0.1949
  851MOL0     H14856   4.471   2.329   0.773  1.2951  3.1248 -1.2686
  851MOL0     H14857   4.340   2.441   1.033 -0.9613 -2.7858  1.4200
  851MOL0     H14858   4.299   2.491   0.875 -2.3311  0.0038  1.6717
  851MOL0     H14859   4.230   2.253   1.027 -1.4016  0.9548  0.6253
  851MOL0     H14860   4.209   2.238   0.845  3.2510  0.3896 -1.1827
  851MOL0     H14861   4.012   2.289   0.975  0.2613 -0.1261  0.2458
  851MOL0     H14862   4.069   2.458   1.020  2.0035 -1.0310  1.1903
  851MOL0     H14863   4.006   2.315   0.747 -0.8084  0.8004 -1.0201
  851MOL0     H14864   4.070   2.476   0.751  1.2033  0.1397  0.5420
  851MOL0     H14865   3.806   2.393   0.888  0.6619 -2.5659 -1.7657
  851MOL0     H14866   3.828   2.473   0.726  1.1336 -2.1490 -0.5764
  851MOL0     H14867   4.959   2.486   0.824 -3.5493 -0.8774  1.0383
  851MOL0     H14868   5.168   2.431   0.697 -0.9826  1.1269  0.7157
  851MOL0     H14869   5.331   2.374   0.368  1.9779  2.3986 -2.2008
  851MOL0     H14870   5.529   2.417   0.252  1.4559  0.6672  1.6348
  851MOL0     H14871   7.409   2.587  -0.191 -1.5995  1.4627 -0.8125
  851MOL0     H14872   7.638   2.627  -0.151  0.5370  1.1796  0.3233
  851MOL0     H14873   8.062   2.789   0.102 -2.1493  0.4442 -0.5704
  851MOL0     H14874   8.280   2.899   0.109  1.0581  0.8307  0.1130
  851MOL0     H14875   8.418   3.079   0.136  1.2838  0.4186  0.1997
  851MOL0     H14876   8.488   3.003  -0.015  1.6865 -1.2893  1.1689
  851MOL0     H14877   8.601   3.211   0.136  0.9435 -1.0591 -0.6641
  851MOL0     H14878   8.520   3.306   0.015  0.7785  0.2502 -2.5080
  851MOL0     H14879   8.714   3.075  -0.038 -3.2579 -1.2644 -1.3772
  851MOL0     H14880   8.753   3.242  -0.017  1.0378 -0.4485  0.5251
  851MOL0     H14881   8.571   3.287  -0.220 -0.5599 -0.7306 -0.7835
  851MOL0     H14882   8.537   3.112  -0.224  0.7404 -0.6776  1.5629
  851MOL0     H14883   8.838   3.147  -0.492 -0.0188 -0.7724 -0.3126
  851MOL0     H14884   8.131   3.173  -0.188  2.1803  0.2122  0.5541
  851MOL0     H14885   7.910   3.081  -0.181 -0.5553  2.0144  1.5415
  852MOL0     O14886  10.963   2.976   9.748  0.3670 -0.3585  0.1627
  852MOL0     C14887  10.942   2.925   9.857  0.2963  0.1660  0.2534
  852MOL0     O14888  10.825   2.927   9.930 -0.3179  0.1227  0.3496
  852MOL0     C14889  10.717   2.961   9.849 -0.4923 -0.1268 -0.4646
  852MOL0     C14890  10.652   3.083   9.886  0.3780 -0.0461  0.0593
  852MOL0     C14891  10.534   3.119   9.827  0.3412  0.5291 -0.6309
  852MOL0     C14892  10.482   3.042   9.723 -0.2499  0.1191  0.6053
  852MOL0     O14893  10.370   3.076   9.654  0.3989  0.0244 -0.6130
  852MOL0     C14894  10.274   3.181   9.697 -0.5285  0.1547  0.4057
  852MOL0     C14895  10.133   3.154   9.639 -0.0853 -0.2617 -0.5380
  852MOL0     C14896  10.125   3.164   9.487 -0.1500 -0.3288 -0.6537
  852MOL0     C14897   9.990   3.138   9.424 -0.0289  0.0747 -0.3359
  852MOL0     C14898   9.893   3.254   9.433 -0.0603  0.3321  0.4399
  852MOL0     C14899   9.758   3.248   9.357 -0.1691  0.0379 -0.5160
  852MOL0     C14900   9.777   3.228   9.211 -0.4635  0.1059 -0.1414
  852MOL0     C14901   9.645   3.237   9.138 -0.2736  0.0859  0.2156
  852MOL0     N14902   9.568   3.120   9.185 -0.2732 -0.4922 -0.1746
  852MOL0     C14903   9.460   3.132   9.273  0.4413  0.0989 -0.1185
  852MOL0     C14904   9.420   3.007   9.298 -0.2901  0.3236 -0.5613
  852MOL0     C14905   9.313   2.971   9.393 -0.7565 -0.3162 -0.0931
  852MOL0     C14906   9.181   3.036   9.344 -0.3124  0.6053  0.0453
  852MOL0     C14907   9.089   3.031   9.465 -0.0931  0.9226 -0.1096
  852MOL0     C14908   8.942   3.030   9.429 -0.1307  0.1684 -0.0469
  852MOL0     O14909   8.900   2.903   9.374  0.6753  0.0070  0.1977
  852MOL0     C14910   8.764   2.879   9.340 -0.9521  0.3193  0.5424
  852MOL0     C14911   8.655   2.954   9.387 -0.4656  0.0572  0.1230
  852MOL0     C14912   8.524   2.913   9.380 -0.1335  0.4464 -0.0424
  852MOL0     C14913   8.429   3.006   9.454 -0.3124  0.2502 -0.3709
  852MOL0     C14914   8.489   2.790   9.315 -0.3201 -0.7879  0.3502
  852MOL0     C14915   8.346   2.743   9.281 -0.6630  0.1550 -0.4378
  852MOL0     O14916   8.333   2.610   9.250  0.2281  0.0251  0.4353
  852MOL0     C14917   8.205   2.554   9.243 -0.4752 -1.4430 -0.5779
  852MOL0     C14918   8.084   2.610   9.278  0.2078 -0.5603  0.2119
  852MOL0     C14919   7.958   2.546   9.245 -0.4382  0.0930 -0.3445
  852MOL0     C14920   7.960   2.420   9.183 -0.6832 -0.5487 -0.2275
  852MOL0     O14921   7.845   2.356   9.149 -0.2242 -0.7604  0.4044
  852MOL0     C14922   7.715   2.396   9.191  0.0770  0.3402  0.5589
  852MOL0     C14923   7.680   2.360   9.330  1.2981  0.4480 -0.8204
  852MOL0     C14924   7.533   2.390   9.369  0.2319  0.2133  0.0230
  852MOL0     C14925   7.433   2.280   9.334 -0.4764  0.6425  0.1740
  852MOL0     C14926   7.289   2.310   9.361  0.7911 -0.3767 -0.6667
  852MOL0     C14927   7.203   2.387   9.256 -0.1054  0.3233 -0.0940
  852MOL0     C14928   7.060   2.402   9.316 -0.2786 -1.0119 -0.2858
  852MOL0     C14929   6.972   2.285   9.272 -0.3331  0.0781  0.4020
  852MOL0    Cl14930   6.961   2.284   9.089 -0.1145  0.3104 -0.1655
  852MOL0     C14931   8.082   2.360   9.155 -0.1963  0.1224  0.4211
  852MOL0     C14932   8.202   2.426   9.192 -0.4539 -0.2707  0.2710
  852MOL0     O14933   8.265   2.829   9.246  0.1951  0.3747  0.7510
  852MOL0     C14934   8.605   2.724   9.259  0.7692  0.4704  0.1890
  852MOL0     C14935   8.740   2.767   9.279 -0.4261  0.1226 -0.2519
  852MOL0     N14936   9.498   2.913   9.226 -0.5579 -0.1654 -0.5789
  852MOL0     N14937   9.585   2.983   9.159  0.5784 -0.8890 -0.2255
  852MOL0     C14938  10.553   2.931   9.674  0.8344  0.3498 -0.1807
  852MOL0     C14939  10.663   2.888   9.741 -0.0284 -0.1929  0.2624
  852MOL0     C14940  11.056   2.853   9.916 -0.3281 -0.0101  0.5227
  852MOL0     C14941  11.067   2.831  10.058  0.1650 -0.5534  0.3490
  852MOL0     C14942  11.188   2.792  10.113  0.4486  0.2233  0.5560
  852MOL0     C14943  11.303   2.762  10.033 -0.3283 -0.2163  0.1151
  852MOL0     O14944  11.433   2.735  10.085 -0.2514 -0.4063 -0.1480
  852MOL0     C14945  11.445   2.728  10.227 -0.0026  0.3263  0.6709
  852MOL0     C14946  11.579   2.671  10.277  0.0523  0.8621 -0.2810
  852MOL0     C14947  11.705   2.758  10.260  0.4223  0.6358  0.3210
  852MOL0     C14948  11.761   2.767  10.114 -0.5741 -0.7970  0.4588
  852MOL0     C14949  11.873   2.870  10.114 -0.3247 -0.3989  0.5680
  852MOL0     C14950  11.948   2.968  10.109 -0.3531 -0.5715  0.2219
  852MOL0     C14951  11.287   2.764   9.893 -0.1327  0.3651  0.1725
  852MOL0     C14952  11.166   2.811   9.834 -0.2769 -0.1639  0.8847
  852MOL0     H14953  10.689   3.140   9.971  0.5732 -0.3407  0.1735
  852MOL0     H14954  10.486   3.210   9.861  1.7665  1.3850 -0.8405
  852MOL0     H14955  10.260   3.174   9.806  1.5653  3.9048  1.0946
  852MOL0     H14956  10.315   3.278   9.670  2.4194 -0.6401  1.5289
  852MOL0     H14957  10.098   3.052   9.655  1.0527 -0.7552 -1.1086
  852MOL0     H14958  10.054   3.212   9.688  0.0771 -1.7234  1.6060
  852MOL0     H14959  10.170   3.261   9.464  1.1788 -1.2018 -1.8590
  852MOL0     H14960  10.191   3.091   9.439 -1.5098 -1.3338 -1.0500
  852MOL0     H14961  10.012   3.128   9.317 -0.8118  2.4914 -0.7982
  852MOL0     H14962   9.951   3.044   9.462 -0.4430  1.0222  1.6785
  852MOL0     H14963   9.874   3.271   9.539  0.8491 -3.1808  1.2875
  852MOL0     H14964   9.942   3.345   9.396 -1.0028  0.7741  0.2424
  852MOL0     H14965   9.710   3.167   9.412  0.7811  0.0593  0.3949
  852MOL0     H14966   9.709   3.345   9.372  0.4449  0.0018  2.3556
  852MOL0     H14967   9.854   3.296   9.173  0.5807 -1.1561 -0.3610
  852MOL0     H14968   9.812   3.125   9.200 -1.7658 -0.1852 -2.0489
  852MOL0     H14969   9.666   3.237   9.031  1.8474  1.8911  0.5564
  852MOL0     H14970   9.601   3.336   9.157 -0.1232  0.6002 -1.8316
  852MOL0     H14971   9.428   3.228   9.313  0.0639  0.1077 -0.4372
  852MOL0     H14972   9.303   2.862   9.397 -0.1268 -0.5211 -2.4343
  852MOL0     H14973   9.339   3.010   9.492 -1.5312 -2.4488  1.0085
  852MOL0     H14974   9.157   2.975   9.256  0.5184  1.8800 -1.1114
  852MOL0     H14975   9.189   3.140   9.309 -1.0583  0.8197  0.4957
  852MOL0     H14976   9.101   3.113   9.536  0.1015  0.8578 -0.0674
  852MOL0     H14977   9.112   2.945   9.527  0.6352  0.3490 -1.1530
  852MOL0     H14978   8.927   3.116   9.362 -0.6750  0.0622 -0.0717
  852MOL0     H14979   8.897   3.057   9.525  4.8161  0.2264  2.5300
  852MOL0     H14980   8.673   3.043   9.447  2.0401 -0.4093  0.1719
  852MOL0     H14981   8.422   3.098   9.396 -0.0252 -0.1686 -1.0863
  852MOL0     H14982   8.332   2.955   9.459 -1.2015  1.9164  0.0554
  852MOL0     H14983   8.457   3.029   9.556  0.2107  1.1527 -0.7111
  852MOL0     H14984   8.079   2.700   9.338  0.6865 -1.8167  2.2197
  852MOL0     H14985   7.864   2.595   9.265  0.7697  2.9273 -1.1305
  852MOL0     H14986   7.689   2.499   9.164  0.7291  0.1379 -0.9306
  852MOL0     H14987   7.649   2.339   9.126  1.0357  0.8719 -0.9291
  852MOL0     H14988   7.699   2.256   9.356 -2.0960  0.1819  1.1761
  852MOL0     H14989   7.745   2.427   9.386  0.4502 -0.6633  1.6388
  852MOL0     H14990   7.506   2.484   9.320  0.9851 -0.1913 -1.1883
  852MOL0     H14991   7.519   2.399   9.478 -1.0072  1.2623 -0.1905
  852MOL0     H14992   7.458   2.253   9.231  2.5062 -0.4652  1.0661
  852MOL0     H14993   7.451   2.185   9.385  3.2218  1.5989  0.9953
  852MOL0     H14994   7.287   2.340   9.467  1.6153 -2.1405 -0.1252
  852MOL0     H14995   7.248   2.209   9.363  1.3864 -0.6143 -0.3961
  852MOL0     H14996   7.254   2.484   9.247  1.4984 -0.4089  0.6149
  852MOL0     H14997   7.210   2.341   9.157 -2.1796 -3.1419  1.2175
  852MOL0     H14998   7.020   2.494   9.272 -2.4067 -0.3911  2.6596
  852MOL0     H14999   7.058   2.412   9.425 -2.8310 -1.1127 -0.2547
  852MOL0     H15000   6.869   2.300   9.308 -0.7943 -1.4321 -0.1925
  852MOL0     H15001   7.015   2.190   9.304 -3.2573 -2.5461 -2.6612
  852MOL0     H15002   8.093   2.266   9.103  0.7425  1.6267 -2.2775
  852MOL0     H15003   8.295   2.376   9.167 -0.5921 -0.7460  0.6826
  852MOL0     H15004   8.586   2.634   9.201 -1.5179  0.7059  0.4635
  852MOL0     H15005   8.821   2.704   9.243  2.5276  2.7337  1.3252
  852MOL0     H15006  10.528   2.869   9.589  2.3246 -0.2383 -0.2102
  852MOL0     H15007  10.719   2.799   9.713 -0.3012 -0.2671 -0.0625
  852MOL0     H15008  10.987   2.863  10.125  0.2325 -0.1671  0.2449
  852MOL0     H15009  11.186   2.782  10.221  0.0185  4.8587  1.1980
  852MOL0     H15010  11.422   2.830  10.258  1.0457  0.3907  1.3073
  852MOL0     H15011  11.373   2.664  10.278  1.8833 -1.8724  0.7203
  852MOL0     H15012  11.604   2.578  10.224 -0.8649  0.5013 -0.1011
  852MOL0     H15013  11.567   2.634  10.379 -4.4532  0.9821 -0.5441
  852MOL0     H15014  11.776   2.708  10.327 -1.5890 -2.6583  0.2184
  852MOL0     H15015  11.684   2.857  10.301 -0.8251  0.7426 -0.5305
  852MOL0     H15016  11.683   2.805  10.046 -0.1760 -2.7618 -1.1948
  852MOL0     H15017  11.804   2.673  10.078 -0.1122 -0.9093  1.2955
  852MOL0     H15018  12.003   3.059  10.098  0.0060 -0.3778  2.9300
  852MOL0     H15019  11.368   2.728   9.830  0.2055 -1.6127  1.6445
  852MOL0     H15020  11.175   2.824   9.727  0.3289  2.4114  1.1656
  853MOL0     O15021   5.579   8.154   2.472  1.2994  0.6112 -0.1453
  853MOL0     C15022   5.670   8.214   2.415 -0.3938 -0.4174  0.0192
  853MOL0     O15023   5.672   8.261   2.285  0.3670  0.1178 -1.0706
  853MOL0     C15024   5.574   8.229   2.201  0.2657 -0.7445  0.5514
  853MOL0     C15025   5.482   8.330   2.171  0.3758 -0.8007 -0.1627
  853MOL0     C15026   5.381   8.295   2.084  0.4719 -0.4872 -0.2528
  853MOL0     C15027   5.360   8.166   2.030 -0.3379 -0.0414  0.2022
  853MOL0     O15028   5.252   8.132   1.953  0.2051  0.2675 -0.3662
  853MOL0     C15029   5.149   8.232   1.942  0.1583 -0.0439 -0.3708
  853MOL0     C15030   5.036   8.155   1.886  0.3385 -0.3594  0.1972
  853MOL0     C15031   4.934   8.255   1.824  0.3715 -0.3526 -0.9768
  853MOL0     C15032   4.974   8.297   1.687  0.4657  0.1951 -0.1009
  853MOL0     C15033   4.870   8.399   1.640 -0.3796 -0.3923  0.5744
  853MOL0     C15034   4.885   8.422   1.484  0.0648 -0.2114 -0.3668
  853MOL0     C15035   4.776   8.502   1.406  0.0127 -0.1580 -0.5235
  853MOL0     C15036   4.804   8.657   1.424  0.5966  0.4061  0.1854
  853MOL0     N15037   4.680   8.738   1.423 -0.3400 -0.4894 -0.1592
  853MOL0     C15038   4.636   8.803   1.312 -0.7633  0.5000  0.6427
  853MOL0     C15039   4.557   8.901   1.358  0.3332 -0.7281 -0.1005
  853MOL0     C15040   4.489   9.007   1.272 -0.7258 -0.2198  0.1078
  853MOL0     C15041   4.349   8.966   1.230 -0.1559  0.7514 -0.2277
  853MOL0     C15042   4.368   8.882   1.095  0.0150 -0.1231  0.0295
  853MOL0     C15043   4.237   8.811   1.075  0.2494  0.6195 -1.1718
  853MOL0     O15044   4.129   8.906   1.093 -0.3811 -0.2745  0.4396
  853MOL0     C15045   4.001   8.872   1.062 -0.2057 -0.1351  0.3260
  853MOL0     C15046   3.941   8.757   1.005 -0.6125 -0.3762  0.1292
  853MOL0     C15047   3.811   8.741   0.971  0.1484 -0.0034 -0.0565
  853MOL0     C15048   3.764   8.610   0.905  0.1661 -0.2385 -0.4084
  853MOL0     C15049   3.724   8.852   0.992  0.7820 -1.0998  0.5637
  853MOL0     C15050   3.578   8.849   0.948  0.8388 -0.8159 -0.1759
  853MOL0     O15051   3.516   8.971   0.933  0.4693 -0.3143 -0.1152
  853MOL0     C15052   3.401   8.968   0.857  0.1051 -0.6822 -0.5153
  853MOL0     C15053   3.401   8.997   0.718 -0.6464  0.7585 -0.6928
  853MOL0     C15054   3.275   8.983   0.652 -0.5773 -0.5656 -0.1006
  853MOL0     C15055   3.161   8.959   0.725  0.7702  0.5525  0.5812
  853MOL0     O15056   3.043   8.962   0.658  0.5956  0.0237  0.1009
  853MOL0     C15057   2.929   8.899   0.711 -0.5935  0.0825 -0.6137
  853MOL0     C15058   2.824   8.884   0.599  0.6057  0.0221 -0.8254
  853MOL0     C15059   2.692   8.867   0.667 -0.9572 -0.1470 -0.4634
  853MOL0     C15060   2.580   8.821   0.571  0.2139 -0.3101 -0.2448
  853MOL0     C15061   2.452   8.779   0.652 -0.2556  0.2506  0.0028
  853MOL0     C15062   2.331   8.758   0.571 -0.1421  0.2302  0.1387
  853MOL0     C15063   2.264   8.889   0.522 -0.3836 -0.5032 -0.3553
  853MOL0     C15064   2.119   8.876   0.491 -0.0139 -0.9412 -0.8866
  853MOL0    Cl15065   2.010   8.837   0.627  0.0722  0.0840 -0.2360
  853MOL0     C15066   3.162   8.941   0.866 -0.1510  0.6345 -0.3893
  853MOL0     C15067   3.284   8.942   0.927 -0.3444  0.4664  0.4793
  853MOL0     O15068   3.526   8.745   0.907 -0.6008  0.2624 -0.1372
  853MOL0     C15069   3.774   8.974   1.047 -1.1734  0.5055  0.6155
  853MOL0     C15070   3.907   8.968   1.080  0.2294 -0.3377  0.0214
  853MOL0     N15071   4.546   8.889   1.494  1.0965  0.0012  0.4536
  853MOL0     N15072   4.622   8.790   1.534 -1.0618 -0.5191 -0.9249
  853MOL0     C15073   5.452   8.074   2.068  0.2229 -0.3206  0.5412
  853MOL0     C15074   5.562   8.098   2.150 -0.1321 -0.2156  0.4335
  853MOL0     C15075   5.791   8.235   2.502  0.2770  0.0882 -0.6077
  853MOL0     C15076   5.909   8.265   2.446  0.3671  0.2512  0.5120
  853MOL0     C15077   6.021   8.300   2.521 -0.3448 -0.2834 -0.9140
  853MOL0     C15078   6.011   8.300   2.662  0.2809  0.2754 -0.2524
  853MOL0     O15079   6.125   8.325   2.739  0.2827 -1.0019  0.5626
  853MOL0     C15080   6.126   8.304   2.880  0.5120 -0.4250  0.1498
  853MOL0     C15081   6.242   8.367   2.954 -0.0926  0.6846  0.4984
  853MOL0     C15082   6.382   8.320   2.911  0.9903  0.0281  0.1350
  853MOL0     C15083   6.417   8.362   2.773  0.1305  0.0781 -0.0785
  853MOL0     C15084   6.567   8.378   2.758  0.0399  0.5454  0.3142
  853MOL0     C15085   6.682   8.384   2.754 -0.0444  0.0849  0.5866
  853MOL0     C15086   5.893   8.271   2.717  1.0820  0.4154 -0.7178
  853MOL0     C15087   5.779   8.235   2.641 -0.5392 -0.0791  0.2118
  853MOL0     H15088   5.498   8.430   2.209 -0.5148 -0.5686 -0.3898
  853MOL0     H15089   5.313   8.378   2.071  0.6028 -0.2559  0.4919
  853MOL0     H15090   5.119   8.285   2.032 -1.7090 -0.6526 -0.5949
  853MOL0     H15091   5.186   8.298   1.864  0.7059  0.7197  0.5180
  853MOL0     H15092   5.074   8.102   1.798  1.8847  1.5479 -0.3662
  853MOL0     H15093   4.993   8.085   1.957  1.9592  2.0663  3.8552
  853MOL0     H15094   4.839   8.200   1.828  0.6221 -0.7184  1.7020
  853MOL0     H15095   4.933   8.340   1.893 -0.7212 -0.3716 -0.9565
  853MOL0     H15096   5.072   8.346   1.688  1.0033 -0.7846 -1.6301
  853MOL0     H15097   4.970   8.215   1.615 -0.7589 -1.1034  1.3608
  853MOL0     H15098   4.770   8.367   1.670 -0.2170 -2.1233 -0.5631
  853MOL0     H15099   4.895   8.491   1.693  2.0042 -2.3532  3.2234
  853MOL0     H15100   4.976   8.481   1.469  1.8436 -2.4913  0.9587
  853MOL0     H15101   4.904   8.325   1.437  0.7752  0.2131 -0.9802
  853MOL0     H15102   4.791   8.481   1.299  1.6420 -1.0899 -0.1457
  853MOL0     H15103   4.677   8.465   1.433 -0.5466 -0.6525 -2.9831
  853MOL0     H15104   4.866   8.687   1.340  1.7545  1.0339  1.2316
  853MOL0     H15105   4.852   8.678   1.520  3.0631  0.9844 -1.1147
  853MOL0     H15106   4.660   8.776   1.210 -3.0895 -0.4823  0.2938
  853MOL0     H15107   4.477   9.103   1.324  1.1169  0.5530 -0.8033
  853MOL0     H15108   4.544   9.023   1.178 -0.8142  1.2165  0.2800
  853MOL0     H15109   4.273   9.045   1.232 -0.4136  0.5418  2.4173
  853MOL0     H15110   4.309   8.894   1.303  0.4843  2.2882  1.7341
  853MOL0     H15111   4.454   8.816   1.108 -0.5344 -0.3179  3.8211
  853MOL0     H15112   4.388   8.947   1.009  0.3523  0.2856  0.4140
  853MOL0     H15113   4.231   8.729   1.147 -0.2427 -0.2144 -2.1267
  853MOL0     H15114   4.235   8.771   0.973  2.5916 -0.4784 -0.8449
  853MOL0     H15115   4.013   8.682   0.974  0.6589 -0.7047  3.4561
  853MOL0     H15116   3.738   8.635   0.802  0.2767  0.7708 -0.2002
  853MOL0     H15117   3.852   8.545   0.908 -0.4193 -1.0920  3.2749
  853MOL0     H15118   3.685   8.562   0.963 -0.6250 -0.1793 -1.4150
  853MOL0     H15119   3.495   9.017   0.667  0.4210 -1.4893  0.2584
  853MOL0     H15120   3.269   8.995   0.544  0.8881  1.1293 -0.0421
  853MOL0     H15121   2.956   8.803   0.755 -3.1972  0.1829  1.4482
  853MOL0     H15122   2.895   8.963   0.793  1.6239  0.3508  0.1609
  853MOL0     H15123   2.815   8.974   0.537 -3.5360 -1.5818 -2.9373
  853MOL0     H15124   2.860   8.801   0.536  1.9980  0.6543 -0.9072
  853MOL0     H15125   2.653   8.958   0.712 -1.8027 -2.0765  3.0182
  853MOL0     H15126   2.701   8.800   0.753 -0.9131  0.4791  0.0274
  853MOL0     H15127   2.555   8.907   0.508 -0.7791 -1.3406 -1.3215
  853MOL0     H15128   2.613   8.739   0.506 -0.2173  0.6622 -1.7559
  853MOL0     H15129   2.432   8.858   0.725 -0.3251 -1.7982  2.3508
  853MOL0     H15130   2.488   8.690   0.704 -0.7476 -0.1515 -0.3309
  853MOL0     H15131   2.352   8.704   0.479 -1.8053 -1.4817  0.6996
  853MOL0     H15132   2.261   8.695   0.627  0.3253 -0.1168  0.3313
  853MOL0     H15133   2.315   8.926   0.432 -1.4454 -0.2279 -0.8663
  853MOL0     H15134   2.284   8.964   0.598  1.2490 -1.6025  0.3467
  853MOL0     H15135   2.106   8.806   0.408 -4.1325 -1.0120 -0.3618
  853MOL0     H15136   2.089   8.973   0.450 -2.8520 -1.4466 -0.2095
  853MOL0     H15137   3.074   8.925   0.927  0.4477 -0.9061  0.1022
  853MOL0     H15138   3.273   8.910   1.030 -1.3418 -1.2645 -0.1179
  853MOL0     H15139   3.716   9.065   1.060 -1.4268  0.7858 -1.9801
  853MOL0     H15140   3.942   9.060   1.126 -0.8444 -0.5273  1.2780
  853MOL0     H15141   5.440   7.977   2.021  2.8203 -0.3409 -0.2248
  853MOL0     H15142   5.629   8.017   2.180 -2.2612 -2.1205  0.3369
  853MOL0     H15143   5.913   8.261   2.338 -0.1756 -1.1947  0.5222
  853MOL0     H15144   6.112   8.319   2.464  0.6544 -1.0122  0.3752
  853MOL0     H15145   6.035   8.350   2.921  0.6228  1.1443 -1.2610
  853MOL0     H15146   6.119   8.196   2.899  1.1365 -0.6728 -0.9374
  853MOL0     H15147   6.226   8.347   3.061 -2.6308  0.4465  0.1540
  853MOL0     H15148   6.239   8.476   2.940  1.5846  0.5473 -1.2528
  853MOL0     H15149   6.394   8.211   2.918  1.3159  0.1204  1.2653
  853MOL0     H15150   6.448   8.370   2.982  0.9908  0.5721 -0.2418
  853MOL0     H15151   6.375   8.460   2.748 -0.9947 -0.4300 -0.2356
  853MOL0     H15152   6.386   8.286   2.701  1.0787 -0.4617  0.0576
  853MOL0     H15153   6.787   8.401   2.741 -0.0841 -0.8789 -1.4505
  853MOL0     H15154   5.868   8.277   2.822  2.3617 -1.2354 -0.2737
  853MOL0     H15155   5.689   8.206   2.692 -0.0650 -0.5615  0.7854
  854MOL0     O15156   9.267   2.061   9.958 -0.2257 -0.2032  0.0432
  854MOL0     C15157   9.318   2.169   9.965 -0.6903 -0.2883  0.7952
  854MOL0     O15158   9.258   2.279  10.019  0.2465 -0.1808 -0.2003
  854MOL0     C15159   9.122   2.262  10.042 -0.1710 -0.0088 -1.2903
  854MOL0     C15160   9.070   2.273  10.173  0.3357  0.5997  0.6300
  854MOL0     C15161   8.937   2.258  10.205  0.0895  0.7993  0.4513
  854MOL0     C15162   8.845   2.216  10.103 -0.6670 -0.1880  0.0206
  854MOL0     O15163   8.710   2.188  10.118  0.6370 -0.2846 -0.8256
  854MOL0     C15164   8.627   2.267  10.207  0.1631 -1.4087  0.4886
  854MOL0     C15165   8.485   2.242  10.178  0.5397 -0.0806  0.9198
  854MOL0     C15166   8.458   2.102  10.228 -0.1634  0.4209  0.0278
  854MOL0     C15167   8.309   2.058  10.212  0.8647 -0.5873 -0.1648
  854MOL0     C15168   8.274   1.919  10.264 -0.2639  0.6497  0.0685
  854MOL0     C15169   8.356   1.803  10.195  0.2200  0.3881  0.1594
  854MOL0     C15170   8.321   1.783  10.053  0.2004 -0.1839  0.2150
  854MOL0     C15171   8.420   1.695   9.974 -0.1338  0.0131  0.6911
  854MOL0     N15172   8.397   1.549   9.991  0.2240 -0.4425 -0.5828
  854MOL0     C15173   8.334   1.464   9.904  0.2009 -0.0817  0.1462
  854MOL0     C15174   8.333   1.348   9.975 -0.2437  0.8034 -0.2691
  854MOL0     C15175   8.243   1.232   9.952 -0.4442  0.3060  0.3215
  854MOL0     C15176   8.140   1.210  10.060 -0.2009  0.4306 -0.2828
  854MOL0     C15177   8.039   1.322  10.040  0.3037  0.0528  0.0422
  854MOL0     C15178   7.920   1.295  10.138  0.5045 -0.7176 -0.5073
  854MOL0     O15179   7.805   1.372  10.119  0.2424  0.3251 -1.2800
  854MOL0     C15180   7.685   1.318  10.153 -0.1081  0.1236  0.4098
  854MOL0     C15181   7.661   1.198  10.220 -0.0986 -0.7787  0.6672
  854MOL0     C15182   7.526   1.152  10.244 -0.1745  0.1905  0.5104
  854MOL0     C15183   7.517   1.020  10.313  0.2858  0.1783  0.1497
  854MOL0     C15184   7.417   1.224  10.181 -0.2532 -0.0168  0.2391
  854MOL0     C15185   7.276   1.179  10.185  1.1449  1.1252  0.0052
  854MOL0     O15186   7.238   1.067  10.251  0.3595  0.4823  0.5437
  854MOL0     C15187   7.124   0.999  10.219 -0.1910 -0.2112  0.2705
  854MOL0     C15188   7.111   0.926  10.098 -0.4460  0.4203  0.1409
  854MOL0     C15189   7.004   0.839  10.070 -0.1170  0.2505 -0.9338
  854MOL0     C15190   6.912   0.811  10.177  0.2926 -0.4430 -0.5086
  854MOL0     O15191   6.810   0.716  10.161 -0.1642 -0.1623 -0.2009
  854MOL0     C15192   6.701   0.714  10.254  0.6562 -0.0643 -0.5656
  854MOL0     C15193   6.587   0.619  10.221 -0.3852 -0.4197 -0.0738
  854MOL0     C15194   6.624   0.465  10.231 -0.2188  0.1234  0.1652
  854MOL0     C15195   6.675   0.430  10.371 -0.6607 -0.1263 -0.0854
  854MOL0     C15196   6.694   0.280  10.401  0.7834  0.1471  0.3106
  854MOL0     C15197   6.794   0.259  10.516  0.5060  0.4357  0.3807
  854MOL0     C15198   6.793   0.106  10.542  0.2526 -0.5808 -0.4528
  854MOL0     C15199   6.910   0.029  10.477  0.0698 -0.0702 -0.2013
  854MOL0    Cl15200   7.073   0.105  10.496 -0.0321  0.4118  0.1042
  854MOL0     C15201   6.931   0.883  10.302 -0.4325  0.4223  0.5583
  854MOL0     C15202   7.028   0.981  10.313 -0.2288  0.0538 -0.5061
  854MOL0     O15203   7.197   1.254  10.127  0.1040 -0.5344  0.0223
  854MOL0     C15204   7.452   1.341  10.108 -0.0105  0.2893  0.1493
  854MOL0     C15205   7.581   1.398  10.100  0.7914 -0.6942  0.5063
  854MOL0     N15206   8.395   1.366  10.102  0.4887  0.2154  1.0032
  854MOL0     N15207   8.443   1.484  10.107 -0.0305  0.2374 -0.6728
  854MOL0     C15208   8.893   2.210   9.972  1.3596  0.1856 -0.1332
  854MOL0     C15209   9.027   2.231   9.944 -1.0028  0.4031 -0.0672
  854MOL0     C15210   9.459   2.184   9.916 -0.7665 -1.1926  0.2689
  854MOL0     C15211   9.514   2.318   9.898  0.7796 -0.2435 -0.0467
  854MOL0     C15212   9.639   2.327   9.845 -0.5295  0.1764 -0.2311
  854MOL0     C15213   9.715   2.226   9.797 -0.7900  0.6328  0.0951
  854MOL0     O15214   9.836   2.253   9.743  0.1834  0.4760 -0.2891
  854MOL0     C15215   9.877   2.170   9.632 -0.1355 -1.2909  0.2967
  854MOL0     C15216   9.789   2.171   9.510 -0.0438 -0.4787 -0.6926
  854MOL0     C15217   9.747   2.314   9.458  0.3807 -0.1959 -0.5290
  854MOL0     C15218   9.864   2.401   9.439  0.1380 -0.1796  0.3556
  854MOL0     C15219   9.823   2.528   9.382 -0.3785 -0.7690  0.3041
  854MOL0     C15220   9.771   2.637   9.348  0.4827  0.3655  0.3389
  854MOL0     C15221   9.653   2.102   9.813 -0.6032  0.2541  0.9247
  854MOL0     C15222   9.525   2.080   9.864  0.1272  0.1432  1.0870
  854MOL0     H15223   9.135   2.295  10.257  1.3476 -0.9044  0.2981
  854MOL0     H15224   8.899   2.254  10.306 -0.4277  0.0188  0.2397
  854MOL0     H15225   8.655   2.241  10.310 -0.7464 -0.9285  0.8676
  854MOL0     H15226   8.640   2.374  10.185 -1.7145 -1.4915 -1.2525
  854MOL0     H15227   8.418   2.317  10.222  0.2221  0.1879 -0.0107
  854MOL0     H15228   8.463   2.261  10.073 -0.7108  1.2457  1.3885
  854MOL0     H15229   8.518   2.032  10.169  0.6446 -0.4241  1.7789
  854MOL0     H15230   8.495   2.093  10.330 -2.0446  0.2964  0.7394
  854MOL0     H15231   8.247   2.131  10.265  1.2276  0.4745 -1.1717
  854MOL0     H15232   8.274   2.082  10.111  2.8861  1.8762 -0.3808
  854MOL0     H15233   8.304   1.921  10.369  3.5593  1.0488 -0.9131
  854MOL0     H15234   8.165   1.906  10.254 -0.2520 -0.9825  1.4623
  854MOL0     H15235   8.464   1.822  10.201  0.5164 -1.2229  0.4378
  854MOL0     H15236   8.343   1.710  10.252 -0.4636 -0.5498 -1.4733
  854MOL0     H15237   8.223   1.733  10.054 -0.4080  0.9501  1.9628
  854MOL0     H15238   8.317   1.879  10.001 -1.3056  0.1899  0.9641
  854MOL0     H15239   8.520   1.725  10.006 -0.9983  1.9502  1.7683
  854MOL0     H15240   8.413   1.727   9.870 -0.9988  3.4712  1.6539
  854MOL0     H15241   8.303   1.488   9.803  0.0215 -2.9710 -0.5763
  854MOL0     H15242   8.191   1.235   9.856  0.3033 -1.7122 -0.1894
  854MOL0     H15243   8.308   1.144   9.946 -0.5653  0.2742 -0.5416
  854MOL0     H15244   8.186   1.222  10.159 -0.1611 -1.2207 -0.0637
  854MOL0     H15245   8.107   1.106  10.051  0.0793  0.3177 -0.0233
  854MOL0     H15246   7.995   1.329   9.940 -0.8855 -0.1514  0.5217
  854MOL0     H15247   8.084   1.421  10.056  0.0531 -0.2027  2.8305
  854MOL0     H15248   7.953   1.311  10.241 -1.8082  1.5020 -0.0089
  854MOL0     H15249   7.889   1.192  10.117 -2.4368  0.8079 -5.0875
  854MOL0     H15250   7.749   1.149  10.260  0.9465  1.9074  1.8947
  854MOL0     H15251   7.619   0.981  10.324 -0.1890 -0.6762  1.9038
  854MOL0     H15252   7.466   1.033  10.408 -0.0546  2.4183 -0.2945
  854MOL0     H15253   7.457   0.950  10.253  0.2405 -1.2785  1.8155
  854MOL0     H15254   7.184   0.954  10.023 -0.7752  1.8438  0.3123
  854MOL0     H15255   6.983   0.781   9.981 -1.9120  1.1656 -1.1517
  854MOL0     H15256   6.729   0.696  10.358 -1.6449 -0.8205 -0.0319
  854MOL0     H15257   6.653   0.811  10.262 -2.7153 -1.6245 -0.0728
  854MOL0     H15258   6.490   0.642  10.266 -1.1660 -3.9848  0.4081
  854MOL0     H15259   6.556   0.628  10.117  1.2622 -1.6659 -0.7188
  854MOL0     H15260   6.704   0.446  10.158  1.8803  2.4912  1.6868
  854MOL0     H15261   6.537   0.407  10.199  0.6099  0.0520 -2.1823
  854MOL0     H15262   6.775   0.476  10.372 -0.9167  0.7857 -3.3325
  854MOL0     H15263   6.600   0.465  10.442 -0.3587  1.5459 -0.5634
  854MOL0     H15264   6.723   0.217  10.316 -0.8495 -0.0659 -0.1104
  854MOL0     H15265   6.593   0.250  10.429  0.1876  2.0038  0.3052
  854MOL0     H15266   6.895   0.294  10.494  0.3085  1.0106  0.3620
  854MOL0     H15267   6.770   0.305  10.612  0.3352  0.4873  0.3138
  854MOL0     H15268   6.696   0.059  10.524 -2.7028  4.7155 -0.4525
  854MOL0     H15269   6.823   0.099  10.647  0.2778 -1.0122 -0.4897
  854MOL0     H15270   6.880   0.036  10.372 -0.6544 -0.8005 -0.0553
  854MOL0     H15271   6.920  -0.079  10.496 -1.1033 -0.6613 -2.5107
  854MOL0     H15272   6.858   0.878  10.381 -2.3986  0.3601 -1.1928
  854MOL0     H15273   7.024   1.048  10.398 -0.7554 -0.3216 -0.2292
  854MOL0     H15274   7.383   1.410  10.060  0.5936  0.5437 -0.3616
  854MOL0     H15275   7.605   1.492  10.051 -2.5308  0.4344  0.8287
  854MOL0     H15276   8.820   2.179   9.898 -0.2201  2.3139  0.4309
  854MOL0     H15277   9.061   2.210   9.843  1.1158 -0.9579  0.8502
  854MOL0     H15278   9.461   2.407   9.931  3.9138  3.1171 -3.1951
  854MOL0     H15279   9.693   2.421   9.840 -0.3099  0.2478  2.2685
  854MOL0     H15280   9.977   2.202   9.600  0.6194 -3.0006  0.8142
  854MOL0     H15281   9.888   2.064   9.658  2.2107 -0.7223  1.9615
  854MOL0     H15282   9.696   2.116   9.527 -0.8609  0.8893 -0.6311
  854MOL0     H15283   9.842   2.117   9.431  0.1308 -0.2794 -0.7132
  854MOL0     H15284   9.671   2.355   9.526 -0.4563 -0.0787 -1.5129
  854MOL0     H15285   9.693   2.294   9.365  1.2301  1.2971 -1.3666
  854MOL0     H15286   9.925   2.341   9.371 -1.3332 -0.3987 -0.8040
  854MOL0     H15287   9.921   2.426   9.530  0.8697 -1.1286  0.1737
  854MOL0     H15288   9.733   2.731   9.313  4.2753  2.2922  0.8267
  854MOL0     H15289   9.709   2.012   9.791 -0.4253  0.9569 -1.8024
  854MOL0     H15290   9.498   1.978   9.889  0.8554 -0.6924 -1.2866
  855MOL0     O15291   2.947   2.658   4.800  0.2057  0.4824  0.1377
  855MOL0     C15292   3.032   2.689   4.881 -0.2639  0.0144 -0.1138
  855MOL0     O15293   3.014   2.730   5.009  0.1594 -0.2899 -0.4305
  855MOL0     C15294   2.880   2.743   5.048  0.4105  0.8741  0.9568
  855MOL0     C15295   2.850   2.703   5.182 -0.5215  0.2423 -0.2872
  855MOL0     C15296   2.713   2.702   5.227 -0.4224  0.9145 -0.5126
  855MOL0     C15297   2.612   2.732   5.142 -0.5342 -1.1951 -0.3373
  855MOL0     O15298   2.482   2.730   5.186  0.2687  0.0055 -0.8067
  855MOL0     C15299   2.386   2.702   5.083 -0.2202  0.4893 -0.6622
  855MOL0     C15300   2.261   2.660   5.167  0.1124 -0.0342  0.6661
  855MOL0     C15301   2.127   2.674   5.087  0.1859  0.3442  1.0749
  855MOL0     C15302   2.081   2.818   5.081  0.2550 -0.1398  0.2911
  855MOL0     C15303   1.953   2.854   4.995 -1.0627  0.2142 -0.0332
  855MOL0     C15304   1.982   2.852   4.840  0.4859  0.8879 -0.6782
  855MOL0     C15305   1.876   2.919   4.765 -1.3587 -0.6970  0.7745
  855MOL0     C15306   1.904   2.933   4.614  0.6270  1.6778 -0.0026
  855MOL0     N15307   1.871   2.808   4.554  0.1728 -0.2534  0.5445
  855MOL0     C15308   1.744   2.753   4.549 -0.5077 -0.9424  0.1346
  855MOL0     C15309   1.766   2.620   4.541  0.3834  0.2009 -0.5999
  855MOL0     C15310   1.646   2.518   4.549 -0.6989  0.9512 -0.8878
  855MOL0     C15311   1.561   2.519   4.682  0.0943 -0.0576 -0.0846
  855MOL0     C15312   1.423   2.433   4.692 -0.2652  0.4548  0.8210
  855MOL0     C15313   1.456   2.286   4.692 -1.0794  0.0156 -0.0485
  855MOL0     O15314   1.468   2.226   4.826 -0.4164 -0.8151 -0.4710
  855MOL0     C15315   1.352   2.203   4.900 -0.6049 -0.1536  0.3017
  855MOL0     C15316   1.380   2.146   5.026 -0.5751  0.4047 -0.8353
  855MOL0     C15317   1.287   2.099   5.124  0.2979  0.3468 -0.0635
  855MOL0     C15318   1.338   2.042   5.258  0.1069  0.4421  0.0089
  855MOL0     C15319   1.146   2.118   5.094  0.0836 -0.2852 -0.2795
  855MOL0     C15320   1.029   2.073   5.185 -0.3625 -0.4652  0.3901
  855MOL0     O15321   0.911   2.058   5.115 -0.3649  0.0306  0.0641
  855MOL0     C15322   0.798   2.005   5.159  0.7801  0.6377  0.7118
  855MOL0     C15323   0.733   1.914   5.063 -0.5112 -0.8763  0.1198
  855MOL0     C15324   0.610   1.866   5.088 -0.3416  0.2339  0.5972
  855MOL0     C15325   0.556   1.880   5.220  0.1127  0.1226 -0.7897
  855MOL0     O15326   0.437   1.813   5.240  0.2470 -0.4160  0.3031
  855MOL0     C15327   0.358   1.821   5.365 -1.0645 -1.4958  1.2427
  855MOL0     C15328   0.236   1.733   5.342  0.7026  0.0929 -0.1174
  855MOL0     C15329   0.128   1.782   5.237 -1.0446  0.3118 -0.0285
  855MOL0     C15330   0.015   1.686   5.247  0.6414 -0.0443  0.1913
  855MOL0     C15331  -0.113   1.745   5.179 -0.1624  0.8017  0.2890
  855MOL0     C15332  -0.231   1.648   5.199 -0.6166 -0.1173  0.0724
  855MOL0     C15333  -0.361   1.702   5.140  0.2143  0.4742 -0.5122
  855MOL0     C15334  -0.472   1.599   5.154 -0.5674 -0.4029  0.4843
  855MOL0    Cl15335  -0.465   1.477   5.026 -0.0330 -0.0599 -0.1532
  855MOL0     C15336   0.620   1.968   5.319  0.3165 -0.7841 -0.5611
  855MOL0     C15337   0.737   2.027   5.280 -0.0261  0.7259  0.3886
  855MOL0     O15338   1.043   2.054   5.304 -0.6634 -0.0693 -0.2652
  855MOL0     C15339   1.114   2.181   4.962 -0.3472  0.1333  0.0148
  855MOL0     C15340   1.214   2.217   4.868 -0.6131  0.0597  0.4180
  855MOL0     N15341   1.897   2.601   4.507  0.2428  0.5375  0.3889
  855MOL0     N15342   1.962   2.713   4.524  0.7343 -0.6812 -0.4653
  855MOL0     C15343   2.653   2.785   5.014  0.2289  0.2458 -0.0437
  855MOL0     C15344   2.782   2.797   4.971 -0.7879 -0.4838  0.2825
  855MOL0     C15345   3.171   2.689   4.834  0.4919 -1.4075  0.3991
  855MOL0     C15346   3.274   2.704   4.928  0.0681  0.2358 -0.2497
  855MOL0     C15347   3.408   2.679   4.901 -0.3040 -0.3540  0.8549
  855MOL0     C15348   3.452   2.652   4.766 -0.0050  0.3066 -0.3530
  855MOL0     O15349   3.585   2.635   4.742 -0.3952 -0.1633  0.0111
  855MOL0     C15350   3.637   2.597   4.614  0.2007 -0.5370 -1.3026
  855MOL0     C15351   3.684   2.720   4.542  0.5916 -0.0099  0.2442
  855MOL0     C15352   3.823   2.764   4.596 -0.5694 -0.2594  0.3698
  855MOL0     C15353   3.891   2.867   4.502  0.7694  0.2007 -0.5138
  855MOL0     C15354   3.981   2.951   4.578 -0.3539  0.5289  0.0225
  855MOL0     C15355   4.054   3.020   4.649 -0.3081  0.4504 -0.3551
  855MOL0     C15356   3.351   2.650   4.664 -0.0566 -0.6152  0.6045
  855MOL0     C15357   3.212   2.673   4.699 -1.0428 -0.5166  0.7047
  855MOL0     H15358   2.938   2.670   5.237  0.8189  0.8585 -1.9721
  855MOL0     H15359   2.686   2.665   5.325 -0.3644 -0.0063 -0.8315
  855MOL0     H15360   2.368   2.794   5.027 -2.3034  1.5602  1.5666
  855MOL0     H15361   2.412   2.615   5.023 -1.3526 -0.6684  0.4632
  855MOL0     H15362   2.271   2.558   5.205 -2.1748 -0.6687 -0.2312
  855MOL0     H15363   2.257   2.726   5.254 -2.3190  0.3848  0.3167
  855MOL0     H15364   2.149   2.631   4.989  1.1715  0.0768  1.4034
  855MOL0     H15365   2.052   2.611   5.137  0.4378  0.4392  1.5830
  855MOL0     H15366   2.059   2.844   5.184 -0.5387 -3.7408  1.1574
  855MOL0     H15367   2.161   2.888   5.053  0.8065 -0.3583  1.2674
  855MOL0     H15368   1.866   2.792   5.019 -0.6672  0.2556  1.5854
  855MOL0     H15369   1.918   2.953   5.025 -1.8467 -0.3693  1.0472
  855MOL0     H15370   2.071   2.914   4.823  1.5920 -0.5741 -0.4472
  855MOL0     H15371   1.997   2.751   4.800 -2.3091  1.3415 -3.2603
  855MOL0     H15372   1.788   2.855   4.776  0.2698 -2.9683  1.4496
  855MOL0     H15373   1.867   3.017   4.812  0.1049  0.1067 -0.5118
  855MOL0     H15374   2.006   2.965   4.592  0.5577  1.7849 -0.1678
  855MOL0     H15375   1.828   3.005   4.583 -1.0405  0.1526  0.3730
  855MOL0     H15376   1.652   2.808   4.567  0.7869  1.8467 -1.1600
  855MOL0     H15377   1.576   2.529   4.466 -2.7846  0.3989  0.7039
  855MOL0     H15378   1.687   2.417   4.536  1.4218  1.4079  1.4922
  855MOL0     H15379   1.520   2.620   4.694 -0.5386 -0.0478 -1.9519
  855MOL0     H15380   1.633   2.498   4.761  2.0380  2.4750 -1.0261
  855MOL0     H15381   1.354   2.471   4.615  0.9332  0.5494 -0.2474
  855MOL0     H15382   1.380   2.457   4.789 -1.8321 -0.6566  0.4395
  855MOL0     H15383   1.554   2.270   4.646 -0.6683 -0.4716  0.9619
  855MOL0     H15384   1.378   2.227   4.643 -1.0300  0.4684 -0.6858
  855MOL0     H15385   1.484   2.135   5.055  0.0259  1.4786 -2.4350
  855MOL0     H15386   1.333   1.933   5.247 -1.5016  0.4050  0.7317
  855MOL0     H15387   1.441   2.069   5.282  0.8184 -2.0339  0.0722
  855MOL0     H15388   1.291   2.090   5.344  1.9743  0.0834  1.2952
  855MOL0     H15389   0.779   1.903   4.965 -0.9113  0.8032 -0.2959
  855MOL0     H15390   0.570   1.787   5.025  1.1536 -0.7257  0.8153
  855MOL0     H15391   0.428   1.788   5.442 -2.1012 -3.1490  1.5114
  855MOL0     H15392   0.322   1.923   5.385  1.2166 -0.1758 -0.8672
  855MOL0     H15393   0.276   1.638   5.304 -1.4010 -0.1646 -1.8815
  855MOL0     H15394   0.189   1.710   5.438 -0.7515  0.5512 -0.7004
  855MOL0     H15395   0.164   1.784   5.134 -1.6877  1.0249 -0.2475
  855MOL0     H15396   0.101   1.885   5.264 -1.9991  0.0670 -0.0109
  855MOL0     H15397   0.044   1.586   5.215  0.7074 -0.7159  2.1712
  855MOL0     H15398  -0.017   1.668   5.350 -2.2753 -1.4641 -0.8633
  855MOL0     H15399  -0.095   1.754   5.071 -0.8140  2.0538  0.2652
  855MOL0     H15400  -0.138   1.843   5.220  1.8410  0.9320  1.3285
  855MOL0     H15401  -0.204   1.556   5.145 -1.5225  1.4646 -3.4139
  855MOL0     H15402  -0.240   1.629   5.306  1.1070  0.8467  0.4231
  855MOL0     H15403  -0.352   1.714   5.032 -1.4459 -4.0670 -1.3638
  855MOL0     H15404  -0.398   1.786   5.200  0.3059 -0.8976  1.5819
  855MOL0     H15405  -0.562   1.658   5.138  0.2251  0.7983  0.3159
  855MOL0     H15406  -0.475   1.550   5.252 -2.3780  0.7759  1.0630
  855MOL0     H15407   0.568   1.994   5.410 -0.1567 -1.8315 -0.5189
  855MOL0     H15408   0.781   2.101   5.346 -0.2320 -1.3150  3.0001
  855MOL0     H15409   1.011   2.200   4.934 -0.2123  1.2400  0.2160
  855MOL0     H15410   1.178   2.261   4.776 -2.6218 -0.8997  0.6716
  855MOL0     H15411   2.582   2.829   4.945  2.0131  1.4155 -1.2250
  855MOL0     H15412   2.799   2.846   4.875  1.5044 -1.6950 -0.0235
  855MOL0     H15413   3.249   2.713   5.033 -0.2680  0.0917 -0.3149
  855MOL0     H15414   3.484   2.668   4.979  0.6483  0.0672  0.0126
  855MOL0     H15415   3.711   2.517   4.624  2.4588  1.6506  0.9568
  855MOL0     H15416   3.560   2.553   4.549 -0.7396 -0.9121  0.0379
  855MOL0     H15417   3.610   2.801   4.546 -1.5775 -1.6613 -2.5217
  855MOL0     H15418   3.684   2.694   4.436 -1.0644 -2.2011  0.7123
  855MOL0     H15419   3.901   2.687   4.592  0.7200  0.6999  3.7759
  855MOL0     H15420   3.812   2.808   4.695  4.5922 -0.8697  1.5378
  855MOL0     H15421   3.805   2.931   4.477  0.9735  1.0726  0.9253
  855MOL0     H15422   3.929   2.831   4.406  2.3817  0.2862  0.0753
  855MOL0     H15423   4.122   3.089   4.695  2.6796 -2.8109  0.6089
  855MOL0     H15424   3.373   2.621   4.561  2.1519 -0.5874  1.0307
  855MOL0     H15425   3.142   2.663   4.617  1.7949  1.3030 -2.2167
  856MOL0     O15426   1.332   6.049   5.932  0.1215  0.0560  0.1726
  856MOL0     C15427   1.404   6.143   5.972  0.2060  0.4543 -0.1403
  856MOL0     O15428   1.366   6.280   5.980 -0.5598  0.0807  0.2015
  856MOL0     C15429   1.242   6.302   5.919 -0.2982 -0.6473  0.3748
  856MOL0     C15430   1.125   6.272   5.986  0.7512 -0.8353  0.3407
  856MOL0     C15431   0.995   6.301   5.934  0.6142 -0.7019  0.1884
  856MOL0     C15432   0.992   6.359   5.806  1.3072  0.7636 -0.2796
  856MOL0     O15433   0.866   6.402   5.773 -0.2882 -0.7414 -0.1064
  856MOL0     C15434   0.845   6.463   5.647  0.4995 -0.7526  0.4590
  856MOL0     C15435   0.704   6.507   5.638  0.1053  0.1959 -0.7055
  856MOL0     C15436   0.662   6.505   5.494 -0.6168  0.2566  0.3137
  856MOL0     C15437   0.529   6.573   5.469  0.3610 -0.5094 -0.5927
  856MOL0     C15438   0.410   6.555   5.578 -0.1396  0.5829  0.1109
  856MOL0     C15439   0.279   6.612   5.517 -0.3173 -0.2455  0.1974
  856MOL0     C15440   0.284   6.762   5.474  0.3921 -0.9426  0.0619
  856MOL0     C15441   0.142   6.828   5.478 -0.4079  0.4630  0.7342
  856MOL0     N15442   0.051   6.758   5.384 -0.0550  0.7176 -0.3681
  856MOL0     C15443   0.051   6.774   5.254  0.1089 -0.5225  0.8963
  856MOL0     C15444  -0.042   6.688   5.214  0.2324  0.0150  0.1008
  856MOL0     C15445  -0.084   6.667   5.067  0.0962  0.4420  0.4188
  856MOL0     C15446  -0.173   6.548   5.052 -0.0787  0.4478  0.3377
  856MOL0     C15447  -0.314   6.576   5.105 -0.5908  1.1227  0.5109
  856MOL0     C15448  -0.374   6.443   5.090  1.1090  0.5090 -0.8829
  856MOL0     O15449  -0.514   6.457   5.065  0.2434  0.5297 -0.1901
  856MOL0     C15450  -0.594   6.336   5.062 -0.4722 -0.0476 -0.0297
  856MOL0     C15451  -0.564   6.206   5.102  0.1391 -0.0976  0.0038
  856MOL0     C15452  -0.660   6.098   5.094 -0.0152  0.3393 -0.0735
  856MOL0     C15453  -0.619   5.951   5.124  0.3260  0.1266  0.2201
  856MOL0     C15454  -0.791   6.132   5.047 -0.2697 -0.1932 -0.1986
  856MOL0     C15455  -0.905   6.035   5.057  0.6188  0.6015  0.0120
  856MOL0     O15456  -0.892   5.934   5.151  0.2102 -0.3335 -0.2470
  856MOL0     C15457  -0.978   5.834   5.164 -0.1627 -0.2570 -0.4752
  856MOL0     C15458  -1.107   5.826   5.119  0.2786  0.4250  0.0522
  856MOL0     C15459  -1.180   5.705   5.126 -0.0631  0.1151  0.0568
  856MOL0     C15460  -1.131   5.584   5.180 -0.6701 -0.4566  0.3868
  856MOL0     O15461  -1.186   5.459   5.170 -0.5185 -0.1974  0.6601
  856MOL0     C15462  -1.319   5.455   5.116  1.2784  0.8598 -0.5044
  856MOL0     C15463  -1.382   5.313   5.145 -0.5978  0.6914  0.0450
  856MOL0     C15464  -1.534   5.299   5.101  0.3537 -0.5170  0.0914
  856MOL0     C15465  -1.580   5.149   5.128  0.4971  0.4958  0.3314
  856MOL0     C15466  -1.720   5.119   5.070 -0.1218 -1.0951 -0.4351
  856MOL0     C15467  -1.831   5.168   5.170  0.3159 -0.7138 -0.0972
  856MOL0     C15468  -1.979   5.144   5.132  0.3938  0.8572 -0.2562
  856MOL0     C15469  -2.031   5.255   5.053 -0.1380  0.5504  0.4695
  856MOL0    Cl15470  -2.065   5.391   5.167 -0.9536  0.0041 -0.2673
  856MOL0     C15471  -0.995   5.599   5.220  1.0565  1.2248  0.7609
  856MOL0     C15472  -0.925   5.717   5.223  0.5197 -0.5479 -0.2945
  856MOL0     O15473  -0.989   6.046   4.968  0.1832  0.0828 -0.6060
  856MOL0     C15474  -0.815   6.264   5.003 -0.1309  0.4914 -0.3413
  856MOL0     C15475  -0.719   6.363   5.016 -0.6889  0.2104  0.4222
  856MOL0     N15476  -0.087   6.618   5.328 -0.1105  0.2436  1.2565
  856MOL0     N15477  -0.028   6.660   5.430  0.0796  0.1722  0.1432
  856MOL0     C15478   1.116   6.390   5.738 -0.1781 -0.1966  0.0234
  856MOL0     C15479   1.237   6.365   5.791  1.6107  0.6201 -0.0105
  856MOL0     C15480   1.532   6.106   6.031 -0.0496 -1.6208 -0.1107
  856MOL0     C15481   1.633   6.199   6.061 -0.1098 -0.3056 -0.1167
  856MOL0     C15482   1.749   6.167   6.130 -0.4533  0.1146 -0.1198
  856MOL0     C15483   1.771   6.032   6.161 -0.0384  0.4517 -0.6135
  856MOL0     O15484   1.887   6.005   6.232 -0.0844  0.8288 -0.0145
  856MOL0     C15485   1.910   5.868   6.268  0.0016  0.3789 -0.9235
  856MOL0     C15486   2.032   5.846   6.366 -1.5396 -0.3669 -0.4923
  856MOL0     C15487   2.085   5.706   6.370  0.0832  0.5398  0.8308
  856MOL0     C15488   2.196   5.688   6.472  0.0004 -0.2701  0.4913
  856MOL0     C15489   2.146   5.691   6.613 -0.0848 -0.3797 -0.0060
  856MOL0     C15490   2.098   5.716   6.723 -0.8240 -1.0068  0.6860
  856MOL0     C15491   1.678   5.934   6.118 -0.3105 -0.2672 -0.3007
  856MOL0     C15492   1.559   5.975   6.054 -0.1343  0.8369  0.1918
  856MOL0     H15493   1.130   6.233   6.087 -1.3841  2.4186  1.8641
  856MOL0     H15494   0.904   6.269   5.984  1.0161  1.1617  2.2535
  856MOL0     H15495   0.896   6.560   5.641  1.1431 -1.1548 -0.9008
  856MOL0     H15496   0.869   6.386   5.574 -1.5929 -4.8084  3.6506
  856MOL0     H15497   0.647   6.443   5.706  4.0994 -1.9359  0.9920
  856MOL0     H15498   0.693   6.612   5.668  0.9399  0.4512 -1.2501
  856MOL0     H15499   0.738   6.557   5.434 -0.9266 -0.1224 -0.4263
  856MOL0     H15500   0.659   6.402   5.459 -0.2908  0.8258 -1.5189
  856MOL0     H15501   0.549   6.680   5.465  0.9262 -0.5912 -0.0154
  856MOL0     H15502   0.492   6.534   5.374 -2.3092 -1.4790  0.7563
  856MOL0     H15503   0.397   6.449   5.601 -0.4041  1.0167  2.1114
  856MOL0     H15504   0.443   6.601   5.671  0.4487 -1.1065  0.7670
  856MOL0     H15505   0.251   6.546   5.434  0.4830  1.3530 -1.3759
  856MOL0     H15506   0.200   6.607   5.593 -1.8734 -0.3769 -1.3694
  856MOL0     H15507   0.340   6.826   5.542 -4.7847  3.7601  0.6241
  856MOL0     H15508   0.330   6.764   5.375 -1.4347 -1.6976 -0.8669
  856MOL0     H15509   0.154   6.935   5.458  0.4599  0.1834 -0.3753
  856MOL0     H15510   0.105   6.831   5.581  2.3028 -0.9089  1.8478
  856MOL0     H15511   0.096   6.842   5.181  2.4683 -0.4881  2.2594
  856MOL0     H15512  -0.133   6.757   5.029  2.4613  1.4784 -0.3497
  856MOL0     H15513   0.004   6.654   5.003 -0.4313 -1.7760  0.0718
  856MOL0     H15514  -0.126   6.466   5.107 -0.5025 -1.0937 -1.5039
  856MOL0     H15515  -0.170   6.515   4.948  3.5917 -1.9485  1.0039
  856MOL0     H15516  -0.362   6.653   5.043 -1.1953  1.5411  1.4770
  856MOL0     H15517  -0.313   6.607   5.210  1.0083 -0.5781  1.0451
  856MOL0     H15518  -0.355   6.388   5.182  1.3746 -0.7816 -1.6905
  856MOL0     H15519  -0.329   6.381   5.011 -0.9213 -1.3390 -0.6675
  856MOL0     H15520  -0.464   6.197   5.142 -0.9119  0.8321  3.1577
  856MOL0     H15521  -0.513   5.942   5.099  1.1423  4.3885  1.3068
  856MOL0     H15522  -0.634   5.917   5.227  2.1522 -3.2750 -0.4928
  856MOL0     H15523  -0.669   5.889   5.049  2.4059  0.0761 -1.2112
  856MOL0     H15524  -1.153   5.910   5.069 -2.2570 -1.4686 -1.0022
  856MOL0     H15525  -1.281   5.710   5.088  0.8296 -3.3672 -3.4172
  856MOL0     H15526  -1.380   5.532   5.165 -1.4946 -0.5821 -1.5001
  856MOL0     H15527  -1.322   5.465   5.007  1.2405 -2.4501 -0.9190
  856MOL0     H15528  -1.323   5.248   5.079 -1.2905  1.5226 -1.4645
  856MOL0     H15529  -1.375   5.295   5.252 -0.0789  2.6257  0.3674
  856MOL0     H15530  -1.551   5.327   4.997  0.3271  2.2506  0.7592
  856MOL0     H15531  -1.589   5.376   5.156 -2.8378 -0.6858 -2.5778
  856MOL0     H15532  -1.514   5.093   5.061  0.3347  1.9546 -1.1203
  856MOL0     H15533  -1.569   5.111   5.230 -0.1935  1.4572  0.7724
  856MOL0     H15534  -1.739   5.015   5.042  0.4243 -1.8195  1.7214
  856MOL0     H15535  -1.728   5.187   4.984 -3.1205  1.5712  1.7080
  856MOL0     H15536  -1.822   5.104   5.258 -2.0049 -0.8485  0.0926
  856MOL0     H15537  -1.814   5.273   5.192 -2.3596  0.2228 -1.9797
  856MOL0     H15538  -2.035   5.142   5.227  0.0526  3.9309 -0.3163
  856MOL0     H15539  -1.995   5.049   5.079 -1.3970  1.0376 -0.1210
  856MOL0     H15540  -2.121   5.227   4.996  0.2839  0.2094 -0.0373
  856MOL0     H15541  -1.961   5.284   4.974 -0.6763  0.3892 -0.0742
  856MOL0     H15542  -0.937   5.513   5.251  0.5402  0.4955 -0.2252
  856MOL0     H15543  -0.820   5.716   5.251  0.4640  1.6084  0.1423
  856MOL0     H15544  -0.912   6.296   4.966 -0.0908  0.6058 -0.3500
  856MOL0     H15545  -0.732   6.466   4.984  0.0039 -0.2342 -1.3758
  856MOL0     H15546   1.109   6.432   5.639 -1.7127  0.5312  0.4068
  856MOL0     H15547   1.323   6.399   5.735 -0.5815  1.8053 -2.9076
  856MOL0     H15548   1.600   6.301   6.043 -0.7378 -0.3811  0.5967
  856MOL0     H15549   1.816   6.248   6.156  0.2966 -0.6654  0.4066
  856MOL0     H15550   1.825   5.834   6.328  0.3955  4.0669  2.1030
  856MOL0     H15551   1.920   5.814   6.174  0.6388  2.1984 -1.9405
  856MOL0     H15552   2.004   5.888   6.463 -1.1652 -1.6667  0.1891
  856MOL0     H15553   2.113   5.913   6.337 -0.4878 -0.2932  2.2788
  856MOL0     H15554   2.129   5.676   6.274  0.1450  0.1332  0.9851
  856MOL0     H15555   2.008   5.632   6.392  0.5734  0.4210  2.2216
  856MOL0     H15556   2.271   5.767   6.467  1.5393 -1.7446 -1.2870
  856MOL0     H15557   2.246   5.592   6.454 -2.4886 -1.4102 -0.8154
  856MOL0     H15558   2.046   5.737   6.815 -0.0684 -1.0849  1.1395
  856MOL0     H15559   1.696   5.827   6.119  3.3147  0.1643 -2.5572
  856MOL0     H15560   1.485   5.896   6.045 -1.3740  1.5584  2.9472
  857MOL0     O15561  11.244   2.555   4.256  0.8854  0.7550  0.0538
  857MOL0     C15562  11.231   2.601   4.371  0.0177 -0.3834  0.9410
  857MOL0     O15563  11.142   2.566   4.464 -0.2719  0.1979 -0.4200
  857MOL0     C15564  11.039   2.481   4.422 -0.6210 -0.0402  0.3659
  857MOL0     C15565  10.979   2.474   4.295 -0.3612  0.4111 -0.2168
  857MOL0     C15566  10.882   2.378   4.260 -0.6293  0.3403 -0.7746
  857MOL0     C15567  10.829   2.288   4.358  0.0154 -0.2933 -0.2693
  857MOL0     O15568  10.737   2.204   4.312 -0.5682 -0.5030  0.3893
  857MOL0     C15569  10.682   2.088   4.382  0.6179  0.9558  0.7031
  857MOL0     C15570  10.586   2.135   4.480  0.1006 -0.1281 -0.4253
  857MOL0     C15571  10.446   2.158   4.415 -1.0685  0.9567 -0.0998
  857MOL0     C15572  10.338   2.144   4.520 -0.0665 -0.7256  0.6706
  857MOL0     C15573  10.201   2.174   4.455 -0.4371 -0.3357 -0.7634
  857MOL0     C15574  10.096   2.146   4.569  0.1823  0.4655 -0.3752
  857MOL0     C15575   9.963   2.166   4.507 -0.3232  0.4531  0.4019
  857MOL0     C15576   9.851   2.152   4.610  0.0373 -0.5385 -0.0913
  857MOL0     N15577   9.721   2.180   4.553  0.1525 -0.7508  0.6456
  857MOL0     C15578   9.626   2.095   4.515  0.2741  0.0937 -0.1701
  857MOL0     C15579   9.521   2.170   4.475 -0.1829  0.1871  0.1746
  857MOL0     C15580   9.385   2.111   4.433  0.1337 -0.5166  0.1118
  857MOL0     C15581   9.321   2.186   4.313  0.9895 -0.1430 -0.0092
  857MOL0     C15582   9.225   2.106   4.226  0.1893  0.0176  0.4501
  857MOL0     C15583   9.130   2.012   4.302 -0.2119 -0.0746 -0.1284
  857MOL0     O15584   9.039   2.089   4.393  0.5333  0.3166 -0.4099
  857MOL0     C15585   8.919   2.133   4.344 -0.4252 -0.7690 -0.2445
  857MOL0     C15586   8.834   2.050   4.272  0.5260 -0.2435  0.7849
  857MOL0     C15587   8.704   2.103   4.230 -0.7171  0.4899  0.4338
  857MOL0     C15588   8.631   2.002   4.141  0.3270  0.0246 -0.6124
  857MOL0     C15589   8.672   2.232   4.263  0.0655 -0.2702 -0.4901
  857MOL0     C15590   8.541   2.298   4.251 -0.0175  0.2114  0.1789
  857MOL0     O15591   8.525   2.423   4.304  0.0472 -1.6251  0.0314
  857MOL0     C15592   8.407   2.491   4.285 -0.8974 -0.3038  0.3867
  857MOL0     C15593   8.337   2.529   4.395 -0.2853 -0.7131 -0.8764
  857MOL0     C15594   8.211   2.585   4.374  0.1317  0.0998 -0.4434
  857MOL0     C15595   8.160   2.608   4.247  1.2189 -0.9949 -0.9878
  857MOL0     O15596   8.029   2.661   4.247  0.3320  0.0732  0.6672
  857MOL0     C15597   7.951   2.648   4.129 -0.5504  0.1523  0.2612
  857MOL0     C15598   7.808   2.630   4.173  0.1152  0.9241  0.2245
  857MOL0     C15599   7.751   2.753   4.240  0.2119 -0.1878 -0.4326
  857MOL0     C15600   7.603   2.748   4.281  0.1172 -0.5784  0.0637
  857MOL0     C15601   7.555   2.891   4.332 -0.4416  0.3564  0.9816
  857MOL0     C15602   7.617   2.943   4.459 -0.9958  0.2936 -0.2157
  857MOL0     C15603   7.541   3.068   4.513  0.4795  0.4350 -0.4631
  857MOL0     C15604   7.490   3.042   4.657  0.2609  0.3663  0.0402
  857MOL0    Cl15605   7.375   2.905   4.663 -0.5277 -0.8649 -0.4872
  857MOL0     C15606   8.238   2.578   4.140  0.4453  0.4382 -0.0129
  857MOL0     C15607   8.365   2.528   4.158 -0.2240 -0.0694  0.2312
  857MOL0     O15608   8.447   2.232   4.200 -0.5618 -0.1932 -0.0329
  857MOL0     C15609   8.765   2.314   4.334 -0.2243 -0.0447 -0.1334
  857MOL0     C15610   8.891   2.268   4.375 -0.8602 -0.3060 -0.2339
  857MOL0     N15611   9.558   2.301   4.478 -0.6504  0.1389  0.7047
  857MOL0     N15612   9.680   2.306   4.521 -0.1614  0.9920 -0.4890
  857MOL0     C15613  10.885   2.293   4.487  0.7949 -0.2198 -0.1961
  857MOL0     C15614  10.985   2.388   4.515  0.0170 -0.2871  0.0324
  857MOL0     C15615  11.326   2.704   4.410 -0.1050  0.3355  0.7715
  857MOL0     C15616  11.422   2.745   4.320 -0.6014 -0.0736  0.6967
  857MOL0     C15617  11.512   2.849   4.344 -0.3858 -0.1284 -0.8235
  857MOL0     C15618  11.495   2.919   4.457  0.2190  0.5057  0.3959
  857MOL0     O15619  11.579   3.014   4.502 -0.2133  0.3081 -0.2880
  857MOL0     C15620  11.644   3.097   4.395  0.0666  0.4932 -0.2155
  857MOL0     C15621  11.682   3.220   4.476 -0.2799 -0.7330  1.0680
  857MOL0     C15622  11.761   3.313   4.371 -0.0978 -0.0943  0.3568
  857MOL0     C15623  11.686   3.388   4.255 -0.2064  1.3085 -0.0863
  857MOL0     C15624  11.574   3.468   4.300 -0.5204  0.2479  0.3340
  857MOL0     C15625  11.469   3.499   4.360 -0.2720 -0.6298  0.5708
  857MOL0     C15626  11.405   2.876   4.555 -0.3483 -0.1474 -0.6915
  857MOL0     C15627  11.322   2.770   4.528 -0.1693  0.3508  0.4791
  857MOL0     H15628  10.998   2.557   4.227  1.3960  1.1664  1.1029
  857MOL0     H15629  10.842   2.383   4.160  1.7065 -1.4624 -1.9103
  857MOL0     H15630  10.638   2.019   4.310 -0.0174  3.7337 -1.7416
  857MOL0     H15631  10.761   2.039   4.441  0.8755  1.7444  1.0352
  857MOL0     H15632  10.579   2.054   4.553  0.2236 -0.1672 -0.4563
  857MOL0     H15633  10.618   2.227   4.529 -2.7251  0.7575 -0.1287
  857MOL0     H15634  10.451   2.261   4.379 -1.2942  0.8099 -0.5553
  857MOL0     H15635  10.431   2.088   4.332  2.0322  1.5320 -1.2743
  857MOL0     H15636  10.336   2.039   4.549 -1.2191 -0.9164 -0.0425
  857MOL0     H15637  10.343   2.215   4.604 -1.0042  0.3095 -0.1127
  857MOL0     H15638  10.201   2.277   4.416  0.8078  0.3154  0.8313
  857MOL0     H15639  10.185   2.098   4.378 -1.0558 -0.1369 -0.8454
  857MOL0     H15640  10.109   2.046   4.613  1.0565  0.6821 -0.1232
  857MOL0     H15641  10.113   2.223   4.645  1.6089 -0.0362 -0.1554
  857MOL0     H15642   9.968   2.269   4.469  2.0264  0.0602 -0.5844
  857MOL0     H15643   9.937   2.095   4.427 -0.0053  0.7386  0.0359
  857MOL0     H15644   9.874   2.215   4.696  0.5077 -0.1518 -0.4902
  857MOL0     H15645   9.846   2.047   4.643 -1.9418 -0.9839 -1.6101
  857MOL0     H15646   9.629   1.987   4.526 -3.6101 -0.2790 -1.1185
  857MOL0     H15647   9.402   2.009   4.397  1.1459 -1.4642  2.9512
  857MOL0     H15648   9.325   2.115   4.524  2.8923  1.8167  2.0214
  857MOL0     H15649   9.399   2.240   4.260  0.1553  2.5265  1.3088
  857MOL0     H15650   9.261   2.264   4.361  1.2770  0.5667 -0.7736
  857MOL0     H15651   9.291   2.051   4.157  0.2127 -1.5061  1.6245
  857MOL0     H15652   9.173   2.186   4.173  1.6289  0.7991  0.1524
  857MOL0     H15653   9.189   1.946   4.366 -0.6163 -1.0461 -0.7297
  857MOL0     H15654   9.079   1.940   4.237 -2.7133 -1.6200  3.2326
  857MOL0     H15655   8.858   1.946   4.251 -1.3137 -0.9560  1.9514
  857MOL0     H15656   8.534   1.998   4.191  2.0863  3.2902  3.6987
  857MOL0     H15657   8.611   2.045   4.042  0.6157  3.1068  0.5698
  857MOL0     H15658   8.678   1.903   4.135  1.5889  0.3580  2.3730
  857MOL0     H15659   8.366   2.519   4.499 -1.1606  0.8733 -0.4457
  857MOL0     H15660   8.151   2.589   4.464  1.2432 -1.1505  0.3991
  857MOL0     H15661   7.959   2.732   4.060  1.5744 -0.4961 -0.3354
  857MOL0     H15662   7.974   2.555   4.075  1.5265  0.4677  0.5601
  857MOL0     H15663   7.748   2.599   4.087  1.2008  0.8191 -0.5176
  857MOL0     H15664   7.803   2.555   4.251  0.4711 -2.2762 -2.6036
  857MOL0     H15665   7.767   2.833   4.167  0.5969  1.9472  1.8212
  857MOL0     H15666   7.824   2.762   4.321  1.7143 -1.0505 -1.6377
  857MOL0     H15667   7.549   2.724   4.189 -0.0818 -2.7210  0.6814
  857MOL0     H15668   7.582   2.678   4.363 -0.5350 -0.4087  0.0494
  857MOL0     H15669   7.446   2.887   4.344 -0.6622  1.3359 -0.3945
  857MOL0     H15670   7.560   2.965   4.252  0.4211  0.8983  1.5209
  857MOL0     H15671   7.608   2.868   4.538  1.0450  2.2523  2.0852
  857MOL0     H15672   7.725   2.958   4.451 -0.9510 -0.1292 -0.4087
  857MOL0     H15673   7.450   3.091   4.457 -0.9823 -1.1666  1.1540
  857MOL0     H15674   7.612   3.150   4.526  1.2131 -0.3866  0.9884
  857MOL0     H15675   7.449   3.137   4.694  1.2277  0.4477  0.9758
  857MOL0     H15676   7.579   3.025   4.719  0.0865  0.5203  0.3352
  857MOL0     H15677   8.199   2.592   4.040  1.4139  0.9673 -0.3276
  857MOL0     H15678   8.425   2.507   4.069 -2.8434 -0.9421 -1.4349
  857MOL0     H15679   8.745   2.419   4.354 -0.9255  0.4429 -2.9791
  857MOL0     H15680   8.959   2.330   4.433  1.6239 -0.3311 -2.8594
  857MOL0     H15681  10.860   2.213   4.555 -1.0194  1.6562  1.5031
  857MOL0     H15682  11.030   2.399   4.613 -0.3999 -2.9422  0.5808
  857MOL0     H15683  11.429   2.697   4.223 -0.3995  0.1824  0.5841
  857MOL0     H15684  11.596   2.869   4.278  2.8645 -2.4658  2.1973
  857MOL0     H15685  11.727   3.048   4.343 -0.9994 -0.7402 -0.8214
  857MOL0     H15686  11.562   3.130   4.329 -2.5605  3.1191  3.9109
  857MOL0     H15687  11.753   3.185   4.551  0.4846  0.4631  0.9256
  857MOL0     H15688  11.604   3.274   4.530  0.3827 -1.4411  2.8258
  857MOL0     H15689  11.845   3.262   4.321 -0.1479  0.7060 -0.5744
  857MOL0     H15690  11.820   3.386   4.427  0.5893  0.2782 -0.8225
  857MOL0     H15691  11.651   3.314   4.182  1.1154  0.8888 -0.3318
  857MOL0     H15692  11.770   3.444   4.212  2.0141 -0.6195  1.4713
  857MOL0     H15693  11.380   3.528   4.413 -1.2156 -2.4829  0.0698
  857MOL0     H15694  11.397   2.924   4.652 -0.8238 -1.5075 -0.0422
  857MOL0     H15695  11.247   2.752   4.605 -2.1748 -1.1709 -1.7203
  858MOL0     O15696  10.611   0.614   1.938  0.4152 -0.5788  0.3650
  858MOL0     C15697  10.660   0.509   1.978 -0.0392  0.3649 -0.0712
  858MOL0     O15698  10.591   0.406   2.050  0.4398  0.1954 -0.0765
  858MOL0     C15699  10.463   0.428   2.084 -0.9559 -0.3006 -0.6377
  858MOL0     C15700  10.361   0.342   2.041 -0.6095  0.1975 -0.4551
  858MOL0     C15701  10.233   0.358   2.081  0.5819  0.6156  0.5174
  858MOL0     C15702  10.193   0.461   2.161 -0.0332  0.6598  0.5869
  858MOL0     O15703  10.061   0.464   2.192 -0.2138 -0.5762 -0.0970
  858MOL0     C15704   9.998   0.598   2.208  0.0557 -0.0000 -0.5447
  858MOL0     C15705   9.984   0.660   2.068 -0.2736 -0.2186 -0.1079
  858MOL0     C15706   9.870   0.599   1.988 -0.0199  1.2068  0.2993
  858MOL0     C15707   9.841   0.675   1.854  0.1145  0.0415  0.2567
  858MOL0     C15708   9.771   0.804   1.886 -1.0754 -0.4426 -0.1072
  858MOL0     C15709   9.754   0.894   1.761 -0.1788  0.7782  0.4177
  858MOL0     C15710   9.667   1.012   1.812 -0.2624 -0.0241  0.0318
  858MOL0     C15711   9.604   1.106   1.705 -0.6944  0.7210 -0.4862
  858MOL0     N15712   9.474   1.060   1.639  0.2597 -0.2806 -0.2867
  858MOL0     C15713   9.374   1.018   1.722 -0.0459  0.1339  0.7722
  858MOL0     C15714   9.271   0.984   1.624 -0.4112  0.1195 -0.3827
  858MOL0     C15715   9.134   0.941   1.652 -0.7249  0.6660 -0.7046
  858MOL0     C15716   9.108   0.795   1.608  0.6950  0.2003  0.1299
  858MOL0     C15717   8.970   0.739   1.663  0.4240  0.4804 -0.6860
  858MOL0     C15718   8.962   0.589   1.641  0.5819 -0.2206 -0.7787
  858MOL0     O15719   8.823   0.565   1.647  0.0997 -0.1289 -0.4167
  858MOL0     C15720   8.781   0.436   1.638 -0.0110  0.2212  0.9188
  858MOL0     C15721   8.657   0.397   1.678 -0.0565 -0.1405 -0.3841
  858MOL0     C15722   8.610   0.267   1.686  0.3478  0.1724  0.1620
  858MOL0     C15723   8.469   0.242   1.721  0.2527  0.2200 -0.2553
  858MOL0     C15724   8.704   0.166   1.664 -0.4444 -0.2651 -0.4580
  858MOL0     C15725   8.665   0.022   1.661  0.1275  0.1983 -0.4168
  858MOL0     O15726   8.731  -0.065   1.580  0.4846  0.3472 -0.3653
  858MOL0     C15727   8.683  -0.189   1.550 -0.4585 -0.1269 -0.3340
  858MOL0     C15728   8.554  -0.197   1.486  0.4089 -0.7753 -0.0497
  858MOL0     C15729   8.497  -0.322   1.464 -0.4060  0.1568 -0.4505
  858MOL0     C15730   8.570  -0.440   1.494  1.1099 -0.7234  0.2202
  858MOL0     O15731   8.508  -0.556   1.470  0.3513 -0.0434  0.2204
  858MOL0     C15732   8.534  -0.662   1.563  0.2683 -0.3263  0.4942
  858MOL0     C15733   8.429  -0.780   1.547 -0.0913  0.4226 -0.5930
  858MOL0     C15734   8.282  -0.754   1.574  0.3630 -0.4647  0.4837
  858MOL0     C15735   8.186  -0.861   1.520 -0.3887  0.6971  0.5810
  858MOL0     C15736   8.043  -0.831   1.560  0.3768  0.1099 -0.1063
  858MOL0     C15737   7.948  -0.959   1.568  0.3047  0.7903  0.4036
  858MOL0     C15738   7.808  -0.928   1.620  0.2774 -0.5750 -0.0654
  858MOL0     C15739   7.805  -0.889   1.766  0.0273  0.2602 -0.4888
  858MOL0    Cl15740   7.638  -0.845   1.821  0.3099 -0.1397  0.1532
  858MOL0     C15741   8.704  -0.434   1.546  0.5178  0.1451 -0.3030
  858MOL0     C15742   8.751  -0.312   1.577 -0.4643 -0.4477 -0.2738
  858MOL0     O15743   8.572  -0.008   1.734 -0.8385  0.2358 -0.3253
  858MOL0     C15744   8.836   0.198   1.617  0.0036 -0.5401  0.4902
  858MOL0     C15745   8.870   0.330   1.605  0.0529  0.1988 -0.3152
  858MOL0     N15746   9.319   1.011   1.500  0.2589  0.1789  0.5664
  858MOL0     N15747   9.438   1.060   1.506 -0.2005  0.2261 -0.1603
  858MOL0     C15748  10.286   0.558   2.196  0.0869  0.2289 -0.3081
  858MOL0     C15749  10.426   0.542   2.165 -0.7386  0.5672  0.8692
  858MOL0     C15750  10.803   0.488   1.978  0.5415 -0.1528 -1.0740
  858MOL0     C15751  10.889   0.555   1.885  0.8320  0.2275  0.5459
  858MOL0     C15752  11.023   0.536   1.882  0.0266 -0.2225 -0.7831
  858MOL0     C15753  11.079   0.445   1.973 -0.0824 -0.8739  0.0131
  858MOL0     O15754  11.212   0.417   1.985  0.4903  0.4258  0.3007
  858MOL0     C15755  11.314   0.501   1.923  0.3235 -0.8960  0.6714
  858MOL0     C15756  11.454   0.477   1.978  0.1984 -0.5945 -0.1486
  858MOL0     C15757  11.477   0.326   1.955 -0.6147  0.3176  0.6635
  858MOL0     C15758  11.623   0.288   1.975 -0.4739 -0.1328 -0.1816
  858MOL0     C15759  11.715   0.363   1.890  0.6050 -0.4099 -0.5096
  858MOL0     C15760  11.781   0.426   1.809  0.3927 -0.3201 -0.0779
  858MOL0     C15761  10.995   0.372   2.058 -1.1367 -0.7262 -0.1742
  858MOL0     C15762  10.860   0.388   2.065 -0.3193  0.3915 -0.4379
  858MOL0     H15763  10.395   0.259   1.979 -0.1543 -1.0029  1.3120
  858MOL0     H15764  10.160   0.284   2.051 -0.9263  2.8968 -1.7902
  858MOL0     H15765   9.897   0.593   2.251  0.5108 -0.7492  0.4516
  858MOL0     H15766  10.058   0.670   2.265  1.0316 -0.9155 -0.4017
  858MOL0     H15767   9.950   0.761   2.094  1.2181 -0.1237  1.6439
  858MOL0     H15768  10.082   0.657   2.019  0.5093  1.4357  1.2571
  858MOL0     H15769   9.890   0.495   1.961  1.2253  1.9135 -1.6844
  858MOL0     H15770   9.772   0.604   2.037 -1.0242 -1.4178 -1.2507
  858MOL0     H15771   9.921   0.679   1.779  1.3136 -1.3219  1.4152
  858MOL0     H15772   9.764   0.618   1.801  0.2267 -0.0984  0.2453
  858MOL0     H15773   9.669   0.780   1.915 -2.0135 -0.6311 -3.2290
  858MOL0     H15774   9.820   0.862   1.965  1.0974 -0.6276 -1.2440
  858MOL0     H15775   9.850   0.925   1.719  0.0258  0.4663  0.6508
  858MOL0     H15776   9.698   0.837   1.687  0.8390 -1.2130  1.1245
  858MOL0     H15777   9.595   0.974   1.886  2.1313 -3.8023  0.7092
  858MOL0     H15778   9.738   1.075   1.867  1.0952 -0.4796 -1.1499
  858MOL0     H15779   9.685   1.106   1.632  0.1772 -1.3647  0.3987
  858MOL0     H15780   9.587   1.204   1.751 -0.3663  0.5906 -0.0770
  858MOL0     H15781   9.360   1.021   1.829  0.8146  2.7800  0.8867
  858MOL0     H15782   9.109   0.957   1.757  1.2445 -1.2632  0.1484
  858MOL0     H15783   9.066   1.003   1.593  1.1526  0.5992 -3.0912
  858MOL0     H15784   9.191   0.732   1.642  0.4448  1.3201  3.1972
  858MOL0     H15785   9.106   0.776   1.501  0.6466 -1.9924  0.4727
  858MOL0     H15786   8.882   0.782   1.614 -1.4268 -0.3465  1.7117
  858MOL0     H15787   8.960   0.763   1.769 -0.0527 -0.1041 -0.5929
  858MOL0     H15788   9.018   0.549   1.726  1.3789  0.9631 -0.7093
  858MOL0     H15789   9.002   0.556   1.546 -0.1041  2.6841 -2.2080
  858MOL0     H15790   8.583   0.474   1.697 -4.2582 -3.9227  0.3724
  858MOL0     H15791   8.409   0.333   1.726  1.1152  1.3643 -5.2831
  858MOL0     H15792   8.422   0.174   1.650 -1.8800  1.5545 -0.2024
  858MOL0     H15793   8.466   0.194   1.819  0.1188 -0.8018 -0.7520
  858MOL0     H15794   8.500  -0.104   1.471  0.1840 -0.7577  0.7715
  858MOL0     H15795   8.390  -0.328   1.449 -0.6115 -0.7480  1.1860
  858MOL0     H15796   8.634  -0.696   1.534 -0.1877  1.3562 -3.9423
  858MOL0     H15797   8.541  -0.625   1.665 -1.1039 -0.4342  0.6546
  858MOL0     H15798   8.435  -0.809   1.442 -0.7267 -0.1359 -0.4791
  858MOL0     H15799   8.458  -0.867   1.606 -0.8256 -1.6079 -3.0790
  858MOL0     H15800   8.253  -0.661   1.524  0.4121 -1.2881 -1.1415
  858MOL0     H15801   8.270  -0.734   1.681  1.1996 -1.5728  0.8011
  858MOL0     H15802   8.181  -0.852   1.411 -0.6496  2.5102  0.7069
  858MOL0     H15803   8.220  -0.959   1.554 -0.8876  0.6621  0.9954
  858MOL0     H15804   7.994  -0.762   1.491 -0.3139 -1.0701 -0.8290
  858MOL0     H15805   8.040  -0.772   1.652 -1.4521  2.5418 -1.6106
  858MOL0     H15806   7.937  -0.997   1.466 -0.1737  0.4069  0.5916
  858MOL0     H15807   7.989  -1.039   1.631  0.9631  0.6563 -0.1908
  858MOL0     H15808   7.747  -1.019   1.612  0.2368 -0.6096  0.5812
  858MOL0     H15809   7.762  -0.853   1.555 -1.3499  0.1955  1.8495
  858MOL0     H15810   7.862  -0.797   1.782 -0.6628  0.3861  1.5718
  858MOL0     H15811   7.861  -0.959   1.830  1.0989  1.4149 -0.1274
  858MOL0     H15812   8.774  -0.517   1.553 -0.4045 -0.5344  1.2645
  858MOL0     H15813   8.837  -0.303   1.642 -1.2492 -3.0881  1.2811
  858MOL0     H15814   8.917   0.132   1.587  2.3234  1.7846  1.2235
  858MOL0     H15815   8.972   0.353   1.574  0.2221  1.1802  0.9095
  858MOL0     H15816  10.269   0.652   2.247  0.9250  0.9841 -1.3645
  858MOL0     H15817  10.506   0.610   2.193  1.6356 -1.1250 -1.3393
  858MOL0     H15818  10.835   0.616   1.813 -2.3910 -1.1520  1.5697
  858MOL0     H15819  11.087   0.588   1.812  1.4914 -0.8365  0.0676
  858MOL0     H15820  11.319   0.479   1.816  1.0317 -0.8266  0.6815
  858MOL0     H15821  11.289   0.606   1.945  1.2761 -0.6056  0.4323
  858MOL0     H15822  11.457   0.496   2.085  0.6221 -0.0247 -0.2555
  858MOL0     H15823  11.531   0.535   1.926  1.6859 -0.9680  1.5710
  858MOL0     H15824  11.453   0.300   1.852 -1.2753  1.6097  0.4622
  858MOL0     H15825  11.418   0.271   2.029 -2.6885  2.2435  0.5771
  858MOL0     H15826  11.638   0.181   1.961 -0.1576 -0.3075  1.3532
  858MOL0     H15827  11.635   0.317   2.080 -1.7450  1.8230 -0.5246
  858MOL0     H15828  11.836   0.488   1.742  0.7150 -0.6771 -0.1434
  858MOL0     H15829  11.052   0.309   2.125 -1.1424  0.3900  0.9254
  858MOL0     H15830  10.794   0.328   2.127  2.6725 -0.1584  2.4753
  859MOL0     O15831   8.303   7.155   9.368 -0.1730 -0.4058 -0.2714
  859MOL0     C15832   8.388   7.064   9.354  0.7121 -0.0037  0.3896
  859MOL0     O15833   8.364   6.928   9.314 -0.3425 -0.7948 -0.0455
  859MOL0     C15834   8.236   6.883   9.276  0.3420  0.3202  0.5143
  859MOL0     C15835   8.246   6.750   9.236  0.0455 -0.1556 -0.2899
  859MOL0     C15836   8.143   6.685   9.184 -0.2065 -0.4075  0.5603
  859MOL0     C15837   8.018   6.754   9.179  0.0159  0.7630  1.1659
  859MOL0     O15838   7.900   6.696   9.129  0.8831 -0.2156  0.0487
  859MOL0     C15839   7.916   6.652   8.991 -0.1251 -0.3466  0.1062
  859MOL0     C15840   7.789   6.586   8.947  0.0316  1.0841  0.3323
  859MOL0     C15841   7.759   6.461   9.028  0.3681 -1.1689  0.6169
  859MOL0     C15842   7.651   6.376   8.961  0.1098  0.0059  0.3419
  859MOL0     C15843   7.544   6.345   9.052  0.6419  0.0731  0.7234
  859MOL0     C15844   7.458   6.244   8.988  0.1545  0.1631  1.1714
  859MOL0     C15845   7.321   6.215   9.049  0.1424  0.3210  0.4924
  859MOL0     C15846   7.237   6.346   9.067 -0.0992  0.1913 -1.3658
  859MOL0     N15847   7.096   6.304   9.080  0.4184  0.2853 -0.4916
  859MOL0     C15848   7.051   6.256   9.200 -0.0959  1.0014 -0.6076
  859MOL0     C15849   6.915   6.245   9.187 -0.2701  0.2626 -0.2127
  859MOL0     C15850   6.812   6.201   9.279  0.0406 -0.6004  0.2815
  859MOL0     C15851   6.829   6.050   9.288  0.5942 -0.2234  0.7877
  859MOL0     C15852   6.743   5.979   9.388  0.0536 -0.1856 -0.1197
  859MOL0     C15853   6.594   5.998   9.383 -0.0275 -0.2669 -1.0093
  859MOL0     O15854   6.544   5.931   9.268 -0.8361  0.1697  0.5773
  859MOL0     C15855   6.413   5.909   9.269  0.5598 -0.4385  0.4494
  859MOL0     C15856   6.357   5.788   9.232 -0.4510 -0.0587  0.4629
  859MOL0     C15857   6.221   5.756   9.243 -0.5456  0.4638 -0.5574
  859MOL0     C15858   6.179   5.620   9.188 -0.2560  0.6699  0.0089
  859MOL0     C15859   6.128   5.858   9.290 -0.0342 -0.4838  0.4852
  859MOL0     C15860   5.980   5.843   9.304  0.1266 -0.6171 -0.7884
  859MOL0     O15861   5.919   5.900   9.410  0.5402  0.4473 -0.5696
  859MOL0     C15862   5.787   5.920   9.399  0.1558  0.0191  0.0438
  859MOL0     C15863   5.700   5.813   9.413 -0.2363  0.9360  0.8304
  859MOL0     C15864   5.564   5.825   9.376 -0.2140 -0.4407 -0.1463
  859MOL0     C15865   5.515   5.953   9.325 -0.5057 -0.6140  0.5995
  859MOL0     O15866   5.387   5.977   9.274  0.0205 -0.3924  0.1681
  859MOL0     C15867   5.307   5.858   9.246 -0.3655 -0.1937 -0.2103
  859MOL0     C15868   5.194   5.903   9.144  0.2418  0.4464 -0.0933
  859MOL0     C15869   5.120   5.784   9.091 -0.3415 -0.3894 -0.3222
  859MOL0     C15870   5.023   5.730   9.196 -0.2479 -0.5326 -0.0633
  859MOL0     C15871   4.946   5.611   9.154  0.6608  0.5340 -0.0345
  859MOL0     C15872   5.028   5.484   9.144 -0.1766 -0.1638 -0.0941
  859MOL0     C15873   4.934   5.369   9.103  0.1644  0.1895 -0.3745
  859MOL0     C15874   5.016   5.243   9.118 -0.9862  0.8535  0.0296
  859MOL0    Cl15875   4.902   5.112   9.145  0.2445 -0.0383 -0.0775
  859MOL0     C15876   5.608   6.058   9.324 -0.0243  0.9392  0.3262
  859MOL0     C15877   5.739   6.042   9.351 -0.0505  1.5491 -0.5324
  859MOL0     O15878   5.927   5.785   9.206 -1.1934 -0.6223 -0.3979
  859MOL0     C15879   6.183   5.985   9.319  0.5145  0.1212  0.3654
  859MOL0     C15880   6.319   6.004   9.314 -1.2266 -0.4094 -0.0094
  859MOL0     N15881   6.882   6.294   9.064 -0.1818  0.4004 -0.8408
  859MOL0     N15882   6.988   6.322   9.003 -1.2119  0.3451 -0.3292
  859MOL0     C15883   8.002   6.878   9.235  0.6520 -0.3902 -0.0745
  859MOL0     C15884   8.110   6.945   9.282  0.8563  0.2351 -0.2056
  859MOL0     C15885   8.525   7.093   9.382 -0.1328 -0.1832 -0.1081
  859MOL0     C15886   8.579   7.223   9.415  0.4978  0.3117  0.5412
  859MOL0     C15887   8.711   7.245   9.457  0.1099  0.4413 -1.2800
  859MOL0     C15888   8.805   7.142   9.457 -0.3586  0.8730  0.7841
  859MOL0     O15889   8.934   7.178   9.487  0.0138  0.1000  0.1229
  859MOL0     C15890   9.033   7.081   9.501 -0.2649 -0.1173 -0.3051
  859MOL0     C15891   9.162   7.147   9.535 -0.2578 -0.7883 -0.7251
  859MOL0     C15892   9.164   7.211   9.670  0.0811 -0.0053 -0.3450
  859MOL0     C15893   9.169   7.098   9.780  0.0935 -0.1547 -0.1791
  859MOL0     C15894   9.174   7.168   9.914  0.6340  0.6643  0.0788
  859MOL0     C15895   9.169   7.225  10.016 -0.3567 -0.3606 -0.5969
  859MOL0     C15896   8.761   7.012   9.430 -0.3823 -0.0106 -0.3397
  859MOL0     C15897   8.623   6.997   9.398  0.0947  0.7379 -0.4937
  859MOL0     H15898   8.348   6.713   9.237  1.4289  3.0465  3.9158
  859MOL0     H15899   8.156   6.582   9.149 -0.1377  0.1239 -1.0605
  859MOL0     H15900   7.934   6.738   8.926  2.3060  0.9217  2.2928
  859MOL0     H15901   7.998   6.580   8.981  0.5400  0.0333  2.3286
  859MOL0     H15902   7.694   6.641   8.951 -1.2499 -0.4549 -3.4524
  859MOL0     H15903   7.788   6.568   8.839  3.0816  2.3224  0.0103
  859MOL0     H15904   7.850   6.404   9.046  0.6443 -0.2278  2.4428
  859MOL0     H15905   7.716   6.498   9.121  0.2168  0.7091 -0.1482
  859MOL0     H15906   7.620   6.428   8.870  2.3767  0.8780 -0.0130
  859MOL0     H15907   7.696   6.281   8.929  1.0616  0.6653 -0.3418
  859MOL0     H15908   7.579   6.294   9.142 -0.2270 -0.6261  0.6764
  859MOL0     H15909   7.489   6.433   9.084  1.0961  0.7902 -0.3692
  859MOL0     H15910   7.435   6.280   8.888  1.4944 -1.9004  0.0422
  859MOL0     H15911   7.517   6.152   8.981  1.3104  0.7927  2.2018
  859MOL0     H15912   7.263   6.149   8.984 -0.2940  0.9606  0.2322
  859MOL0     H15913   7.338   6.161   9.142 -0.2643  0.6077  0.7318
  859MOL0     H15914   7.249   6.410   8.979 -0.6141 -0.0473 -1.6132
  859MOL0     H15915   7.275   6.397   9.156 -2.9651 -0.2290  0.2029
  859MOL0     H15916   7.096   6.220   9.292 -3.3848 -1.7489  0.1342
  859MOL0     H15917   6.835   6.248   9.375  2.8777  1.5513 -1.2847
  859MOL0     H15918   6.710   6.225   9.246  0.6124  0.7248 -0.6141
  859MOL0     H15919   6.931   6.037   9.326  0.7954 -0.6242  0.1143
  859MOL0     H15920   6.821   5.993   9.195  1.5977 -1.4469  1.4130
  859MOL0     H15921   6.771   6.019   9.486 -3.3134  1.7328  0.2275
  859MOL0     H15922   6.768   5.873   9.383 -0.4066 -0.2606 -1.3191
  859MOL0     H15923   6.566   6.104   9.388 -1.0423 -0.5813  0.8982
  859MOL0     H15924   6.555   5.962   9.479  0.0416  1.6851 -0.2015
  859MOL0     H15925   6.422   5.723   9.174  0.9750  1.3623  0.3981
  859MOL0     H15926   6.126   5.568   9.268 -0.8788  1.6866  0.2780
  859MOL0     H15927   6.113   5.631   9.101  0.5266 -0.9155 -0.8293
  859MOL0     H15928   6.263   5.559   9.154  0.4366 -0.8264  3.9150
  859MOL0     H15929   5.744   5.716   9.431  1.3228  0.9381 -2.3221
  859MOL0     H15930   5.505   5.734   9.386  0.1127 -0.5614  0.8180
  859MOL0     H15931   5.364   5.778   9.197 -1.5159 -1.3298  0.2380
  859MOL0     H15932   5.273   5.807   9.337  1.0136 -1.9312 -0.6093
  859MOL0     H15933   5.125   5.981   9.177 -0.3326  0.8697 -2.1818
  859MOL0     H15934   5.247   5.946   9.058 -0.8511  3.1495  0.4867
  859MOL0     H15935   5.174   5.700   9.045 -1.6059 -1.3762 -0.0793
  859MOL0     H15936   5.072   5.821   9.000 -0.8657  1.3008  0.6041
  859MOL0     H15937   5.071   5.708   9.292 -1.1642  0.9329  0.7702
  859MOL0     H15938   4.951   5.806   9.227  0.5109  0.0895  0.1860
  859MOL0     H15939   4.895   5.629   9.059 -0.2546 -3.0118 -0.3426
  859MOL0     H15940   4.865   5.599   9.227  0.3366  2.4309 -0.0339
  859MOL0     H15941   5.108   5.484   9.069 -0.1987 -0.6262 -0.1216
  859MOL0     H15942   5.073   5.456   9.240 -2.0521 -1.2923  0.5093
  859MOL0     H15943   4.893   5.384   9.002  0.3639  2.4518 -0.1583
  859MOL0     H15944   4.853   5.369   9.177  0.8901 -2.7173  0.5582
  859MOL0     H15945   5.080   5.251   9.207 -2.3089 -0.3102  1.1374
  859MOL0     H15946   5.073   5.234   9.025 -3.0360 -2.6346 -1.0846
  859MOL0     H15947   5.570   6.153   9.288 -3.5053  0.5016  2.4173
  859MOL0     H15948   5.803   6.128   9.337  0.4758  1.2935  0.2238
  859MOL0     H15949   6.103   6.051   9.349 -1.3153 -1.3570 -0.9672
  859MOL0     H15950   6.343   6.103   9.350 -2.0802  1.5085 -4.1561
  859MOL0     H15951   7.906   6.929   9.226  0.2696 -1.0323  0.3060
  859MOL0     H15952   8.090   7.047   9.312 -0.9654 -0.0415 -0.3638
  859MOL0     H15953   8.519   7.314   9.410  0.6886  0.5124  1.5541
  859MOL0     H15954   8.737   7.345   9.491  0.2393 -0.3839  1.2447
  859MOL0     H15955   9.008   6.998   9.567 -1.8390 -0.0162 -0.7342
  859MOL0     H15956   9.044   7.031   9.404  0.5422  0.3224 -0.4529
  859MOL0     H15957   9.192   7.233   9.474  3.4359 -1.6946 -0.4596
  859MOL0     H15958   9.234   7.065   9.530 -0.5788 -1.1326  0.1592
  859MOL0     H15959   9.080   7.280   9.683  0.9093  1.0804 -0.6475
  859MOL0     H15960   9.259   7.262   9.689  0.0152 -1.0111  3.6549
  859MOL0     H15961   9.261   7.039   9.769  0.7653  0.6726  0.8082
  859MOL0     H15962   9.077   7.040   9.777  0.5892 -1.1276  1.7077
  859MOL0     H15963   9.172   7.271  10.112  0.8953  0.0549 -0.8152
  859MOL0     H15964   8.823   6.923   9.424  1.6631  1.2065  1.3290
  859MOL0     H15965   8.604   6.893   9.372  1.8450 -0.0148  1.0479
  860MOL0     O15966   0.421   0.834   3.509 -0.2726 -0.3738  0.1938
  860MOL0     C15967   0.435   0.779   3.403 -0.4241  0.0560  0.2380
  860MOL0     O15968   0.358   0.789   3.292 -0.2425 -0.1211 -0.2301
  860MOL0     C15969   0.253   0.873   3.309  0.7903 -0.2165  0.3740
  860MOL0     C15970   0.125   0.846   3.259 -0.5055 -0.3955  0.0206
  860MOL0     C15971   0.030   0.954   3.256 -0.4237  0.3743 -0.5187
  860MOL0     C15972   0.065   1.081   3.289 -0.6205  0.2710 -0.1390
  860MOL0     O15973  -0.006   1.199   3.282  0.4154  0.1547  0.0003
  860MOL0     C15974  -0.134   1.186   3.225  0.1285  0.1985  0.2443
  860MOL0     C15975  -0.215   1.317   3.239 -0.2402 -0.4789  0.1095
  860MOL0     C15976  -0.349   1.308   3.177  0.3175 -0.0164 -0.9356
  860MOL0     C15977  -0.426   1.435   3.184  0.2771  0.0690 -0.9405
  860MOL0     C15978  -0.558   1.445   3.119 -0.1962 -0.3950  0.4880
  860MOL0     C15979  -0.614   1.587   3.099 -0.7652 -0.3937 -0.0461
  860MOL0     C15980  -0.745   1.592   3.024 -0.2551 -0.3911 -0.1035
  860MOL0     C15981  -0.794   1.736   3.019  0.6057 -1.0521  0.7928
  860MOL0     N15982  -0.927   1.743   2.950  0.3095  0.0333  0.3428
  860MOL0     C15983  -1.042   1.797   3.007 -0.7691 -0.4523  0.4740
  860MOL0     C15984  -1.119   1.836   2.910  0.0475  0.6466 -0.2874
  860MOL0     C15985  -1.244   1.912   2.914  0.3477 -0.4487  0.2009
  860MOL0     C15986  -1.234   2.054   2.955 -0.2314 -0.2980 -0.5672
  860MOL0     C15987  -1.153   2.153   2.866 -0.0123  0.3979  0.7697
  860MOL0     C15988  -1.220   2.193   2.739 -0.2317  0.1603  0.3457
  860MOL0     O15989  -1.326   2.297   2.770  0.6185 -0.0307  0.2966
  860MOL0     C15990  -1.422   2.315   2.671  0.2260  0.0130  1.4607
  860MOL0     C15991  -1.440   2.232   2.554  0.0085 -0.6602  0.2456
  860MOL0     C15992  -1.550   2.245   2.468  0.3047 -0.4852  0.4549
  860MOL0     C15993  -1.572   2.135   2.357 -0.1931  0.0144 -0.1624
  860MOL0     C15994  -1.642   2.361   2.498 -0.1333 -0.3454  0.1470
  860MOL0     C15995  -1.751   2.401   2.415  0.2468  0.1473  0.9584
  860MOL0     O15996  -1.737   2.372   2.287  0.4035  0.4913  0.1540
  860MOL0     C15997  -1.826   2.437   2.205  0.1671 -0.7756 -0.0162
  860MOL0     C15998  -1.819   2.578   2.183  0.0820 -0.0231 -0.0685
  860MOL0     C15999  -1.907   2.637   2.098  0.9138  0.6295  0.9827
  860MOL0     C16000  -2.002   2.556   2.028 -0.6487 -0.0973  0.5189
  860MOL0     O16001  -2.077   2.621   1.936  0.3993 -0.3102  0.2245
  860MOL0     C16002  -2.093   2.561   1.810 -0.0080  0.2291  0.7109
  860MOL0     C16003  -2.003   2.619   1.709 -0.2649  0.1250  0.6263
  860MOL0     C16004  -2.045   2.557   1.568 -1.0836  0.6186 -0.0160
  860MOL0     C16005  -1.958   2.622   1.462 -0.1330 -0.2231  0.9418
  860MOL0     C16006  -1.964   2.569   1.323  0.1466 -0.6595 -0.6912
  860MOL0     C16007  -1.844   2.619   1.249 -0.2317  0.0522  0.1755
  860MOL0     C16008  -1.834   2.766   1.230  0.4484  0.0407  0.3037
  860MOL0     C16009  -1.736   2.808   1.122 -0.0613 -0.0198 -0.0403
  860MOL0    Cl16010  -1.827   2.790   0.969  0.2205 -0.2145  0.1314
  860MOL0     C16011  -2.011   2.420   2.055  0.2895  0.6084  0.0234
  860MOL0     C16012  -1.931   2.360   2.152 -0.5259  0.2458  0.2832
  860MOL0     O16013  -1.850   2.455   2.466  0.2523 -0.0723 -0.6510
  860MOL0     C16014  -1.632   2.438   2.617 -0.4673 -0.4571  0.6282
  860MOL0     C16015  -1.517   2.407   2.697  0.2031 -0.2024 -0.0816
  860MOL0     N16016  -1.068   1.797   2.789 -0.6203  0.5495 -0.3993
  860MOL0     N16017  -0.949   1.741   2.814  0.3618  0.3887  0.0703
  860MOL0     C16018   0.190   1.107   3.342  0.9182  0.1329 -0.1491
  860MOL0     C16019   0.285   1.011   3.350  0.2927  0.5196  0.5265
  860MOL0     C16020   0.552   0.686   3.394 -1.1027  0.1138  0.3221
  860MOL0     C16021   0.610   0.627   3.508 -0.8591 -0.5213 -0.7818
  860MOL0     C16022   0.702   0.526   3.498 -0.6379  0.2397  0.5133
  860MOL0     C16023   0.755   0.486   3.373 -0.5903 -0.1775  0.8067
  860MOL0     O16024   0.853   0.387   3.372  0.0258 -0.3600 -0.7180
  860MOL0     C16025   0.915   0.354   3.247  0.1631  0.3488  0.6671
  860MOL0     C16026   0.975   0.218   3.247 -0.0315  0.1441  0.0123
  860MOL0     C16027   1.123   0.222   3.185  0.3228 -0.3524  0.4757
  860MOL0     C16028   1.218   0.099   3.217  0.4371 -0.2968 -0.1600
  860MOL0     C16029   1.256   0.106   3.358 -0.9265  0.5644  0.8356
  860MOL0     C16030   1.287   0.115   3.473 -0.9190  0.4056 -0.0114
  860MOL0     C16031   0.706   0.551   3.260  0.0840 -0.0155  0.5606
  860MOL0     C16032   0.603   0.645   3.266 -1.0637  0.0692  0.4011
  860MOL0     H16033   0.110   0.750   3.211 -1.9520  0.0677 -0.5040
  860MOL0     H16034  -0.063   0.937   3.204 -0.0376 -0.4199 -0.9819
  860MOL0     H16035  -0.130   1.156   3.120  0.7769  1.2148 -0.0335
  860MOL0     H16036  -0.194   1.108   3.272  1.1509 -1.1092 -0.5309
  860MOL0     H16037  -0.224   1.346   3.344 -1.9364  2.5959 -0.7794
  860MOL0     H16038  -0.154   1.389   3.185 -0.7991  0.3125  0.5196
  860MOL0     H16039  -0.351   1.284   3.071 -3.1547 -0.9240 -0.7998
  860MOL0     H16040  -0.403   1.230   3.232 -0.3646  1.0028 -0.1368
  860MOL0     H16041  -0.432   1.462   3.290 -0.7191 -0.5143 -0.8410
  860MOL0     H16042  -0.360   1.508   3.137  0.8375  0.6340  0.6303
  860MOL0     H16043  -0.557   1.385   3.027  1.3362 -0.7593  0.7067
  860MOL0     H16044  -0.620   1.382   3.183  1.6544  0.9151  3.8418
  860MOL0     H16045  -0.631   1.640   3.193  1.3280 -0.0555  0.1983
  860MOL0     H16046  -0.540   1.641   3.040 -0.3772  2.1833  2.5586
  860MOL0     H16047  -0.729   1.565   2.920  0.5466  2.8696 -0.9395
  860MOL0     H16048  -0.816   1.525   3.074 -0.8075  0.7487  0.6662
  860MOL0     H16049  -0.730   1.805   2.964  0.6904 -1.4378  0.3978
  860MOL0     H16050  -0.796   1.770   3.122 -3.2369  1.0683  0.1716
  860MOL0     H16051  -1.050   1.805   3.115 -0.4401 -0.1268  0.4770
  860MOL0     H16052  -1.287   1.904   2.814  0.4265  1.2138  0.0157
  860MOL0     H16053  -1.314   1.873   2.989 -0.9442 -0.6364 -1.0735
  860MOL0     H16054  -1.191   2.054   3.055 -1.0436  1.0402 -0.1893
  860MOL0     H16055  -1.332   2.103   2.948  0.0536  0.3012 -0.4499
  860MOL0     H16056  -1.055   2.107   2.848 -1.4039 -2.3843 -0.2405
  860MOL0     H16057  -1.137   2.248   2.918 -0.0227 -0.9347  3.3973
  860MOL0     H16058  -1.254   2.107   2.681  0.3918  0.4806 -0.5289
  860MOL0     H16059  -1.148   2.241   2.671 -2.3292  0.1879 -2.0075
  860MOL0     H16060  -1.372   2.151   2.530  0.0655 -0.8116  0.9070
  860MOL0     H16061  -1.481   2.075   2.343 -0.2931 -0.9119  2.6695
  860MOL0     H16062  -1.657   2.074   2.387  0.4398 -0.3820  0.8968
  860MOL0     H16063  -1.593   2.187   2.263 -0.2914 -0.6742 -0.5274
  860MOL0     H16064  -1.756   2.647   2.239 -2.1162  0.7553  1.5588
  860MOL0     H16065  -1.899   2.744   2.082  2.7865  0.6061  1.6149
  860MOL0     H16066  -2.060   2.457   1.813 -0.6734  0.0118  0.8332
  860MOL0     H16067  -2.196   2.573   1.774  0.1619 -0.4615 -0.0146
  860MOL0     H16068  -2.019   2.726   1.696  0.9859  0.7499  3.4576
  860MOL0     H16069  -1.899   2.608   1.739  0.0145 -1.4467 -0.7807
  860MOL0     H16070  -2.146   2.582   1.534 -1.6880 -0.1807  1.1406
  860MOL0     H16071  -2.042   2.448   1.565 -2.1818  0.5882 -0.5210
  860MOL0     H16072  -1.986   2.728   1.454  3.3950  0.7541 -0.0243
  860MOL0     H16073  -1.854   2.622   1.496  0.3980  3.6274 -0.1737
  860MOL0     H16074  -2.059   2.587   1.271  0.7823  2.7970 -0.8568
  860MOL0     H16075  -1.947   2.462   1.334 -0.9256 -0.6927  1.0900
  860MOL0     H16076  -1.749   2.594   1.297  0.0558 -0.1778 -0.5057
  860MOL0     H16077  -1.832   2.563   1.156  1.3703 -1.4186  1.1988
  860MOL0     H16078  -1.800   2.810   1.324 -0.6872  1.3945  0.1164
  860MOL0     H16079  -1.931   2.811   1.206  1.7306  1.8610 -1.9291
  860MOL0     H16080  -1.653   2.737   1.126 -2.4262 -3.1730 -2.1188
  860MOL0     H16081  -1.698   2.910   1.129 -0.1381 -0.0055  0.1889
  860MOL0     H16082  -2.080   2.349   2.012  0.2563 -0.6120  1.9800
  860MOL0     H16083  -1.933   2.253   2.169  1.2802  0.3242  1.2398
  860MOL0     H16084  -1.700   2.513   2.657  1.4484  1.6197  0.1996
  860MOL0     H16085  -1.512   2.471   2.785 -1.8901  1.2680 -0.9450
  860MOL0     H16086   0.217   1.205   3.379  3.4471 -0.7522  0.5960
  860MOL0     H16087   0.387   1.036   3.376  0.9318  0.3366 -1.6337
  860MOL0     H16088   0.582   0.657   3.609 -0.3951 -0.6888 -0.6033
  860MOL0     H16089   0.724   0.470   3.588  0.9703  1.5141  0.9773
  860MOL0     H16090   0.846   0.347   3.162  5.1040 -0.5870 -3.8382
  860MOL0     H16091   0.988   0.434   3.232 -0.3832  1.5297  3.7589
  860MOL0     H16092   0.912   0.142   3.202  1.6405  0.3660 -2.9898
  860MOL0     H16093   0.988   0.181   3.349 -0.1604  2.7948  1.0893
  860MOL0     H16094   1.175   0.312   3.221  0.7987 -0.6125  0.4520
  860MOL0     H16095   1.124   0.245   3.078  0.9404 -0.4930  0.4435
  860MOL0     H16096   1.300   0.096   3.144 -2.9110  0.9199 -4.3887
  860MOL0     H16097   1.159   0.007   3.212  0.3583 -0.2185 -0.6942
  860MOL0     H16098   1.312   0.112   3.577 -0.9629 -2.3817 -0.0219
  860MOL0     H16099   0.733   0.524   3.158 -2.9201  1.4082 -0.7527
  860MOL0     H16100   0.554   0.675   3.174  0.6443 -1.8768 -1.2054
  861MOL0     O16101   3.495   8.196   3.173 -0.0262  0.4064 -0.2395
  861MOL0     C16102   3.475   8.252   3.284  0.1211  0.6280  0.7692
  861MOL0     O16103   3.395   8.364   3.296  0.0740  0.4927 -0.3527
  861MOL0     C16104   3.304   8.406   3.205  0.4850 -0.1461  0.2391
  861MOL0     C16105   3.242   8.325   3.101  0.0115 -0.0885 -0.5192
  861MOL0     C16106   3.149   8.381   3.020  1.1689 -0.9165  0.9249
  861MOL0     C16107   3.098   8.507   3.037  0.3101 -0.5757 -0.5174
  861MOL0     O16108   2.988   8.530   2.962  0.4508 -0.0930  0.2808
  861MOL0     C16109   2.873   8.592   3.027  0.2612  0.1420  0.7878
  861MOL0     C16110   2.777   8.611   2.907  0.5749 -0.4168 -0.4527
  861MOL0     C16111   2.700   8.743   2.938  0.4751 -0.0974 -0.0547
  861MOL0     C16112   2.628   8.794   2.812 -0.2384  0.3629  0.2850
  861MOL0     C16113   2.489   8.735   2.779  0.0314  0.1632 -0.7801
  861MOL0     C16114   2.395   8.747   2.897  0.1798 -0.3685 -0.6292
  861MOL0     C16115   2.244   8.706   2.860  0.0786  0.0779 -0.3879
  861MOL0     C16116   2.215   8.552   2.847  1.6400  0.4502 -0.3330
  861MOL0     N16117   2.071   8.526   2.857  0.3249  0.0631 -0.5831
  861MOL0     C16118   2.001   8.450   2.955 -0.8051  0.8474 -0.2919
  861MOL0     C16119   1.870   8.448   2.912 -0.2724  0.1700 -0.2170
  861MOL0     C16120   1.754   8.410   2.995  0.3724  0.0997  0.2397
  861MOL0     C16121   1.618   8.433   2.916 -0.9574 -0.3349 -0.8345
  861MOL0     C16122   1.506   8.350   2.984 -0.8028 -0.4911 -0.5153
  861MOL0     C16123   1.382   8.371   2.902  0.4346  0.2810 -0.0250
  861MOL0     O16124   1.290   8.288   2.973  0.0621 -0.2756  0.2139
  861MOL0     C16125   1.170   8.238   2.919 -0.4532 -0.0711 -0.0976
  861MOL0     C16126   1.096   8.316   2.830 -0.2009 -0.2985 -0.8177
  861MOL0     C16127   0.976   8.272   2.780 -0.6397  0.2991 -0.4561
  861MOL0     C16128   0.897   8.356   2.688  0.7209 -0.2561  0.0250
  861MOL0     C16129   0.920   8.150   2.821  0.3703  0.4947  0.0493
  861MOL0     C16130   0.788   8.107   2.770  0.3954 -0.3613  0.0973
  861MOL0     O16131   0.674   8.174   2.814 -0.4471  0.6051  0.3127
  861MOL0     C16132   0.560   8.131   2.767 -0.1525  0.0635 -0.0812
  861MOL0     C16133   0.494   8.021   2.818  0.9172 -0.6605  0.5037
  861MOL0     C16134   0.370   7.986   2.756 -0.4093  0.2243  0.0254
  861MOL0     C16135   0.318   8.076   2.662 -0.3087 -0.4397  0.3132
  861MOL0     O16136   0.188   8.065   2.625  0.1853 -0.2963 -0.4911
  861MOL0     C16137   0.115   8.149   2.719 -0.7476 -0.5222 -0.7190
  861MOL0     C16138   0.036   8.265   2.664 -0.1304 -0.9046  0.2601
  861MOL0     C16139  -0.094   8.219   2.615  0.0333  0.7132 -0.1183
  861MOL0     C16140  -0.162   8.319   2.526 -0.6177  0.3851  0.4819
  861MOL0     C16141  -0.302   8.279   2.482  0.0952 -0.4942  0.1132
  861MOL0     C16142  -0.351   8.384   2.385 -0.2255 -0.3457 -0.1066
  861MOL0     C16143  -0.396   8.510   2.460  0.1467  0.2720 -0.7506
  861MOL0     C16144  -0.489   8.596   2.371 -0.0531 -0.7281 -0.1476
  861MOL0    Cl16145  -0.419   8.675   2.224  0.1352 -0.0609  0.1743
  861MOL0     C16146   0.392   8.188   2.613  0.2524  0.7116  0.1848
  861MOL0     C16147   0.514   8.215   2.666 -0.6800  0.0283  0.5722
  861MOL0     O16148   0.792   8.013   2.691 -0.1871 -0.3644  0.4151
  861MOL0     C16149   0.997   8.067   2.904 -1.0850 -1.3714 -1.0461
  861MOL0     C16150   1.117   8.114   2.958 -0.2851 -0.3534  0.0399
  861MOL0     N16151   1.870   8.524   2.790 -0.1741  0.8160 -0.1951
  861MOL0     N16152   1.986   8.575   2.764 -0.4456 -0.9984  0.3808
  861MOL0     C16153   3.155   8.588   3.134  0.4421  0.8925 -0.0323
  861MOL0     C16154   3.255   8.538   3.221  0.7312  0.3471  0.5088
  861MOL0     C16155   3.548   8.197   3.397 -0.0591  0.6116  0.5360
  861MOL0     C16156   3.560   8.283   3.507  0.5268  0.0903  0.6930
  861MOL0     C16157   3.628   8.242   3.619  0.3376 -0.3911 -0.2260
  861MOL0     C16158   3.690   8.118   3.637 -0.1827 -0.1038 -0.2927
  861MOL0     O16159   3.756   8.088   3.755  0.1105  0.0511  0.0578
  861MOL0     C16160   3.870   7.987   3.754  0.3902  0.1388  0.1920
  861MOL0     C16161   3.957   8.007   3.880  0.8029  0.0952 -0.6276
  861MOL0     C16162   3.888   7.965   4.018 -0.0127 -0.5458  0.4409
  861MOL0     C16163   3.874   7.823   4.050  0.5710 -0.1040 -0.2226
  861MOL0     C16164   3.996   7.746   4.055  0.7680 -0.0170  0.5171
  861MOL0     C16165   4.095   7.677   4.061 -0.3981  0.3860 -0.6741
  861MOL0     C16166   3.686   8.034   3.526 -0.0564  0.2826  0.1132
  861MOL0     C16167   3.606   8.073   3.404 -0.6199 -0.0373 -0.4104
  861MOL0     H16168   3.263   8.222   3.074  2.5279  0.1125  0.4096
  861MOL0     H16169   3.114   8.318   2.939 -1.1855  0.1598  1.0419
  861MOL0     H16170   2.827   8.519   3.095  1.8770 -0.7502  0.9647
  861MOL0     H16171   2.896   8.687   3.076  0.8007  0.1000  0.6227
  861MOL0     H16172   2.838   8.620   2.817  0.2665 -1.6715 -0.7964
  861MOL0     H16173   2.711   8.525   2.898  0.3283 -0.3227  0.3551
  861MOL0     H16174   2.623   8.735   3.015  0.4756  1.0617  0.0788
  861MOL0     H16175   2.772   8.823   2.953 -0.7549  0.9877  0.2245
  861MOL0     H16176   2.619   8.902   2.819  0.1144  0.4596 -0.6153
  861MOL0     H16177   2.694   8.770   2.728 -1.8069 -1.2842 -0.5757
  861MOL0     H16178   2.454   8.786   2.689  1.8964  1.1168 -0.9995
  861MOL0     H16179   2.488   8.628   2.756 -1.8983 -0.1012  0.2646
  861MOL0     H16180   2.420   8.674   2.975 -0.6974 -1.9909 -1.8022
  861MOL0     H16181   2.396   8.853   2.923  1.9689  0.0419 -2.1543
  861MOL0     H16182   2.180   8.746   2.940  0.9312 -0.2280  0.4607
  861MOL0     H16183   2.220   8.752   2.764 -1.0377  1.5168  0.5314
  861MOL0     H16184   2.271   8.498   2.925  1.8583  3.1309  1.4880
  861MOL0     H16185   2.243   8.515   2.748 -0.5858  1.2774 -1.3288
  861MOL0     H16186   2.040   8.412   3.050 -1.6412 -1.3329 -0.7720
  861MOL0     H16187   1.759   8.304   3.023 -1.1015 -0.5799 -1.8301
  861MOL0     H16188   1.749   8.473   3.084 -0.2780  0.5185 -0.0844
  861MOL0     H16189   1.639   8.414   2.810  1.9330 -0.8652 -0.2514
  861MOL0     H16190   1.597   8.540   2.920  0.6712  0.0089 -1.0113
  861MOL0     H16191   1.493   8.386   3.086  0.4314 -0.1289 -0.4749
  861MOL0     H16192   1.544   8.247   2.990  2.6499  0.7483  1.8869
  861MOL0     H16193   1.399   8.336   2.800 -4.0232 -3.9077  0.3391
  861MOL0     H16194   1.358   8.478   2.898 -0.4865  0.1529  1.2453
  861MOL0     H16195   1.140   8.409   2.796  1.0997 -0.3291  0.6681
  861MOL0     H16196   0.801   8.373   2.737  0.8705  0.6368  0.0267
  861MOL0     H16197   0.947   8.451   2.665 -1.6797  1.2936  0.7661
  861MOL0     H16198   0.879   8.305   2.593  0.1448 -2.7353  1.3713
  861MOL0     H16199   0.535   7.966   2.902 -1.7689 -0.6788  1.9039
  861MOL0     H16200   0.309   7.901   2.785 -0.0453 -0.3782 -0.9186
  861MOL0     H16201   0.054   8.085   2.784  0.4248  0.3676  1.3511
  861MOL0     H16202   0.184   8.194   2.791 -1.5338  0.0525 -0.3018
  861MOL0     H16203   0.034   8.348   2.735  0.4349 -0.5740 -0.0974
  861MOL0     H16204   0.085   8.308   2.576 -1.7886 -1.5170 -1.0173
  861MOL0     H16205  -0.155   8.198   2.704  1.4580  1.3206  1.0262
  861MOL0     H16206  -0.067   8.129   2.560 -0.5576 -0.8603  2.0264
  861MOL0     H16207  -0.172   8.411   2.585  1.2918 -0.4059  2.1708
  861MOL0     H16208  -0.089   8.326   2.445  0.2324  1.2594  1.2889
  861MOL0     H16209  -0.372   8.281   2.566 -1.9171 -0.3154 -1.4768
  861MOL0     H16210  -0.298   8.189   2.420 -1.5536 -0.4595 -0.0723
  861MOL0     H16211  -0.268   8.422   2.324  0.9941 -2.2434  0.2859
  861MOL0     H16212  -0.418   8.329   2.317  0.2779 -1.4303  0.2383
  861MOL0     H16213  -0.315   8.576   2.495  0.2593  0.0745 -0.6378
  861MOL0     H16214  -0.451   8.480   2.550 -1.1472  0.7230 -1.3736
  861MOL0     H16215  -0.525   8.673   2.440  1.4534  0.5976 -0.7576
  861MOL0     H16216  -0.573   8.539   2.332 -0.6985  0.4530 -0.5458
  861MOL0     H16217   0.352   8.253   2.536  0.9081  1.8341  0.7672
  861MOL0     H16218   0.568   8.301   2.628  0.4961 -0.5253  0.9535
  861MOL0     H16219   0.952   7.977   2.945 -1.6990  0.2506  2.1881
  861MOL0     H16220   1.181   8.052   3.020 -0.8297 -0.0881  0.8811
  861MOL0     H16221   3.119   8.690   3.148  1.3457  1.0060  1.6939
  861MOL0     H16222   3.289   8.602   3.302  1.3837  1.5182 -0.6542
  861MOL0     H16223   3.510   8.379   3.506 -1.8547 -1.0149  2.1992
  861MOL0     H16224   3.620   8.308   3.705  2.5244 -0.9867  0.4975
  861MOL0     H16225   3.827   7.887   3.746 -0.8382  0.6501  0.2579
  861MOL0     H16226   3.935   7.990   3.665 -1.4437 -0.6686 -1.2266
  861MOL0     H16227   3.991   8.110   3.889 -1.9199  0.8841  2.3612
  861MOL0     H16228   4.050   7.950   3.867 -0.5692 -2.0551 -1.7003
  861MOL0     H16229   3.790   8.015   4.014 -0.2126 -1.0077 -1.2119
  861MOL0     H16230   3.956   8.016   4.087  1.8916  1.6771 -2.8195
  861MOL0     H16231   3.803   7.772   3.984  1.7009  1.1844 -2.6062
  861MOL0     H16232   3.831   7.822   4.150  0.0233 -3.1150 -0.4226
  861MOL0     H16233   4.176   7.607   4.050 -0.9419 -0.3270 -0.2563
  861MOL0     H16234   3.735   7.938   3.542 -1.3380 -0.0314  2.6757
  861MOL0     H16235   3.606   7.998   3.325  2.4668 -2.0515  1.3160
  862MOL0     O16236   8.770   5.590   7.269  0.3278  0.4198 -0.3411
  862MOL0     C16237   8.786   5.587   7.149 -0.5352  0.2116 -0.5084
  862MOL0     O16238   8.683   5.570   7.059 -0.1962 -0.1587 -0.1818
  862MOL0     C16239   8.552   5.560   7.105  0.5644 -0.0227 -0.3681
  862MOL0     C16240   8.528   5.464   7.208 -0.7409  1.1952  0.8788
  862MOL0     C16241   8.399   5.432   7.251  0.3500  0.2941 -0.4361
  862MOL0     C16242   8.291   5.503   7.204 -0.4582  0.2333  0.1122
  862MOL0     O16243   8.170   5.456   7.250 -0.0171 -0.0904 -0.5029
  862MOL0     C16244   8.060   5.450   7.154  0.0989 -0.0018  0.2527
  862MOL0     C16245   7.936   5.413   7.228  0.4426 -0.2460  0.1922
  862MOL0     C16246   7.819   5.449   7.134  0.1230 -0.7345  0.0475
  862MOL0     C16247   7.677   5.425   7.184  0.3160  1.3531 -0.2084
  862MOL0     C16248   7.563   5.396   7.079  0.0428 -0.9364 -0.1075
  862MOL0     C16249   7.578   5.479   6.947 -0.1503 -0.0370  0.1070
  862MOL0     C16250   7.475   5.439   6.843 -0.0238 -0.4657 -0.2017
  862MOL0     C16251   7.490   5.507   6.709 -0.7325 -0.0134 -0.0718
  862MOL0     N16252   7.450   5.649   6.714  0.1808  0.9749  0.7950
  862MOL0     C16253   7.327   5.695   6.757  0.3564  0.8596  0.1328
  862MOL0     C16254   7.337   5.829   6.767  0.6178  0.1359  0.1433
  862MOL0     C16255   7.236   5.912   6.840 -0.6722 -0.0654 -0.9119
  862MOL0     C16256   7.189   6.022   6.752 -0.3218 -0.1545  0.3612
  862MOL0     C16257   7.103   5.976   6.640 -0.6016 -0.6418 -0.5015
  862MOL0     C16258   6.961   5.925   6.684 -0.8617  0.0137 -0.2710
  862MOL0     O16259   6.966   5.782   6.704  0.2626 -0.2306 -0.4451
  862MOL0     C16260   6.836   5.733   6.734 -0.4648 -0.4835 -0.0329
  862MOL0     C16261   6.842   5.596   6.755  0.0204 -0.1567  0.4190
  862MOL0     C16262   6.729   5.512   6.770 -0.1306 -0.1218  0.0172
  862MOL0     C16263   6.763   5.367   6.763  0.1010  0.1319  0.4289
  862MOL0     C16264   6.601   5.577   6.767 -0.7807 -0.3288 -0.0849
  862MOL0     C16265   6.474   5.508   6.772 -0.0977  0.0950  0.1629
  862MOL0     O16266   6.361   5.581   6.755  0.6447 -0.5634 -0.3411
  862MOL0     C16267   6.237   5.525   6.780  0.3827 -0.3899 -0.0151
  862MOL0     C16268   6.159   5.498   6.676  0.2745 -0.3049  0.0252
  862MOL0     C16269   6.042   5.429   6.686 -0.0486  0.0335  0.0422
  862MOL0     C16270   5.981   5.409   6.816  0.0397 -0.1878 -0.1376
  862MOL0     O16271   5.852   5.365   6.820 -0.1627 -0.4269 -0.3763
  862MOL0     C16272   5.762   5.452   6.888 -0.7427 -0.1277 -0.3768
  862MOL0     C16273   5.623   5.381   6.860  0.9820  1.0179  0.1827
  862MOL0     C16274   5.504   5.438   6.949  1.6472  0.4480 -0.7273
  862MOL0     C16275   5.381   5.336   6.936  0.1413  0.2867  0.7518
  862MOL0     C16276   5.397   5.204   7.002  0.0295  0.5353 -0.2269
  862MOL0     C16277   5.265   5.129   6.991 -0.6481 -0.2725  0.4491
  862MOL0     C16278   5.269   4.995   7.051  0.5245  0.3416 -0.0966
  862MOL0     C16279   5.143   4.911   7.009  1.5446 -0.5076  0.1457
  862MOL0    Cl16280   5.156   4.751   7.079  0.6907  0.0475  0.1867
  862MOL0     C16281   6.054   5.457   6.927  0.0069  0.4719  0.1551
  862MOL0     C16282   6.180   5.507   6.904 -0.7345  0.2602 -0.0986
  862MOL0     O16283   6.478   5.386   6.790  0.0331 -0.6733 -0.5869
  862MOL0     C16284   6.599   5.719   6.753 -0.0763  0.0150 -0.7703
  862MOL0     C16285   6.714   5.800   6.726 -0.0348 -0.0689  0.0218
  862MOL0     N16286   7.465   5.868   6.733  0.3172  0.9182 -0.3134
  862MOL0     N16287   7.532   5.756   6.704  0.8730  0.0340 -0.0600
  862MOL0     C16288   8.318   5.603   7.105  0.5769  0.6638  0.6659
  862MOL0     C16289   8.444   5.637   7.060 -0.0632 -0.3132  0.0509
  862MOL0     C16290   8.915   5.624   7.088  0.3795  0.3659 -0.7758
  862MOL0     C16291   8.951   5.597   6.955 -0.2277  0.9255 -0.2197
  862MOL0     C16292   9.083   5.621   6.913 -0.0368  0.2421  0.5025
  862MOL0     C16293   9.178   5.683   6.992 -0.7735  0.1773  0.3405
  862MOL0     O16294   9.312   5.714   6.951  0.2655 -0.3568  0.5231
  862MOL0     C16295   9.363   5.644   6.836 -0.3706 -0.1595 -0.1337
  862MOL0     C16296   9.498   5.717   6.805  0.0228  0.0155  0.1700
  862MOL0     C16297   9.584   5.733   6.932 -0.1658 -0.0704 -0.2743
  862MOL0     C16298   9.728   5.787   6.914  0.2900 -0.0892  1.0045
  862MOL0     C16299   9.804   5.793   7.031 -0.2830 -0.3460  0.2165
  862MOL0     C16300   9.869   5.792   7.134 -0.9629  0.1227 -0.3663
  862MOL0     C16301   9.143   5.716   7.121  0.0896 -0.3315 -0.6733
  862MOL0     C16302   9.011   5.680   7.169 -0.2941 -0.3819 -0.4654
  862MOL0     H16303   8.611   5.407   7.249 -0.1103  2.4387  1.4043
  862MOL0     H16304   8.372   5.348   7.315 -3.3418  2.7512  1.5619
  862MOL0     H16305   8.043   5.550   7.114 -0.1087 -0.3898 -0.6457
  862MOL0     H16306   8.077   5.375   7.076 -0.0914  0.2693 -0.0524
  862MOL0     H16307   7.935   5.308   7.258 -3.5759 -0.5597 -0.4612
  862MOL0     H16308   7.926   5.480   7.314 -0.1504  0.7509 -0.6284
  862MOL0     H16309   7.829   5.558   7.127  0.4720 -0.5927  2.1188
  862MOL0     H16310   7.842   5.392   7.044 -0.2022 -3.2927  1.4851
  862MOL0     H16311   7.664   5.335   7.244 -1.7129  1.6076 -0.1839
  862MOL0     H16312   7.650   5.515   7.241 -0.9452  0.7968  0.1032
  862MOL0     H16313   7.568   5.289   7.059 -1.6866 -1.1484  0.4281
  862MOL0     H16314   7.470   5.419   7.132  0.1046  1.5387 -0.9221
  862MOL0     H16315   7.563   5.587   6.958 -0.0862  0.2968 -2.5452
  862MOL0     H16316   7.675   5.458   6.900 -0.1536 -0.2823  0.2070
  862MOL0     H16317   7.480   5.331   6.829  2.2802 -0.2836 -1.2194
  862MOL0     H16318   7.373   5.456   6.879 -0.9567 -2.7165 -1.5588
  862MOL0     H16319   7.426   5.444   6.646 -0.0740  0.8111 -1.6248
  862MOL0     H16320   7.594   5.506   6.677 -1.3324  0.3797 -2.1828
  862MOL0     H16321   7.238   5.648   6.796  0.9414  0.2083  0.7119
  862MOL0     H16322   7.149   5.862   6.884 -0.1253 -1.3248 -1.2178
  862MOL0     H16323   7.288   5.958   6.925 -3.5412  1.6497  0.0753
  862MOL0     H16324   7.271   6.080   6.707 -0.8721 -1.1881 -2.1568
  862MOL0     H16325   7.144   6.096   6.819  2.7941  2.1025  0.1896
  862MOL0     H16326   7.151   5.897   6.581 -1.3673 -0.8828 -0.8105
  862MOL0     H16327   7.099   6.059   6.569  1.4287  0.1140  0.2120
  862MOL0     H16328   6.897   5.935   6.596 -1.3956 -2.7306 -0.2908
  862MOL0     H16329   6.929   5.988   6.768  0.1297  0.1030  0.0464
  862MOL0     H16330   6.941   5.551   6.764  0.5161  0.8047 -0.1651
  862MOL0     H16331   6.705   5.318   6.685 -0.0828 -2.1108  1.8713
  862MOL0     H16332   6.870   5.351   6.746 -0.1199 -1.5524  0.4006
  862MOL0     H16333   6.736   5.309   6.852 -1.7036 -1.9217 -1.3462
  862MOL0     H16334   6.210   5.509   6.581  0.8141  0.2383  0.3640
  862MOL0     H16335   5.991   5.394   6.596  2.3129  1.0450 -1.8080
  862MOL0     H16336   5.777   5.457   6.997 -0.6450 -1.5584 -0.3047
  862MOL0     H16337   5.768   5.552   6.845  1.5269 -0.0942 -0.1098
  862MOL0     H16338   5.599   5.406   6.757 -0.4167 -1.1331 -0.0838
  862MOL0     H16339   5.638   5.273   6.876  2.0376  1.3613  1.8011
  862MOL0     H16340   5.477   5.540   6.920 -2.3493 -0.4733 -0.8241
  862MOL0     H16341   5.544   5.445   7.050  2.1906  2.6468 -1.0526
  862MOL0     H16342   5.299   5.389   6.987 -0.3774  1.2803 -1.0065
  862MOL0     H16343   5.360   5.321   6.830 -0.2372 -1.1396  1.0107
  862MOL0     H16344   5.424   5.206   7.108 -0.7292 -1.5812  0.0660
  862MOL0     H16345   5.479   5.144   6.961  0.6792  0.4330  1.1448
  862MOL0     H16346   5.191   5.187   7.047  0.4862 -0.8714  2.7123
  862MOL0     H16347   5.230   5.123   6.888 -0.5317 -3.4322  0.5108
  862MOL0     H16348   5.287   4.996   7.158  2.9088 -2.6855 -0.3429
  862MOL0     H16349   5.354   4.939   7.011 -0.2177  0.6286 -2.2335
  862MOL0     H16350   5.147   4.890   6.902  2.4703 -2.7467  0.5687
  862MOL0     H16351   5.046   4.960   7.027  0.9239 -0.9522 -1.7734
  862MOL0     H16352   6.012   5.464   7.027  0.0876  0.6728  0.1744
  862MOL0     H16353   6.219   5.547   6.997 -2.3662 -0.7862  1.0864
  862MOL0     H16354   6.506   5.774   6.750  0.7734  1.7020  1.3773
  862MOL0     H16355   6.696   5.904   6.699 -0.7557 -0.5978 -1.6623
  862MOL0     H16356   8.227   5.648   7.064 -0.1124 -0.4967  0.8862
  862MOL0     H16357   8.460   5.717   6.988  0.6101  0.4959  1.0701
  862MOL0     H16358   8.881   5.549   6.887 -2.0063  0.0971  2.0407
  862MOL0     H16359   9.099   5.596   6.808  1.8182 -2.3998  1.3054
  862MOL0     H16360   9.387   5.543   6.869  0.0752 -0.3588 -1.0202
  862MOL0     H16361   9.290   5.649   6.755  0.0665  0.4355 -0.5086
  862MOL0     H16362   9.476   5.817   6.766 -1.1337 -0.1587  0.3187
  862MOL0     H16363   9.555   5.657   6.734  0.7164 -0.5037  1.1351
  862MOL0     H16364   9.584   5.641   6.991 -2.5509 -0.6900 -1.1189
  862MOL0     H16365   9.530   5.808   6.989 -1.8111  0.9838 -3.0598
  862MOL0     H16366   9.735   5.881   6.858  2.2546 -1.0383 -0.4738
  862MOL0     H16367   9.767   5.716   6.839  0.0491 -1.2733  1.9695
  862MOL0     H16368   9.915   5.809   7.229 -1.6789  0.2961 -0.0498
  862MOL0     H16369   9.224   5.764   7.174  1.7087 -0.7118 -2.6796
  862MOL0     H16370   8.993   5.717   7.269  0.8413 -1.0088 -0.0094
  863MOL0     O16371   9.745   9.084   8.027 -0.5332  0.6293 -0.2587
  863MOL0     C16372   9.796   9.042   7.925 -0.3401  0.2725  0.5505
  863MOL0     O16373   9.755   9.063   7.793 -0.1848  0.2486 -0.3337
  863MOL0     C16374   9.627   9.103   7.775 -0.0794 -0.4175  0.6267
  863MOL0     C16375   9.599   9.202   7.679  0.6654  0.0968  0.0602
  863MOL0     C16376   9.471   9.255   7.668  0.1300  0.3852  0.1015
  863MOL0     C16377   9.365   9.204   7.739  0.5443  0.0973  0.0715
  863MOL0     O16378   9.237   9.250   7.716 -0.0065 -0.0024  0.1791
  863MOL0     C16379   9.120   9.210   7.788  0.1718 -0.1486 -0.4188
  863MOL0     C16380   9.000   9.262   7.716  0.0414 -0.4437 -0.2704
  863MOL0     C16381   8.878   9.231   7.806 -0.3331 -0.3019 -0.2622
  863MOL0     C16382   8.749   9.294   7.738  0.6207  0.0111  0.2155
  863MOL0     C16383   8.632   9.274   7.839 -0.1200 -0.4072 -0.0023
  863MOL0     C16384   8.497   9.304   7.766  0.8450 -0.0745 -0.5063
  863MOL0     C16385   8.382   9.287   7.862  0.1589 -0.1183  0.0022
  863MOL0     C16386   8.245   9.291   7.782  0.1631  0.3711  0.9340
  863MOL0     N16387   8.127   9.245   7.852  0.3773 -0.1233  0.7226
  863MOL0     C16388   8.113   9.245   7.991  0.2396  0.5880  0.1209
  863MOL0     C16389   8.024   9.140   8.016  0.8658  0.2024 -0.0858
  863MOL0     C16390   7.983   9.090   8.157 -0.9736 -0.4663  0.1419
  863MOL0     C16391   7.841   9.141   8.186 -0.6185  0.6840  0.2209
  863MOL0     C16392   7.778   9.050   8.292  0.0457 -0.5216 -0.4701
  863MOL0     C16393   7.649   8.988   8.256 -0.4934 -0.3050  0.3804
  863MOL0     O16394   7.556   9.091   8.210  0.6628  0.2919 -0.1585
  863MOL0     C16395   7.448   9.045   8.141  0.5928 -0.4145  0.5164
  863MOL0     C16396   7.458   9.016   8.003  0.6760  0.3058  0.3605
  863MOL0     C16397   7.347   8.957   7.933  0.2941 -0.2976 -0.0964
  863MOL0     C16398   7.366   8.920   7.791 -0.0798 -0.2397  0.0164
  863MOL0     C16399   7.223   8.946   8.004 -0.4950  0.0729 -0.3926
  863MOL0     C16400   7.100   8.893   7.953  0.3421 -0.2854  0.1211
  863MOL0     O16401   6.990   8.920   8.016  0.0664  0.2349 -0.5391
  863MOL0     C16402   6.879   8.843   7.994  0.6510  0.7747  0.0519
  863MOL0     C16403   6.861   8.698   7.989  0.0536  0.5545 -0.6990
  863MOL0     C16404   6.740   8.633   7.972  1.3093  0.0570 -0.1284
  863MOL0     C16405   6.624   8.722   7.957 -0.3679  1.0019 -0.4133
  863MOL0     O16406   6.493   8.665   7.960 -0.8684 -0.0047 -0.1573
  863MOL0     C16407   6.471   8.533   7.994  0.4573 -0.1548  0.3123
  863MOL0     C16408   6.317   8.523   8.020 -0.4535 -0.0602  0.4370
  863MOL0     C16409   6.281   8.617   8.139  0.0884  0.0855 -0.1905
  863MOL0     C16410   6.140   8.613   8.170  1.2284  0.2131  0.4886
  863MOL0     C16411   6.102   8.688   8.297 -0.0322  0.4900  0.3750
  863MOL0     C16412   5.970   8.651   8.360  0.8132  0.0597  0.8785
  863MOL0     C16413   5.846   8.644   8.266 -0.3827 -0.4668 -0.4959
  863MOL0     C16414   5.827   8.759   8.176 -1.0120 -0.0457  0.3314
  863MOL0    Cl16415   5.665   8.745   8.102  0.6053 -0.0542  0.0062
  863MOL0     C16416   6.643   8.858   7.949  0.1475  0.0714  0.0491
  863MOL0     C16417   6.764   8.918   7.971  0.5208 -0.0132 -0.6526
  863MOL0     O16418   7.112   8.818   7.855  0.8608 -0.4245 -0.8974
  863MOL0     C16419   7.222   8.984   8.138  0.4200 -0.4959 -0.6483
  863MOL0     C16420   7.333   9.026   8.208  0.9470  0.9874  0.1492
  863MOL0     N16421   7.977   9.098   7.889 -0.1320  0.9354 -0.0612
  863MOL0     N16422   8.043   9.157   7.798 -0.3368  0.1170 -0.0417
  863MOL0     C16423   9.388   9.110   7.834 -1.0671  1.6346  0.6384
  863MOL0     C16424   9.521   9.061   7.852 -0.2805 -0.3753 -0.1690
  863MOL0     C16425   9.924   8.970   7.944  0.5439 -0.0437 -0.1643
  863MOL0     C16426   9.964   8.924   8.072 -0.3257 -0.0068  0.1328
  863MOL0     C16427  10.086   8.853   8.076 -0.1666 -0.3293  0.0694
  863MOL0     C16428  10.163   8.827   7.960 -0.3898 -0.1570  0.0878
  863MOL0     O16429  10.276   8.748   7.970  0.2402  0.5295 -0.1459
  863MOL0     C16430  10.383   8.821   8.026 -0.6833 -0.0560  0.2643
  863MOL0     C16431  10.506   8.728   8.041  0.0507  0.4099 -1.2292
  863MOL0     C16432  10.566   8.687   7.911 -1.0204  0.0838  0.9082
  863MOL0     C16433  10.685   8.585   7.926 -0.4976 -0.6025  1.3712
  863MOL0     C16434  10.802   8.641   8.007  0.9251  0.2324  0.7282
  863MOL0     C16435  10.893   8.674   8.074  0.0838 -0.4708 -0.6036
  863MOL0     C16436  10.117   8.872   7.839  0.0494 -0.4126  0.1695
  863MOL0     C16437   9.996   8.937   7.831  0.2797  0.7572  0.7784
  863MOL0     H16438   9.676   9.239   7.613 -0.2041 -1.0279 -1.6616
  863MOL0     H16439   9.453   9.328   7.589 -1.7327  0.2726  0.3723
  863MOL0     H16440   9.108   9.102   7.801 -1.5683 -0.0709 -1.1781
  863MOL0     H16441   9.124   9.263   7.884  1.5941  1.0864 -1.1218
  863MOL0     H16442   9.006   9.371   7.715  0.1769 -0.4396  0.4016
  863MOL0     H16443   9.002   9.222   7.614  1.3664 -0.1532 -0.3715
  863MOL0     H16444   8.854   9.125   7.812  1.6095 -0.8541 -1.3718
  863MOL0     H16445   8.899   9.272   7.905  1.4959  0.2434 -0.8295
  863MOL0     H16446   8.758   9.399   7.709  2.8883 -0.6065 -1.6707
  863MOL0     H16447   8.731   9.245   7.642  1.8227  1.3984 -0.7694
  863MOL0     H16448   8.620   9.175   7.885 -1.4027 -0.3416 -0.1549
  863MOL0     H16449   8.650   9.344   7.921  0.9050  1.1903 -1.5277
  863MOL0     H16450   8.511   9.403   7.722  1.0834  0.1920  0.1591
  863MOL0     H16451   8.487   9.230   7.686  4.0695  0.0389 -1.1597
  863MOL0     H16452   8.377   9.187   7.905  2.8170  0.1356  1.1319
  863MOL0     H16453   8.390   9.363   7.941 -0.3010  0.6326 -0.6554
  863MOL0     H16454   8.238   9.232   7.690 -0.4827  0.5555  0.8565
  863MOL0     H16455   8.232   9.396   7.752 -2.3822 -0.9882 -3.8584
  863MOL0     H16456   8.168   9.302   8.065 -3.9583  5.2025  0.2318
  863MOL0     H16457   7.978   8.981   8.154 -1.8243 -0.4540  0.7019
  863MOL0     H16458   8.060   9.116   8.230  0.0457  1.5437 -1.5458
  863MOL0     H16459   7.790   9.143   8.089 -1.2313  2.2856  0.5405
  863MOL0     H16460   7.833   9.242   8.227 -1.5077  1.1324 -0.9639
  863MOL0     H16461   7.768   9.104   8.386 -3.1056 -2.0432  0.1886
  863MOL0     H16462   7.841   8.964   8.314 -2.6186 -1.8364  2.8872
  863MOL0     H16463   7.614   8.940   8.347 -1.2107 -0.0695  0.2313
  863MOL0     H16464   7.657   8.925   8.167 -1.1292 -0.0506  0.1388
  863MOL0     H16465   7.543   9.034   7.939 -0.4566  0.8953 -1.0475
  863MOL0     H16466   7.303   8.979   7.724  1.7711  0.6095 -1.0602
  863MOL0     H16467   7.470   8.924   7.758 -0.3387 -0.2739 -0.8372
  863MOL0     H16468   7.339   8.815   7.774 -2.0064  0.0522  1.0399
  863MOL0     H16469   6.940   8.624   7.999  0.4213  0.8674 -1.2526
  863MOL0     H16470   6.747   8.525   7.962 -0.8765 -0.1860  0.3874
  863MOL0     H16471   6.496   8.457   7.920 -1.6286 -0.5813 -0.0257
  863MOL0     H16472   6.531   8.513   8.083  2.3352  1.1205 -0.6207
  863MOL0     H16473   6.256   8.554   7.936 -1.9142 -2.2917  0.5927
  863MOL0     H16474   6.286   8.421   8.045 -4.1951  0.5505 -1.1513
  863MOL0     H16475   6.292   8.720   8.106 -1.4403  0.0768 -0.7960
  863MOL0     H16476   6.334   8.590   8.231 -0.0892  1.3966  0.3201
  863MOL0     H16477   6.078   8.653   8.089 -0.3157  2.1090  2.4545
  863MOL0     H16478   6.105   8.510   8.186 -0.3052  0.4154 -1.2453
  863MOL0     H16479   6.112   8.796   8.281 -0.7875  0.2708 -2.0197
  863MOL0     H16480   6.167   8.650   8.377 -0.4604  0.0603  0.5267
  863MOL0     H16481   5.971   8.551   8.404  0.2023 -1.0051 -1.3492
  863MOL0     H16482   5.940   8.723   8.437 -3.3607  2.5717 -2.6020
  863MOL0     H16483   5.756   8.636   8.328 -1.0273  2.2007 -0.9532
  863MOL0     H16484   5.861   8.553   8.208 -0.2868 -1.8191  1.5449
  863MOL0     H16485   5.902   8.755   8.097 -2.0933 -2.2695 -0.6819
  863MOL0     H16486   5.834   8.853   8.232  1.2699 -0.7673  1.3727
  863MOL0     H16487   6.550   8.912   7.936 -0.8683 -1.6311 -0.1482
  863MOL0     H16488   6.766   9.026   7.983  1.4049  0.1328 -1.8895
  863MOL0     H16489   7.134   8.984   8.202  1.7821  0.1208  1.3378
  863MOL0     H16490   7.335   9.031   8.316  0.4476 -4.6915  0.6820
  863MOL0     H16491   9.321   9.053   7.898  1.1057 -0.0006  1.5955
  863MOL0     H16492   9.546   8.982   7.922  2.8508 -0.5678 -1.3663
  863MOL0     H16493   9.915   8.949   8.165  2.5670  3.4988  0.9811
  863MOL0     H16494  10.123   8.817   8.172  0.9657 -2.9820 -1.2750
  863MOL0     H16495  10.415   8.897   7.955  1.3096  0.0771  1.2490
  863MOL0     H16496  10.366   8.873   8.121  0.3507 -0.8947  0.9421
  863MOL0     H16497  10.476   8.637   8.094 -0.5548  1.4079  0.2229
  863MOL0     H16498  10.579   8.779   8.105  1.5782 -1.2310 -1.5911
  863MOL0     H16499  10.594   8.779   7.859 -0.2416 -0.8418 -0.3917
  863MOL0     H16500  10.483   8.639   7.858 -0.4070 -1.7512  1.5230
  863MOL0     H16501  10.714   8.563   7.823  0.8401  1.7726  1.1643
  863MOL0     H16502  10.650   8.487   7.960 -0.1214 -2.2013 -2.3801
  863MOL0     H16503  10.973   8.710   8.136  0.2455 -0.4201 -0.8386
  863MOL0     H16504  10.179   8.856   7.752  0.2820  0.4745  0.1648
  863MOL0     H16505   9.969   8.964   7.729  0.4759 -1.7830 -0.0009
  864MOL0     O16506   3.529   2.873   6.366  0.2761  0.0663  0.3650
  864MOL0     C16507   3.533   2.754   6.382 -0.1906 -0.8851 -0.0664
  864MOL0     O16508   3.637   2.675   6.411  0.1450  0.2210  0.2892
  864MOL0     C16509   3.764   2.726   6.419  0.8696 -1.0916 -0.8986
  864MOL0     C16510   3.821   2.811   6.324  0.1766 -0.6252  0.1055
  864MOL0     C16511   3.953   2.847   6.329 -0.4596  0.9845  0.2735
  864MOL0     C16512   4.034   2.798   6.437  0.3910 -0.1095  0.1977
  864MOL0     O16513   4.168   2.832   6.452 -0.0459 -0.0984  0.0041
  864MOL0     C16514   4.230   2.900   6.344 -0.7871  0.0239  0.2665
  864MOL0     C16515   4.374   2.897   6.372 -0.5998 -0.0928 -0.1757
  864MOL0     C16516   4.448   3.001   6.287  0.0276  0.0860  0.4160
  864MOL0     C16517   4.600   2.996   6.316  0.0504  0.6559 -0.1826
  864MOL0     C16518   4.681   3.131   6.304 -0.5165  0.8090 -0.9146
  864MOL0     C16519   4.682   3.179   6.159 -0.3705 -0.6008 -0.6381
  864MOL0     C16520   4.766   3.306   6.136  0.3566 -0.4833  0.6140
  864MOL0     C16521   4.714   3.429   6.212 -0.8057 -0.5901  0.2107
  864MOL0     N16522   4.566   3.440   6.234 -0.9753  0.2043 -0.1602
  864MOL0     C16523   4.458   3.437   6.142 -0.2532 -0.8714  0.5835
  864MOL0     C16524   4.352   3.436   6.224  0.1946  0.0742  1.5720
  864MOL0     C16525   4.216   3.407   6.173  0.5638  0.5506  0.6210
  864MOL0     C16526   4.202   3.256   6.166 -0.6659  0.1947  0.3335
  864MOL0     C16527   4.071   3.205   6.105 -0.2852  0.8668  0.2410
  864MOL0     C16528   3.945   3.254   6.183 -0.0046 -0.2004  0.3707
  864MOL0     O16529   3.830   3.168   6.162 -0.3439 -0.6667  0.8437
  864MOL0     C16530   3.706   3.216   6.190  1.2299  0.2846  1.0206
  864MOL0     C16531   3.681   3.334   6.263  0.0673  0.8206  0.2295
  864MOL0     C16532   3.550   3.375   6.290  0.4107  0.2442  0.1081
  864MOL0     C16533   3.533   3.499   6.370 -0.0197 -0.1785 -0.2094
  864MOL0     C16534   3.439   3.294   6.250  0.4576 -0.3258  0.6424
  864MOL0     C16535   3.300   3.344   6.283 -0.2059 -0.0490  0.7726
  864MOL0     O16536   3.209   3.246   6.282  0.4735 -0.2266 -0.4018
  864MOL0     C16537   3.090   3.283   6.349 -0.4195 -0.1326 -0.3157
  864MOL0     C16538   2.967   3.271   6.282 -0.1865 -0.4592 -0.4342
  864MOL0     C16539   2.845   3.299   6.347 -1.2181  0.3888  0.5840
  864MOL0     C16540   2.842   3.324   6.482  0.0788 -0.7631 -0.5506
  864MOL0     O16541   2.724   3.339   6.538  0.4744 -0.2378  0.3210
  864MOL0     C16542   2.696   3.253   6.650 -0.4072 -0.3078  1.1536
  864MOL0     C16543   2.554   3.284   6.714  0.0315  0.2329  0.5966
  864MOL0     C16544   2.443   3.243   6.614  0.5165 -0.2386 -0.7315
  864MOL0     C16545   2.301   3.253   6.673  0.1986 -0.2951  0.6021
  864MOL0     C16546   2.194   3.184   6.585 -0.4326 -0.2426 -0.4961
  864MOL0     C16547   2.217   3.035   6.563  0.1848 -0.5148 -0.0157
  864MOL0     C16548   2.094   2.963   6.485 -0.1577 -0.1057 -0.1959
  864MOL0     C16549   1.968   2.962   6.577  0.4071  0.8189 -1.2121
  864MOL0    Cl16550   1.824   2.881   6.508  0.2006 -0.1971  0.2935
  864MOL0     C16551   2.966   3.324   6.552 -0.5950  0.2337 -0.7080
  864MOL0     C16552   3.088   3.311   6.483 -0.3422 -0.6707  0.0987
  864MOL0     O16553   3.273   3.459   6.300  1.5154 -0.1823 -0.0576
  864MOL0     C16554   3.456   3.179   6.178 -0.4666 -0.1414  0.8716
  864MOL0     C16555   3.590   3.142   6.144 -0.6364 -0.8384 -0.5324
  864MOL0     N16556   4.387   3.449   6.357  0.3273  0.0655  0.2890
  864MOL0     N16557   4.514   3.441   6.360 -0.4882  0.1411 -0.6926
  864MOL0     C16558   3.971   2.723   6.542 -0.1479  1.1395 -0.7497
  864MOL0     C16559   3.838   2.685   6.527 -1.2500 -0.2098 -0.1228
  864MOL0     C16560   3.397   2.700   6.387  0.2339  0.7718 -1.1012
  864MOL0     C16561   3.372   2.579   6.440  0.7302  0.3822 -0.1051
  864MOL0     C16562   3.238   2.523   6.449  0.1170  0.3483  0.4320
  864MOL0     C16563   3.127   2.602   6.414 -0.4318  0.0931 -0.5693
  864MOL0     O16564   2.998   2.551   6.424 -0.0655 -0.0472  0.9685
  864MOL0     C16565   2.960   2.500   6.553  0.1590 -0.6059  0.5319
  864MOL0     C16566   2.817   2.533   6.578 -0.4382  0.0369 -0.0753
  864MOL0     C16567   2.716   2.519   6.456  0.2446  0.3312  0.0887
  864MOL0     C16568   2.577   2.539   6.509 -0.4829 -0.2393  0.9662
  864MOL0     C16569   2.518   2.423   6.571 -0.3912 -0.0635 -0.0665
  864MOL0     C16570   2.475   2.326   6.626 -0.8389  0.3647  0.1499
  864MOL0     C16571   3.155   2.726   6.368  0.3475 -0.8533  0.4372
  864MOL0     C16572   3.285   2.783   6.351 -0.6953  0.2088  0.7070
  864MOL0     H16573   3.763   2.854   6.243 -0.3647 -2.3101 -0.4528
  864MOL0     H16574   3.985   2.910   6.246 -0.3777  1.0559  0.3582
  864MOL0     H16575   4.218   2.848   6.249  1.8603 -0.3179  0.0399
  864MOL0     H16576   4.187   3.001   6.341 -1.4578 -0.2396  0.8040
  864MOL0     H16577   4.400   2.909   6.477 -2.9640 -0.4684  0.5197
  864MOL0     H16578   4.395   2.794   6.342  0.4940 -0.1574  0.7392
  864MOL0     H16579   4.438   2.996   6.178  2.5869  3.7712 -0.1916
  864MOL0     H16580   4.412   3.100   6.314 -1.6782 -0.4231  0.1371
  864MOL0     H16581   4.617   2.958   6.417  1.1026 -0.1191 -0.6354
  864MOL0     H16582   4.646   2.931   6.241 -1.9961  1.1189 -1.9432
  864MOL0     H16583   4.638   3.206   6.371 -0.9003 -0.7630  0.6845
  864MOL0     H16584   4.783   3.123   6.342 -0.1371  1.8221 -1.6848
  864MOL0     H16585   4.724   3.098   6.098  0.6630 -1.1435  0.7529
  864MOL0     H16586   4.578   3.203   6.134 -1.9043 -0.8194  4.3879
  864MOL0     H16587   4.874   3.294   6.144  0.7832 -1.5460 -3.9644
  864MOL0     H16588   4.760   3.330   6.030  0.2626  1.4846  1.0181
  864MOL0     H16589   4.751   3.516   6.159  0.6773 -1.6597 -0.5787
  864MOL0     H16590   4.778   3.426   6.301  2.0964  1.9181 -1.6192
  864MOL0     H16591   4.442   3.429   6.035  2.7190  1.4845 -0.1707
  864MOL0     H16592   4.147   3.441   6.250 -0.7131 -0.1378 -0.2001
  864MOL0     H16593   4.204   3.461   6.079  2.5118 -2.4193 -1.5167
  864MOL0     H16594   4.207   3.217   6.268  2.5871 -1.8781 -0.4608
  864MOL0     H16595   4.291   3.221   6.113  0.0538  1.6129  0.5504
  864MOL0     H16596   4.063   3.096   6.103  1.3327  0.7038 -2.3945
  864MOL0     H16597   4.059   3.232   5.999  0.7018 -0.5497 -0.2530
  864MOL0     H16598   3.932   3.361   6.163  2.1944 -0.1906 -1.4928
  864MOL0     H16599   3.964   3.243   6.290 -1.7784 -0.1669  0.7122
  864MOL0     H16600   3.766   3.395   6.293 -0.3823  0.2459  2.9965
  864MOL0     H16601   3.482   3.572   6.305 -0.9621 -1.5528 -1.0697
  864MOL0     H16602   3.468   3.480   6.456  0.0592  1.4356  0.2414
  864MOL0     H16603   3.623   3.548   6.408 -0.8022  0.7470  0.5417
  864MOL0     H16604   2.961   3.253   6.175  2.8109 -0.0317 -0.7710
  864MOL0     H16605   2.761   3.304   6.279  0.2623  3.0182 -1.2259
  864MOL0     H16606   2.679   3.152   6.611 -2.7848  0.1824  0.7428
  864MOL0     H16607   2.778   3.252   6.722  0.2523 -1.0733  0.4004
  864MOL0     H16608   2.551   3.217   6.800  2.5369  0.8894  1.2873
  864MOL0     H16609   2.548   3.386   6.754 -1.0157  0.6138 -0.4735
  864MOL0     H16610   2.467   3.144   6.574  4.4314  0.1580  0.2645
  864MOL0     H16611   2.461   3.310   6.529 -0.3569  2.8726  1.3615
  864MOL0     H16612   2.301   3.217   6.777 -1.5230  1.7673  1.3725
  864MOL0     H16613   2.274   3.358   6.676  2.1662  0.2621  2.7169
  864MOL0     H16614   2.194   3.242   6.493  0.7651  1.3754  0.4665
  864MOL0     H16615   2.099   3.196   6.637 -0.8257 -0.4819 -1.1432
  864MOL0     H16616   2.307   3.019   6.503 -0.0286  3.2212 -1.6477
  864MOL0     H16617   2.219   2.985   6.660 -0.6815 -0.0576  0.2528
  864MOL0     H16618   2.136   2.864   6.471  2.4919  0.8691  0.2908
  864MOL0     H16619   2.062   3.013   6.393 -2.4051 -1.9091 -0.4761
  864MOL0     H16620   1.936   3.066   6.589 -1.0763  0.3556 -0.8146
  864MOL0     H16621   1.985   2.915   6.674  1.4904  2.7509 -0.4278
  864MOL0     H16622   2.973   3.348   6.657  0.0175  0.2433 -0.7462
  864MOL0     H16623   3.180   3.311   6.540 -0.4674  0.3111  0.3307
  864MOL0     H16624   3.368   3.122   6.154 -1.0514  0.8488  0.6255
  864MOL0     H16625   3.617   3.061   6.076  1.9667  0.8706 -1.6759
  864MOL0     H16626   4.022   2.691   6.633 -0.2492 -1.8672 -1.6358
  864MOL0     H16627   3.798   2.630   6.612 -0.5927  0.9788  0.9949
  864MOL0     H16628   3.453   2.516   6.476  0.1645  0.6953  1.8392
  864MOL0     H16629   3.226   2.427   6.497  0.8993 -1.0872 -2.0909
  864MOL0     H16630   2.967   2.392   6.545 -1.7061 -0.6618 -1.1076
  864MOL0     H16631   3.018   2.543   6.635 -1.3299  2.9968 -0.0932
  864MOL0     H16632   2.817   2.639   6.608  2.2090  0.3819 -1.0324
  864MOL0     H16633   2.783   2.480   6.668 -1.4437  1.6367  0.5486
  864MOL0     H16634   2.725   2.417   6.417  0.5755  0.2043  0.4868
  864MOL0     H16635   2.741   2.584   6.372  0.7992 -0.5659 -0.4569
  864MOL0     H16636   2.515   2.556   6.420  0.8460 -0.7055 -0.0817
  864MOL0     H16637   2.574   2.630   6.570 -2.1975  0.2648  0.1942
  864MOL0     H16638   2.453   2.233   6.674 -0.9144  0.7789  0.9390
  864MOL0     H16639   3.073   2.786   6.330  0.7547  2.0471  3.5905
  864MOL0     H16640   3.304   2.886   6.323  3.5986  0.3058  3.0537
  865MOL0     O16641  11.154   5.189   5.982 -0.0992 -0.0468 -0.2808
  865MOL0     C16642  11.215   5.135   5.885  0.5812  0.5902 -0.6355
  865MOL0     O16643  11.167   5.035   5.813 -0.0160 -0.1854 -0.3290
  865MOL0     C16644  11.039   4.986   5.813  0.0098  0.5607  0.5925
  865MOL0     C16645  11.037   4.853   5.786 -0.4091 -0.0042 -1.0333
  865MOL0     C16646  10.911   4.782   5.791 -0.4339 -0.5190  0.4377
  865MOL0     C16647  10.796   4.849   5.840  0.1556 -0.2451  0.7613
  865MOL0     O16648  10.669   4.792   5.831  0.0316 -0.4415 -0.0521
  865MOL0     C16649  10.645   4.712   5.722  0.2106 -0.8229 -0.4598
  865MOL0     C16650  10.493   4.671   5.735 -1.0173 -0.2919  0.1030
  865MOL0     C16651  10.396   4.787   5.726 -0.4564  0.3220  0.1398
  865MOL0     C16652  10.374   4.844   5.584 -1.2749  0.7539  0.3019
  865MOL0     C16653  10.269   4.752   5.511 -0.2549 -0.9255  0.0229
  865MOL0     C16654  10.225   4.804   5.371 -0.3417  0.0757 -0.0477
  865MOL0     C16655  10.178   4.943   5.359 -0.0453 -0.5374  0.3319
  865MOL0     C16656  10.048   4.988   5.427  0.1655 -0.0934  0.3770
  865MOL0     N16657   9.940   4.893   5.398 -0.1386 -0.4010 -0.4188
  865MOL0     C16658   9.901   4.847   5.274 -0.0989 -0.8207 -0.6458
  865MOL0     C16659   9.798   4.761   5.312 -0.3465  0.3343 -0.7601
  865MOL0     C16660   9.691   4.700   5.223  0.0881 -0.8349 -0.4314
  865MOL0     C16661   9.556   4.723   5.280  1.1482  0.2443  1.0758
  865MOL0     C16662   9.440   4.725   5.179  0.0102  0.4057  0.2185
  865MOL0     C16663   9.306   4.751   5.251 -0.1289  0.1462  0.7722
  865MOL0     O16664   9.251   4.627   5.288 -0.0761 -0.4641  0.2129
  865MOL0     C16665   9.124   4.631   5.342 -0.1689  0.5220  0.0539
  865MOL0     C16666   9.062   4.504   5.350 -0.2229  0.6563  0.2995
  865MOL0     C16667   8.933   4.483   5.406  0.6799  0.6618  0.5816
  865MOL0     C16668   8.883   4.337   5.411  0.0978 -0.0083  0.1915
  865MOL0     C16669   8.855   4.600   5.434 -0.3338  0.5205  0.1906
  865MOL0     C16670   8.715   4.597   5.472  0.6813  0.2868  0.4678
  865MOL0     O16671   8.669   4.704   5.550 -0.2835 -0.2671  0.1264
  865MOL0     C16672   8.543   4.708   5.615 -0.1078 -1.1655 -0.2073
  865MOL0     C16673   8.529   4.791   5.720 -0.0276 -0.4879 -0.0236
  865MOL0     C16674   8.415   4.797   5.798 -0.2396 -0.2987  0.2594
  865MOL0     C16675   8.310   4.721   5.764  0.0723  0.0952 -0.1679
  865MOL0     O16676   8.194   4.734   5.840 -0.3310 -0.2519 -0.4548
  865MOL0     C16677   8.147   4.611   5.904  0.5326 -0.3384  0.5643
  865MOL0     C16678   8.000   4.581   5.871 -0.5946  0.1700 -0.1223
  865MOL0     C16679   7.964   4.437   5.907 -0.1504  0.4555 -0.4383
  865MOL0     C16680   7.819   4.400   5.868 -0.1721  0.1106 -0.0610
  865MOL0     C16681   7.711   4.498   5.938 -1.1401 -0.4414 -0.6004
  865MOL0     C16682   7.725   4.487   6.087 -0.8772  0.4886 -0.0754
  865MOL0     C16683   7.610   4.549   6.169 -0.4085 -0.8098 -0.6361
  865MOL0     C16684   7.638   4.530   6.315  0.8035  0.3275  0.0819
  865MOL0    Cl16685   7.763   4.642   6.388  0.0442  0.1617 -0.0456
  865MOL0     C16686   8.310   4.648   5.640 -0.4819 -0.0950 -1.2290
  865MOL0     C16687   8.430   4.641   5.562 -0.7943 -0.1571 -0.3341
  865MOL0     O16688   8.642   4.508   5.416  0.2288  0.0518  0.6639
  865MOL0     C16689   8.915   4.726   5.424 -1.1165  0.1401 -0.4237
  865MOL0     C16690   9.053   4.739   5.390  0.1835 -0.3462 -0.2347
  865MOL0     N16691   9.786   4.757   5.451  0.4790 -0.1040  0.8685
  865MOL0     N16692   9.873   4.836   5.501 -0.2274 -0.6410  0.5376
  865MOL0     C16693  10.796   4.983   5.868 -0.2271 -0.9138  0.6886
  865MOL0     C16694  10.922   5.050   5.845 -0.3223 -0.5254 -0.3915
  865MOL0     C16695  11.354   5.184   5.856 -0.0514 -0.0574  0.0773
  865MOL0     C16696  11.432   5.125   5.755  0.3842 -0.4383 -0.1144
  865MOL0     C16697  11.562   5.176   5.725 -0.4755 -0.1362 -0.5150
  865MOL0     C16698  11.619   5.290   5.801 -0.0497  0.2869  0.6181
  865MOL0     O16699  11.747   5.331   5.773  1.0363  0.3880 -0.5772
  865MOL0     C16700  11.818   5.403   5.870  0.2947 -0.8601 -1.0170
  865MOL0     C16701  11.960   5.430   5.812  0.4652 -0.6703  0.5377
  865MOL0     C16702  12.061   5.491   5.909 -0.3189  0.4537 -0.6918
  865MOL0     C16703  12.015   5.548   6.042 -0.4681  0.1459  0.1968
  865MOL0     C16704  12.126   5.593   6.129  0.2385  0.0879 -0.2499
  865MOL0     C16705  12.215   5.633   6.189 -0.5587 -0.0570 -0.1478
  865MOL0     C16706  11.529   5.347   5.894 -0.5927 -0.4412 -0.6273
  865MOL0     C16707  11.405   5.297   5.922 -0.4032 -0.5106 -0.8160
  865MOL0     H16708  11.119   4.795   5.744 -0.5349  0.9513 -2.6864
  865MOL0     H16709  10.904   4.680   5.754  0.7363 -0.6684  0.5986
  865MOL0     H16710  10.664   4.765   5.629  0.2760  1.4720  0.7935
  865MOL0     H16711  10.706   4.621   5.729 -1.9107 -2.3856 -1.2447
  865MOL0     H16712  10.471   4.597   5.658 -0.4033 -0.3018 -0.0750
  865MOL0     H16713  10.480   4.617   5.829 -2.0161  1.2579  0.9004
  865MOL0     H16714  10.298   4.752   5.760 -1.6856  0.5484 -2.8966
  865MOL0     H16715  10.410   4.869   5.797 -0.9682  0.6146 -0.0937
  865MOL0     H16716  10.337   4.946   5.593  0.7422  1.3581  2.9410
  865MOL0     H16717  10.472   4.855   5.535 -0.9330  4.2897  1.5483
  865MOL0     H16718  10.305   4.649   5.495  0.8255 -0.4110 -0.9943
  865MOL0     H16719  10.179   4.736   5.571 -1.0494 -3.8018 -1.7145
  865MOL0     H16720  10.317   4.805   5.313  0.1913 -0.3029  0.7782
  865MOL0     H16721  10.161   4.733   5.318  1.5408 -0.7434 -1.3290
  865MOL0     H16722  10.261   5.010   5.387  1.2362 -1.2074 -1.6534
  865MOL0     H16723  10.169   4.959   5.251  1.5138  0.4358  0.3052
  865MOL0     H16724  10.026   5.090   5.394 -2.3110 -0.1712  1.5794
  865MOL0     H16725  10.050   4.996   5.536  1.3559  1.1738  0.2889
  865MOL0     H16726   9.937   4.870   5.174  1.2948  0.7366  0.1749
  865MOL0     H16727   9.692   4.743   5.123  2.1583 -1.9617 -0.9358
  865MOL0     H16728   9.705   4.593   5.204 -0.3390 -1.1620  0.9711
  865MOL0     H16729   9.553   4.818   5.334 -0.3259 -0.1980  1.8188
  865MOL0     H16730   9.537   4.644   5.353  0.6402 -0.8603 -0.2037
  865MOL0     H16731   9.428   4.626   5.134 -0.5457 -0.6814  2.5969
  865MOL0     H16732   9.441   4.796   5.096 -1.6855 -0.4368 -0.5757
  865MOL0     H16733   9.235   4.786   5.176  0.5445  2.1839  1.0131
  865MOL0     H16734   9.309   4.821   5.335 -1.8402  2.0622 -0.6646
  865MOL0     H16735   9.114   4.424   5.298 -2.6133 -1.2980  0.7216
  865MOL0     H16736   8.794   4.321   5.349 -0.0432 -1.8886  0.8244
  865MOL0     H16737   8.947   4.265   5.360 -0.9211 -2.1857  1.7706
  865MOL0     H16738   8.864   4.306   5.515  0.7931 -0.4306  0.1947
  865MOL0     H16739   8.616   4.845   5.756 -0.1647  0.2371 -0.7401
  865MOL0     H16740   8.401   4.860   5.886 -0.7615  2.1513 -1.4723
  865MOL0     H16741   8.200   4.519   5.879  0.2909 -0.5027  0.6497
  865MOL0     H16742   8.156   4.624   6.012  0.1490 -3.3197  1.0462
  865MOL0     H16743   7.942   4.662   5.916 -0.5155 -0.8604  1.9552
  865MOL0     H16744   7.992   4.591   5.763  2.1043 -0.7573 -0.4795
  865MOL0     H16745   7.974   4.417   6.014 -3.5856  2.8536  0.5185
  865MOL0     H16746   8.028   4.365   5.855 -0.9477  0.4405 -1.4465
  865MOL0     H16747   7.824   4.414   5.760  3.0061  0.0652 -0.0180
  865MOL0     H16748   7.797   4.299   5.903 -1.6541  0.3615 -0.2220
  865MOL0     H16749   7.605   4.480   5.917 -1.9943  2.5195  0.5329
  865MOL0     H16750   7.718   4.604   5.912 -0.8576 -0.2155  0.3625
  865MOL0     H16751   7.731   4.381   6.112  0.4318 -0.0076 -2.2690
  865MOL0     H16752   7.818   4.533   6.122 -1.0128 -1.6208  3.5637
  865MOL0     H16753   7.517   4.494   6.152 -0.2039 -0.1686 -4.6018
  865MOL0     H16754   7.587   4.652   6.142  0.3937 -0.6461 -0.7124
  865MOL0     H16755   7.672   4.427   6.327 -1.0095 -0.5038 -1.3726
  865MOL0     H16756   7.545   4.539   6.371  0.0327  0.9442 -1.2362
  865MOL0     H16757   8.214   4.608   5.609 -0.7874  0.7932 -1.4831
  865MOL0     H16758   8.419   4.580   5.473 -1.7073 -0.5040  0.0022
  865MOL0     H16759   8.866   4.819   5.451 -0.8980 -0.7915  3.8364
  865MOL0     H16760   9.099   4.837   5.392 -1.9492  0.7458 -1.4095
  865MOL0     H16761  10.699   5.026   5.892  0.4213  0.9306  0.1885
  865MOL0     H16762  10.923   5.157   5.864  2.2307 -0.4346 -0.7166
  865MOL0     H16763  11.400   5.036   5.703 -1.0109 -0.6054  0.9633
  865MOL0     H16764  11.631   5.122   5.661  2.4360  1.9394  0.6537
  865MOL0     H16765  11.764   5.497   5.887  0.1426 -1.1182 -0.0590
  865MOL0     H16766  11.808   5.348   5.964 -0.5552  0.5297 -0.2556
  865MOL0     H16767  11.962   5.491   5.721 -0.9466  1.5139  1.8609
  865MOL0     H16768  11.983   5.327   5.786 -1.0284 -0.8808 -0.0904
  865MOL0     H16769  12.117   5.571   5.860  2.1324 -0.3315  0.6713
  865MOL0     H16770  12.135   5.413   5.932  2.5011  3.1641  0.0178
  865MOL0     H16771  11.967   5.467   6.099 -2.0862  1.2900  0.5116
  865MOL0     H16772  11.949   5.635   6.036  0.7314  1.1675  1.1543
  865MOL0     H16773  12.274   5.662   6.274  0.6079 -1.0933 -0.5678
  865MOL0     H16774  11.564   5.433   5.951  1.5538 -1.2171 -0.6951
  865MOL0     H16775  11.343   5.355   5.989  0.1420 -2.9247  1.9828
  866MOL0     O16776   3.911   2.348   1.824  0.9034 -0.1840  0.3555
  866MOL0     C16777   3.976   2.261   1.764 -0.3361 -0.6937 -0.1482
  866MOL0     O16778   3.950   2.211   1.644  0.5926  0.1274  0.2080
  866MOL0     C16779   3.866   2.280   1.563  0.1244 -0.1359 -0.0403
  866MOL0     C16780   3.729   2.306   1.599 -0.8209  0.0918  0.0239
  866MOL0     C16781   3.645   2.367   1.516  0.6077  0.4179 -0.0186
  866MOL0     C16782   3.697   2.416   1.397  0.2211 -0.3093  0.0184
  866MOL0     O16783   3.617   2.469   1.295  0.5080 -0.8773  0.0283
  866MOL0     C16784   3.473   2.471   1.310  0.0219 -0.5267 -0.0119
  866MOL0     C16785   3.406   2.542   1.190  0.2348 -0.2433  0.1795
  866MOL0     C16786   3.260   2.530   1.193  0.5088  0.2729  0.2890
  866MOL0     C16787   3.196   2.666   1.138  0.3950 -0.0681  0.4199
  866MOL0     C16788   3.067   2.637   1.066 -0.2328  0.4732  0.2970
  866MOL0     C16789   2.988   2.768   1.042 -0.2654 -0.3232 -0.3735
  866MOL0     C16790   2.882   2.760   0.932  0.7220  0.5112 -0.6337
  866MOL0     C16791   2.787   2.881   0.926  0.2366 -0.1835  0.7412
  866MOL0     N16792   2.719   2.883   0.798  0.3266 -0.1455 -0.4647
  866MOL0     C16793   2.622   2.796   0.740 -0.0487 -0.2286 -0.0033
  866MOL0     C16794   2.539   2.871   0.658 -0.0374 -0.8542  0.0157
  866MOL0     C16795   2.417   2.814   0.582 -0.5764 -0.4776  0.9462
  866MOL0     C16796   2.371   2.917   0.480 -0.8160  0.1237 -0.2100
  866MOL0     C16797   2.275   2.864   0.380 -0.0175 -0.2486  0.4068
  866MOL0     C16798   2.198   2.972   0.304  0.5987 -0.1501  0.2000
  866MOL0     O16799   2.129   3.064   0.385 -0.5959  0.4471  0.1559
  866MOL0     C16800   2.040   3.163   0.339  0.6786  0.5888  0.3367
  866MOL0     C16801   1.991   3.251   0.434 -0.2397  0.3870  0.5563
  866MOL0     C16802   1.906   3.358   0.413 -0.0630  0.3054 -0.4261
  866MOL0     C16803   1.860   3.449   0.523 -0.2793 -0.2253  0.3396
  866MOL0     C16804   1.858   3.370   0.276  0.4854 -0.2028  0.1006
  866MOL0     C16805   1.751   3.458   0.236 -0.0272 -0.4210  0.4129
  866MOL0     O16806   1.684   3.523   0.332  0.0472 -0.3271  0.2553
  866MOL0     C16807   1.566   3.581   0.317  0.0402 -0.4332 -0.0273
  866MOL0     C16808   1.466   3.554   0.222 -0.1023  0.2874  0.2952
  866MOL0     C16809   1.341   3.601   0.242  0.6700 -0.1394  0.1383
  866MOL0     C16810   1.305   3.691   0.348  0.6051  1.0547  0.2630
  866MOL0     O16811   1.183   3.754   0.357 -0.1701 -0.6105 -0.2345
  866MOL0     C16812   1.082   3.652   0.375  0.8764  0.7717  0.2601
  866MOL0     C16813   0.977   3.737   0.452 -0.6397 -0.3766 -0.6393
  866MOL0     C16814   0.853   3.665   0.504 -0.7223 -0.4099 -0.1545
  866MOL0     C16815   0.769   3.614   0.378 -0.8287  0.0207 -0.6301
  866MOL0     C16816   0.647   3.546   0.433 -0.1434  0.2953  0.1562
  866MOL0     C16817   0.540   3.643   0.494 -0.0706 -0.1359 -0.3441
  866MOL0     C16818   0.492   3.752   0.389 -0.4171  0.3902 -0.3484
  866MOL0     C16819   0.344   3.792   0.421 -0.3345 -0.3729  0.3530
  866MOL0    Cl16820   0.342   3.864   0.591  0.4282  0.3299 -0.0408
  866MOL0     C16821   1.407   3.732   0.426 -0.8646 -0.9950  0.8793
  866MOL0     C16822   1.537   3.672   0.421  0.2153 -0.6189  0.3176
  866MOL0     O16823   1.732   3.470   0.118 -0.4449 -0.0697  0.3139
  866MOL0     C16824   1.906   3.279   0.183  0.3119 -0.2248  1.1960
  866MOL0     C16825   1.999   3.185   0.206 -0.6819 -0.1902  0.2902
  866MOL0     N16826   2.597   3.000   0.649  0.1134 -0.0568 -0.8958
  866MOL0     N16827   2.697   3.006   0.736  0.1925 -0.1348  0.3838
  866MOL0     C16828   3.831   2.401   1.362 -0.1462  0.4572  0.2648
  866MOL0     C16829   3.917   2.336   1.444 -0.3705 -0.0458 -0.5598
  866MOL0     C16830   4.097   2.208   1.832 -0.6647 -0.4620  1.2139
  866MOL0     C16831   4.114   2.189   1.970 -0.5608  0.8062 -0.3890
  866MOL0     C16832   4.231   2.118   2.017  0.1739 -0.0704 -0.0156
  866MOL0     C16833   4.335   2.092   1.936 -0.3114 -0.4355  0.6973
  866MOL0     O16834   4.444   2.031   1.993 -0.0968  0.2462  0.0902
  866MOL0     C16835   4.563   2.004   1.913 -0.2787  0.4368 -0.2136
  866MOL0     C16836   4.682   1.929   1.975  0.0971 -0.2407  0.7474
  866MOL0     C16837   4.784   1.884   1.873 -1.1000  0.0654  0.0692
  866MOL0     C16838   4.905   1.808   1.945  1.0064 -0.5534  0.0700
  866MOL0     C16839   5.021   1.800   1.851  1.0805 -0.6369  0.7137
  866MOL0     C16840   5.099   1.800   1.757 -0.1206  0.7445 -0.4738
  866MOL0     C16841   4.328   2.130   1.809  0.4148 -0.0145 -0.2943
  866MOL0     C16842   4.213   2.195   1.752  0.6038  0.6662  0.2845
  866MOL0     H16843   3.695   2.247   1.683 -0.6906 -0.7434 -0.5008
  866MOL0     H16844   3.544   2.376   1.554  1.1293 -0.0472  1.5579
  866MOL0     H16845   3.430   2.371   1.323  0.6069 -1.1044 -2.2146
  866MOL0     H16846   3.452   2.515   1.409  0.6463 -1.4530  0.5485
  866MOL0     H16847   3.434   2.647   1.197  1.4087 -0.5093 -0.2795
  866MOL0     H16848   3.445   2.495   1.099  0.4612 -1.2263  0.7677
  866MOL0     H16849   3.233   2.446   1.128  0.4857  0.8547 -0.4756
  866MOL0     H16850   3.210   2.508   1.288 -3.4457  2.0197 -1.1567
  866MOL0     H16851   3.176   2.737   1.219  1.0302  0.6834 -0.0740
  866MOL0     H16852   3.264   2.704   1.062 -2.6511  1.0617 -1.9413
  866MOL0     H16853   3.065   2.586   0.969 -1.6939 -0.2172  0.6556
  866MOL0     H16854   3.013   2.577   1.140  3.7434 -4.2147 -0.0333
  866MOL0     H16855   2.931   2.787   1.133  0.2148  0.7070 -0.2710
  866MOL0     H16856   3.047   2.860   1.032 -0.0117 -0.4605 -0.1443
  866MOL0     H16857   2.931   2.753   0.835  2.0081  0.3362  0.0058
  866MOL0     H16858   2.821   2.670   0.944 -1.5166  1.6701 -2.5376
  866MOL0     H16859   2.851   2.969   0.930 -1.5605  1.2991 -1.1258
  866MOL0     H16860   2.708   2.869   1.001  0.3799  2.2993  1.3622
  866MOL0     H16861   2.593   2.695   0.771 -2.5892 -0.0653 -1.5601
  866MOL0     H16862   2.440   2.719   0.534 -1.0704  1.0792 -2.7237
  866MOL0     H16863   2.340   2.803   0.660 -1.6182 -1.7745 -0.2114
  866MOL0     H16864   2.456   2.963   0.430 -1.4769  1.2776 -0.3184
  866MOL0     H16865   2.327   3.005   0.526 -1.3856  1.2490 -2.7100
  866MOL0     H16866   2.204   2.806   0.439  0.0178  0.2771  0.9687
  866MOL0     H16867   2.318   2.798   0.304 -2.6219 -1.6372  0.0548
  866MOL0     H16868   2.132   2.922   0.232  2.0630 -1.1571 -0.4881
  866MOL0     H16869   2.267   3.023   0.236 -0.9343 -0.4958 -1.6953
  866MOL0     H16870   2.026   3.252   0.537 -0.3315  0.5278  0.5859
  866MOL0     H16871   1.867   3.552   0.489  0.5444 -1.0276 -2.1428
  866MOL0     H16872   1.759   3.423   0.559  0.3882  0.6737  3.0580
  866MOL0     H16873   1.925   3.446   0.611  0.2400 -0.4307 -0.0451
  866MOL0     H16874   1.476   3.490   0.134 -1.9184 -1.2647  1.1408
  866MOL0     H16875   1.265   3.580   0.167 -0.8246 -1.2674  1.8920
  866MOL0     H16876   1.035   3.628   0.279  0.1353 -0.9863  1.0038
  866MOL0     H16877   1.121   3.566   0.430 -0.9790  0.0538  0.5397
  866MOL0     H16878   1.031   3.775   0.540 -2.3321  1.0029 -0.1300
  866MOL0     H16879   0.953   3.831   0.401 -1.8869  0.9445  2.1341
  866MOL0     H16880   0.810   3.738   0.573  2.1352  1.1685  0.1124
  866MOL0     H16881   0.875   3.581   0.571  1.2656  1.0458  1.1258
  866MOL0     H16882   0.750   3.692   0.303 -1.6205 -0.5665 -1.0507
  866MOL0     H16883   0.818   3.532   0.324 -0.1847 -0.4856  0.6800
  866MOL0     H16884   0.681   3.465   0.498  0.9221 -0.7558 -1.6305
  866MOL0     H16885   0.601   3.492   0.350  0.2880  0.3556 -0.1271
  866MOL0     H16886   0.458   3.578   0.527 -0.3400 -0.1780 -1.0771
  866MOL0     H16887   0.585   3.703   0.573  1.0615  1.4481 -2.1056
  866MOL0     H16888   0.490   3.695   0.295 -1.8077 -0.5944  0.2381
  866MOL0     H16889   0.564   3.833   0.375  0.7808 -0.3976  1.0151
  866MOL0     H16890   0.273   3.709   0.411 -1.4360  0.5416  0.3564
  866MOL0     H16891   0.301   3.871   0.359 -0.3277  0.2630  1.1466
  866MOL0     H16892   1.388   3.800   0.509  0.9848 -1.0855  1.4358
  866MOL0     H16893   1.603   3.702   0.502 -1.2270  1.5297  0.7733
  866MOL0     H16894   1.873   3.277   0.079  0.0153  1.4188  1.2315
  866MOL0     H16895   2.036   3.133   0.119  1.1042  1.8874 -0.2918
  866MOL0     H16896   3.852   2.449   1.267 -1.6634 -1.6034 -1.2199
  866MOL0     H16897   4.020   2.322   1.412 -0.1561  3.0569 -1.5472
  866MOL0     H16898   4.031   2.211   2.037 -1.2522 -1.4210 -0.4085
  866MOL0     H16899   4.253   2.072   2.113  1.7238 -1.6251 -1.0390
  866MOL0     H16900   4.528   1.942   1.829 -1.3373 -2.3271  2.0987
  866MOL0     H16901   4.606   2.100   1.882  1.4404 -0.3910 -0.5685
  866MOL0     H16902   4.655   1.846   2.041 -2.4915 -1.0455 -1.1466
  866MOL0     H16903   4.739   1.996   2.040 -1.4559 -0.0082  1.9266
  866MOL0     H16904   4.820   1.971   1.817 -0.6089 -1.1329 -1.5584
  866MOL0     H16905   4.739   1.809   1.808 -2.3400  2.4330 -1.9644
  866MOL0     H16906   4.871   1.709   1.975  0.4772 -0.2854  0.3916
  866MOL0     H16907   4.930   1.865   2.035  2.3203  3.6138 -2.6378
  866MOL0     H16908   5.160   1.802   1.669 -0.7387  3.8786 -0.9722
  866MOL0     H16909   4.414   2.119   1.744 -1.0736  0.0508 -2.3881
  866MOL0     H16910   4.205   2.229   1.649 -0.4162  2.6459  0.9627
  867MOL0     O16911   7.764   1.401   8.401 -0.0235  0.5630 -0.1327
  867MOL0     C16912   7.773   1.402   8.524  0.5919 -0.0433  0.2924
  867MOL0     O16913   7.887   1.368   8.595 -0.4730  0.0823  0.0830
  867MOL0     C16914   8.012   1.336   8.546 -0.0552 -0.8497  0.1692
  867MOL0     C16915   8.110   1.336   8.644 -0.0078  0.3880 -0.4937
  867MOL0     C16916   8.238   1.288   8.628 -0.3074 -0.8565  0.5253
  867MOL0     C16917   8.273   1.252   8.499  0.3210 -0.3953  0.1878
  867MOL0     O16918   8.409   1.225   8.465  0.5051  0.0169 -0.5780
  867MOL0     C16919   8.468   1.335   8.392  0.4940 -0.2618 -0.7775
  867MOL0     C16920   8.596   1.370   8.462 -0.7724 -0.0488  0.6605
  867MOL0     C16921   8.701   1.260   8.455 -0.1550  0.3293 -0.3043
  867MOL0     C16922   8.833   1.312   8.517 -0.6914  0.3877 -0.1018
  867MOL0     C16923   8.951   1.222   8.525  0.1352  0.6296  0.8261
  867MOL0     C16924   9.074   1.293   8.588  0.3668 -0.5900 -0.0741
  867MOL0     C16925   9.213   1.232   8.542 -0.4293  0.3282  0.1071
  867MOL0     C16926   9.248   1.102   8.602 -0.3496 -0.0931  0.8632
  867MOL0     N16927   9.296   1.095   8.735  0.5491  1.1641 -0.0845
  867MOL0     C16928   9.218   1.121   8.853 -0.0080  0.4264  0.1043
  867MOL0     C16929   9.298   1.089   8.953 -0.3835 -0.8531  0.2676
  867MOL0     C16930   9.243   1.104   9.099 -0.2755  0.7537 -0.0294
  867MOL0     C16931   9.261   0.968   9.174 -0.1102 -0.6849  0.2613
  867MOL0     C16932   9.176   0.970   9.303  0.0027 -0.8579  0.3881
  867MOL0     C16933   9.114   0.839   9.345  0.1490  0.9527 -0.6746
  867MOL0     O16934   9.007   0.797   9.267 -0.0520 -0.4499  0.1246
  867MOL0     C16935   8.933   0.691   9.313 -0.6281  0.5246  0.8526
  867MOL0     C16936   8.825   0.667   9.224 -0.1171 -0.2701 -0.3110
  867MOL0     C16937   8.729   0.562   9.252 -0.5257 -0.8385  0.8913
  867MOL0     C16938   8.623   0.534   9.152 -0.6749 -0.5493  0.0214
  867MOL0     C16939   8.744   0.485   9.369  0.1044 -0.2288  0.3166
  867MOL0     C16940   8.667   0.373   9.392  1.5368  0.1222  0.4003
  867MOL0     O16941   8.542   0.404   9.439  0.3202 -0.5277  0.3837
  867MOL0     C16942   8.435   0.331   9.410  0.4474 -0.0616  0.5475
  867MOL0     C16943   8.321   0.355   9.487 -1.0555 -0.3853  0.4069
  867MOL0     C16944   8.206   0.287   9.463 -0.0014 -0.5056 -0.2882
  867MOL0     C16945   8.189   0.202   9.353  0.1752  0.9935 -0.7375
  867MOL0     O16946   8.065   0.150   9.336  0.8160 -0.1694 -0.5163
  867MOL0     C16947   8.039   0.062   9.223 -0.8391 -0.0735  1.3053
  867MOL0     C16948   7.886   0.057   9.215 -0.3045  0.3822  0.3017
  867MOL0     C16949   7.828   0.010   9.341  0.0800  0.3214 -0.0010
  867MOL0     C16950   7.679   0.001   9.313  0.0232 -0.4185  0.0727
  867MOL0     C16951   7.605  -0.064   9.428  0.7127  0.1322 -0.1359
  867MOL0     C16952   7.457  -0.095   9.398  0.3691 -1.1668 -0.3001
  867MOL0     C16953   7.370  -0.159   9.502 -0.3463  0.0471 -0.8101
  867MOL0     C16954   7.244  -0.209   9.425 -0.5867 -0.2378  0.2540
  867MOL0    Cl16955   7.105  -0.251   9.527  0.2556 -0.2806 -0.1579
  867MOL0     C16956   8.302   0.162   9.284 -0.1697  0.0728  0.9859
  867MOL0     C16957   8.423   0.227   9.313 -0.6721 -0.6919  0.4096
  867MOL0     O16958   8.710   0.257   9.390 -0.3525  1.2307  0.6155
  867MOL0     C16959   8.860   0.507   9.448 -0.1550 -0.1649  0.3102
  867MOL0     C16960   8.954   0.608   9.424  0.0960  0.2048 -0.3859
  867MOL0     N16961   9.425   1.056   8.902  0.0078  0.0479 -0.2840
  867MOL0     N16962   9.421   1.056   8.770  0.7034 -0.6189 -0.6075
  867MOL0     C16963   8.180   1.261   8.386 -0.2469  0.3150 -1.0221
  867MOL0     C16964   8.054   1.311   8.412  0.2641  0.2036 -0.2771
  867MOL0     C16965   7.663   1.448   8.599  0.0530 -0.0798  0.9303
  867MOL0     C16966   7.667   1.476   8.739  0.8989  0.6641  0.3387
  867MOL0     C16967   7.558   1.519   8.813  0.4492  0.4788  0.2632
  867MOL0     C16968   7.434   1.545   8.747  0.2352  0.3634 -0.5544
  867MOL0     O16969   7.312   1.567   8.805 -0.4495 -0.0578  0.4244
  867MOL0     C16970   7.309   1.550   8.946 -0.1579  0.0246 -0.5488
  867MOL0     C16971   7.164   1.543   8.999 -0.3757  0.0884  0.0955
  867MOL0     C16972   7.072   1.446   8.924  0.5001  0.2802  0.2462
  867MOL0     C16973   6.931   1.431   8.987 -0.3494 -0.5964 -0.0939
  867MOL0     C16974   6.855   1.337   8.917  0.2440  0.4619 -0.1771
  867MOL0     C16975   6.773   1.261   8.870  0.1649  0.2965 -0.0237
  867MOL0     C16976   7.435   1.532   8.608 -0.1154  0.1115 -0.2846
  867MOL0     C16977   7.535   1.469   8.536 -0.1766  1.1245 -0.1444
  867MOL0     H16978   8.082   1.355   8.747  1.4867  3.1072 -0.4984
  867MOL0     H16979   8.298   1.276   8.717 -0.2145 -0.4330  0.5223
  867MOL0     H16980   8.496   1.303   8.291 -2.7930  1.2054 -2.3025
  867MOL0     H16981   8.405   1.425   8.387  1.8227  0.6383 -2.7460
  867MOL0     H16982   8.626   1.470   8.430 -1.2855 -0.2678 -0.5734
  867MOL0     H16983   8.578   1.360   8.569  1.4341 -1.6690  0.9356
  867MOL0     H16984   8.660   1.171   8.503 -1.3269  0.6743 -0.6063
  867MOL0     H16985   8.725   1.227   8.354  0.4978 -1.2077  0.3235
  867MOL0     H16986   8.868   1.386   8.445  1.5637  0.2218  0.7426
  867MOL0     H16987   8.813   1.355   8.615 -1.3034 -1.4131  0.6097
  867MOL0     H16988   8.928   1.127   8.575  1.8874 -0.5215 -0.4829
  867MOL0     H16989   8.966   1.190   8.422 -0.4828  1.7386  0.3712
  867MOL0     H16990   9.073   1.397   8.554  1.7112 -0.5495 -0.0764
  867MOL0     H16991   9.056   1.290   8.696 -0.2250  0.6209 -0.1275
  867MOL0     H16992   9.218   1.240   8.433 -1.1849  1.3979  0.1410
  867MOL0     H16993   9.284   1.304   8.585  0.7937 -1.7888  1.8754
  867MOL0     H16994   9.323   1.059   8.535  0.7773  0.5638  1.6624
  867MOL0     H16995   9.161   1.037   8.595 -0.3475  0.0684 -2.0487
  867MOL0     H16996   9.114   1.151   8.857 -0.1031  0.3496 -1.2377
  867MOL0     H16997   9.308   1.178   9.148  0.2752  0.3530 -0.1440
  867MOL0     H16998   9.137   1.130   9.099 -0.6396 -0.6753 -0.2316
  867MOL0     H16999   9.368   0.959   9.196 -0.1870 -2.5041  0.0423
  867MOL0     H17000   9.225   0.887   9.111  1.2716 -0.6443 -0.6131
  867MOL0     H17001   9.098   1.046   9.298  0.8490 -0.0570 -2.1507
  867MOL0     H17002   9.244   1.001   9.382  0.0839 -2.3186  0.9254
  867MOL0     H17003   9.072   0.851   9.445  0.1305  1.2645 -0.7184
  867MOL0     H17004   9.190   0.763   9.362 -0.6004  0.4592  0.5579
  867MOL0     H17005   8.814   0.729   9.136  1.2461 -0.0679 -0.3715
  867MOL0     H17006   8.648   0.432   9.121  1.1029 -1.1432  3.0098
  867MOL0     H17007   8.517   0.538   9.180 -1.0918  1.7866 -1.6138
  867MOL0     H17008   8.631   0.613   9.077 -0.0120 -0.1327  0.5238
  867MOL0     H17009   8.331   0.428   9.566  0.9638  2.7544 -2.4474
  867MOL0     H17010   8.123   0.308   9.529  1.6703 -1.0597  2.1183
  867MOL0     H17011   8.066   0.103   9.126 -4.0364 -1.4467 -0.2965
  867MOL0     H17012   8.087  -0.035   9.230 -2.4296 -1.2920 -2.5024
  867MOL0     H17013   7.848   0.156   9.189 -0.2908  0.7903  1.7860
  867MOL0     H17014   7.859  -0.014   9.136 -0.7409  0.5674  0.2792
  867MOL0     H17015   7.850   0.080   9.423 -1.0253  0.3462  0.2953
  867MOL0     H17016   7.852  -0.095   9.362 -3.5254 -1.0543 -1.8322
  867MOL0     H17017   7.636   0.100   9.291 -2.9673 -1.6054  0.0444
  867MOL0     H17018   7.663  -0.060   9.224  2.2797 -1.5078  0.3488
  867MOL0     H17019   7.614   0.010   9.508  0.4449  0.9292 -0.8361
  867MOL0     H17020   7.652  -0.158   9.459  2.0329  0.3998 -1.1989
  867MOL0     H17021   7.409  -0.008   9.353  4.8999  0.3384 -2.8144
  867MOL0     H17022   7.467  -0.175   9.325  0.7061  0.5447 -2.1991
  867MOL0     H17023   7.337  -0.089   9.579 -1.7375  0.5779 -1.8531
  867MOL0     H17024   7.424  -0.238   9.555 -0.7311 -0.1899 -0.7717
  867MOL0     H17025   7.278  -0.294   9.365 -0.8652  0.7899 -1.4240
  867MOL0     H17026   7.207  -0.143   9.346  2.3169 -0.1873 -1.2041
  867MOL0     H17027   8.303   0.092   9.202  2.0106 -0.1325  1.1317
  867MOL0     H17028   8.505   0.201   9.247 -1.4960  0.9544 -1.3616
  867MOL0     H17029   8.884   0.444   9.533  2.0643 -1.2117 -1.0099
  867MOL0     H17030   9.047   0.620   9.477 -0.1352 -3.3064  1.0227
  867MOL0     H17031   8.207   1.235   8.285  0.4872  0.8849 -0.9795
  867MOL0     H17032   7.984   1.313   8.329  0.0500  1.0770 -0.0853
  867MOL0     H17033   7.753   1.455   8.802  0.7670 -1.1768 -0.0460
  867MOL0     H17034   7.554   1.517   8.922 -1.8733  0.0707  0.2226
  867MOL0     H17035   7.361   1.458   8.974  0.7790  0.0950 -1.9315
  867MOL0     H17036   7.365   1.631   8.993  1.5196 -1.8760  0.9485
  867MOL0     H17037   7.109   1.637   8.990 -1.4626 -0.5747 -0.4024
  867MOL0     H17038   7.184   1.507   9.101  1.9675  0.6242 -0.1202
  867MOL0     H17039   7.124   1.350   8.916  1.9967  0.8306  2.3875
  867MOL0     H17040   7.066   1.466   8.817  0.6361  0.7085  0.3178
  867MOL0     H17041   6.887   1.531   8.994  2.6131  0.8053  0.1267
  867MOL0     H17042   6.949   1.396   9.089  2.1761  0.7960  0.0486
  867MOL0     H17043   6.698   1.186   8.854  2.3544 -2.4539  1.5632
  867MOL0     H17044   7.346   1.566   8.555  0.6627  0.9962 -1.0480
  867MOL0     H17045   7.511   1.442   8.434 -2.2905 -3.1719  1.2204
  868MOL0     O17046   6.041   8.272   6.423  0.1930 -0.4803 -0.6848
  868MOL0     C17047   6.099   8.385   6.440  0.1530 -0.5960 -0.0558
  868MOL0     O17048   6.034   8.502   6.416  0.4613 -0.6768 -0.4243
  868MOL0     C17049   5.913   8.496   6.354  0.1926  0.0696  0.2264
  868MOL0     C17050   5.816   8.583   6.413  0.6470 -0.8155  0.0921
  868MOL0     C17051   5.692   8.577   6.354  0.5149 -0.6434  0.5578
  868MOL0     C17052   5.647   8.497   6.249 -0.5741 -0.1633 -0.6995
  868MOL0     O17053   5.517   8.505   6.205  0.3796  0.0898  0.0436
  868MOL0     C17054   5.469   8.395   6.127  0.3469  0.7233  0.0717
  868MOL0     C17055   5.334   8.439   6.074  0.0681 -0.9834  0.4528
  868MOL0     C17056   5.237   8.477   6.184  0.5539  0.3224 -0.2170
  868MOL0     C17057   5.112   8.519   6.121  0.1324  0.0575  0.5179
  868MOL0     C17058   5.004   8.554   6.230 -0.1603 -0.0832 -0.0554
  868MOL0     C17059   4.867   8.566   6.150 -0.7187 -0.8482 -0.4191
  868MOL0     C17060   4.755   8.651   6.206  0.2469  0.6741 -0.3887
  868MOL0     C17061   4.782   8.802   6.188  0.2317  0.5006 -0.5607
  868MOL0     N17062   4.788   8.847   6.053 -0.7141  0.7002  0.8179
  868MOL0     C17063   4.689   8.858   5.966  0.5105 -0.4175  0.5310
  868MOL0     C17064   4.744   8.921   5.854 -0.1583  0.1324 -0.3653
  868MOL0     C17065   4.658   8.954   5.732 -1.0273 -0.3739 -0.7004
  868MOL0     C17066   4.539   9.032   5.764  0.2615 -0.0447 -0.1093
  868MOL0     C17067   4.479   9.099   5.639  0.2381  0.6531  0.6902
  868MOL0     C17068   4.326   9.147   5.642 -0.9065 -0.7216  0.1122
  868MOL0     O17069   4.222   9.041   5.666  0.3017  0.1786  0.1170
  868MOL0     C17070   4.089   9.081   5.686  0.0242  0.8990 -1.2656
  868MOL0     C17071   4.038   9.205   5.664  0.0566 -0.0648  0.4489
  868MOL0     C17072   3.903   9.244   5.676 -0.1514  0.5985  0.3651
  868MOL0     C17073   3.872   9.396   5.639 -0.3481  0.3044  0.0142
  868MOL0     C17074   3.805   9.146   5.711  0.1226 -0.8911  0.0906
  868MOL0     C17075   3.659   9.160   5.715  0.3354 -0.2337 -0.3688
  868MOL0     O17076   3.609   9.286   5.692  0.3738 -0.2361 -0.4209
  868MOL0     C17077   3.472   9.308   5.722  0.0116 -0.2462 -0.3595
  868MOL0     C17078   3.419   9.270   5.843  0.3930 -0.5155  0.7058
  868MOL0     C17079   3.279   9.292   5.855  0.9934 -0.3446  0.0575
  868MOL0     C17080   3.199   9.345   5.757 -1.3589  0.3878  1.3086
  868MOL0     O17081   3.066   9.366   5.773 -0.3340  0.3162  0.5459
  868MOL0     C17082   3.033   9.508   5.789 -0.0359 -0.0620 -0.2697
  868MOL0     C17083   2.921   9.522   5.896  0.1052  0.2819  0.8118
  868MOL0     C17084   2.795   9.435   5.852  0.2193  0.1093 -0.4236
  868MOL0     C17085   2.740   9.457   5.706 -0.1554 -0.1641 -0.2927
  868MOL0     C17086   2.603   9.398   5.666  0.3644 -0.3473 -0.0228
  868MOL0     C17087   2.482   9.435   5.760 -0.2418 -0.0579 -1.1896
  868MOL0     C17088   2.341   9.372   5.717  0.6892 -0.0332 -0.1810
  868MOL0     C17089   2.225   9.370   5.817 -0.3579 -0.4060  0.1212
  868MOL0    Cl17090   2.197   9.533   5.884 -0.2343  0.4153 -0.4685
  868MOL0     C17091   3.253   9.384   5.632 -0.2558  1.0599  0.3259
  868MOL0     C17092   3.393   9.366   5.621 -0.0019 -0.5541  0.1861
  868MOL0     O17093   3.592   9.056   5.737  0.3491 -0.4307  0.0838
  868MOL0     C17094   3.859   9.013   5.730  0.3587 -0.2179 -0.0368
  868MOL0     C17095   3.996   8.975   5.713  0.5222 -0.6998  0.1335
  868MOL0     N17096   4.865   8.965   5.884 -1.3220 -0.3154  0.3757
  868MOL0     N17097   4.890   8.921   6.002 -0.0036 -0.1213  0.1971
  868MOL0     C17098   5.745   8.404   6.193  0.3598  0.4304  0.2446
  868MOL0     C17099   5.876   8.407   6.238 -0.3163  0.3121  0.4590
  868MOL0     C17100   6.246   8.391   6.481  0.1767  0.2971 -0.0788
  868MOL0     C17101   6.319   8.270   6.493  0.1617  0.3121 -0.9652
  868MOL0     C17102   6.451   8.269   6.549 -0.5340  0.7861 -0.2433
  868MOL0     C17103   6.516   8.381   6.582  0.2005 -0.1595  0.1380
  868MOL0     O17104   6.647   8.398   6.629  1.1495 -0.5248 -0.0521
  868MOL0     C17105   6.715   8.274   6.633 -0.2232  0.9740  0.5743
  868MOL0     C17106   6.859   8.297   6.669  0.3088  1.2132  0.2683
  868MOL0     C17107   6.878   8.374   6.802 -0.5480  0.2875  0.2184
  868MOL0     C17108   7.024   8.392   6.835  0.3603 -0.5463  0.3455
  868MOL0     C17109   7.054   8.487   6.938 -0.2315 -0.0764  0.0097
  868MOL0     C17110   7.074   8.567   7.028  0.4045  0.3720  0.0461
  868MOL0     C17111   6.447   8.501   6.564  0.3679  0.1496 -0.3026
  868MOL0     C17112   6.314   8.511   6.515  0.2330  0.8610  1.3664
  868MOL0     H17113   5.843   8.658   6.486  1.4926 -1.9125  0.9303
  868MOL0     H17114   5.622   8.642   6.406 -1.3417 -2.6736  0.7391
  868MOL0     H17115   5.535   8.368   6.044 -0.1887 -3.3234  0.7497
  868MOL0     H17116   5.474   8.308   6.194 -0.0051  0.5755 -0.0949
  868MOL0     H17117   5.353   8.524   6.009  2.1824 -2.3575 -0.8701
  868MOL0     H17118   5.295   8.359   6.011  1.8923 -0.1861 -1.8079
  868MOL0     H17119   5.215   8.393   6.251  0.0759  1.4739  1.1185
  868MOL0     H17120   5.284   8.552   6.247  2.3798  0.4649 -1.6363
  868MOL0     H17121   5.146   8.602   6.059  2.4064  1.3546  3.2400
  868MOL0     H17122   5.079   8.437   6.057  2.9465 -1.0851  0.3710
  868MOL0     H17123   4.985   8.472   6.301  0.0347 -0.2650 -0.2096
  868MOL0     H17124   5.019   8.650   6.280 -2.9188  0.5948 -0.4017
  868MOL0     H17125   4.891   8.614   6.055 -1.6707 -1.1151 -0.7982
  868MOL0     H17126   4.831   8.465   6.131 -0.5230 -1.5511  2.4887
  868MOL0     H17127   4.661   8.624   6.156  0.3733 -0.8505  0.1545
  868MOL0     H17128   4.754   8.649   6.315 -1.2219  1.0277 -0.3751
  868MOL0     H17129   4.877   8.825   6.237  0.3456  0.4421 -0.7531
  868MOL0     H17130   4.712   8.859   6.250  3.0576  1.3841  2.0423
  868MOL0     H17131   4.589   8.815   5.969 -0.0675  0.3532 -2.7906
  868MOL0     H17132   4.721   9.001   5.656  1.5322 -1.9874  0.2767
  868MOL0     H17133   4.627   8.867   5.674 -1.6260  0.6764 -2.0232
  868MOL0     H17134   4.568   9.120   5.821  1.6999  0.9245 -2.1936
  868MOL0     H17135   4.463   8.966   5.806 -1.8571  1.5194 -1.3090
  868MOL0     H17136   4.490   9.028   5.557  2.7647  0.9613  0.6763
  868MOL0     H17137   4.538   9.187   5.610 -0.9812  1.3227  0.1541
  868MOL0     H17138   4.304   9.211   5.557 -0.9003 -0.7041  0.1236
  868MOL0     H17139   4.316   9.211   5.730 -0.7091  0.7955 -0.9352
  868MOL0     H17140   4.106   9.279   5.624 -0.0486 -0.4739 -0.5000
  868MOL0     H17141   3.968   9.449   5.631 -0.5624  0.5670 -0.9244
  868MOL0     H17142   3.815   9.398   5.546  0.7067  0.6237 -0.6527
  868MOL0     H17143   3.811   9.436   5.721 -1.0102 -2.2782  0.8470
  868MOL0     H17144   3.472   9.215   5.920 -0.0975  1.4339  2.5043
  868MOL0     H17145   3.236   9.288   5.954 -0.6228 -1.9742 -0.6528
  868MOL0     H17146   3.116   9.572   5.822 -0.7995  0.0602  1.5231
  868MOL0     H17147   2.991   9.546   5.695 -2.7139  0.4685  1.0430
  868MOL0     H17148   2.952   9.476   5.991 -3.1792  0.2257  1.9928
  868MOL0     H17149   2.882   9.619   5.927 -0.4541 -0.3817  2.2912
  868MOL0     H17150   2.711   9.472   5.912  1.5903 -0.0000  1.6602
  868MOL0     H17151   2.813   9.327   5.861 -1.1736  0.0072  1.9789
  868MOL0     H17152   2.733   9.566   5.691  0.3445  0.0764  1.0506
  868MOL0     H17153   2.810   9.416   5.633 -0.3925  0.4334 -0.8644
  868MOL0     H17154   2.614   9.289   5.660  1.5733 -0.3408  1.6149
  868MOL0     H17155   2.577   9.436   5.566 -1.3121 -1.3500 -0.0131
  868MOL0     H17156   2.498   9.401   5.863 -1.3344  1.1944 -0.5721
  868MOL0     H17157   2.479   9.544   5.768 -3.7816 -0.1124 -0.0386
  868MOL0     H17158   2.366   9.278   5.668  1.1177  0.6179 -1.2444
  868MOL0     H17159   2.312   9.434   5.631 -0.6555 -0.4981 -0.0951
  868MOL0     H17160   2.249   9.301   5.898 -1.6720 -2.2902 -1.0138
  868MOL0     H17161   2.129   9.337   5.777 -1.3756  1.9845  0.3851
  868MOL0     H17162   3.192   9.422   5.551 -0.3318  0.4202  0.0737
  868MOL0     H17163   3.452   9.401   5.537  0.4155  0.0742  0.7253
  868MOL0     H17164   3.797   8.925   5.747 -0.1532  0.0891 -0.2791
  868MOL0     H17165   4.019   8.869   5.724 -1.2078 -1.3470 -1.7967
  868MOL0     H17166   5.716   8.332   6.117  1.3886  0.2152  0.0409
  868MOL0     H17167   5.956   8.347   6.194  1.3738  3.9268 -1.9028
  868MOL0     H17168   6.273   8.177   6.461 -1.0375  0.4932  0.1488
  868MOL0     H17169   6.492   8.168   6.557 -2.7892 -0.1801 -0.1428
  868MOL0     H17170   6.678   8.206   6.710 -0.9273  0.6458 -0.0394
  868MOL0     H17171   6.714   8.228   6.533 -0.9246  0.4098  0.8294
  868MOL0     H17172   6.903   8.360   6.591  1.8961  0.5556  0.6027
  868MOL0     H17173   6.917   8.205   6.666 -1.3054  0.1816 -2.2605
  868MOL0     H17174   6.833   8.325   6.889 -3.0833  1.4547 -0.3507
  868MOL0     H17175   6.830   8.472   6.792 -1.0657  0.1158  0.9380
  868MOL0     H17176   7.086   8.415   6.748 -1.0121 -2.0059 -1.0943
  868MOL0     H17177   7.057   8.296   6.875  0.4060 -1.0661 -0.8864
  868MOL0     H17178   7.104   8.617   7.118 -0.0731  2.1214 -0.7282
  868MOL0     H17179   6.499   8.596   6.570 -1.9492  1.4358  1.3695
  868MOL0     H17180   6.261   8.605   6.525  0.8101  1.1950  1.3430
  869MOL0     O17181   5.016   0.692  10.018 -0.1751 -0.6439 -0.0677
  869MOL0     C17182   5.039   0.731   9.902  0.9791 -0.3135  0.8793
  869MOL0     O17183   4.942   0.750   9.804  0.1277  0.3599 -0.1777
  869MOL0     C17184   4.805   0.756   9.831 -0.1606 -0.7297 -0.3203
  869MOL0     C17185   4.738   0.674   9.923 -0.4678  0.6494  0.7312
  869MOL0     C17186   4.609   0.704   9.961 -0.0638 -0.7987  1.1013
  869MOL0     C17187   4.533   0.802   9.880 -0.6943 -0.9839 -0.4317
  869MOL0     O17188   4.397   0.811   9.909  0.4954  0.4721  0.4748
  869MOL0     C17189   4.306   0.876   9.819  0.7869 -0.1382 -0.0413
  869MOL0     C17190   4.166   0.827   9.856  0.0118  0.2954  0.0995
  869MOL0     C17191   4.054   0.893   9.785  0.6066 -0.4251 -0.2938
  869MOL0     C17192   3.911   0.846   9.834 -0.7944  0.1967 -0.6154
  869MOL0     C17193   3.796   0.937   9.794  0.4962 -0.0323  0.1841
  869MOL0     C17194   3.665   0.869   9.767 -0.2271 -0.6718 -0.1019
  869MOL0     C17195   3.577   0.973   9.699 -1.2076 -0.4793  1.0438
  869MOL0     C17196   3.433   0.943   9.693  0.3213 -0.7731 -0.3782
  869MOL0     N17197   3.364   1.057   9.624  0.4404  0.8187 -0.4774
  869MOL0     C17198   3.296   1.162   9.676 -0.0288  1.4585 -0.1886
  869MOL0     C17199   3.254   1.232   9.565  0.0802 -0.5512 -0.1685
  869MOL0     C17200   3.177   1.362   9.565  0.2064  0.1956 -0.4469
  869MOL0     C17201   3.050   1.378   9.495 -0.0667  0.5210  0.0801
  869MOL0     C17202   3.035   1.341   9.350  0.3696 -0.2833 -0.4477
  869MOL0     C17203   2.890   1.375   9.309 -0.3334  0.6029 -0.5183
  869MOL0     O17204   2.856   1.511   9.317 -0.4015  1.1237 -0.1763
  869MOL0     C17205   2.718   1.526   9.319 -0.2055  0.4427  0.1428
  869MOL0     C17206   2.668   1.645   9.361 -0.5632  0.2812  0.4795
  869MOL0     C17207   2.532   1.672   9.368 -0.0176 -1.0650  0.2389
  869MOL0     C17208   2.494   1.806   9.428  0.1088 -0.2122  0.3537
  869MOL0     C17209   2.443   1.576   9.305 -0.3303  0.1857 -0.4902
  869MOL0     C17210   2.302   1.614   9.281  0.1621  0.3587  0.4687
  869MOL0     O17211   2.206   1.527   9.309  0.1406 -0.1663 -0.0432
  869MOL0     C17212   2.080   1.574   9.308 -0.7695  0.7193  0.2984
  869MOL0     C17213   2.000   1.538   9.191 -0.7084  0.1529 -0.7527
  869MOL0     C17214   1.876   1.604   9.162  0.6139 -0.0044  0.1498
  869MOL0     C17215   1.818   1.698   9.247 -0.1981  0.1475  0.2564
  869MOL0     O17216   1.692   1.743   9.212 -0.0209 -0.6586 -0.3194
  869MOL0     C17217   1.621   1.832   9.301  0.8263  0.3308 -0.0941
  869MOL0     C17218   1.488   1.890   9.249  0.0183  0.3602  0.4180
  869MOL0     C17219   1.412   2.003   9.333 -0.3501  0.7408  0.0823
  869MOL0     C17220   1.275   2.040   9.272  1.2085 -0.1185  0.1459
  869MOL0     C17221   1.220   2.174   9.328 -0.6700 -0.1260  0.6429
  869MOL0     C17222   1.116   2.232   9.226  0.4795  0.7843  0.5102
  869MOL0     C17223   1.066   2.376   9.256  0.4147  0.5329  0.6777
  869MOL0     C17224   0.943   2.423   9.179 -0.1953  0.1909 -0.5813
  869MOL0    Cl17225   0.995   2.507   9.027  0.0418 -0.4018 -0.0104
  869MOL0     C17226   1.894   1.734   9.358  0.3360  0.2109  0.8449
  869MOL0     C17227   2.026   1.675   9.391  0.1786 -0.5122 -0.8792
  869MOL0     O17228   2.278   1.727   9.237  0.1394  0.6203 -0.3238
  869MOL0     C17229   2.498   1.452   9.271 -0.2640 -0.4815 -0.3458
  869MOL0     C17230   2.632   1.434   9.264  0.5858  0.3643 -0.8008
  869MOL0     N17231   3.288   1.160   9.452  0.7354 -0.4885  0.0098
  869MOL0     N17232   3.361   1.064   9.490 -0.3674 -0.0007 -0.0509
  869MOL0     C17233   4.599   0.878   9.785 -0.2222  0.3364 -1.3380
  869MOL0     C17234   4.735   0.853   9.763  0.3298 -0.5890 -0.0470
  869MOL0     C17235   5.180   0.733   9.860  0.2790 -0.3536  0.3232
  869MOL0     C17236   5.214   0.807   9.738 -0.0884 -0.0032 -0.3228
  869MOL0     C17237   5.346   0.806   9.689 -0.5894 -0.7867  0.1643
  869MOL0     C17238   5.449   0.755   9.763 -0.4014  0.2691 -0.3549
  869MOL0     O17239   5.574   0.780   9.710  0.7782 -0.1028  0.1945
  869MOL0     C17240   5.676   0.779   9.805  0.8849 -0.3287  0.3361
  869MOL0     C17241   5.795   0.852   9.732 -0.3169  0.1147 -0.6221
  869MOL0     C17242   5.883   0.927   9.834  0.2798  0.0766 -0.0177
  869MOL0     C17243   6.012   0.969   9.761  0.1686 -0.3365 -0.1330
  869MOL0     C17244   6.105   0.859   9.719  0.2704 -0.4016  0.4140
  869MOL0     C17245   6.161   0.755   9.685 -0.2943  0.0670 -0.0643
  869MOL0     C17246   5.421   0.698   9.891  0.4622  0.1578 -0.4465
  869MOL0     C17247   5.294   0.696   9.939 -0.0507  0.6049 -0.4719
  869MOL0     H17248   4.797   0.601   9.977 -0.3128  0.7425  0.6880
  869MOL0     H17249   4.560   0.636  10.030  1.0065 -0.7148  1.9536
  869MOL0     H17250   4.301   0.981   9.849 -1.1868  0.0058 -0.7176
  869MOL0     H17251   4.325   0.851   9.714  3.1678  1.2628 -0.0125
  869MOL0     H17252   4.163   0.725   9.817  0.7042 -0.1053  1.0701
  869MOL0     H17253   4.145   0.840   9.962  2.1778  2.0773  0.3839
  869MOL0     H17254   4.060   0.999   9.813 -1.1271  0.1553 -1.9482
  869MOL0     H17255   4.061   0.881   9.677  1.6375 -2.7217 -0.0363
  869MOL0     H17256   3.893   0.747   9.791  0.6437 -0.7856  0.9129
  869MOL0     H17257   3.917   0.830   9.942  0.4345  1.6475 -0.4255
  869MOL0     H17258   3.787   1.019   9.866  1.0698 -1.6385  2.1451
  869MOL0     H17259   3.817   0.995   9.703  1.7065 -0.9938 -0.1683
  869MOL0     H17260   3.690   0.781   9.707  1.5410  1.3054 -2.4184
  869MOL0     H17261   3.610   0.848   9.860 -1.0330  0.9776 -0.1729
  869MOL0     H17262   3.573   1.063   9.761  0.8000 -0.3187  1.0017
  869MOL0     H17263   3.624   0.988   9.601  0.4311  0.3875  1.9226
  869MOL0     H17264   3.400   0.938   9.797  2.6783  2.1695  0.6375
  869MOL0     H17265   3.419   0.845   9.645  0.2564 -2.0529  2.1059
  869MOL0     H17266   3.280   1.178   9.782 -0.7600 -1.4275  0.2226
  869MOL0     H17267   3.154   1.376   9.671 -4.3841  0.0231 -1.2094
  869MOL0     H17268   3.251   1.442   9.550  0.6870 -0.0461  0.5638
  869MOL0     H17269   3.016   1.481   9.510 -2.9249  0.0430 -2.1119
  869MOL0     H17270   2.972   1.323   9.547 -1.7489  1.8259 -0.9416
  869MOL0     H17271   3.058   1.234   9.349  1.5862 -0.0565  0.7438
  869MOL0     H17272   3.107   1.392   9.285  0.2146  1.2303  0.4986
  869MOL0     H17273   2.820   1.315   9.368  0.2525 -1.4353 -1.7863
  869MOL0     H17274   2.879   1.350   9.203 -0.2049 -0.2717 -0.3367
  869MOL0     H17275   2.738   1.726   9.382 -0.4495  0.3425 -0.1267
  869MOL0     H17276   2.414   1.802   9.502 -0.0080  0.1088  0.2480
  869MOL0     H17277   2.580   1.857   9.473  0.4350 -2.6665  2.8026
  869MOL0     H17278   2.451   1.875   9.355  0.5902 -0.3236 -0.0379
  869MOL0     H17279   2.044   1.459   9.131 -0.1771 -0.3975  0.3296
  869MOL0     H17280   1.823   1.567   9.075  0.0362  1.4440 -0.1509
  869MOL0     H17281   1.600   1.787   9.399  0.6694  0.9665  0.1722
  869MOL0     H17282   1.686   1.919   9.317 -1.8831  2.3271  0.9798
  869MOL0     H17283   1.488   1.920   9.144 -1.3900 -1.7933 -0.2746
  869MOL0     H17284   1.425   1.801   9.259  0.3337  0.2486  1.4715
  869MOL0     H17285   1.471   2.096   9.335 -2.4803  2.2075  3.2357
  869MOL0     H17286   1.402   1.968   9.436  0.2784 -3.0950 -1.0309
  869MOL0     H17287   1.276   2.051   9.163 -0.7810 -0.0390  0.0991
  869MOL0     H17288   1.201   1.962   9.294  0.8481  0.0897 -0.3081
  869MOL0     H17289   1.305   2.244   9.332 -0.6728  0.1460 -2.1401
  869MOL0     H17290   1.178   2.164   9.429 -1.4584 -2.2061  0.1503
  869MOL0     H17291   1.153   2.220   9.124  1.4821  0.1552  0.9334
  869MOL0     H17292   1.024   2.173   9.239  1.3218 -0.0286  3.8515
  869MOL0     H17293   1.144   2.447   9.229 -2.2460  2.8451 -1.4987
  869MOL0     H17294   1.045   2.391   9.362  2.9665  3.5027  0.8947
  869MOL0     H17295   0.903   2.502   9.242  3.5237  0.3385  1.8884
  869MOL0     H17296   0.871   2.341   9.167 -2.5845  1.7515  1.8958
  869MOL0     H17297   1.862   1.798   9.440 -1.6120  1.9289 -1.1260
  869MOL0     H17298   2.077   1.704   9.483 -1.3437 -0.0546 -0.1465
  869MOL0     H17299   2.437   1.379   9.218 -0.4835 -2.9573  3.0048
  869MOL0     H17300   2.661   1.337   9.224 -1.8137 -0.7144 -0.0884
  869MOL0     H17301   4.548   0.961   9.737 -0.9021  1.5144  1.2302
  869MOL0     H17302   4.770   0.918   9.684 -4.3309  0.0661 -1.9039
  869MOL0     H17303   5.134   0.849   9.677  0.1631 -3.0860 -3.0438
  869MOL0     H17304   5.369   0.847   9.591 -1.0736 -0.3329  0.2375
  869MOL0     H17305   5.645   0.837   9.892  1.0559  0.5874 -0.1957
  869MOL0     H17306   5.713   0.680   9.832 -0.6625 -0.6844  1.2415
  869MOL0     H17307   5.745   0.925   9.668  3.6636  1.2065 -2.8371
  869MOL0     H17308   5.850   0.780   9.670  0.3483 -1.6898  1.8935
  869MOL0     H17309   5.914   0.860   9.915  3.5710  2.7522  1.1639
  869MOL0     H17310   5.826   1.010   9.878  1.1884  0.8316 -0.2310
  869MOL0     H17311   6.082   1.024   9.825  0.6892  2.2369 -2.6830
  869MOL0     H17312   5.998   1.041   9.680  3.5383 -0.5183 -1.0512
  869MOL0     H17313   6.204   0.661   9.656  2.1615  0.8054  0.9669
  869MOL0     H17314   5.507   0.680   9.954  0.6395  2.1793 -0.0406
  869MOL0     H17315   5.279   0.665  10.042 -1.6951 -2.1563 -1.4315
  870MOL0     O17316   4.393   5.181   2.592 -0.8367  0.0477  0.2570
  870MOL0     C17317   4.400   5.250   2.490  0.3204  0.0556 -0.2273
  870MOL0     O17318   4.291   5.288   2.408 -0.2540 -0.4138 -0.0726
  870MOL0     C17319   4.158   5.253   2.431 -0.5799 -0.3417 -0.4727
  870MOL0     C17320   4.080   5.261   2.315  0.3713 -0.0177 -0.3538
  870MOL0     C17321   3.940   5.229   2.323 -0.2094  0.2626 -0.1200
  870MOL0     C17322   3.889   5.195   2.447 -0.4048  0.2656 -0.0622
  870MOL0     O17323   3.755   5.170   2.459  0.4632  0.9663 -0.4379
  870MOL0     C17324   3.673   5.134   2.348 -0.3312 -0.1695 -0.0347
  870MOL0     C17325   3.565   5.036   2.396  0.3028 -0.2281  0.2519
  870MOL0     C17326   3.468   5.088   2.491  0.6408  0.6094 -0.0155
  870MOL0     C17327   3.330   5.130   2.418  0.2688  0.2393  0.3249
  870MOL0     C17328   3.219   5.154   2.515  0.5246  0.0559 -0.0912
  870MOL0     C17329   3.088   5.198   2.453 -0.0854 -0.1707 -0.4910
  870MOL0     C17330   3.105   5.320   2.355 -0.2300 -0.3747 -0.1821
  870MOL0     C17331   2.965   5.379   2.322  0.0273 -0.5555  0.2718
  870MOL0     N17332   2.878   5.275   2.270 -0.0359 -0.5482  0.6637
  870MOL0     C17333   2.897   5.229   2.141  0.3199  0.4279 -0.3703
  870MOL0     C17334   2.799   5.142   2.122  0.4325 -0.3911  0.3482
  870MOL0     C17335   2.771   5.066   1.994  0.2946 -0.3900 -0.2880
  870MOL0     C17336   2.620   5.006   1.988  0.6778 -0.4623  0.3689
  870MOL0     C17337   2.510   5.112   1.987  0.1738 -0.5063  0.6292
  870MOL0     C17338   2.376   5.053   1.996 -0.2308 -0.6903 -0.8324
  870MOL0     O17339   2.355   4.941   1.909  0.1739 -0.1943  0.5938
  870MOL0     C17340   2.229   4.911   1.863  0.3023  0.4321  1.1256
  870MOL0     C17341   2.219   4.822   1.755  0.0068 -0.2597  0.4319
  870MOL0     C17342   2.098   4.774   1.698  0.3615  0.1811  0.1303
  870MOL0     C17343   2.099   4.680   1.581  0.1541 -0.5029 -0.5766
  870MOL0     C17344   1.976   4.813   1.769  0.5766  0.1596 -0.0147
  870MOL0     C17345   1.837   4.780   1.726  0.3033 -0.7208 -1.1660
  870MOL0     O17346   1.823   4.674   1.641  0.0691  0.0747 -0.0597
  870MOL0     C17347   1.703   4.618   1.598  0.3152  0.9249 -0.0735
  870MOL0     C17348   1.580   4.623   1.663  0.2824 -0.3228 -0.1857
  870MOL0     C17349   1.473   4.549   1.607  0.6108  0.4478  0.1374
  870MOL0     C17350   1.489   4.473   1.493 -0.7063  0.0838  0.0860
  870MOL0     O17351   1.392   4.412   1.420 -0.1390 -0.2875  0.1423
  870MOL0     C17352   1.260   4.392   1.477  0.7123  0.1816  0.0333
  870MOL0     C17353   1.163   4.312   1.380 -0.1476 -0.1831 -0.4419
  870MOL0     C17354   1.030   4.264   1.439  0.0203  0.3979 -0.1420
  870MOL0     C17355   0.976   4.337   1.565  0.8310 -0.5308  0.8455
  870MOL0     C17356   0.822   4.327   1.572 -0.3443 -0.4651 -0.3601
  870MOL0     C17357   0.773   4.192   1.547 -0.2081  0.0238 -0.6587
  870MOL0     C17358   0.641   4.178   1.621 -0.2135 -0.2987 -0.0281
  870MOL0     C17359   0.526   4.274   1.587 -0.2828  1.0234 -0.6652
  870MOL0    Cl17360   0.517   4.316   1.409 -0.1646 -0.1675 -0.4671
  870MOL0     C17361   1.605   4.486   1.425 -0.6469 -0.1572  0.9397
  870MOL0     C17362   1.717   4.546   1.476  0.3241 -0.0833  0.1030
  870MOL0     O17363   1.744   4.853   1.776 -0.5072  0.2516  0.4457
  870MOL0     C17364   1.989   4.896   1.882 -0.0484  0.5542 -0.2625
  870MOL0     C17365   2.108   4.947   1.928 -0.0741 -0.6698  0.4657
  870MOL0     N17366   2.719   5.138   2.239  0.0620  0.3565  0.2335
  870MOL0     N17367   2.765   5.223   2.323  0.2081  0.1788 -0.3783
  870MOL0     C17368   3.966   5.200   2.563  0.2536 -0.2611  0.2196
  870MOL0     C17369   4.103   5.221   2.554  0.5528 -0.3171 -0.0621
  870MOL0     C17370   4.527   5.313   2.452 -0.2181 -0.4308  0.0716
  870MOL0     C17371   4.636   5.306   2.544 -0.6118 -0.7220 -0.0888
  870MOL0     C17372   4.761   5.346   2.505 -0.0131  0.2248 -0.4073
  870MOL0     C17373   4.796   5.393   2.372  0.9675 -0.4445  0.4963
  870MOL0     O17374   4.916   5.438   2.322 -0.3377 -0.2231 -0.5540
  870MOL0     C17375   5.027   5.384   2.395 -0.2471  0.6021  0.4231
  870MOL0     C17376   5.156   5.417   2.326  0.5756 -0.0894  0.8405
  870MOL0     C17377   5.162   5.353   2.187  0.3190 -0.7678  0.0330
  870MOL0     C17378   5.263   5.420   2.095  0.8718 -0.6425 -0.0120
  870MOL0     C17379   5.396   5.398   2.150 -0.0491 -0.1246  1.0638
  870MOL0     C17380   5.502   5.355   2.194 -0.2269 -0.2910 -0.2121
  870MOL0     C17381   4.681   5.401   2.283 -0.2866  1.0532 -0.8566
  870MOL0     C17382   4.549   5.353   2.319 -0.5257  0.5200  0.5663
  870MOL0     H17383   4.120   5.276   2.216  1.4942 -0.4959  0.0097
  870MOL0     H17384   3.887   5.235   2.228  0.2352 -2.9864 -0.7016
  870MOL0     H17385   3.622   5.227   2.322  2.4289  1.9426  1.5531
  870MOL0     H17386   3.722   5.092   2.260 -1.7081 -0.7708 -0.5445
  870MOL0     H17387   3.512   4.997   2.308  0.5499  2.2367 -1.0814
  870MOL0     H17388   3.614   4.950   2.442 -1.3574 -0.6521  1.3380
  870MOL0     H17389   3.439   5.003   2.554 -1.0105  2.1440  1.3854
  870MOL0     H17390   3.518   5.156   2.561  0.9473  0.3104  0.0623
  870MOL0     H17391   3.345   5.220   2.358 -2.3017  0.9911  0.7139
  870MOL0     H17392   3.292   5.055   2.348 -1.9969 -0.2703  1.9909
  870MOL0     H17393   3.191   5.057   2.557  2.3391 -0.8781 -0.9303
  870MOL0     H17394   3.261   5.222   2.590 -0.5465 -0.0105  0.5876
  870MOL0     H17395   3.029   5.123   2.400 -1.5816  0.9649 -0.5103
  870MOL0     H17396   3.027   5.234   2.537  2.2921  2.8130  0.1504
  870MOL0     H17397   3.162   5.403   2.398  0.2495 -0.7213 -0.1334
  870MOL0     H17398   3.158   5.290   2.265 -1.7128 -1.3898 -0.7468
  870MOL0     H17399   2.988   5.456   2.248  3.5073  2.6692  4.2412
  870MOL0     H17400   2.922   5.422   2.412 -0.9082 -0.4034 -0.2406
  870MOL0     H17401   2.979   5.258   2.076 -1.5487  0.8891 -2.6611
  870MOL0     H17402   2.784   5.137   1.911  2.7513 -1.5826 -1.0281
  870MOL0     H17403   2.843   4.984   1.988 -1.5214 -1.9879 -1.5248
  870MOL0     H17404   2.602   4.942   2.074 -2.5851  0.1738  0.2963
  870MOL0     H17405   2.613   4.946   1.897  0.3129 -2.5211  1.7034
  870MOL0     H17406   2.506   5.170   1.894  2.1320 -1.7578 -0.2913
  870MOL0     H17407   2.521   5.182   2.070  0.9617  1.1674 -0.8222
  870MOL0     H17408   2.303   5.134   1.981  1.6252  1.0841 -0.6554
  870MOL0     H17409   2.347   5.020   2.097  1.3025 -0.2300 -0.2117
  870MOL0     H17410   2.309   4.773   1.718  0.5994  0.0901  1.3873
  870MOL0     H17411   2.043   4.714   1.493  0.8036 -1.2348 -1.2892
  870MOL0     H17412   2.199   4.662   1.542  0.5271  1.9688 -0.9482
  870MOL0     H17413   2.068   4.583   1.621 -0.0173  0.5757  2.0998
  870MOL0     H17414   1.558   4.680   1.753  0.0853  0.6384 -0.8274
  870MOL0     H17415   1.374   4.554   1.651 -0.0277  1.7478 -1.3429
  870MOL0     H17416   1.269   4.335   1.570 -1.3092 -1.5378 -0.7142
  870MOL0     H17417   1.212   4.488   1.497 -1.7478 -0.7773 -0.7969
  870MOL0     H17418   1.127   4.387   1.309 -0.5070  1.3933  1.3379
  870MOL0     H17419   1.216   4.231   1.330 -3.3254 -2.7318  0.0044
  870MOL0     H17420   1.041   4.161   1.473 -0.7413 -0.2091 -1.6212
  870MOL0     H17421   0.961   4.262   1.354 -1.5264  0.1745  1.0684
  870MOL0     H17422   1.028   4.290   1.649  0.9471 -0.1975  0.9625
  870MOL0     H17423   1.018   4.438   1.562 -1.6498  0.5646 -1.9709
  870MOL0     H17424   0.780   4.397   1.499  1.7491  1.6827  0.3624
  870MOL0     H17425   0.795   4.357   1.674 -0.9402  0.3407 -0.7483
  870MOL0     H17426   0.768   4.172   1.439  1.8679 -1.0385 -0.5987
  870MOL0     H17427   0.846   4.124   1.592  0.1444  0.1829 -0.9809
  870MOL0     H17428   0.664   4.187   1.727  3.2637  1.1307 -0.7228
  870MOL0     H17429   0.610   4.074   1.609  1.6074 -0.7750 -1.1506
  870MOL0     H17430   0.539   4.365   1.647  0.2543 -0.2410  1.1870
  870MOL0     H17431   0.431   4.231   1.619 -0.1727  2.0914  1.2805
  870MOL0     H17432   1.607   4.451   1.322 -0.5984  1.1244  0.4910
  870MOL0     H17433   1.812   4.548   1.423  1.1424  4.7281  1.2384
  870MOL0     H17434   1.899   4.930   1.933  0.0167  0.8615 -0.3462
  870MOL0     H17435   2.113   5.000   2.022 -0.5784  0.2439 -0.0087
  870MOL0     H17436   3.912   5.171   2.653 -1.6862 -0.1398 -0.8374
  870MOL0     H17437   4.158   5.214   2.648 -2.5825  1.7476  2.1295
  870MOL0     H17438   4.619   5.283   2.648  0.0761 -0.7345  0.0301
  870MOL0     H17439   4.841   5.345   2.579 -0.1571 -0.3936 -0.2594
  870MOL0     H17440   5.045   5.407   2.500  1.4991  0.0444  0.2867
  870MOL0     H17441   5.013   5.275   2.393 -2.4451  0.8171  1.3197
  870MOL0     H17442   5.239   5.391   2.392  0.4644  1.7882  1.7997
  870MOL0     H17443   5.162   5.527   2.325 -2.2685  0.1489  1.4763
  870MOL0     H17444   5.070   5.356   2.127  2.4286 -0.5428 -3.4544
  870MOL0     H17445   5.202   5.252   2.202  0.0466 -0.9365 -0.3457
  870MOL0     H17446   5.241   5.527   2.089 -1.4934 -1.1111 -1.0407
  870MOL0     H17447   5.254   5.378   1.994  0.0050 -0.1379 -0.1528
  870MOL0     H17448   5.593   5.322   2.239 -1.1139 -1.0897  1.0668
  870MOL0     H17449   4.680   5.441   2.182 -2.1851  0.8355 -0.9444
  870MOL0     H17450   4.479   5.349   2.237  1.3973 -3.1662 -1.1434
  871MOL0     O17451   9.762   5.700   1.209 -0.1916  0.5668 -0.0736
  871MOL0     C17452   9.810   5.804   1.175 -0.3627  0.3058 -0.2816
  871MOL0     O17453   9.769   5.884   1.076 -0.4571  1.3150 -0.0629
  871MOL0     C17454   9.655   5.871   1.006  0.3304  0.0185 -0.3861
  871MOL0     C17455   9.632   5.977   0.910  0.4450 -0.0653  0.5757
  871MOL0     C17456   9.516   5.987   0.828 -0.1534  0.0874  0.8969
  871MOL0     C17457   9.412   5.891   0.848  0.6689  1.5745  0.7078
  871MOL0     O17458   9.286   5.894   0.795 -0.9176 -0.3227 -0.9107
  871MOL0     C17459   9.227   6.027   0.788 -0.2079 -0.0281 -0.0484
  871MOL0     C17460   9.071   6.002   0.751  0.1196  0.3442  0.1307
  871MOL0     C17461   8.994   6.135   0.750  0.4020 -0.2359 -0.0199
  871MOL0     C17462   8.866   6.121   0.674  0.7450  0.5038  0.5376
  871MOL0     C17463   8.776   6.243   0.652 -0.1301  0.4794 -0.1733
  871MOL0     C17464   8.839   6.354   0.557  0.3920  0.2577  0.0777
  871MOL0     C17465   8.878   6.302   0.418 -0.8120  0.3781 -0.6596
  871MOL0     C17466   8.930   6.414   0.322  0.0153 -0.1212 -0.0156
  871MOL0     N17467   9.046   6.484   0.379 -0.1421  0.7598 -0.2443
  871MOL0     C17468   9.169   6.426   0.385 -0.1010  0.0997  0.0480
  871MOL0     C17469   9.241   6.522   0.462  0.2696  0.4049 -0.2112
  871MOL0     C17470   9.387   6.495   0.502 -0.2853  0.3270  0.7337
  871MOL0     C17471   9.390   6.392   0.619  0.6633  0.0023 -0.5631
  871MOL0     C17472   9.330   6.427   0.751  0.2869  0.2284 -0.2378
  871MOL0     C17473   9.372   6.559   0.801 -0.6466 -0.4510  0.0249
  871MOL0     O17474   9.336   6.574   0.935 -0.2772 -0.7314  0.3496
  871MOL0     C17475   9.375   6.687   1.007  0.2196 -0.1090 -0.3263
  871MOL0     C17476   9.330   6.691   1.143 -0.7884 -0.1453 -0.4727
  871MOL0     C17477   9.357   6.797   1.224 -0.1346 -0.3841 -0.3957
  871MOL0     C17478   9.320   6.786   1.376  0.1563  0.2576 -0.4110
  871MOL0     C17479   9.437   6.910   1.175  0.0410  0.4227 -1.2403
  871MOL0     C17480   9.464   7.038   1.251  0.3975  0.4041 -0.4589
  871MOL0     O17481   9.551   7.121   1.189  1.1344  0.1002 -0.0532
  871MOL0     C17482   9.606   7.229   1.248 -0.0199  0.3668  0.3789
  871MOL0     C17483   9.530   7.340   1.289  0.0361 -0.2127 -0.4199
  871MOL0     C17484   9.600   7.453   1.351 -0.2567  0.5784  0.3927
  871MOL0     C17485   9.741   7.446   1.368 -0.6149  0.5766  0.0698
  871MOL0     O17486   9.800   7.552   1.436  0.0148 -0.3701 -0.4966
  871MOL0     C17487   9.929   7.537   1.500 -0.8415  0.2094 -0.5659
  871MOL0     C17488   9.933   7.439   1.613  0.2222  0.1017 -0.0805
  871MOL0     C17489  10.063   7.432   1.690  0.1219 -0.1411 -0.8383
  871MOL0     C17490  10.162   7.325   1.636  0.0821 -0.7114 -0.2108
  871MOL0     C17491  10.287   7.305   1.722  0.4264  0.2346 -0.6796
  871MOL0     C17492  10.393   7.419   1.696 -0.4170 -0.4093  0.3074
  871MOL0     C17493  10.512   7.443   1.802 -0.5124  0.2664  0.0363
  871MOL0     C17494  10.578   7.317   1.856  0.0534 -0.6113  0.1832
  871MOL0    Cl17495  10.735   7.346   1.938  0.3498  0.0528  0.0672
  871MOL0     C17496   9.810   7.332   1.317  0.2274  0.5632 -0.4243
  871MOL0     C17497   9.747   7.226   1.260  0.8014  0.5561 -0.2051
  871MOL0     O17498   9.395   7.061   1.351 -0.3558 -0.2064 -0.2271
  871MOL0     C17499   9.480   6.907   1.041  0.6647  0.0643  0.4070
  871MOL0     C17500   9.450   6.794   0.958  0.2719 -0.1067 -0.1035
  871MOL0     N17501   9.155   6.615   0.510 -0.4086 -0.3207 -0.4351
  871MOL0     N17502   9.038   6.591   0.460  0.3276  0.0660  0.0714
  871MOL0     C17503   9.449   5.780   0.917  0.4683  0.3403 -0.0346
  871MOL0     C17504   9.560   5.766   1.008  0.5825  0.1815 -0.2485
  871MOL0     C17505   9.941   5.846   1.238 -0.0483  1.4124 -0.2129
  871MOL0     C17506  10.028   5.744   1.286 -0.2050 -0.3142  0.7587
  871MOL0     C17507  10.162   5.778   1.325 -0.4143  0.8638  0.7562
  871MOL0     C17508  10.207   5.910   1.320  0.4652  0.6464  0.4057
  871MOL0     O17509  10.331   5.928   1.374  0.4247  0.0596  0.7322
  871MOL0     C17510  10.335   5.918   1.517  0.2462  0.2506  0.0772
  871MOL0     C17511  10.448   6.000   1.578  0.5378 -0.6073 -0.0673
  871MOL0     C17512  10.589   5.952   1.523 -0.0760  0.3775  0.0428
  871MOL0     C17513  10.698   5.900   1.618 -0.3135 -0.1850  0.2283
  871MOL0     C17514  10.817   5.845   1.551 -0.5293 -0.6917 -0.0387
  871MOL0     C17515  10.922   5.828   1.489 -0.0482  0.8140 -0.0241
  871MOL0     C17516  10.117   6.008   1.276  0.0872 -0.6339  0.5401
  871MOL0     C17517   9.984   5.978   1.240  0.4834  0.1576  1.5560
  871MOL0     H17518   9.716   6.045   0.898 -0.5904  1.5150  2.0122
  871MOL0     H17519   9.511   6.074   0.764  0.7650 -0.2142  0.3944
  871MOL0     H17520   9.239   6.076   0.885  0.9854 -2.7873  1.3098
  871MOL0     H17521   9.264   6.082   0.702  1.0159 -1.0469 -0.1965
  871MOL0     H17522   9.064   5.959   0.650 -1.1650  0.8317 -0.0201
  871MOL0     H17523   9.025   5.935   0.823 -0.2371 -0.6725 -1.0079
  871MOL0     H17524   8.978   6.158   0.856  0.4013 -2.6023  0.5525
  871MOL0     H17525   9.048   6.222   0.712 -0.9841  0.8492  0.4329
  871MOL0     H17526   8.888   6.084   0.573 -1.0335 -1.7271  0.8953
  871MOL0     H17527   8.803   6.046   0.723 -0.1500 -0.4930 -1.9886
  871MOL0     H17528   8.683   6.206   0.608  0.8290 -3.3622  0.6347
  871MOL0     H17529   8.745   6.285   0.748  2.0310 -0.3210  0.9479
  871MOL0     H17530   8.755   6.424   0.550 -1.0675 -0.8930  3.6976
  871MOL0     H17531   8.927   6.391   0.610  0.7929 -0.1620 -0.2972
  871MOL0     H17532   8.964   6.235   0.433  0.1031  1.8639  1.1528
  871MOL0     H17533   8.789   6.251   0.381 -1.1951  0.1599  0.5195
  871MOL0     H17534   8.852   6.488   0.301  0.6837  0.2340 -1.3708
  871MOL0     H17535   8.960   6.378   0.223  0.0830  1.7252 -0.7045
  871MOL0     H17536   9.203   6.329   0.349  0.7139 -0.2672  1.6858
  871MOL0     H17537   9.446   6.463   0.416 -2.1063  2.9811 -1.6766
  871MOL0     H17538   9.430   6.594   0.518 -0.7698  0.7339 -0.3740
  871MOL0     H17539   9.492   6.356   0.635  0.1807 -1.0223  0.3833
  871MOL0     H17540   9.330   6.308   0.583 -0.2445  0.5608 -0.3837
  871MOL0     H17541   9.352   6.346   0.821 -1.1819  0.0617  0.0577
  871MOL0     H17542   9.221   6.432   0.750  0.1987 -1.0291  0.7813
  871MOL0     H17543   9.324   6.641   0.747 -1.2916 -1.7536 -1.4705
  871MOL0     H17544   9.481   6.566   0.800 -0.6695  3.4662 -3.8098
  871MOL0     H17545   9.270   6.607   1.178  1.9447 -2.1359 -0.2569
  871MOL0     H17546   9.403   6.828   1.433  0.5928 -1.1034  0.0000
  871MOL0     H17547   9.224   6.831   1.402  0.3529 -0.5854  2.0918
  871MOL0     H17548   9.315   6.682   1.410 -0.3484  0.6157  0.6572
  871MOL0     H17549   9.422   7.343   1.281 -0.5528  2.5943  4.2926
  871MOL0     H17550   9.550   7.541   1.391 -1.3724  0.4100 -0.6040
  871MOL0     H17551  10.010   7.517   1.429 -0.4449  0.1148 -0.0990
  871MOL0     H17552   9.964   7.633   1.542  1.9509 -1.4625  1.2996
  871MOL0     H17553   9.855   7.451   1.689  2.8071  3.1216  2.3454
  871MOL0     H17554   9.917   7.343   1.562 -0.2709  0.4584 -0.6124
  871MOL0     H17555  10.047   7.405   1.795  3.2617  2.6310  0.5352
  871MOL0     H17556  10.109   7.532   1.696 -2.0608  0.8483  1.2522
  871MOL0     H17557  10.111   7.228   1.642  0.0247 -0.8005 -1.7403
  871MOL0     H17558  10.188   7.339   1.531  1.6725 -0.6269  0.1672
  871MOL0     H17559  10.329   7.205   1.706  0.2271  0.3665 -2.1514
  871MOL0     H17560  10.272   7.305   1.830  2.1227  0.4554 -0.4166
  871MOL0     H17561  10.442   7.410   1.599 -0.6480  1.2826  0.0014
  871MOL0     H17562  10.342   7.516   1.692  0.9502  0.2957 -1.2252
  871MOL0     H17563  10.454   7.500   1.875 -2.9165 -0.2499 -1.3587
  871MOL0     H17564  10.591   7.513   1.772  2.3642 -2.7326  0.0523
  871MOL0     H17565  10.580   7.254   1.767 -1.5233 -1.3643  0.6512
  871MOL0     H17566  10.506   7.273   1.926 -1.3600  1.0967 -0.1121
  871MOL0     H17567   9.915   7.316   1.338  0.4813  1.5849 -0.8523
  871MOL0     H17568   9.804   7.139   1.229  1.0873  0.9003 -0.6475
  871MOL0     H17569   9.512   7.003   1.001 -1.9446  1.0588  0.5593
  871MOL0     H17570   9.490   6.788   0.857 -0.0981  0.3939 -0.2824
  871MOL0     H17571   9.387   5.691   0.923  2.4357 -1.1449 -0.6941
  871MOL0     H17572   9.565   5.681   1.076 -2.0105 -1.5891 -2.0846
  871MOL0     H17573   9.993   5.642   1.287  2.4353 -1.3039  0.3677
  871MOL0     H17574  10.230   5.697   1.348 -1.7617 -0.7565 -0.7304
  871MOL0     H17575  10.235   5.943   1.554  0.5871  1.6850  0.0806
  871MOL0     H17576  10.352   5.813   1.541 -0.3819  0.7438  3.0895
  871MOL0     H17577  10.447   5.993   1.687  2.6859  1.4831  0.1724
  871MOL0     H17578  10.433   6.106   1.560 -1.4652 -0.1519  3.3276
  871MOL0     H17579  10.628   6.038   1.467 -0.4648  0.5904  0.0989
  871MOL0     H17580  10.576   5.875   1.446  0.7566  0.9249 -0.6739
  871MOL0     H17581  10.650   5.823   1.679  2.5396 -1.4402  1.0599
  871MOL0     H17582  10.731   5.979   1.686  0.0871  0.2445 -0.4520
  871MOL0     H17583  11.014   5.805   1.438 -0.4946 -0.5550 -0.2379
  871MOL0     H17584  10.156   6.109   1.267  1.2350 -1.0330  0.7695
  871MOL0     H17585   9.909   6.041   1.193 -0.6274 -1.3848  1.2209
  872MOL0     O17586   8.574  11.236   2.478  0.2455  0.4160 -0.4718
  872MOL0     C17587   8.674  11.185   2.425  0.1214 -0.9992 -0.0701
  872MOL0     O17588   8.692  11.056   2.395 -0.4340  0.2812  0.9962
  872MOL0     C17589   8.594  10.966   2.409 -0.2662  0.1032 -0.0173
  872MOL0     C17590   8.635  10.843   2.464 -0.1760 -0.0259  0.6337
  872MOL0     C17591   8.550  10.733   2.476 -0.5330 -0.0856 -0.4336
  872MOL0     C17592   8.420  10.752   2.453  0.8280 -0.6140  0.0968
  872MOL0     O17593   8.345  10.635   2.472  1.0922 -0.8799  0.5868
  872MOL0     C17594   8.230  10.615   2.392  0.4640 -0.7790 -0.2194
  872MOL0     C17595   8.138  10.509   2.448 -0.4799 -0.0229 -0.1235
  872MOL0     C17596   8.005  10.504   2.369 -0.0634  0.0986 -0.4723
  872MOL0     C17597   7.893  10.470   2.462  0.1320 -0.0824 -0.2815
  872MOL0     C17598   7.761  10.476   2.384 -0.3760 -0.7884  0.1207
  872MOL0     C17599   7.732  10.343   2.316 -0.1856 -0.9287 -0.0812
  872MOL0     C17600   7.594  10.340   2.250  0.4905 -0.5056  0.1776
  872MOL0     C17601   7.571  10.205   2.180 -0.4837  0.0884 -0.9167
  872MOL0     N17602   7.429  10.165   2.176  0.6514 -0.7834 -0.0200
  872MOL0     C17603   7.326  10.243   2.122 -0.1582 -0.2919  0.1989
  872MOL0     C17604   7.221  10.165   2.118  0.3722 -0.4798 -0.8823
  872MOL0     C17605   7.088  10.185   2.058  0.0783  0.0454  0.9250
  872MOL0     C17606   6.980  10.251   2.148  0.0184 -0.5849  0.2634
  872MOL0     C17607   7.009  10.406   2.159  0.2607 -0.7286 -0.3261
  872MOL0     C17608   6.897  10.485   2.225  0.1011  0.2925  0.0269
  872MOL0     O17609   6.772  10.460   2.153 -0.0646 -0.0066 -0.3294
  872MOL0     C17610   6.661  10.537   2.181  0.1866  0.1431 -0.5023
  872MOL0     C17611   6.660  10.630   2.283 -0.4434 -0.2451 -0.2487
  872MOL0     C17612   6.541  10.713   2.298 -0.4355 -0.4961 -0.6969
  872MOL0     C17613   6.527  10.799   2.423 -0.3405  0.1944  0.5386
  872MOL0     C17614   6.430  10.697   2.208 -0.4487 -0.8463 -0.2467
  872MOL0     C17615   6.310  10.789   2.202 -0.2433 -0.2243  0.0411
  872MOL0     O17616   6.249  10.818   2.315 -0.0745 -0.5024 -0.0213
  872MOL0     C17617   6.147  10.908   2.310  0.0794 -0.4245  0.0134
  872MOL0     C17618   6.158  11.042   2.267 -1.6182 -0.1539  0.4319
  872MOL0     C17619   6.054  11.139   2.267 -0.2005  0.0445 -0.4932
  872MOL0     C17620   5.929  11.105   2.308  0.0496 -0.4550 -0.2809
  872MOL0     O17621   5.815  11.178   2.313 -0.1404 -0.4656 -0.2972
  872MOL0     C17622   5.837  11.320   2.344  0.2246  0.3415 -0.8155
  872MOL0     C17623   5.706  11.398   2.370 -0.4646  0.2677  0.4130
  872MOL0     C17624   5.623  11.389   2.242  0.3351 -0.1690 -0.3706
  872MOL0     C17625   5.492  11.464   2.258  0.9194  0.6695 -0.6930
  872MOL0     C17626   5.423  11.496   2.128  0.2836 -0.4127  0.3838
  872MOL0     C17627   5.277  11.524   2.164 -0.1110 -1.0116  0.2772
  872MOL0     C17628   5.203  11.584   2.042 -0.4208  1.1986  0.6597
  872MOL0     C17629   5.059  11.611   2.080 -0.2427 -0.2794  0.2900
  872MOL0    Cl17630   4.974  11.708   1.956 -0.5448  0.2904 -0.2078
  872MOL0     C17631   5.919  10.968   2.357 -0.0952  0.0154  0.1252
  872MOL0     C17632   6.023  10.877   2.376  0.1241 -0.1797  0.5382
  872MOL0     O17633   6.284  10.836   2.092  0.2908 -0.3203  0.0348
  872MOL0     C17634   6.440  10.599   2.103  0.3301 -0.9963 -0.1415
  872MOL0     C17635   6.555  10.524   2.089  0.3214 -1.2868 -0.7503
  872MOL0     N17636   7.248  10.047   2.170 -0.9096  0.5945  0.1703
  872MOL0     N17637   7.375  10.043   2.204 -0.0733  0.0251 -0.2687
  872MOL0     C17638   8.375  10.882   2.400  0.3978  0.5885  1.0209
  872MOL0     C17639   8.466  10.980   2.380 -0.1565  0.5892  0.0985
  872MOL0     C17640   8.795  11.280   2.409  1.0747  0.2898  0.3788
  872MOL0     C17641   8.910  11.242   2.341  0.5824  0.2730 -0.6472
  872MOL0     C17642   9.007  11.336   2.310 -0.4821 -0.2370  0.1720
  872MOL0     C17643   9.006  11.464   2.368 -0.2415 -0.6035  0.1051
  872MOL0     O17644   9.111  11.551   2.360 -0.2965 -0.3282 -0.5902
  872MOL0     C17645   9.238  11.524   2.296 -0.0934 -0.0247  0.4756
  872MOL0     C17646   9.338  11.636   2.292  0.7498 -0.0488  0.4458
  872MOL0     C17647   9.469  11.577   2.242 -0.8043  0.0552 -0.3682
  872MOL0     C17648   9.565  11.685   2.195  0.0723 -0.2364 -0.0125
  872MOL0     C17649   9.519  11.746   2.063 -0.5326 -0.5938  0.0406
  872MOL0     C17650   9.478  11.805   1.962  0.1535  0.1766  0.2064
  872MOL0     C17651   8.894  11.504   2.446 -0.0306  0.6288  0.2768
  872MOL0     C17652   8.781  11.412   2.458 -0.6939 -0.3691  0.4148
  872MOL0     H17653   8.742  10.836   2.481 -0.6960 -1.2848  3.9703
  872MOL0     H17654   8.579  10.634   2.512  0.0127  0.4194  0.5826
  872MOL0     H17655   8.165  10.703   2.399 -1.1999 -1.8776 -1.0950
  872MOL0     H17656   8.253  10.609   2.286  0.5084  0.4733 -0.2977
  872MOL0     H17657   8.177  10.408   2.433  0.9508  0.6594 -1.2068
  872MOL0     H17658   8.115  10.525   2.554  0.5547  0.0461  0.0966
  872MOL0     H17659   7.989  10.597   2.313 -0.0079  0.8317  0.7099
  872MOL0     H17660   8.023  10.430   2.290  0.0591 -0.0550 -0.3005
  872MOL0     H17661   7.912  10.372   2.506  1.7153  1.4658  2.8129
  872MOL0     H17662   7.883  10.547   2.540 -2.7224  1.5067 -2.0553
  872MOL0     H17663   7.685  10.484   2.463 -0.2524  1.9242  0.0401
  872MOL0     H17664   7.761  10.565   2.321  1.2570 -1.3068 -0.6794
  872MOL0     H17665   7.815  10.330   2.246  0.8031  0.6960  0.7335
  872MOL0     H17666   7.729  10.266   2.394 -0.6648 -1.8122 -0.9478
  872MOL0     H17667   7.513  10.366   2.319  0.8098 -1.2382  0.8442
  872MOL0     H17668   7.585  10.414   2.170 -0.8921 -1.0282 -0.1737
  872MOL0     H17669   7.623  10.130   2.240 -0.7592  0.7289  0.1479
  872MOL0     H17670   7.614  10.192   2.080  0.6233 -1.2656 -0.2910
  872MOL0     H17671   7.317  10.341   2.076 -1.4739 -0.7771 -0.6021
  872MOL0     H17672   7.106  10.245   1.968  1.9466 -0.3832  0.9781
  872MOL0     H17673   7.038  10.093   2.025  1.0128 -0.1994  0.1349
  872MOL0     H17674   6.976  10.208   2.249  1.2474  1.3441  1.1847
  872MOL0     H17675   6.878  10.231   2.115 -0.2519  0.2129  0.6019
  872MOL0     H17676   7.039  10.446   2.061  1.7101 -1.3742 -0.1653
  872MOL0     H17677   7.103  10.411   2.215  0.3215 -0.9628 -0.4077
  872MOL0     H17678   6.921  10.592   2.218  2.1855 -0.1074  0.4142
  872MOL0     H17679   6.895  10.459   2.331 -0.0872 -0.0565 -0.0611
  872MOL0     H17680   6.737  10.629   2.360 -1.7076 -2.0120  1.0747
  872MOL0     H17681   6.440  10.766   2.481 -1.1540 -0.3809 -0.9399
  872MOL0     H17682   6.616  10.782   2.484 -1.8511 -0.4406  2.7245
  872MOL0     H17683   6.520  10.904   2.395  3.5942 -0.2083 -2.8355
  872MOL0     H17684   6.256  11.076   2.234 -0.4159 -0.5674  3.3093
  872MOL0     H17685   6.073  11.243   2.244 -3.0287  0.9452  0.7315
  872MOL0     H17686   5.903  11.332   2.431 -1.4403  0.7719  0.4428
  872MOL0     H17687   5.883  11.368   2.257  2.3303 -3.4193 -1.9920
  872MOL0     H17688   5.655  11.353   2.456  0.8736 -1.6404  0.2705
  872MOL0     H17689   5.721  11.505   2.386 -0.5864  0.2499  0.6520
  872MOL0     H17690   5.614  11.281   2.224 -1.8255 -0.6657  2.8556
  872MOL0     H17691   5.673  11.433   2.155  0.8253 -2.9908 -1.6545
  872MOL0     H17692   5.422  11.405   2.318  1.1898 -0.0916 -1.1138
  872MOL0     H17693   5.509  11.561   2.306  2.9414 -0.1305  0.3222
  872MOL0     H17694   5.437  11.414   2.057  3.9280  0.2686  0.1333
  872MOL0     H17695   5.468  11.582   2.079 -2.7736  0.0997 -1.8089
  872MOL0     H17696   5.229  11.432   2.197 -2.4057  0.8310  2.4029
  872MOL0     H17697   5.280  11.594   2.248  0.6394  1.1626 -1.4280
  872MOL0     H17698   5.201  11.518   1.955 -0.2194  0.2848  1.3256
  872MOL0     H17699   5.254  11.671   2.000 -0.7455  1.2865  0.4398
  872MOL0     H17700   5.067  11.667   2.174 -0.8551  0.4388 -0.0834
  872MOL0     H17701   5.014  11.512   2.095 -0.1811 -0.6613 -1.7466
  872MOL0     H17702   5.824  10.932   2.395 -0.9868  1.7494 -0.3373
  872MOL0     H17703   6.018  10.774   2.410 -4.9768 -0.3178  0.0689
  872MOL0     H17704   6.355  10.588   2.036 -0.0087 -0.6093  0.2164
  872MOL0     H17705   6.568  10.445   2.016  2.0868 -1.3422 -0.4009
  872MOL0     H17706   8.273  10.900   2.370 -0.7517 -2.3849  2.7276
  872MOL0     H17707   8.439  11.079   2.345 -1.9995  0.6027  1.4417
  872MOL0     H17708   8.903  11.144   2.295  1.0447  0.9781 -2.3252
  872MOL0     H17709   9.081  11.308   2.236 -1.1669  0.8547 -0.9670
  872MOL0     H17710   9.278  11.449   2.365  0.7181  1.5881  1.8210
  872MOL0     H17711   9.235  11.490   2.192  2.3676  1.0054  0.0040
  872MOL0     H17712   9.349  11.676   2.393 -1.9956  0.0113  0.7907
  872MOL0     H17713   9.300  11.708   2.219 -0.1506 -1.5980 -0.6650
  872MOL0     H17714   9.444  11.502   2.166 -2.6110  2.0097 -1.8384
  872MOL0     H17715   9.519  11.534   2.329 -2.1253  3.4072  2.2852
  872MOL0     H17716   9.660  11.633   2.176 -0.0666 -1.6212  2.5429
  872MOL0     H17717   9.573  11.757   2.277 -0.6212 -0.8232  0.5920
  872MOL0     H17718   9.438  11.869   1.886 -1.5366 -0.7438  0.2671
  872MOL0     H17719   8.903  11.599   2.498  0.9070 -1.1783  3.7666
  872MOL0     H17720   8.694  11.443   2.514 -1.2846 -4.4774  2.1306
  873MOL0     O17721   7.054  11.236   4.245 -0.2236 -0.1389  0.7383
  873MOL0     C17722   7.080  11.122   4.207 -0.2346 -0.4821 -1.3385
  873MOL0     O17723   7.002  11.017   4.218 -0.1945  0.0855 -0.3177
  873MOL0     C17724   6.879  11.006   4.283 -0.0268 -0.3882 -0.9007
  873MOL0     C17725   6.803  11.107   4.345  0.0816 -0.0442  1.2685
  873MOL0     C17726   6.683  11.091   4.409  0.5070 -0.9099  0.1554
  873MOL0     C17727   6.623  10.962   4.421  0.3629  0.2199  0.5262
  873MOL0     O17728   6.519  10.931   4.504  0.4083  0.1356  0.0686
  873MOL0     C17729   6.438  11.038   4.557  0.6058  0.2278  0.2459
  873MOL0     C17730   6.304  10.963   4.601 -0.1432 -0.3296  0.6563
  873MOL0     C17731   6.221  11.044   4.700 -0.2413 -0.0420 -0.2620
  873MOL0     C17732   6.122  11.136   4.619  0.3940  0.0913 -0.1113
  873MOL0     C17733   6.033  11.219   4.706 -0.1071  0.1686  0.3779
  873MOL0     C17734   5.944  11.136   4.804 -0.1954 -0.9257  0.0379
  873MOL0     C17735   5.829  11.219   4.863  0.4990 -0.1301 -0.0257
  873MOL0     C17736   5.768  11.158   4.998  0.4901 -0.3619  0.3060
  873MOL0     N17737   5.653  11.249   5.043 -0.1242 -0.7372 -0.1845
  873MOL0     C17738   5.526  11.227   4.998 -0.2952  0.4152 -0.3038
  873MOL0     C17739   5.447  11.306   5.064  0.1677  0.2400  0.2220
  873MOL0     C17740   5.302  11.325   5.029 -0.0317  0.5987 -0.9328
  873MOL0     C17741   5.277  11.427   4.912  0.0004  0.0049 -0.5458
  873MOL0     C17742   5.356  11.560   4.929 -0.9868  0.0951  0.0231
  873MOL0     C17743   5.497  11.561   4.856  0.6388  0.7522  0.1381
  873MOL0     O17744   5.488  11.514   4.722  0.2729  0.1875  0.3484
  873MOL0     C17745   5.606  11.509   4.642  0.7685 -0.1070  0.0414
  873MOL0     C17746   5.737  11.554   4.688 -0.2173 -0.3094  0.0704
  873MOL0     C17747   5.847  11.532   4.607  0.3863  0.4319  0.0824
  873MOL0     C17748   5.977  11.572   4.663 -0.2682 -0.1749  0.7404
  873MOL0     C17749   5.835  11.466   4.478 -1.0421 -0.1535  0.2167
  873MOL0     C17750   5.954  11.423   4.392 -0.1130  0.3394  0.1087
  873MOL0     O17751   5.931  11.409   4.259  0.0385  0.6294  0.6210
  873MOL0     C17752   6.026  11.363   4.171  0.4955  1.0724  0.7344
  873MOL0     C17753   6.153  11.300   4.187 -0.4639 -0.0925  0.3478
  873MOL0     C17754   6.243  11.277   4.079 -0.4684  0.0781  0.4190
  873MOL0     C17755   6.205  11.311   3.953 -0.2973 -0.2723  1.2141
  873MOL0     O17756   6.291  11.272   3.851  0.1018  0.3849  0.0296
  873MOL0     C17757   6.245  11.205   3.733 -0.4643 -0.7224  0.6652
  873MOL0     C17758   6.307  11.266   3.602  0.0079 -0.2523  0.4655
  873MOL0     C17759   6.457  11.263   3.602  0.1486 -0.0061  0.6362
  873MOL0     C17760   6.543  11.278   3.473  0.5999  0.6225 -0.2941
  873MOL0     C17761   6.686  11.329   3.518 -0.1485 -0.4975 -1.0042
  873MOL0     C17762   6.779  11.378   3.407  0.2161 -0.8872  0.7306
  873MOL0     C17763   6.907  11.421   3.472 -0.6612  0.1936 -0.6900
  873MOL0     C17764   7.008  11.471   3.370 -0.0659 -0.3098 -0.0644
  873MOL0    Cl17765   7.073  11.340   3.268  0.1104  0.2147 -0.4330
  873MOL0     C17766   6.083  11.364   3.927  0.0652 -0.3952 -0.1395
  873MOL0     C17767   5.997  11.385   4.036 -0.3186 -0.5077 -0.6003
  873MOL0     O17768   6.070  11.425   4.438  0.2107  0.1243  0.1893
  873MOL0     C17769   5.705  11.434   4.437  0.5316  0.8892 -0.5312
  873MOL0     C17770   5.587  11.453   4.517 -0.4947  0.5944  0.1003
  873MOL0     N17771   5.531  11.382   5.150  0.9458 -0.0529 -0.6093
  873MOL0     N17772   5.655  11.339   5.141 -0.5198 -0.0229  0.0278
  873MOL0     C17773   6.692  10.860   4.349  0.6091 -0.2024 -0.0874
  873MOL0     C17774   6.809  10.884   4.283 -0.4803  0.0956  0.7347
  873MOL0     C17775   7.203  11.106   4.132 -0.0474  0.0201 -0.1386
  873MOL0     C17776   7.272  11.220   4.073  0.2736  0.3978 -0.5051
  873MOL0     C17777   7.399  11.198   4.011  0.0543  0.3683 -0.9921
  873MOL0     C17778   7.454  11.070   3.993  0.4496  0.8696  1.4350
  873MOL0     O17779   7.569  11.036   3.940 -0.0243  0.4222 -0.0974
  873MOL0     C17780   7.652  11.149   3.904  0.0426  0.4009  0.6909
  873MOL0     C17781   7.788  11.094   3.863  0.1625  1.0460 -0.6942
  873MOL0     C17782   7.903  11.192   3.863 -0.1705 -0.9142  0.4970
  873MOL0     C17783   8.022  11.141   3.789 -0.3124 -0.1243  0.1863
  873MOL0     C17784   8.077  11.033   3.874 -0.3949  0.0488 -0.5938
  873MOL0     C17785   8.116  10.926   3.921 -1.1027  0.4052  0.3446
  873MOL0     C17786   7.378  10.960   4.045 -0.0704 -0.3404 -0.4330
  873MOL0     C17787   7.258  10.976   4.102 -0.2926 -0.8806 -0.2608
  873MOL0     H17788   6.841  11.208   4.360 -1.4129  0.9414 -1.0656
  873MOL0     H17789   6.629  11.170   4.461  0.9439 -0.0415 -0.7026
  873MOL0     H17790   6.487  11.083   4.643 -1.2028  2.2812  0.2768
  873MOL0     H17791   6.420  11.112   4.478  2.3228  2.4643  1.8436
  873MOL0     H17792   6.247  10.915   4.521  1.3251 -0.8810 -0.1029
  873MOL0     H17793   6.340  10.881   4.663  0.7192 -0.5241 -0.0732
  873MOL0     H17794   6.167  10.985   4.774  2.6470  1.2904  3.2370
  873MOL0     H17795   6.284  11.113   4.757 -1.5463  0.3132  0.8042
  873MOL0     H17796   6.180  11.199   4.550  0.8865  0.8491  0.9603
  873MOL0     H17797   6.061  11.073   4.554 -2.1684  0.9517  1.3165
  873MOL0     H17798   6.098  11.286   4.762 -0.2492 -2.0506  3.4979
  873MOL0     H17799   5.973  11.282   4.639 -1.7831  2.8122  4.0100
  873MOL0     H17800   5.910  11.051   4.744 -0.6754 -0.2053 -0.7228
  873MOL0     H17801   6.008  11.092   4.881  0.4284  0.3822  0.2909
  873MOL0     H17802   5.870  11.314   4.895 -0.7827  0.1963  0.7287
  873MOL0     H17803   5.752  11.242   4.788  3.7293  1.3477 -3.1843
  873MOL0     H17804   5.839  11.151   5.080  1.8092  1.0535 -0.6425
  873MOL0     H17805   5.728  11.058   4.979 -1.9208  0.5785  0.0509
  873MOL0     H17806   5.494  11.164   4.915 -1.4680 -2.8171  2.4021
  873MOL0     H17807   5.260  11.228   5.000  0.8326  0.1375 -0.6857
  873MOL0     H17808   5.251  11.369   5.114 -1.3292  0.3500 -1.5623
  873MOL0     H17809   5.171  11.454   4.908 -0.6982 -2.5764 -2.8200
  873MOL0     H17810   5.303  11.375   4.819  0.2758  1.9821 -1.6320
  873MOL0     H17811   5.376  11.577   5.035 -0.2346 -0.6520  0.0064
  873MOL0     H17812   5.294  11.632   4.875 -1.7695 -1.7109 -1.5855
  873MOL0     H17813   5.560  11.488   4.908  0.5736  0.5331 -0.0827
  873MOL0     H17814   5.546  11.659   4.855 -1.6169  1.9341  0.0114
  873MOL0     H17815   5.737  11.602   4.785 -0.5193 -0.7016  0.2693
  873MOL0     H17816   6.039  11.632   4.595  1.0215 -0.6840  1.4405
  873MOL0     H17817   5.958  11.644   4.743  0.4674 -0.3215  1.0522
  873MOL0     H17818   6.045  11.493   4.696 -0.4600 -0.8945 -0.5218
  873MOL0     H17819   6.167  11.286   4.294 -0.5147  4.1520  1.0758
  873MOL0     H17820   6.339  11.232   4.101  1.1495  2.5249 -1.0610
  873MOL0     H17821   6.276  11.100   3.733  1.0464 -0.4011 -3.0757
  873MOL0     H17822   6.138  11.196   3.715 -0.6414 -0.2227  1.4308
  873MOL0     H17823   6.252  11.216   3.522 -2.2294 -0.2588  1.9098
  873MOL0     H17824   6.271  11.370   3.600 -1.3249 -0.7000 -1.2118
  873MOL0     H17825   6.485  11.166   3.644 -3.6785 -0.2998  2.9520
  873MOL0     H17826   6.490  11.336   3.676 -1.8612  0.3568  1.2192
  873MOL0     H17827   6.548  11.184   3.418  0.3646  0.6044 -0.2863
  873MOL0     H17828   6.507  11.356   3.405  0.3205 -0.1629 -1.0579
  873MOL0     H17829   6.739  11.253   3.575 -0.8144 -1.6152 -1.8463
  873MOL0     H17830   6.673  11.413   3.588 -4.2937 -0.6862 -1.2672
  873MOL0     H17831   6.794  11.309   3.323  3.1866  1.7969 -1.1573
  873MOL0     H17832   6.730  11.462   3.355  1.1824 -0.3425  0.6862
  873MOL0     H17833   6.947  11.333   3.523 -1.7068  0.3864  0.5026
  873MOL0     H17834   6.890  11.496   3.549  0.0841 -0.1636 -0.1649
  873MOL0     H17835   7.088  11.520   3.426 -2.0006  1.7209  1.0359
  873MOL0     H17836   6.970  11.557   3.314 -1.3961  0.7500  2.3222
  873MOL0     H17837   6.069  11.403   3.827  2.6321 -1.1207 -0.8263
  873MOL0     H17838   5.907  11.442   4.015  1.8010  3.7688  0.7458
  873MOL0     H17839   5.687  11.382   4.344  2.6182 -1.5544  0.2838
  873MOL0     H17840   5.501  11.406   4.471 -0.0655 -0.0098 -0.1025
  873MOL0     H17841   6.660  10.757   4.357 -1.2337  0.4702  2.0085
  873MOL0     H17842   6.866  10.806   4.234 -0.2550 -1.0899  2.8156
  873MOL0     H17843   7.259  11.327   4.090  5.4236  1.6103 -2.3854
  873MOL0     H17844   7.458  11.284   3.979  1.1713  0.4995  1.2119
  873MOL0     H17845   7.611  11.205   3.820  4.1589  2.3607 -0.2316
  873MOL0     H17846   7.668  11.215   3.989 -2.4230  0.9857  0.7868
  873MOL0     H17847   7.773  11.056   3.761 -0.5400 -1.7272  0.3608
  873MOL0     H17848   7.806  11.008   3.928 -3.7139  1.9121  1.8300
  873MOL0     H17849   7.923  11.205   3.970  0.8372 -1.9067  0.4362
  873MOL0     H17850   7.876  11.290   3.823  0.1417  0.4157  3.3081
  873MOL0     H17851   8.097  11.220   3.782 -0.5612 -0.0463 -2.4702
  873MOL0     H17852   7.997  11.111   3.687  0.7606 -2.1231  0.4529
  873MOL0     H17853   8.166  10.834   3.944  1.0671  0.7704 -2.4091
  873MOL0     H17854   7.412  10.858   4.031  0.4010 -0.3094  0.4384
  873MOL0     H17855   7.200  10.892   4.137 -1.7203  0.4103  0.5753
  874MOL0     O17856   2.296   0.746   3.381 -0.0226 -0.6575  0.3420
  874MOL0     C17857   2.336   0.661   3.463  0.0416 -0.4439 -0.4638
  874MOL0     O17858   2.251   0.592   3.561  0.0121  0.2030  1.0452
  874MOL0     C17859   2.115   0.599   3.561  0.0648  0.6139  0.2791
  874MOL0     C17860   2.037   0.710   3.534  0.2102 -0.0932 -0.2938
  874MOL0     C17861   1.895   0.702   3.548  0.0271 -0.0027 -0.6225
  874MOL0     C17862   1.829   0.584   3.570 -0.2093 -0.0115 -1.0111
  874MOL0     O17863   1.686   0.574   3.569  0.2043  0.6835  0.3560
  874MOL0     C17864   1.622   0.448   3.537  0.1994  0.2673 -0.2109
  874MOL0     C17865   1.468   0.455   3.534  0.1366 -0.5167  0.5506
  874MOL0     C17866   1.436   0.575   3.445 -0.1465  0.3108  0.0257
  874MOL0     C17867   1.284   0.580   3.405  0.6939  0.3196 -0.7239
  874MOL0     C17868   1.233   0.712   3.356 -0.5020 -0.5968  0.7519
  874MOL0     C17869   1.082   0.709   3.368 -0.1964 -0.2465 -0.2520
  874MOL0     C17870   1.017   0.851   3.336 -0.1931 -0.3659  0.2775
  874MOL0     C17871   0.895   0.888   3.430  0.1624 -0.1044 -0.3952
  874MOL0     N17872   0.794   0.968   3.352 -0.6882  0.3609 -0.3228
  874MOL0     C17873   0.763   1.097   3.381  0.3748  0.0537 -0.4660
  874MOL0     C17874   0.652   1.136   3.313  0.0204  0.8156  0.7382
  874MOL0     C17875   0.582   1.272   3.320 -0.0723 -0.6454  0.5173
  874MOL0     C17876   0.684   1.388   3.312  1.4345 -0.1910 -0.4945
  874MOL0     C17877   0.623   1.535   3.289 -0.5688  0.7130  0.3241
  874MOL0     C17878   0.582   1.602   3.423  0.2439  0.2949  0.8146
  874MOL0     O17879   0.512   1.731   3.404 -0.3132  0.3872  0.6320
  874MOL0     C17880   0.385   1.741   3.375  0.0558 -1.0424  0.4600
  874MOL0     C17881   0.306   1.629   3.346 -0.9603  0.0477 -0.1517
  874MOL0     C17882   0.170   1.641   3.334  0.0053  0.1509  1.0191
  874MOL0     C17883   0.094   1.513   3.333 -0.0336 -0.0497  0.2881
  874MOL0     C17884   0.109   1.766   3.312  0.4047  0.4471  0.2763
  874MOL0     C17885  -0.034   1.777   3.277  0.7424  0.3046  0.2556
  874MOL0     O17886  -0.072   1.903   3.255 -0.8027  0.4193  0.1044
  874MOL0     C17887  -0.206   1.932   3.229 -0.6365  0.5738  0.5568
  874MOL0     C17888  -0.286   2.010   3.312 -0.1583  0.5008 -0.6753
  874MOL0     C17889  -0.418   2.037   3.277 -0.0494 -0.7102 -0.4365
  874MOL0     C17890  -0.479   1.977   3.163 -0.0326 -0.1606 -0.0601
  874MOL0     O17891  -0.614   1.988   3.123 -0.4587  0.2046  0.0728
  874MOL0     C17892  -0.704   2.073   3.192 -1.1761  0.0616 -0.6366
  874MOL0     C17893  -0.830   2.095   3.110 -0.1529 -0.4134  0.1723
  874MOL0     C17894  -0.914   2.203   3.158  0.6421 -0.8235  0.4541
  874MOL0     C17895  -0.864   2.310   3.254 -0.3479  0.1714  0.2623
  874MOL0     C17896  -0.959   2.409   3.313  0.4131  0.0574  0.9108
  874MOL0     C17897  -1.046   2.492   3.206 -0.2827  0.0193  0.0903
  874MOL0     C17898  -1.188   2.429   3.202 -0.2363 -0.4486  0.4773
  874MOL0     C17899  -1.275   2.479   3.085 -0.0186 -0.1679  0.3152
  874MOL0    Cl17900  -1.289   2.658   3.086  0.0807 -0.1809  0.2433
  874MOL0     C17901  -0.394   1.911   3.081 -0.1751  0.4059  0.0878
  874MOL0     C17902  -0.260   1.889   3.112 -0.2220 -0.2397  0.9963
  874MOL0     O17903  -0.107   1.676   3.263  0.0834  0.4098 -0.4072
  874MOL0     C17904   0.191   1.881   3.331 -0.2708 -0.1114  0.8693
  874MOL0     C17905   0.324   1.870   3.363 -0.0217  0.5897  0.1162
  874MOL0     N17906   0.619   1.029   3.241 -0.0619 -0.2669  0.2834
  874MOL0     N17907   0.698   0.932   3.266  0.8494  0.2248 -0.1426
  874MOL0     C17908   1.910   0.476   3.607  0.3608 -0.0422 -0.7797
  874MOL0     C17909   2.052   0.481   3.601  0.4271 -0.0936 -0.3827
  874MOL0     C17910   2.477   0.624   3.463  0.1793  0.3227 -1.0236
  874MOL0     C17911   2.574   0.667   3.370  0.0159  0.0479  1.1413
  874MOL0     C17912   2.707   0.623   3.375  0.2080 -0.9061 -0.1467
  874MOL0     C17913   2.747   0.533   3.474  0.0798 -0.4975  0.7242
  874MOL0     O17914   2.880   0.500   3.486  0.6976 -0.3568  0.2708
  874MOL0     C17915   2.975   0.509   3.377  0.0810 -0.0773 -0.3294
  874MOL0     C17916   3.098   0.418   3.396  0.4752 -1.3967 -0.5177
  874MOL0     C17917   3.211   0.475   3.485  0.3064 -1.0068  0.0397
  874MOL0     C17918   3.336   0.394   3.443  0.5223  0.4075 -0.4238
  874MOL0     C17919   3.446   0.452   3.527  0.1597  0.8792  0.0432
  874MOL0     C17920   3.536   0.513   3.582 -0.0038  0.1702 -0.4087
  874MOL0     C17921   2.654   0.493   3.575  0.2398  0.3538  0.5427
  874MOL0     C17922   2.521   0.544   3.570 -0.0853 -0.3782  0.0197
  874MOL0     H17923   2.090   0.800   3.505 -1.3282  0.7441 -0.6089
  874MOL0     H17924   1.830   0.787   3.530 -0.5455 -0.0709  0.9400
  874MOL0     H17925   1.659   0.422   3.438  0.6048  0.1358 -0.0270
  874MOL0     H17926   1.657   0.366   3.600  1.1837 -0.4618 -1.6659
  874MOL0     H17927   1.432   0.356   3.506  1.1398 -1.8788  3.6044
  874MOL0     H17928   1.433   0.485   3.633  2.1857  2.2271  0.5795
  874MOL0     H17929   1.469   0.665   3.497  1.7891 -1.0430  1.3109
  874MOL0     H17930   1.493   0.573   3.351 -1.4241 -1.4624 -0.7733
  874MOL0     H17931   1.269   0.499   3.332  0.1632 -0.2072 -0.0477
  874MOL0     H17932   1.224   0.557   3.494  0.3265  0.7091 -0.8672
  874MOL0     H17933   1.272   0.795   3.417 -2.7397  1.4071 -0.3764
  874MOL0     H17934   1.273   0.722   3.255 -1.9484 -1.5348  0.0556
  874MOL0     H17935   1.047   0.633   3.298  0.2230 -0.5653 -0.1158
  874MOL0     H17936   1.046   0.683   3.468  2.0787  3.3426  1.7521
  874MOL0     H17937   1.084   0.935   3.355  1.8077 -2.1198  1.4807
  874MOL0     H17938   0.983   0.841   3.233 -1.2948 -2.1768  0.7684
  874MOL0     H17939   0.938   0.937   3.518 -0.2699  0.1578 -0.3300
  874MOL0     H17940   0.852   0.794   3.465  1.9848 -0.8339  0.0183
  874MOL0     H17941   0.802   1.157   3.463 -1.7104 -0.0998  0.7034
  874MOL0     H17942   0.518   1.280   3.232  1.2348  1.1752 -0.3500
  874MOL0     H17943   0.526   1.285   3.413  3.0670 -0.8568  2.5909
  874MOL0     H17944   0.749   1.360   3.229  2.6918  1.9267 -0.2993
  874MOL0     H17945   0.745   1.392   3.403 -2.0733 -0.7234  2.0911
  874MOL0     H17946   0.542   1.529   3.217  2.0014  0.3258 -2.7573
  874MOL0     H17947   0.707   1.587   3.242  1.3561 -3.0356 -0.7729
  874MOL0     H17948   0.678   1.624   3.471 -0.2227 -0.2702  2.0349
  874MOL0     H17949   0.516   1.543   3.487  1.0771  0.6171  2.0002
  874MOL0     H17950   0.354   1.532   3.355  1.2423  0.6936 -3.2618
  874MOL0     H17951   0.159   1.431   3.363  0.4459 -0.4039 -1.5782
  874MOL0     H17952   0.002   1.509   3.392 -1.8273 -0.7311 -2.3246
  874MOL0     H17953   0.067   1.484   3.230 -0.7065 -2.2228  1.0161
  874MOL0     H17954  -0.246   2.053   3.403 -0.2064  1.0997 -0.9326
  874MOL0     H17955  -0.478   2.105   3.336  0.0331  2.9653 -4.1392
  874MOL0     H17956  -0.724   2.029   3.290  0.2059 -0.0179 -0.3672
  874MOL0     H17957  -0.647   2.164   3.209 -0.6961 -0.3486 -0.0161
  874MOL0     H17958  -0.793   2.114   3.009  2.7083 -0.1919  1.1736
  874MOL0     H17959  -0.889   2.003   3.105  1.0647 -1.1963  0.0031
  874MOL0     H17960  -0.988   2.153   3.221  0.6214 -0.8392  0.4164
  874MOL0     H17961  -0.961   2.252   3.071  0.1816 -1.5820  0.2655
  874MOL0     H17962  -0.818   2.256   3.337 -0.8845  0.6301  0.8720
  874MOL0     H17963  -0.786   2.367   3.204  1.4023 -0.2127  2.4093
  874MOL0     H17964  -0.891   2.482   3.358  0.1940  2.2868 -2.0539
  874MOL0     H17965  -1.022   2.359   3.386 -1.1019  1.0418  0.3180
  874MOL0     H17966  -1.061   2.595   3.240 -0.6246 -0.3933  1.2565
  874MOL0     H17967  -1.001   2.495   3.107  0.4172 -0.8328  0.3702
  874MOL0     H17968  -1.238   2.457   3.296  1.6411  0.6085  1.2254
  874MOL0     H17969  -1.187   2.321   3.190 -0.9093 -0.2186 -2.1473
  874MOL0     H17970  -1.374   2.435   3.095 -0.6882  1.0893 -0.4445
  874MOL0     H17971  -1.226   2.452   2.990  2.9736  0.7041  1.4863
  874MOL0     H17972  -0.439   1.871   2.990  1.2284  0.2558 -0.5782
  874MOL0     H17973  -0.193   1.837   3.044  1.9305  1.5760  1.6367
  874MOL0     H17974   0.147   1.980   3.331 -1.1495 -0.3420 -3.1495
  874MOL0     H17975   0.371   1.967   3.368  0.3398  0.5109 -1.3110
  874MOL0     H17976   1.865   0.384   3.643 -3.2646  0.5245 -3.2612
  874MOL0     H17977   2.114   0.401   3.641  0.5393  1.1648  2.1749
  874MOL0     H17978   2.550   0.733   3.288  2.0163  0.2642  0.6838
  874MOL0     H17979   2.775   0.674   3.308  0.9273  0.6335  1.6725
  874MOL0     H17980   2.925   0.466   3.289  0.3316 -2.7606  0.7434
  874MOL0     H17981   3.018   0.606   3.352  1.6260 -0.9124 -1.1267
  874MOL0     H17982   3.144   0.381   3.304  1.0887 -2.0666  0.0473
  874MOL0     H17983   3.054   0.332   3.448 -0.7878 -0.5797 -0.2021
  874MOL0     H17984   3.193   0.473   3.593  0.0109 -0.4569  0.0032
  874MOL0     H17985   3.222   0.578   3.451 -6.6239 -0.6245 -2.6448
  874MOL0     H17986   3.355   0.422   3.339 -2.1338 -3.3579 -2.1876
  874MOL0     H17987   3.315   0.287   3.458 -0.7230  0.8275  1.0649
  874MOL0     H17988   3.627   0.559   3.614 -0.3389  0.8540 -0.4240
  874MOL0     H17989   2.689   0.426   3.653  1.3474  1.5528  1.1213
  874MOL0     H17990   2.457   0.520   3.654 -0.8100  0.6567 -0.2142
  875MOL0     O17991   8.306   7.923  10.735 -0.8008  0.8024  0.5055
  875MOL0     C17992   8.317   7.922  10.609  0.1219  0.7442 -1.1458
  875MOL0     O17993   8.428   7.884  10.535 -0.2111  0.7083 -0.3565
  875MOL0     C17994   8.520   7.800  10.599 -0.1201  0.0992 -0.3680
  875MOL0     C17995   8.515   7.667  10.556  0.2408  0.1847 -0.3768
  875MOL0     C17996   8.595   7.569  10.619  0.2946 -0.1963  0.4222
  875MOL0     C17997   8.661   7.600  10.732  0.9340  0.5989  0.5157
  875MOL0     O17998   8.738   7.506  10.792  0.3267 -0.4039 -0.3269
  875MOL0     C17999   8.715   7.363  10.774  0.3368  0.0356 -0.3459
  875MOL0     C18000   8.801   7.292  10.891  0.6037  0.4344  0.4004
  875MOL0     C18001   8.698   7.226  10.992 -0.6687 -0.4698  0.5370
  875MOL0     C18002   8.782   7.148  11.097  0.4264  0.4649 -0.3487
  875MOL0     C18003   8.694   7.075  11.204  0.6820  0.3956  0.2196
  875MOL0     C18004   8.780   6.969  11.279  0.6273 -0.6538 -0.0166
  875MOL0     C18005   8.713   6.919  11.399 -0.6027 -0.3447 -0.4262
  875MOL0     C18006   8.571   6.856  11.350 -0.0045 -0.4296  0.0924
  875MOL0     N18007   8.494   6.788  11.457 -0.0544  0.7335 -0.4723
  875MOL0     C18008   8.440   6.849  11.559  0.2451  0.8807 -0.1181
  875MOL0     C18009   8.415   6.761  11.658  0.0154 -0.3981 -0.3589
  875MOL0     C18010   8.361   6.795  11.797  0.3913  0.2415  0.8851
  875MOL0     C18011   8.456   6.873  11.885  0.1889 -1.3255  0.1754
  875MOL0     C18012   8.588   6.809  11.904  0.5473  0.4714  0.1066
  875MOL0     C18013   8.581   6.662  11.961  0.0041 -0.6017  0.5149
  875MOL0     O18014   8.494   6.663  12.074  0.0869  0.1183 -0.3385
  875MOL0     C18015   8.466   6.549  12.145 -0.5837 -0.4288 -0.3046
  875MOL0     C18016   8.477   6.422  12.093  0.5784  0.2506 -0.8237
  875MOL0     C18017   8.438   6.313  12.172  0.4515 -0.2906 -0.0255
  875MOL0     C18018   8.429   6.172  12.109  0.3201  0.9599 -0.2723
  875MOL0     C18019   8.393   6.330  12.306 -0.0290 -0.7830 -0.3373
  875MOL0     C18020   8.355   6.226  12.401  0.2936  0.2517  1.0460
  875MOL0     O18021   8.401   6.242  12.529  0.0608  0.3100 -0.5447
  875MOL0     C18022   8.344   6.164  12.627  0.1153 -0.2719 -0.0806
  875MOL0     C18023   8.249   6.224  12.709  0.1500 -0.5076 -0.9859
  875MOL0     C18024   8.198   6.153  12.820  0.0519  0.0436  0.4272
  875MOL0     C18025   8.223   6.018  12.837  0.3813  0.3181  0.4594
  875MOL0     O18026   8.172   5.924  12.923  0.4708 -0.0065  0.5473
  875MOL0     C18027   8.080   5.972  13.020 -0.3625 -1.0149 -1.0656
  875MOL0     C18028   8.009   5.864  13.073  0.9919 -0.6020  0.0276
  875MOL0     C18029   7.903   5.815  12.973  0.8424 -0.4091 -0.2091
  875MOL0     C18030   7.822   5.691  13.018 -0.0897 -0.4577 -1.0197
  875MOL0     C18031   7.698   5.670  12.931  0.2573  0.7547  0.0813
  875MOL0     C18032   7.622   5.543  12.974  0.3311  0.0998  0.4484
  875MOL0     C18033   7.532   5.573  13.099 -0.5095  0.6039  0.4248
  875MOL0     C18034   7.496   5.448  13.172 -0.3885 -0.2967  0.4569
  875MOL0    Cl18035   7.420   5.329  13.057  0.3907  0.2799  0.2547
  875MOL0     C18036   8.321   5.966  12.751 -0.0506 -0.4587 -0.5070
  875MOL0     C18037   8.386   6.037  12.649 -0.3500  0.0264 -0.4268
  875MOL0     O18038   8.268   6.141  12.365 -0.0201  0.2383 -0.0218
  875MOL0     C18039   8.395   6.459  12.358  0.3994 -0.8228 -0.9480
  875MOL0     C18040   8.434   6.568  12.282  0.1447 -0.7378  0.0579
  875MOL0     N18041   8.437   6.643  11.596  0.2478 -0.3734  0.0642
  875MOL0     N18042   8.488   6.657  11.478 -0.1779  0.7526 -0.6037
  875MOL0     C18043   8.667   7.737  10.772  1.0091 -0.0332 -0.2490
  875MOL0     C18044   8.597   7.840  10.704  0.0161 -0.4215  0.3293
  875MOL0     C18045   8.211   7.973  10.531 -0.1363 -0.2082 -0.2909
  875MOL0     C18046   8.193   7.925  10.399 -0.1697  0.2612  0.2569
  875MOL0     C18047   8.089   7.975  10.317  0.3112 -0.3409 -0.6562
  875MOL0     C18048   7.991   8.070  10.360 -0.5539  0.1163 -0.1345
  875MOL0     O18049   7.889   8.117  10.283  0.1941 -0.5009 -0.7650
  875MOL0     C18050   7.866   8.074  10.145  0.1311  0.1134  0.3433
  875MOL0     C18051   7.953   8.173  10.057  0.7074  0.6262  0.6332
  875MOL0     C18052   7.860   8.303  10.039  0.2720 -0.2938  0.5923
  875MOL0     C18053   7.895   8.397   9.920 -0.2693  0.2090 -0.3423
  875MOL0     C18054   8.011   8.468   9.973  0.0512  0.4198  0.4646
  875MOL0     C18055   8.113   8.520  10.016  0.2722 -0.1099 -0.6368
  875MOL0     C18056   8.009   8.111  10.495 -0.9609 -0.5318 -0.2856
  875MOL0     C18057   8.111   8.067  10.573 -0.7273 -0.3872 -0.1460
  875MOL0     H18058   8.444   7.642  10.478 -0.9117 -0.2977  0.7769
  875MOL0     H18059   8.609   7.468  10.582 -1.0206 -0.7918  1.4473
  875MOL0     H18060   8.609   7.338  10.778  0.2020  0.7508  2.9954
  875MOL0     H18061   8.754   7.334  10.676 -0.1312 -0.5659 -0.3583
  875MOL0     H18062   8.851   7.212  10.837 -1.2183 -1.3389  1.1940
  875MOL0     H18063   8.875   7.354  10.942  0.8996  0.9822 -0.6665
  875MOL0     H18064   8.646   7.312  11.035  1.0403  0.0009  1.8058
  875MOL0     H18065   8.639   7.145  10.949  2.2243 -0.9674 -2.9910
  875MOL0     H18066   8.853   7.081  11.046  0.9876  1.0204 -0.3053
  875MOL0     H18067   8.851   7.216  11.148  1.2545 -0.0372 -0.7784
  875MOL0     H18068   8.658   7.143  11.282  0.0158 -0.7970  0.9824
  875MOL0     H18069   8.611   7.027  11.150 -0.7786  1.6877  1.2077
  875MOL0     H18070   8.812   6.889  11.212  1.1961  0.7693 -1.5067
  875MOL0     H18071   8.876   7.015  11.302 -0.4006  1.6553 -0.0889
  875MOL0     H18072   8.773   6.842  11.448 -0.2730 -0.4309 -0.9586
  875MOL0     H18073   8.703   7.002  11.470  2.5072  2.0658 -2.5679
  875MOL0     H18074   8.593   6.790  11.265 -0.8274  0.9252 -1.2074
  875MOL0     H18075   8.500   6.930  11.316 -1.0413 -0.8098  1.3430
  875MOL0     H18076   8.424   6.956  11.567  0.6959  0.8632  1.1966
  875MOL0     H18077   8.270   6.855  11.783 -1.1477 -1.2524  3.6460
  875MOL0     H18078   8.335   6.698  11.840 -1.1360  0.6094  0.8662
  875MOL0     H18079   8.405   6.894  11.980 -0.4732 -2.9010  0.2016
  875MOL0     H18080   8.472   6.970  11.837  0.8041  1.2993  4.9714
  875MOL0     H18081   8.639   6.864  11.983  0.8982 -2.2385  1.9011
  875MOL0     H18082   8.651   6.800  11.815 -0.5294 -0.1371 -0.6264
  875MOL0     H18083   8.679   6.625  11.991  0.8609 -0.0465 -1.4464
  875MOL0     H18084   8.542   6.604  11.877 -1.4664  0.6950  0.2481
  875MOL0     H18085   8.506   6.413  11.989 -2.3023  1.9280 -1.8901
  875MOL0     H18086   8.328   6.130  12.120 -0.8091  3.3455 -0.8179
  875MOL0     H18087   8.464   6.177  12.006 -1.1567 -4.3968 -1.3500
  875MOL0     H18088   8.495   6.103  12.163 -2.3606 -1.0694  0.6891
  875MOL0     H18089   8.223   6.329  12.701 -0.4480 -0.6330 -0.7693
  875MOL0     H18090   8.126   6.199  12.887  0.1857 -0.1526  0.7051
  875MOL0     H18091   8.143   6.009  13.102 -3.6588 -1.4643  1.9124
  875MOL0     H18092   8.020   6.059  12.991 -0.8359 -1.5128 -1.6163
  875MOL0     H18093   8.082   5.792  13.111  0.1735 -0.0993  2.7251
  875MOL0     H18094   7.971   5.885  13.173  0.6186  2.3269 -0.6294
  875MOL0     H18095   7.956   5.794  12.879  1.7562 -1.1056  0.4430
  875MOL0     H18096   7.830   5.895  12.957  0.5794 -0.2550  1.5590
  875MOL0     H18097   7.886   5.602  13.016 -1.4672 -1.4940 -1.0870
  875MOL0     H18098   7.794   5.707  13.122 -1.1868 -0.2548 -1.3351
  875MOL0     H18099   7.725   5.662  12.825 -2.4265  0.3085 -0.6283
  875MOL0     H18100   7.628   5.753  12.942 -1.1251 -0.5225  1.2113
  875MOL0     H18101   7.558   5.524  12.887  2.0071  0.3254 -0.8858
  875MOL0     H18102   7.694   5.462  12.991 -2.0887 -2.2625  0.1867
  875MOL0     H18103   7.450   5.640  13.070  1.0613  1.5737 -2.1263
  875MOL0     H18104   7.592   5.628  13.172 -0.4500 -0.0264  0.8554
  875MOL0     H18105   7.423   5.480  13.246 -0.9641 -0.9451  0.1792
  875MOL0     H18106   7.578   5.399  13.224  0.2517 -0.7555 -0.9202
  875MOL0     H18107   8.341   5.859  12.751 -1.2374 -0.6995 -1.0209
  875MOL0     H18108   8.472   5.995  12.598 -0.5688 -1.6561  0.5203
  875MOL0     H18109   8.358   6.465  12.460  0.9594 -0.5066 -0.7593
  875MOL0     H18110   8.440   6.672  12.313  0.6651 -0.6721 -0.2376
  875MOL0     H18111   8.740   7.765  10.847  1.7543 -4.5548  1.0578
  875MOL0     H18112   8.600   7.945  10.731  1.2109 -0.3317 -0.1144
  875MOL0     H18113   8.250   7.840  10.362  0.6684 -0.2555  2.6015
  875MOL0     H18114   8.086   7.929  10.219  2.6152 -3.7716  0.6838
  875MOL0     H18115   7.898   7.970  10.131  0.1892  0.4091 -2.2568
  875MOL0     H18116   7.761   8.075  10.115  0.4757 -0.0907 -0.9569
  875MOL0     H18117   7.984   8.121   9.966  0.1671  1.2494  0.0881
  875MOL0     H18118   8.050   8.193  10.104  1.5548 -0.1492 -0.7055
  875MOL0     H18119   7.862   8.360  10.132 -2.3953  0.4138  0.3004
  875MOL0     H18120   7.757   8.269  10.021 -0.0270 -0.2483  2.0830
  875MOL0     H18121   7.826   8.477   9.892 -1.2723 -0.4115  0.2915
  875MOL0     H18122   7.917   8.335   9.832 -0.7219  3.9257 -3.3086
  875MOL0     H18123   8.200   8.569  10.055 -0.6282  1.4608 -0.5105
  875MOL0     H18124   7.943   8.189  10.531 -1.3125 -0.8088 -0.3171
  875MOL0     H18125   8.111   8.105  10.675  1.3516 -1.2529  0.2091
  876MOL0     O18126   5.127   6.197   8.403  0.1266  0.0649 -0.3340
  876MOL0     C18127   5.143   6.193   8.522 -0.7536  0.9226  0.0486
  876MOL0     O18128   5.239   6.254   8.591 -0.5736  0.5896  0.0353
  876MOL0     C18129   5.361   6.285   8.535 -0.9026 -0.3017 -1.0227
  876MOL0     C18130   5.469   6.192   8.526 -0.0013 -0.0363 -0.1398
  876MOL0     C18131   5.592   6.223   8.465  0.0750 -0.5296 -0.2769
  876MOL0     C18132   5.614   6.352   8.412 -0.2851  0.4174  0.6998
  876MOL0     O18133   5.743   6.386   8.362 -0.3713 -0.1753 -0.2051
  876MOL0     C18134   5.770   6.531   8.349 -0.2912 -0.5021  0.2557
  876MOL0     C18135   5.913   6.574   8.385 -0.6750 -0.1814 -0.3061
  876MOL0     C18136   6.012   6.483   8.322  0.5271  0.3167  0.2368
  876MOL0     C18137   6.160   6.519   8.349  0.3021 -0.2024 -0.3246
  876MOL0     C18138   6.257   6.431   8.261 -0.0459  0.4348  0.0390
  876MOL0     C18139   6.400   6.451   8.321  0.6863  0.2109  0.3182
  876MOL0     C18140   6.504   6.388   8.243 -0.0952 -0.0738  0.2027
  876MOL0     C18141   6.560   6.470   8.127  0.6752  0.0175 -0.2079
  876MOL0     N18142   6.583   6.616   8.159  1.0934 -0.3482 -1.1482
  876MOL0     C18143   6.704   6.659   8.207 -0.1358  0.3291 -0.2701
  876MOL0     C18144   6.695   6.791   8.209 -0.6203  0.1513 -0.2963
  876MOL0     C18145   6.815   6.888   8.229  0.0074  0.3142  0.2049
  876MOL0     C18146   6.831   6.948   8.369 -1.0293 -0.2420 -0.5543
  876MOL0     C18147   6.707   7.031   8.412  1.0944 -0.5876 -0.7003
  876MOL0     C18148   6.697   7.168   8.347 -0.2825  0.2062  0.7152
  876MOL0     O18149   6.584   7.243   8.401  0.7831 -0.0257  0.2960
  876MOL0     C18150   6.467   7.182   8.412  0.6426  0.2842 -0.2326
  876MOL0     C18151   6.415   7.102   8.307 -0.9788  0.6600 -0.0839
  876MOL0     C18152   6.289   7.036   8.323  0.6231  0.3111  0.5583
  876MOL0     C18153   6.227   6.949   8.213  0.2341 -0.0414  0.1777
  876MOL0     C18154   6.220   7.053   8.445  0.3694  0.8968  0.4144
  876MOL0     C18155   6.080   7.009   8.468 -1.3429  0.8177 -0.0760
  876MOL0     O18156   6.028   7.014   8.599  0.1614  0.0115 -0.2133
  876MOL0     C18157   5.892   6.990   8.613  0.4067 -0.3819  0.0126
  876MOL0     C18158   5.822   6.869   8.585  0.8191 -0.5446 -0.6373
  876MOL0     C18159   5.677   6.865   8.603 -0.2576 -0.5631 -0.6607
  876MOL0     C18160   5.604   6.976   8.652  0.4079  0.1481 -0.3144
  876MOL0     O18161   5.471   6.964   8.666 -0.7819 -0.0767 -0.0389
  876MOL0     C18162   5.394   7.055   8.740 -0.3631 -0.2017  0.1630
  876MOL0     C18163   5.260   6.995   8.767  0.0462 -0.6698 -0.8142
  876MOL0     C18164   5.176   7.103   8.856  0.2429 -0.6746  0.5189
  876MOL0     C18165   5.037   7.041   8.891  0.7776  0.9539  0.9384
  876MOL0     C18166   4.960   7.136   8.980 -0.6189  1.2588  0.0445
  876MOL0     C18167   4.819   7.102   8.989  0.0670  0.0788  0.4198
  876MOL0     C18168   4.779   6.962   9.020 -0.0904 -0.0999  0.5682
  876MOL0     C18169   4.621   6.948   9.026  0.5812 -1.0258  0.1845
  876MOL0    Cl18170   4.543   7.046   9.162 -0.2955 -0.0143  0.5408
  876MOL0     C18171   5.674   7.095   8.670  0.2171 -0.7985  0.0702
  876MOL0     C18172   5.816   7.101   8.658 -0.1887 -0.1864 -0.2419
  876MOL0     O18173   6.007   7.004   8.373  0.2079 -0.7351 -0.0842
  876MOL0     C18174   6.275   7.128   8.551  0.0670  0.4310 -0.5917
  876MOL0     C18175   6.395   7.189   8.528 -0.4691 -0.3225 -0.3030
  876MOL0     N18176   6.574   6.841   8.168  0.2145 -0.3977 -0.3905
  876MOL0     N18177   6.514   6.730   8.127 -0.1025  0.2590  0.2196
  876MOL0     C18178   5.503   6.439   8.410 -0.4314 -0.0968 -0.5709
  876MOL0     C18179   5.384   6.409   8.471  0.6830  0.1898 -0.0954
  876MOL0     C18180   5.045   6.115   8.609  0.1937 -0.5579 -0.1070
  876MOL0     C18181   4.937   6.054   8.550  0.6241  0.6749 -0.5826
  876MOL0     C18182   4.842   5.982   8.621 -0.0424  0.1915  0.5376
  876MOL0     C18183   4.845   5.966   8.755 -0.3619  0.5567 -0.0308
  876MOL0     O18184   4.755   5.902   8.839  0.5924 -0.3270  0.3555
  876MOL0     C18185   4.619   5.932   8.808 -0.4852 -0.5692  0.6434
  876MOL0     C18186   4.530   5.835   8.875  0.3294 -0.3534  0.7063
  876MOL0     C18187   4.586   5.696   8.898 -0.3295  0.2634  0.6674
  876MOL0     C18188   4.486   5.614   8.988  0.2324  0.6954  0.6586
  876MOL0     C18189   4.531   5.478   9.004 -0.0506  0.1085 -0.6706
  876MOL0     C18190   4.584   5.374   9.033 -0.1547  0.2514 -0.6974
  876MOL0     C18191   4.953   6.029   8.819  0.2925 -0.1665 -0.2999
  876MOL0     C18192   5.052   6.104   8.745 -0.3924  0.0228 -0.2076
  876MOL0     H18193   5.452   6.094   8.568 -1.6796  0.6500  0.8836
  876MOL0     H18194   5.672   6.153   8.445  0.6298  0.4999 -1.8639
  876MOL0     H18195   5.759   6.550   8.242  1.8545  2.3879  0.4319
  876MOL0     H18196   5.700   6.598   8.400 -3.4464 -1.5748 -2.3013
  876MOL0     H18197   5.926   6.680   8.362  1.1259 -0.3711 -0.2923
  876MOL0     H18198   5.937   6.568   8.492  3.0550  0.6715 -0.9495
  876MOL0     H18199   5.993   6.388   8.373 -1.6980  2.2115  3.2426
  876MOL0     H18200   5.984   6.476   8.216 -1.6290 -1.3007  0.8379
  876MOL0     H18201   6.178   6.626   8.330  0.3475  0.3221  2.2371
  876MOL0     H18202   6.184   6.503   8.455 -0.5657  2.9955  0.4811
  876MOL0     H18203   6.223   6.329   8.244  2.1608 -0.6258  1.4912
  876MOL0     H18204   6.250   6.482   8.165  1.9432  0.9591  0.1155
  876MOL0     H18205   6.426   6.553   8.351  3.3033 -0.6627  1.3387
  876MOL0     H18206   6.399   6.386   8.409  0.3646 -1.3157 -0.7868
  876MOL0     H18207   6.588   6.365   8.309  2.5596  4.7235 -0.9984
  876MOL0     H18208   6.461   6.297   8.200  2.7913 -2.1453  1.4087
  876MOL0     H18209   6.501   6.465   8.035  2.1845  0.2717 -1.2307
  876MOL0     H18210   6.658   6.428   8.103  0.7214 -0.4162  0.6877
  876MOL0     H18211   6.783   6.593   8.241 -2.4896 -2.7272 -0.3450
  876MOL0     H18212   6.910   6.838   8.204  0.0079  0.8931 -0.9780
  876MOL0     H18213   6.799   6.961   8.150  2.6274 -1.4385 -2.1674
  876MOL0     H18214   6.916   7.017   8.371 -0.7052 -0.6261 -1.1258
  876MOL0     H18215   6.848   6.872   8.446 -0.2432  0.3511 -0.1260
  876MOL0     H18216   6.718   7.048   8.520  0.2433  0.5612 -0.7771
  876MOL0     H18217   6.618   6.970   8.395  1.5534 -0.7593 -2.6834
  876MOL0     H18218   6.692   7.159   8.239 -0.6700  1.3930  0.6109
  876MOL0     H18219   6.792   7.215   8.373 -0.8547  0.5833  2.2967
  876MOL0     H18220   6.472   7.092   8.215  0.7695  1.4806  0.8459
  876MOL0     H18221   6.152   7.010   8.162 -0.2151 -1.8446 -1.4804
  876MOL0     H18222   6.304   6.917   8.142  0.3811 -0.3844  0.4845
  876MOL0     H18223   6.191   6.855   8.257 -0.0535 -0.6570 -1.3264
  876MOL0     H18224   5.871   6.788   8.532 -2.4512 -3.0065 -0.2408
  876MOL0     H18225   5.621   6.775   8.580  0.4642 -1.0463 -0.5742
  876MOL0     H18226   5.441   7.080   8.836 -2.5959  1.1588  0.9609
  876MOL0     H18227   5.379   7.146   8.681  0.2751 -0.3687 -0.2690
  876MOL0     H18228   5.209   6.987   8.671 -1.1270  0.3864 -0.3188
  876MOL0     H18229   5.273   6.899   8.816  0.1811 -0.9604 -1.4150
  876MOL0     H18230   5.155   7.190   8.794  2.7894  0.1115  0.6595
  876MOL0     H18231   5.221   7.137   8.950 -2.0514 -1.2516  1.9310
  876MOL0     H18232   4.979   7.023   8.800 -0.4009 -1.4641  2.0655
  876MOL0     H18233   5.044   6.950   8.951 -1.1104  0.8021  0.9774
  876MOL0     H18234   4.965   7.240   8.945  0.5316  0.6755 -1.6495
  876MOL0     H18235   4.992   7.124   9.084 -2.4674  1.2347  0.6567
  876MOL0     H18236   4.769   7.167   9.062 -3.0677 -1.6085 -0.0528
  876MOL0     H18237   4.772   7.120   8.892 -1.5427 -1.5866  0.8519
  876MOL0     H18238   4.815   6.927   9.118  0.8007  1.4889  0.8469
  876MOL0     H18239   4.810   6.892   8.943 -0.4716  1.0173 -0.6450
  876MOL0     H18240   4.592   6.846   9.053  0.3258 -0.2979  3.0125
  876MOL0     H18241   4.580   6.970   8.927 -1.3810  0.7238  1.3103
  876MOL0     H18242   5.619   7.184   8.698  1.5509  0.5380 -1.2890
  876MOL0     H18243   5.866   7.195   8.678  0.6693 -0.7460  0.2680
  876MOL0     H18244   6.229   7.141   8.649  0.3289 -1.4340 -0.1729
  876MOL0     H18245   6.431   7.244   8.614 -1.5419 -1.2459  0.7818
  876MOL0     H18246   5.515   6.529   8.351  0.2131 -1.5526 -2.7951
  876MOL0     H18247   5.295   6.470   8.466 -0.4105 -1.0860  2.0627
  876MOL0     H18248   4.919   6.054   8.443  0.0313 -0.8367 -0.4945
  876MOL0     H18249   4.762   5.937   8.565 -0.7623  0.1344  1.5815
  876MOL0     H18250   4.594   6.030   8.848  0.3434  0.1539 -0.5227
  876MOL0     H18251   4.594   5.935   8.701  2.1301  0.0749 -0.0365
  876MOL0     H18252   4.439   5.831   8.814  0.6692 -0.2920  0.1929
  876MOL0     H18253   4.496   5.882   8.968  0.0585  3.8989 -1.2808
  876MOL0     H18254   4.678   5.698   8.957 -0.5297  1.4311  0.9693
  876MOL0     H18255   4.611   5.638   8.809 -1.4435 -1.7600  1.6094
  876MOL0     H18256   4.387   5.632   8.945 -0.4529 -0.2229  1.8194
  876MOL0     H18257   4.487   5.662   9.087 -0.0872 -1.0654  1.5525
  876MOL0     H18258   4.622   5.279   9.065 -0.4438  0.3875  0.0860
  876MOL0     H18259   4.945   6.015   8.926 -1.3196 -0.6576 -0.4514
  876MOL0     H18260   5.139   6.145   8.796 -0.6028 -0.7544  0.7994
  877MOL0     O18261   5.245   1.877   5.153  0.4296  0.0693 -0.1917
  877MOL0     C18262   5.306   1.897   5.265  0.2274  0.3934  0.9518
  877MOL0     O18263   5.245   1.916   5.386  0.2267  0.1652 -0.4974
  877MOL0     C18264   5.105   1.914   5.387  0.7424 -0.5965  0.2414
  877MOL0     C18265   5.037   1.794   5.390 -0.0658  0.5202 -0.6216
  877MOL0     C18266   4.893   1.797   5.379 -0.0732 -0.5351 -1.2432
  877MOL0     C18267   4.822   1.915   5.390 -0.1757 -1.1043  0.8325
  877MOL0     O18268   4.688   1.901   5.388  0.0201  0.1194 -0.2430
  877MOL0     C18269   4.608   2.013   5.344  0.8923  0.2230 -0.5507
  877MOL0     C18270   4.462   1.964   5.348  0.8675 -0.3184  0.0083
  877MOL0     C18271   4.366   2.076   5.346  0.0094 -0.5451 -0.7224
  877MOL0     C18272   4.289   2.087   5.214  0.2464  1.0113 -0.3734
  877MOL0     C18273   4.183   2.199   5.226  0.0435 -0.0868 -0.2778
  877MOL0     C18274   4.084   2.178   5.341 -0.5153 -0.4046 -0.5176
  877MOL0     C18275   3.982   2.289   5.324 -0.3715 -0.1441 -0.7099
  877MOL0     C18276   3.885   2.258   5.205  1.1496 -0.6445 -0.1124
  877MOL0     N18277   3.812   2.128   5.206 -0.0551 -0.0652  0.6850
  877MOL0     C18278   3.733   2.080   5.310 -0.0588  0.3998  0.0260
  877MOL0     C18279   3.670   1.966   5.268 -0.2777  0.5291 -0.8215
  877MOL0     C18280   3.571   1.867   5.326 -0.2028  1.2239 -0.5317
  877MOL0     C18281   3.423   1.909   5.307 -0.5750  0.9992  0.1641
  877MOL0     C18282   3.342   1.806   5.379  0.1963 -0.5428  0.2249
  877MOL0     C18283   3.192   1.833   5.364  0.7604 -0.5298 -0.7139
  877MOL0     O18284   3.121   1.724   5.424 -1.0203  0.2748 -0.5217
  877MOL0     C18285   2.994   1.728   5.462 -0.0627 -0.0141  0.1923
  877MOL0     C18286   2.913   1.833   5.434  0.7485 -0.0836  0.6302
  877MOL0     C18287   2.780   1.840   5.473  1.0991  0.1406  0.8170
  877MOL0     C18288   2.699   1.967   5.443 -0.1332 -0.0857  0.7812
  877MOL0     C18289   2.725   1.730   5.548 -1.1314  0.1400 -0.8913
  877MOL0     C18290   2.584   1.708   5.594  0.8443  0.1849  0.9688
  877MOL0     O18291   2.549   1.578   5.624 -0.2216  0.3285  0.3855
  877MOL0     C18292   2.419   1.551   5.676 -0.6116  0.6497 -0.0510
  877MOL0     C18293   2.413   1.482   5.801 -0.1248  0.2692  0.9728
  877MOL0     C18294   2.289   1.449   5.860  0.0514 -0.7083 -0.2889
  877MOL0     C18295   2.171   1.477   5.791  0.0062  0.2644  0.0820
  877MOL0     O18296   2.059   1.445   5.856  0.8353  0.5825  0.2922
  877MOL0     C18297   1.962   1.540   5.833  0.7052 -0.9701 -0.6441
  877MOL0     C18298   1.832   1.503   5.920 -0.6487 -1.1332  0.0482
  877MOL0     C18299   1.732   1.415   5.853 -0.2781  0.7887 -0.1951
  877MOL0     C18300   1.795   1.277   5.820 -0.1966 -0.3673  0.2131
  877MOL0     C18301   1.676   1.184   5.795  1.0036 -0.1424  0.1162
  877MOL0     C18302   1.709   1.055   5.735  0.0291  0.0219  0.4173
  877MOL0     C18303   1.778   0.963   5.841 -1.2709 -0.6303  0.3495
  877MOL0     C18304   1.789   0.816   5.800  0.7236 -0.0158 -0.5134
  877MOL0    Cl18305   1.918   0.792   5.672  0.0369  0.2597 -0.0285
  877MOL0     C18306   2.181   1.529   5.658  0.5615  0.1612  0.7312
  877MOL0     C18307   2.304   1.574   5.602 -0.1246  0.2085 -0.1068
  877MOL0     O18308   2.503   1.795   5.584  0.0329 -0.3345 -0.5592
  877MOL0     C18309   2.808   1.626   5.574 -0.1342  0.3720  0.2389
  877MOL0     C18310   2.941   1.622   5.528 -0.4749 -0.1754  0.0811
  877MOL0     N18311   3.722   1.936   5.140 -0.1075 -0.4801 -0.6113
  877MOL0     N18312   3.808   2.034   5.104 -0.8239 -0.3071 -0.3311
  877MOL0     C18313   4.895   2.037   5.391 -0.2431  0.4777 -0.3916
  877MOL0     C18314   5.031   2.032   5.373  0.7451 -0.5765 -0.7100
  877MOL0     C18315   5.457   1.889   5.268  1.0463 -0.1891  0.3121
  877MOL0     C18316   5.532   1.835   5.165 -0.3090  0.2259  0.4570
  877MOL0     C18317   5.674   1.824   5.174 -1.1772  1.0202 -0.3384
  877MOL0     C18318   5.744   1.871   5.288 -0.0369 -0.3876  0.0251
  877MOL0     O18319   5.872   1.852   5.288  0.0984  0.1151  0.7574
  877MOL0     C18320   5.940   1.866   5.413 -0.4073 -0.7228  0.1478
  877MOL0     C18321   6.087   1.833   5.375 -0.5463 -0.4282  0.7636
  877MOL0     C18322   6.166   1.789   5.498 -0.3499 -0.2518 -0.9450
  877MOL0     C18323   6.205   1.914   5.581 -1.0539  0.6310  0.2095
  877MOL0     C18324   6.259   1.864   5.709  0.4728  0.4076 -0.8312
  877MOL0     C18325   6.319   1.828   5.808 -0.2122 -0.9400  0.0696
  877MOL0     C18326   5.669   1.935   5.386  1.5891  1.1899 -0.1900
  877MOL0     C18327   5.528   1.946   5.376  0.1127  0.0359 -0.7300
  877MOL0     H18328   5.104   1.709   5.392 -2.3155 -1.3433 -0.4728
  877MOL0     H18329   4.850   1.699   5.365 -0.0774 -0.2534 -3.6463
  877MOL0     H18330   4.624   2.100   5.408  2.6294  0.3528 -1.1295
  877MOL0     H18331   4.626   2.039   5.239 -0.7025 -0.4285 -1.0202
  877MOL0     H18332   4.447   1.898   5.261 -3.5914 -0.6018  0.7447
  877MOL0     H18333   4.442   1.900   5.434  0.3020 -1.7951 -1.1669
  877MOL0     H18334   4.288   2.070   5.422  1.2845 -0.5587  0.6370
  877MOL0     H18335   4.418   2.172   5.357 -3.2670  1.4179 -0.9649
  877MOL0     H18336   4.365   2.098   5.136  0.5373 -1.4267 -0.5084
  877MOL0     H18337   4.235   1.993   5.197  0.4024  0.9637 -0.6180
  877MOL0     H18338   4.241   2.291   5.236  0.9783 -0.6370 -0.4759
  877MOL0     H18339   4.133   2.200   5.129 -3.9156 -1.3337  1.5389
  877MOL0     H18340   4.040   2.078   5.336 -0.0667 -0.6815  0.6800
  877MOL0     H18341   4.132   2.187   5.439 -0.5362 -1.5138 -0.3856
  877MOL0     H18342   3.918   2.295   5.413 -1.4857 -3.1790 -1.1908
  877MOL0     H18343   4.026   2.388   5.319 -2.0560  0.5732 -2.4884
  877MOL0     H18344   3.922   2.275   5.104 -1.6285 -0.1766 -1.1473
  877MOL0     H18345   3.808   2.335   5.208  0.1397 -1.5640 -1.2062
  877MOL0     H18346   3.699   2.150   5.386  0.6183  0.8960 -0.1219
  877MOL0     H18347   3.592   1.777   5.268  0.2145  1.6731 -1.0928
  877MOL0     H18348   3.589   1.847   5.432 -0.2823  0.9426 -0.5710
  877MOL0     H18349   3.390   1.915   5.203 -1.2685 -0.4553  0.2770
  877MOL0     H18350   3.409   2.003   5.361 -2.8543 -0.2402  1.9227
  877MOL0     H18351   3.368   1.816   5.485 -1.6884 -2.7243  0.9761
  877MOL0     H18352   3.362   1.703   5.346 -3.5500 -2.0905  2.1178
  877MOL0     H18353   3.172   1.853   5.258  1.9522 -0.3619 -0.9209
  877MOL0     H18354   3.170   1.928   5.413 -0.8310  0.3617 -2.9860
  877MOL0     H18355   2.962   1.916   5.384  0.6585 -0.1250  0.4708
  877MOL0     H18356   2.764   2.032   5.384  0.0209 -1.0011 -0.1018
  877MOL0     H18357   2.618   1.948   5.372 -0.1832 -0.3747  0.9143
  877MOL0     H18358   2.668   2.022   5.531  0.5697 -1.2098  1.7718
  877MOL0     H18359   2.498   1.442   5.855 -1.2507 -3.1448  0.4896
  877MOL0     H18360   2.274   1.407   5.959 -0.9209  2.3431  0.9746
  877MOL0     H18361   1.990   1.645   5.843  0.1382 -0.9822  1.5027
  877MOL0     H18362   1.935   1.538   5.727  2.3781 -5.8535 -1.2387
  877MOL0     H18363   1.867   1.456   6.012  2.2161 -1.1090 -0.9331
  877MOL0     H18364   1.777   1.594   5.943 -1.6538 -2.1948  2.1358
  877MOL0     H18365   1.703   1.464   5.759 -0.9058  0.2545 -0.2830
  877MOL0     H18366   1.640   1.409   5.912 -0.3310 -0.9105 -0.4199
  877MOL0     H18367   1.861   1.288   5.733 -1.5804  2.7153 -0.6105
  877MOL0     H18368   1.849   1.246   5.910  1.1825  0.4648 -0.2818
  877MOL0     H18369   1.611   1.236   5.725 -0.0980 -2.2760 -0.5259
  877MOL0     H18370   1.619   1.178   5.889 -0.6683  3.6779 -0.4777
  877MOL0     H18371   1.612   1.012   5.708 -0.5349  1.9934 -0.8913
  877MOL0     H18372   1.766   1.058   5.641 -1.8522 -3.3521 -1.0648
  877MOL0     H18373   1.712   0.970   5.928 -0.8062  0.2706  0.6488
  877MOL0     H18374   1.877   1.007   5.857 -1.5472  0.4676 -0.8562
  877MOL0     H18375   1.697   0.778   5.753  0.7847  0.0411 -0.6808
  877MOL0     H18376   1.818   0.752   5.884  1.9889  0.5795 -0.4863
  877MOL0     H18377   2.087   1.545   5.606  1.3157  0.0744 -0.6911
  877MOL0     H18378   2.311   1.610   5.499  4.2405 -1.7764 -0.7569
  877MOL0     H18379   2.773   1.534   5.620 -2.6467 -0.4047 -2.9233
  877MOL0     H18380   2.992   1.529   5.551 -3.5862 -1.1275  4.3276
  877MOL0     H18381   4.854   2.136   5.379 -1.9816 -0.3284 -1.4731
  877MOL0     H18382   5.100   2.116   5.365  1.3103 -0.7844  1.3478
  877MOL0     H18383   5.474   1.807   5.078 -0.9004  1.3829  0.4699
  877MOL0     H18384   5.725   1.776   5.092 -0.1985  0.6326  0.4788
  877MOL0     H18385   5.927   1.963   5.461  0.8581 -0.8740  0.8602
  877MOL0     H18386   5.903   1.794   5.486 -2.5868  0.5366  0.3789
  877MOL0     H18387   6.128   1.918   5.321 -1.9369 -0.1734  0.0858
  877MOL0     H18388   6.087   1.749   5.305 -0.6230  3.5711 -4.6870
  877MOL0     H18389   6.258   1.734   5.477  1.5603  1.6813  1.6589
  877MOL0     H18390   6.105   1.733   5.570  1.7609  0.6247  1.7172
  877MOL0     H18391   6.132   1.995   5.584  0.4968  2.1034 -0.0989
  877MOL0     H18392   6.287   1.967   5.530 -0.6739 -1.3665 -1.4258
  877MOL0     H18393   6.383   1.807   5.892  2.4878  2.4307 -0.9320
  877MOL0     H18394   5.715   1.951   5.483  1.0794 -1.1662  0.5188
  877MOL0     H18395   5.461   1.988   5.450 -2.1252 -0.7079 -2.2295
  878MOL0     O18396  10.111   1.833   0.554  0.0833  0.4236  0.3731
  878MOL0     C18397  10.146   1.930   0.484 -0.2640 -0.0256 -0.5879
  878MOL0     O18398  10.072   1.991   0.380  0.4275 -0.0795  0.1277
  878MOL0     C18399   9.931   1.980   0.368 -0.4690  0.9560  0.4983
  878MOL0     C18400   9.874   2.005   0.241  0.3055  0.4563 -0.0921
  878MOL0     C18401   9.735   1.986   0.224  0.4435 -0.3454 -0.7097
  878MOL0     C18402   9.646   1.958   0.332 -0.0871  0.3421  0.2392
  878MOL0     O18403   9.512   1.954   0.298 -0.4736  0.9294 -0.1206
  878MOL0     C18404   9.425   1.874   0.381  0.1798 -0.0462  0.5020
  878MOL0     C18405   9.296   1.879   0.306  0.6811 -0.1959 -0.2683
  878MOL0     C18406   9.189   1.809   0.386  0.1605 -0.0901  0.3984
  878MOL0     C18407   9.052   1.792   0.315 -0.5733 -0.1603  0.3126
  878MOL0     C18408   8.965   1.706   0.402 -0.3669 -0.0769  0.2049
  878MOL0     C18409   8.827   1.709   0.340  0.2916  0.7609  0.6289
  878MOL0     C18410   8.735   1.598   0.378 -0.2553  0.7153  0.5939
  878MOL0     C18411   8.593   1.644   0.331 -0.5113 -0.8046  0.2410
  878MOL0     N18412   8.489   1.534   0.356  0.0106  0.5032 -0.3378
  878MOL0     C18413   8.487   1.412   0.293 -0.0424 -0.6848  0.6090
  878MOL0     C18414   8.379   1.354   0.330 -0.1605 -0.0640 -0.3544
  878MOL0     C18415   8.338   1.215   0.281  0.0954  0.3744 -0.2822
  878MOL0     C18416   8.292   1.128   0.397 -0.2200 -0.5966 -0.1502
  878MOL0     C18417   8.139   1.095   0.416 -0.3551 -0.4393 -0.0543
  878MOL0     C18418   8.059   1.222   0.446  0.2160  0.5822  0.0133
  878MOL0     O18419   7.926   1.190   0.490 -0.1245  0.3288 -1.0016
  878MOL0     C18420   7.838   1.146   0.391 -0.0732  0.2749 -0.4401
  878MOL0     C18421   7.851   1.152   0.256  0.0694 -0.1462 -0.1629
  878MOL0     C18422   7.744   1.121   0.176 -0.1126 -0.3508 -1.3375
  878MOL0     C18423   7.775   1.123   0.031 -0.5044 -0.5041  0.7370
  878MOL0     C18424   7.620   1.091   0.230  0.4562  0.2861 -0.4202
  878MOL0     C18425   7.503   1.068   0.144 -0.6619 -0.6288  0.5278
  878MOL0     O18426   7.424   0.966   0.190  0.1073 -0.6243 -0.2887
  878MOL0     C18427   7.300   0.946   0.143  0.1294  0.2857  0.2815
  878MOL0     C18428   7.279   0.860   0.034 -0.0868  0.1617  0.3315
  878MOL0     C18429   7.144   0.825  -0.001 -0.2568 -0.9562  0.4605
  878MOL0     C18430   7.032   0.899   0.039  0.2858 -0.4963 -0.2212
  878MOL0     O18431   6.914   0.855  -0.015  0.6402  0.0442 -0.5142
  878MOL0     C18432   6.813   0.950  -0.026 -0.1248 -0.9057 -0.6136
  878MOL0     C18433   6.702   0.890  -0.108 -0.2060 -0.1736 -0.6171
  878MOL0     C18434   6.569   0.949  -0.063  0.1004 -0.0628  0.3671
  878MOL0     C18435   6.458   0.918  -0.156  0.1216  0.3988  1.1069
  878MOL0     C18436   6.416   0.773  -0.153  0.4643 -0.4504 -0.6826
  878MOL0     C18437   6.337   0.744  -0.284  0.0653 -0.4542 -0.4951
  878MOL0     C18438   6.180   0.732  -0.258 -0.2268 -0.2937  0.3638
  878MOL0     C18439   6.124   0.872  -0.244 -0.5389 -0.8776 -1.5815
  878MOL0    Cl18440   5.949   0.846  -0.209  0.2225 -0.0130 -0.3798
  878MOL0     C18441   7.057   1.006   0.126  0.2646  0.9521 -0.0606
  878MOL0     C18442   7.182   1.017   0.182  0.4011  0.4742 -0.3982
  878MOL0     O18443   7.483   1.130   0.038 -0.0746 -0.2244  0.2687
  878MOL0     C18444   7.608   1.079   0.369 -0.3887  0.0005 -0.9705
  878MOL0     C18445   7.719   1.103   0.444  0.0598  0.4121  0.2653
  878MOL0     N18446   8.305   1.444   0.412  0.3688  0.4574 -0.2358
  878MOL0     N18447   8.377   1.543   0.439 -0.4923  0.1947  0.2154
  878MOL0     C18448   9.706   1.936   0.456  0.5013 -0.3499 -0.5892
  878MOL0     C18449   9.843   1.948   0.473 -0.2160  0.2598 -0.3586
  878MOL0     C18450  10.288   1.981   0.492 -1.1455 -0.2489 -0.0353
  878MOL0     C18451  10.341   2.090   0.425  0.2525 -0.4834  0.5944
  878MOL0     C18452  10.470   2.130   0.431 -0.2710 -0.0979  0.5475
  878MOL0     C18453  10.563   2.058   0.521 -0.5207 -0.0459 -0.0779
  878MOL0     O18454  10.696   2.084   0.540 -0.2836 -0.9261  0.0848
  878MOL0     C18455  10.756   2.190   0.456 -0.2259 -0.3743 -0.0570
  878MOL0     C18456  10.897   2.201   0.494  0.1887  0.1447  0.0449
  878MOL0     C18457  10.935   2.287   0.616 -0.4264 -0.3835 -0.7649
  878MOL0     C18458  10.908   2.434   0.598  0.4353  0.4393 -0.2464
  878MOL0     C18459  10.980   2.477   0.482 -0.6003  0.4947 -0.2923
  878MOL0     C18460  11.031   2.521   0.387 -0.3243 -1.4357  0.2664
  878MOL0     C18461  10.513   1.949   0.597  0.4808  0.2413 -0.1516
  878MOL0     C18462  10.381   1.905   0.575 -0.3178 -0.4481  0.5801
  878MOL0     H18463   9.941   2.034   0.161  2.3706  0.7455  1.6303
  878MOL0     H18464   9.685   1.997   0.129  0.3324 -2.5059 -0.9531
  878MOL0     H18465   9.465   1.772   0.378  1.5361  0.4767 -0.2053
  878MOL0     H18466   9.415   1.913   0.482 -0.5882 -0.5917  0.6403
  878MOL0     H18467   9.266   1.983   0.287 -0.9882 -0.5231  0.3385
  878MOL0     H18468   9.298   1.822   0.213  0.7203 -2.1491  0.8893
  878MOL0     H18469   9.233   1.712   0.410  2.2076  0.5198 -0.6579
  878MOL0     H18470   9.177   1.864   0.480 -0.0564  0.8070 -0.1332
  878MOL0     H18471   8.997   1.884   0.296 -1.6119 -0.8161  0.0358
  878MOL0     H18472   9.072   1.732   0.225  0.6999 -0.1713  0.5893
  878MOL0     H18473   9.002   1.603   0.395 -0.6116 -0.1779  0.3930
  878MOL0     H18474   8.966   1.755   0.500  0.8076 -0.0065  0.1738
  878MOL0     H18475   8.783   1.804   0.371  3.2243  2.6163 -0.4552
  878MOL0     H18476   8.825   1.708   0.231 -0.2905 -0.2827  0.6347
  878MOL0     H18477   8.751   1.507   0.320 -0.0522  1.5207 -0.6615
  878MOL0     H18478   8.745   1.570   0.483 -2.9614  0.3974  0.8326
  878MOL0     H18479   8.586   1.673   0.226  1.8904  0.1269  0.2704
  878MOL0     H18480   8.558   1.732   0.387 -1.8311 -0.3045 -1.2945
  878MOL0     H18481   8.552   1.381   0.211 -1.1515  2.2721 -1.6071
  878MOL0     H18482   8.263   1.230   0.203  0.1835 -0.0435 -0.4507
  878MOL0     H18483   8.421   1.174   0.222 -0.5774  0.1888 -1.1254
  878MOL0     H18484   8.328   1.162   0.494 -0.9944  0.6478 -0.2807
  878MOL0     H18485   8.332   1.030   0.370 -0.6757 -0.4425 -1.4948
  878MOL0     H18486   8.131   1.033   0.506  0.6564 -1.3917 -0.5891
  878MOL0     H18487   8.108   1.046   0.323  0.5485  1.0158 -1.1533
  878MOL0     H18488   8.049   1.288   0.359  0.6224 -1.1857 -1.4311
  878MOL0     H18489   8.109   1.280   0.523  1.3842  2.9194 -2.3558
  878MOL0     H18490   7.938   1.186   0.200 -1.8432  3.1617 -1.4437
  878MOL0     H18491   7.777   1.219  -0.021 -0.6860 -1.0758 -0.3599
  878MOL0     H18492   7.876   1.090   0.007 -0.4381 -1.8680  2.6367
  878MOL0     H18493   7.714   1.049  -0.021 -1.3752  0.7134 -0.0377
  878MOL0     H18494   7.363   0.810  -0.012  0.8073  0.1463  1.9281
  878MOL0     H18495   7.136   0.744  -0.073  3.0111  0.6871 -1.9981
  878MOL0     H18496   6.787   0.989   0.073  0.7582 -0.8522 -0.3949
  878MOL0     H18497   6.840   1.039  -0.084  1.7633 -0.4075  0.9177
  878MOL0     H18498   6.727   0.903  -0.213 -1.2514  1.9644 -0.6635
  878MOL0     H18499   6.691   0.784  -0.080  0.5307  0.5757  3.0816
  878MOL0     H18500   6.590   1.056  -0.065 -0.3794  0.0462  0.8403
  878MOL0     H18501   6.536   0.913   0.035  0.7279 -1.0531  0.2350
  878MOL0     H18502   6.373   0.983  -0.139 -0.8279 -0.9787  1.8329
  878MOL0     H18503   6.500   0.953  -0.251  2.2519 -0.6656  1.5929
  878MOL0     H18504   6.363   0.754  -0.059 -0.6251  0.7717 -1.0230
  878MOL0     H18505   6.505   0.710  -0.152  0.0538 -1.0624 -1.6727
  878MOL0     H18506   6.352   0.814  -0.367  1.2642  1.6068  1.3471
  878MOL0     H18507   6.363   0.644  -0.322  0.7676  0.3140 -2.1620
  878MOL0     H18508   6.161   0.674  -0.168  3.3434 -1.1060  0.7700
  878MOL0     H18509   6.134   0.687  -0.346  1.0014 -0.9534  0.0278
  878MOL0     H18510   6.123   0.929  -0.337 -1.4296 -1.2905 -1.8308
  878MOL0     H18511   6.169   0.928  -0.161 -2.7793 -0.5485 -0.5375
  878MOL0     H18512   6.975   1.060   0.172  0.4450  1.3041 -0.1474
  878MOL0     H18513   7.193   1.076   0.273 -0.4290 -1.3075  0.9275
  878MOL0     H18514   7.512   1.055   0.415 -0.0787  0.8023  0.1486
  878MOL0     H18515   7.713   1.101   0.553  1.3947 -1.7305  0.3560
  878MOL0     H18516   9.645   1.912   0.542  0.2704 -1.7583 -1.1289
  878MOL0     H18517   9.874   1.939   0.576  1.1180  0.8792 -0.6838
  878MOL0     H18518  10.281   2.144   0.352  1.0040  0.8032  0.9045
  878MOL0     H18519  10.499   2.210   0.363  0.7184 -2.1178 -1.5402
  878MOL0     H18520  10.752   2.166   0.349  1.0285  0.9240 -0.4286
  878MOL0     H18521  10.697   2.282   0.464 -0.4189 -0.2934 -1.9321
  878MOL0     H18522  10.962   2.227   0.410  2.2827 -0.6706  1.3349
  878MOL0     H18523  10.928   2.097   0.509 -3.3073 -1.1271 -0.6154
  878MOL0     H18524  11.043   2.280   0.630  0.0467  4.2740 -0.4420
  878MOL0     H18525  10.876   2.243   0.697  0.1221 -1.2678 -0.8321
  878MOL0     H18526  10.944   2.486   0.687 -1.6322  1.6233 -0.0469
  878MOL0     H18527  10.800   2.450   0.594  0.0173 -1.9548  0.0633
  878MOL0     H18528  11.089   2.566   0.308  1.5057  3.2577  3.8102
  878MOL0     H18529  10.577   1.898   0.668 -0.3733 -0.5444  0.0710
  878MOL0     H18530  10.344   1.817   0.627  1.6210 -1.6333  0.0701
  879MOL0     O18531  10.315  10.575   8.673  0.4148  0.0518  0.1680
  879MOL0     C18532  10.323  10.462   8.718  0.2030 -0.4059  0.5361
  879MOL0     O18533  10.232  10.357   8.701  0.3620  0.3178  0.4164
  879MOL0     C18534  10.106  10.376   8.644 -0.1047  1.0965  0.1036
  879MOL0     C18535  10.046  10.489   8.596  0.0005 -0.3201  0.3877
  879MOL0     C18536   9.920  10.480   8.538  0.6967 -0.1396 -0.2157
  879MOL0     C18537   9.850  10.364   8.516 -0.5677  0.5736 -0.1053
  879MOL0     O18538   9.723  10.374   8.456 -1.1746 -0.2313 -0.4485
  879MOL0     C18539   9.682  10.263   8.380 -0.0721  0.5193 -0.1996
  879MOL0     C18540   9.526  10.275   8.378 -0.3645 -0.2396  0.3506
  879MOL0     C18541   9.461  10.185   8.280 -0.3720  0.2457 -0.2873
  879MOL0     C18542   9.309  10.185   8.296 -0.1809  0.1848  0.0598
  879MOL0     C18543   9.248  10.096   8.175  0.1645 -0.1490 -0.1337
  879MOL0     C18544   9.094  10.059   8.203 -0.1643  0.4610  0.1279
  879MOL0     C18545   9.075   9.970   8.332 -0.1001 -0.7378 -0.0163
  879MOL0     C18546   8.935   9.887   8.351 -0.2435  0.1396  0.1079
  879MOL0     N18547   8.819   9.967   8.324 -0.4624  0.3458  0.9132
  879MOL0     C18548   8.735   9.963   8.209  0.2212 -0.5789 -0.6166
  879MOL0     C18549   8.665  10.083   8.210 -0.7680 -0.4488 -0.1132
  879MOL0     C18550   8.559  10.108   8.109 -0.6093  0.8014  0.6981
  879MOL0     C18551   8.422  10.156   8.175  0.3175 -0.3025  0.6532
  879MOL0     C18552   8.373  10.067   8.288  0.5248 -0.3215 -0.4209
  879MOL0     C18553   8.217  10.080   8.306 -0.8313  0.2722 -0.0366
  879MOL0     O18554   8.153  10.005   8.197 -0.2560  0.5835 -0.0016
  879MOL0     C18555   8.019   9.995   8.206  0.6850 -0.7228  0.4528
  879MOL0     C18556   7.937  10.053   8.305  0.3229 -0.1253  0.0609
  879MOL0     C18557   7.800  10.034   8.302  0.8223  0.3580 -0.2857
  879MOL0     C18558   7.724  10.092   8.426 -0.3523  0.7580  0.7216
  879MOL0     C18559   7.731   9.972   8.191 -0.9411  0.6004 -0.2295
  879MOL0     C18560   7.583   9.949   8.171 -0.6296 -0.2999  0.9003
  879MOL0     O18561   7.542   9.871   8.069  0.0887  0.2611 -0.0005
  879MOL0     C18562   7.408   9.886   8.033  0.2473 -0.3476  0.2422
  879MOL0     C18563   7.362   9.994   7.960  0.0603  0.1022  0.0959
  879MOL0     C18564   7.228   9.998   7.919  0.6911 -0.5188  0.1438
  879MOL0     C18565   7.126   9.907   7.962 -0.3669  0.0564  0.0698
  879MOL0     O18566   7.003   9.916   7.906 -0.2490 -0.5586 -0.0612
  879MOL0     C18567   6.902   9.856   7.985  0.3655  0.0526 -1.1823
  879MOL0     C18568   6.761   9.879   7.927  0.5476  0.4414 -0.1457
  879MOL0     C18569   6.721   9.760   7.832 -0.1532 -0.0645 -0.5456
  879MOL0     C18570   6.585   9.794   7.771 -0.0602 -0.0565  0.6293
  879MOL0     C18571   6.559   9.716   7.644  0.3245 -0.2373  0.8630
  879MOL0     C18572   6.403   9.701   7.606 -1.1317 -0.5336  0.1562
  879MOL0     C18573   6.352   9.845   7.592 -0.4242 -0.6822 -0.5621
  879MOL0     C18574   6.199   9.834   7.566 -0.4284 -0.0303 -0.0928
  879MOL0    Cl18575   6.179   9.790   7.394 -0.3983 -0.1338 -0.3302
  879MOL0     C18576   7.178   9.794   8.043 -0.3219 -0.0501  0.2710
  879MOL0     C18577   7.319   9.788   8.075  0.8896  0.8641  0.3465
  879MOL0     O18578   7.506  10.021   8.236 -0.2137 -0.1092 -0.1567
  879MOL0     C18579   7.816   9.918   8.092  1.0897 -0.2105 -0.2083
  879MOL0     C18580   7.952   9.942   8.097 -0.4106  0.6282 -0.4281
  879MOL0     N18581   8.701  10.160   8.325 -0.1105 -0.4706 -0.5050
  879MOL0     N18582   8.796  10.087   8.391  0.4965  0.1953  0.3190
  879MOL0     C18583   9.915  10.246   8.554  1.3277  0.3608 -0.6573
  879MOL0     C18584  10.044  10.249   8.622  0.0334 -0.2090  0.6206
  879MOL0     C18585  10.450  10.439   8.789  0.6771  0.3592 -0.3897
  879MOL0     C18586  10.506  10.304   8.800  0.0761 -0.3001  1.0680
  879MOL0     C18587  10.636  10.281   8.858 -0.3806 -0.5402 -0.0955
  879MOL0     C18588  10.706  10.390   8.908 -0.1512 -0.7217 -0.5894
  879MOL0     O18589  10.828  10.397   8.963 -0.1079 -0.1991 -0.7068
  879MOL0     C18590  10.933  10.330   8.894  0.3636  0.4054 -0.6615
  879MOL0     C18591  11.067  10.383   8.943  0.1990  0.5196  0.0884
  879MOL0     C18592  11.091  10.348   9.088 -0.6221 -0.2538 -0.0033
  879MOL0     C18593  11.221  10.399   9.147 -0.3576  0.1837 -0.0128
  879MOL0     C18594  11.343  10.324   9.097  0.4924 -0.5841 -0.3245
  879MOL0     C18595  11.432  10.255   9.046  0.0933 -0.2755 -0.9052
  879MOL0     C18596  10.643  10.516   8.906 -0.9039 -0.9429 -0.1419
  879MOL0     C18597  10.523  10.543   8.844 -0.1645  0.0898 -0.5406
  879MOL0     H18598  10.094  10.586   8.608 -2.4125  0.9294  0.4516
  879MOL0     H18599   9.866  10.566   8.499  0.0685 -0.7152 -0.6324
  879MOL0     H18600   9.747  10.273   8.293  3.6614  2.0757  2.4664
  879MOL0     H18601   9.696  10.161   8.419 -2.1898  0.0604 -0.5279
  879MOL0     H18602   9.484  10.254   8.477 -0.6349 -0.8167  0.1178
  879MOL0     H18603   9.498  10.378   8.353  0.7063  0.8943  3.3598
  879MOL0     H18604   9.501  10.200   8.179  1.9268  1.0899  0.6774
  879MOL0     H18605   9.487  10.086   8.319 -0.1987  1.5016  3.0960
  879MOL0     H18606   9.275  10.133   8.386 -2.4489  1.0450 -0.2483
  879MOL0     H18607   9.275  10.289   8.303 -1.2178 -0.2026  1.0189
  879MOL0     H18608   9.253  10.152   8.081 -0.4905  0.2946  0.0864
  879MOL0     H18609   9.315  10.011   8.164  2.0218  1.1460  0.5873
  879MOL0     H18610   9.028  10.146   8.204 -0.3195  0.4131 -2.0209
  879MOL0     H18611   9.052  10.000   8.121 -1.7245  0.2969  1.0063
  879MOL0     H18612   9.153   9.894   8.329  1.7379  1.0809 -0.0598
  879MOL0     H18613   9.098  10.031   8.420 -1.0568  0.7525 -0.7473
  879MOL0     H18614   8.936   9.850   8.454 -0.1861  1.2925  0.5263
  879MOL0     H18615   8.937   9.796   8.290 -0.8938  1.0390 -1.2951
  879MOL0     H18616   8.737   9.892   8.127 -1.6796 -0.5863 -0.7008
  879MOL0     H18617   8.589  10.178   8.030 -0.6840 -0.4772 -0.5133
  879MOL0     H18618   8.534  10.021   8.046 -2.0235  0.7753  1.2554
  879MOL0     H18619   8.352  10.150   8.091 -1.0103 -2.0139  1.8086
  879MOL0     H18620   8.436  10.258   8.212 -2.1398  0.2666  0.2423
  879MOL0     H18621   8.426  10.087   8.381 -2.4965  0.8605  1.1515
  879MOL0     H18622   8.399   9.963   8.266  0.5379 -0.3141 -0.4426
  879MOL0     H18623   8.186  10.185   8.305  0.7305  0.7886  1.0652
  879MOL0     H18624   8.198  10.041   8.407 -1.9660  2.4390  0.6448
  879MOL0     H18625   7.982  10.107   8.388  1.2671  1.2389 -1.2766
  879MOL0     H18626   7.646  10.025   8.463  1.9278 -2.9173 -0.4806
  879MOL0     H18627   7.780  10.114   8.517 -3.2363  2.2279  2.2383
  879MOL0     H18628   7.691  10.186   8.380  0.2277  0.9681  0.7281
  879MOL0     H18629   7.440  10.064   7.930  0.0403 -0.5935 -1.7425
  879MOL0     H18630   7.207  10.072   7.843 -1.0142 -1.4559 -0.3618
  879MOL0     H18631   6.913   9.748   7.997  0.5317  0.3355  2.4469
  879MOL0     H18632   6.919   9.897   8.085  0.7831 -1.4824 -0.5955
  879MOL0     H18633   6.678   9.886   7.999  1.5254 -0.6639  1.1411
  879MOL0     H18634   6.755   9.977   7.878 -0.3907  0.2284 -0.4735
  879MOL0     H18635   6.720   9.666   7.888 -0.4266  1.7670  2.7743
  879MOL0     H18636   6.792   9.748   7.749 -0.3926 -2.5146 -0.4714
  879MOL0     H18637   6.507   9.778   7.846 -0.0744 -0.2135  0.5826
  879MOL0     H18638   6.574   9.901   7.753  1.8069 -0.1135 -1.1487
  879MOL0     H18639   6.596   9.613   7.647  1.5269  0.1863  1.3981
  879MOL0     H18640   6.607   9.764   7.558  2.4900 -1.0615  1.5445
  879MOL0     H18641   6.389   9.652   7.510  3.5836 -0.0033 -1.0709
  879MOL0     H18642   6.346   9.646   7.681 -0.2001  0.2880  1.5191
  879MOL0     H18643   6.400   9.904   7.513 -2.0109  2.9005  0.8977
  879MOL0     H18644   6.373   9.899   7.684 -0.0791  0.6511 -1.3894
  879MOL0     H18645   6.142   9.922   7.597 -2.5096 -0.9902 -0.9764
  879MOL0     H18646   6.166   9.746   7.622 -1.2111  1.1284  1.3230
  879MOL0     H18647   7.100   9.721   8.060 -2.0794  1.6181 -0.3412
  879MOL0     H18648   7.352   9.692   8.112 -0.9943  0.6039  1.4657
  879MOL0     H18649   7.785   9.860   8.006 -1.0023 -0.6773  0.8086
  879MOL0     H18650   8.007   9.893   8.017 -2.7320 -1.4066 -0.8939
  879MOL0     H18651   9.863  10.153   8.534 -0.6041  0.6491  2.3690
  879MOL0     H18652  10.109  10.166   8.645  0.9787  0.1243 -0.7066
  879MOL0     H18653  10.445  10.226   8.757 -1.6428  1.1314  0.7741
  879MOL0     H18654  10.674  10.179   8.869 -3.0345 -1.4650  1.4421
  879MOL0     H18655  10.925  10.223   8.916  1.2245  0.1427 -1.5781
  879MOL0     H18656  10.923  10.355   8.788  0.2205 -0.6110 -0.8916
  879MOL0     H18657  11.058  10.490   8.927 -0.1772  0.6674  1.2144
  879MOL0     H18658  11.151  10.351   8.880 -0.6087  1.0067 -1.2822
  879MOL0     H18659  11.095  10.239   9.096 -2.7277 -0.2993  1.2841
  879MOL0     H18660  11.006  10.394   9.140 -1.0391  0.7069 -1.4733
  879MOL0     H18661  11.226  10.390   9.256  1.9576  2.9889  0.2561
  879MOL0     H18662  11.246  10.505   9.137 -0.8990  0.3367  0.1716
  879MOL0     H18663  11.510  10.196   9.003 -1.6088 -1.4281 -2.5912
  879MOL0     H18664  10.687  10.604   8.951 -0.6758 -1.4518  0.6692
  879MOL0     H18665  10.490  10.646   8.852 -1.2710 -0.3472  0.7718
  880MOL0     O18666   4.823   0.691   1.157 -0.1154  0.5076 -0.1857
  880MOL0     C18667   4.869   0.607   1.080  0.9112  0.1240 -0.3592
  880MOL0     O18668   4.804   0.545   0.972 -0.0402  0.1658  0.1739
  880MOL0     C18669   4.665   0.567   0.977  0.3111  0.6246  0.8749
  880MOL0     C18670   4.597   0.615   0.861 -0.1477 -0.0049 -0.7361
  880MOL0     C18671   4.461   0.647   0.864 -0.2981  0.6514 -0.0713
  880MOL0     C18672   4.384   0.632   0.981  0.3230  0.1491  0.1756
  880MOL0     O18673   4.255   0.658   0.986 -0.5781  0.3199 -0.0254
  880MOL0     C18674   4.169   0.603   0.883 -0.3077 -0.3280 -0.0919
  880MOL0     C18675   4.075   0.711   0.838 -1.1891  0.0965  0.4949
  880MOL0     C18676   3.981   0.766   0.947  0.1438 -0.4230 -0.0890
  880MOL0     C18677   3.875   0.867   0.892 -0.4929 -0.4997  0.4532
  880MOL0     C18678   3.735   0.838   0.949  0.2311 -0.4432  0.1517
  880MOL0     C18679   3.629   0.930   0.901 -0.0329 -0.0738  0.2652
  880MOL0     C18680   3.489   0.890   0.944 -0.1033 -0.3861 -0.4338
  880MOL0     C18681   3.389   0.952   0.848  0.4051  0.2036  0.3075
  880MOL0     N18682   3.253   0.922   0.905  0.3827  0.0523  0.0265
  880MOL0     C18683   3.143   0.880   0.836  1.2556 -0.0512 -0.3692
  880MOL0     C18684   3.042   0.901   0.923  0.2309  0.2502 -0.4218
  880MOL0     C18685   2.902   0.897   0.872  0.1706 -0.3200  0.1252
  880MOL0     C18686   2.870   1.008   0.766 -0.6573  0.0841  0.4214
  880MOL0     C18687   2.867   1.153   0.811 -0.1940  0.4711  0.4991
  880MOL0     C18688   2.732   1.206   0.840 -0.1237 -0.2214  0.7595
  880MOL0     O18689   2.674   1.120   0.943 -0.0219 -0.1816 -1.0999
  880MOL0     C18690   2.542   1.085   0.950  0.3024 -0.2952  0.3398
  880MOL0     C18691   2.454   1.076   0.843  0.2425  0.1694  0.3345
  880MOL0     C18692   2.315   1.065   0.857  0.3720  0.7320  0.1098
  880MOL0     C18693   2.231   1.087   0.737 -0.5000 -0.0223  0.1858
  880MOL0     C18694   2.257   1.038   0.991  0.0895 -0.8837  0.8633
  880MOL0     C18695   2.116   1.021   1.029  0.4078  0.3585 -0.0290
  880MOL0     O18696   2.071   1.041   1.161 -0.1081 -0.4182  0.3876
  880MOL0     C18697   1.939   1.034   1.202 -0.1327 -0.9183 -0.2216
  880MOL0     C18698   1.821   1.073   1.132 -0.5976  0.1837  0.3205
  880MOL0     C18699   1.694   1.047   1.183 -0.2881  0.0002  0.0637
  880MOL0     C18700   1.682   1.015   1.312 -0.2424  0.1836  0.2286
  880MOL0     O18701   1.548   1.008   1.347  0.0094 -0.3960 -0.9896
  880MOL0     C18702   1.524   0.958   1.483 -0.3361  0.6566  0.1757
  880MOL0     C18703   1.379   0.972   1.521  0.7796  0.1645 -0.1525
  880MOL0     C18704   1.339   1.118   1.510  0.6080 -0.3711 -1.7286
  880MOL0     C18705   1.358   1.197   1.644 -0.0024 -0.3982  0.3324
  880MOL0     C18706   1.349   1.352   1.627 -0.9093 -0.1162  0.5315
  880MOL0     C18707   1.449   1.421   1.522 -0.0394  0.5645 -0.6737
  880MOL0     C18708   1.434   1.578   1.518  0.1835  0.5051 -0.8342
  880MOL0     C18709   1.318   1.615   1.429 -0.8250  0.4016 -0.2720
  880MOL0    Cl18710   1.369   1.586   1.261  0.4278 -0.0509 -0.2298
  880MOL0     C18711   1.797   0.979   1.388 -0.3835  0.0773  0.2224
  880MOL0     C18712   1.925   0.995   1.337 -0.5990 -0.5940 -0.0977
  880MOL0     O18713   2.037   0.995   0.937 -0.2932 -0.2679 -0.0259
  880MOL0     C18714   2.347   1.033   1.091  0.3827 -0.4858  0.2827
  880MOL0     C18715   2.484   1.053   1.070 -0.0872  0.5955 -0.1084
  880MOL0     N18716   3.099   0.942   1.044  0.5267 -0.2418 -0.2252
  880MOL0     N18717   3.220   0.957   1.030 -0.3208  0.2348 -0.2052
  880MOL0     C18718   4.441   0.578   1.094 -0.2920  0.0241 -0.5140
  880MOL0     C18719   4.580   0.543   1.091  0.2718 -0.5478  0.0560
  880MOL0     C18720   5.014   0.571   1.116  0.7459  0.5952  1.2795
  880MOL0     C18721   5.092   0.641   1.215  0.0543  0.3742 -0.1732
  880MOL0     C18722   5.232   0.610   1.232  0.0707  0.6794 -0.1598
  880MOL0     C18723   5.296   0.516   1.143 -0.5678  0.3991 -0.7254
  880MOL0     O18724   5.432   0.491   1.146  0.3317  0.2579 -0.2898
  880MOL0     C18725   5.505   0.506   1.268  0.3278 -0.2125  0.3151
  880MOL0     C18726   5.655   0.493   1.238  0.9851  0.4953 -0.6734
  880MOL0     C18727   5.680   0.344   1.216 -0.2230  0.0412  0.3099
  880MOL0     C18728   5.834   0.317   1.237  0.3812  0.2903  0.0743
  880MOL0     C18729   5.902   0.362   1.118  0.4659 -0.6370 -0.3916
  880MOL0     C18730   5.953   0.410   1.019 -0.4127  0.3001  0.1659
  880MOL0     C18731   5.213   0.444   1.058  0.5761 -0.1497 -0.4286
  880MOL0     C18732   5.078   0.476   1.039  0.3006  0.1013  0.6153
  880MOL0     H18733   4.660   0.639   0.776 -0.0318  1.7596 -0.1958
  880MOL0     H18734   4.429   0.696   0.773  0.4284  1.1094 -0.0861
  880MOL0     H18735   4.229   0.570   0.798 -0.6424 -2.9082  0.5821
  880MOL0     H18736   4.126   0.515   0.931 -0.6912 -1.9486 -3.1600
  880MOL0     H18737   4.135   0.792   0.796  1.8859 -2.2031  0.0598
  880MOL0     H18738   4.013   0.674   0.756 -1.9694  0.6324  0.8369
  880MOL0     H18739   3.931   0.679   0.991  0.9889 -0.9195 -0.0893
  880MOL0     H18740   4.031   0.813   1.033  1.4591 -0.0249 -1.0453
  880MOL0     H18741   3.912   0.963   0.928 -3.2044 -0.8910  5.0684
  880MOL0     H18742   3.873   0.866   0.783 -0.1942  2.0760  0.3808
  880MOL0     H18743   3.710   0.740   0.906  3.5278 -0.1926 -2.7509
  880MOL0     H18744   3.737   0.832   1.058 -2.5245 -0.4445  0.2852
  880MOL0     H18745   3.636   1.033   0.938  0.3934  0.2306 -0.6386
  880MOL0     H18746   3.634   0.956   0.795 -1.0835  1.3225  0.5100
  880MOL0     H18747   3.477   0.782   0.936 -2.6059 -0.2242  0.3135
  880MOL0     H18748   3.469   0.906   1.051 -1.4207  0.5252 -0.7919
  880MOL0     H18749   3.397   0.896   0.754  3.1048  0.7518  0.1551
  880MOL0     H18750   3.404   1.056   0.821 -2.6603  0.2653 -1.6623
  880MOL0     H18751   3.134   0.840   0.735 -0.1854 -1.3146  0.2333
  880MOL0     H18752   2.884   0.799   0.825  3.1385 -0.1224 -1.6306
  880MOL0     H18753   2.835   0.903   0.959 -2.8173  0.1773 -2.0354
  880MOL0     H18754   2.772   0.986   0.723 -1.7236  3.1861  1.0048
  880MOL0     H18755   2.953   0.997   0.696  0.6422  1.7208  1.6133
  880MOL0     H18756   2.914   1.217   0.736  0.9195 -1.1485 -0.2383
  880MOL0     H18757   2.914   1.164   0.909 -1.7500 -3.7823  1.9749
  880MOL0     H18758   2.674   1.211   0.748  0.5036  1.7687  0.4220
  880MOL0     H18759   2.736   1.309   0.878 -0.0410  0.0993 -0.1141
  880MOL0     H18760   2.499   1.101   0.747  1.1793 -0.3912  0.6136
  880MOL0     H18761   2.134   1.131   0.760 -0.9788  0.3768 -2.3123
  880MOL0     H18762   2.287   1.164   0.682 -0.7540  0.2783  0.3461
  880MOL0     H18763   2.217   0.992   0.685 -0.5248 -0.0254  0.1987
  880MOL0     H18764   1.819   1.117   1.032  0.9595 -0.9434 -0.2454
  880MOL0     H18765   1.612   1.081   1.121 -1.1537 -1.3560  0.4168
  880MOL0     H18766   1.559   0.855   1.472  0.9901  1.1104 -0.0810
  880MOL0     H18767   1.594   1.016   1.544 -1.7085  0.2131  2.2601
  880MOL0     H18768   1.314   0.911   1.459 -0.7554  0.8811  0.6956
  880MOL0     H18769   1.362   0.941   1.624  1.6073  2.7903  0.8756
  880MOL0     H18770   1.242   1.129   1.461 -0.0819  1.3896 -0.0877
  880MOL0     H18771   1.399   1.172   1.436  4.6375 -0.0559  1.4106
  880MOL0     H18772   1.293   1.161   1.725  2.1185 -0.8710  1.9385
  880MOL0     H18773   1.457   1.190   1.692  1.2894 -1.2358 -2.2689
  880MOL0     H18774   1.367   1.401   1.723  0.9682  2.1401 -0.8770
  880MOL0     H18775   1.243   1.364   1.602 -0.6439 -0.1092 -0.6241
  880MOL0     H18776   1.548   1.399   1.563 -0.4849  3.5434  2.4590
  880MOL0     H18777   1.442   1.373   1.424  0.9196 -2.4076  0.5788
  880MOL0     H18778   1.520   1.634   1.480  0.7631  1.3308  1.4943
  880MOL0     H18779   1.417   1.621   1.617  0.5882 -2.3371  0.5664
  880MOL0     H18780   1.311   1.723   1.444  2.0000  0.5466  0.6616
  880MOL0     H18781   1.227   1.559   1.453 -1.7792  2.3539  0.8105
  880MOL0     H18782   1.774   0.943   1.488 -0.0726 -1.0383 -0.0923
  880MOL0     H18783   1.998   0.966   1.411 -1.4384 -1.0344  0.5749
  880MOL0     H18784   2.308   1.008   1.190 -3.0803 -0.0044 -0.8229
  880MOL0     H18785   2.558   1.043   1.149  1.8636 -1.2441 -2.0328
  880MOL0     H18786   4.400   0.567   1.194 -0.6063 -1.1175 -0.7492
  880MOL0     H18787   4.610   0.515   1.191 -2.4801  1.9090  1.7171
  880MOL0     H18788   5.055   0.716   1.286  1.7737  0.8988  0.2111
  880MOL0     H18789   5.285   0.658   1.315 -3.6813  1.3294  2.1199
  880MOL0     H18790   5.498   0.609   1.304  0.8167 -0.3907  0.9368
  880MOL0     H18791   5.469   0.433   1.341  0.6852 -0.1661  0.5391
  880MOL0     H18792   5.701   0.535   1.329 -0.0458  1.3497 -0.5352
  880MOL0     H18793   5.683   0.545   1.146 -0.7831  0.5928 -1.1847
  880MOL0     H18794   5.640   0.311   1.119 -0.4628 -0.9971  0.7603
  880MOL0     H18795   5.629   0.291   1.296 -3.6892 -1.3090 -2.4898
  880MOL0     H18796   5.849   0.211   1.259 -0.7883  0.5537  2.4323
  880MOL0     H18797   5.873   0.370   1.324  2.5248 -0.2158 -0.5386
  880MOL0     H18798   6.005   0.447   0.933 -2.2458  1.1169 -0.6394
  880MOL0     H18799   5.262   0.373   0.992 -1.7912 -1.5063 -0.8455
  880MOL0     H18800   5.028   0.424   0.959 -0.3883  1.6889 -0.0369
  881MOL0     O18801   6.292   8.560  10.361  0.5546 -0.2529 -0.0169
  881MOL0     C18802   6.380   8.476  10.381 -0.6832  0.4316 -0.0140
  881MOL0     O18803   6.361   8.347  10.407 -0.1415  0.1459 -0.5873
  881MOL0     C18804   6.245   8.268  10.438 -0.0866  0.3008  0.1589
  881MOL0     C18805   6.107   8.305  10.419  0.1988 -0.7214  0.5027
  881MOL0     C18806   6.007   8.231  10.479 -0.0949  0.5468 -1.0800
  881MOL0     C18807   6.029   8.106  10.543  0.1182  0.9058  0.5947
  881MOL0     O18808   5.942   8.021  10.608 -0.1507 -0.2171  0.2702
  881MOL0     C18809   5.806   8.018  10.554  0.3893 -0.6280 -0.7906
  881MOL0     C18810   5.746   7.876  10.573 -0.3344 -0.0484  0.1413
  881MOL0     C18811   5.593   7.872  10.562  0.7342  0.0964 -0.6739
  881MOL0     C18812   5.554   7.734  10.565  0.3721 -0.3509 -0.4245
  881MOL0     C18813   5.405   7.741  10.611  0.3883  0.3970  0.0336
  881MOL0     C18814   5.338   7.608  10.601 -0.3043 -0.2319 -0.0090
  881MOL0     C18815   5.196   7.620  10.663  0.5905  0.0200  1.1541
  881MOL0     C18816   5.137   7.479  10.677  0.5683 -0.5296 -0.4955
  881MOL0     N18817   4.992   7.482  10.720 -1.1843  0.0519  0.6370
  881MOL0     C18818   4.917   7.371  10.745  0.4100 -0.2082 -0.2956
  881MOL0     C18819   4.793   7.416  10.783 -0.5889 -0.2300  0.4557
  881MOL0     C18820   4.697   7.326  10.844 -0.3128 -0.4754  0.1036
  881MOL0     C18821   4.654   7.224  10.738  1.1435 -0.4082 -0.5592
  881MOL0     C18822   4.609   7.099  10.814  0.0409  0.0839  1.0320
  881MOL0     C18823   4.460   7.095  10.833 -0.4727 -0.3996  0.0709
  881MOL0     O18824   4.412   7.215  10.906  0.0508 -0.0288  0.7001
  881MOL0     C18825   4.278   7.236  10.889 -0.1454  0.3310  0.3441
  881MOL0     C18826   4.240   7.334  10.801  0.5604  0.0706 -0.4899
  881MOL0     C18827   4.103   7.365  10.790 -0.6671  0.2587  0.9928
  881MOL0     C18828   4.068   7.487  10.710 -0.8585 -0.0789  0.1245
  881MOL0     C18829   4.007   7.292  10.862 -0.8228  0.6228 -0.3212
  881MOL0     C18830   3.860   7.309  10.860  0.6278 -0.3205  0.4022
  881MOL0     O18831   3.790   7.232  10.947  0.0744  0.5439 -0.4335
  881MOL0     C18832   3.652   7.254  10.956  0.2987 -0.3231  0.4106
  881MOL0     C18833   3.566   7.150  10.916  0.9666  0.4705  0.5983
  881MOL0     C18834   3.424   7.164  10.926  1.0275 -0.5837 -0.6305
  881MOL0     C18835   3.365   7.285  10.969  0.6318 -0.8920  0.4088
  881MOL0     O18836   3.224   7.289  10.979 -0.2053 -0.0587  0.3467
  881MOL0     C18837   3.161   7.424  10.980  0.5959 -0.7233  0.3349
  881MOL0     C18838   3.009   7.406  10.951 -0.0837  0.2017  0.7496
  881MOL0     C18839   2.962   7.307  11.051 -0.4144 -0.2922  0.7138
  881MOL0     C18840   2.812   7.306  11.053 -0.9477  0.6705 -0.0103
  881MOL0     C18841   2.738   7.421  11.102  0.6194 -0.6978  0.4184
  881MOL0     C18842   2.582   7.384  11.107 -0.0281  0.7586 -0.2542
  881MOL0     C18843   2.518   7.367  10.963  0.0960 -0.5302 -0.0876
  881MOL0     C18844   2.390   7.286  10.974 -0.1639  0.4132  0.0157
  881MOL0    Cl18845   2.295   7.365  11.094 -0.1778  0.6618  0.2382
  881MOL0     C18846   3.451   7.392  11.016  0.6141  0.3250  1.1021
  881MOL0     C18847   3.593   7.374  11.004  0.6890  0.3928 -0.2093
  881MOL0     O18848   3.802   7.384  10.774  0.2446  0.6769 -0.6208
  881MOL0     C18849   4.051   7.187  10.944 -0.2444 -1.0458  0.0880
  881MOL0     C18850   4.186   7.164  10.961 -0.0574  0.7038  0.6182
  881MOL0     N18851   4.803   7.556  10.770  0.2184  0.2876  0.1572
  881MOL0     N18852   4.914   7.593  10.727 -1.0270  0.3555  0.0624
  881MOL0     C18853   6.168   8.060  10.551  0.4554 -0.0205 -0.6338
  881MOL0     C18854   6.274   8.148  10.508  1.0755 -0.0851 -0.0297
  881MOL0     C18855   6.514   8.526  10.366  0.2908 -0.6659  0.6147
  881MOL0     C18856   6.550   8.661  10.345 -0.0102  0.0243  0.1523
  881MOL0     C18857   6.684   8.702  10.319  0.6039 -0.4370 -1.2363
  881MOL0     C18858   6.783   8.608  10.315 -1.3922  0.1290 -0.1589
  881MOL0     O18859   6.908   8.646  10.279  0.0911  0.1226  0.2316
  881MOL0     C18860   7.025   8.557  10.286  0.2763 -0.2595  0.3791
  881MOL0     C18861   7.151   8.646  10.304  0.8951 -0.2599 -0.4107
  881MOL0     C18862   7.269   8.602  10.216  0.5464  0.5396 -0.0942
  881MOL0     C18863   7.400   8.687  10.222 -0.0773 -0.0134 -0.0611
  881MOL0     C18864   7.507   8.636  10.137 -0.0101  1.7218 -0.1689
  881MOL0     C18865   7.590   8.583  10.068  0.9468  0.6527 -1.2109
  881MOL0     C18866   6.750   8.472  10.335 -0.3022  0.8217  0.9901
  881MOL0     C18867   6.617   8.434  10.362  0.7460 -0.4978 -0.1944
  881MOL0     H18868   6.083   8.398  10.368  1.5476  0.7992  2.4624
  881MOL0     H18869   5.909   8.277  10.477 -0.1262  0.6022  0.4875
  881MOL0     H18870   5.737   8.083  10.608 -1.6559 -0.5863 -3.2591
  881MOL0     H18871   5.802   8.056  10.451 -2.4009  2.6180  0.3302
  881MOL0     H18872   5.792   7.813  10.496  0.6917 -1.8558  2.1310
  881MOL0     H18873   5.783   7.839  10.669  4.4410  2.1655 -0.5191
  881MOL0     H18874   5.553   7.921  10.651 -2.6078 -2.5208 -0.5287
  881MOL0     H18875   5.554   7.927  10.476 -0.4503 -1.5121 -1.2065
  881MOL0     H18876   5.560   7.692  10.464 -0.7309 -0.1415 -0.5814
  881MOL0     H18877   5.609   7.668  10.633 -2.3257  0.1479  2.4600
  881MOL0     H18878   5.409   7.770  10.717  2.7812 -1.3578  0.4876
  881MOL0     H18879   5.341   7.804  10.549 -0.9363 -0.4140  0.5424
  881MOL0     H18880   5.326   7.599  10.492  0.6865  1.4591 -0.2984
  881MOL0     H18881   5.400   7.535  10.654 -0.6079 -0.8800 -0.5218
  881MOL0     H18882   5.196   7.671  10.760  0.6348  1.6897  0.3133
  881MOL0     H18883   5.130   7.663  10.587  0.2813 -0.2651  1.2595
  881MOL0     H18884   5.187   7.423  10.756  1.2597 -1.3794 -1.5207
  881MOL0     H18885   5.133   7.430  10.579 -1.4651  0.1103 -0.7955
  881MOL0     H18886   4.948   7.267  10.743 -0.6000 -0.5507  0.7127
  881MOL0     H18887   4.750   7.295  10.934 -2.3390  1.3030  2.0671
  881MOL0     H18888   4.612   7.391  10.869 -0.3212  0.3160 -1.8053
  881MOL0     H18889   4.735   7.192  10.672  0.6499  2.2021 -2.6093
  881MOL0     H18890   4.570   7.269  10.684  0.1871 -2.0260 -0.4693
  881MOL0     H18891   4.651   7.087  10.914  1.8088 -0.5359  0.2488
  881MOL0     H18892   4.650   7.013  10.761  1.8231  0.3987  1.8522
  881MOL0     H18893   4.432   7.000  10.879  0.1158 -1.8266 -2.3590
  881MOL0     H18894   4.414   7.093  10.733  2.3417  2.1312 -1.4403
  881MOL0     H18895   4.314   7.401  10.759  0.7224 -0.0777 -0.4430
  881MOL0     H18896   4.025   7.572  10.764 -3.8548 -1.4075  0.0555
  881MOL0     H18897   4.159   7.517  10.658 -0.5293  0.4943  1.0077
  881MOL0     H18898   3.999   7.459  10.630 -0.4454 -1.2936  0.1746
  881MOL0     H18899   3.613   7.053  10.899  0.1198 -0.4077  2.8053
  881MOL0     H18900   3.358   7.089  10.883  0.2585  0.3676 -1.1694
  881MOL0     H18901   3.171   7.474  11.077  1.2533  0.8786 -0.5102
  881MOL0     H18902   3.204   7.488  10.902  2.0928 -1.4885  0.4906
  881MOL0     H18903   2.948   7.497  10.951  0.3600  0.6090 -2.7260
  881MOL0     H18904   3.003   7.372  10.848 -0.0588  1.7856  0.1980
  881MOL0     H18905   2.988   7.347  11.149  1.0286  1.3672 -0.2840
  881MOL0     H18906   3.002   7.208  11.030 -0.2633 -0.0109 -0.4287
  881MOL0     H18907   2.789   7.269  10.953 -0.0810  1.5253 -0.5458
  881MOL0     H18908   2.783   7.223  11.118 -0.6391  2.2088  2.1913
  881MOL0     H18909   2.742   7.504  11.032 -0.2338  0.5089  1.7399
  881MOL0     H18910   2.765   7.445  11.206 -0.3908  0.0886  0.5174
  881MOL0     H18911   2.557   7.302  11.174  0.8412  0.8544  0.2085
  881MOL0     H18912   2.532   7.467  11.157  1.4747  2.2388 -1.0794
  881MOL0     H18913   2.584   7.318  10.891  0.1844 -1.0570  0.3476
  881MOL0     H18914   2.500   7.466  10.920 -4.0130 -0.7433  0.6696
  881MOL0     H18915   2.419   7.186  11.008 -0.6225 -0.0219 -0.8387
  881MOL0     H18916   2.335   7.269  10.881  0.5844  1.0555 -0.5595
  881MOL0     H18917   3.401   7.480  11.056 -4.1470 -0.8750 -1.3864
  881MOL0     H18918   3.665   7.450  11.035  1.9777  0.1288 -2.3557
  881MOL0     H18919   3.982   7.125  11.001  2.2868 -1.4137  3.0425
  881MOL0     H18920   4.210   7.084  11.031  2.4293 -0.0078 -0.9288
  881MOL0     H18921   6.201   7.968  10.596 -0.7721  0.0104  0.3848
  881MOL0     H18922   6.378   8.132  10.535  1.6177  1.5658 -1.0219
  881MOL0     H18923   6.476   8.740  10.348 -1.9688 -1.6526 -0.8953
  881MOL0     H18924   6.718   8.803  10.297 -1.5825  0.7719  0.4572
  881MOL0     H18925   7.020   8.492  10.374 -4.3001  1.8071  2.0008
  881MOL0     H18926   7.030   8.498  10.194  0.2616  0.2614  0.0382
  881MOL0     H18927   7.177   8.657  10.409  0.0794  0.1193 -0.2353
  881MOL0     H18928   7.124   8.744  10.263  1.1229  1.0872  2.4578
  881MOL0     H18929   7.235   8.601  10.112 -1.9795 -1.8089  0.6122
  881MOL0     H18930   7.292   8.496  10.234 -0.5310  0.4944  1.2148
  881MOL0     H18931   7.426   8.693  10.328 -2.6670  1.7440  0.5654
  881MOL0     H18932   7.388   8.789  10.184 -1.2662 -0.1101  0.0141
  881MOL0     H18933   7.662   8.521  10.020  0.2562 -1.4662  0.3161
  881MOL0     H18934   6.835   8.407  10.318  2.8049  4.9231 -0.8980
  881MOL0     H18935   6.598   8.327  10.360  2.6535 -0.8648 -0.5674
  882MOL0     O18936   9.051   4.890   3.520  0.0145 -0.0836  0.2096
  882MOL0     C18937   9.165   4.934   3.483  0.3978  0.1955  1.2109
  882MOL0     O18938   9.178   5.032   3.395 -0.1899  0.2279  0.4193
  882MOL0     C18939   9.078   5.123   3.358 -0.0840  0.3150 -0.4533
  882MOL0     C18940   8.941   5.101   3.359 -0.1337  0.1766 -0.1295
  882MOL0     C18941   8.852   5.213   3.335 -0.1474 -0.3657  0.8177
  882MOL0     C18942   8.899   5.334   3.293 -0.3845 -0.2614 -0.3968
  882MOL0     O18943   8.823   5.443   3.259 -0.7154  0.5462  0.1510
  882MOL0     C18944   8.680   5.454   3.272 -0.3369 -0.4560 -0.0464
  882MOL0     C18945   8.611   5.429   3.136  0.4453 -0.3245  0.4666
  882MOL0     C18946   8.460   5.431   3.147  0.4696  0.9500  0.1813
  882MOL0     C18947   8.403   5.574   3.139 -0.0338 -0.5265  0.0998
  882MOL0     C18948   8.251   5.567   3.182  0.2505  0.3899  0.9309
  882MOL0     C18949   8.180   5.700   3.206 -0.0695  0.2405 -0.3448
  882MOL0     C18950   8.029   5.650   3.233 -0.2062 -0.7169  0.1144
  882MOL0     C18951   7.938   5.771   3.269  0.8848  0.6819 -0.3563
  882MOL0     N18952   7.800   5.718   3.295 -1.0118 -0.1812 -0.1425
  882MOL0     C18953   7.696   5.729   3.210 -0.7162 -0.5564 -0.9173
  882MOL0     C18954   7.586   5.719   3.289  0.5789  0.2914  0.2644
  882MOL0     C18955   7.444   5.746   3.245 -0.4809 -0.4179 -0.0112
  882MOL0     C18956   7.409   5.682   3.106  0.1922  0.2167  0.0419
  882MOL0     C18957   7.356   5.543   3.121  0.5641  0.3135  0.1944
  882MOL0     C18958   7.330   5.469   2.977  0.3862 -0.0460 -0.6646
  882MOL0     O18959   7.422   5.514   2.873  0.6019  0.1538  0.6577
  882MOL0     C18960   7.555   5.465   2.871 -0.5466 -0.1800  0.4422
  882MOL0     C18961   7.652   5.510   2.782  0.2593 -0.3322  0.0675
  882MOL0     C18962   7.785   5.482   2.797  0.1645  0.0607 -0.6982
  882MOL0     C18963   7.873   5.533   2.686  0.3999 -0.2783 -0.7941
  882MOL0     C18964   7.835   5.403   2.904  0.0750 -0.3469 -0.7337
  882MOL0     C18965   7.972   5.348   2.911 -0.9267  0.3200 -0.8893
  882MOL0     O18966   7.986   5.233   2.986  0.4180 -0.2768  0.1415
  882MOL0     C18967   8.101   5.159   2.984 -0.1033  0.2141 -0.1482
  882MOL0     C18968   8.105   5.044   2.899 -0.4920 -0.1273 -0.3047
  882MOL0     C18969   8.219   4.963   2.891 -0.7299  1.3324  0.1051
  882MOL0     C18970   8.319   4.984   2.988 -0.0100  0.1381  0.1242
  882MOL0     O18971   8.414   4.882   3.007  0.1297  0.0745  0.0522
  882MOL0     C18972   8.537   4.906   3.069 -0.3975  0.4947 -0.6333
  882MOL0     C18973   8.643   4.814   3.025 -0.0358  0.0376  0.3562
  882MOL0     C18974   8.787   4.853   3.088  0.0965  0.3994  0.6671
  882MOL0     C18975   8.904   4.762   3.048 -0.5670 -0.3557  0.0261
  882MOL0     C18976   9.032   4.800   3.117 -0.1919 -0.8462 -0.1160
  882MOL0     C18977   9.143   4.701   3.078  0.4448 -0.5999  0.0479
  882MOL0     C18978   9.228   4.676   3.213 -0.8221 -0.3744  0.1999
  882MOL0     C18979   9.349   4.592   3.183  0.1072 -0.6157  0.0853
  882MOL0    Cl18980   9.473   4.676   3.102  0.3035 -0.6636  0.1743
  882MOL0     C18981   8.319   5.096   3.071 -0.6087  0.0555  0.5540
  882MOL0     C18982   8.205   5.179   3.072 -0.1365 -0.4075 -0.1496
  882MOL0     O18983   8.072   5.407   2.864 -0.3299 -0.2872  0.6107
  882MOL0     C18984   7.741   5.364   2.999 -1.3035 -0.1539 -0.3917
  882MOL0     C18985   7.608   5.386   2.981  0.1745 -0.4933 -0.1143
  882MOL0     N18986   7.621   5.673   3.411 -0.1759 -0.5530  0.8426
  882MOL0     N18987   7.749   5.666   3.407 -0.8612 -0.8099 -0.2572
  882MOL0     C18988   9.037   5.354   3.294 -0.1253 -0.2676  0.4196
  882MOL0     C18989   9.124   5.253   3.329  0.2275 -0.6451 -0.9938
  882MOL0     C18990   9.282   4.859   3.522  0.5210 -0.4765  0.4227
  882MOL0     C18991   9.409   4.910   3.485 -1.0917  0.4512  0.7808
  882MOL0     C18992   9.516   4.834   3.521 -0.1370 -0.4995  0.2455
  882MOL0     C18993   9.507   4.711   3.588  1.1778 -0.1222 -0.0173
  882MOL0     O18994   9.610   4.632   3.626 -0.0176  0.1042 -0.1684
  882MOL0     C18995   9.731   4.646   3.544 -0.2428 -0.2098  0.2539
  882MOL0     C18996   9.696   4.592   3.410  0.0228 -0.7994  0.6020
  882MOL0     C18997   9.828   4.565   3.332  0.0521  0.1079  0.6734
  882MOL0     C18998   9.828   4.603   3.183 -0.3506 -0.1154  0.6101
  882MOL0     C18999   9.945   4.555   3.109  0.1885 -0.7976  0.0879
  882MOL0     C19000  10.052   4.522   3.056 -0.2325 -0.0026 -0.4214
  882MOL0     C19001   9.380   4.665   3.631  0.4197 -0.1454  0.5922
  882MOL0     C19002   9.273   4.744   3.601 -0.3337  0.2250 -0.1645
  882MOL0     H19003   8.901   5.003   3.383  2.4764 -1.0273 -0.3605
  882MOL0     H19004   8.745   5.199   3.325 -0.2015 -0.7389  1.7324
  882MOL0     H19005   8.643   5.375   3.339 -1.5667  1.3684  1.5310
  882MOL0     H19006   8.662   5.553   3.315  0.0416  0.0904 -1.1231
  882MOL0     H19007   8.650   5.490   3.054  1.0149 -1.4894 -0.1499
  882MOL0     H19008   8.643   5.328   3.111  0.3177 -0.1858 -0.2892
  882MOL0     H19009   8.408   5.365   3.077  1.5249 -1.5010  1.5765
  882MOL0     H19010   8.435   5.378   3.239 -1.8813 -1.1310 -1.5168
  882MOL0     H19011   8.456   5.643   3.205 -0.2678 -1.1115  0.9188
  882MOL0     H19012   8.416   5.599   3.034  0.4816 -0.1453  0.2510
  882MOL0     H19013   8.205   5.507   3.102 -1.8326 -0.3328  2.5942
  882MOL0     H19014   8.250   5.505   3.272 -3.5694 -0.1368  0.6545
  882MOL0     H19015   8.229   5.740   3.295  2.1367 -4.0477  0.6439
  882MOL0     H19016   8.185   5.771   3.123 -1.2722  1.8289  0.8496
  882MOL0     H19017   7.985   5.618   3.138  0.5411  1.9749 -1.2242
  882MOL0     H19018   8.023   5.574   3.312  1.1238 -0.6830  0.2782
  882MOL0     H19019   7.934   5.851   3.195 -0.9710  2.1169  1.1703
  882MOL0     H19020   7.975   5.819   3.360  2.3050 -1.3044  0.1885
  882MOL0     H19021   7.688   5.766   3.108 -1.7070  0.3933 -0.5211
  882MOL0     H19022   7.371   5.711   3.319 -0.0366 -2.7355 -0.5782
  882MOL0     H19023   7.423   5.852   3.233 -1.2243 -0.5061  0.4707
  882MOL0     H19024   7.494   5.687   3.038  1.0436 -0.5744  1.0210
  882MOL0     H19025   7.336   5.740   3.048  0.5697  0.6516  0.0044
  882MOL0     H19026   7.261   5.542   3.174  0.5973  0.3111  0.2537
  882MOL0     H19027   7.436   5.484   3.168 -0.4966 -1.4782 -0.1528
  882MOL0     H19028   7.228   5.496   2.949  1.2367  2.7375 -1.3238
  882MOL0     H19029   7.329   5.360   2.990 -3.3870  0.0636  1.0708
  882MOL0     H19030   7.611   5.582   2.712  3.5340 -1.2417 -3.0873
  882MOL0     H19031   7.815   5.605   2.628 -2.1108  0.1960  2.0548
  882MOL0     H19032   7.964   5.575   2.731 -1.7294  0.5255  3.2467
  882MOL0     H19033   7.902   5.445   2.628 -2.0987 -1.6568 -0.0906
  882MOL0     H19034   8.020   5.043   2.832  0.2535  1.3443 -1.3148
  882MOL0     H19035   8.236   4.876   2.829  0.6769 -0.0923  2.3608
  882MOL0     H19036   8.584   5.001   3.044  0.5613 -0.6313 -3.5056
  882MOL0     H19037   8.522   4.896   3.177 -1.0103  1.4195 -0.6174
  882MOL0     H19038   8.620   4.712   3.054  0.4681  0.8311  3.9945
  882MOL0     H19039   8.650   4.819   2.916  0.5152  0.0357  0.3892
  882MOL0     H19040   8.770   4.849   3.196 -4.3599 -0.4434  0.1411
  882MOL0     H19041   8.819   4.955   3.066 -0.1583  0.2969 -0.1987
  882MOL0     H19042   8.876   4.661   3.079  0.2867 -0.5457  0.1971
  882MOL0     H19043   8.912   4.767   2.939 -2.3567 -0.0998 -0.1235
  882MOL0     H19044   9.024   4.804   3.226  2.9469 -1.5385  0.2202
  882MOL0     H19045   9.072   4.893   3.077  2.9682 -1.2373  1.7738
  882MOL0     H19046   9.098   4.611   3.036 -0.3171  0.0927 -0.6513
  882MOL0     H19047   9.202   4.748   2.999  0.8700 -0.8872  0.1940
  882MOL0     H19048   9.160   4.638   3.291  1.8718 -0.2730  2.7777
  882MOL0     H19049   9.271   4.771   3.246 -1.8336 -0.3909  1.6663
  882MOL0     H19050   9.313   4.500   3.136  1.0099 -0.3948 -1.1128
  882MOL0     H19051   9.392   4.574   3.281 -1.4579 -0.0753  0.9051
  882MOL0     H19052   8.390   5.106   3.152 -1.1653  1.4238  0.8953
  882MOL0     H19053   8.202   5.253   3.151  0.8555 -1.5176  0.9685
  882MOL0     H19054   7.772   5.299   3.080  1.7136  0.5150 -0.8670
  882MOL0     H19055   7.544   5.346   3.059 -0.3443  0.0923 -0.2307
  882MOL0     H19056   9.080   5.450   3.264 -1.5426  0.1236 -0.4173
  882MOL0     H19057   9.230   5.273   3.338  0.4546 -2.2596  0.4598
  882MOL0     H19058   9.424   5.009   3.444  0.3477  0.1210  0.4597
  882MOL0     H19059   9.611   4.884   3.504  1.1564 -1.6836  3.2383
  882MOL0     H19060   9.759   4.752   3.544 -0.0703 -0.1950 -2.6222
  882MOL0     H19061   9.813   4.581   3.574 -0.4856 -0.0329  1.3482
  882MOL0     H19062   9.635   4.662   3.353 -0.5807 -1.3663  0.5368
  882MOL0     H19063   9.632   4.503   3.416 -4.2380  1.8901 -0.6720
  882MOL0     H19064   9.840   4.457   3.343 -0.1003  0.1439  1.2508
  882MOL0     H19065   9.916   4.610   3.378  1.6750 -1.0104 -1.2075
  882MOL0     H19066   9.827   4.712   3.179  0.1880 -0.1044  0.7020
  882MOL0     H19067   9.734   4.575   3.135  0.2006  2.1139 -1.9730
  882MOL0     H19068  10.154   4.497   3.032  1.7295  2.7606  3.7800
  882MOL0     H19069   9.365   4.573   3.686  1.8142  0.6918  2.4980
  882MOL0     H19070   9.175   4.704   3.626  0.8635 -3.1504 -0.4132
  883MOL0     O19071   5.978  10.255   1.688 -0.0218  0.2858  0.0908
  883MOL0     C19072   5.913  10.178   1.769 -1.0660 -0.6095  0.2856
  883MOL0     O19073   5.780  10.198   1.807 -0.6861 -0.4442  0.7860
  883MOL0     C19074   5.717  10.314   1.767 -0.2620 -0.4170  0.4850
  883MOL0     C19075   5.727  10.366   1.635 -0.3957  0.2700  0.1380
  883MOL0     C19076   5.673  10.491   1.590 -0.4215  0.3239  0.4956
  883MOL0     C19077   5.607  10.569   1.685 -0.5596  0.0680 -0.0937
  883MOL0     O19078   5.567  10.688   1.642 -0.0546  0.1654  0.2782
  883MOL0     C19079   5.509  10.789   1.730  0.1258  0.4742 -0.2842
  883MOL0     C19080   5.362  10.751   1.773 -0.4734  0.5997  0.1721
  883MOL0     C19081   5.265  10.860   1.843 -0.2446  0.1775  0.3970
  883MOL0     C19082   5.118  10.815   1.852  0.8461 -0.2336 -0.9022
  883MOL0     C19083   5.019  10.929   1.855  0.8459  0.3737 -0.0505
  883MOL0     C19084   4.875  10.868   1.832  0.4973  0.2140  0.4553
  883MOL0     C19085   4.768  10.978   1.810  0.2851  0.2138  0.3862
  883MOL0     C19086   4.742  11.071   1.919  0.0138  0.1246  0.6843
  883MOL0     N19087   4.670  10.998   2.024 -0.6249 -0.0605  1.2126
  883MOL0     C19088   4.714  11.004   2.156  0.0914  0.6754  0.4401
  883MOL0     C19089   4.612  10.945   2.232 -0.1409  0.5646  0.4538
  883MOL0     C19090   4.604  10.944   2.375 -0.1991 -0.4421 -0.5275
  883MOL0     C19091   4.705  10.852   2.439 -0.1910 -0.0002 -0.4357
  883MOL0     C19092   4.687  10.871   2.597 -0.6372 -0.2252  0.0052
  883MOL0     C19093   4.782  10.781   2.677  0.0979  0.0104  0.1977
  883MOL0     O19094   4.924  10.818   2.656  0.4887 -0.1494 -0.2090
  883MOL0     C19095   5.016  10.720   2.699 -0.4264 -0.2965  0.4073
  883MOL0     C19096   5.128  10.765   2.771  0.6966 -0.0871  0.4726
  883MOL0     C19097   5.219  10.673   2.826  0.1854  0.3378 -0.6339
  883MOL0     C19098   5.341  10.728   2.886  0.3369  0.5961  0.4227
  883MOL0     C19099   5.190  10.534   2.827 -0.5977 -0.8714 -0.2646
  883MOL0     C19100   5.273  10.427   2.885 -0.3186  0.3208 -0.1559
  883MOL0     O19101   5.228  10.295   2.870 -0.7138 -0.1209  0.0873
  883MOL0     C19102   5.295  10.182   2.918 -0.2156 -0.6620  0.1453
  883MOL0     C19103   5.251  10.065   2.855 -0.6943 -0.2645 -0.5513
  883MOL0     C19104   5.286   9.935   2.897 -0.0526  0.3653  0.3974
  883MOL0     C19105   5.376   9.919   3.003 -0.0094 -1.0141 -0.3488
  883MOL0     O19106   5.412   9.796   3.053 -0.0639 -0.3288 -0.1555
  883MOL0     C19107   5.485   9.788   3.171 -0.3232 -0.4479 -0.1911
  883MOL0     C19108   5.509   9.642   3.193 -0.2767 -0.6158  0.0948
  883MOL0     C19109   5.597   9.578   3.091 -0.1102  0.4023  0.3046
  883MOL0     C19110   5.628   9.429   3.118  0.4233 -0.9958 -0.0844
  883MOL0     C19111   5.736   9.388   3.021 -0.1315  0.1335  0.8845
  883MOL0     C19112   5.768   9.239   3.065  0.3481 -0.3942 -0.5134
  883MOL0     C19113   5.868   9.165   2.982  0.4592  0.7339  0.2349
  883MOL0     C19114   6.008   9.229   3.009 -0.6529  0.4416  0.0389
  883MOL0    Cl19115   6.125   9.121   2.921 -0.2989 -0.2347 -0.1986
  883MOL0     C19116   5.431  10.039   3.054 -0.4938  0.3057 -0.7162
  883MOL0     C19117   5.393  10.164   3.013 -0.1048  0.0482  0.2875
  883MOL0     O19118   5.380  10.458   2.941 -0.3295  0.0094 -0.6057
  883MOL0     C19119   5.078  10.495   2.753 -0.2149  0.4131 -0.2387
  883MOL0     C19120   4.999  10.586   2.687 -0.4335  0.4721 -0.4903
  883MOL0     N19121   4.510  10.917   2.143  0.0637  0.1291 -0.6914
  883MOL0     N19122   4.544  10.949   2.025 -0.4318 -0.1701 -0.0944
  883MOL0     C19123   5.602  10.525   1.819  0.6913  0.0024 -0.0048
  883MOL0     C19124   5.650  10.395   1.859  0.4802  0.0682  0.1223
  883MOL0     C19125   5.991  10.071   1.837 -0.0329  0.2215 -0.0903
  883MOL0     C19126   5.923   9.963   1.904  0.6591 -0.0429 -0.2684
  883MOL0     C19127   5.996   9.855   1.964  0.8237 -0.0068  0.2593
  883MOL0     C19128   6.139   9.857   1.955 -0.6198 -0.6664  0.4755
  883MOL0     O19129   6.206   9.759   2.006  0.1585  0.0356 -0.3203
  883MOL0     C19130   6.211   9.642   1.910 -0.1443  0.7397 -0.8195
  883MOL0     C19131   6.328   9.554   1.965  0.1622  0.3891 -0.9259
  883MOL0     C19132   6.461   9.634   1.967  0.9771  0.2868  0.0454
  883MOL0     C19133   6.567   9.564   2.050 -0.6674  0.3366 -0.6538
  883MOL0     C19134   6.609   9.430   2.009 -0.1632 -0.5515 -0.5050
  883MOL0     C19135   6.638   9.320   1.972 -0.1089 -0.4404 -0.0873
  883MOL0     C19136   6.204   9.958   1.889 -0.5611 -0.4981 -0.0145
  883MOL0     C19137   6.131  10.061   1.824 -0.2377  0.1228  0.1475
  883MOL0     H19138   5.786  10.309   1.564  3.3122  2.5791  1.1001
  883MOL0     H19139   5.692  10.523   1.489 -2.1177  0.3237  0.1402
  883MOL0     H19140   5.571  10.800   1.819  0.3476 -2.3629  0.0150
  883MOL0     H19141   5.511  10.875   1.663  1.1749 -1.3983 -2.8111
  883MOL0     H19142   5.312  10.713   1.683 -2.5268 -0.5728  1.7375
  883MOL0     H19143   5.359  10.667   1.843 -2.0975  1.6467  1.4299
  883MOL0     H19144   5.306  10.889   1.940 -0.9836 -0.4895  0.9268
  883MOL0     H19145   5.266  10.946   1.776 -0.6102 -0.2996 -0.2399
  883MOL0     H19146   5.101  10.743   1.772  1.1827 -0.3823 -0.8447
  883MOL0     H19147   5.101  10.751   1.939 -2.4228 -0.6870 -1.7718
  883MOL0     H19148   5.034  10.981   1.950  2.3885  1.2345 -0.7186
  883MOL0     H19149   5.045  11.000   1.775 -1.6391 -0.6297 -1.8983
  883MOL0     H19150   4.876  10.798   1.747  1.5767 -0.4511  0.9971
  883MOL0     H19151   4.837  10.815   1.919 -1.4223 -0.3050 -0.6331
  883MOL0     H19152   4.805  11.029   1.721 -0.2816  0.2654  0.1748
  883MOL0     H19153   4.672  10.935   1.778  0.2462  0.2726  0.4252
  883MOL0     H19154   4.669  11.145   1.885 -1.4440 -0.8311  1.6338
  883MOL0     H19155   4.833  11.119   1.956 -0.2431  0.1303  1.3217
  883MOL0     H19156   4.796  11.062   2.198  0.9104  2.1649 -2.8602
  883MOL0     H19157   4.620  11.047   2.409  0.0926 -0.8593  0.6455
  883MOL0     H19158   4.501  10.926   2.407 -2.0111  2.7134 -3.8498
  883MOL0     H19159   4.806  10.879   2.404  0.2591 -1.9320 -0.7439
  883MOL0     H19160   4.682  10.752   2.402 -0.2710 -0.1117 -0.0858
  883MOL0     H19161   4.586  10.843   2.628 -0.5753 -0.2582  0.1794
  883MOL0     H19162   4.714  10.975   2.618  1.9241 -0.9592  0.7102
  883MOL0     H19163   4.754  10.678   2.653 -1.7096  0.1050  1.6329
  883MOL0     H19164   4.766  10.796   2.784 -2.9696  0.7734 -0.2610
  883MOL0     H19165   5.145  10.871   2.786  0.9463 -0.1588  0.6986
  883MOL0     H19166   5.357  10.836   2.883 -1.4308  1.0414  3.1166
  883MOL0     H19167   5.348  10.692   2.989 -0.7197 -0.1226  0.2650
  883MOL0     H19168   5.425  10.688   2.829  0.6274 -2.6928  2.8524
  883MOL0     H19169   5.187  10.079   2.769  0.8813 -0.1961 -1.7526
  883MOL0     H19170   5.244   9.843   2.858  1.1382 -0.6655  1.4191
  883MOL0     H19171   5.579   9.843   3.166  0.1108 -1.1795 -0.0679
  883MOL0     H19172   5.429   9.824   3.258 -1.2885 -0.0933 -0.9364
  883MOL0     H19173   5.548   9.632   3.295  2.5005  1.0571 -0.6793
  883MOL0     H19174   5.405   9.608   3.196 -0.7342  0.1744 -3.4311
  883MOL0     H19175   5.691   9.634   3.085  0.7965 -1.0898  0.2847
  883MOL0     H19176   5.547   9.580   2.993  1.6465 -2.4140 -0.7462
  883MOL0     H19177   5.656   9.423   3.224  0.2008  2.1666  0.2289
  883MOL0     H19178   5.534   9.376   3.101 -2.1519  2.1469  2.8965
  883MOL0     H19179   5.830   9.441   3.037 -0.4871  0.8252  0.7062
  883MOL0     H19180   5.705   9.384   2.916 -1.5495 -1.7722  1.3061
  883MOL0     H19181   5.798   9.233   3.170  0.5957  0.5992 -0.5186
  883MOL0     H19182   5.672   9.186   3.063  0.2210 -0.1520 -1.6087
  883MOL0     H19183   5.836   9.169   2.878 -3.0680 -1.2146  1.0454
  883MOL0     H19184   5.866   9.062   3.021 -2.3419  0.7847  0.4414
  883MOL0     H19185   6.034   9.227   3.115  2.1274  2.3743 -0.4725
  883MOL0     H19186   6.012   9.337   2.988 -1.5413  0.3987 -0.3733
  883MOL0     H19187   5.507  10.052   3.130 -1.6293 -0.0570  0.5210
  883MOL0     H19188   5.438  10.251   3.060 -1.1737  0.3329  0.8237
  883MOL0     H19189   5.046  10.391   2.758 -1.2864  0.7642  0.4493
  883MOL0     H19190   4.920  10.547   2.624  0.4050  0.4164 -1.5289
  883MOL0     H19191   5.548  10.588   1.889  0.1995  0.2850 -0.6311
  883MOL0     H19192   5.627  10.352   1.957 -2.4484  0.0831 -0.4665
  883MOL0     H19193   5.816   9.961   1.917  0.7698  0.6567  0.8854
  883MOL0     H19194   5.955   9.764   2.007  1.0042 -0.2305 -0.0480
  883MOL0     H19195   6.118   9.585   1.908 -0.6332  1.1850  2.7151
  883MOL0     H19196   6.240   9.685   1.814 -1.1604 -0.5871 -1.7544
  883MOL0     H19197   6.339   9.465   1.902 -0.0282 -0.1616 -0.2045
  883MOL0     H19198   6.302   9.518   2.065 -1.9589  1.7012 -0.9427
  883MOL0     H19199   6.445   9.735   2.007  1.0683  0.0360  0.7310
  883MOL0     H19200   6.489   9.642   1.861 -1.9213  0.1577 -0.8177
  883MOL0     H19201   6.543   9.553   2.156  0.5666 -1.9769 -0.5402
  883MOL0     H19202   6.659   9.624   2.046  0.2293 -1.0216 -1.0704
  883MOL0     H19203   6.661   9.220   1.941 -1.4130 -1.0054  0.6481
  883MOL0     H19204   6.312   9.966   1.896 -0.6259  1.6133 -0.5169
  883MOL0     H19205   6.174  10.144   1.767 -2.3153  1.7155  0.7627
  884MOL0     O19206   0.603   8.300   7.672 -0.0085  0.0745  0.0814
  884MOL0     C19207   0.549   8.241   7.765 -0.5221  0.2714 -0.1529
  884MOL0     O19208   0.613   8.170   7.857  0.4253  0.3914  0.2230
  884MOL0     C19209   0.750   8.156   7.855  0.0450 -0.5586  1.0505
  884MOL0     C19210   0.834   8.150   7.731 -0.1087  0.1958 -0.4571
  884MOL0     C19211   0.975   8.137   7.745  0.6957  0.0027  0.2754
  884MOL0     C19212   1.037   8.118   7.869  0.4713 -0.3447 -0.0716
  884MOL0     O19213   1.166   8.089   7.895  0.6281  0.5356  0.7501
  884MOL0     C19214   1.241   8.020   7.799 -0.1946  0.4829 -0.2800
  884MOL0     C19215   1.386   8.030   7.842  0.3936 -0.3269  0.0781
  884MOL0     C19216   1.484   7.942   7.769 -0.0790 -0.8547 -0.1815
  884MOL0     C19217   1.535   8.010   7.644  0.1281  0.1458  1.0059
  884MOL0     C19218   1.660   7.947   7.577  0.0448 -0.7258 -0.1249
  884MOL0     C19219   1.789   7.987   7.640  0.2953 -0.2258 -0.1689
  884MOL0     C19220   1.896   7.882   7.612 -0.2816  0.5607 -0.8365
  884MOL0     C19221   2.042   7.917   7.635  0.9565 -0.3404  0.8323
  884MOL0     N19222   2.131   7.808   7.613  0.8138  1.0837 -0.0795
  884MOL0     C19223   2.210   7.800   7.504 -0.1453  0.4056 -0.2953
  884MOL0     C19224   2.265   7.674   7.508  0.4302  0.4169  1.0659
  884MOL0     C19225   2.374   7.631   7.418 -0.9410  0.5011  0.0233
  884MOL0     C19226   2.385   7.483   7.382  0.5586  0.1524  0.4485
  884MOL0     C19227   2.251   7.398   7.353 -0.0248  0.0999  0.1403
  884MOL0     C19228   2.184   7.443   7.224 -0.5952  0.0681 -0.5304
  884MOL0     O19229   2.064   7.362   7.223 -0.3102 -0.3697  0.2207
  884MOL0     C19230   1.944   7.431   7.209 -0.2713  0.6795  0.4176
  884MOL0     C19231   1.909   7.479   7.084  0.2709  0.0558 -0.1442
  884MOL0     C19232   1.784   7.538   7.066 -0.0426  0.2288 -0.6654
  884MOL0     C19233   1.756   7.577   6.921 -0.0036  0.2722 -0.3480
  884MOL0     C19234   1.692   7.551   7.182  0.4978  0.0184 -0.1036
  884MOL0     C19235   1.552   7.616   7.168 -0.3137 -0.3588  0.5515
  884MOL0     O19236   1.473   7.609   7.282 -0.4047  0.0271 -0.3163
  884MOL0     C19237   1.347   7.641   7.264  0.1138 -0.9058  0.4691
  884MOL0     C19238   1.241   7.554   7.242 -0.8182  0.4292 -0.1766
  884MOL0     C19239   1.111   7.608   7.227 -0.2739 -0.3455  0.9721
  884MOL0     C19240   1.080   7.739   7.217 -0.9395  0.8633 -0.5661
  884MOL0     O19241   0.962   7.803   7.185 -0.3061  0.4047  0.1718
  884MOL0     C19242   0.850   7.719   7.166  0.4165 -1.1910 -0.3233
  884MOL0     C19243   0.725   7.810   7.158  1.0239  0.5301  0.9501
  884MOL0     C19244   0.709   7.863   7.010  0.3459  0.3423 -0.4291
  884MOL0     C19245   0.586   7.824   6.946 -0.1558  0.7668  0.5238
  884MOL0     C19246   0.465   7.902   6.981  0.0105 -0.1995  0.7158
  884MOL0     C19247   0.465   8.057   6.934  0.8337  0.5833  0.2930
  884MOL0     C19248   0.329   8.123   6.969  0.1723 -0.0740  0.3868
  884MOL0     C19249   0.338   8.215   7.096 -0.6304 -0.4078  0.2023
  884MOL0    Cl19250   0.433   8.355   7.060 -0.5465 -0.1799  0.1178
  884MOL0     C19251   1.185   7.831   7.227  0.4979  0.5723 -0.7355
  884MOL0     C19252   1.318   7.782   7.256  0.1429 -0.5600  0.3017
  884MOL0     O19253   1.523   7.660   7.062  0.8909 -0.5920 -0.9005
  884MOL0     C19254   1.734   7.506   7.308 -0.1354 -0.4555 -0.0544
  884MOL0     C19255   1.858   7.443   7.313 -0.0407 -0.2268  0.0587
  884MOL0     N19256   2.211   7.604   7.622  0.1792 -0.7670  0.0576
  884MOL0     N19257   2.124   7.688   7.676 -0.0467 -0.0889  0.1724
  884MOL0     C19258   0.946   8.113   7.981  0.2558  0.4980 -0.8395
  884MOL0     C19259   0.809   8.126   7.972 -0.2831  0.0064 -0.0619
  884MOL0     C19260   0.406   8.277   7.784  0.6700  0.0460  0.6796
  884MOL0     C19261   0.319   8.188   7.854  0.5857  0.1053 -0.1221
  884MOL0     C19262   0.179   8.216   7.872  0.1807  0.1286 -0.3843
  884MOL0     C19263   0.118   8.325   7.805  0.3107  0.0201  0.7690
  884MOL0     O19264  -0.011   8.368   7.825  0.1108  0.2529  0.4285
  884MOL0     C19265  -0.044   8.416   7.956 -0.0123  0.3481 -0.8734
  884MOL0     C19266  -0.018   8.568   7.956  0.5539  0.3834  0.0624
  884MOL0     C19267   0.116   8.613   8.021  0.4339 -0.0434  0.1339
  884MOL0     C19268   0.152   8.755   8.004 -0.1782  0.4719  0.2135
  884MOL0     C19269   0.165   8.794   7.860 -0.0251  0.3052 -0.6232
  884MOL0     C19270   0.203   8.822   7.749 -0.5561 -0.5606  0.8768
  884MOL0     C19271   0.209   8.411   7.739  0.4240 -0.5961  0.5845
  884MOL0     C19272   0.346   8.393   7.738 -0.1302 -0.8319  0.6461
  884MOL0     H19273   0.791   8.160   7.632  0.3483  0.6395 -0.6088
  884MOL0     H19274   1.028   8.157   7.652 -1.5493  0.7541 -0.9262
  884MOL0     H19275   1.215   7.913   7.796  1.3976  0.0862 -2.3098
  884MOL0     H19276   1.234   8.071   7.702  0.0130  2.2246  0.5905
  884MOL0     H19277   1.408   8.135   7.823  0.0737 -0.5373 -1.6838
  884MOL0     H19278   1.388   8.020   7.951  0.5445 -0.7932  0.0316
  884MOL0     H19279   1.567   7.927   7.838  0.6801  2.4670 -0.1978
  884MOL0     H19280   1.457   7.839   7.743  0.6982 -0.5826 -2.2464
  884MOL0     H19281   1.458   8.005   7.566  0.8949 -1.5996  0.3291
  884MOL0     H19282   1.554   8.114   7.673 -3.0062  1.4712 -1.1813
  884MOL0     H19283   1.656   7.838   7.588 -0.1737 -0.4815  3.3365
  884MOL0     H19284   1.657   7.976   7.472 -1.2476  0.5007  0.2295
  884MOL0     H19285   1.810   8.086   7.597 -1.6600  0.0208 -0.6510
  884MOL0     H19286   1.778   7.993   7.749 -0.2641  1.3251 -0.2772
  884MOL0     H19287   1.872   7.790   7.665  2.4088  0.9101  1.2435
  884MOL0     H19288   1.892   7.861   7.505 -2.6023 -1.1296 -0.4802
  884MOL0     H19289   2.043   7.947   7.741 -1.5352  0.8040  0.5924
  884MOL0     H19290   2.074   8.002   7.574  1.2368 -2.6081 -2.4282
  884MOL0     H19291   2.236   7.885   7.441 -0.5783  2.6237  2.3597
  884MOL0     H19292   2.358   7.692   7.329 -0.3388  1.2813  0.4406
  884MOL0     H19293   2.470   7.670   7.452 -0.2877  0.3431 -1.5761
  884MOL0     H19294   2.448   7.424   7.449 -0.0564 -0.8016  0.2217
  884MOL0     H19295   2.445   7.487   7.290  2.4698 -2.0543  1.4994
  884MOL0     H19296   2.178   7.418   7.432 -3.6179 -0.0005 -2.8757
  884MOL0     H19297   2.278   7.292   7.353  1.0719  0.3624  0.6750
  884MOL0     H19298   2.245   7.414   7.139 -0.6512  1.1631 -0.9630
  884MOL0     H19299   2.164   7.551   7.216  0.1139  0.2273 -0.2090
  884MOL0     H19300   1.974   7.465   6.999 -0.9375 -1.4734 -0.8692
  884MOL0     H19301   1.705   7.493   6.872  0.4725  0.5011 -1.2551
  884MOL0     H19302   1.693   7.665   6.913 -1.4123 -0.6409  0.2647
  884MOL0     H19303   1.849   7.589   6.864  0.6515 -2.4187 -0.0101
  884MOL0     H19304   1.266   7.449   7.254 -0.7858  0.5847  1.3591
  884MOL0     H19305   1.036   7.530   7.220  0.5191 -1.3357  2.8103
  884MOL0     H19306   0.869   7.662   7.074  2.6627 -1.4407  0.2387
  884MOL0     H19307   0.836   7.663   7.259  1.1608  1.5794  1.5867
  884MOL0     H19308   0.643   7.740   7.176  1.3714 -0.3370 -0.6370
  884MOL0     H19309   0.723   7.893   7.229 -2.7580  0.9745  0.5315
  884MOL0     H19310   0.790   7.829   6.946  2.0229  1.1305  1.1854
  884MOL0     H19311   0.711   7.972   7.016 -0.0793  0.3002  0.8566
  884MOL0     H19312   0.596   7.837   6.837 -2.2081  1.4403  0.3695
  884MOL0     H19313   0.569   7.719   6.966 -1.0121  0.4075 -1.7453
  884MOL0     H19314   0.445   7.893   7.088  1.2143 -0.8556  0.9157
  884MOL0     H19315   0.380   7.859   6.928  1.2087 -1.2976 -0.4057
  884MOL0     H19316   0.545   8.111   6.986  0.6645 -0.1086  1.3030
  884MOL0     H19317   0.480   8.071   6.827  1.9071  1.7023  0.5727
  884MOL0     H19318   0.250   8.048   6.959  0.8553 -0.6465 -1.1614
  884MOL0     H19319   0.303   8.196   6.892 -0.7938  2.6647  3.1113
  884MOL0     H19320   0.364   8.155   7.183 -1.2079  0.5611  1.0648
  884MOL0     H19321   0.236   8.245   7.122  0.1333  2.6394  0.1667
  884MOL0     H19322   1.172   7.938   7.218 -1.6775  0.4754  0.6233
  884MOL0     H19323   1.401   7.852   7.258  1.5524 -2.1597  1.4655
  884MOL0     H19324   1.671   7.525   7.394  0.8653  2.5572  0.1268
  884MOL0     H19325   1.887   7.402   7.409 -1.7111  1.4620  1.3521
  884MOL0     H19326   0.972   8.093   8.085 -1.1269 -2.0727 -0.9082
  884MOL0     H19327   0.754   8.128   8.065  0.2588  1.9226  0.2687
  884MOL0     H19328   0.367   8.105   7.904  0.9017  0.6376  0.4795
  884MOL0     H19329   0.112   8.163   7.940 -2.0188  3.4533  0.3073
  884MOL0     H19330  -0.151   8.397   7.961  0.2629 -1.0460  0.6821
  884MOL0     H19331   0.010   8.360   8.033 -3.0342  0.0009  1.1567
  884MOL0     H19332  -0.098   8.610   8.017 -1.4585 -3.4315  0.3510
  884MOL0     H19333  -0.034   8.607   7.855  1.1786  0.8043  0.1169
  884MOL0     H19334   0.191   8.553   7.968  1.4747  0.4994  0.9577
  884MOL0     H19335   0.112   8.589   8.127  2.0899 -1.4355 -0.0720
  884MOL0     H19336   0.241   8.760   8.068 -1.5976 -0.8453  2.4448
  884MOL0     H19337   0.070   8.813   8.046 -0.0571  1.8308 -1.3523
  884MOL0     H19338   0.254   8.854   7.660  1.9131  1.6750  2.8952
  884MOL0     H19339   0.175   8.503   7.694 -0.8482 -1.4052 -0.1820
  884MOL0     H19340   0.406   8.464   7.683  1.7689 -1.8043  1.3543
  885MOL0     O19341   3.548  10.814   8.468 -0.0519 -0.5795 -0.0801
  885MOL0     C19342   3.560  10.930   8.506 -0.9400  0.0291  0.2362
  885MOL0     O19343   3.474  11.030   8.475  0.3489  0.0415 -0.4113
  885MOL0     C19344   3.367  11.031   8.384  0.7078 -0.1116 -0.2921
  885MOL0     C19345   3.283  11.138   8.399  0.3628  0.2803 -0.0367
  885MOL0     C19346   3.161  11.142   8.329  0.7085  0.8411 -0.0654
  885MOL0     C19347   3.132  11.037   8.234  0.1850  0.2966 -0.5921
  885MOL0     O19348   3.015  11.024   8.163  0.5694 -0.3000 -0.9982
  885MOL0     C19349   2.911  11.120   8.192 -0.3762  0.5251 -0.1183
  885MOL0     C19350   2.783  11.092   8.115  0.1501  0.0055 -0.5492
  885MOL0     C19351   2.712  10.960   8.152  0.2257 -0.2492 -0.1868
  885MOL0     C19352   2.561  10.948   8.110  0.6263  0.9199  0.4363
  885MOL0     C19353   2.455  11.046   8.156 -0.4677 -0.3577  0.0253
  885MOL0     C19354   2.448  11.057   8.304 -0.0211 -0.0479 -0.4303
  885MOL0     C19355   2.420  10.922   8.382  0.5491  0.9963  0.5303
  885MOL0     C19356   2.416  10.939   8.530  0.1749 -0.6557 -0.5022
  885MOL0     N19357   2.299  11.002   8.596  0.2167 -0.5197 -0.1878
  885MOL0     C19358   2.205  11.082   8.535 -0.5058 -0.0319 -0.5908
  885MOL0     C19359   2.146  11.152   8.641  0.6758 -0.0741  0.1687
  885MOL0     C19360   2.029  11.252   8.640  0.0036 -0.0310  0.6621
  885MOL0     C19361   1.900  11.186   8.692 -0.1759 -0.2759  0.1168
  885MOL0     C19362   1.836  11.085   8.592 -0.2003 -0.0734  0.3543
  885MOL0     C19363   1.694  11.032   8.635 -0.8579  0.7567  0.6144
  885MOL0     O19364   1.599  11.138   8.645  0.2311  0.0069 -0.0653
  885MOL0     C19365   1.488  11.120   8.723 -0.4713 -0.4762  0.3271
  885MOL0     C19366   1.415  11.238   8.748  0.2340  0.5462  1.1981
  885MOL0     C19367   1.297  11.243   8.817  0.0915  0.0364  0.9883
  885MOL0     C19368   1.228  11.380   8.836 -0.3306 -0.4324 -0.5068
  885MOL0     C19369   1.241  11.116   8.856  0.6755 -0.5620 -0.2760
  885MOL0     C19370   1.114  11.098   8.934  0.4251  0.4662  0.5251
  885MOL0     O19371   1.076  10.966   8.969  0.2796 -0.3410 -0.3625
  885MOL0     C19372   0.959  10.951   9.031 -0.1191  0.2859  0.7683
  885MOL0     C19373   0.963  10.898   9.166 -0.3450 -0.5015 -0.6162
  885MOL0     C19374   0.843  10.884   9.243  1.3045  1.1510  0.4789
  885MOL0     C19375   0.714  10.926   9.195 -0.3742  0.4233  0.7790
  885MOL0     O19376   0.608  10.898   9.273  0.1525 -0.0896 -0.6067
  885MOL0     C19377   0.481  10.929   9.225  0.8903 -0.0271  0.6591
  885MOL0     C19378   0.452  11.077   9.241  0.3815 -0.2486 -0.2529
  885MOL0     C19379   0.303  11.100   9.228  0.3406 -0.5324 -0.3059
  885MOL0     C19380   0.244  11.080   9.083 -0.1900 -0.3303  0.1387
  885MOL0     C19381   0.097  11.130   9.077  0.1285  0.6237  0.5299
  885MOL0     C19382   0.017  11.089   8.953  0.1636  0.2159 -0.9015
  885MOL0     C19383   0.034  11.172   8.823 -0.9367 -0.7621 -0.3991
  885MOL0     C19384  -0.025  11.310   8.831  0.8948 -0.7035  0.2400
  885MOL0    Cl19385  -0.206  11.294   8.850  0.3087  0.2617 -0.1774
  885MOL0     C19386   0.719  10.974   9.061  0.1079 -0.0580  0.4709
  885MOL0     C19387   0.836  10.995   8.981  0.0972 -0.8982 -0.4943
  885MOL0     O19388   1.055  11.197   8.968  0.8573 -0.4532 -0.3488
  885MOL0     C19389   1.316  11.003   8.831  0.2161  0.0118 -0.1110
  885MOL0     C19390   1.433  10.999   8.765  0.0898 -0.6784 -0.6975
  885MOL0     N19391   2.205  11.112   8.754 -0.0446  0.1743  0.3368
  885MOL0     N19392   2.284  11.012   8.730 -0.2454  0.4709  0.3896
  885MOL0     C19393   3.224  10.941   8.205 -0.3144  0.4636  0.0633
  885MOL0     C19394   3.339  10.930   8.289 -0.2898 -0.1559 -0.4171
  885MOL0     C19395   3.680  10.967   8.582 -0.7213  0.6703  0.1269
  885MOL0     C19396   3.700  11.101   8.622  0.1572 -0.6117 -0.5124
  885MOL0     C19397   3.798  11.139   8.723  0.3008 -0.7069  0.0958
  885MOL0     C19398   3.886  11.034   8.768  0.0043 -0.2285 -0.8652
  885MOL0     O19399   3.982  11.066   8.863 -0.0241 -1.3143  0.2495
  885MOL0     C19400   4.095  10.981   8.890 -0.0430 -0.4748  0.0177
  885MOL0     C19401   4.195  11.064   8.974 -0.2919 -0.4324 -0.4294
  885MOL0     C19402   4.317  10.985   9.026  0.8283 -0.3341  0.7190
  885MOL0     C19403   4.271  10.889   9.135 -0.3570  0.0632 -1.3189
  885MOL0     C19404   4.379  10.782   9.145  0.1533 -0.3646 -0.3089
  885MOL0     C19405   4.460  10.700   9.118 -0.0376  0.5691  0.4182
  885MOL0     C19406   3.867  10.909   8.720  0.3467 -1.2544 -0.4409
  885MOL0     C19407   3.767  10.870   8.626 -0.2888  0.1740  0.0966
  885MOL0     H19408   3.306  11.208   8.478  0.9581  0.3503 -0.2709
  885MOL0     H19409   3.101  11.227   8.358 -1.6115  0.1488 -2.4350
  885MOL0     H19410   2.893  11.133   8.299  0.1700 -0.4052  0.0981
  885MOL0     H19411   2.949  11.217   8.159  1.2137  0.0770  0.3115
  885MOL0     H19412   2.713  11.174   8.135 -2.6946 -1.4934 -3.5333
  885MOL0     H19413   2.811  11.092   8.009 -0.2837 -0.3109 -0.6666
  885MOL0     H19414   2.776  10.887   8.102  0.2496 -1.0513  0.9605
  885MOL0     H19415   2.720  10.936   8.259  0.1045 -1.0448 -0.3556
  885MOL0     H19416   2.564  10.950   8.001 -0.8174  0.2192  0.3603
  885MOL0     H19417   2.524  10.850   8.143 -2.2069  1.7213 -0.1335
  885MOL0     H19418   2.470  11.142   8.107  2.4514 -1.4550 -1.4772
  885MOL0     H19419   2.354  11.021   8.122 -0.6260  0.3109 -0.0112
  885MOL0     H19420   2.543  11.096   8.342  0.0482 -0.2440 -0.4007
  885MOL0     H19421   2.379  11.137   8.333 -0.1020 -0.5297  0.7649
  885MOL0     H19422   2.333  10.867   8.347  0.4418  1.6329 -0.2204
  885MOL0     H19423   2.507  10.856   8.374  0.8049  1.2090  1.3895
  885MOL0     H19424   2.507  10.985   8.570 -0.5507  0.6938 -0.3643
  885MOL0     H19425   2.416  10.837   8.572 -0.1332 -1.7093 -2.9227
  885MOL0     H19426   2.193  11.091   8.427  0.2767 -0.9717 -0.7746
  885MOL0     H19427   2.070  11.339   8.693  3.8292 -0.8284 -0.6242
  885MOL0     H19428   2.009  11.282   8.537 -0.9515  0.7419  1.0646
  885MOL0     H19429   1.827  11.266   8.701 -0.9244 -0.8945 -0.3759
  885MOL0     H19430   1.912  11.149   8.794  0.9728  2.4305  1.0556
  885MOL0     H19431   1.910  11.004   8.597  0.8764  0.7040 -1.7399
  885MOL0     H19432   1.828  11.134   8.494  0.1668 -1.1522 -0.2401
  885MOL0     H19433   1.720  10.987   8.732 -0.9246 -0.0990  0.2482
  885MOL0     H19434   1.659  10.951   8.571  1.8213 -1.2556  1.4879
  885MOL0     H19435   1.455  11.328   8.704 -2.0026  0.2752 -1.7701
  885MOL0     H19436   1.127  11.367   8.797 -1.5009 -3.8310  2.9704
  885MOL0     H19437   1.229  11.419   8.938  0.1237  0.4489 -0.8391
  885MOL0     H19438   1.285  11.453   8.777  3.0766 -0.3146  2.5337
  885MOL0     H19439   1.060  10.881   9.211 -0.7601  1.5223  1.2323
  885MOL0     H19440   0.852  10.835   9.340 -0.3213  0.3375  0.2511
  885MOL0     H19441   0.466  10.893   9.123  1.2636  0.1329  0.5466
  885MOL0     H19442   0.402  10.883   9.285  0.7162 -1.5070 -0.6421
  885MOL0     H19443   0.479  11.110   9.342  0.8024 -0.3274 -0.3362
  885MOL0     H19444   0.515  11.134   9.172  0.9891 -1.7053 -0.9261
  885MOL0     H19445   0.285  11.206   9.248  1.5464 -0.1042 -1.3392
  885MOL0     H19446   0.250  11.042   9.304 -1.6646 -1.0246 -1.9606
  885MOL0     H19447   0.295  11.151   9.016  1.3108 -1.5495 -0.0781
  885MOL0     H19448   0.271  10.978   9.052  0.5043 -0.3676  0.8271
  885MOL0     H19449   0.101  11.239   9.076 -1.0110  0.6864 -0.4560
  885MOL0     H19450   0.050  11.092   9.169 -2.2680 -3.1975 -1.9829
  885MOL0     H19451   0.043  10.983   8.939  2.0061  0.4428  0.3897
  885MOL0     H19452  -0.088  11.083   8.983  0.1289 -1.5068 -1.2379
  885MOL0     H19453  -0.005  11.115   8.737 -0.0053 -1.5527 -0.3098
  885MOL0     H19454   0.142  11.186   8.818 -0.6724 -2.6288 -0.8450
  885MOL0     H19455   0.007  11.381   8.755  1.3794  0.2186  1.2829
  885MOL0     H19456   0.016  11.350   8.924 -3.0404  0.3028  1.7412
  885MOL0     H19457   0.625  11.016   9.030  0.3592  0.2780  0.1550
  885MOL0     H19458   0.825  11.051   8.889  0.5124  1.9826  1.1123
  885MOL0     H19459   1.282  10.903   8.860  0.3444  0.2347  0.8515
  885MOL0     H19460   1.485  10.906   8.743  1.0255 -0.2875 -0.2288
  885MOL0     H19461   3.217  10.872   8.122 -3.7091  0.2164  0.4493
  885MOL0     H19462   3.418  10.858   8.272  2.1064  2.4324 -0.9019
  885MOL0     H19463   3.643  11.192   8.609  2.3206  0.9316  0.2060
  885MOL0     H19464   3.796  11.234   8.775 -1.0542 -0.9360  0.4935
  885MOL0     H19465   4.074  10.887   8.941  1.7541 -1.5641 -1.1243
  885MOL0     H19466   4.140  10.950   8.795 -1.2153 -2.3303  0.0285
  885MOL0     H19467   4.145  11.121   9.053 -0.6551  0.0821 -1.0192
  885MOL0     H19468   4.224  11.140   8.902  0.0229 -1.3641 -1.3102
  885MOL0     H19469   4.396  11.048   9.068 -2.0638  3.2739  1.2304
  885MOL0     H19470   4.354  10.929   8.939 -0.4196 -0.1876  0.0743
  885MOL0     H19471   4.173  10.842   9.129 -0.6117  0.0100  1.7441
  885MOL0     H19472   4.272  10.949   9.227  0.2855  0.7975 -1.7857
  885MOL0     H19473   4.530  10.621   9.098  0.4043  1.4066 -1.7256
  885MOL0     H19474   3.924  10.835   8.774 -1.2207 -1.0113  1.6813
  885MOL0     H19475   3.753  10.766   8.599  0.3172 -0.0897  0.7619
  886MOL0     O19476   7.578   6.859   4.404 -0.0376 -0.7236 -0.2299
  886MOL0     C19477   7.673   6.829   4.479  0.1247  0.6681  0.5869
  886MOL0     O19478   7.675   6.835   4.607  0.3339  0.2511 -0.1174
  886MOL0     C19479   7.550   6.842   4.668 -0.3565 -0.0589 -0.1601
  886MOL0     C19480   7.525   6.934   4.768  0.1956 -0.7887  0.8404
  886MOL0     C19481   7.404   6.938   4.828 -0.3762 -0.7121 -0.0907
  886MOL0     C19482   7.296   6.863   4.792  0.5727 -0.0567  0.0935
  886MOL0     O19483   7.176   6.889   4.855 -0.0303  0.0019 -0.3511
  886MOL0     C19484   7.056   6.865   4.775 -0.1065  0.3992 -0.1796
  886MOL0     C19485   6.932   6.919   4.830  0.9219  0.1607 -0.2016
  886MOL0     C19486   6.886   6.845   4.962 -0.5560 -0.8624  0.0387
  886MOL0     C19487   6.760   6.902   5.018  0.4590 -0.7090 -0.2758
  886MOL0     C19488   6.632   6.841   4.954  0.5982 -0.3420 -0.1347
  886MOL0     C19489   6.513   6.872   5.046  0.5180 -0.4458  0.0543
  886MOL0     C19490   6.386   6.858   4.965  0.5771 -0.2413 -0.2735
  886MOL0     C19491   6.265   6.870   5.061 -0.3460 -0.0446  0.4360
  886MOL0     N19492   6.139   6.859   4.988 -0.0443  0.9975 -0.0562
  886MOL0     C19493   6.016   6.900   5.036  0.3823  0.3785  0.4189
  886MOL0     C19494   5.934   6.873   4.936 -0.4102  0.0886 -0.5967
  886MOL0     C19495   5.784   6.897   4.933 -0.8357 -0.0030  0.2236
  886MOL0     C19496   5.708   6.767   4.940 -0.3306  0.7384 -0.1760
  886MOL0     C19497   5.718   6.704   5.079  0.0579 -0.8159 -0.1673
  886MOL0     C19498   5.611   6.609   5.103 -0.2962 -0.1458  0.5390
  886MOL0     O19499   5.492   6.691   5.114  0.1162  0.2655 -0.4449
  886MOL0     C19500   5.378   6.628   5.149 -0.1289  0.2642  0.8629
  886MOL0     C19501   5.368   6.500   5.208  0.2586 -0.0176  0.2866
  886MOL0     C19502   5.234   6.445   5.240 -0.3432 -1.4407 -0.2526
  886MOL0     C19503   5.238   6.304   5.293  0.5696 -0.0695 -0.6960
  886MOL0     C19504   5.114   6.529   5.227  0.4428  0.6642  0.0748
  886MOL0     C19505   4.973   6.498   5.264 -0.1549  0.0648 -1.2391
  886MOL0     O19506   4.888   6.608   5.277  0.1567  0.2988 -0.1220
  886MOL0     C19507   4.756   6.601   5.307 -0.3531  0.4538 -0.3686
  886MOL0     C19508   4.688   6.716   5.278  0.1588 -0.6754 -0.8732
  886MOL0     C19509   4.553   6.733   5.315  0.0788 -0.0484 -0.1872
  886MOL0     C19510   4.484   6.626   5.370  0.0558  0.3469  0.6734
  886MOL0     O19511   4.345   6.630   5.397  0.4073 -0.2280 -0.4218
  886MOL0     C19512   4.283   6.759   5.398  0.0713 -0.5350  0.5835
  886MOL0     C19513   4.137   6.748   5.443 -0.6133  0.3795  0.8677
  886MOL0     C19514   4.044   6.684   5.354  0.1714 -0.4028 -0.1749
  886MOL0     C19515   3.954   6.787   5.279  0.5531  0.0559  0.3689
  886MOL0     C19516   3.840   6.709   5.222  1.0212  0.1667  0.5680
  886MOL0     C19517   3.736   6.682   5.328 -0.5693  0.0120  0.2797
  886MOL0     C19518   3.616   6.610   5.270 -0.2722  0.5524 -0.7481
  886MOL0     C19519   3.508   6.614   5.374 -0.0049  0.3057 -0.5628
  886MOL0    Cl19520   3.342   6.583   5.303  0.0388  0.1991 -0.0601
  886MOL0     C19521   4.549   6.505   5.403  0.4316  0.2251 -0.7004
  886MOL0     C19522   4.682   6.494   5.365 -0.6303  0.1814  0.4926
  886MOL0     O19523   4.942   6.381   5.271 -0.1341  0.1187  0.0167
  886MOL0     C19524   5.132   6.660   5.168  0.5896  0.4324  0.0172
  886MOL0     C19525   5.262   6.703   5.126 -0.7267 -0.0738 -0.1563
  886MOL0     N19526   6.000   6.830   4.830  0.1055 -0.0998  0.3124
  886MOL0     N19527   6.124   6.827   4.849  0.4496 -0.1662 -0.1605
  886MOL0     C19528   7.325   6.761   4.702  0.4096  0.8004  0.3242
  886MOL0     C19529   7.453   6.739   4.645  0.2167  0.0692 -0.6106
  886MOL0     C19530   7.796   6.766   4.414 -0.5019  1.1869 -0.5194
  886MOL0     C19531   7.790   6.730   4.275  0.5092  0.0014 -0.0399
  886MOL0     C19532   7.912   6.681   4.215  0.9481  0.9269 -0.6886
  886MOL0     C19533   8.034   6.667   4.292 -0.0865  0.6211 -0.5638
  886MOL0     O19534   8.146   6.606   4.243  0.3495 -0.2455  0.0365
  886MOL0     C19535   8.176   6.649   4.110  0.1235  0.0655  0.1616
  886MOL0     C19536   8.319   6.618   4.067  0.3006  0.2418 -0.6182
  886MOL0     C19537   8.426   6.672   4.162  0.4744  0.1222 -0.8047
  886MOL0     C19538   8.568   6.658   4.101 -0.9479  0.2395 -0.5769
  886MOL0     C19539   8.698   6.680   4.182  0.1392  0.3946  0.5639
  886MOL0     C19540   8.810   6.700   4.234  0.2161 -0.6824  0.1105
  886MOL0     C19541   8.023   6.696   4.430 -0.4622 -0.3290  0.0028
  886MOL0     C19542   7.914   6.745   4.493  1.1265  0.3518  0.2451
  886MOL0     H19543   7.609   6.992   4.804 -0.4646 -0.4819  1.9164
  886MOL0     H19544   7.384   7.005   4.911  0.6222  0.9100 -1.0923
  886MOL0     H19545   7.077   6.908   4.676  2.3596  2.2056  1.0203
  886MOL0     H19546   7.038   6.760   4.751  2.8024 -0.0046 -1.0354
  886MOL0     H19547   6.938   7.027   4.843  0.9397  0.1133  0.1864
  886MOL0     H19548   6.854   6.892   4.758  0.7451 -0.7842  0.3382
  886MOL0     H19549   6.876   6.737   4.951  0.5832 -0.9472 -0.2798
  886MOL0     H19550   6.967   6.864   5.033 -0.0352 -0.2927 -0.6912
  886MOL0     H19551   6.764   6.884   5.125  1.4158  1.6377  0.1561
  886MOL0     H19552   6.747   7.011   5.009 -3.2242 -0.7120  2.6605
  886MOL0     H19553   6.617   6.883   4.855  0.0609  0.7420  0.3955
  886MOL0     H19554   6.630   6.734   4.929 -1.0336 -0.2753 -0.3619
  886MOL0     H19555   6.518   6.803   5.130  2.0970 -1.1258 -0.5578
  886MOL0     H19556   6.520   6.975   5.082  1.5889 -0.3527 -0.3927
  886MOL0     H19557   6.376   6.928   4.882  2.3715  0.0091 -0.3175
  886MOL0     H19558   6.395   6.760   4.917  1.3958 -1.2096  1.7364
  886MOL0     H19559   6.281   6.962   5.118 -1.3365 -0.4549  1.4101
  886MOL0     H19560   6.271   6.783   5.127 -0.4499 -1.1676 -0.9868
  886MOL0     H19561   6.003   6.941   5.135  0.1655 -2.5876  1.6976
  886MOL0     H19562   5.751   6.976   5.001 -2.0697 -1.0600  0.8981
  886MOL0     H19563   5.761   6.942   4.836 -0.7357  1.6715  0.9570
  886MOL0     H19564   5.750   6.697   4.866  1.9395  2.5112 -0.6741
  886MOL0     H19565   5.601   6.776   4.918 -0.3568  0.5845 -0.1109
  886MOL0     H19566   5.703   6.773   5.163  2.3440 -2.9877  2.2365
  886MOL0     H19567   5.816   6.658   5.095  0.6470 -0.4500 -2.4918
  886MOL0     H19568   5.620   6.550   5.195 -0.6553  0.2632  0.8372
  886MOL0     H19569   5.620   6.548   5.012 -0.7303  2.7913 -1.6064
  886MOL0     H19570   5.452   6.439   5.240  1.9579  2.3834  0.6619
  886MOL0     H19571   5.308   6.236   5.244  0.6707  1.2116 -2.4191
  886MOL0     H19572   5.248   6.310   5.401  0.6688  1.2689 -0.7657
  886MOL0     H19573   5.142   6.262   5.259 -1.4399  4.9703 -2.2718
  886MOL0     H19574   4.758   6.787   5.236  0.4982  0.4323  1.3822
  886MOL0     H19575   4.499   6.820   5.278  0.3357  0.9026  1.5781
  886MOL0     H19576   4.333   6.826   5.468 -0.8731 -1.3334  2.0897
  886MOL0     H19577   4.290   6.808   5.301  0.6815 -0.9204  0.4281
  886MOL0     H19578   4.134   6.682   5.530 -3.9072 -1.9455 -0.8025
  886MOL0     H19579   4.107   6.850   5.470 -0.8946  0.6772 -0.4951
  886MOL0     H19580   3.979   6.619   5.413 -0.6164  0.0824 -0.4822
  886MOL0     H19581   4.100   6.630   5.277  0.1294  0.7755 -1.0736
  886MOL0     H19582   3.922   6.869   5.344  2.0765  0.6872  0.3735
  886MOL0     H19583   4.013   6.844   5.206 -0.4049  1.6964  0.8214
  886MOL0     H19584   3.867   6.611   5.182  0.5444  0.4373 -0.4665
  886MOL0     H19585   3.803   6.766   5.136 -0.5834 -1.3077  0.2233
  886MOL0     H19586   3.785   6.621   5.404  1.5137  0.0436 -0.9807
  886MOL0     H19587   3.709   6.771   5.386  2.7501  1.2937  0.0437
  886MOL0     H19588   3.641   6.505   5.252 -0.9014  0.0268  1.1730
  886MOL0     H19589   3.595   6.645   5.168  0.4758  1.2387 -0.6785
  886MOL0     H19590   3.499   6.716   5.412 -1.5215 -0.0676  0.1494
  886MOL0     H19591   3.539   6.545   5.453 -0.7767 -0.5185 -0.9607
  886MOL0     H19592   4.495   6.423   5.450  2.1090 -1.1124 -1.0267
  886MOL0     H19593   4.735   6.406   5.397 -0.9003  0.8216  2.8647
  886MOL0     H19594   5.050   6.722   5.134  2.5088  2.2189 -1.6162
  886MOL0     H19595   5.284   6.800   5.083  1.9431  0.2941  1.7475
  886MOL0     H19596   7.244   6.698   4.668  4.1156 -2.5531 -3.5612
  886MOL0     H19597   7.466   6.658   4.574  1.0567  1.0955 -1.6781
  886MOL0     H19598   7.696   6.751   4.226  0.1847 -0.3342  0.4287
  886MOL0     H19599   7.909   6.646   4.112  0.3420  0.6734 -0.5868
  886MOL0     H19600   8.114   6.583   4.049 -0.9241 -1.4112  2.6872
  886MOL0     H19601   8.151   6.754   4.092  0.8858  0.0052 -1.4426
  886MOL0     H19602   8.328   6.656   3.965 -0.6781 -1.2456 -1.2964
  886MOL0     H19603   8.332   6.510   4.060  1.4737  0.3170  0.0976
  886MOL0     H19604   8.419   6.611   4.252  0.8487 -0.2797 -1.0442
  886MOL0     H19605   8.404   6.774   4.194 -0.5765  0.1016 -1.4107
  886MOL0     H19606   8.583   6.732   4.022  0.6158  2.3892  1.5749
  886MOL0     H19607   8.569   6.559   4.056  1.6661 -0.4528  0.7932
  886MOL0     H19608   8.896   6.708   4.297 -0.4724 -1.4120  1.1953
  886MOL0     H19609   8.111   6.691   4.492 -0.6669  0.7293  0.3852
  886MOL0     H19610   7.903   6.773   4.597 -0.9537  2.1285 -0.3587
  887MOL0     O19611   8.069  10.312   7.328  0.2668 -0.0599 -0.3392
  887MOL0     C19612   8.123  10.403   7.383 -0.3333 -0.1011  0.4117
  887MOL0     O19613   8.061  10.497   7.464  0.2858  0.2328 -0.5194
  887MOL0     C19614   7.926  10.502   7.496 -0.1390 -0.5062  0.1497
  887MOL0     C19615   7.818  10.460   7.408 -0.3408 -0.3569  0.1473
  887MOL0     C19616   7.683  10.475   7.436 -0.7333  0.4927 -0.7625
  887MOL0     C19617   7.655  10.542   7.555  0.6406  0.7963 -0.4491
  887MOL0     O19618   7.529  10.564   7.603  0.7372  0.1838  0.3323
  887MOL0     C19619   7.405  10.532   7.528  0.1148  0.1351 -1.6402
  887MOL0     C19620   7.328  10.419   7.595 -0.3020  0.2469  0.3731
  887MOL0     C19621   7.191  10.378   7.535  0.5870  0.4703 -0.7559
  887MOL0     C19622   7.133  10.249   7.597 -0.5667 -0.4189  0.1661
  887MOL0     C19623   7.010  10.220   7.528  0.1849 -0.2553  0.0692
  887MOL0     C19624   6.952  10.087   7.578 -0.2909  0.2187  0.3078
  887MOL0     C19625   6.837  10.038   7.488 -0.4584  0.5855  0.2163
  887MOL0     C19626   6.731  10.152   7.486 -0.1618 -0.1342 -0.4428
  887MOL0     N19627   6.605  10.111   7.420 -0.2907  0.2542  0.1337
  887MOL0     C19628   6.599  10.030   7.316 -0.0990  0.5800 -0.2312
  887MOL0     C19629   6.476  10.033   7.263  0.7915 -0.4061 -0.5949
  887MOL0     C19630   6.423   9.948   7.150  0.2107 -0.4857  0.3430
  887MOL0     C19631   6.445   9.802   7.166 -0.2577  0.0278 -0.0123
  887MOL0     C19632   6.404   9.703   7.054 -0.4910 -0.3297  1.1798
  887MOL0     C19633   6.254   9.686   7.044  0.3680  0.0207  0.5526
  887MOL0     O19634   6.191   9.776   6.948  0.1769 -0.4627  0.0566
  887MOL0     C19635   6.055   9.757   6.925  0.1328  0.5139 -0.3008
  887MOL0     C19636   6.004   9.842   6.830 -0.5001 -0.4473  0.1774
  887MOL0     C19637   5.866   9.843   6.795 -0.6020 -0.5089  0.1667
  887MOL0     C19638   5.822   9.943   6.693  0.2441 -0.0726  0.0642
  887MOL0     C19639   5.778   9.763   6.871  0.2980  0.1781 -0.8656
  887MOL0     C19640   5.633   9.747   6.853 -0.2859  0.4414  0.1806
  887MOL0     O19641   5.565   9.687   6.952  0.2757  0.3634  0.2176
  887MOL0     C19642   5.429   9.703   6.961 -0.3040  0.6223  0.4457
  887MOL0     C19643   5.344   9.601   7.000 -0.5576 -0.3214 -0.7385
  887MOL0     C19644   5.209   9.621   7.007  0.5891 -0.4722  0.4886
  887MOL0     C19645   5.152   9.748   6.984 -0.1305 -0.4231  0.0987
  887MOL0     O19646   5.013   9.757   7.001 -0.0997  0.1131  0.5735
  887MOL0     C19647   4.963   9.725   7.134 -0.4273  0.7756 -0.0173
  887MOL0     C19648   4.809   9.717   7.127 -0.2486 -0.3189  0.3821
  887MOL0     C19649   4.733   9.850   7.090 -0.4328 -0.5404 -0.6445
  887MOL0     C19650   4.583   9.816   7.082 -0.2383 -0.7151  0.2450
  887MOL0     C19651   4.484   9.933   7.065 -0.4112  0.5338  0.1363
  887MOL0     C19652   4.342   9.880   7.077  0.2037 -0.3471  0.5477
  887MOL0     C19653   4.226   9.983   7.081  0.0310  0.1568 -0.9845
  887MOL0     C19654   4.092   9.916   7.120 -0.1381  0.0889  0.6337
  887MOL0    Cl19655   4.080   9.834   7.278 -0.2541  0.0436 -0.0299
  887MOL0     C19656   5.239   9.856   6.954  0.1250 -0.1780 -0.3256
  887MOL0     C19657   5.372   9.831   6.934  0.2269  0.6493 -0.5354
  887MOL0     O19658   5.583   9.782   6.746 -0.8269 -0.5944  0.0705
  887MOL0     C19659   5.829   9.683   6.974 -1.2005  0.0261 -0.3878
  887MOL0     C19660   5.962   9.679   7.001 -0.1980  0.1147 -0.4684
  887MOL0     N19661   6.410  10.118   7.352  0.7431 -0.5497  0.0778
  887MOL0     N19662   6.482  10.162   7.440 -0.5419  0.0773  0.6308
  887MOL0     C19663   7.758  10.596   7.636 -0.0262  0.3881 -0.5263
  887MOL0     C19664   7.883  10.552   7.622  0.4166  0.1071 -0.3360
  887MOL0     C19665   8.267  10.424   7.364  0.1957  0.5822  0.2400
  887MOL0     C19666   8.326  10.550   7.383 -0.6074  0.6630 -0.4284
  887MOL0     C19667   8.463  10.569   7.354  0.2167 -0.3862 -1.0758
  887MOL0     C19668   8.537  10.469   7.293 -0.2736 -0.0510  1.0889
  887MOL0     O19669   8.667  10.483   7.256  0.1521 -0.7173  0.3802
  887MOL0     C19670   8.748  10.369   7.222 -0.3185 -0.0743  0.1503
  887MOL0     C19671   8.891  10.397   7.252  0.1554  0.9462  0.8112
  887MOL0     C19672   8.987  10.298   7.188 -0.4610  0.5193 -0.4311
  887MOL0     C19673   9.132  10.320   7.240 -0.3887  0.6122 -0.4343
  887MOL0     C19674   9.216  10.218   7.175 -0.7323  0.0634  0.5559
  887MOL0     C19675   9.268  10.122   7.115 -0.3408  0.2905 -0.5011
  887MOL0     C19676   8.477  10.340   7.271 -0.3452 -0.6055  0.4793
  887MOL0     C19677   8.346  10.315   7.310 -0.9185  0.1363 -0.7538
  887MOL0     H19678   7.852  10.414   7.316 -0.2508  0.8280 -0.4310
  887MOL0     H19679   7.599  10.439   7.377 -1.9537 -1.8144  2.1358
  887MOL0     H19680   7.332  10.613   7.534 -0.6792 -0.6607  0.5456
  887MOL0     H19681   7.419  10.502   7.424  0.4775  0.8401 -1.7947
  887MOL0     H19682   7.394  10.332   7.588 -0.7675  0.0236 -3.8562
  887MOL0     H19683   7.308  10.450   7.698  1.2277 -1.5259  1.2599
  887MOL0     H19684   7.124  10.462   7.558 -0.3927 -0.3095 -0.7066
  887MOL0     H19685   7.190  10.368   7.426 -0.0964 -0.8933 -0.6413
  887MOL0     H19686   7.201  10.163   7.587  1.5563  1.3098 -1.2351
  887MOL0     H19687   7.116  10.264   7.704  0.5427  2.0928  0.0651
  887MOL0     H19688   6.938  10.303   7.526  0.3413 -0.0172 -3.5793
  887MOL0     H19689   7.035  10.208   7.422 -0.6142 -0.3732 -0.1087
  887MOL0     H19690   7.033  10.015   7.574  0.3117  0.9478 -1.1880
  887MOL0     H19691   6.914  10.096   7.681  2.4577  1.8617  1.2814
  887MOL0     H19692   6.877  10.021   7.387  0.0047  0.6539  0.3833
  887MOL0     H19693   6.798   9.942   7.522 -0.0802  0.1045 -0.6617
  887MOL0     H19694   6.774  10.231   7.424  1.5952 -0.2830  0.5136
  887MOL0     H19695   6.720  10.197   7.585  5.0445  0.9007 -0.0780
  887MOL0     H19696   6.678   9.967   7.277  2.2810  2.3373  1.4578
  887MOL0     H19697   6.317   9.965   7.131  0.2603 -1.3840 -0.7612
  887MOL0     H19698   6.475   9.985   7.061 -2.3027 -0.6143 -1.2667
  887MOL0     H19699   6.400   9.774   7.262  0.7078 -0.7814  0.2238
  887MOL0     H19700   6.553   9.786   7.178  0.2544 -1.1669 -4.6227
  887MOL0     H19701   6.444   9.602   7.071 -0.3707 -0.1529  1.9609
  887MOL0     H19702   6.453   9.732   6.961 -0.2760 -2.9440  0.3772
  887MOL0     H19703   6.206   9.690   7.143 -0.8090  0.1843 -0.0077
  887MOL0     H19704   6.233   9.589   6.997 -0.4114  0.7748 -0.7130
  887MOL0     H19705   6.086   9.897   6.785 -0.8069  1.4473  1.8006
  887MOL0     H19706   5.808   9.897   6.595  0.2838  0.6439 -0.2803
  887MOL0     H19707   5.730   9.994   6.720  0.0792 -0.4041  0.1368
  887MOL0     H19708   5.895  10.024   6.685  0.1979  0.1132  1.3247
  887MOL0     H19709   5.391   9.514   7.043 -1.2985  0.7294  2.4733
  887MOL0     H19710   5.138   9.543   7.031 -0.4895 -0.0315 -1.0687
  887MOL0     H19711   5.011   9.634   7.171  2.0855  1.9410 -0.1538
  887MOL0     H19712   4.995   9.803   7.204  3.1981 -1.3126  0.9483
  887MOL0     H19713   4.800   9.646   7.044  2.9554  0.4863 -0.8296
  887MOL0     H19714   4.757   9.677   7.214 -1.0853 -1.8236 -0.7616
  887MOL0     H19715   4.765   9.906   7.002  1.7072  1.6499  1.3614
  887MOL0     H19716   4.747   9.914   7.177 -1.2189 -0.2157 -0.7466
  887MOL0     H19717   4.579   9.765   6.985  0.9489 -0.1474 -0.1180
  887MOL0     H19718   4.549   9.758   7.168  0.3634  0.0441  1.0047
  887MOL0     H19719   4.502   9.991   6.973 -0.6651 -0.8979 -0.8516
  887MOL0     H19720   4.497  10.013   7.139 -0.8980  0.1978  0.5832
  887MOL0     H19721   4.313   9.825   6.987  1.0979  0.2804 -0.1356
  887MOL0     H19722   4.330   9.812   7.162 -2.0879  0.6076  1.0575
  887MOL0     H19723   4.218  10.035   6.985 -0.1951  0.7690 -0.6388
  887MOL0     H19724   4.240  10.050   7.165 -0.7690 -0.9028  0.0245
  887MOL0     H19725   4.064   9.847   7.039  0.3819  1.9967 -1.2755
  887MOL0     H19726   4.013   9.993   7.122 -3.3646 -2.8119 -1.8766
  887MOL0     H19727   5.203   9.957   6.940  1.7404  0.7809  1.8402
  887MOL0     H19728   5.428   9.921   6.909 -0.1537  1.4409  1.3028
  887MOL0     H19729   5.766   9.609   7.022  0.6880 -2.6219 -1.7058
  887MOL0     H19730   5.997   9.635   7.094 -1.0617  0.0878 -0.1389
  887MOL0     H19731   7.723  10.646   7.727 -0.7451  0.0535 -0.6073
  887MOL0     H19732   7.956  10.572   7.700 -1.2724  0.6093  1.1652
  887MOL0     H19733   8.269  10.637   7.414 -0.9040 -0.4447  2.4520
  887MOL0     H19734   8.511  10.664   7.372  0.2175 -0.5773 -0.0178
  887MOL0     H19735   8.718  10.281   7.278  0.0224 -0.7754 -0.7517
  887MOL0     H19736   8.735  10.355   7.114 -2.4175  2.0436  0.0401
  887MOL0     H19737   8.893  10.386   7.361 -0.3649 -0.5213  0.6867
  887MOL0     H19738   8.920  10.497   7.219 -0.6219  1.2455  1.0215
  887MOL0     H19739   8.993  10.302   7.079  0.0427 -2.7668 -0.6194
  887MOL0     H19740   8.961  10.193   7.206  2.3269 -0.1439  0.1142
  887MOL0     H19741   9.146  10.306   7.348 -0.1970  0.5557 -0.4656
  887MOL0     H19742   9.154  10.425   7.219  1.3508  0.2744 -0.4687
  887MOL0     H19743   9.320  10.046   7.060  0.5103  0.5465 -0.0585
  887MOL0     H19744   8.523  10.256   7.221 -1.3170 -1.2706  0.6985
  887MOL0     H19745   8.306  10.214   7.307  2.6056 -1.5484  2.1605
  888MOL0     O19746   5.243   8.431   4.118 -0.1604 -0.5798 -0.2341
  888MOL0     C19747   5.291   8.386   4.218  0.5636  0.3555  0.4709
  888MOL0     O19748   5.216   8.344   4.323  0.1427  0.0500  1.2412
  888MOL0     C19749   5.083   8.375   4.329  0.3203  0.1780 -0.3083
  888MOL0     C19750   5.021   8.505   4.307  0.3277  1.1852 -0.1160
  888MOL0     C19751   4.887   8.515   4.309 -0.0626  0.3340 -0.2487
  888MOL0     C19752   4.798   8.408   4.342 -0.3196  0.4001  0.3716
  888MOL0     O19753   4.666   8.412   4.360 -0.0310 -0.3440  0.5975
  888MOL0     C19754   4.595   8.542   4.337 -0.5853 -0.0116  0.2690
  888MOL0     C19755   4.450   8.524   4.365 -0.0240  0.0042 -0.1471
  888MOL0     C19756   4.395   8.383   4.321  0.2301  0.6716 -0.0307
  888MOL0     C19757   4.233   8.380   4.318 -0.4104  0.4283  0.1563
  888MOL0     C19758   4.190   8.241   4.261  0.1644 -0.5629 -0.1308
  888MOL0     C19759   4.240   8.122   4.347  0.1548  0.3185 -0.1941
  888MOL0     C19760   4.170   7.996   4.284 -0.1133  0.1901 -0.0549
  888MOL0     C19761   4.178   7.863   4.370 -0.0114  0.3462 -0.1270
  888MOL0     N19762   4.080   7.871   4.478  0.4999  0.0063  0.9635
  888MOL0     C19763   3.951   7.837   4.456  0.3157  0.1211 -0.2204
  888MOL0     C19764   3.888   7.861   4.569  0.1328 -0.0059 -0.5800
  888MOL0     C19765   3.739   7.849   4.592 -0.2216 -0.0197  0.7361
  888MOL0     C19766   3.670   7.985   4.601 -0.1793 -0.0063 -0.4244
  888MOL0     C19767   3.529   7.963   4.664  0.1549 -0.5415 -0.2968
  888MOL0     C19768   3.426   7.883   4.589 -0.1881 -0.2203 -0.3898
  888MOL0     O19769   3.415   7.943   4.461 -1.0159  0.0499  0.2107
  888MOL0     C19770   3.336   8.057   4.429  0.6571  0.5920 -1.0811
  888MOL0     C19771   3.350   8.122   4.308  0.8385 -0.3212  0.0182
  888MOL0     C19772   3.255   8.217   4.265 -0.7226 -0.1644 -0.4188
  888MOL0     C19773   3.287   8.302   4.141  0.1551  0.5894 -0.2855
  888MOL0     C19774   3.148   8.251   4.359 -0.3000  0.4247 -0.5523
  888MOL0     C19775   3.052   8.357   4.335  0.3254  0.2134 -0.0393
  888MOL0     O19776   2.996   8.403   4.451 -0.4673 -0.0583  0.3587
  888MOL0     C19777   2.891   8.490   4.458 -0.1013 -0.2808 -0.6962
  888MOL0     C19778   2.889   8.602   4.376  0.4993 -1.2296 -0.0219
  888MOL0     C19779   2.776   8.687   4.378 -0.6811  0.5546 -0.5997
  888MOL0     C19780   2.668   8.665   4.461  0.5992  0.7535 -0.4335
  888MOL0     O19781   2.567   8.754   4.456  0.2155 -0.0901  0.0582
  888MOL0     C19782   2.499   8.770   4.578 -0.0545 -0.0929  0.0073
  888MOL0     C19783   2.409   8.895   4.559 -0.2905 -0.2036  0.4894
  888MOL0     C19784   2.328   8.924   4.681  0.9062 -0.0237 -0.4691
  888MOL0     C19785   2.227   9.044   4.660  0.5395  0.3170  0.1937
  888MOL0     C19786   2.152   9.077   4.794  0.1822 -0.1852  0.5612
  888MOL0     C19787   2.052   9.191   4.780 -0.0268 -1.2426 -1.3516
  888MOL0     C19788   2.005   9.255   4.914 -0.0391  0.3068 -0.4555
  888MOL0     C19789   1.953   9.150   5.009  0.1141  0.9476  0.2900
  888MOL0    Cl19790   1.877   9.219   5.154  0.2852 -0.0146 -0.1744
  888MOL0     C19791   2.677   8.555   4.549 -0.0365 -0.4462 -0.5724
  888MOL0     C19792   2.790   8.472   4.545  0.0569  0.0056 -0.8135
  888MOL0     O19793   3.013   8.378   4.224  0.4823  0.0321  0.6134
  888MOL0     C19794   3.151   8.199   4.489  0.4114 -0.8586 -0.0322
  888MOL0     C19795   3.241   8.100   4.526 -0.5543 -0.2072  0.5465
  888MOL0     N19796   3.985   7.904   4.662 -0.3569  0.4013  0.0351
  888MOL0     N19797   4.096   7.907   4.608 -0.2495  0.3155  0.3281
  888MOL0     C19798   4.858   8.288   4.374  0.0478 -0.3092 -0.1066
  888MOL0     C19799   5.000   8.274   4.372 -0.1747  0.1708  0.2677
  888MOL0     C19800   5.441   8.418   4.237  0.8915  0.0473  0.2076
  888MOL0     C19801   5.514   8.489   4.138 -0.4480  0.0280 -0.3444
  888MOL0     C19802   5.646   8.532   4.159  0.0588 -0.2060  0.2344
  888MOL0     C19803   5.711   8.497   4.278 -0.0576 -0.4231 -0.6089
  888MOL0     O19804   5.840   8.535   4.290 -0.0367 -0.1547 -0.2007
  888MOL0     C19805   5.920   8.453   4.381  0.0664 -0.3949 -1.0441
  888MOL0     C19806   6.055   8.415   4.310 -0.0060  0.7094  0.2600
  888MOL0     C19807   6.121   8.528   4.245  0.2676 -0.5179  0.3475
  888MOL0     C19808   6.272   8.518   4.213 -0.2787  0.2967 -0.1177
  888MOL0     C19809   6.370   8.546   4.320  0.4622  0.6071 -0.0471
  888MOL0     C19810   6.429   8.583   4.419  0.3497 -0.6212  0.3918
  888MOL0     C19811   5.639   8.410   4.371  0.7926 -0.7589  0.1248
  888MOL0     C19812   5.504   8.382   4.358 -0.1337  0.1897 -0.4317
  888MOL0     H19813   5.083   8.591   4.282  0.3811 -0.0362 -5.6715
  888MOL0     H19814   4.852   8.617   4.294  1.3895  0.8977  0.0272
  888MOL0     H19815   4.633   8.614   4.410 -0.2794  0.2059 -0.1054
  888MOL0     H19816   4.607   8.563   4.230 -0.7303 -0.2380  0.2058
  888MOL0     H19817   4.446   8.531   4.474  0.5160  0.7545 -0.1662
  888MOL0     H19818   4.398   8.611   4.324  0.0550  0.2121  0.1914
  888MOL0     H19819   4.435   8.353   4.224 -1.2597 -1.0607 -0.1535
  888MOL0     H19820   4.430   8.302   4.386 -2.0173  1.6672  2.6238
  888MOL0     H19821   4.194   8.387   4.420 -0.5554  0.6521  0.0869
  888MOL0     H19822   4.191   8.466   4.265  1.9363  1.5201 -0.0831
  888MOL0     H19823   4.082   8.236   4.249  0.3492 -0.1417 -2.3361
  888MOL0     H19824   4.217   8.233   4.156 -1.5139  3.5940 -1.0456
  888MOL0     H19825   4.349   8.110   4.347  0.1315 -0.2298  2.0096
  888MOL0     H19826   4.213   8.129   4.453 -2.9554 -1.0793 -0.7894
  888MOL0     H19827   4.065   8.024   4.278 -0.3040 -0.0423  1.6519
  888MOL0     H19828   4.220   7.976   4.189  2.1338 -3.3894  1.6554
  888MOL0     H19829   4.277   7.846   4.414 -1.5499 -1.3699  3.0456
  888MOL0     H19830   4.146   7.781   4.305 -0.0561 -0.3258  0.7291
  888MOL0     H19831   3.925   7.802   4.356  0.8731  1.1327 -0.7444
  888MOL0     H19832   3.698   7.787   4.511  1.6498  0.0503 -0.3299
  888MOL0     H19833   3.726   7.789   4.683  0.3799 -0.5428  0.4874
  888MOL0     H19834   3.658   8.032   4.503 -2.4711  1.2646  0.3933
  888MOL0     H19835   3.727   8.050   4.668  2.6732 -1.9464 -0.8074
  888MOL0     H19836   3.476   8.057   4.680 -0.6734 -1.0162 -0.2048
  888MOL0     H19837   3.541   7.911   4.760 -0.5287 -0.9665 -0.4358
  888MOL0     H19838   3.323   7.868   4.625 -0.2302  0.9914  0.0201
  888MOL0     H19839   3.454   7.778   4.576  1.2718  0.0411  0.4686
  888MOL0     H19840   3.439   8.103   4.249  0.5567  0.3502 -0.6513
  888MOL0     H19841   3.371   8.259   4.087 -0.6946 -1.2590 -0.2571
  888MOL0     H19842   3.202   8.329   4.077 -1.7797  2.6336  2.8394
  888MOL0     H19843   3.317   8.396   4.188  2.2665 -0.0882 -0.1718
  888MOL0     H19844   2.977   8.636   4.321 -0.0887 -0.4797 -0.5364
  888MOL0     H19845   2.767   8.764   4.302  0.9300  0.8350 -0.5370
  888MOL0     H19846   2.452   8.678   4.613 -0.1859 -0.4885 -1.1681
  888MOL0     H19847   2.563   8.812   4.656  1.6095 -0.2389 -1.2235
  888MOL0     H19848   2.472   8.982   4.536  0.3302 -0.8891 -0.4550
  888MOL0     H19849   2.350   8.866   4.471  2.6793 -2.8241 -0.8010
  888MOL0     H19850   2.388   8.947   4.770 -1.2457  0.3615  0.9672
  888MOL0     H19851   2.264   8.839   4.707 -3.5007  2.7739 -1.0704
  888MOL0     H19852   2.284   9.133   4.633  0.7610  0.2970  0.5820
  888MOL0     H19853   2.159   9.012   4.581  1.8824  0.1654 -0.9247
  888MOL0     H19854   2.228   9.105   4.868  1.0541  0.3717 -0.5240
  888MOL0     H19855   2.097   8.994   4.839 -2.2535  1.0664  0.0459
  888MOL0     H19856   2.090   9.280   4.728 -1.0164  0.9553  1.4479
  888MOL0     H19857   1.967   9.156   4.721 -1.6441  0.1257  0.0607
  888MOL0     H19858   1.922   9.321   4.890 -0.1149  1.6134  2.7904
  888MOL0     H19859   2.086   9.314   4.957  1.7197 -1.3274 -1.3595
  888MOL0     H19860   2.036   9.085   5.038  1.4065  1.4543 -1.9827
  888MOL0     H19861   1.875   9.095   4.955 -1.9509  4.5986 -0.7627
  888MOL0     H19862   2.606   8.539   4.629  0.6022  1.3156  0.4080
  888MOL0     H19863   2.793   8.390   4.616 -0.8412 -0.5876 -1.4346
  888MOL0     H19864   3.083   8.232   4.567  1.9712  1.7457  0.3587
  888MOL0     H19865   3.226   8.053   4.623  1.0172 -4.1773 -0.9364
  888MOL0     H19866   4.806   8.199   4.407 -3.1122 -0.0456 -3.7605
  888MOL0     H19867   5.048   8.178   4.391  1.5620  0.6903 -1.1854
  888MOL0     H19868   5.466   8.517   4.045  0.3516 -1.0120 -1.0939
  888MOL0     H19869   5.686   8.606   4.090 -0.2816  2.0311  2.2964
  888MOL0     H19870   5.932   8.504   4.477 -1.8058 -1.5767 -0.1189
  888MOL0     H19871   5.875   8.366   4.429 -0.8563  2.3799  3.7500
  888MOL0     H19872   6.039   8.337   4.235  1.2010 -2.2582  2.8494
  888MOL0     H19873   6.131   8.383   4.383  1.1435  1.8829 -0.3785
  888MOL0     H19874   6.112   8.623   4.298 -1.6142 -0.1321 -0.5760
  888MOL0     H19875   6.058   8.542   4.157 -0.9244 -0.0347  1.2388
  888MOL0     H19876   6.289   8.582   4.126 -0.1510 -1.2622 -1.2889
  888MOL0     H19877   6.291   8.416   4.178  1.1236  1.6149 -3.6767
  888MOL0     H19878   6.485   8.623   4.500  1.2025  1.4580 -1.1559
  888MOL0     H19879   5.682   8.368   4.461  1.3874 -0.7579 -0.1497
  888MOL0     H19880   5.459   8.316   4.431  2.6037 -1.7720 -0.3326
  889MOL0     O19881   5.082   7.565   8.685 -0.4746 -0.4197 -0.2341
  889MOL0     C19882   5.125   7.528   8.800 -0.2483 -0.2096  0.5350
  889MOL0     O19883   5.053   7.538   8.916  0.1592  0.9099  0.6863
  889MOL0     C19884   4.914   7.566   8.931  0.4459 -0.0556  0.0725
  889MOL0     C19885   4.812   7.568   8.827 -0.2509 -0.2777 -0.1163
  889MOL0     C19886   4.678   7.601   8.857  0.0036  0.1623 -0.5404
  889MOL0     C19887   4.644   7.639   8.987  0.7551 -0.6243  0.7272
  889MOL0     O19888   4.522   7.676   9.028  0.0595  0.0717  0.1323
  889MOL0     C19889   4.426   7.710   8.923 -0.1830 -0.2606  0.5700
  889MOL0     C19890   4.307   7.772   8.985  0.0424  0.5390 -0.3878
  889MOL0     C19891   4.344   7.906   9.062 -0.3372  0.0776 -0.8201
  889MOL0     C19892   4.225   7.973   9.125 -0.3767 -0.3601 -1.1319
  889MOL0     C19893   4.272   8.106   9.188  0.0391 -0.4671  0.9550
  889MOL0     C19894   4.166   8.200   9.246  0.7498 -0.5420  0.0433
  889MOL0     C19895   4.220   8.342   9.288  1.0828  0.4980 -0.1989
  889MOL0     C19896   4.110   8.423   9.355 -0.0689  0.3763 -1.1597
  889MOL0     N19897   3.979   8.445   9.303 -0.4360  0.3298  0.2036
  889MOL0     C19898   3.957   8.460   9.170  0.0213  0.8659  0.7366
  889MOL0     C19899   3.834   8.520   9.162  0.4230 -0.6736 -0.0622
  889MOL0     C19900   3.760   8.549   9.027 -0.2187  0.1481  0.4137
  889MOL0     C19901   3.627   8.493   9.011 -0.2285  0.1894  0.3478
  889MOL0     C19902   3.511   8.589   9.049 -1.2431  0.4755  0.1449
  889MOL0     C19903   3.475   8.691   8.941  0.1638 -0.3491  0.6762
  889MOL0     O19904   3.379   8.773   9.000 -0.0639 -0.0232  0.0926
  889MOL0     C19905   3.241   8.736   9.002 -0.0544  1.3251  0.7044
  889MOL0     C19906   3.190   8.615   8.935 -0.3875 -0.4618 -0.4461
  889MOL0     C19907   3.061   8.573   8.933  0.1104 -0.6982  0.0535
  889MOL0     C19908   3.027   8.453   8.848 -0.1568  0.4838  0.3420
  889MOL0     C19909   2.973   8.656   9.003 -0.3932  0.2182  0.3088
  889MOL0     C19910   2.827   8.632   8.987  1.0370 -0.2636 -0.0827
  889MOL0     O19911   2.782   8.573   8.875 -0.3286  0.3515 -0.1088
  889MOL0     C19912   2.652   8.532   8.861  0.7158  0.1920  0.7716
  889MOL0     C19913   2.631   8.432   8.761  0.2982  0.1415  0.1019
  889MOL0     C19914   2.513   8.359   8.740  0.3895 -0.2958  0.2906
  889MOL0     C19915   2.398   8.407   8.814 -0.5309 -0.6541 -0.6017
  889MOL0     O19916   2.278   8.337   8.797 -0.6560 -0.3666  0.3160
  889MOL0     C19917   2.248   8.254   8.905  0.1745  0.7397 -0.1954
  889MOL0     C19918   2.105   8.189   8.881  0.2167 -0.2954 -0.6007
  889MOL0     C19919   2.013   8.299   8.830 -0.0539 -0.0496 -0.4054
  889MOL0     C19920   1.873   8.239   8.858  0.1809 -0.5600  0.0464
  889MOL0     C19921   1.832   8.115   8.771  0.0536  0.3180  0.4794
  889MOL0     C19922   1.839   8.145   8.616  0.0101 -0.1735  0.0615
  889MOL0     C19923   1.798   8.013   8.552 -0.3477 -0.4336  0.3881
  889MOL0     C19924   1.820   8.002   8.409 -0.1578  0.7470  0.0738
  889MOL0    Cl19925   1.994   7.987   8.384  0.2412 -0.6367  0.1809
  889MOL0     C19926   2.412   8.522   8.899 -0.8922 -0.1354  0.1338
  889MOL0     C19927   2.538   8.579   8.921  0.1635  0.2498 -0.4609
  889MOL0     O19928   2.758   8.686   9.082  0.0487 -0.1712  0.1447
  889MOL0     C19929   3.014   8.767   9.078 -0.3042  0.3202 -0.1911
  889MOL0     C19930   3.152   8.804   9.072  0.9053 -1.0462 -0.8291
  889MOL0     N19931   3.782   8.526   9.289 -0.7705  0.0862  0.6006
  889MOL0     N19932   3.869   8.483   9.371 -0.5143  0.3655 -0.9979
  889MOL0     C19933   4.744   7.646   9.083  0.4608  0.3565 -1.5755
  889MOL0     C19934   4.873   7.608   9.052 -0.3303  0.2137  0.0601
  889MOL0     C19935   5.273   7.485   8.823  0.3543  0.1048  0.0865
  889MOL0     C19936   5.306   7.441   8.948  0.1628  0.2563  0.1098
  889MOL0     C19937   5.436   7.403   8.977  0.3156  0.2149 -0.1803
  889MOL0     C19938   5.529   7.391   8.870 -0.9157  0.3912 -0.4816
  889MOL0     O19939   5.657   7.353   8.890 -0.1864  0.4048 -0.1082
  889MOL0     C19940   5.701   7.327   9.029  1.0460  0.0322  0.9227
  889MOL0     C19941   5.856   7.281   9.043 -0.3087 -0.0062  1.3961
  889MOL0     C19942   5.948   7.369   8.948 -0.0841  0.7172 -0.1908
  889MOL0     C19943   6.091   7.312   8.927  0.5688  0.0802  1.0293
  889MOL0     C19944   6.157   7.381   8.827 -0.5344  0.5542  0.6885
  889MOL0     C19945   6.208   7.430   8.725 -0.3844  0.5596  0.3314
  889MOL0     C19946   5.493   7.439   8.746 -0.3420 -0.6576  0.4429
  889MOL0     C19947   5.360   7.482   8.723 -1.0891  0.6820  0.0199
  889MOL0     H19948   4.834   7.546   8.723 -0.0276 -2.0205  0.2636
  889MOL0     H19949   4.605   7.603   8.777 -0.5570  0.6860 -0.0262
  889MOL0     H19950   4.461   7.778   8.845  0.0753  0.5241  1.3547
  889MOL0     H19951   4.397   7.618   8.872  0.8194  0.2491 -0.9855
  889MOL0     H19952   4.235   7.790   8.905 -4.4377  1.5018  3.4361
  889MOL0     H19953   4.263   7.700   9.054  0.5873  2.6117  2.3027
  889MOL0     H19954   4.419   7.881   9.138 -0.3951  1.6974 -0.1926
  889MOL0     H19955   4.397   7.985   9.007 -1.8250  0.6371 -1.4862
  889MOL0     H19956   4.145   7.998   9.055 -1.4370 -0.6505 -0.0609
  889MOL0     H19957   4.180   7.907   9.199 -2.8094  0.5859 -1.6657
  889MOL0     H19958   4.350   8.091   9.263  1.2156 -0.2037 -0.1729
  889MOL0     H19959   4.320   8.164   9.108 -0.7419 -0.7968  0.2253
  889MOL0     H19960   4.082   8.222   9.178 -0.2428  1.3725  1.7629
  889MOL0     H19961   4.114   8.158   9.333 -0.2810  2.2941  0.9271
  889MOL0     H19962   4.301   8.328   9.360  1.3244 -0.6811 -0.6800
  889MOL0     H19963   4.271   8.399   9.210  1.2038  1.3393  0.4683
  889MOL0     H19964   4.159   8.520   9.370 -1.7646  1.8348 -4.1068
  889MOL0     H19965   4.100   8.381   9.455 -1.5053  1.2309 -0.9123
  889MOL0     H19966   4.027   8.439   9.090 -0.8991  0.8921 -0.1037
  889MOL0     H19967   3.762   8.656   9.004  0.3093 -0.1954 -1.2705
  889MOL0     H19968   3.816   8.507   8.943 -1.1470 -0.6957  0.2007
  889MOL0     H19969   3.628   8.402   9.071  1.6758 -0.2694 -0.3170
  889MOL0     H19970   3.620   8.473   8.904 -2.1620 -0.0140  0.4714
  889MOL0     H19971   3.545   8.643   9.138  0.1126 -2.0841  1.3061
  889MOL0     H19972   3.421   8.539   9.086 -1.0226  0.8562  1.2438
  889MOL0     H19973   3.442   8.643   8.848 -1.7455 -1.6844  1.9468
  889MOL0     H19974   3.568   8.746   8.926 -0.1581 -0.2179 -1.1078
  889MOL0     H19975   3.260   8.549   8.885 -1.9180 -2.4435 -0.1124
  889MOL0     H19976   2.956   8.382   8.892  0.8388 -0.8134 -0.0644
  889MOL0     H19977   2.978   8.489   8.757 -0.6930 -1.3007 -0.1194
  889MOL0     H19978   3.108   8.390   8.808 -1.3311  1.2964 -3.7886
  889MOL0     H19979   2.716   8.391   8.707  1.2989  0.6327  1.2509
  889MOL0     H19980   2.497   8.269   8.682  0.1058  1.1524 -2.0137
  889MOL0     H19981   2.327   8.179   8.917  0.4883  1.1762  0.5278
  889MOL0     H19982   2.239   8.310   8.999 -1.7782 -1.8620  1.3089
  889MOL0     H19983   2.118   8.112   8.804  3.7937  2.3314 -2.9773
  889MOL0     H19984   2.066   8.149   8.975 -1.5109  0.3793 -1.0042
  889MOL0     H19985   2.030   8.319   8.724 -1.2663 -1.8110 -0.9971
  889MOL0     H19986   2.034   8.385   8.894  0.3873 -2.5050  3.0235
  889MOL0     H19987   1.853   8.221   8.964 -0.5145  2.6869  0.5861
  889MOL0     H19988   1.800   8.318   8.839 -1.0112 -1.7843 -0.5854
  889MOL0     H19989   1.730   8.085   8.797 -0.4294 -1.4206 -2.9062
  889MOL0     H19990   1.892   8.032   8.810 -4.5530 -5.3927 -2.9908
  889MOL0     H19991   1.764   8.220   8.592  0.8193  0.3481 -0.9530
  889MOL0     H19992   1.941   8.177   8.591 -0.0488 -0.0896 -0.0692
  889MOL0     H19993   1.689   8.014   8.559 -0.5259  2.7201 -1.3770
  889MOL0     H19994   1.829   7.919   8.598 -0.7453 -2.0107 -2.3792
  889MOL0     H19995   1.781   8.092   8.361  0.6575  0.8614 -0.3929
  889MOL0     H19996   1.772   7.913   8.366  1.2478 -1.1958  2.2730
  889MOL0     H19997   2.314   8.550   8.937 -0.9302 -0.1402  0.0406
  889MOL0     H19998   2.548   8.662   8.990 -4.2955  0.8455 -0.2359
  889MOL0     H19999   2.941   8.822   9.137 -0.4984 -2.0956  1.9655
  889MOL0     H20000   3.182   8.888   9.134 -0.4945 -0.4361 -0.9202
  889MOL0     H20001   4.723   7.665   9.187  0.5414  0.0118 -1.4949
  889MOL0     H20002   4.940   7.605   9.138 -0.9779 -0.4408  0.5508
  889MOL0     H20003   5.234   7.436   9.029  1.5692  0.6702  1.4246
  889MOL0     H20004   5.469   7.372   9.076  2.0590  1.0224 -0.4629
  889MOL0     H20005   5.695   7.418   9.090 -2.4513 -0.1762  1.0514
  889MOL0     H20006   5.645   7.255   9.089 -0.9806 -1.4468 -2.4794
  889MOL0     H20007   5.860   7.181   8.999 -2.1903  1.1672 -1.7823
  889MOL0     H20008   5.891   7.293   9.146  1.6078  1.0361  0.6667
  889MOL0     H20009   5.950   7.470   8.989 -3.0597  0.5915  0.4638
  889MOL0     H20010   5.898   7.370   8.850 -0.5496 -0.6272  0.0140
  889MOL0     H20011   6.092   7.209   8.890  1.7636  0.7424 -0.9815
  889MOL0     H20012   6.148   7.323   9.019 -0.4373 -2.5032  2.0432
  889MOL0     H20013   6.244   7.494   8.647 -4.5202  0.4394 -1.9625
  889MOL0     H20014   5.558   7.442   8.659 -0.2197  0.1836  0.5566
  889MOL0     H20015   5.337   7.495   8.617  0.3814 -1.4087 -0.6324
  890MOL0     O20016   4.384   1.515   7.943 -0.0890  0.4829 -1.0615
  890MOL0     C20017   4.491   1.554   7.999  0.6242  0.5830  0.3212
  890MOL0     O20018   4.490   1.619   8.116 -0.1142  0.3389 -0.6710
  890MOL0     C20019   4.375   1.642   8.177 -0.1091  1.0684 -0.1756
  890MOL0     C20020   4.340   1.564   8.281 -0.2868  0.0763 -0.0134
  890MOL0     C20021   4.214   1.576   8.330 -0.3713  0.8224  0.0824
  890MOL0     C20022   4.130   1.683   8.288  0.1462 -0.4092  0.7896
  890MOL0     O20023   4.021   1.733   8.349  0.0399  0.4729 -0.4941
  890MOL0     C20024   3.942   1.652   8.430  0.7675 -0.7940 -0.2875
  890MOL0     C20025   3.805   1.707   8.415 -0.4526 -0.1753  0.3882
  890MOL0     C20026   3.695   1.616   8.472  0.1751  0.2186 -0.2973
  890MOL0     C20027   3.551   1.666   8.445 -0.4290  0.2812  0.0678
  890MOL0     C20028   3.501   1.762   8.557 -0.3432  0.5671 -0.2792
  890MOL0     C20029   3.360   1.811   8.526  0.2603  0.8748 -0.1437
  890MOL0     C20030   3.312   1.932   8.608  0.2064  0.1995  0.0259
  890MOL0     C20031   3.261   1.883   8.745  0.6992  0.5654  0.6544
  890MOL0     N20032   3.127   1.818   8.728  0.3469 -0.2847  0.3259
  890MOL0     C20033   3.009   1.883   8.726 -0.0264  0.2420 -0.0936
  890MOL0     C20034   2.917   1.788   8.708  0.2769 -0.4031  0.5313
  890MOL0     C20035   2.768   1.810   8.680  0.3784 -0.6106 -0.2561
  890MOL0     C20036   2.702   1.941   8.726 -0.6289  0.8421 -0.5737
  890MOL0     C20037   2.553   1.924   8.699  0.1675 -0.6685  0.2719
  890MOL0     C20038   2.468   2.053   8.728  0.0011  0.3940  0.0548
  890MOL0     O20039   2.498   2.128   8.615 -0.7922  0.1425 -0.2375
  890MOL0     C20040   2.395   2.138   8.525 -0.3447  0.1034 -1.4088
  890MOL0     C20041   2.415   2.121   8.390  0.3129 -0.0556 -0.5976
  890MOL0     C20042   2.317   2.150   8.297 -0.1710 -0.0996 -0.0266
  890MOL0     C20043   2.362   2.140   8.160  0.2049 -0.2257 -0.3977
  890MOL0     C20044   2.189   2.161   8.347  0.4730 -0.3592  0.2386
  890MOL0     C20045   2.066   2.153   8.265  0.1603 -0.4092  0.4739
  890MOL0     O20046   1.943   2.180   8.324  0.2232 -0.6205  0.3306
  890MOL0     C20047   1.843   2.230   8.242 -1.1756  0.5893  0.0840
  890MOL0     C20048   1.736   2.147   8.205  0.2267  0.2333 -0.3179
  890MOL0     C20049   1.621   2.201   8.136 -0.0255  0.0151  0.0453
  890MOL0     C20050   1.619   2.340   8.103  0.2345  0.6676  0.0495
  890MOL0     O20051   1.496   2.379   8.057  0.2829  0.4294  0.5490
  890MOL0     C20052   1.509   2.458   7.937  0.9212 -0.3053 -0.0940
  890MOL0     C20053   1.377   2.469   7.863 -0.6476  0.7517  0.4172
  890MOL0     C20054   1.315   2.340   7.805 -0.1904 -0.9125 -0.6156
  890MOL0     C20055   1.399   2.287   7.684 -0.5558 -1.4728 -0.5244
  890MOL0     C20056   1.350   2.148   7.643 -0.5596 -0.6983 -0.4542
  890MOL0     C20057   1.217   2.148   7.559 -0.5921 -0.0469  0.3195
  890MOL0     C20058   1.138   2.029   7.597  0.1179 -0.0534 -0.1756
  890MOL0     C20059   0.986   2.039   7.557  0.1953  0.1376 -0.0991
  890MOL0    Cl20060   0.975   2.066   7.383 -0.2560  0.0273 -0.2270
  890MOL0     C20061   1.728   2.420   8.121 -0.3890  0.1826 -0.2484
  890MOL0     C20062   1.843   2.361   8.188  0.1057  0.5071  0.0183
  890MOL0     O20063   2.081   2.123   8.145  0.2654  0.6229  0.6939
  890MOL0     C20064   2.165   2.173   8.482 -0.2279 -0.3403 -0.7668
  890MOL0     C20065   2.265   2.166   8.567 -0.5024 -0.5418 -0.8729
  890MOL0     N20066   2.981   1.669   8.713  0.3560  0.0010 -0.1662
  890MOL0     N20067   3.104   1.686   8.733  0.1389 -0.0788  0.1212
  890MOL0     C20068   4.170   1.767   8.181  0.6112 -0.1837  0.1037
  890MOL0     C20069   4.291   1.738   8.122 -0.2814 -0.1674  0.0395
  890MOL0     C20070   4.615   1.545   7.923 -0.0212 -0.4529 -0.6953
  890MOL0     C20071   4.614   1.492   7.792 -0.1526  0.2881 -0.3111
  890MOL0     C20072   4.736   1.503   7.722  0.4329  0.3432  0.8004
  890MOL0     C20073   4.853   1.529   7.785 -0.2102 -0.3947  0.4958
  890MOL0     O20074   4.976   1.502   7.717  0.0726  0.5814  0.1324
  890MOL0     C20075   5.095   1.492   7.795 -0.0828 -0.5975 -0.8439
  890MOL0     C20076   5.220   1.441   7.717 -0.2860 -0.2793 -1.9980
  890MOL0     C20077   5.271   1.551   7.620  0.4583  0.2443  0.2811
  890MOL0     C20078   5.410   1.517   7.563 -0.5282  0.7403 -0.7960
  890MOL0     C20079   5.471   1.635   7.503  0.1351  0.4240 -0.2332
  890MOL0     C20080   5.538   1.720   7.448  0.0806  0.6421 -0.0606
  890MOL0     C20081   4.853   1.580   7.915  0.8998 -0.7143 -0.1284
  890MOL0     C20082   4.733   1.586   7.986  0.0238  0.0770 -0.4582
  890MOL0     H20083   4.421   1.505   8.324 -0.0337 -1.1340 -2.0511
  890MOL0     H20084   4.179   1.508   8.408  1.7562 -1.0902 -0.4889
  890MOL0     H20085   3.950   1.546   8.407  3.3989 -1.2273  2.0186
  890MOL0     H20086   3.984   1.662   8.531  0.8299  0.7097 -0.4416
  890MOL0     H20087   3.792   1.811   8.446 -1.9563 -0.4267  0.6707
  890MOL0     H20088   3.793   1.713   8.306 -0.4843  0.4794  0.4213
  890MOL0     H20089   3.701   1.512   8.437  1.9293  0.2252 -0.1072
  890MOL0     H20090   3.712   1.608   8.579  0.5258  1.9501 -0.1969
  890MOL0     H20091   3.534   1.706   8.344 -0.5538  2.2947  0.8454
  890MOL0     H20092   3.488   1.577   8.449 -1.8015  1.2150  0.1621
  890MOL0     H20093   3.516   1.711   8.652  1.2869  2.4410  0.5381
  890MOL0     H20094   3.569   1.844   8.583 -0.4101  0.3570  0.5845
  890MOL0     H20095   3.349   1.832   8.419  0.1406  1.9671  0.0658
  890MOL0     H20096   3.290   1.728   8.538  0.1215  0.7724 -1.5040
  890MOL0     H20097   3.398   1.998   8.626 -0.1162  1.2805 -2.1866
  890MOL0     H20098   3.228   1.990   8.570 -0.0924 -0.6843 -0.6876
  890MOL0     H20099   3.266   1.956   8.826  0.2117 -0.8036  1.9707
  890MOL0     H20100   3.331   1.804   8.774 -0.3475 -1.2982 -1.4753
  890MOL0     H20101   2.991   1.990   8.723 -0.3231  0.1768 -2.0862
  890MOL0     H20102   2.753   1.804   8.572  2.8653  0.5620 -0.7411
  890MOL0     H20103   2.716   1.726   8.727 -0.3013 -1.0437 -1.7500
  890MOL0     H20104   2.741   2.024   8.668  0.3879  0.9466  0.2217
  890MOL0     H20105   2.721   1.954   8.833 -2.6968 -0.9762  0.0981
  890MOL0     H20106   2.516   1.846   8.766 -3.4356  0.4504 -0.2058
  890MOL0     H20107   2.530   1.894   8.597 -0.6774  1.5817 -0.2613
  890MOL0     H20108   2.484   2.105   8.823 -1.2960 -2.8432  2.2275
  890MOL0     H20109   2.366   2.013   8.734  0.1587  0.0028  0.1504
  890MOL0     H20110   2.517   2.091   8.365 -0.3373 -2.4037 -0.7231
  890MOL0     H20111   2.472   2.146   8.165  0.0949  1.0958  1.7136
  890MOL0     H20112   2.335   2.043   8.117  0.0908 -0.7001  0.7141
  890MOL0     H20113   2.319   2.212   8.090 -0.8036  0.4421  0.8582
  890MOL0     H20114   1.737   2.050   8.254  0.3317  0.4103  0.0322
  890MOL0     H20115   1.540   2.135   8.107  1.3377 -1.5421 -0.4383
  890MOL0     H20116   1.531   2.559   7.973  0.3868 -0.9403  2.1863
  890MOL0     H20117   1.588   2.432   7.866 -1.6561 -1.3157 -2.7634
  890MOL0     H20118   1.305   2.514   7.933  0.0065 -1.1596  2.4261
  890MOL0     H20119   1.398   2.525   7.772 -0.1931 -1.5814 -0.9949
  890MOL0     H20120   1.214   2.360   7.768  1.1142  1.7068 -3.1989
  890MOL0     H20121   1.313   2.268   7.887 -0.1155 -0.3399 -0.1007
  890MOL0     H20122   1.382   2.354   7.599 -1.2083 -1.9121 -0.7527
  890MOL0     H20123   1.507   2.285   7.697 -0.4602 -0.5503 -1.0839
  890MOL0     H20124   1.343   2.100   7.741  1.5240 -2.6069 -1.1363
  890MOL0     H20125   1.419   2.092   7.579 -0.9182 -3.9061  1.7453
  890MOL0     H20126   1.154   2.237   7.567 -4.5630 -2.5574 -0.1975
  890MOL0     H20127   1.246   2.151   7.454  1.1321  2.8174  0.7668
  890MOL0     H20128   1.144   2.017   7.706 -1.3504 -0.0852 -0.0761
  890MOL0     H20129   1.176   1.939   7.549 -0.4130  0.9784 -2.6899
  890MOL0     H20130   0.935   2.118   7.613  0.4707 -1.2759  2.3037
  890MOL0     H20131   0.931   1.947   7.581 -0.4164  0.3637 -0.5855
  890MOL0     H20132   1.724   2.525   8.094  0.5666  1.1510  2.9089
  890MOL0     H20133   1.927   2.429   8.203  0.6271 -0.5187  2.1197
  890MOL0     H20134   2.065   2.188   8.520 -0.8830  1.3229 -2.9120
  890MOL0     H20135   2.253   2.189   8.673  1.4665  2.1869 -1.1230
  890MOL0     H20136   4.111   1.855   8.159  2.6464  1.3488  0.4688
  890MOL0     H20137   4.322   1.804   8.042 -1.4089  0.9844  0.5197
  890MOL0     H20138   4.530   1.453   7.736 -0.3835 -1.3106  1.0686
  890MOL0     H20139   4.753   1.466   7.622 -0.0208  0.6824  0.5961
  890MOL0     H20140   5.124   1.586   7.844  0.7252 -0.5160 -1.4343
  890MOL0     H20141   5.082   1.429   7.883  2.3605  2.4846  2.0362
  890MOL0     H20142   5.193   1.349   7.666 -3.2167  0.9517 -2.9161
  890MOL0     H20143   5.295   1.430   7.796 -1.0000  0.6843 -1.1601
  890MOL0     H20144   5.282   1.646   7.673  2.1341  2.3939 -3.5312
  890MOL0     H20145   5.209   1.576   7.533  0.0600  1.1750  0.8073
  890MOL0     H20146   5.411   1.442   7.483  1.4777  0.9867 -1.0314
  890MOL0     H20147   5.476   1.479   7.641  0.8201  2.0446 -1.2628
  890MOL0     H20148   5.610   1.789   7.410  1.3735 -1.6000 -1.9521
  890MOL0     H20149   4.946   1.593   7.970  0.4427 -2.2334  1.0518
  890MOL0     H20150   4.737   1.618   8.089 -0.2126 -4.2718  1.1130
  891MOL0     O20151   6.133   2.819   5.565 -0.4120 -1.1925 -0.2400
  891MOL0     C20152   6.094   2.753   5.471  0.2572  0.1331 -0.1583
  891MOL0     O20153   5.971   2.695   5.470  0.1466  0.3189  0.2113
  891MOL0     C20154   5.883   2.711   5.564 -0.9096  0.4664  0.1485
  891MOL0     C20155   5.844   2.836   5.614 -0.1916  1.4058 -0.6813
  891MOL0     C20156   5.759   2.840   5.732 -0.0793 -1.2477 -0.1373
  891MOL0     C20157   5.699   2.723   5.785 -0.0566 -0.2053 -0.1817
  891MOL0     O20158   5.614   2.730   5.892  0.1716  0.6614 -0.2077
  891MOL0     C20159   5.635   2.835   5.989  0.5581 -0.5996  0.9181
  891MOL0     C20160   5.573   2.801   6.124  0.3571  0.1244  0.2539
  891MOL0     C20161   5.423   2.781   6.114 -0.6479 -0.6338 -0.0433
  891MOL0     C20162   5.387   2.724   6.256  0.6255  0.3409 -0.5803
  891MOL0     C20163   5.236   2.713   6.251 -0.1604  0.0190  0.4750
  891MOL0     C20164   5.189   2.692   6.397 -0.9607 -0.1869  0.9387
  891MOL0     C20165   5.036   2.655   6.418  0.1402 -0.2998  0.2509
  891MOL0     C20166   4.939   2.776   6.407  0.5521 -0.3542  0.1638
  891MOL0     N20167   4.802   2.731   6.456 -0.0744 -0.3387  0.3400
  891MOL0     C20168   4.765   2.751   6.592  0.1754  0.7100  0.0424
  891MOL0     C20169   4.649   2.675   6.606  0.1660 -0.1583 -0.8530
  891MOL0     C20170   4.566   2.669   6.737 -0.0742 -0.2459  0.4417
  891MOL0     C20171   4.421   2.627   6.709 -0.4246  0.3575 -0.0025
  891MOL0     C20172   4.407   2.476   6.679  0.6373  0.7564  0.4789
  891MOL0     C20173   4.262   2.442   6.630 -0.3376 -0.7830 -0.6524
  891MOL0     O20174   4.171   2.435   6.747 -0.3345 -0.5421  0.5476
  891MOL0     C20175   4.042   2.399   6.718 -0.6633  0.2254  0.1669
  891MOL0     C20176   3.994   2.374   6.589 -0.0533 -0.5543 -0.6840
  891MOL0     C20177   3.858   2.337   6.581  0.0205  0.2735 -0.7826
  891MOL0     C20178   3.806   2.319   6.441  0.7937  0.1832  0.6435
  891MOL0     C20179   3.772   2.326   6.691  0.0510 -0.0744  0.2639
  891MOL0     C20180   3.624   2.291   6.687 -0.4635  0.1497  0.5801
  891MOL0     O20181   3.576   2.208   6.786  0.0248  0.5635  0.0389
  891MOL0     C20182   3.436   2.183   6.785 -0.0277 -0.5394  0.5049
  891MOL0     C20183   3.389   2.055   6.768  0.0943  0.3248  0.0508
  891MOL0     C20184   3.250   2.028   6.769  1.4142  0.4899 -0.6055
  891MOL0     C20185   3.151   2.132   6.793 -0.7448  1.2549  0.2253
  891MOL0     O20186   3.017   2.109   6.800  0.0007 -0.7641  0.6423
  891MOL0     C20187   2.945   2.014   6.723 -0.1532  0.3081 -0.1386
  891MOL0     C20188   2.793   2.058   6.715 -0.1316 -0.1147 -0.2487
  891MOL0     C20189   2.720   2.037   6.852 -1.0128 -0.4032  1.0835
  891MOL0     C20190   2.598   1.957   6.826  0.2564  0.3955 -0.4600
  891MOL0     C20191   2.527   1.930   6.955  0.6729  0.2101 -0.4936
  891MOL0     C20192   2.389   1.853   6.932 -0.3283 -0.0375  0.5701
  891MOL0     C20193   2.339   1.808   7.064 -0.1504 -0.6290 -0.4588
  891MOL0     C20194   2.228   1.698   7.061 -0.6153  0.0895 -0.1042
  891MOL0    Cl20195   2.094   1.774   6.965 -0.0754 -0.4310 -0.0028
  891MOL0     C20196   3.195   2.267   6.791 -0.3675 -0.3362 -1.1009
  891MOL0     C20197   3.336   2.290   6.785 -0.0163  0.1194 -0.1121
  891MOL0     O20198   3.551   2.340   6.601  0.4676  0.5316 -0.5337
  891MOL0     C20199   3.825   2.351   6.810 -0.2381 -0.3629 -0.2465
  891MOL0     C20200   3.959   2.382   6.830 -0.0829 -0.3539  0.7657
  891MOL0     N20201   4.620   2.613   6.486 -0.6512 -0.0811  0.9476
  891MOL0     N20202   4.710   2.654   6.395  0.3972  0.0559  0.3363
  891MOL0     C20203   5.720   2.603   5.713  0.1795  0.0511 -0.7552
  891MOL0     C20204   5.813   2.597   5.615  0.7919 -0.1618 -0.3220
  891MOL0     C20205   6.178   2.725   5.351  0.4546 -0.8766 -0.6879
  891MOL0     C20206   6.141   2.645   5.251 -0.2247 -0.7126  0.5224
  891MOL0     C20207   6.225   2.615   5.145  0.7884  0.2371 -0.7210
  891MOL0     C20208   6.359   2.654   5.152  0.0611 -0.1232 -0.2551
  891MOL0     O20209   6.432   2.615   5.042 -0.7249  0.3061  0.2636
  891MOL0     C20210   6.561   2.687   5.030 -0.5255  0.4413  0.5786
  891MOL0     C20211   6.612   2.715   4.888  0.4955 -0.4703 -0.2345
  891MOL0     C20212   6.610   2.593   4.794  0.1201 -0.0063  0.2993
  891MOL0     C20213   6.746   2.531   4.761  0.4588  0.3857  0.1289
  891MOL0     C20214   6.808   2.444   4.871 -1.0930  0.4186  0.0327
  891MOL0     C20215   6.868   2.378   4.956 -0.3734 -0.2202  0.1217
  891MOL0     C20216   6.403   2.734   5.265  0.4611  0.1026 -0.1618
  891MOL0     C20217   6.308   2.773   5.354  0.6609 -0.0971 -0.8434
  891MOL0     H20218   5.890   2.927   5.575 -2.7627  2.8584 -0.5338
  891MOL0     H20219   5.738   2.938   5.774 -0.6671 -0.4236 -2.2031
  891MOL0     H20220   5.740   2.857   6.008  0.5635 -1.0513  1.4294
  891MOL0     H20221   5.584   2.923   5.947 -2.5779 -2.0694  1.3169
  891MOL0     H20222   5.615   2.702   6.144 -0.1940 -0.9597 -3.1832
  891MOL0     H20223   5.594   2.876   6.201 -0.5857  0.9902 -0.2963
  891MOL0     H20224   5.376   2.880   6.105 -0.1459 -0.1884  1.7430
  891MOL0     H20225   5.394   2.723   6.027  1.0632 -0.6873 -0.6206
  891MOL0     H20226   5.434   2.626   6.265  0.8934  0.5182 -0.0611
  891MOL0     H20227   5.423   2.794   6.332  0.1302 -0.8022  0.7490
  891MOL0     H20228   5.189   2.808   6.225 -2.1250 -0.5956  1.5772
  891MOL0     H20229   5.209   2.633   6.182  1.9371 -0.3251 -0.0398
  891MOL0     H20230   5.244   2.605   6.435  1.0053  0.8864  0.6959
  891MOL0     H20231   5.219   2.783   6.450 -2.7829  2.3013 -1.9589
  891MOL0     H20232   5.008   2.582   6.342  0.0132 -0.2094  0.2095
  891MOL0     H20233   5.018   2.619   6.520 -1.5855  1.2948  0.5701
  891MOL0     H20234   4.935   2.818   6.306  1.8622 -2.3055 -0.7785
  891MOL0     H20235   4.975   2.853   6.476  0.0749 -0.4410  0.5122
  891MOL0     H20236   4.815   2.820   6.659  0.5265  1.3891 -0.9041
  891MOL0     H20237   4.621   2.604   6.805  0.5780 -0.2169 -0.0529
  891MOL0     H20238   4.573   2.772   6.775  0.2090  0.3457 -1.1242
  891MOL0     H20239   4.401   2.684   6.617  1.4136  1.7608  0.4124
  891MOL0     H20240   4.350   2.651   6.788 -0.4497  0.7034 -0.1280
  891MOL0     H20241   4.424   2.412   6.765 -1.2313 -1.2207 -0.5183
  891MOL0     H20242   4.476   2.445   6.600 -1.2775 -2.2235 -0.2070
  891MOL0     H20243   4.252   2.342   6.586 -2.1935 -0.4115 -1.1548
  891MOL0     H20244   4.232   2.516   6.556  0.0755  1.4019  1.2582
  891MOL0     H20245   4.062   2.382   6.505  0.9959  0.4549  0.2173
  891MOL0     H20246   3.805   2.212   6.417  0.0168  0.4777 -0.7530
  891MOL0     H20247   3.708   2.363   6.422  0.7943 -0.1680 -0.2103
  891MOL0     H20248   3.871   2.364   6.366  0.6835  0.4948  0.7349
  891MOL0     H20249   3.465   1.978   6.755 -0.5207 -0.1006 -1.2053
  891MOL0     H20250   3.233   1.921   6.770  1.5002  0.4760 -0.5648
  891MOL0     H20251   2.986   2.016   6.621  1.0655  0.7536  0.3428
  891MOL0     H20252   2.935   1.910   6.755  1.7167 -0.9161 -3.1085
  891MOL0     H20253   2.786   2.159   6.674  2.4740  1.1402  2.0584
  891MOL0     H20254   2.747   2.006   6.631  1.0225 -0.2885 -0.7943
  891MOL0     H20255   2.692   2.141   6.873 -5.6685 -0.8443 -1.3953
  891MOL0     H20256   2.782   1.996   6.931  2.2134  1.1771 -0.4291
  891MOL0     H20257   2.533   2.002   6.751  0.7316 -0.6365 -1.5360
  891MOL0     H20258   2.633   1.862   6.783  1.0008  1.0589 -1.3516
  891MOL0     H20259   2.500   2.026   6.999 -2.2414 -1.2685  1.2897
  891MOL0     H20260   2.589   1.868   7.021  0.3431 -0.3725 -0.7249
  891MOL0     H20261   2.313   1.905   6.874  1.0794  0.1480 -1.1992
  891MOL0     H20262   2.421   1.770   6.868 -1.5960  0.5776 -0.9225
  891MOL0     H20263   2.295   1.889   7.122  2.0783  0.9376 -0.8138
  891MOL0     H20264   2.414   1.761   7.129 -2.3556 -3.4975  0.2069
  891MOL0     H20265   2.203   1.665   7.162 -1.0253 -0.6458 -0.4384
  891MOL0     H20266   2.261   1.608   7.007 -2.0710  0.5030 -1.7646
  891MOL0     H20267   3.127   2.351   6.776 -0.1768  0.0223 -0.0507
  891MOL0     H20268   3.366   2.394   6.787 -2.4985  0.9347 -1.4873
  891MOL0     H20269   3.754   2.367   6.891  1.0174  0.0653  0.8033
  891MOL0     H20270   3.994   2.412   6.928 -1.1896 -0.1599  1.1136
  891MOL0     H20271   5.673   2.507   5.734  2.6753 -1.0489  0.1960
  891MOL0     H20272   5.839   2.499   5.576  0.7637 -0.2019 -0.2393
  891MOL0     H20273   6.043   2.600   5.254 -0.9928  0.8186 -0.1594
  891MOL0     H20274   6.185   2.545   5.073 -4.0430  1.5623  0.3021
  891MOL0     H20275   6.545   2.789   5.066  0.1755  0.9942 -0.6122
  891MOL0     H20276   6.644   2.634   5.077 -1.1721 -0.4611  0.7192
  891MOL0     H20277   6.714   2.754   4.899  0.3887 -0.0322 -0.7548
  891MOL0     H20278   6.552   2.794   4.842  2.0706  2.8169  2.8240
  891MOL0     H20279   6.561   2.621   4.700  2.6434  1.1464 -0.7899
  891MOL0     H20280   6.545   2.515   4.835  2.2119 -1.4650  1.0557
  891MOL0     H20281   6.821   2.607   4.737 -0.2558  0.4545 -2.1407
  891MOL0     H20282   6.742   2.468   4.672 -2.2186 -1.5769  1.4995
  891MOL0     H20283   6.923   2.318   5.026  0.1635  1.0172  0.7966
  891MOL0     H20284   6.501   2.782   5.268 -0.8261  2.9355 -0.2939
  891MOL0     H20285   6.326   2.853   5.425 -2.9690 -0.0034  0.1857
  892MOL0     O20286   6.013  10.928   6.203 -0.0195 -0.2643  0.2247
  892MOL0     C20287   6.065  11.037   6.186  0.7456  0.2584 -0.2045
  892MOL0     O20288   6.004  11.141   6.119 -0.3363  0.3002 -0.6597
  892MOL0     C20289   5.872  11.145   6.105 -1.0651  0.7556 -0.8782
  892MOL0     C20290   5.813  11.176   5.985  0.8399  0.6087  0.1683
  892MOL0     C20291   5.673  11.179   5.969  0.3891  0.0623 -1.1078
  892MOL0     C20292   5.591  11.148   6.079  0.8894  0.1580  0.3851
  892MOL0     O20293   5.451  11.159   6.059  0.5438  0.7029 -0.0994
  892MOL0     C20294   5.362  11.100   6.153  0.2388 -0.7644 -0.2082
  892MOL0     C20295   5.226  11.082   6.080 -0.0082  0.3592  0.2764
  892MOL0     C20296   5.124  10.987   6.137  0.4879  0.4120 -0.6050
  892MOL0     C20297   4.994  10.979   6.051  0.5052  0.0923 -0.1566
  892MOL0     C20298   4.880  10.911   6.130 -0.0221 -0.8315  0.4893
  892MOL0     C20299   4.743  10.938   6.066 -0.0974 -0.2491  0.4453
  892MOL0     C20300   4.689  11.076   6.111 -0.6110  0.5488 -0.7870
  892MOL0     C20301   4.581  11.144   6.030  0.6362 -0.1365  0.0385
  892MOL0     N20302   4.448  11.088   6.066  0.6476  0.2769  0.1571
  892MOL0     C20303   4.327  11.122   6.002 -0.4386  1.2252 -1.0631
  892MOL0     C20304   4.240  11.047   6.061 -0.9309  0.1502 -0.3892
  892MOL0     C20305   4.102  11.052   6.036 -0.5213  0.3893 -0.4688
  892MOL0     C20306   4.052  10.965   5.925  0.8338 -0.0943  0.1512
  892MOL0     C20307   3.902  10.948   5.940  0.6953 -0.1582 -0.1342
  892MOL0     C20308   3.839  10.842   5.849  0.8900  0.1415  0.5092
  892MOL0     O20309   3.710  10.797   5.908  0.1812  0.1099 -0.2055
  892MOL0     C20310   3.583  10.841   5.879  0.8052 -0.7326 -0.5185
  892MOL0     C20311   3.556  10.948   5.798 -0.3277 -1.0412 -0.4604
  892MOL0     C20312   3.420  10.982   5.773 -0.7809  0.0855  0.3462
  892MOL0     C20313   3.397  11.112   5.686  0.3183  0.4052  0.7201
  892MOL0     C20314   3.313  10.906   5.832  0.0159  0.1664  0.0831
  892MOL0     C20315   3.164  10.929   5.810  0.6814  0.2571 -0.2590
  892MOL0     O20316   3.135  11.007   5.704 -0.3199 -0.0857 -0.8009
  892MOL0     C20317   2.999  11.036   5.692 -0.3936 -0.6075 -0.0976
  892MOL0     C20318   2.931  10.949   5.610  0.3245  0.0471  0.1910
  892MOL0     C20319   2.798  10.976   5.578  0.6404 -0.5259  0.1211
  892MOL0     C20320   2.732  11.098   5.623  0.0429  0.1998  0.8415
  892MOL0     O20321   2.600  11.123   5.595 -0.3418 -0.2092 -0.8806
  892MOL0     C20322   2.522  11.031   5.519 -0.6198 -0.0904 -0.4263
  892MOL0     C20323   2.393  11.105   5.486 -0.4535 -0.7333 -0.9051
  892MOL0     C20324   2.291  11.032   5.397 -0.4548 -0.0059 -0.0359
  892MOL0     C20325   2.303  11.103   5.263  0.4018 -0.3851  0.0014
  892MOL0     C20326   2.195  11.045   5.162  0.0704 -0.1092  0.3356
  892MOL0     C20327   2.203  11.116   5.029 -0.1593 -0.5597 -0.2630
  892MOL0     C20328   2.101  11.051   4.940  0.0407  0.2222  1.0293
  892MOL0     C20329   2.062  11.131   4.816 -0.5920 -0.5671  0.3604
  892MOL0    Cl20330   2.208  11.195   4.729  0.0137  0.3019 -0.2959
  892MOL0     C20331   2.802  11.180   5.709 -0.0823  0.7438 -0.9145
  892MOL0     C20332   2.938  11.153   5.742 -0.1225 -0.1489  0.2711
  892MOL0     O20333   3.076  10.887   5.883 -0.0005  0.3105  0.5481
  892MOL0     C20334   3.344  10.805   5.920 -0.4371 -0.1495 -0.7216
  892MOL0     C20335   3.474  10.767   5.938 -0.1702  0.8286 -0.0300
  892MOL0     N20336   4.300  10.958   6.158  0.5342 -0.5646  0.2759
  892MOL0     N20337   4.425  10.982   6.153  0.0136  0.0181 -0.1437
  892MOL0     C20338   5.652  11.111   6.206  1.1241 -0.4213  0.0929
  892MOL0     C20339   5.788  11.107   6.215 -0.0728 -0.0711  0.0979
  892MOL0     C20340   6.207  11.046   6.233  0.2711 -0.3105 -0.1433
  892MOL0     C20341   6.281  10.949   6.313 -0.0567 -0.2117 -0.3608
  892MOL0     C20342   6.406  10.995   6.362 -0.0299  0.7966  0.6240
  892MOL0     C20343   6.470  11.111   6.308 -0.0609 -0.1018 -0.8628
  892MOL0     O20344   6.601  11.149   6.337  0.0615  0.1372 -0.4556
  892MOL0     C20345   6.679  11.068   6.418 -0.1456 -0.1859 -0.0129
  892MOL0     C20346   6.746  10.956   6.343  0.2268 -0.4290 -0.4668
  892MOL0     C20347   6.869  11.009   6.257  0.0823  0.4468  0.3509
  892MOL0     C20348   6.845  10.965   6.113 -0.1019 -0.4702  0.9015
  892MOL0     C20349   6.972  10.963   6.035  0.5925  0.6336  0.0901
  892MOL0     C20350   7.074  10.958   5.966  0.1597  0.7091 -0.0773
  892MOL0     C20351   6.404  11.191   6.222 -0.7727 -0.1042 -0.4216
  892MOL0     C20352   6.271  11.159   6.186 -0.7724 -0.1057  0.9604
  892MOL0     H20353   5.872  11.191   5.895  1.6613 -0.4037  0.5152
  892MOL0     H20354   5.635  11.212   5.873  1.6629 -0.6029 -1.8727
  892MOL0     H20355   5.402  11.001   6.176  0.6251 -0.9610 -1.6748
  892MOL0     H20356   5.349  11.155   6.247 -0.6089 -0.5784 -0.4187
  892MOL0     H20357   5.167  11.173   6.068  0.1878  0.3743 -0.5734
  892MOL0     H20358   5.237  11.050   5.976 -0.6865 -2.3778  0.9720
  892MOL0     H20359   5.153  10.884   6.161 -2.8871  0.0583  2.9989
  892MOL0     H20360   5.109  11.026   6.238  3.8530 -0.3540  0.3374
  892MOL0     H20361   4.959  11.081   6.033  1.9372  0.8794  1.3015
  892MOL0     H20362   5.020  10.919   5.963  3.1299 -2.0506  1.8983
  892MOL0     H20363   4.897  10.803   6.131 -1.2267 -1.0424 -0.1714
  892MOL0     H20364   4.883  10.947   6.234  2.9015 -0.6842  0.4522
  892MOL0     H20365   4.736  10.921   5.958  1.4310 -2.0892  0.5777
  892MOL0     H20366   4.674  10.863   6.105 -0.6677 -0.1093 -0.2846
  892MOL0     H20367   4.661  11.077   6.217 -0.3696  0.5728 -0.7212
  892MOL0     H20368   4.769  11.149   6.092  2.4428 -2.8122 -2.1379
  892MOL0     H20369   4.592  11.130   5.922 -1.6852  2.7688 -0.7239
  892MOL0     H20370   4.578  11.252   6.048 -1.5518  0.2698 -2.2273
  892MOL0     H20371   4.322  11.200   5.926 -1.0597  0.2040 -2.1089
  892MOL0     H20372   4.065  11.029   6.137  1.9289  0.5438  0.5306
  892MOL0     H20373   4.068  11.153   6.016  0.4257  1.3694  2.3004
  892MOL0     H20374   4.119  10.879   5.914  0.0441 -0.5372 -1.4124
  892MOL0     H20375   4.072  11.020   5.833  2.3127 -3.7469 -1.9224
  892MOL0     H20376   3.857  11.048   5.931  1.8257  0.3999  0.1754
  892MOL0     H20377   3.886  10.925   6.046  0.3602  1.9559  0.3282
  892MOL0     H20378   3.914  10.763   5.843  0.1492 -0.4937 -0.5412
  892MOL0     H20379   3.816  10.881   5.750  1.6115 -1.5675 -0.3598
  892MOL0     H20380   3.633  10.996   5.738  0.2397 -0.9863  0.2909
  892MOL0     H20381   3.337  11.089   5.597  0.7349  3.1870 -0.3685
  892MOL0     H20382   3.352  11.194   5.742 -0.0081  1.0073 -0.3930
  892MOL0     H20383   3.489  11.147   5.638 -0.7569  1.0204 -1.0105
  892MOL0     H20384   2.976  10.875   5.546  2.2344  2.0575 -0.9451
  892MOL0     H20385   2.738  10.904   5.524  1.6837 -1.5627  0.3151
  892MOL0     H20386   2.568  10.999   5.425 -1.8368 -0.7144 -0.8234
  892MOL0     H20387   2.492  10.947   5.582 -2.1134 -0.7226 -1.9201
  892MOL0     H20388   2.356  11.133   5.585  0.1205  1.3380 -1.2275
  892MOL0     H20389   2.427  11.197   5.438  1.3056 -1.1342 -0.4986
  892MOL0     H20390   2.188  11.049   5.428  0.0679 -1.2958  2.7021
  892MOL0     H20391   2.313  10.925   5.393  0.4524  0.1648  0.2091
  892MOL0     H20392   2.290  11.211   5.261 -1.7629 -0.5878  0.2217
  892MOL0     H20393   2.401  11.080   5.220 -1.0221 -2.0160 -2.6684
  892MOL0     H20394   2.092  11.056   5.197  0.5261 -0.0565  1.7347
  892MOL0     H20395   2.204  10.936   5.148  0.4521  0.0740 -1.0117
  892MOL0     H20396   2.169  11.219   5.048  1.2583 -0.5576  3.0246
  892MOL0     H20397   2.302  11.131   4.983  0.4279  0.6765  1.2931
  892MOL0     H20398   2.009  11.020   4.991 -2.1535  3.6826 -0.4580
  892MOL0     H20399   2.150  10.963   4.898  0.4279  1.2325 -0.6997
  892MOL0     H20400   1.998  11.213   4.850  1.6358  0.8396  1.4320
  892MOL0     H20401   2.000  11.060   4.761 -0.7566 -0.3353  0.2432
  892MOL0     H20402   2.761  11.277   5.736 -0.1051  1.3103 -2.8659
  892MOL0     H20403   2.992  11.221   5.807  1.7633  0.0203 -1.4066
  892MOL0     H20404   3.275  10.739   5.971 -0.4504 -0.3158 -0.9536
  892MOL0     H20405   3.497  10.693   6.015  0.1016  2.1756  1.2410
  892MOL0     H20406   5.594  11.085   6.294  0.0276 -0.8159 -0.7289
  892MOL0     H20407   5.821  11.073   6.312 -2.1961 -1.4942  0.3782
  892MOL0     H20408   6.234  10.861   6.356  0.0616  0.4102  1.0850
  892MOL0     H20409   6.467  10.937   6.431  1.7217 -0.3931 -1.8002
  892MOL0     H20410   6.758  11.131   6.461  2.3546 -3.4732  0.6501
  892MOL0     H20411   6.632  11.027   6.508 -0.8781 -0.4394 -0.5069
  892MOL0     H20412   6.665  10.915   6.283 -0.4171 -0.2678  0.2875
  892MOL0     H20413   6.782  10.877   6.410  0.4036  1.8400  2.2951
  892MOL0     H20414   6.964  10.967   6.293  1.1147  2.7106  0.4438
  892MOL0     H20415   6.874  11.118   6.248  1.5088  0.2887 -1.4175
  892MOL0     H20416   6.783  11.035   6.056  0.0948 -1.5866 -0.7436
  892MOL0     H20417   6.801  10.865   6.106 -1.0351 -0.0072 -0.5040
  892MOL0     H20418   7.166  10.964   5.911  0.0849  4.4041 -0.0789
  892MOL0     H20419   6.439  11.284   6.179 -0.4685  0.7604  1.6013
  892MOL0     H20420   6.221  11.232   6.123  1.6196  1.1180  0.3508
  893MOL0     O20421   6.414   6.010   8.191  0.1396 -0.0323  0.3957
  893MOL0     C20422   6.418   6.042   8.313 -0.2784 -0.0896  0.5319
  893MOL0     O20423   6.312   6.035   8.403  0.4239 -0.6577 -0.1039
  893MOL0     C20424   6.187   6.009   8.349 -0.1488  0.1260 -0.0959
  893MOL0     C20425   6.161   5.882   8.300 -0.5703 -0.1586  0.5347
  893MOL0     C20426   6.044   5.852   8.230 -0.3151 -0.7368 -0.0551
  893MOL0     C20427   5.946   5.954   8.212  0.2341 -0.1145 -0.2283
  893MOL0     O20428   5.841   5.927   8.119  0.1535  0.0149  0.1007
  893MOL0     C20429   5.738   6.024   8.119  0.4745 -0.1219  0.6061
  893MOL0     C20430   5.629   5.971   8.032 -0.0193 -0.2508 -0.0124
  893MOL0     C20431   5.527   5.873   8.101 -0.8996  0.5627  0.2609
  893MOL0     C20432   5.430   5.937   8.207 -0.2336 -0.4170 -0.2079
  893MOL0     C20433   5.313   5.849   8.250  0.3511 -0.0129 -0.2224
  893MOL0     C20434   5.215   5.828   8.136 -0.1230 -0.3179 -0.3658
  893MOL0     C20435   5.082   5.770   8.194 -0.0174  0.0813 -0.8220
  893MOL0     C20436   5.010   5.675   8.100 -0.0841 -0.0979 -0.1821
  893MOL0     N20437   4.865   5.662   8.139  0.5739 -0.3787  0.5044
  893MOL0     C20438   4.813   5.592   8.250  0.2404  0.2241  0.4980
  893MOL0     C20439   4.678   5.589   8.224 -0.5635  0.1596 -0.1391
  893MOL0     C20440   4.561   5.535   8.309 -0.0512  0.2596 -0.8838
  893MOL0     C20441   4.525   5.626   8.433 -0.1439 -0.2915 -1.0094
  893MOL0     C20442   4.460   5.760   8.380  0.4382  0.5603 -0.2927
  893MOL0     C20443   4.398   5.825   8.499 -0.1781 -0.5355 -0.4258
  893MOL0     O20444   4.289   5.749   8.548 -0.0238  0.1126  0.2938
  893MOL0     C20445   4.161   5.776   8.508 -0.1290  0.3534 -0.5112
  893MOL0     C20446   4.122   5.867   8.415  0.0192  0.2530  0.1127
  893MOL0     C20447   3.987   5.896   8.385 -0.4276  0.6196 -1.1301
  893MOL0     C20448   3.950   5.995   8.273 -0.1499  0.6772 -0.2684
  893MOL0     C20449   3.889   5.806   8.446 -0.8027  0.3664 -0.4773
  893MOL0     C20450   3.745   5.804   8.420  0.2429 -0.4802  0.0783
  893MOL0     O20451   3.669   5.695   8.455 -1.2552  0.0083 -1.4170
  893MOL0     C20452   3.533   5.677   8.435  0.6159  0.8569 -0.3254
  893MOL0     C20453   3.446   5.756   8.361  0.1735  0.0080 -0.2262
  893MOL0     C20454   3.312   5.713   8.340 -1.0992 -0.0767 -0.1739
  893MOL0     C20455   3.257   5.599   8.387  0.0668  0.8238 -0.4634
  893MOL0     O20456   3.125   5.585   8.367 -0.7046 -0.3645  0.0121
  893MOL0     C20457   3.066   5.458   8.405 -0.8603  0.4144  0.0138
  893MOL0     C20458   2.932   5.458   8.332  0.2353 -0.3744  1.2448
  893MOL0     C20459   2.831   5.355   8.389  0.1396  0.2286 -0.1353
  893MOL0     C20460   2.691   5.371   8.337  0.8500 -0.5898 -0.5966
  893MOL0     C20461   2.590   5.277   8.413 -0.7493 -0.3117  0.0913
  893MOL0     C20462   2.438   5.290   8.390  0.7821 -0.8430  0.8854
  893MOL0     C20463   2.353   5.204   8.487  0.0957 -0.4892  0.1050
  893MOL0     C20464   2.211   5.241   8.506 -0.0886  0.6782 -0.5199
  893MOL0    Cl20465   2.215   5.393   8.612 -0.6118  0.0303 -0.6382
  893MOL0     C20466   3.344   5.515   8.465 -0.0194 -0.1205 -0.6184
  893MOL0     C20467   3.479   5.555   8.480 -0.0769  0.1112 -0.1519
  893MOL0     O20468   3.702   5.903   8.364 -0.8043  0.2442 -0.0471
  893MOL0     C20469   3.931   5.709   8.537  0.3586 -1.1439  0.1412
  893MOL0     C20470   4.062   5.701   8.572 -0.1312  0.0676  0.0388
  893MOL0     N20471   4.647   5.669   8.114  0.6014  0.5681 -0.0696
  893MOL0     N20472   4.763   5.702   8.067  0.1059 -0.3905 -0.0721
  893MOL0     C20473   5.967   6.082   8.272 -0.0616  0.1660 -0.0631
  893MOL0     C20474   6.087   6.110   8.338 -0.2142  0.5618  0.3524
  893MOL0     C20475   6.551   6.083   8.362  0.1233 -0.5806  0.7049
  893MOL0     C20476   6.577   6.106   8.496  0.7514  0.7538 -0.6564
  893MOL0     C20477   6.705   6.144   8.535 -0.0549 -0.4746 -0.3582
  893MOL0     C20478   6.809   6.155   8.447  0.1153 -0.1611  0.4586
  893MOL0     O20479   6.928   6.205   8.497 -0.0661 -0.5100  0.3602
  893MOL0     C20480   6.982   6.138   8.607 -0.0205  0.2521  0.0322
  893MOL0     C20481   7.138   6.162   8.602  0.0421 -0.3174 -0.0385
  893MOL0     C20482   7.168   6.301   8.662  0.0628  0.4225 -0.2769
  893MOL0     C20483   7.317   6.341   8.622 -0.1398  0.6650  0.1202
  893MOL0     C20484   7.375   6.464   8.688  1.1228  0.1735  0.7303
  893MOL0     C20485   7.413   6.571   8.726 -0.3439 -0.3379 -0.6380
  893MOL0     C20486   6.787   6.128   8.310  0.0936  0.3627  0.8713
  893MOL0     C20487   6.660   6.089   8.267 -0.2547 -0.1835  0.7441
  893MOL0     H20488   6.241   5.809   8.296  0.8094  1.3428 -0.2479
  893MOL0     H20489   6.042   5.764   8.166  2.3396  0.8232 -2.5382
  893MOL0     H20490   5.699   6.035   8.221  0.4808  1.5124  0.4547
  893MOL0     H20491   5.774   6.120   8.082 -2.0422  0.5196 -0.3971
  893MOL0     H20492   5.570   6.052   7.989  0.2608 -1.3916 -2.7678
  893MOL0     H20493   5.686   5.914   7.958  1.8562 -1.3498  2.1447
  893MOL0     H20494   5.471   5.823   8.022 -2.6849 -2.9342  3.3935
  893MOL0     H20495   5.588   5.790   8.138 -1.6006 -0.6479 -1.2071
  893MOL0     H20496   5.481   5.961   8.301 -0.2413 -2.0973  0.2562
  893MOL0     H20497   5.390   6.030   8.164 -1.5884 -0.0391  1.6904
  893MOL0     H20498   5.342   5.751   8.289 -1.6621  0.1905  1.9800
  893MOL0     H20499   5.260   5.902   8.329 -3.2144 -1.0161 -1.7552
  893MOL0     H20500   5.210   5.923   8.083  1.6536  0.5891  1.0054
  893MOL0     H20501   5.256   5.759   8.062 -0.5547 -1.5854  0.5276
  893MOL0     H20502   5.100   5.716   8.287  0.5462 -1.8229 -1.9748
  893MOL0     H20503   5.021   5.854   8.228 -0.3389 -1.0324  1.5271
  893MOL0     H20504   5.062   5.579   8.097 -0.3053 -0.2252 -0.0324
  893MOL0     H20505   5.013   5.724   8.002 -0.0795 -0.0860 -0.1761
  893MOL0     H20506   4.866   5.551   8.336 -0.2778 -0.9823  0.2543
  893MOL0     H20507   4.475   5.525   8.242 -2.5117  2.5664  1.6450
  893MOL0     H20508   4.589   5.434   8.339 -1.3198 -0.3764 -1.7749
  893MOL0     H20509   4.613   5.644   8.496 -1.8611 -1.4624  1.9007
  893MOL0     H20510   4.459   5.577   8.505  0.8062 -2.6283 -1.6487
  893MOL0     H20511   4.385   5.746   8.302  0.1858 -0.4759  0.1218
  893MOL0     H20512   4.545   5.818   8.343 -0.4996  1.3002 -1.3195
  893MOL0     H20513   4.366   5.928   8.478 -0.5990 -0.4869  0.4162
  893MOL0     H20514   4.475   5.827   8.576 -0.0626 -0.6727 -0.5365
  893MOL0     H20515   4.193   5.928   8.360 -0.1482 -1.6393 -2.4208
  893MOL0     H20516   3.903   5.936   8.193 -2.0008 -0.6534  1.6679
  893MOL0     H20517   3.885   6.073   8.313  0.1012  1.0209 -0.5329
  893MOL0     H20518   4.035   6.049   8.231 -0.8793  0.2000 -2.5588
  893MOL0     H20519   3.470   5.857   8.328  1.3833 -0.0886  0.2971
  893MOL0     H20520   3.251   5.774   8.275  1.9970  1.3579 -1.8863
  893MOL0     H20521   3.131   5.380   8.364  0.9505  1.4869  0.7028
  893MOL0     H20522   3.053   5.442   8.512 -1.4587 -0.4197 -0.1739
  893MOL0     H20523   2.884   5.556   8.324  0.8899 -0.1253  0.1504
  893MOL0     H20524   2.947   5.435   8.226 -1.5494 -0.5246  0.9913
  893MOL0     H20525   2.820   5.372   8.496  1.5715  1.4558 -0.1673
  893MOL0     H20526   2.864   5.252   8.373 -1.7161 -0.6821  1.5237
  893MOL0     H20527   2.663   5.472   8.370 -0.2349 -1.1768  0.3455
  893MOL0     H20528   2.674   5.354   8.230 -3.2805  0.4394 -0.2921
  893MOL0     H20529   2.611   5.266   8.520 -2.5006  0.1914  0.5211
  893MOL0     H20530   2.612   5.182   8.362  0.4899 -0.2345  0.4539
  893MOL0     H20531   2.426   5.397   8.409 -0.6720 -0.1501 -3.0895
  893MOL0     H20532   2.401   5.280   8.288  1.5232  1.1432  0.3789
  893MOL0     H20533   2.404   5.209   8.584  0.8593 -0.6018 -0.2791
  893MOL0     H20534   2.360   5.102   8.447  0.4138  0.0620 -1.3066
  893MOL0     H20535   2.151   5.162   8.553 -0.3489 -1.0715 -3.5147
  893MOL0     H20536   2.167   5.261   8.408 -0.2757 -1.3135 -0.8753
  893MOL0     H20537   3.304   5.424   8.507 -0.0161 -0.4639 -1.3382
  893MOL0     H20538   3.542   5.493   8.543  2.1275  2.8419  0.5411
  893MOL0     H20539   3.865   5.640   8.589 -0.5157 -0.0812  0.4976
  893MOL0     H20540   4.089   5.630   8.650 -1.2738  0.3223  0.6950
  893MOL0     H20541   5.895   6.163   8.281  0.9208  0.8818  2.2470
  893MOL0     H20542   6.108   6.206   8.384  2.2595 -1.3740  3.7396
  893MOL0     H20543   6.501   6.091   8.572  1.8908 -0.2264  0.3414
  893MOL0     H20544   6.721   6.171   8.639 -0.9453  0.8404 -0.5425
  893MOL0     H20545   6.938   6.176   8.699  1.5832  0.9004  0.5818
  893MOL0     H20546   6.962   6.031   8.602  1.4218 -0.0956  0.9692
  893MOL0     H20547   7.172   6.160   8.498  2.4047 -1.1024  0.6895
  893MOL0     H20548   7.191   6.081   8.654  0.6415 -0.4236 -0.7940
  893MOL0     H20549   7.157   6.289   8.770  3.2857  2.1197  0.3408
  893MOL0     H20550   7.104   6.379   8.621 -1.6113 -0.3345  0.7763
  893MOL0     H20551   7.325   6.353   8.514 -0.3979  0.3494  0.0634
  893MOL0     H20552   7.388   6.259   8.638  1.9091  1.6425 -3.0243
  893MOL0     H20553   7.460   6.662   8.757  0.2358 -0.4773 -1.0783
  893MOL0     H20554   6.872   6.126   8.243 -0.7522  1.2915 -0.2780
  893MOL0     H20555   6.660   6.058   8.163  0.0419  0.6984  0.4707
  894MOL0     O20556   0.965   2.757   1.569  0.9012  0.2138 -0.2696
  894MOL0     C20557   0.943   2.715   1.683  0.4409  0.1771 -0.0471
  894MOL0     O20558   0.852   2.768   1.774  0.2973 -0.7065 -0.2254
  894MOL0     C20559   0.783   2.884   1.756 -0.3452  1.1565  0.6834
  894MOL0     C20560   0.828   2.995   1.695  0.1376  0.0563 -0.0824
  894MOL0     C20561   0.753   3.113   1.684  0.0770 -0.0606 -0.4649
  894MOL0     C20562   0.632   3.123   1.748  0.5703 -0.2569 -0.0563
  894MOL0     O20563   0.540   3.224   1.736  0.4230  0.0223 -0.6752
  894MOL0     C20564   0.569   3.329   1.645 -0.4526 -0.9750 -0.6058
  894MOL0     C20565   0.456   3.439   1.642 -0.0439 -0.3980  0.1190
  894MOL0     C20566   0.507   3.575   1.603  0.1394  0.0596 -0.7074
  894MOL0     C20567   0.396   3.677   1.587 -1.2268  0.2875 -0.1437
  894MOL0     C20568   0.444   3.791   1.497 -0.1303  0.2122  0.3665
  894MOL0     C20569   0.330   3.883   1.471 -0.3169  0.1456 -0.4434
  894MOL0     C20570   0.366   3.999   1.388 -0.4016 -0.0111  0.5977
  894MOL0     C20571   0.242   4.086   1.333 -0.3733 -0.3835 -0.1326
  894MOL0     N20572   0.165   4.148   1.435 -0.8008  0.2674 -0.0407
  894MOL0     C20573   0.071   4.077   1.513  0.3280  0.2471  0.7401
  894MOL0     C20574   0.043   4.155   1.622 -0.1364 -0.1673 -0.3934
  894MOL0     C20575  -0.075   4.126   1.719 -0.2748 -0.5918  0.3654
  894MOL0     C20576  -0.070   3.985   1.776 -1.2375 -0.0077 -0.7982
  894MOL0     C20577  -0.168   3.952   1.899  0.4431  0.6493  0.5130
  894MOL0     C20578  -0.318   3.966   1.865 -0.6226  0.8785 -0.2046
  894MOL0     O20579  -0.351   3.871   1.762 -0.4095 -0.7341 -0.3297
  894MOL0     C20580  -0.484   3.870   1.716  0.0942  0.0829 -0.2917
  894MOL0     C20581  -0.585   3.964   1.740  1.2130  0.0217  0.0661
  894MOL0     C20582  -0.703   3.959   1.660  0.4789  0.6300 -0.5722
  894MOL0     C20583  -0.795   4.074   1.680  0.0624  0.0159  0.2342
  894MOL0     C20584  -0.728   3.840   1.580 -0.1041 -0.5147 -0.6916
  894MOL0     C20585  -0.855   3.819   1.503 -0.4354 -0.5804 -0.9267
  894MOL0     O20586  -0.937   3.917   1.475  0.3186 -0.8496  0.4807
  894MOL0     C20587  -1.047   3.903   1.388 -0.2619  0.5488  0.3886
  894MOL0     C20588  -1.030   3.887   1.249  0.6195 -0.0781 -0.3916
  894MOL0     C20589  -1.143   3.888   1.174  0.2792 -1.0274  0.5881
  894MOL0     C20590  -1.274   3.898   1.228 -0.1644 -0.5341  0.5433
  894MOL0     O20591  -1.388   3.884   1.160 -0.2758 -0.1826  0.1901
  894MOL0     C20592  -1.381   3.865   1.016  0.0310  0.2396 -0.4768
  894MOL0     C20593  -1.529   3.828   0.986 -0.4470  0.4033 -0.8784
  894MOL0     C20594  -1.558   3.790   0.842 -0.7177 -0.1148 -0.0304
  894MOL0     C20595  -1.708   3.738   0.835 -0.3295 -0.2287 -0.2496
  894MOL0     C20596  -1.751   3.701   0.695 -0.6328 -0.0753 -0.2843
  894MOL0     C20597  -1.893   3.657   0.676 -0.4163  0.9320  0.0210
  894MOL0     C20598  -1.898   3.529   0.590  0.6266 -0.3712  0.2887
  894MOL0     C20599  -2.041   3.500   0.557 -0.4335 -0.6123  1.0590
  894MOL0    Cl20600  -2.132   3.478   0.704  0.2779  0.0759 -0.2082
  894MOL0     C20601  -1.290   3.924   1.369  0.7154  0.3315  0.0966
  894MOL0     C20602  -1.176   3.925   1.442 -0.0821  0.1052 -0.8790
  894MOL0     O20603  -0.872   3.707   1.459 -0.3334  0.5560 -0.3076
  894MOL0     C20604  -0.628   3.748   1.567 -0.2457  0.8595 -0.1929
  894MOL0     C20605  -0.502   3.765   1.629 -0.2910  0.7534 -0.1829
  894MOL0     N20606   0.117   4.273   1.614 -0.9966 -0.1043  0.7508
  894MOL0     N20607   0.188   4.262   1.498  0.4590 -0.4595 -0.5981
  894MOL0     C20608   0.577   3.011   1.811 -0.4218 -0.2032 -0.6121
  894MOL0     C20609   0.655   2.898   1.815  0.0365  0.6339  0.1636
  894MOL0     C20610   1.050   2.629   1.744 -0.4755 -0.2041 -0.0745
  894MOL0     C20611   1.154   2.584   1.675  1.0503  0.6658  0.7782
  894MOL0     C20612   1.260   2.512   1.726  0.5850 -0.5970  0.1631
  894MOL0     C20613   1.264   2.470   1.858  0.0062  0.1743 -0.3110
  894MOL0     O20614   1.367   2.387   1.888  0.1914 -0.3457 -0.0775
  894MOL0     C20615   1.384   2.338   2.026  0.2453  0.1229 -0.9902
  894MOL0     C20616   1.518   2.389   2.074  0.6399 -1.1271 -0.5385
  894MOL0     C20617   1.531   2.538   2.081 -0.6368  0.4070 -0.4023
  894MOL0     C20618   1.669   2.585   2.095  0.5192  0.0940 -0.1569
  894MOL0     C20619   1.729   2.520   2.211  0.1192 -0.6754  0.2451
  894MOL0     C20620   1.777   2.452   2.297 -0.7771  0.3025  0.3516
  894MOL0     C20621   1.153   2.513   1.934  0.0580  0.1286  0.2291
  894MOL0     C20622   1.046   2.592   1.879 -0.1864 -0.2933 -0.0495
  894MOL0     H20623   0.921   2.992   1.639  0.5808 -2.2825  0.6532
  894MOL0     H20624   0.797   3.186   1.616 -0.6276 -0.6354 -1.5702
  894MOL0     H20625   0.661   3.385   1.662 -1.5323  0.4289  0.8811
  894MOL0     H20626   0.563   3.284   1.545 -0.9550 -2.3016 -0.0056
  894MOL0     H20627   0.374   3.412   1.576 -0.7613  2.8194 -0.4733
  894MOL0     H20628   0.405   3.431   1.739 -0.5049 -3.2840 -0.2598
  894MOL0     H20629   0.577   3.614   1.677 -0.4140  2.3731 -1.3190
  894MOL0     H20630   0.555   3.567   1.505 -0.3119  1.4161 -1.0617
  894MOL0     H20631   0.310   3.622   1.549  0.2168 -1.8870 -0.4057
  894MOL0     H20632   0.371   3.711   1.688  1.2019 -2.2933  1.4619
  894MOL0     H20633   0.529   3.848   1.536  1.5925 -2.3862  0.6636
  894MOL0     H20634   0.473   3.744   1.402  2.8718 -4.1552  3.0723
  894MOL0     H20635   0.244   3.823   1.440 -0.2977 -0.1740  0.1098
  894MOL0     H20636   0.310   3.924   1.570  2.0292 -1.5368  0.8289
  894MOL0     H20637   0.426   4.060   1.455 -0.7737 -1.0461  1.8976
  894MOL0     H20638   0.420   3.978   1.295  0.3449  3.6815  0.0353
  894MOL0     H20639   0.183   4.009   1.283  1.1996 -0.3020 -2.2274
  894MOL0     H20640   0.283   4.155   1.259  1.3770 -0.5009  0.6842
  894MOL0     H20641   0.036   3.977   1.492 -1.2138  0.1484  3.3393
  894MOL0     H20642  -0.071   4.201   1.798  0.4328 -0.2053 -0.0296
  894MOL0     H20643  -0.166   4.139   1.659  0.9115  1.9591 -1.0244
  894MOL0     H20644   0.030   3.960   1.815 -2.0193 -1.2091  0.5454
  894MOL0     H20645  -0.087   3.918   1.691  3.1047 -1.6296 -0.6727
  894MOL0     H20646  -0.139   4.026   1.974  0.6038  0.3440  0.7571
  894MOL0     H20647  -0.146   3.856   1.948 -0.5744 -0.7062 -1.5085
  894MOL0     H20648  -0.329   4.068   1.829 -1.6532  0.1473 -2.0799
  894MOL0     H20649  -0.376   3.953   1.957  0.3374  1.3078  0.4721
  894MOL0     H20650  -0.561   4.042   1.811 -0.2846 -0.6720  1.4188
  894MOL0     H20651  -0.832   4.125   1.591  1.3038  0.2002 -0.1938
  894MOL0     H20652  -0.880   4.039   1.739 -1.4357  2.1722 -0.5433
  894MOL0     H20653  -0.738   4.144   1.742  2.6746 -2.3544  0.7052
  894MOL0     H20654  -0.930   3.891   1.208  0.5055  2.6096 -0.6026
  894MOL0     H20655  -1.141   3.890   1.066 -0.2051 -0.8148  0.5776
  894MOL0     H20656  -1.345   3.948   0.955 -0.6170 -0.4384 -1.8267
  894MOL0     H20657  -1.309   3.784   0.999 -0.9165 -0.7079 -0.0616
  894MOL0     H20658  -1.559   3.751   1.057  2.9098 -1.5144 -1.3074
  894MOL0     H20659  -1.586   3.917   1.014  1.3881  1.5772 -0.7348
  894MOL0     H20660  -1.491   3.712   0.805  0.0450 -0.0079  1.0683
  894MOL0     H20661  -1.544   3.883   0.786  1.2120 -0.0697  0.4519
  894MOL0     H20662  -1.712   3.650   0.900  2.5097 -0.6253 -0.4906
  894MOL0     H20663  -1.763   3.820   0.883  0.0951 -0.1149  0.0510
  894MOL0     H20664  -1.688   3.622   0.654 -0.3261  1.0115 -1.9923
  894MOL0     H20665  -1.726   3.781   0.625 -2.5950  0.6377 -0.2291
  894MOL0     H20666  -1.940   3.641   0.773 -0.1859  1.4669  0.2232
  894MOL0     H20667  -1.940   3.729   0.608  0.6460  0.9094 -0.7658
  894MOL0     H20668  -1.854   3.447   0.648 -2.7704 -0.8658  2.3920
  894MOL0     H20669  -1.834   3.544   0.502  0.2960  1.4658  0.3404
  894MOL0     H20670  -2.033   3.408   0.498  2.1216  0.9108 -1.2124
  894MOL0     H20671  -2.092   3.574   0.494  0.9369  0.3008  0.9811
  894MOL0     H20672  -1.385   3.927   1.422 -0.0577 -2.4730 -0.9432
  894MOL0     H20673  -1.182   3.940   1.550  0.7018 -0.0964 -0.8050
  894MOL0     H20674  -0.635   3.664   1.497  1.5984 -0.8369  1.5396
  894MOL0     H20675  -0.420   3.695   1.614 -1.2885 -0.2475 -1.1835
  894MOL0     H20676   0.474   2.999   1.841 -0.2710 -2.2671 -0.7075
  894MOL0     H20677   0.615   2.804   1.853  1.2842  0.3013  0.6848
  894MOL0     H20678   1.154   2.606   1.569 -1.9466 -3.2424 -0.2287
  894MOL0     H20679   1.324   2.459   1.657  2.1916  0.8152  0.5149
  894MOL0     H20680   1.303   2.375   2.089 -0.1608  0.8080 -1.8794
  894MOL0     H20681   1.380   2.229   2.035 -2.3081  0.3407  4.8468
  894MOL0     H20682   1.592   2.343   2.007  1.4478 -0.5265 -0.0833
  894MOL0     H20683   1.523   2.347   2.175 -3.1741 -1.0037 -0.1787
  894MOL0     H20684   1.466   2.594   2.149  1.0498  0.1083  1.5500
  894MOL0     H20685   1.490   2.570   1.985 -0.0754  0.3327 -0.6704
  894MOL0     H20686   1.662   2.692   2.120 -2.2289 -0.1228  0.3561
  894MOL0     H20687   1.731   2.565   2.007  1.8113 -1.3283  1.0416
  894MOL0     H20688   1.816   2.385   2.371  0.6041  0.8334  0.1271
  894MOL0     H20689   1.149   2.492   2.040  1.2402  1.0887  0.4857
  894MOL0     H20690   0.964   2.621   1.943 -0.7702  0.8733 -1.2901
  895MOL0     O20691   1.236   3.431   0.608  0.1293  1.2697  0.1443
  895MOL0     C20692   1.193   3.496   0.707 -0.1433  0.2467  0.1106
  895MOL0     O20693   1.074   3.473   0.770  0.3146 -0.9224 -0.5035
  895MOL0     C20694   0.979   3.384   0.735  0.9010 -0.5572  0.9940
  895MOL0     C20695   0.883   3.349   0.831 -0.8981  0.3097  0.1317
  895MOL0     C20696   0.773   3.272   0.808  0.7301  0.4722  0.1623
  895MOL0     C20697   0.755   3.221   0.674  0.7261  0.1520 -0.0512
  895MOL0     O20698   0.642   3.140   0.657  0.0885  0.4672  0.7739
  895MOL0     C20699   0.589   3.126   0.523 -1.3134  0.2039  0.4746
  895MOL0     C20700   0.447   3.075   0.531  0.1522 -0.0537  0.2538
  895MOL0     C20701   0.382   3.058   0.393 -0.8111 -0.3273 -0.6290
  895MOL0     C20702   0.240   3.005   0.426 -0.0661  0.1162 -0.3182
  895MOL0     C20703   0.155   2.972   0.304 -0.2847 -0.1307 -0.5114
  895MOL0     C20704   0.143   3.094   0.211  0.2412  0.0124  0.1077
  895MOL0     C20705   0.028   3.081   0.110 -0.3968 -0.4801 -0.0756
  895MOL0     C20706  -0.118   3.077   0.164 -0.2840  0.1744  0.3959
  895MOL0     N20707  -0.220   3.093   0.057 -0.2587  0.3397 -0.2246
  895MOL0     C20708  -0.266   3.213   0.006  0.2000  0.1962  1.1444
  895MOL0     C20709  -0.354   3.185  -0.098  0.3546  0.1981 -0.5324
  895MOL0     C20710  -0.423   3.289  -0.175  0.3078 -0.6689 -0.6170
  895MOL0     C20711  -0.383   3.300  -0.322 -0.0733  0.3132  0.4242
  895MOL0     C20712  -0.430   3.183  -0.406  0.4650  0.5948 -0.2355
  895MOL0     C20713  -0.394   3.204  -0.557  0.6870 -0.2005  0.2373
  895MOL0     O20714  -0.468   3.304  -0.618  0.2710 -0.4022 -0.4581
  895MOL0     C20715  -0.599   3.271  -0.664 -0.4502  0.2136  0.3364
  895MOL0     C20716  -0.696   3.366  -0.681  0.4429 -0.0126  0.0406
  895MOL0     C20717  -0.829   3.338  -0.730  0.2972 -0.6225  0.1879
  895MOL0     C20718  -0.916   3.466  -0.731  1.1247  0.4111  1.0827
  895MOL0     C20719  -0.871   3.207  -0.749  0.1911 -0.6017 -0.8178
  895MOL0     C20720  -1.003   3.159  -0.781  0.3293  0.6082  0.5941
  895MOL0     O20721  -1.092   3.257  -0.810 -0.0237  0.0455  0.3099
  895MOL0     C20722  -1.223   3.220  -0.833 -0.1593 -0.6204 -0.7193
  895MOL0     C20723  -1.323   3.259  -0.736  0.1193  0.3449  0.6020
  895MOL0     C20724  -1.456   3.219  -0.761 -0.5826 -0.3462 -0.3254
  895MOL0     C20725  -1.491   3.117  -0.853  0.4523 -0.5265 -0.1728
  895MOL0     O20726  -1.621   3.083  -0.867 -0.5277  0.1051  0.0599
  895MOL0     C20727  -1.725   3.129  -0.775 -1.6013  0.1079 -0.4685
  895MOL0     C20728  -1.853   3.060  -0.798 -0.2258  0.5517  0.4399
  895MOL0     C20729  -1.932   3.099  -0.919 -0.2901 -0.3763 -0.2225
  895MOL0     C20730  -2.073   3.049  -0.912  0.4042  0.0557 -0.6308
  895MOL0     C20731  -2.160   3.155  -0.981  0.2013  0.4263  0.3594
  895MOL0     C20732  -2.308   3.127  -0.980 -0.9521  0.0468  0.0700
  895MOL0     C20733  -2.381   3.144  -0.845 -0.6910  0.0463  0.3128
  895MOL0     C20734  -2.527   3.103  -0.862  0.6198 -0.0287  0.4486
  895MOL0    Cl20735  -2.611   3.226  -0.966 -0.2130 -0.1211  0.3775
  895MOL0     C20736  -1.384   3.067  -0.934  0.6017 -0.2333 -0.3614
  895MOL0     C20737  -1.259   3.131  -0.931  0.5549 -0.4620  0.2160
  895MOL0     O20738  -1.022   3.038  -0.789  0.2234 -0.0767  0.4597
  895MOL0     C20739  -0.773   3.112  -0.722 -0.4422  0.5699 -0.2651
  895MOL0     C20740  -0.645   3.144  -0.674  0.3894 -0.5762 -0.4418
  895MOL0     N20741  -0.361   3.050  -0.105 -0.6937  0.1331 -0.8753
  895MOL0     N20742  -0.278   2.993  -0.028  0.0839 -0.6018 -0.2842
  895MOL0     C20743   0.842   3.258   0.572 -0.4876 -1.0885  0.7312
  895MOL0     C20744   0.955   3.333   0.604  0.4865 -0.5407 -0.3966
  895MOL0     C20745   1.268   3.618   0.750  0.2893 -0.0918  0.2720
  895MOL0     C20746   1.195   3.732   0.788 -0.8712  0.2609 -0.3496
  895MOL0     C20747   1.266   3.844   0.831  0.4822  0.2975  0.4693
  895MOL0     C20748   1.408   3.849   0.828 -0.1231  0.3859  0.1068
  895MOL0     O20749   1.465   3.959   0.880 -0.1717 -0.0718 -0.3363
  895MOL0     C20750   1.603   3.979   0.853 -0.2248 -0.5235  0.1573
  895MOL0     C20751   1.650   4.102   0.938  0.7283  0.7693  0.0755
  895MOL0     C20752   1.807   4.117   0.928  0.1909 -0.0895  0.0066
  895MOL0     C20753   1.856   4.245   0.997 -0.6728  0.5832  0.0917
  895MOL0     C20754   1.826   4.239   1.139  0.2734 -0.6601  0.5463
  895MOL0     C20755   1.783   4.229   1.249  0.2384 -0.6163  0.3113
  895MOL0     C20756   1.475   3.738   0.781  0.4666 -0.0160 -0.2535
  895MOL0     C20757   1.404   3.620   0.741 -0.0015 -0.0366 -0.9125
  895MOL0     H20758   0.900   3.381   0.934  4.3480 -0.9599 -0.0330
  895MOL0     H20759   0.700   3.249   0.885  1.2728  1.3384  0.9655
  895MOL0     H20760   0.588   3.219   0.465 -0.6723  0.3833  0.7440
  895MOL0     H20761   0.654   3.057   0.468 -2.4523 -2.5259  2.3267
  895MOL0     H20762   0.442   2.975   0.575 -0.1217  0.2706  0.9905
  895MOL0     H20763   0.391   3.153   0.584  2.4885  1.1035  1.1294
  895MOL0     H20764   0.378   3.151   0.336 -0.2862  0.2723  0.2688
  895MOL0     H20765   0.447   2.991   0.337  2.1547  1.3390  0.5749
  895MOL0     H20766   0.240   2.913   0.486 -4.6034  1.7288  2.6166
  895MOL0     H20767   0.186   3.076   0.489 -1.4354  0.5580 -1.9270
  895MOL0     H20768   0.194   2.888   0.246  0.9141  0.8263 -1.1396
  895MOL0     H20769   0.057   2.930   0.329  2.0067 -4.5813  2.4772
  895MOL0     H20770   0.120   3.174   0.282  0.5940  1.0817 -0.9509
  895MOL0     H20771   0.238   3.114   0.160  0.6767  2.2002  1.6208
  895MOL0     H20772   0.041   3.174   0.053 -0.1908 -0.4165  0.0724
  895MOL0     H20773   0.041   2.998   0.040  0.3561 -2.6484  2.4979
  895MOL0     H20774  -0.128   3.158   0.237  0.2242  0.7682 -0.1723
  895MOL0     H20775  -0.153   2.988   0.217 -0.3236  0.7745  1.4058
  895MOL0     H20776  -0.231   3.309   0.044  0.8872 -0.8795  3.4144
  895MOL0     H20777  -0.529   3.263  -0.172 -0.2653  1.4667 -0.8446
  895MOL0     H20778  -0.416   3.387  -0.127 -3.2269 -0.5138 -0.1360
  895MOL0     H20779  -0.274   3.307  -0.321  0.1892 -2.2930  2.7810
  895MOL0     H20780  -0.419   3.394  -0.364 -1.4966 -0.2830  0.2559
  895MOL0     H20781  -0.539   3.184  -0.395  0.7082 -1.0269  3.6843
  895MOL0     H20782  -0.399   3.083  -0.375 -0.2335  0.7334  0.9602
  895MOL0     H20783  -0.380   3.115  -0.620  2.3905 -0.5264  1.0197
  895MOL0     H20784  -0.294   3.247  -0.547 -0.6429  2.5476  2.9895
  895MOL0     H20785  -0.671   3.470  -0.664  1.0408 -0.3353  1.2240
  895MOL0     H20786  -0.855   3.555  -0.751 -0.4372  1.2852  0.0001
  895MOL0     H20787  -0.999   3.470  -0.801  0.6010  0.6171  1.7101
  895MOL0     H20788  -0.957   3.468  -0.630  0.2218  2.6172  0.7239
  895MOL0     H20789  -1.279   3.306  -0.649  3.1491  0.7185 -0.9838
  895MOL0     H20790  -1.530   3.254  -0.691 -0.8701 -3.6831  1.2605
  895MOL0     H20791  -1.688   3.103  -0.676  2.4692  1.6837 -1.3622
  895MOL0     H20792  -1.750   3.235  -0.773  2.1568  1.1265  1.6776
  895MOL0     H20793  -1.825   2.955  -0.817 -1.9615  0.5701 -3.0201
  895MOL0     H20794  -1.910   3.073  -0.706 -0.3277  3.9784 -0.0017
  895MOL0     H20795  -1.888   3.064  -1.013  1.8946  2.3751 -0.3593
  895MOL0     H20796  -1.928   3.208  -0.927  1.8287 -0.3527  0.5455
  895MOL0     H20797  -2.077   2.951  -0.959  0.0979 -1.4621  2.3435
  895MOL0     H20798  -2.098   3.030  -0.807  0.6006  0.5126 -0.4992
  895MOL0     H20799  -2.128   3.172  -1.084 -1.6277 -1.8797 -0.7041
  895MOL0     H20800  -2.157   3.253  -0.933 -2.7061  1.9585 -2.2085
  895MOL0     H20801  -2.356   3.191  -1.055 -2.6759  0.2761  1.3246
  895MOL0     H20802  -2.327   3.023  -1.011 -0.0692 -0.3945  0.9650
  895MOL0     H20803  -2.370   3.246  -0.807  4.6416 -0.4556  0.9012
  895MOL0     H20804  -2.338   3.080  -0.768 -0.7892  1.2449  1.3990
  895MOL0     H20805  -2.580   3.093  -0.766  0.1888 -0.1474  0.2016
  895MOL0     H20806  -2.534   3.011  -0.920  0.4912  1.4305 -1.9842
  895MOL0     H20807  -1.399   3.008  -1.024  0.4720  0.9576 -1.1366
  895MOL0     H20808  -1.175   3.098  -0.990  2.0276  2.0544  0.7859
  895MOL0     H20809  -0.793   3.005  -0.723 -0.7299  0.6226 -0.2301
  895MOL0     H20810  -0.591   3.063  -0.626 -1.3934 -0.2394  2.3462
  895MOL0     H20811   0.808   3.228   0.473  2.6031  2.3852 -1.6245
  895MOL0     H20812   1.025   3.367   0.528  1.5108  0.4110  0.9334
  895MOL0     H20813   1.088   3.743   0.780 -0.8773  1.3850  1.0208
  895MOL0     H20814   1.207   3.929   0.865 -0.0654 -0.4575  1.4647
  895MOL0     H20815   1.663   3.895   0.890  2.3344  1.6754  1.2984
  895MOL0     H20816   1.621   4.002   0.747 -0.7140 -0.7070  0.0280
  895MOL0     H20817   1.618   4.088   1.041  0.4459  2.3259  0.2339
  895MOL0     H20818   1.605   4.193   0.896  1.5363  0.9921 -0.3450
  895MOL0     H20819   1.837   4.108   0.823 -2.3556  1.5840 -0.9667
  895MOL0     H20820   1.851   4.034   0.984 -0.2141 -1.7816 -2.0721
  895MOL0     H20821   1.807   4.333   0.954  1.0567  2.1396  1.1569
  895MOL0     H20822   1.964   4.248   0.980 -0.3789  0.4872  1.7394
  895MOL0     H20823   1.749   4.218   1.350 -0.2866 -3.7078 -0.1011
  895MOL0     H20824   1.583   3.733   0.773  0.2997 -1.6592 -2.2258
  895MOL0     H20825   1.461   3.530   0.722  1.0494  0.5118 -0.5014
  896MOL0     O20826   3.947   7.097   4.084 -0.6493  0.0961 -0.2771
  896MOL0     C20827   3.964   7.078   4.206 -0.3442  0.7245 -0.2902
  896MOL0     O20828   3.911   7.156   4.310 -0.6125 -0.3363  0.4095
  896MOL0     C20829   3.837   7.267   4.275  0.3175 -0.2609 -0.4001
  896MOL0     C20830   3.728   7.271   4.185 -0.3157  0.0219  0.0724
  896MOL0     C20831   3.653   7.393   4.159 -0.5927 -0.4542  0.1063
  896MOL0     C20832   3.694   7.502   4.235 -0.6697  0.0781  0.0753
  896MOL0     O20833   3.640   7.634   4.230  0.2847 -0.5889 -0.9375
  896MOL0     C20834   3.545   7.653   4.123 -0.5075  0.3455 -0.3517
  896MOL0     C20835   3.526   7.800   4.096 -0.1400  0.2360  0.2361
  896MOL0     C20836   3.434   7.826   3.971  0.8539 -0.0410 -0.1721
  896MOL0     C20837   3.425   7.977   3.935 -0.7550 -0.3702 -0.2177
  896MOL0     C20838   3.350   8.012   3.813  1.1091  0.1134 -0.2326
  896MOL0     C20839   3.208   7.957   3.821 -0.1518  0.4700  0.2173
  896MOL0     C20840   3.131   7.998   3.696 -0.0102 -0.1047  0.3490
  896MOL0     C20841   3.179   7.906   3.577  0.2156 -0.1508 -0.3015
  896MOL0     N20842   3.147   7.976   3.451  0.5049 -0.5483 -0.5171
  896MOL0     C20843   3.020   8.008   3.410 -0.0165  0.1302 -0.0089
  896MOL0     C20844   3.036   8.041   3.276  0.2833 -0.2249  0.9618
  896MOL0     C20845   2.929   8.104   3.185 -0.4603  0.0701 -0.5348
  896MOL0     C20846   2.783   8.100   3.221  0.4911  0.5916 -0.1672
  896MOL0     C20847   2.695   8.165   3.118  1.2928  0.1715  0.2802
  896MOL0     C20848   2.549   8.149   3.161 -0.0120 -0.1203  0.3183
  896MOL0     O20849   2.474   8.211   3.052 -0.6395  0.7834  0.0062
  896MOL0     C20850   2.340   8.174   3.041 -0.6514 -0.9351  0.7296
  896MOL0     C20851   2.262   8.111   3.140  0.4670  0.6410  0.7460
  896MOL0     C20852   2.126   8.070   3.128  0.7378 -0.1755  0.4782
  896MOL0     C20853   2.069   7.993   3.242 -0.0767 -0.2134  0.2774
  896MOL0     C20854   2.058   8.103   3.009  0.2706  0.2236  0.4113
  896MOL0     C20855   1.915   8.068   2.975 -0.3764 -0.2595 -0.3725
  896MOL0     O20856   1.890   8.070   2.839  0.0261 -0.2552 -0.2738
  896MOL0     C20857   1.773   8.059   2.773  1.1676 -0.4904  1.2031
  896MOL0     C20858   1.686   7.956   2.801  0.2579  0.5079 -0.2450
  896MOL0     C20859   1.555   7.944   2.753 -0.1287  0.9934  0.2835
  896MOL0     C20860   1.518   8.029   2.654  0.2970 -0.6168  0.8540
  896MOL0     O20861   1.398   7.990   2.608 -0.1444 -0.2994  0.3426
  896MOL0     C20862   1.324   8.070   2.520  0.9163 -0.2302  0.3033
  896MOL0     C20863   1.183   8.012   2.518 -0.2475 -0.4206  0.2422
  896MOL0     C20864   1.095   8.106   2.432  0.3263 -0.2677  1.0365
  896MOL0     C20865   0.973   8.036   2.365  0.0346 -0.2210  0.1673
  896MOL0     C20866   0.895   8.126   2.267  0.4419  0.4531 -0.4179
  896MOL0     C20867   0.985   8.170   2.149  0.6905  0.1100 -0.2488
  896MOL0     C20868   0.902   8.214   2.033 -1.0213 -0.3815  0.9689
  896MOL0     C20869   0.982   8.242   1.905 -1.2502  0.1614  0.3233
  896MOL0    Cl20870   1.115   8.127   1.867  0.3166 -0.4197 -0.2716
  896MOL0     C20871   1.600   8.139   2.618  0.1299 -0.7443  0.2137
  896MOL0     C20872   1.713   8.156   2.688  0.1320  0.1591 -0.2526
  896MOL0     O20873   1.830   8.054   3.061 -0.7792 -0.2336 -0.9263
  896MOL0     C20874   2.135   8.177   2.913  0.1374 -0.4740 -0.1477
  896MOL0     C20875   2.272   8.211   2.931 -0.9338 -0.7052  0.1561
  896MOL0     N20876   3.167   8.015   3.236  0.2729  0.0677  0.5814
  896MOL0     N20877   3.231   7.990   3.349  0.9085  0.5578 -0.1739
  896MOL0     C20878   3.804   7.497   4.322 -0.2365  0.2016 -0.3000
  896MOL0     C20879   3.872   7.376   4.356  0.6580 -0.8392  0.2415
  896MOL0     C20880   4.057   6.976   4.260 -0.0745 -0.6520  0.9514
  896MOL0     C20881   4.098   6.955   4.389  0.1417  0.1820  0.3652
  896MOL0     C20882   4.184   6.860   4.432  0.1599  0.0385 -0.2767
  896MOL0     C20883   4.244   6.769   4.332 -0.3435 -0.1812 -0.5117
  896MOL0     O20884   4.340   6.679   4.361  0.4172  0.3444  0.6210
  896MOL0     C20885   4.337   6.628   4.493  0.0610  0.0783  0.8127
  896MOL0     C20886   4.451   6.532   4.513 -0.1802 -0.8052 -0.4800
  896MOL0     C20887   4.596   6.594   4.515  0.9181  0.8508  0.1953
  896MOL0     C20888   4.710   6.497   4.518  0.3559 -0.4403 -0.4167
  896MOL0     C20889   4.827   6.566   4.472 -0.3807 -0.3160  0.4758
  896MOL0     C20890   4.919   6.629   4.424  0.1826 -0.4398 -0.1788
  896MOL0     C20891   4.207   6.784   4.200 -0.3382 -1.0706 -0.8415
  896MOL0     C20892   4.111   6.883   4.166 -0.0475 -0.0500 -0.0851
  896MOL0     H20893   3.706   7.179   4.132 -0.2474  0.6245 -1.0262
  896MOL0     H20894   3.569   7.393   4.090 -0.3621 -1.1066 -0.1876
  896MOL0     H20895   3.577   7.603   4.031 -3.9033 -3.2313  0.1431
  896MOL0     H20896   3.447   7.617   4.154 -1.1906  1.7707 -0.8351
  896MOL0     H20897   3.493   7.846   4.190  0.3313  0.8641  0.1008
  896MOL0     H20898   3.617   7.855   4.069 -0.2801  1.7468  2.5317
  896MOL0     H20899   3.461   7.777   3.877 -3.8813 -0.6233 -1.4787
  896MOL0     H20900   3.339   7.773   3.983  1.5512 -0.7802  2.6713
  896MOL0     H20901   3.378   8.028   4.020 -0.2122 -1.0409  0.4952
  896MOL0     H20902   3.530   8.009   3.927 -0.4990 -1.0280  0.4203
  896MOL0     H20903   3.343   8.122   3.815  1.9673  0.1793 -0.5530
  896MOL0     H20904   3.404   7.984   3.723  0.4459  1.7251 -1.1917
  896MOL0     H20905   3.202   7.848   3.827 -1.8809  0.4267 -1.3989
  896MOL0     H20906   3.170   8.007   3.911  1.0113  0.0943  0.9348
  896MOL0     H20907   3.023   7.998   3.710  0.0960 -0.7529  1.3040
  896MOL0     H20908   3.145   8.104   3.671 -1.5543 -0.1407 -0.7603
  896MOL0     H20909   3.128   7.809   3.578 -1.5752  0.7461 -0.3766
  896MOL0     H20910   3.286   7.888   3.584  0.0973 -0.6532  0.2526
  896MOL0     H20911   2.926   7.997   3.465  0.1861  0.4655  0.4116
  896MOL0     H20912   2.957   8.210   3.176 -2.5908  0.6705 -0.6745
  896MOL0     H20913   2.938   8.060   3.085  0.4358  0.0779 -0.4682
  896MOL0     H20914   2.762   8.144   3.319  0.3665  1.0390 -0.3916
  896MOL0     H20915   2.752   7.995   3.224 -3.1029  1.5304  2.8081
  896MOL0     H20916   2.711   8.130   3.016 -1.0478  0.8481 -0.3743
  896MOL0     H20917   2.718   8.272   3.118 -1.6248  0.8666  0.9031
  896MOL0     H20918   2.532   8.202   3.256  1.8607 -0.2657  0.7611
  896MOL0     H20919   2.530   8.042   3.166  2.3799 -0.5528  1.3649
  896MOL0     H20920   2.302   8.082   3.236  2.1990 -0.8622 -0.3549
  896MOL0     H20921   2.029   7.904   3.192  1.3244 -0.0939 -1.1404
  896MOL0     H20922   2.146   7.972   3.316  1.2946  5.9199  1.1828
  896MOL0     H20923   1.990   8.043   3.299 -1.7411 -1.2229 -1.0521
  896MOL0     H20924   1.720   7.882   2.873 -0.7009  2.5942  2.5392
  896MOL0     H20925   1.493   7.864   2.794 -3.3756  2.5152 -1.3093
  896MOL0     H20926   1.322   8.176   2.549 -0.5832  0.1446 -1.0704
  896MOL0     H20927   1.363   8.065   2.418 -0.2165  4.0933 -0.5654
  896MOL0     H20928   1.178   7.912   2.475 -1.0271 -1.2895  2.2277
  896MOL0     H20929   1.149   8.007   2.622 -1.7017  0.5907 -0.1432
  896MOL0     H20930   1.156   8.160   2.359  0.6996  0.3604  1.8019
  896MOL0     H20931   1.059   8.189   2.493 -1.1927  2.2390 -2.8155
  896MOL0     H20932   1.005   7.949   2.306 -1.5349  0.3743 -1.6340
  896MOL0     H20933   0.906   7.989   2.438 -1.5501 -0.2216 -1.2515
  896MOL0     H20934   0.853   8.216   2.313 -1.9008 -0.4446 -0.6417
  896MOL0     H20935   0.809   8.069   2.228 -0.5483  1.6043  0.0026
  896MOL0     H20936   1.054   8.250   2.177  2.2994 -0.9025 -1.1674
  896MOL0     H20937   1.035   8.079   2.114  0.5639  0.8542 -2.5212
  896MOL0     H20938   0.833   8.296   2.057 -2.3363 -0.8458 -0.9758
  896MOL0     H20939   0.833   8.133   2.009 -1.0159 -0.3710  0.9152
  896MOL0     H20940   1.011   8.346   1.919 -0.6383  0.4158 -2.3105
  896MOL0     H20941   0.929   8.251   1.810  1.7861  3.1497 -1.3125
  896MOL0     H20942   1.582   8.217   2.546 -1.2388 -0.7570  0.5110
  896MOL0     H20943   1.766   8.250   2.701  0.7617 -0.4179  1.6802
  896MOL0     H20944   2.088   8.204   2.819  0.3322 -0.5875 -0.2779
  896MOL0     H20945   2.329   8.254   2.850  2.1953 -0.0532  2.5175
  896MOL0     H20946   3.829   7.584   4.383  1.2782  0.6421 -1.4836
  896MOL0     H20947   3.945   7.358   4.434 -1.1702 -1.3449  1.9539
  896MOL0     H20948   4.058   7.026   4.461  0.4529 -0.2217  0.9468
  896MOL0     H20949   4.205   6.870   4.538  1.0566  0.7493 -0.5018
  896MOL0     H20950   4.358   6.704   4.569  1.5622  0.0005  0.5164
  896MOL0     H20951   4.247   6.573   4.523  0.4137 -0.3478  1.1060
  896MOL0     H20952   4.447   6.451   4.440 -0.5998 -1.5622  0.3640
  896MOL0     H20953   4.427   6.490   4.611 -1.3978  2.2719  0.6818
  896MOL0     H20954   4.596   6.663   4.599 -2.5642 -2.6218  3.4278
  896MOL0     H20955   4.595   6.650   4.421  1.0576  1.4013  0.5184
  896MOL0     H20956   4.691   6.409   4.456  0.3753 -1.5275  1.0623
  896MOL0     H20957   4.713   6.458   4.621 -1.9177  1.7217  0.5588
  896MOL0     H20958   4.986   6.699   4.379 -1.2902  1.2493  0.1554
  896MOL0     H20959   4.256   6.729   4.119 -0.4413 -4.3275  1.1414
  896MOL0     H20960   4.079   6.891   4.063  2.6923 -1.0283 -1.1120
  897MOL0     O20961  10.544   9.284   2.085 -0.9185  0.4296 -0.7073
  897MOL0     C20962  10.641   9.212   2.051 -0.1595 -0.4226 -0.1175
  897MOL0     O20963  10.664   9.083   2.083  0.1292  0.3278  0.1734
  897MOL0     C20964  10.568   9.003   2.142  0.5603  0.2502  0.5944
  897MOL0     C20965  10.612   8.880   2.193 -0.4908 -0.8766  0.6284
  897MOL0     C20966  10.514   8.794   2.251 -0.0508 -0.2640 -0.1026
  897MOL0     C20967  10.374   8.814   2.234  0.3607  0.8785 -0.1105
  897MOL0     O20968  10.289   8.708   2.271  0.3336  0.5133  0.0290
  897MOL0     C20969  10.157   8.721   2.220  0.6715  0.5988  0.6439
  897MOL0     C20970  10.085   8.607   2.290  0.1139  0.0898 -0.2436
  897MOL0     C20971   9.934   8.630   2.293  0.8723  1.0993  0.3594
  897MOL0     C20972   9.877   8.511   2.361  0.5976  0.8816 -0.3391
  897MOL0     C20973   9.725   8.517   2.359 -0.1469 -0.0519  0.0526
  897MOL0     C20974   9.674   8.372   2.363 -0.2508  0.4020  0.3781
  897MOL0     C20975   9.520   8.369   2.385 -0.1887  0.1368 -0.1228
  897MOL0     C20976   9.488   8.216   2.412  0.4187  0.2183 -0.0824
  897MOL0     N20977   9.341   8.214   2.425 -0.3880  0.1494  0.2098
  897MOL0     C20978   9.263   8.181   2.320 -0.0487 -0.0180 -0.3768
  897MOL0     C20979   9.138   8.157   2.372 -0.0140  0.0220 -0.7624
  897MOL0     C20980   9.011   8.133   2.312  0.5796  0.2421  0.4587
  897MOL0     C20981   8.923   8.259   2.313  0.7746 -1.0448  0.5613
  897MOL0     C20982   8.777   8.231   2.303 -0.0205 -0.4894  0.1513
  897MOL0     C20983   8.715   8.169   2.431  0.5182 -0.2069 -0.2625
  897MOL0     O20984   8.575   8.138   2.409 -0.8475  0.6112 -0.0771
  897MOL0     C20985   8.503   8.063   2.495  0.0314 -0.3851 -0.2644
  897MOL0     C20986   8.368   8.091   2.492  0.0527 -0.6763  0.3485
  897MOL0     C20987   8.272   8.034   2.577  0.4313  0.2318 -0.4916
  897MOL0     C20988   8.130   8.086   2.568 -0.1958 -0.2894 -0.0380
  897MOL0     C20989   8.321   7.928   2.665 -0.3470 -0.5829  0.7800
  897MOL0     C20990   8.236   7.853   2.761 -0.4969 -0.3914 -0.1591
  897MOL0     O20991   8.283   7.731   2.812  0.0790  0.8758  0.2474
  897MOL0     C20992   8.216   7.682   2.923  0.2864  0.0672 -0.7046
  897MOL0     C20993   8.283   7.702   3.045  0.2037 -0.0673 -0.5552
  897MOL0     C20994   8.225   7.658   3.165  0.7848 -1.0637  0.4569
  897MOL0     C20995   8.099   7.597   3.164 -0.1186  0.1723  0.4149
  897MOL0     O20996   8.030   7.557   3.272  0.3513 -0.7051  0.1734
  897MOL0     C20997   8.102   7.466   3.363 -0.7548  1.0622 -0.5376
  897MOL0     C20998   8.003   7.367   3.418 -0.7086  0.4131 -0.7746
  897MOL0     C20999   7.958   7.259   3.321  0.6219  0.4678  0.1329
  897MOL0     C21000   7.872   7.156   3.402 -0.3875 -0.8856  0.0991
  897MOL0     C21001   7.748   7.117   3.320 -1.6309  0.0994  0.6225
  897MOL0     C21002   7.651   7.034   3.407  0.3647 -0.0257  0.5278
  897MOL0     C21003   7.537   6.986   3.315  0.7868  0.6738 -0.4804
  897MOL0     C21004   7.416   6.923   3.389  0.1579  0.3405  0.0424
  897MOL0    Cl21005   7.478   6.789   3.483 -0.2109 -0.0836  0.0666
  897MOL0     C21006   8.027   7.592   3.044  0.0994  0.5127  0.4168
  897MOL0     C21007   8.086   7.641   2.927 -0.3491  0.1262  0.1972
  897MOL0     O21008   8.126   7.897   2.775  0.0639 -0.1815  0.2227
  897MOL0     C21009   8.460   7.895   2.649  0.5378 -0.0645  0.0375
  897MOL0     C21010   8.550   7.967   2.574 -0.1200  0.1155 -0.2811
  897MOL0     N21011   9.158   8.182   2.514  0.5904  0.3989  0.5975
  897MOL0     N21012   9.278   8.214   2.541 -0.1361 -0.0436 -0.3794
  897MOL0     C21013  10.336   8.940   2.187  0.1791  0.5633  0.5594
  897MOL0     C21014  10.430   9.028   2.136  0.7148 -0.5375 -0.1600
  897MOL0     C21015  10.748   9.292   1.986  0.3115 -0.0036  0.3696
  897MOL0     C21016  10.880   9.241   1.983 -0.5890 -0.5697 -0.1521
  897MOL0     C21017  10.980   9.314   1.918 -0.2815  0.4852  0.4311
  897MOL0     C21018  10.947   9.439   1.863 -0.2461 -0.0385 -0.1371
  897MOL0     O21019  11.056   9.512   1.807  0.5823  0.1157 -0.0530
  897MOL0     C21020  11.045   9.634   1.724  0.6002  0.4352  0.0580
  897MOL0     C21021  11.162   9.628   1.629 -0.5429  0.6546 -0.2732
  897MOL0     C21022  11.296   9.641   1.705  0.7044 -0.0225 -0.6340
  897MOL0     C21023  11.392   9.726   1.627  0.0986 -0.0184 -0.5392
  897MOL0     C21024  11.462   9.659   1.516 -0.2971  0.5739  0.1548
  897MOL0     C21025  11.506   9.594   1.421  0.2104  0.4707 -0.4586
  897MOL0     C21026  10.821   9.494   1.856  0.5577 -0.5428  0.1475
  897MOL0     C21027  10.722   9.417   1.920  0.3707  0.2431 -0.4240
  897MOL0     H21028  10.718   8.868   2.210 -0.2481  0.6495  0.2618
  897MOL0     H21029  10.527   8.691   2.283  0.8628  0.1635  0.9789
  897MOL0     H21030  10.107   8.816   2.241 -1.5832 -0.4081  0.1122
  897MOL0     H21031  10.166   8.711   2.111 -0.6775 -0.4951  0.6049
  897MOL0     H21032  10.092   8.510   2.240 -0.3651 -0.3314  0.4778
  897MOL0     H21033  10.114   8.593   2.395 -2.4791 -3.7249  0.1792
  897MOL0     H21034   9.899   8.722   2.340 -0.3274  1.6467 -1.5019
  897MOL0     H21035   9.896   8.635   2.191  1.0497 -0.6117  0.1750
  897MOL0     H21036   9.899   8.424   2.298 -0.8474 -0.8279  1.3781
  897MOL0     H21037   9.916   8.501   2.463 -0.4339  2.3863  0.2391
  897MOL0     H21038   9.690   8.576   2.444  0.5398  0.1933  0.1670
  897MOL0     H21039   9.676   8.566   2.274 -1.6250  0.6324  1.2574
  897MOL0     H21040   9.700   8.326   2.267 -1.5937  1.8016 -0.6957
  897MOL0     H21041   9.715   8.308   2.442 -3.1982 -0.1655  1.5852
  897MOL0     H21042   9.502   8.429   2.474  1.7315 -1.3462  1.3546
  897MOL0     H21043   9.468   8.409   2.297  2.9212  0.1426 -2.1161
  897MOL0     H21044   9.522   8.170   2.505  0.0661 -1.8862 -0.9436
  897MOL0     H21045   9.528   8.171   2.320 -0.1854  1.3553 -0.9376
  897MOL0     H21046   9.295   8.191   2.217  1.6547  0.2888  0.1527
  897MOL0     H21047   9.028   8.087   2.214 -1.5140  0.7021 -0.1701
  897MOL0     H21048   8.969   8.045   2.361  0.1421 -0.8896 -1.7901
  897MOL0     H21049   8.950   8.323   2.228 -2.9571  1.8851  1.3117
  897MOL0     H21050   8.931   8.328   2.397 -0.4739 -1.1807  0.8105
  897MOL0     H21051   8.756   8.164   2.218 -1.5256 -1.8474  1.5228
  897MOL0     H21052   8.728   8.328   2.289 -0.2613 -0.9598 -3.4001
  897MOL0     H21053   8.733   8.242   2.510  0.5964 -0.8376  0.3137
  897MOL0     H21054   8.783   8.086   2.451  3.4212  1.6250 -1.8246
  897MOL0     H21055   8.331   8.157   2.414  0.0132 -2.6457 -1.3761
  897MOL0     H21056   8.059   8.003   2.565 -0.6332  0.0787  0.0343
  897MOL0     H21057   8.105   8.150   2.653  1.0599  0.4815 -0.2197
  897MOL0     H21058   8.113   8.149   2.481  2.3316  0.3044 -0.1913
  897MOL0     H21059   8.385   7.740   3.047  0.1868 -0.0275 -0.4413
  897MOL0     H21060   8.279   7.676   3.258 -0.0063  2.5469  0.3537
  897MOL0     H21061   8.178   7.405   3.314 -2.3497 -1.3618 -0.1349
  897MOL0     H21062   8.142   7.526   3.445  0.1661  0.3295 -0.4431
  897MOL0     H21063   8.057   7.314   3.497 -1.5036 -0.3575 -0.7306
  897MOL0     H21064   7.918   7.412   3.470  0.3978 -1.8901  3.5156
  897MOL0     H21065   8.047   7.218   3.272  0.6634  1.4112 -0.6008
  897MOL0     H21066   7.894   7.307   3.247 -2.6164 -1.5286  1.3808
  897MOL0     H21067   7.940   7.072   3.418  1.3365  0.2417 -0.8995
  897MOL0     H21068   7.837   7.215   3.487 -0.9583  0.7957 -1.2435
  897MOL0     H21069   7.776   7.059   3.232 -0.5375  0.8806  0.4415
  897MOL0     H21070   7.701   7.205   3.276  0.3378  0.1709 -1.5196
  897MOL0     H21071   7.698   6.938   3.432 -2.0543 -2.4227 -3.1240
  897MOL0     H21072   7.620   7.101   3.488  0.4536 -0.9893  1.3733
  897MOL0     H21073   7.575   6.899   3.261 -0.4132 -0.6225  0.6999
  897MOL0     H21074   7.506   7.070   3.251 -0.0152  1.6408  1.1180
  897MOL0     H21075   7.348   6.888   3.311  2.7759 -2.7467 -1.0933
  897MOL0     H21076   7.367   6.988   3.462 -0.1912  0.5638 -0.3940
  897MOL0     H21077   7.929   7.547   3.041  0.3508 -0.0575  0.5211
  897MOL0     H21078   8.026   7.634   2.836 -0.6373 -2.0163  0.5046
  897MOL0     H21079   8.495   7.807   2.703  0.6739  1.7277  3.0763
  897MOL0     H21080   8.649   7.924   2.562 -1.0086 -1.8934 -0.9161
  897MOL0     H21081  10.230   8.963   2.188 -0.1910 -0.9059 -1.0678
  897MOL0     H21082  10.389   9.125   2.110 -0.7931 -0.9329  0.6005
  897MOL0     H21083  10.909   9.145   2.025  0.7017 -0.5842 -1.0037
  897MOL0     H21084  11.079   9.271   1.909 -0.1756  0.2973  2.1941
  897MOL0     H21085  10.951   9.627   1.668  0.8876  1.8117 -0.6641
  897MOL0     H21086  11.042   9.727   1.782 -1.9821 -0.6140  1.7459
  897MOL0     H21087  11.141   9.697   1.547 -0.6741  2.2103  1.0045
  897MOL0     H21088  11.171   9.530   1.581  1.9063  1.3919 -1.5170
  897MOL0     H21089  11.333   9.540   1.725 -0.3279 -0.7332 -2.1011
  897MOL0     H21090  11.286   9.684   1.804 -0.3651 -3.3871  0.8652
  897MOL0     H21091  11.466   9.767   1.696 -1.4978  0.9302  0.6752
  897MOL0     H21092  11.337   9.814   1.593  0.3481  0.7144  0.8801
  897MOL0     H21093  11.529   9.536   1.334 -3.1964 -0.5884 -0.7938
  897MOL0     H21094  10.793   9.587   1.807  0.7050 -0.2870  0.5444
  897MOL0     H21095  10.617   9.441   1.912 -0.6556 -2.8846  1.8274
  898MOL0     O21096   8.769   8.117   6.078  0.0077 -0.4619 -0.7561
  898MOL0     C21097   8.841   8.056   6.004  0.4735  0.9078  0.1992
  898MOL0     O21098   8.806   7.947   5.938 -0.2916  0.2482  0.0019
  898MOL0     C21099   8.677   7.895   5.943  0.6153 -0.0492  0.3232
  898MOL0     C21100   8.664   7.754   5.980  0.2847 -0.4883 -0.8125
  898MOL0     C21101   8.545   7.690   5.980 -0.3251  0.2967 -1.0223
  898MOL0     C21102   8.431   7.755   5.934  0.9006 -0.5101  0.3444
  898MOL0     O21103   8.309   7.697   5.917 -0.0628 -0.1744  0.3812
  898MOL0     C21104   8.316   7.553   5.911 -0.4408 -0.0045 -0.5028
  898MOL0     C21105   8.198   7.478   5.857  0.7893  0.0488 -0.3768
  898MOL0     C21106   8.061   7.521   5.909 -0.3068  0.7479 -0.3597
  898MOL0     C21107   7.961   7.450   5.821 -0.1577  0.4758 -0.8315
  898MOL0     C21108   7.821   7.515   5.840 -0.4189  0.0121 -0.4314
  898MOL0     C21109   7.737   7.438   5.938 -0.4082 -0.0018 -0.3487
  898MOL0     C21110   7.601   7.509   5.955  0.6061 -0.0256 -0.2414
  898MOL0     C21111   7.502   7.404   6.024  0.7163 -0.2548  0.6920
  898MOL0     N21112   7.437   7.309   5.929 -0.5422  0.4909 -0.8371
  898MOL0     C21113   7.410   7.338   5.801  0.6249  0.2860  1.1633
  898MOL0     C21114   7.333   7.233   5.748  0.3512  0.2556  0.1076
  898MOL0     C21115   7.243   7.229   5.635  0.0820 -1.4694  0.1598
  898MOL0     C21116   7.100   7.252   5.686  0.3534 -0.5647  0.2064
  898MOL0     C21117   7.038   7.109   5.709  0.0274 -0.3288  0.9068
  898MOL0     C21118   6.886   7.107   5.735  0.1047  0.1354 -0.3384
  898MOL0     O21119   6.840   7.133   5.869  0.0775 -0.0694 -0.2126
  898MOL0     C21120   6.714   7.112   5.896  0.4678 -0.1429 -0.5133
  898MOL0     C21121   6.674   7.116   6.034  0.0276  0.5812 -0.3701
  898MOL0     C21122   6.539   7.092   6.074 -0.3553  0.2585  1.0943
  898MOL0     C21123   6.515   7.103   6.220  0.2551  0.2551  0.0920
  898MOL0     C21124   6.445   7.053   5.973  0.1230  0.1218 -0.4029
  898MOL0     C21125   6.301   7.030   5.999  0.5044  0.2053  0.4309
  898MOL0     O21126   6.215   7.050   5.893  0.4290  0.1303 -0.1233
  898MOL0     C21127   6.077   7.066   5.921 -0.6303  0.2058  0.0517
  898MOL0     C21128   6.018   7.116   6.048  0.0294  0.0208  1.0007
  898MOL0     C21129   5.876   7.122   6.052  0.3065  0.0977  0.5469
  898MOL0     C21130   5.794   7.074   5.947  0.4360 -0.2615  0.0048
  898MOL0     O21131   5.665   7.088   5.969  0.6134 -0.2176  0.0631
  898MOL0     C21132   5.577   6.972   5.963  0.0744  0.3840 -0.0593
  898MOL0     C21133   5.437   7.029   6.002  0.5856 -0.4945  0.2927
  898MOL0     C21134   5.436   7.083   6.144 -0.7910 -0.7142 -0.1683
  898MOL0     C21135   5.298   7.147   6.181  0.2761 -0.0021  0.4617
  898MOL0     C21136   5.195   7.042   6.214 -0.4222 -0.3166  0.2418
  898MOL0     C21137   5.077   7.095   6.291 -0.3021 -0.8126 -0.5315
  898MOL0     C21138   4.977   6.983   6.333 -0.3349  0.1226  0.8154
  898MOL0     C21139   4.874   7.030   6.427 -0.3315  0.4562 -0.2980
  898MOL0    Cl21140   4.786   6.878   6.459  0.3878 -0.1961  0.6824
  898MOL0     C21141   5.861   7.029   5.829  0.5499 -0.7724 -0.6426
  898MOL0     C21142   5.996   7.036   5.812  0.2255  0.1397  0.5291
  898MOL0     O21143   6.266   6.989   6.110 -0.3744  0.3104  0.5613
  898MOL0     C21144   6.486   7.061   5.841  0.9274  0.7526  0.1771
  898MOL0     C21145   6.611   7.087   5.802 -0.1559  0.9075  0.6781
  898MOL0     N21146   7.326   7.141   5.849  0.3793  0.3034 -0.3390
  898MOL0     N21147   7.394   7.180   5.949  0.5249  0.5555  0.1304
  898MOL0     C21148   8.438   7.894   5.899  0.7456  0.0464  0.0617
  898MOL0     C21149   8.561   7.958   5.898 -0.1236 -0.3312  0.0976
  898MOL0     C21150   8.979   8.100   5.967  0.5285  0.0935 -0.1443
  898MOL0     C21151   9.073   8.011   5.908  1.0046 -0.2637  0.5109
  898MOL0     C21152   9.203   8.047   5.886  0.0592 -0.6391  0.1388
  898MOL0     C21153   9.241   8.181   5.903  0.2141 -0.1074 -0.0112
  898MOL0     O21154   9.374   8.226   5.889  0.2361  0.3585 -0.3039
  898MOL0     C21155   9.453   8.158   5.790  0.7239  0.1079 -0.3934
  898MOL0     C21156   9.552   8.267   5.750  0.5323 -0.0572 -1.1593
  898MOL0     C21157   9.639   8.314   5.867  0.0756 -0.1733 -0.1390
  898MOL0     C21158   9.766   8.384   5.823 -0.1263 -0.0106  0.2538
  898MOL0     C21159   9.873   8.392   5.922 -0.0080 -0.2887 -1.0455
  898MOL0     C21160   9.958   8.379   6.013  0.5512 -1.0092  0.3452
  898MOL0     C21161   9.144   8.276   5.943 -0.0713 -0.1128 -0.6464
  898MOL0     C21162   9.013   8.237   5.979  0.4458  1.1498  0.9066
  898MOL0     H21163   8.757   7.699   5.991 -0.8453 -2.1656  0.7913
  898MOL0     H21164   8.535   7.587   6.012 -0.6965  1.5912  3.8415
  898MOL0     H21165   8.398   7.523   5.846 -2.7277 -2.8022 -2.3508
  898MOL0     H21166   8.330   7.527   6.016  0.3707  3.1802  0.2910
  898MOL0     H21167   8.205   7.495   5.749 -1.0085  1.0821 -0.3706
  898MOL0     H21168   8.214   7.371   5.874  3.1461  0.4562  0.2143
  898MOL0     H21169   8.062   7.493   6.015  0.7153  1.2291 -0.2249
  898MOL0     H21170   8.054   7.630   5.907  2.2459  0.9546 -1.2990
  898MOL0     H21171   7.991   7.478   5.719  1.8805 -0.8223 -0.6448
  898MOL0     H21172   7.965   7.342   5.833  0.3251  0.7999  3.9493
  898MOL0     H21173   7.827   7.616   5.881 -0.2592  0.6557 -2.0025
  898MOL0     H21174   7.768   7.513   5.744 -2.0428  2.5069  0.3057
  898MOL0     H21175   7.715   7.336   5.904 -2.5110 -0.4199  1.9255
  898MOL0     H21176   7.785   7.427   6.036  1.5506  0.5712 -1.2099
  898MOL0     H21177   7.610   7.603   6.011  1.7169  0.3307 -0.9943
  898MOL0     H21178   7.562   7.520   5.854  1.5465 -2.2966 -0.9124
  898MOL0     H21179   7.423   7.463   6.072  1.4069  0.9115  0.4580
  898MOL0     H21180   7.562   7.349   6.097  1.2748  1.4526  1.5980
  898MOL0     H21181   7.446   7.413   5.730  0.0844 -1.5231 -1.1490
  898MOL0     H21182   7.266   7.317   5.574 -0.5141 -0.1991  1.6921
  898MOL0     H21183   7.264   7.153   5.559  0.7967 -1.4270  0.3083
  898MOL0     H21184   7.054   7.309   5.605 -2.0409 -0.1473  1.7623
  898MOL0     H21185   7.100   7.312   5.777  1.5410  1.7686 -1.2448
  898MOL0     H21186   7.087   7.069   5.798  3.6376  2.0522  0.2006
  898MOL0     H21187   7.061   7.060   5.614 -0.4703  2.2283 -0.6341
  898MOL0     H21188   6.859   7.006   5.702  0.3388 -0.1922  0.4478
  898MOL0     H21189   6.838   7.173   5.662  1.3646 -0.3628 -1.6621
  898MOL0     H21190   6.745   7.141   6.112  0.3019  2.5468 -1.1960
  898MOL0     H21191   6.527   7.008   6.272 -0.5259  1.1900  2.0816
  898MOL0     H21192   6.570   7.182   6.273  0.7950  0.2027 -0.3846
  898MOL0     H21193   6.413   7.136   6.242  0.3118  1.1555 -0.9231
  898MOL0     H21194   6.075   7.149   6.135 -0.9890 -0.2753  1.8008
  898MOL0     H21195   5.822   7.144   6.144 -0.4047  1.6583 -0.2007
  898MOL0     H21196   5.559   6.930   5.863 -1.0039 -0.1243  0.3231
  898MOL0     H21197   5.608   6.894   6.033  0.4085  2.4526  2.1990
  898MOL0     H21198   5.423   7.113   5.933  1.5303 -0.8210 -0.3067
  898MOL0     H21199   5.355   6.961   5.975 -0.2295  1.8659 -4.1871
  898MOL0     H21200   5.522   7.149   6.159 -1.4918  0.7331 -1.9942
  898MOL0     H21201   5.443   6.995   6.207 -0.9628 -0.3685  0.3399
  898MOL0     H21202   5.322   7.202   6.272  1.2310  2.0737 -0.9707
  898MOL0     H21203   5.251   7.217   6.111  0.8551  1.2927  1.3398
  898MOL0     H21204   5.236   6.954   6.265 -1.8674 -1.2361 -0.1336
  898MOL0     H21205   5.157   7.003   6.119  1.2481 -0.1018 -0.5531
  898MOL0     H21206   5.099   7.145   6.385 -0.0368 -1.7307 -0.0891
  898MOL0     H21207   5.028   7.168   6.226 -0.1000 -0.6866 -0.5438
  898MOL0     H21208   5.035   6.902   6.378  1.3706  1.1757  0.6298
  898MOL0     H21209   4.930   6.926   6.252  0.1908 -2.9932  2.5369
  898MOL0     H21210   4.815   7.104   6.371  1.3908  0.7998 -1.7329
  898MOL0     H21211   4.924   7.079   6.511 -0.7197 -1.1142  0.8886
  898MOL0     H21212   5.800   6.993   5.747  0.2544 -0.0157 -0.7667
  898MOL0     H21213   6.023   7.007   5.711 -2.0024  3.5457 -1.2462
  898MOL0     H21214   6.412   7.035   5.765 -3.1929  0.8692  3.7943
  898MOL0     H21215   6.621   7.089   5.694 -2.7559  1.0569  0.3846
  898MOL0     H21216   8.352   7.949   5.863  0.9416  0.4266  0.1638
  898MOL0     H21217   8.569   8.062   5.867  0.1453 -0.4111 -0.1070
  898MOL0     H21218   9.039   7.912   5.878 -2.0984  0.6137  0.7875
  898MOL0     H21219   9.263   7.967   5.844 -0.5533  0.1074 -2.3619
  898MOL0     H21220   9.513   8.072   5.821  1.1063 -0.0253 -1.4798
  898MOL0     H21221   9.380   8.137   5.711  1.4814 -0.9644 -0.8281
  898MOL0     H21222   9.503   8.363   5.731 -1.3422 -0.4505  1.2332
  898MOL0     H21223   9.624   8.235   5.674  0.0013 -3.0697 -0.5250
  898MOL0     H21224   9.678   8.223   5.912 -1.0271 -1.2331 -1.2728
  898MOL0     H21225   9.591   8.386   5.934  0.3018  1.5765 -1.7539
  898MOL0     H21226   9.740   8.483   5.785 -3.4494 -1.2160 -0.9500
  898MOL0     H21227   9.808   8.334   5.736  0.0092  1.3117 -0.4595
  898MOL0     H21228  10.018   8.364   6.101 -3.0782  0.8693  3.4679
  898MOL0     H21229   9.173   8.376   5.974  2.1587 -0.2981 -1.9039
  898MOL0     H21230   8.947   8.313   6.019 -0.2037  1.5435 -0.8510
  899MOL0     O21231  10.064   2.976   5.663 -0.2147 -0.6447 -0.3859
  899MOL0     C21232  10.127   3.008   5.561 -0.2640  0.1765 -0.2058
  899MOL0     O21233  10.074   3.013   5.433  0.2338  0.2379 -0.3043
  899MOL0     C21234   9.953   2.944   5.407  0.2156 -0.3640 -0.2850
  899MOL0     C21235   9.961   2.849   5.300 -0.5664 -0.3128  0.4440
  899MOL0     C21236   9.845   2.786   5.248 -0.1759  0.3554 -0.4958
  899MOL0     C21237   9.727   2.802   5.313  0.4211  0.2847  0.8306
  899MOL0     O21238   9.610   2.734   5.287 -0.4919 -0.3032  0.2095
  899MOL0     C21239   9.576   2.710   5.152  0.1383 -0.4632 -0.2683
  899MOL0     C21240   9.535   2.838   5.068 -0.2707  0.2806  0.6927
  899MOL0     C21241   9.383   2.861   5.060 -0.5192  0.1385  0.4013
  899MOL0     C21242   9.337   2.897   5.196  0.1301  0.2110 -0.2535
  899MOL0     C21243   9.197   2.958   5.195  0.1451 -0.1522 -0.4414
  899MOL0     C21244   9.188   3.104   5.140  0.3758 -0.1834 -0.0844
  899MOL0     C21245   9.056   3.180   5.151  0.2068  0.9653 -0.3064
  899MOL0     C21246   8.959   3.144   5.039  0.0374 -0.6000 -0.1736
  899MOL0     N21247   8.841   3.222   5.056  0.7459 -0.6986 -0.0031
  899MOL0     C21248   8.835   3.350   5.017  0.2293  0.5165  0.8125
  899MOL0     C21249   8.705   3.391   5.046  0.0762 -0.6947  0.0539
  899MOL0     C21250   8.650   3.531   5.040 -0.1878  0.1141 -0.4510
  899MOL0     C21251   8.511   3.530   4.982  0.0895  0.2144  0.4969
  899MOL0     C21252   8.462   3.665   4.947 -0.2630  0.4564 -0.6907
  899MOL0     C21253   8.372   3.673   4.825  0.1816 -0.5948  0.5971
  899MOL0     O21254   8.368   3.812   4.794 -0.2573 -0.9678  0.1361
  899MOL0     C21255   8.283   3.847   4.694 -0.6291  0.3045  0.2228
  899MOL0     C21256   8.319   3.832   4.560 -0.6734 -1.1049 -0.6726
  899MOL0     C21257   8.234   3.862   4.458  0.2705  0.1222  0.2778
  899MOL0     C21258   8.279   3.840   4.308  0.6815  0.1161  0.3099
  899MOL0     C21259   8.108   3.921   4.490  0.0568  0.9148  0.0347
  899MOL0     C21260   7.996   3.948   4.393  0.0283 -0.4161 -0.0479
  899MOL0     O21261   7.868   3.957   4.445 -0.0333  0.3918  0.2242
  899MOL0     C21262   7.771   4.023   4.377  0.4772 -0.0929 -0.2313
  899MOL0     C21263   7.705   3.974   4.261 -0.1133 -0.1223  0.0903
  899MOL0     C21264   7.583   4.034   4.223 -0.0891 -0.6036  0.1751
  899MOL0     C21265   7.518   4.135   4.296 -0.0390  0.0688 -0.0962
  899MOL0     O21266   7.397   4.176   4.259 -0.1871  0.1336  0.1512
  899MOL0     C21267   7.380   4.309   4.215  0.4025  0.2249  0.6124
  899MOL0     C21268   7.474   4.344   4.102  0.2910  0.4875  0.3203
  899MOL0     C21269   7.442   4.486   4.047  0.2571 -0.8445  0.0713
  899MOL0     C21270   7.513   4.503   3.909  0.0155  0.3147 -0.2399
  899MOL0     C21271   7.496   4.638   3.848  0.8487 -0.1582 -0.6509
  899MOL0     C21272   7.591   4.666   3.733 -0.0987 -0.2281  0.5806
  899MOL0     C21273   7.735   4.694   3.779 -0.6882  0.1072  0.7003
  899MOL0     C21274   7.837   4.694   3.672 -0.5064  0.1961 -0.3100
  899MOL0    Cl21275   7.797   4.812   3.549 -0.3208 -0.0486  0.0828
  899MOL0     C21276   7.574   4.165   4.422  1.0376  0.3864 -0.6720
  899MOL0     C21277   7.704   4.114   4.453 -0.4002  0.0945 -0.0063
  899MOL0     O21278   8.028   3.961   4.278  0.8923 -0.5594 -0.4586
  899MOL0     C21279   8.076   3.933   4.629  0.6875 -0.2631  0.9407
  899MOL0     C21280   8.160   3.891   4.731 -0.2481 -0.0754  0.7851
  899MOL0     N21281   8.643   3.282   5.115 -0.0634 -0.2783 -0.5121
  899MOL0     N21282   8.726   3.183   5.119  0.3518 -0.0681 -0.1206
  899MOL0     C21283   9.714   2.888   5.422  0.0392  0.0494  0.3538
  899MOL0     C21284   9.828   2.965   5.459  0.0061  0.0976  0.7197
  899MOL0     C21285  10.264   3.057   5.586  0.2046 -0.6183 -0.1953
  899MOL0     C21286  10.357   3.064   5.479 -0.4785 -0.1713  0.1688
  899MOL0     C21287  10.492   3.099   5.507 -0.7073  1.3206  0.2108
  899MOL0     C21288  10.534   3.136   5.631  0.5496 -0.6665  0.8342
  899MOL0     O21289  10.662   3.178   5.639  0.4999  0.1558  0.3400
  899MOL0     C21290  10.713   3.237   5.763  0.6212  0.3739  0.3073
  899MOL0     C21291  10.874   3.263   5.761 -0.9758  0.5979  0.4272
  899MOL0     C21292  10.912   3.379   5.664  0.0407  0.2124  0.0679
  899MOL0     C21293  10.890   3.352   5.508 -0.3682  0.2895  0.2258
  899MOL0     C21294  11.022   3.353   5.439 -0.1839 -0.2621  0.2282
  899MOL0     C21295  11.131   3.330   5.389  0.0004  0.0499  0.1402
  899MOL0     C21296  10.440   3.146   5.733  0.3080  0.3757  0.5032
  899MOL0     C21297  10.308   3.104   5.716 -0.3751 -0.3470  0.2855
  899MOL0     H21298  10.058   2.843   5.250  1.7752  0.3340  4.4590
  899MOL0     H21299   9.856   2.731   5.154 -1.1363 -0.9445  0.1157
  899MOL0     H21300   9.660   2.663   5.099 -0.0292 -0.1543 -0.8155
  899MOL0     H21301   9.487   2.648   5.146  0.9656 -1.5917 -1.6252
  899MOL0     H21302   9.570   2.924   5.125 -0.9966  1.0484  0.0157
  899MOL0     H21303   9.568   2.835   4.964 -1.9359 -0.4073  0.1471
  899MOL0     H21304   9.375   2.942   4.987 -0.9218  0.6410  0.9905
  899MOL0     H21305   9.327   2.776   5.022 -0.1625 -0.8701  2.0344
  899MOL0     H21306   9.333   2.805   5.254  0.9772  0.3135 -0.0222
  899MOL0     H21307   9.408   2.965   5.242 -0.3360  1.7078 -1.6300
  899MOL0     H21308   9.131   2.895   5.134  1.9148 -0.2713 -2.3249
  899MOL0     H21309   9.167   2.974   5.299  0.4682  0.4108 -0.4270
  899MOL0     H21310   9.263   3.166   5.191  0.5948 -0.5510  0.0378
  899MOL0     H21311   9.228   3.111   5.038  0.6465  0.8661  0.0717
  899MOL0     H21312   9.016   3.160   5.251  1.8196 -0.2568  0.1244
  899MOL0     H21313   9.084   3.285   5.137  1.9483  0.4768 -0.7032
  899MOL0     H21314   8.932   3.039   5.053 -1.4881 -0.6086 -2.5869
  899MOL0     H21315   8.996   3.165   4.938 -0.7485 -1.3247 -0.6341
  899MOL0     H21316   8.914   3.408   4.971  1.5839 -0.0819  2.2689
  899MOL0     H21317   8.645   3.589   5.133 -2.4916  1.2816 -1.2167
  899MOL0     H21318   8.716   3.588   4.974  1.4563  1.5358  2.2387
  899MOL0     H21319   8.444   3.488   5.058 -0.9934 -0.5979 -0.8560
  899MOL0     H21320   8.517   3.460   4.898  1.1560  0.0444  0.7031
  899MOL0     H21321   8.549   3.731   4.950  2.6420 -3.0933 -0.6520
  899MOL0     H21322   8.394   3.687   5.030 -0.4593 -0.2936 -0.6454
  899MOL0     H21323   8.269   3.639   4.840  0.2722 -0.6653  1.0574
  899MOL0     H21324   8.411   3.616   4.740 -1.4101 -2.2638  0.9199
  899MOL0     H21325   8.418   3.797   4.530  0.7144  2.1551 -0.3224
  899MOL0     H21326   8.299   3.939   4.267 -0.1892 -0.3667 -1.3793
  899MOL0     H21327   8.372   3.783   4.311  0.1235 -0.8220  2.6755
  899MOL0     H21328   8.197   3.796   4.250  1.8864 -2.2244  0.2788
  899MOL0     H21329   7.756   3.898   4.204 -0.0728  0.8418 -1.2079
  899MOL0     H21330   7.524   4.001   4.137  0.1286  0.9737 -0.6235
  899MOL0     H21331   7.278   4.314   4.175  1.6753  1.2923 -2.8947
  899MOL0     H21332   7.390   4.390   4.288  1.4537  1.0577 -0.4069
  899MOL0     H21333   7.576   4.353   4.140 -0.5499  2.0740  2.3858
  899MOL0     H21334   7.460   4.269   4.024  0.1594 -1.8382  2.4845
  899MOL0     H21335   7.485   4.556   4.119 -2.3518  0.3273  0.5921
  899MOL0     H21336   7.336   4.510   4.037  0.6617  1.7767  1.2013
  899MOL0     H21337   7.620   4.480   3.913  0.0337  0.1448 -1.3227
  899MOL0     H21338   7.480   4.431   3.833 -0.7795  0.2959  0.1088
  899MOL0     H21339   7.512   4.715   3.924  1.4326 -1.3350  0.4602
  899MOL0     H21340   7.393   4.650   3.813  0.6749  0.4040  0.0247
  899MOL0     H21341   7.585   4.578   3.668 -0.5063 -2.5624  3.5533
  899MOL0     H21342   7.561   4.756   3.678  1.0448 -1.1694 -1.7162
  899MOL0     H21343   7.779   4.632   3.858  1.5870  3.9395  2.7449
  899MOL0     H21344   7.738   4.792   3.828 -1.4133 -0.1915  1.3562
  899MOL0     H21345   7.864   4.599   3.626 -3.3315  0.0825 -1.9412
  899MOL0     H21346   7.925   4.742   3.717 -0.6671 -0.3520  0.6124
  899MOL0     H21347   7.516   4.230   4.485 -0.1256  1.4990 -2.7759
  899MOL0     H21348   7.750   4.152   4.543 -0.3545  1.8908 -0.7492
  899MOL0     H21349   7.975   3.965   4.652  0.6152 -1.0490  1.7826
  899MOL0     H21350   8.122   3.895   4.832  0.4908 -2.5679  1.2124
  899MOL0     H21351   9.628   2.881   5.487 -0.8048 -1.7951 -0.8708
  899MOL0     H21352   9.822   3.038   5.539  1.5377 -0.2671  1.2116
  899MOL0     H21353  10.330   3.033   5.379 -0.7745  1.6817 -0.3602
  899MOL0     H21354  10.561   3.100   5.423  1.2763  1.0435  1.7396
  899MOL0     H21355  10.658   3.331   5.767  0.5776  0.6347 -3.2870
  899MOL0     H21356  10.689   3.171   5.847  0.3713  1.0742  0.7953
  899MOL0     H21357  10.930   3.175   5.729 -1.0246  1.2819 -1.6830
  899MOL0     H21358  10.900   3.289   5.864  1.9470  0.8344 -0.2756
  899MOL0     H21359  11.014   3.407   5.692 -0.2624  0.5433  0.8536
  899MOL0     H21360  10.857   3.471   5.684  3.6009  2.5179  0.1270
  899MOL0     H21361  10.830   3.425   5.453 -2.5841 -1.7174 -0.1735
  899MOL0     H21362  10.839   3.257   5.490  0.7617 -0.1364 -0.9182
  899MOL0     H21363  11.229   3.305   5.354  0.9730  2.1216  1.1516
  899MOL0     H21364  10.475   3.180   5.830  0.3253  0.6586  0.3972
  899MOL0     H21365  10.243   3.097   5.803 -1.1179  2.8403  0.0860
  900MOL0     O21366   4.616   8.369  10.368  0.1402 -0.0473 -0.1806
  900MOL0     C21367   4.634   8.492  10.378 -0.6137  0.0206  0.2660
  900MOL0     O21368   4.541   8.581  10.415  1.0927  0.0327 -0.1126
  900MOL0     C21369   4.410   8.538  10.438  0.1829 -0.4543 -0.5193
  900MOL0     C21370   4.374   8.435  10.524  0.0602 -0.7109  0.1842
  900MOL0     C21371   4.247   8.412  10.564  1.2600  0.5918  0.4314
  900MOL0     C21372   4.143   8.487  10.510 -0.1862 -0.4894  0.1379
  900MOL0     O21373   4.011   8.451  10.532 -0.4563 -0.2613 -0.2660
  900MOL0     C21374   3.917   8.459  10.426  0.7290  0.0453  0.2617
  900MOL0     C21375   3.785   8.393  10.485 -0.3865  0.1515  0.8798
  900MOL0     C21376   3.790   8.238  10.481 -0.6144 -0.9065  0.3216
  900MOL0     C21377   3.661   8.163  10.484 -0.4456 -0.0694  0.4472
  900MOL0     C21378   3.587   8.188  10.610  0.1183  1.0507 -0.3486
  900MOL0     C21379   3.453   8.115  10.619  0.1606 -0.8138  0.5792
  900MOL0     C21380   3.341   8.181  10.517 -0.4172  0.1178  0.6451
  900MOL0     C21381   3.203   8.109  10.513  0.0654  0.2925  0.4466
  900MOL0     N21382   3.084   8.174  10.452  0.7650 -0.8153  0.0719
  900MOL0     C21383   3.079   8.254  10.331 -0.8676  0.2281  0.3989
  900MOL0     C21384   2.949   8.281  10.305 -0.1653  0.1154  0.1372
  900MOL0     C21385   2.904   8.348  10.179 -0.3496 -0.2151 -0.6160
  900MOL0     C21386   2.755   8.351  10.182 -0.1980 -0.0268  0.5524
  900MOL0     C21387   2.705   8.478  10.105  0.1463 -0.2530 -0.1209
  900MOL0     C21388   2.550   8.494  10.110 -0.6457  0.5550 -0.0838
  900MOL0     O21389   2.510   8.626  10.079 -0.0303  0.1177  0.8886
  900MOL0     C21390   2.378   8.651  10.058  0.4221 -1.2186  0.3026
  900MOL0     C21391   2.341   8.773  10.015  0.3280 -0.7272  0.5741
  900MOL0     C21392   2.204   8.810   9.991 -0.4533  0.5335 -0.0728
  900MOL0     C21393   2.193   8.951   9.947  0.5649 -0.1964  0.9409
  900MOL0     C21394   2.104   8.723  10.025  0.2553  0.4783  0.5949
  900MOL0     C21395   1.959   8.763  10.017 -0.6391 -0.0028  0.3609
  900MOL0     O21396   1.867   8.664  10.052  0.4987 -0.5567 -0.4358
  900MOL0     C21397   1.730   8.693  10.055 -0.2931  0.0651 -0.3553
  900MOL0     C21398   1.656   8.722   9.946 -0.4731  0.4998  0.3709
  900MOL0     C21399   1.517   8.754   9.953  0.5004 -0.5777 -0.8742
  900MOL0     C21400   1.452   8.758  10.081  0.6929  0.7954  0.6513
  900MOL0     O21401   1.327   8.787  10.102 -0.2324  0.5385  1.4112
  900MOL0     C21402   1.231   8.733  10.017  0.8436 -0.0488 -0.3700
  900MOL0     C21403   1.101   8.738  10.106  0.0032 -0.7455 -0.0208
  900MOL0     C21404   0.980   8.669  10.034 -0.2104  0.4886 -0.9436
  900MOL0     C21405   0.869   8.650  10.138  0.1812 -0.0435  0.4741
  900MOL0     C21406   0.784   8.774  10.169 -0.9599 -0.5431  1.0826
  900MOL0     C21407   0.648   8.743  10.237 -0.9610  0.4782  0.4238
  900MOL0     C21408   0.609   8.867  10.313  0.3054 -0.0057 -0.0710
  900MOL0     C21409   0.458   8.872  10.328  1.4907  0.2426  0.8380
  900MOL0    Cl21410   0.376   8.922  10.176 -0.3851  0.1165 -0.2301
  900MOL0     C21411   1.533   8.734  10.186  0.5458  0.4682  0.1142
  900MOL0     C21412   1.663   8.698  10.178  0.0212 -0.3868 -0.0145
  900MOL0     O21413   1.928   8.880  10.005 -0.1619 -0.2117  0.2060
  900MOL0     C21414   2.143   8.590  10.061  0.3686 -0.1081  0.6280
  900MOL0     C21415   2.274   8.560  10.082 -0.3715  0.0032  0.2278
  900MOL0     N21416   2.877   8.216  10.398  0.0606  0.5446 -0.2270
  900MOL0     N21417   2.953   8.163  10.495 -0.4730  0.6031  0.9605
  900MOL0     C21418   4.171   8.595  10.421 -0.1856 -0.1475 -0.6862
  900MOL0     C21419   4.309   8.617  10.396  0.0029 -0.1989 -0.5917
  900MOL0     C21420   4.773   8.547  10.369  0.1008  0.2899 -0.9340
  900MOL0     C21421   4.877   8.455  10.365 -0.2961 -0.7907 -0.4411
  900MOL0     C21422   5.006   8.506  10.379  0.2895  0.5467  0.0010
  900MOL0     C21423   5.031   8.645  10.374  0.2505  1.0539  0.3527
  900MOL0     O21424   5.163   8.682  10.406  0.1741 -0.5620  0.6694
  900MOL0     C21425   5.201   8.817  10.393  0.1094  0.4465 -0.3079
  900MOL0     C21426   5.351   8.836  10.396 -0.1364 -0.5553 -1.3558
  900MOL0     C21427   5.429   8.755  10.294 -0.4793 -0.3521  0.0919
  900MOL0     C21428   5.574   8.800  10.257 -1.0905  0.5817 -0.7726
  900MOL0     C21429   5.573   8.915  10.168  0.4857 -0.7883  0.0321
  900MOL0     C21430   5.583   9.001  10.086 -0.0304 -0.6444  0.6631
  900MOL0     C21431   4.924   8.737  10.365 -0.5899 -0.8742  0.2336
  900MOL0     C21432   4.794   8.687  10.374 -0.2862 -0.5835  0.6335
  900MOL0     H21433   4.453   8.378  10.573 -0.5604 -2.8030 -1.1359
  900MOL0     H21434   4.229   8.335  10.639 -0.4021 -0.4622 -0.9460
  900MOL0     H21435   3.898   8.564  10.401  0.8525 -0.3021 -1.3861
  900MOL0     H21436   3.956   8.410  10.337  3.0400  0.2769  1.0679
  900MOL0     H21437   3.773   8.424  10.589  0.8341  0.5262  0.9282
  900MOL0     H21438   3.703   8.431  10.425  1.0866 -1.5373 -2.5053
  900MOL0     H21439   3.843   8.197  10.394  2.2474  1.3580  0.8418
  900MOL0     H21440   3.846   8.192  10.564  1.1885 -2.7222 -1.7710
  900MOL0     H21441   3.609   8.184  10.390  0.3940  0.6616  0.1369
  900MOL0     H21442   3.690   8.057  10.492  1.5945  0.5216  1.6453
  900MOL0     H21443   3.650   8.159  10.695  0.5039  0.1204 -0.9434
  900MOL0     H21444   3.564   8.295  10.609  0.6354  1.1622 -0.6026
  900MOL0     H21445   3.474   8.012  10.589  1.4178 -0.6238  0.7149
  900MOL0     H21446   3.424   8.122  10.724 -2.8891  0.9627 -0.2714
  900MOL0     H21447   3.330   8.284  10.553 -0.4987  0.5759 -0.6322
  900MOL0     H21448   3.384   8.189  10.417  2.4579  3.3690  1.8879
  900MOL0     H21449   3.164   8.083  10.612 -2.3842  1.7938 -0.0345
  900MOL0     H21450   3.230   8.016  10.461 -0.8458 -0.2246  0.8682
  900MOL0     H21451   3.157   8.267  10.257  0.4393 -2.2202  1.2404
  900MOL0     H21452   2.941   8.450  10.171 -0.2290 -0.3600 -6.1290
  900MOL0     H21453   2.927   8.299  10.083 -0.5148 -0.9510 -0.2901
  900MOL0     H21454   2.708   8.372  10.278  1.0242  0.2754  1.0998
  900MOL0     H21455   2.713   8.260  10.138 -1.8992  0.0056  1.9990
  900MOL0     H21456   2.731   8.479   9.999  1.7360 -0.7567  0.2368
  900MOL0     H21457   2.763   8.559  10.152 -1.0982  0.4618  0.2217
  900MOL0     H21458   2.511   8.459  10.206 -0.8103  0.0744 -0.3204
  900MOL0     H21459   2.517   8.425  10.032  1.6249  1.3567 -1.8847
  900MOL0     H21460   2.417   8.845   9.989 -1.4996  1.5141  1.1066
  900MOL0     H21461   2.140   9.010  10.022  1.9623 -0.2015  1.9736
  900MOL0     H21462   2.289   8.998   9.921  0.7301 -0.4419  1.1071
  900MOL0     H21463   2.132   8.962   9.857  1.7342 -2.1051 -0.1466
  900MOL0     H21464   1.724   8.735   9.862  1.9161  0.8959  2.2667
  900MOL0     H21465   1.467   8.781   9.860  1.1574  0.0727 -1.0417
  900MOL0     H21466   1.219   8.792   9.926  1.4343  1.0369  0.2338
  900MOL0     H21467   1.259   8.629   9.997  1.8933  0.2657 -0.5579
  900MOL0     H21468   1.119   8.683  10.198  0.7637 -1.9745 -0.8730
  900MOL0     H21469   1.056   8.836  10.126 -0.6473 -1.5044  2.5654
  900MOL0     H21470   1.013   8.574   9.992  1.3697  0.4614  0.2494
  900MOL0     H21471   0.945   8.730   9.950 -1.6271 -1.7233 -2.0537
  900MOL0     H21472   0.807   8.561  10.121 -0.6601  0.5766  0.2330
  900MOL0     H21473   0.921   8.634  10.233  2.6756  1.5248 -0.5263
  900MOL0     H21474   0.750   8.823  10.077  2.4710  0.1241  0.0129
  900MOL0     H21475   0.852   8.836  10.228  2.4240 -3.1568  0.2978
  900MOL0     H21476   0.568   8.721  10.166 -1.5971 -4.0411  2.1932
  900MOL0     H21477   0.655   8.653  10.299 -0.1373  0.8515  0.8893
  900MOL0     H21478   0.649   8.954  10.261  1.4465 -0.0868  0.6372
  900MOL0     H21479   0.657   8.856  10.411  0.4634 -3.1466 -0.3792
  900MOL0     H21480   0.442   8.936  10.415  0.2007 -2.6358  2.9091
  900MOL0     H21481   0.412   8.777  10.358  0.4948  0.4449  0.0071
  900MOL0     H21482   1.483   8.750  10.281  0.3179  1.4058 -0.1483
  900MOL0     H21483   1.720   8.656  10.260  0.5608  0.6044  0.1261
  900MOL0     H21484   2.063   8.526  10.096 -0.1099  1.7602  3.1956
  900MOL0     H21485   2.298   8.460  10.116 -0.1100  0.7754  2.5063
  900MOL0     H21486   4.090   8.666  10.406 -1.7905 -1.5837  0.7185
  900MOL0     H21487   4.325   8.709  10.341  0.1427  2.3004  3.2625
  900MOL0     H21488   4.858   8.349  10.372 -0.6384 -0.7426 -0.5974
  900MOL0     H21489   5.083   8.430  10.384  2.1695  2.2936 -0.6906
  900MOL0     H21490   5.162   8.861  10.300 -0.5762 -0.2441 -0.3573
  900MOL0     H21491   5.155   8.862  10.481 -1.5312 -1.5437 -0.0570
  900MOL0     H21492   5.396   8.809  10.492  1.4694 -1.3894 -2.3055
  900MOL0     H21493   5.356   8.944  10.376 -2.2813 -0.6020 -2.4742
  900MOL0     H21494   5.370   8.743  10.203  0.1103  0.8982 -0.4744
  900MOL0     H21495   5.439   8.654  10.336  0.0363  0.3508  1.7204
  900MOL0     H21496   5.635   8.723  10.208 -0.1584  2.0700 -2.0314
  900MOL0     H21497   5.623   8.826  10.352  1.5444 -0.4085 -1.7654
  900MOL0     H21498   5.602   9.073  10.009  1.0281 -3.5813 -2.0258
  900MOL0     H21499   4.928   8.845  10.368 -1.9574 -0.7553 -1.2230
  900MOL0     H21500   4.709   8.754  10.370 -0.9007 -1.4023 -1.3081
  901MOL0     O21501   5.313  10.354   2.428 -0.0843 -0.1451  0.8194
  901MOL0     C21502   5.344  10.273   2.517 -0.3427  1.3252 -0.1077
  901MOL0     O21503   5.272  10.155   2.551 -0.1754 -0.2080 -0.2726
  901MOL0     C21504   5.169  10.124   2.473  0.6374  0.6686  0.3293
  901MOL0     C21505   5.175  10.005   2.402 -0.3464  0.4902  0.3448
  901MOL0     C21506   5.073   9.962   2.316  0.3517 -0.1535 -0.9444
  901MOL0     C21507   4.952  10.036   2.311 -0.4081  0.0821 -0.7433
  901MOL0     O21508   4.839  10.003   2.240 -0.0750  0.4617 -0.4165
  901MOL0     C21509   4.843   9.881   2.165 -0.0132  0.1760  0.2012
  901MOL0     C21510   4.712   9.873   2.083 -0.0761 -0.1180  0.1131
  901MOL0     C21511   4.590   9.905   2.164 -0.0467 -0.1347  0.5909
  901MOL0     C21512   4.462   9.896   2.077  0.4390  0.5746  0.0993
  901MOL0     C21513   4.327   9.934   2.136 -0.4636 -0.5167 -0.6739
  901MOL0     C21514   4.221   9.903   2.034  0.1093  0.2428  0.0650
  901MOL0     C21515   4.079   9.939   2.090 -0.6487  0.1229  0.2516
  901MOL0     C21516   3.977   9.876   2.002 -0.1281 -0.7830  0.1973
  901MOL0     N21517   3.837   9.899   2.028 -0.0116 -0.7564  0.6766
  901MOL0     C21518   3.769   9.905   2.144 -0.2818  0.4400  0.5538
  901MOL0     C21519   3.636   9.901   2.107  0.3244  0.0616  0.0781
  901MOL0     C21520   3.522   9.899   2.211  0.2531 -0.4207  0.7877
  901MOL0     C21521   3.524   9.758   2.267  0.1010  0.1209  0.8989
  901MOL0     C21522   3.453   9.751   2.401 -0.5660 -0.1238 -0.2243
  901MOL0     C21523   3.470   9.607   2.463 -0.4272 -0.0516 -0.0039
  901MOL0     O21524   3.605   9.578   2.511  0.6666  0.8069  0.6986
  901MOL0     C21525   3.638   9.443   2.527  0.1551  0.4849 -0.4084
  901MOL0     C21526   3.774   9.420   2.557  0.0931 -0.0786 -0.4438
  901MOL0     C21527   3.832   9.293   2.568  0.4287 -0.2065  0.4465
  901MOL0     C21528   3.981   9.275   2.586 -0.6663  0.2598  1.0002
  901MOL0     C21529   3.738   9.187   2.556  0.2925 -1.2453 -0.0531
  901MOL0     C21530   3.785   9.050   2.558 -0.1922  1.0980  0.3310
  901MOL0     O21531   3.911   9.026   2.615  0.9538  0.5811 -0.4976
  901MOL0     C21532   3.955   8.901   2.647 -0.1546  0.3923 -0.5839
  901MOL0     C21533   3.902   8.776   2.610  0.1154 -0.5119 -0.5241
  901MOL0     C21534   3.959   8.651   2.642  0.7796 -0.1968  0.1624
  901MOL0     C21535   4.084   8.651   2.703  0.7977 -0.0164 -0.1483
  901MOL0     O21536   4.150   8.534   2.715  0.4313 -0.0118 -0.5938
  901MOL0     C21537   4.195   8.511   2.851  0.7019 -0.4856  0.3961
  901MOL0     C21538   4.221   8.360   2.865 -0.4444  1.1018 -0.1122
  901MOL0     C21539   4.225   8.316   3.019 -0.7480  1.0076  0.5257
  901MOL0     C21540   4.264   8.168   3.019  0.1037 -0.2426  0.4456
  901MOL0     C21541   4.281   8.113   3.167  0.5818  0.0466 -0.3472
  901MOL0     C21542   4.352   7.980   3.170  0.4299 -0.4756  0.8291
  901MOL0     C21543   4.502   8.003   3.145 -0.4184  0.1549  0.0914
  901MOL0     C21544   4.587   8.033   3.267  0.1024 -0.4467  0.0652
  901MOL0    Cl21545   4.554   7.919   3.405  0.1984  0.0879  0.3270
  901MOL0     C21546   4.140   8.772   2.738  0.2925 -0.0501  0.3193
  901MOL0     C21547   4.074   8.896   2.715 -0.2297 -0.3466  0.1200
  901MOL0     O21548   3.706   8.961   2.503  0.5254  0.0581  0.4848
  901MOL0     C21549   3.599   9.208   2.545 -0.4014 -0.7352 -0.2430
  901MOL0     C21550   3.549   9.335   2.528  0.0995  0.4768  1.1403
  901MOL0     N21551   3.627   9.890   1.964  0.1064 -0.2941  0.4275
  901MOL0     N21552   3.749   9.890   1.922 -0.2030 -0.3803  0.0542
  901MOL0     C21553   4.946  10.155   2.388 -0.8986  0.4944  0.1347
  901MOL0     C21554   5.047  10.194   2.469 -1.4282 -0.7904 -0.1397
  901MOL0     C21555   5.457  10.294   2.602  0.5706  0.3269 -0.1001
  901MOL0     C21556   5.525  10.184   2.664  1.2408 -0.3190 -0.0063
  901MOL0     C21557   5.628  10.203   2.750  0.5340  0.2026  0.3933
  901MOL0     C21558   5.663  10.331   2.793 -0.6167  0.0304 -0.9713
  901MOL0     O21559   5.739  10.358   2.899  0.3671  0.2333 -0.4137
  901MOL0     C21560   5.874  10.316   2.882 -0.4876 -1.0642  0.2687
  901MOL0     C21561   5.948  10.289   3.018  0.6883 -0.7115  0.4409
  901MOL0     C21562   5.963  10.415   3.103  0.3808  0.1695 -0.6311
  901MOL0     C21563   6.046  10.526   3.039 -0.7384 -0.3700 -0.3903
  901MOL0     C21564   6.183  10.480   3.013 -0.2005  0.5878  0.0977
  901MOL0     C21565   6.287  10.450   2.976 -0.0471 -0.0532  0.0363
  901MOL0     C21566   5.607  10.439   2.723 -0.0660 -0.8019 -0.7426
  901MOL0     C21567   5.506  10.418   2.631 -0.1360 -1.4393 -0.1374
  901MOL0     H21568   5.274   9.960   2.398  0.5247  2.3362  0.3204
  901MOL0     H21569   5.090   9.871   2.259 -2.8673 -2.1635  0.9787
  901MOL0     H21570   4.929   9.879   2.099  0.3784 -0.0025  0.7087
  901MOL0     H21571   4.853   9.790   2.225  0.0239 -1.0670 -1.6086
  901MOL0     H21572   4.714   9.934   1.993 -1.7679 -0.6731 -0.3400
  901MOL0     H21573   4.707   9.769   2.050  2.6367  0.0848 -1.2502
  901MOL0     H21574   4.586   9.832   2.245  0.8527 -0.7196  0.1321
  901MOL0     H21575   4.588  10.005   2.209  2.7480  0.6055 -0.7299
  901MOL0     H21576   4.462   9.947   1.980 -1.4610  1.9478  0.7797
  901MOL0     H21577   4.460   9.788   2.062  2.8041  0.4548  0.2062
  901MOL0     H21578   4.304   9.886   2.232  1.8385  0.2209  0.3147
  901MOL0     H21579   4.327  10.042   2.148 -1.4045 -0.8115  3.1073
  901MOL0     H21580   4.248   9.965   1.948 -0.1985 -0.5735 -0.6326
  901MOL0     H21581   4.227   9.797   2.008  0.7021  0.2548  0.1235
  901MOL0     H21582   4.073   9.901   2.192  0.1038  1.2423  0.7350
  901MOL0     H21583   4.067  10.048   2.095  1.1046  0.4021 -0.7692
  901MOL0     H21584   4.000   9.769   2.005 -0.0767 -0.8253 -1.1144
  901MOL0     H21585   3.994   9.922   1.904  0.6754 -0.5830  0.4255
  901MOL0     H21586   3.811   9.907   2.244 -2.3257 -0.5600  1.4850
  901MOL0     H21587   3.546   9.964   2.296 -1.3646  1.1265  0.1314
  901MOL0     H21588   3.425   9.936   2.177 -0.2447 -0.1474  2.3896
  901MOL0     H21589   3.630   9.739   2.288  0.7249  4.1948  2.4716
  901MOL0     H21590   3.487   9.690   2.190 -0.6558 -0.2156  1.5469
  901MOL0     H21591   3.349   9.768   2.369  0.0913 -0.1172 -2.5948
  901MOL0     H21592   3.496   9.827   2.467  3.3186 -1.7798 -0.5709
  901MOL0     H21593   3.447   9.542   2.378  0.7836  0.3466 -0.6524
  901MOL0     H21594   3.395   9.589   2.541  2.1709 -2.2334  2.2026
  901MOL0     H21595   3.840   9.506   2.563 -1.8739  1.5308 -0.7443
  901MOL0     H21596   3.993   9.248   2.691 -3.9771 -1.6336  1.0141
  901MOL0     H21597   4.023   9.201   2.517 -2.7791  1.9286 -2.3565
  901MOL0     H21598   4.037   9.364   2.556 -2.8841  1.1185 -0.9070
  901MOL0     H21599   3.806   8.760   2.562 -0.4785 -1.5336  0.9236
  901MOL0     H21600   3.905   8.561   2.612 -0.4731  1.1416 -1.8096
  901MOL0     H21601   4.285   8.571   2.871  2.1682 -1.1670 -3.3883
  901MOL0     H21602   4.112   8.545   2.913 -0.3181 -0.2918 -1.0290
  901MOL0     H21603   4.143   8.304   2.812 -1.2973  1.6358  0.5624
  901MOL0     H21604   4.319   8.345   2.818  0.1624  1.1539  1.0890
  901MOL0     H21605   4.134   8.333   3.076 -2.0980  1.9972 -1.8042
  901MOL0     H21606   4.309   8.365   3.070  1.3182 -2.7390  1.1057
  901MOL0     H21607   4.186   8.109   2.970  1.4581 -2.9928  1.3888
  901MOL0     H21608   4.348   8.153   2.952 -1.7787  2.4913 -2.8218
  901MOL0     H21609   4.181   8.088   3.203  0.3270 -0.0616 -1.1201
  901MOL0     H21610   4.344   8.184   3.223  5.5267 -1.9474 -2.7390
  901MOL0     H21611   4.334   7.916   3.257 -0.3500 -1.8599 -0.3147
  901MOL0     H21612   4.310   7.926   3.086  1.0055  1.4156 -0.7418
  901MOL0     H21613   4.530   8.085   3.078  0.6226  0.0128  0.3283
  901MOL0     H21614   4.553   7.918   3.099  1.3382  0.0311  2.0806
  901MOL0     H21615   4.572   8.139   3.290 -0.0735 -0.8088  1.7122
  901MOL0     H21616   4.687   8.010   3.228 -0.6720 -3.0449 -0.5848
  901MOL0     H21617   4.229   8.770   2.801  0.9901 -1.9193 -0.6357
  901MOL0     H21618   4.126   8.987   2.745  0.1296 -0.6174  0.3358
  901MOL0     H21619   3.535   9.121   2.550 -1.1496 -0.2821 -1.6321
  901MOL0     H21620   3.441   9.344   2.528  0.0182 -0.2814  1.9756
  901MOL0     H21621   4.856  10.214   2.374 -0.3493  1.0497 -1.2398
  901MOL0     H21622   5.035  10.288   2.524 -0.4765 -1.8956  2.0800
  901MOL0     H21623   5.478  10.087   2.657 -0.7482  0.4457  1.6923
  901MOL0     H21624   5.672  10.123   2.810 -0.3429  1.2011  2.4735
  901MOL0     H21625   5.879  10.216   2.839 -1.5100 -2.2006  2.5802
  901MOL0     H21626   5.917  10.392   2.816 -1.5528  0.2252  1.0256
  901MOL0     H21627   6.047  10.248   2.996  1.2024  0.9549 -0.6099
  901MOL0     H21628   5.884  10.218   3.070 -1.1992  1.0467  0.6344
  901MOL0     H21629   6.006  10.391   3.201 -0.2838 -3.7747 -1.1129
  901MOL0     H21630   5.863  10.452   3.130 -0.3585 -0.9615 -1.6888
  901MOL0     H21631   6.059  10.612   3.106  1.0592 -2.4033  2.0800
  901MOL0     H21632   5.994  10.565   2.951 -2.3491 -3.7938 -1.0959
  901MOL0     H21633   6.380  10.418   2.934 -0.6393 -1.3781 -0.3308
  901MOL0     H21634   5.649  10.537   2.740 -0.4700 -0.9822  1.6034
  901MOL0     H21635   5.457  10.504   2.587 -1.9755 -1.4874  1.6997
  902MOL0     O21636   0.593   7.068   9.357  0.1345  0.8383 -0.1940
  902MOL0     C21637   0.576   7.042   9.476 -0.6442 -0.2713  0.2573
  902MOL0     O21638   0.462   7.079   9.544  0.1097  0.1177 -0.1125
  902MOL0     C21639   0.344   7.133   9.490  0.0047  0.8495  0.5121
  902MOL0     C21640   0.301   7.118   9.355 -1.0785 -0.2649  0.1374
  902MOL0     C21641   0.184   7.177   9.310  0.2310  0.5548  0.7046
  902MOL0     C21642   0.098   7.236   9.401 -0.2589 -0.2683 -0.5405
  902MOL0     O21643  -0.022   7.302   9.370  0.3091 -0.0988 -0.2971
  902MOL0     C21644  -0.098   7.259   9.252  0.3084  0.2788 -0.3505
  902MOL0     C21645  -0.232   7.340   9.243 -0.6786 -0.2270 -0.1970
  902MOL0     C21646  -0.318   7.304   9.359 -0.3425 -0.2375  0.2153
  902MOL0     C21647  -0.458   7.362   9.343  0.4229 -0.6055  0.4614
  902MOL0     C21648  -0.459   7.517   9.339  0.6196  0.1524  0.0691
  902MOL0     C21649  -0.595   7.563   9.388 -0.8015 -0.1592 -0.5877
  902MOL0     C21650  -0.715   7.518   9.296 -0.2292 -0.4949 -0.3766
  902MOL0     C21651  -0.855   7.540   9.348  0.4061 -0.1400 -0.2779
  902MOL0     N21652  -0.907   7.431   9.440 -0.3558  0.3795 -0.7102
  902MOL0     C21653  -1.037   7.414   9.476  0.6220 -0.1539 -0.4180
  902MOL0     C21654  -1.045   7.315   9.565 -0.1516 -0.0628 -0.3813
  902MOL0     C21655  -1.175   7.251   9.606 -0.4197 -0.0534 -0.1770
  902MOL0     C21656  -1.184   7.192   9.746 -0.2022  0.0910 -0.3769
  902MOL0     C21657  -1.175   7.308   9.851 -0.6582 -0.0635 -0.5070
  902MOL0     C21658  -1.195   7.250   9.991  0.1662  0.1881  0.0094
  902MOL0     O21659  -1.319   7.286  10.041  0.8324 -0.9435 -0.1304
  902MOL0     C21660  -1.345   7.241  10.173  0.3150 -0.5712  0.1635
  902MOL0     C21661  -1.250   7.175  10.253 -0.5100 -0.1289 -0.6432
  902MOL0     C21662  -1.285   7.119  10.382  0.1063  0.4782 -1.0489
  902MOL0     C21663  -1.177   7.040  10.460  1.1224 -0.1877  0.5458
  902MOL0     C21664  -1.415   7.138  10.430 -0.0713 -0.5535 -0.9647
  902MOL0     C21665  -1.447   7.110  10.572 -0.2887 -0.0966  0.1457
  902MOL0     O21666  -1.355   7.147  10.661  0.1508  0.2198 -0.4342
  902MOL0     C21667  -1.388   7.136  10.794 -0.8609  0.6253 -0.0987
  902MOL0     C21668  -1.366   7.016  10.861 -0.5718 -0.0350 -0.0964
  902MOL0     C21669  -1.420   7.000  10.990  0.4685 -0.1371  0.2422
  902MOL0     C21670  -1.479   7.109  11.057  0.0346  1.0059  0.7627
  902MOL0     O21671  -1.534   7.086  11.181 -0.0746 -0.1770 -0.2941
  902MOL0     C21672  -1.451   6.997  11.270 -0.0539 -0.0855  0.4029
  902MOL0     C21673  -1.480   7.032  11.414 -0.1171 -0.1819 -0.1605
  902MOL0     C21674  -1.355   6.999  11.499  0.1142  0.1459 -0.5123
  902MOL0     C21675  -1.371   7.055  11.636 -0.4532 -0.1933  0.2569
  902MOL0     C21676  -1.260   7.015  11.736 -0.8032  0.3375  0.2028
  902MOL0     C21677  -1.141   7.103  11.729 -0.3936 -0.1613 -0.4130
  902MOL0     C21678  -1.015   7.015  11.720  0.9816  0.4133  0.4434
  902MOL0     C21679  -0.891   7.104  11.713 -0.1700  0.5114  0.1690
  902MOL0    Cl21680  -0.863   7.174  11.872 -0.1666  0.1489  0.0075
  902MOL0     C21681  -1.509   7.220  10.986  0.6111  0.8010  0.2582
  902MOL0     C21682  -1.458   7.243  10.854 -0.3589 -0.2733 -0.2660
  902MOL0     O21683  -1.571   7.093  10.590 -0.0053  0.6535 -0.2486
  902MOL0     C21684  -1.502   7.213  10.354 -0.4897 -0.2220 -0.2278
  902MOL0     C21685  -1.464   7.267  10.230  0.2037 -0.6494 -0.4608
  902MOL0     N21686  -0.915   7.285   9.596 -0.5360  0.1649 -0.3908
  902MOL0     N21687  -0.837   7.345   9.523 -0.0171  0.4635  0.5802
  902MOL0     C21688   0.139   7.241   9.536 -0.3530  0.5803  0.3490
  902MOL0     C21689   0.263   7.194   9.576 -0.0234 -0.5519 -0.0143
  902MOL0     C21690   0.680   6.967   9.547 -0.7002 -0.0911 -0.2698
  902MOL0     C21691   0.654   6.924   9.675  0.2800  0.6409 -0.1799
  902MOL0     C21692   0.750   6.839   9.743 -0.3670 -0.4731  0.2573
  902MOL0     C21693   0.879   6.813   9.694  0.3196  0.6705  0.2845
  902MOL0     O21694   0.975   6.764   9.780 -0.6943  0.3084 -0.2605
  902MOL0     C21695   1.098   6.730   9.717 -0.5058  0.0296 -0.1462
  902MOL0     C21696   1.177   6.670   9.834 -0.4032 -1.0538 -0.1594
  902MOL0     C21697   1.136   6.523   9.836 -0.2717 -0.2159 -0.2655
  902MOL0     C21698   1.204   6.447   9.951 -0.3635 -1.5494  0.2459
  902MOL0     C21699   1.183   6.303   9.955 -0.1598 -0.5623 -0.0501
  902MOL0     C21700   1.168   6.182   9.950  0.5110  0.6779 -0.8077
  902MOL0     C21701   0.905   6.859   9.567 -0.1949 -0.1187 -0.1455
  902MOL0     C21702   0.801   6.927   9.488 -0.2500 -0.1334  0.0899
  902MOL0     H21703   0.367   7.071   9.283 -0.9925 -0.1416  0.1357
  902MOL0     H21704   0.154   7.169   9.206 -0.5175 -0.8180  1.0104
  902MOL0     H21705  -0.047   7.267   9.156 -0.4730  3.5037 -0.6376
  902MOL0     H21706  -0.118   7.155   9.277 -0.5075  0.4029 -0.4598
  902MOL0     H21707  -0.210   7.447   9.252  1.7707 -0.3150 -3.1265
  902MOL0     H21708  -0.285   7.310   9.152  0.3312 -0.5088 -0.7068
  902MOL0     H21709  -0.331   7.195   9.352 -2.3476  0.0589 -3.9303
  902MOL0     H21710  -0.271   7.326   9.455  0.9751 -1.3346 -0.1385
  902MOL0     H21711  -0.499   7.333   9.246 -0.7425  2.2708 -0.0025
  902MOL0     H21712  -0.526   7.317   9.416  0.6267 -1.1815  0.3045
  902MOL0     H21713  -0.380   7.556   9.405 -2.2590  1.5185  2.9694
  902MOL0     H21714  -0.443   7.552   9.236  6.7651  1.2250  0.9599
  902MOL0     H21715  -0.604   7.519   9.488 -0.3182 -1.3435 -1.0393
  902MOL0     H21716  -0.599   7.671   9.398  1.3879 -0.0799 -0.0397
  902MOL0     H21717  -0.702   7.576   9.204 -1.8459  0.5227  0.0032
  902MOL0     H21718  -0.709   7.413   9.266 -1.8704 -0.3790 -1.2387
  902MOL0     H21719  -0.928   7.547   9.268  1.0590 -1.6181 -1.0350
  902MOL0     H21720  -0.856   7.628   9.414  1.8621  0.2738 -0.7669
  902MOL0     H21721  -1.120   7.470   9.433  0.1186 -1.0383 -0.6271
  902MOL0     H21722  -1.250   7.328   9.586 -1.7110 -1.2779 -0.1999
  902MOL0     H21723  -1.205   7.167   9.542 -3.3198  0.2216  0.6924
  902MOL0     H21724  -1.099   7.125   9.764  0.2416  0.8403  0.4334
  902MOL0     H21725  -1.275   7.132   9.759 -0.5440  0.9037  1.2805
  902MOL0     H21726  -1.258   7.375   9.827 -0.6876 -0.9593 -3.1598
  902MOL0     H21727  -1.079   7.361   9.857 -2.0203  2.3556  2.1644
  902MOL0     H21728  -1.113   7.290  10.051 -0.9867  1.2301  0.9502
  902MOL0     H21729  -1.195   7.141   9.980 -2.3221  0.1067  0.3591
  902MOL0     H21730  -1.146   7.166  10.223  0.4626  2.9964  1.2924
  902MOL0     H21731  -1.107   7.094  10.525 -0.4080  0.6227  1.5773
  902MOL0     H21732  -1.227   6.967  10.524  1.7471  0.3071  1.6391
  902MOL0     H21733  -1.117   6.990  10.383  0.2324  1.4078 -1.2540
  902MOL0     H21734  -1.302   6.939  10.820  1.7378  0.7253  1.8494
  902MOL0     H21735  -1.395   6.906  11.038 -1.8139 -1.9595 -1.8759
  902MOL0     H21736  -1.475   6.891  11.255  1.2077 -0.6293  1.9536
  902MOL0     H21737  -1.344   7.011  11.251  0.3830 -3.3236 -0.1363
  902MOL0     H21738  -1.511   7.137  11.417  4.1635  1.2374  0.0412
  902MOL0     H21739  -1.563   6.964  11.438 -0.2379  0.2881  0.7970
  902MOL0     H21740  -1.263   7.039  11.458  0.0976  0.8276  0.1023
  902MOL0     H21741  -1.342   6.891  11.511 -0.0994  0.2541  0.8430
  902MOL0     H21742  -1.388   7.163  11.634  2.8810  0.4384  0.5961
  902MOL0     H21743  -1.457   7.007  11.684  0.9714 -0.4710  2.7401
  902MOL0     H21744  -1.231   6.911  11.721  0.1302  0.3593  1.6600
  902MOL0     H21745  -1.310   7.027  11.833 -0.8007 -1.3715  0.4602
  902MOL0     H21746  -1.142   7.172  11.644  0.6124  1.6869  1.0074
  902MOL0     H21747  -1.127   7.154  11.825  2.2719 -1.7275  0.1228
  902MOL0     H21748  -1.017   6.952  11.630 -0.7003 -1.2069  1.5633
  902MOL0     H21749  -1.000   6.953  11.809 -0.1890 -0.1688  0.2608
  902MOL0     H21750  -0.901   7.191  11.648  2.9990 -1.7151 -3.6870
  902MOL0     H21751  -0.808   7.041  11.680 -1.9454 -1.3130 -1.0482
  902MOL0     H21752  -1.576   7.288  11.039 -1.1804 -2.3001  2.2865
  902MOL0     H21753  -1.482   7.330  10.794  1.5652 -0.6650 -1.7119
  902MOL0     H21754  -1.604   7.234  10.385 -1.1085 -1.2430 -1.5128
  902MOL0     H21755  -1.543   7.321  10.180 -1.2221 -0.6205  1.6900
  902MOL0     H21756   0.073   7.280   9.613 -1.7801  1.5680 -1.2938
  902MOL0     H21757   0.296   7.205   9.679  0.0303 -2.6137  0.2389
  902MOL0     H21758   0.570   6.960   9.733  0.3875  1.5859 -0.5980
  902MOL0     H21759   0.725   6.801   9.842 -1.0193  1.3725  0.8499
  902MOL0     H21760   1.077   6.665   9.631 -0.9326 -1.1432  0.8213
  902MOL0     H21761   1.148   6.823   9.689  1.4363  0.4396  3.9336
  902MOL0     H21762   1.158   6.717   9.931  2.5932 -3.9619  2.0813
  902MOL0     H21763   1.285   6.686   9.819  0.1367 -0.3242  3.5126
  902MOL0     H21764   1.175   6.489   9.739  4.2150 -1.4106  1.6944
  902MOL0     H21765   1.028   6.513   9.843 -0.5438  0.9335 -2.0746
  902MOL0     H21766   1.183   6.484  10.052  1.2019  2.3094 -0.6595
  902MOL0     H21767   1.311   6.468   9.935 -0.6819  0.3390  0.3724
  902MOL0     H21768   1.150   6.077   9.953 -0.2325  0.8024 -0.6897
  902MOL0     H21769   1.002   6.835   9.523 -0.8432 -1.9122 -0.7018
  902MOL0     H21770   0.820   6.947   9.383 -1.3983 -0.4745 -0.1984
  903MOL0     O21771   3.288   8.470   8.643 -0.7481 -0.1443  0.9096
  903MOL0     C21772   3.321   8.560   8.564  0.5402  0.2974  0.2202
  903MOL0     O21773   3.232   8.640   8.489 -0.0274  0.3471  0.4090
  903MOL0     C21774   3.103   8.601   8.478  0.6465  0.4667 -0.5547
  903MOL0     C21775   3.011   8.709   8.483 -0.4434 -0.5434  0.1654
  903MOL0     C21776   2.874   8.683   8.488 -0.1215  0.0486 -1.0838
  903MOL0     C21777   2.822   8.554   8.466 -0.0696  0.2705 -0.0759
  903MOL0     O21778   2.690   8.511   8.450  0.0161  0.1406  0.3302
  903MOL0     C21779   2.585   8.617   8.467  0.2919 -0.1331  0.2019
  903MOL0     C21780   2.580   8.727   8.357  0.3473 -0.2212  0.0470
  903MOL0     C21781   2.460   8.830   8.362 -0.2831 -0.2239 -0.2270
  903MOL0     C21782   2.331   8.759   8.319  0.8774 -0.2030 -0.0207
  903MOL0     C21783   2.210   8.851   8.326  0.1952  0.1109  0.7353
  903MOL0     C21784   2.148   8.841   8.467 -0.2305 -0.0552 -0.4491
  903MOL0     C21785   2.024   8.929   8.473 -0.2280 -0.5459 -0.3316
  903MOL0     C21786   1.958   8.913   8.614 -0.5572 -0.2918  0.0154
  903MOL0     N21787   1.854   9.015   8.620 -0.2091  0.0379 -0.7450
  903MOL0     C21788   1.741   8.992   8.699  0.6526 -0.2169 -0.3465
  903MOL0     C21789   1.679   9.114   8.711  0.1787  0.2606 -0.8413
  903MOL0     C21790   1.561   9.137   8.796 -0.0334  0.3525 -0.4000
  903MOL0     C21791   1.436   9.169   8.721  0.5078  0.2626  0.3935
  903MOL0     C21792   1.328   9.193   8.827  0.0744 -0.5623 -0.4988
  903MOL0     C21793   1.200   9.253   8.763 -0.1149  0.0521  0.0090
  903MOL0     O21794   1.105   9.272   8.869  0.2739  0.1224 -0.5123
  903MOL0     C21795   0.982   9.325   8.843  0.0353 -0.1438  0.6001
  903MOL0     C21796   0.879   9.323   8.939  0.1330 -0.4344 -0.2315
  903MOL0     C21797   0.752   9.372   8.899  0.1997  0.9651  0.9228
  903MOL0     C21798   0.652   9.371   9.016 -0.3154 -0.3038 -0.2813
  903MOL0     C21799   0.711   9.404   8.771 -0.3950  0.1357 -0.3598
  903MOL0     C21800   0.574   9.444   8.740 -0.3092 -0.3469  0.2040
  903MOL0     O21801   0.494   9.523   8.828  0.2889  0.4834 -0.5338
  903MOL0     C21802   0.365   9.555   8.793 -0.0806 -0.9347 -0.0433
  903MOL0     C21803   0.254   9.508   8.873 -0.2217 -0.3228  0.5341
  903MOL0     C21804   0.129   9.546   8.836  0.2889 -0.2148 -0.3056
  903MOL0     C21805   0.099   9.624   8.722  0.5551  0.7018  0.5920
  903MOL0     O21806  -0.031   9.655   8.685 -0.0815  0.2250  0.6488
  903MOL0     C21807  -0.125   9.543   8.687 -1.0485 -0.0975  0.6646
  903MOL0     C21808  -0.228   9.572   8.786 -0.2918 -0.6210 -0.1890
  903MOL0     C21809  -0.348   9.662   8.735 -0.5762  0.2998 -0.5051
  903MOL0     C21810  -0.477   9.650   8.825  0.1661  0.8882  0.6760
  903MOL0     C21811  -0.591   9.730   8.758 -0.0511 -0.2555  0.7178
  903MOL0     C21812  -0.729   9.729   8.826  0.5306  1.0067  0.9080
  903MOL0     C21813  -0.817   9.841   8.784  0.2228  0.4342 -0.4574
  903MOL0     C21814  -0.964   9.819   8.799 -0.2239  0.3677  0.7038
  903MOL0    Cl21815  -1.050   9.919   8.677  0.2884  0.2017  0.1389
  903MOL0     C21816   0.202   9.653   8.642 -0.2787  0.6167  0.0209
  903MOL0     C21817   0.340   9.624   8.672  0.1202  0.9399  0.4269
  903MOL0     O21818   0.535   9.398   8.628  0.5017  0.0401 -0.3956
  903MOL0     C21819   0.818   9.409   8.677  0.1066  0.0491  0.8654
  903MOL0     C21820   0.947   9.368   8.713 -0.1972 -0.1453 -0.1608
  903MOL0     N21821   1.748   9.201   8.625  0.0432  0.7073 -0.3242
  903MOL0     N21822   1.858   9.143   8.577 -0.0101  0.6487  0.2040
  903MOL0     C21823   2.910   8.448   8.461  0.5281 -0.2857 -0.2330
  903MOL0     C21824   3.049   8.469   8.477  0.8226 -0.7032  0.2873
  903MOL0     C21825   3.470   8.587   8.548  0.0161 -0.3910 -0.2631
  903MOL0     C21826   3.516   8.709   8.480 -0.2419  0.5465 -0.4823
  903MOL0     C21827   3.654   8.729   8.462  1.0679  0.2045  0.1694
  903MOL0     C21828   3.750   8.638   8.505 -0.1121 -0.2677  0.6140
  903MOL0     O21829   3.882   8.681   8.489 -0.4368  0.0592  0.0800
  903MOL0     C21830   3.981   8.610   8.568 -0.2297  0.4882  0.4520
  903MOL0     C21831   4.126   8.681   8.573  0.1634  0.4572  0.3159
  903MOL0     C21832   4.176   8.739   8.441  0.2095  0.9792  0.0085
  903MOL0     C21833   4.146   8.888   8.421 -0.3597  0.1313  0.5625
  903MOL0     C21834   4.208   8.969   8.527 -0.6819 -1.0544  0.3328
  903MOL0     C21835   4.266   9.040   8.611 -0.3034  0.7631  0.4519
  903MOL0     C21836   3.709   8.523   8.568  0.2842  0.1168 -0.0779
  903MOL0     C21837   3.572   8.496   8.598  0.3240  0.6517 -0.1263
  903MOL0     H21838   3.062   8.804   8.492  0.6394 -1.0448 -0.4553
  903MOL0     H21839   2.817   8.775   8.500 -1.4608 -0.4171 -3.3208
  903MOL0     H21840   2.486   8.569   8.463 -1.4243  3.1622 -0.1876
  903MOL0     H21841   2.599   8.650   8.570  2.4964 -1.8291  0.5172
  903MOL0     H21842   2.679   8.773   8.363  0.3596 -0.3066  0.5171
  903MOL0     H21843   2.582   8.678   8.259 -0.4810 -1.0873  0.4472
  903MOL0     H21844   2.461   8.884   8.457  1.5056  1.5262 -1.1688
  903MOL0     H21845   2.483   8.906   8.286  0.7888 -0.9609 -0.6652
  903MOL0     H21846   2.338   8.739   8.211  0.8506 -1.2731  0.1700
  903MOL0     H21847   2.306   8.663   8.363 -0.2699  0.1216  0.0895
  903MOL0     H21848   2.238   8.954   8.301 -0.0910 -0.4159 -2.0721
  903MOL0     H21849   2.144   8.802   8.254  0.6921 -3.1749  2.3089
  903MOL0     H21850   2.124   8.737   8.489  2.0210 -0.3592  0.8075
  903MOL0     H21851   2.220   8.871   8.543 -0.0592 -1.3747 -0.0648
  903MOL0     H21852   2.048   9.031   8.443 -0.4254  0.2526  2.0254
  903MOL0     H21853   1.960   8.894   8.391 -0.5985  4.4334 -2.4974
  903MOL0     H21854   2.036   8.927   8.690  0.3983  1.3948 -1.2153
  903MOL0     H21855   1.916   8.813   8.627  0.4110 -0.7909 -0.6054
  903MOL0     H21856   1.703   8.895   8.730 -0.5625 -0.1065 -1.4053
  903MOL0     H21857   1.554   9.058   8.871 -1.8653  0.4855 -0.3922
  903MOL0     H21858   1.580   9.218   8.868 -2.9926 -1.2030  2.4017
  903MOL0     H21859   1.416   9.076   8.666  0.2541  0.4189  0.2216
  903MOL0     H21860   1.453   9.254   8.655 -0.3762  2.3603  2.7270
  903MOL0     H21861   1.370   9.252   8.909 -0.7857 -1.0242  0.2920
  903MOL0     H21862   1.291   9.096   8.861 -2.3215  0.5553  0.3349
  903MOL0     H21863   1.158   9.197   8.679 -0.6052 -0.1077  0.3535
  903MOL0     H21864   1.230   9.351   8.723  1.2383  0.1730  1.2278
  903MOL0     H21865   0.902   9.289   9.039  1.8377  1.8340  0.2386
  903MOL0     H21866   0.653   9.469   9.064 -0.3573 -1.1822  1.6270
  903MOL0     H21867   0.550   9.347   8.985 -0.9726 -0.1914  1.6846
  903MOL0     H21868   0.667   9.284   9.080  0.2586  0.3603  0.5046
  903MOL0     H21869   0.287   9.451   8.960  2.0507 -1.6337 -1.0817
  903MOL0     H21870   0.049   9.524   8.907  1.9442  2.3502  2.5494
  903MOL0     H21871  -0.179   9.518   8.595  1.7451  1.8150 -1.6918
  903MOL0     H21872  -0.086   9.452   8.733 -2.0351 -1.0143 -0.2658
  903MOL0     H21873  -0.271   9.474   8.810  0.8923 -0.7784  1.4564
  903MOL0     H21874  -0.193   9.608   8.883 -2.3079 -3.4919  1.7550
  903MOL0     H21875  -0.378   9.637   8.633 -2.8058  2.1084 -0.3608
  903MOL0     H21876  -0.308   9.763   8.729  1.4312 -0.5166 -2.5963
  903MOL0     H21877  -0.508   9.545   8.825  1.5097  0.4726 -0.3461
  903MOL0     H21878  -0.452   9.676   8.928 -1.1267  2.2049  0.7000
  903MOL0     H21879  -0.605   9.711   8.652 -1.1485  0.3927  0.7391
  903MOL0     H21880  -0.554   9.832   8.767  1.4507 -0.8570  2.1140
  903MOL0     H21881  -0.784   9.640   8.796  0.1367  2.2226 -2.4234
  903MOL0     H21882  -0.709   9.736   8.933  0.0401  1.4703  0.9740
  903MOL0     H21883  -0.789   9.875   8.684 -0.3784 -0.0446 -0.7899
  903MOL0     H21884  -0.791   9.921   8.855  0.3927  0.6559 -0.7679
  903MOL0     H21885  -0.995   9.850   8.899 -1.3725 -0.4392  0.6052
  903MOL0     H21886  -0.989   9.715   8.778 -1.5996  0.8690 -0.2748
  903MOL0     H21887   0.178   9.703   8.548  2.1236  1.0993 -0.4143
  903MOL0     H21888   0.423   9.652   8.609  1.2179 -1.8532  0.4764
  903MOL0     H21889   0.787   9.406   8.573  0.7932 -1.1089  0.6802
  903MOL0     H21890   1.010   9.362   8.624 -0.4231  0.7880 -0.3963
  903MOL0     H21891   2.859   8.357   8.431 -0.2514 -0.5647  1.8019
  903MOL0     H21892   3.126   8.393   8.480 -0.3799 -1.9275  1.3007
  903MOL0     H21893   3.446   8.777   8.433 -0.1223  0.3097 -1.0138
  903MOL0     H21894   3.688   8.818   8.411 -0.3261  0.9101  0.4124
  903MOL0     H21895   3.946   8.597   8.670  0.7872  1.1227  0.8975
  903MOL0     H21896   3.995   8.512   8.520 -1.6528  0.0615  0.8735
  903MOL0     H21897   4.192   8.602   8.610  2.3528  1.5969 -0.9876
  903MOL0     H21898   4.118   8.762   8.647 -2.1437  1.4545 -0.9215
  903MOL0     H21899   4.133   8.673   8.366  0.8526 -0.9449  1.2730
  903MOL0     H21900   4.284   8.728   8.426  0.4008  2.3931  0.1633
  903MOL0     H21901   4.039   8.909   8.424 -0.9555 -2.6167  1.5150
  903MOL0     H21902   4.170   8.915   8.317 -0.0728 -2.4227 -0.0979
  903MOL0     H21903   4.320   9.089   8.690  2.2571 -2.0301  0.6136
  903MOL0     H21904   3.780   8.447   8.600  1.6371  1.2218 -0.3668
  903MOL0     H21905   3.542   8.399   8.636 -0.5962  0.3082 -1.6475
  904MOL0     O21906   1.215   1.392   8.898  0.2675  0.1150  0.3053
  904MOL0     C21907   1.169   1.365   9.009 -1.2354  1.1456  1.0630
  904MOL0     O21908   1.049   1.306   9.043  0.2790 -0.7546  0.8030
  904MOL0     C21909   0.954   1.281   8.955 -0.3132  0.0049  0.5678
  904MOL0     C21910   0.865   1.385   8.929  0.6468  0.8755 -0.5061
  904MOL0     C21911   0.746   1.361   8.855  0.3008 -0.3237 -0.2755
  904MOL0     C21912   0.711   1.229   8.810  0.0211  0.2140 -0.0354
  904MOL0     O21913   0.579   1.202   8.770 -0.1214  0.3867 -0.5966
  904MOL0     C21914   0.573   1.162   8.630 -0.4787 -0.4740 -0.9596
  904MOL0     C21915   0.491   1.265   8.562  0.1791 -0.9923 -0.2193
  904MOL0     C21916   0.336   1.260   8.587 -0.6654  0.3386  0.0185
  904MOL0     C21917   0.256   1.328   8.469  0.6764 -0.1794 -0.4640
  904MOL0     C21918   0.110   1.376   8.501  0.0973  0.2972 -0.1658
  904MOL0     C21919   0.013   1.263   8.537 -0.5069  0.3249  0.1175
  904MOL0     C21920  -0.006   1.160   8.416 -0.0553 -0.6523  0.5902
  904MOL0     C21921  -0.065   1.222   8.292 -0.6755  0.1862 -0.5220
  904MOL0     N21922  -0.196   1.292   8.317  0.1341  0.3628  0.2127
  904MOL0     C21923  -0.221   1.429   8.313 -0.3336  0.4205  0.1818
  904MOL0     C21924  -0.342   1.450   8.371  0.4822 -0.5232  0.4095
  904MOL0     C21925  -0.401   1.592   8.389 -0.0112  0.4437  0.4136
  904MOL0     C21926  -0.538   1.595   8.326  0.3676 -0.1056 -0.1096
  904MOL0     C21927  -0.534   1.596   8.175  0.3654  0.2634 -0.1808
  904MOL0     C21928  -0.673   1.615   8.122  0.2085  1.6399  0.4075
  904MOL0     O21929  -0.734   1.487   8.094 -0.4041 -0.4275  0.2215
  904MOL0     C21930  -0.850   1.493   8.016  0.3245 -0.8297 -0.3137
  904MOL0     C21931  -0.897   1.375   7.968  0.1178 -0.0396 -0.2320
  904MOL0     C21932  -1.020   1.361   7.907  0.1243 -0.3839 -0.4153
  904MOL0     C21933  -1.061   1.228   7.858 -0.0119 -1.0733 -0.7268
  904MOL0     C21934  -1.086   1.478   7.870  0.2653  0.0922 -0.1742
  904MOL0     C21935  -1.223   1.470   7.803 -0.4602  0.3049  0.0505
  904MOL0     O21936  -1.253   1.550   7.705  0.1320 -0.1490  0.3023
  904MOL0     C21937  -1.366   1.518   7.628 -0.3966 -0.5428  0.2034
  904MOL0     C21938  -1.490   1.588   7.648  0.5494  0.3163  1.0354
  904MOL0     C21939  -1.604   1.561   7.569 -0.6247  0.6163 -0.1447
  904MOL0     C21940  -1.602   1.468   7.471 -0.5595 -0.1986  0.6923
  904MOL0     O21941  -1.710   1.461   7.385 -0.3184  0.4177 -0.3511
  904MOL0     C21942  -1.703   1.387   7.266  0.4458  0.8060  0.4027
  904MOL0     C21943  -1.824   1.413   7.177  0.0354  0.8619  0.6935
  904MOL0     C21944  -1.815   1.314   7.055  1.0479  0.4733 -0.0657
  904MOL0     C21945  -1.933   1.334   6.959 -0.2555  0.1544  0.3457
  904MOL0     C21946  -1.941   1.226   6.847  0.0100 -0.0220 -0.4067
  904MOL0     C21947  -2.066   1.265   6.767  0.6379  0.1625  0.0388
  904MOL0     C21948  -2.058   1.212   6.622  0.1976  0.5102  0.6484
  904MOL0     C21949  -2.041   1.062   6.604 -0.3715 -0.1425 -0.7734
  904MOL0    Cl21950  -2.174   0.971   6.689  0.2901 -0.1723  0.2993
  904MOL0     C21951  -1.480   1.398   7.445  0.0406 -0.1842 -0.8049
  904MOL0     C21952  -1.357   1.427   7.525  0.0044  1.1620 -0.4524
  904MOL0     O21953  -1.300   1.391   7.859  0.2592  0.3134 -0.1736
  904MOL0     C21954  -1.043   1.604   7.912  0.5383 -0.5530  0.4224
  904MOL0     C21955  -0.924   1.606   7.986 -0.2919 -1.1113  1.1817
  904MOL0     N21956  -0.400   1.329   8.403  0.8177 -0.2042  0.4370
  904MOL0     N21957  -0.309   1.244   8.374  0.6028 -1.0200 -0.0465
  904MOL0     C21958   0.801   1.134   8.837 -0.4200 -0.2724  0.2081
  904MOL0     C21959   0.922   1.155   8.909  0.5970  1.0680 -0.0711
  904MOL0     C21960   1.268   1.375   9.120  0.3479  0.9719  0.2745
  904MOL0     C21961   1.388   1.449   9.112  0.0746  0.3945 -0.2026
  904MOL0     C21962   1.473   1.457   9.218  0.1586  0.2694 -0.7601
  904MOL0     C21963   1.439   1.394   9.341  0.5487  0.4392 -0.8883
  904MOL0     O21964   1.512   1.403   9.454  0.2205 -0.0935  0.0876
  904MOL0     C21965   1.645   1.469   9.438  0.0676  0.2598  0.5778
  904MOL0     C21966   1.736   1.450   9.565  0.0970 -0.3624 -0.0388
  904MOL0     C21967   1.755   1.308   9.602  0.6047 -0.6192 -0.4990
  904MOL0     C21968   1.630   1.239   9.676 -0.0097  0.0301  0.0882
  904MOL0     C21969   1.615   1.288   9.812 -0.9642  1.2326  0.3519
  904MOL0     C21970   1.599   1.337   9.927  0.4576  0.1125 -0.1438
  904MOL0     C21971   1.314   1.329   9.358  0.0205  0.0613  0.5281
  904MOL0     C21972   1.228   1.327   9.250 -0.2527  0.3766  0.3608
  904MOL0     H21973   0.891   1.484   8.963  1.9687  0.7075 -0.9546
  904MOL0     H21974   0.680   1.445   8.838  2.2697  1.1527 -0.9830
  904MOL0     H21975   0.669   1.165   8.578  0.2934  1.0185  0.4604
  904MOL0     H21976   0.523   1.065   8.615 -2.7111  0.7111 -1.6938
  904MOL0     H21977   0.524   1.363   8.597  0.1960 -0.6753 -1.0844
  904MOL0     H21978   0.502   1.264   8.453  0.0250  1.8528 -0.3490
  904MOL0     H21979   0.302   1.157   8.604 -0.0885  0.1662  0.1669
  904MOL0     H21980   0.323   1.318   8.679  0.3068 -0.4000  0.6546
  904MOL0     H21981   0.314   1.410   8.427  3.7703 -1.8422  0.2457
  904MOL0     H21982   0.250   1.257   8.386  0.4695  1.2570 -1.7263
  904MOL0     H21983   0.117   1.456   8.576  0.2421 -0.9098  1.1519
  904MOL0     H21984   0.066   1.420   8.411  0.9993  2.9671  0.5829
  904MOL0     H21985   0.062   1.212   8.621  1.9053  1.5450 -0.4699
  904MOL0     H21986  -0.079   1.305   8.577 -1.8468 -1.4138 -0.9655
  904MOL0     H21987   0.090   1.119   8.385  1.1157  1.2611  1.4953
  904MOL0     H21988  -0.066   1.073   8.445 -0.1212 -1.8842 -2.8674
  904MOL0     H21989  -0.091   1.136   8.229 -1.6144 -0.8709  1.2218
  904MOL0     H21990   0.017   1.279   8.248  0.6607 -1.7859 -0.7296
  904MOL0     H21991  -0.144   1.498   8.281  1.1832 -1.5190 -0.5534
  904MOL0     H21992  -0.403   1.616   8.496  1.2370 -1.3092  0.8711
  904MOL0     H21993  -0.347   1.672   8.338 -0.1285 -0.8766 -1.8865
  904MOL0     H21994  -0.582   1.687   8.366  3.2953  1.3381  0.0595
  904MOL0     H21995  -0.592   1.509   8.367 -0.2947 -0.0765 -0.8865
  904MOL0     H21996  -0.485   1.502   8.147  2.1672  0.8824  0.7137
  904MOL0     H21997  -0.462   1.666   8.131 -0.9301 -0.8560 -4.5297
  904MOL0     H21998  -0.654   1.665   8.026 -1.3310 -0.6447 -1.1881
  904MOL0     H21999  -0.735   1.676   8.188 -1.8619  1.0827 -0.9038
  904MOL0     H22000  -0.840   1.288   8.001 -2.2349 -1.7533 -0.3797
  904MOL0     H22001  -1.051   1.222   7.749  1.8993  1.3428 -0.7620
  904MOL0     H22002  -1.006   1.148   7.909  0.8224 -0.2357 -0.2923
  904MOL0     H22003  -1.162   1.195   7.887  0.5554 -1.4289  0.9562
  904MOL0     H22004  -1.496   1.656   7.732  1.1020 -2.5173  3.5389
  904MOL0     H22005  -1.695   1.617   7.591 -0.8349  0.0182  0.5418
  904MOL0     H22006  -1.608   1.410   7.216  2.3429  1.8743  4.1165
  904MOL0     H22007  -1.701   1.280   7.288  2.5984  0.8549  0.6378
  904MOL0     H22008  -1.913   1.389   7.235  0.4710 -0.2410  0.9203
  904MOL0     H22009  -1.838   1.517   7.146  1.5791  0.8181 -0.3021
  904MOL0     H22010  -1.824   1.214   7.098 -0.1849  1.3981  1.9786
  904MOL0     H22011  -1.720   1.326   7.003  1.4733 -0.8761  0.3669
  904MOL0     H22012  -2.025   1.334   7.020  0.6598 -1.9142  1.8633
  904MOL0     H22013  -1.906   1.434   6.923 -1.2207  1.5931  3.2673
  904MOL0     H22014  -1.955   1.125   6.886 -0.5187  0.1749 -0.0660
  904MOL0     H22015  -1.857   1.242   6.780 -0.9464  1.0232 -1.3991
  904MOL0     H22016  -2.157   1.233   6.819  0.0524  0.1227 -0.9807
  904MOL0     H22017  -2.073   1.373   6.750  3.8174  0.5015  0.3241
  904MOL0     H22018  -1.974   1.259   6.571 -1.8444  1.3267 -2.1934
  904MOL0     H22019  -2.156   1.238   6.582 -1.4317 -2.8860  2.0196
  904MOL0     H22020  -1.942   1.044   6.647  0.4752 -0.9390 -2.9191
  904MOL0     H22021  -2.033   1.051   6.495  1.1371 -2.0648 -0.5308
  904MOL0     H22022  -1.466   1.327   7.364 -1.8904  0.8338 -2.0806
  904MOL0     H22023  -1.265   1.374   7.504 -0.9905 -0.2301 -1.4956
  904MOL0     H22024  -1.087   1.702   7.896  4.6353  1.7016  1.4519
  904MOL0     H22025  -0.886   1.702   8.018  0.5950 -1.0236 -0.0440
  904MOL0     H22026   0.775   1.032   8.812  3.4131 -0.7767 -2.6041
  904MOL0     H22027   0.978   1.068   8.940 -0.3051  0.6361  0.3948
  904MOL0     H22028   1.403   1.512   9.024  0.2103  1.4669  0.5629
  904MOL0     H22029   1.563   1.519   9.216  1.2748 -1.3018 -1.4343
  904MOL0     H22030   1.703   1.432   9.352  2.4554  0.6247  1.9455
  904MOL0     H22031   1.629   1.576   9.424 -0.3764  0.0881 -0.3356
  904MOL0     H22032   1.695   1.503   9.652  3.0173 -1.2537  2.0336
  904MOL0     H22033   1.840   1.478   9.549 -0.1843 -0.5658 -2.5766
  904MOL0     H22034   1.843   1.300   9.666  1.1904 -1.6678 -1.4062
  904MOL0     H22035   1.780   1.249   9.513  0.8109 -1.2075 -0.0568
  904MOL0     H22036   1.659   1.134   9.681  0.1291  0.0630 -0.0107
  904MOL0     H22037   1.538   1.232   9.617  0.0629 -2.7398  0.1815
  904MOL0     H22038   1.604   1.398  10.015  2.3296  0.1994 -0.2571
  904MOL0     H22039   1.282   1.287   9.453  0.9630  0.2336  0.9292
  904MOL0     H22040   1.133   1.274   9.255 -1.4077  2.1934 -1.0530
  905MOL0     O22041   5.811   8.197   0.527  0.1287 -0.4167  0.5430
  905MOL0     C22042   5.806   8.196   0.397  0.0141  0.4556 -1.2184
  905MOL0     O22043   5.690   8.215   0.332 -0.2321 -0.3353  0.6716
  905MOL0     C22044   5.575   8.252   0.392  0.5082  0.1481 -0.1433
  905MOL0     C22045   5.505   8.365   0.363 -0.2426  0.2847 -0.1793
  905MOL0     C22046   5.403   8.414   0.443 -0.0785 -0.3688  0.0832
  905MOL0     C22047   5.360   8.336   0.550 -0.1663 -0.1631  0.0744
  905MOL0     O22048   5.252   8.388   0.621 -0.0701 -0.5170 -0.2317
  905MOL0     C22049   5.164   8.297   0.686  0.4432  0.9744  0.3003
  905MOL0     C22050   5.027   8.354   0.704 -0.0726 -0.0354  0.2834
  905MOL0     C22051   4.948   8.368   0.571 -0.2018 -0.9265  0.7220
  905MOL0     C22052   4.830   8.471   0.596  0.1947  0.5998  0.8919
  905MOL0     C22053   4.738   8.491   0.478  0.2119  0.1709 -0.7040
  905MOL0     C22054   4.639   8.614   0.507 -0.4866 -0.2076  0.8370
  905MOL0     C22055   4.540   8.638   0.394 -0.0788  0.2373 -0.6117
  905MOL0     C22056   4.436   8.526   0.369 -0.5365  0.6368  0.4162
  905MOL0     N22057   4.366   8.479   0.481 -0.0016 -0.2801  0.0029
  905MOL0     C22058   4.261   8.526   0.554  0.1770 -0.4544  0.4640
  905MOL0     C22059   4.225   8.441   0.653  0.1592 -0.5910 -0.4938
  905MOL0     C22060   4.110   8.451   0.755 -0.0869  0.0367 -0.5965
  905MOL0     C22061   3.980   8.390   0.693  0.2479  0.2964 -0.2134
  905MOL0     C22062   3.919   8.473   0.579 -0.1605  0.4164  0.2781
  905MOL0     C22063   3.785   8.420   0.530  0.2374  0.4980 -0.3299
  905MOL0     O22064   3.681   8.464   0.612 -0.0638 -0.1061 -0.5041
  905MOL0     C22065   3.552   8.413   0.595 -0.3077 -0.0289 -0.2748
  905MOL0     C22066   3.454   8.488   0.671 -0.6766  0.7260  0.2518
  905MOL0     C22067   3.315   8.467   0.659  0.0167 -0.2655  0.8077
  905MOL0     C22068   3.220   8.560   0.730  0.3693  0.1240  0.8896
  905MOL0     C22069   3.269   8.365   0.565 -1.1265 -0.1281 -0.3496
  905MOL0     C22070   3.133   8.334   0.528  0.1122 -0.3745 -2.2006
  905MOL0     O22071   3.032   8.405   0.591 -0.6423  0.2953  0.5356
  905MOL0     C22072   2.900   8.405   0.558 -0.8023  0.0859  0.8688
  905MOL0     C22073   2.827   8.476   0.647 -0.1426  0.3216  0.2256
  905MOL0     C22074   2.690   8.477   0.642  0.1334 -0.1090 -0.3766
  905MOL0     C22075   2.618   8.421   0.537 -0.1921 -0.6896  0.8529
  905MOL0     O22076   2.483   8.426   0.529  0.2600  0.2390  0.3464
  905MOL0     C22077   2.431   8.337   0.439  0.5897  0.3439  1.0524
  905MOL0     C22078   2.278   8.336   0.444  0.3321  0.3772 -0.0732
  905MOL0     C22079   2.225   8.290   0.581  0.2135 -0.3385  0.2194
  905MOL0     C22080   2.070   8.298   0.581 -0.3622 -0.1294 -0.9047
  905MOL0     C22081   2.004   8.201   0.680  0.2703  0.0971 -0.1889
  905MOL0     C22082   1.854   8.195   0.660 -0.5114  0.3926 -0.0164
  905MOL0     C22083   1.798   8.075   0.729  0.0395 -0.6509  0.4739
  905MOL0     C22084   1.642   8.090   0.753 -0.6106  0.0417 -0.1057
  905MOL0    Cl22085   1.562   7.943   0.794  0.2339  0.0516 -0.2021
  905MOL0     C22086   2.704   8.364   0.426  0.7334 -0.7398 -1.0501
  905MOL0     C22087   2.839   8.349   0.442  0.3433  0.8303  0.0703
  905MOL0     O22088   3.107   8.232   0.464 -0.4055 -0.1957 -0.3256
  905MOL0     C22089   3.369   8.287   0.501  0.1051  0.2223  0.0485
  905MOL0     C22090   3.511   8.315   0.508  0.9496  0.2268 -0.9162
  905MOL0     N22091   4.314   8.332   0.647  0.1990  0.5778  0.4124
  905MOL0     N22092   4.399   8.359   0.547  0.6473  0.4351 -0.0267
  905MOL0     C22093   5.409   8.213   0.574 -1.0627  0.5816 -0.4752
  905MOL0     C22094   5.519   8.168   0.494  0.3194  0.3472 -0.5569
  905MOL0     C22095   5.935   8.164   0.327  0.4188  0.6567  0.0970
  905MOL0     C22096   5.936   8.183   0.190 -0.6282 -0.3360 -0.3666
  905MOL0     C22097   6.058   8.177   0.120  0.1769  0.3829  0.0606
  905MOL0     C22098   6.178   8.145   0.184  0.6482  0.3266 -0.3837
  905MOL0     O22099   6.293   8.115   0.127  0.5042 -1.0344  0.0128
  905MOL0     C22100   6.317   8.156  -0.006  0.1309  0.1529  0.1956
  905MOL0     C22101   6.466   8.154  -0.023  0.4687  0.4652  0.4165
  905MOL0     C22102   6.510   8.008  -0.022  0.1648 -0.5135 -0.3645
  905MOL0     C22103   6.661   7.997  -0.055  0.0884  0.9808 -0.9600
  905MOL0     C22104   6.692   7.848  -0.066 -0.4174 -0.6981  0.9160
  905MOL0     C22105   6.719   7.726  -0.075  0.7253  0.1382 -0.3819
  905MOL0     C22106   6.173   8.134   0.330 -0.1182  0.0100 -0.5584
  905MOL0     C22107   6.051   8.146   0.401  0.6110 -0.1114 -0.1770
  905MOL0     H22108   5.550   8.423   0.283  2.1084 -1.4815 -0.2434
  905MOL0     H22109   5.361   8.513   0.426 -0.7109 -0.1350  2.6146
  905MOL0     H22110   5.157   8.209   0.621  3.7020 -0.0306  1.1305
  905MOL0     H22111   5.204   8.269   0.784 -0.7949  0.7205  0.7574
  905MOL0     H22112   4.957   8.297   0.765 -1.8561 -2.7630 -3.8497
  905MOL0     H22113   5.048   8.443   0.764  2.0175 -1.0985  1.2589
  905MOL0     H22114   5.015   8.407   0.494 -0.3578 -2.7253 -0.3953
  905MOL0     H22115   4.907   8.276   0.529  0.9120  0.0929 -3.0967
  905MOL0     H22116   4.772   8.456   0.688  0.9624  1.5336  1.5406
  905MOL0     H22117   4.885   8.565   0.606 -0.1656  0.9248 -0.0288
  905MOL0     H22118   4.810   8.498   0.396  4.0150  2.0146  2.4340
  905MOL0     H22119   4.678   8.403   0.451  2.2737 -1.9301  1.2159
  905MOL0     H22120   4.593   8.598   0.605 -0.8305 -6.0985  0.0931
  905MOL0     H22121   4.707   8.698   0.524 -0.3771 -0.5391  2.1143
  905MOL0     H22122   4.482   8.729   0.412 -2.1728 -1.0316 -0.5972
  905MOL0     H22123   4.599   8.671   0.308 -1.5215  2.4088 -0.8523
  905MOL0     H22124   4.490   8.443   0.321 -2.1874 -0.7597  0.8762
  905MOL0     H22125   4.375   8.569   0.289 -0.6735 -0.2490  0.0229
  905MOL0     H22126   4.201   8.614   0.531 -3.4553 -3.1028 -1.2712
  905MOL0     H22127   4.141   8.389   0.840 -0.3357  1.0525  0.2615
  905MOL0     H22128   4.086   8.549   0.797 -2.1330 -0.5932 -0.1920
  905MOL0     H22129   3.895   8.381   0.762 -1.7977 -1.4480 -2.7483
  905MOL0     H22130   3.990   8.288   0.656  0.6184  0.0810  0.4783
  905MOL0     H22131   3.988   8.484   0.495 -1.2293 -0.7993 -0.7978
  905MOL0     H22132   3.905   8.569   0.630 -0.0690 -0.5136  2.1486
  905MOL0     H22133   3.789   8.312   0.550  1.2005  0.8632  1.7549
  905MOL0     H22134   3.755   8.426   0.425 -0.2780  1.4406 -0.1355
  905MOL0     H22135   3.493   8.568   0.734 -2.3330 -0.1427  2.4923
  905MOL0     H22136   3.289   8.630   0.779  0.6954  0.4989 -0.0934
  905MOL0     H22137   3.165   8.639   0.679  1.4860  0.0154 -0.5363
  905MOL0     H22138   3.149   8.506   0.794 -0.4500  2.0178  1.6261
  905MOL0     H22139   2.870   8.539   0.723 -1.3571  1.1285  0.2643
  905MOL0     H22140   2.630   8.535   0.711 -0.8172 -1.4109 -0.0709
  905MOL0     H22141   2.465   8.349   0.336 -0.2811 -1.3259  0.5300
  905MOL0     H22142   2.458   8.237   0.475 -1.2837  0.1795  2.1306
  905MOL0     H22143   2.241   8.436   0.420  1.4671  0.4116 -1.9215
  905MOL0     H22144   2.246   8.262   0.370  0.0862 -0.4402  0.8283
  905MOL0     H22145   2.254   8.348   0.669 -1.5863 -0.1700  0.7544
  905MOL0     H22146   2.260   8.188   0.598  3.2460  0.9318  2.4992
  905MOL0     H22147   2.036   8.398   0.608  0.8318  1.8006 -5.4931
  905MOL0     H22148   2.042   8.275   0.478 -1.6496  0.6756 -0.7463
  905MOL0     H22149   2.035   8.219   0.783  1.2047 -0.2499 -0.4042
  905MOL0     H22150   2.047   8.103   0.659  1.3399  0.4334  0.3878
  905MOL0     H22151   1.810   8.287   0.701  2.5269  2.6628 -1.4809
  905MOL0     H22152   1.839   8.186   0.552 -0.7121  1.0946 -0.0549
  905MOL0     H22153   1.861   8.058   0.817  2.1132  2.2684 -0.2765
  905MOL0     H22154   1.818   7.994   0.658  0.1706 -0.9883  0.8942
  905MOL0     H22155   1.596   8.127   0.661 -0.9120 -1.4053 -0.5552
  905MOL0     H22156   1.629   8.160   0.836  1.1408  0.3305 -0.0336
  905MOL0     H22157   2.671   8.311   0.337  3.3522 -1.9752 -1.3449
  905MOL0     H22158   2.898   8.283   0.378  0.0701  0.6855 -0.0327
  905MOL0     H22159   3.338   8.216   0.425  3.4643  0.6301 -1.9103
  905MOL0     H22160   3.573   8.247   0.450 -0.6174 -3.0654  0.9163
  905MOL0     H22161   5.376   8.151   0.656  0.5521  0.4442  0.0976
  905MOL0     H22162   5.548   8.066   0.516 -2.0153  0.1133  2.0099
  905MOL0     H22163   5.844   8.192   0.133  0.6615  3.0240 -2.1653
  905MOL0     H22164   6.059   8.185   0.012 -1.1149 -1.5589 -0.1508
  905MOL0     H22165   6.273   8.079  -0.069  2.3620  0.4941 -1.9345
  905MOL0     H22166   6.277   8.252  -0.038  1.1542  0.5059 -0.0765
  905MOL0     H22167   6.510   8.206   0.062 -3.1231 -1.8059  4.0663
  905MOL0     H22168   6.491   8.204  -0.117 -1.2069  1.4967  0.4853
  905MOL0     H22169   6.455   7.959  -0.102  2.8221 -0.0337 -2.6677
  905MOL0     H22170   6.483   7.964   0.074  1.6363 -0.1301  0.2538
  905MOL0     H22171   6.711   8.044   0.030 -3.0517 -1.2027  2.3474
  905MOL0     H22172   6.671   8.043  -0.154 -0.3175  2.0484 -0.5257
  905MOL0     H22173   6.740   7.621  -0.083 -3.1904 -0.8392  0.0718
  905MOL0     H22174   6.263   8.102   0.382 -0.1256 -0.3873 -0.7871
  905MOL0     H22175   6.061   8.142   0.509 -1.9243 -2.8866  0.1027
  906MOL0     O22176   5.601  10.091   0.381 -0.2546  0.8078 -0.3953
  906MOL0     C22177   5.616  10.212   0.364  0.6547 -0.6540  0.1644
  906MOL0     O22178   5.507  10.296   0.341  0.0450 -0.1537  0.1519
  906MOL0     C22179   5.381  10.238   0.334  0.0080 -0.2425 -0.0798
  906MOL0     C22180   5.287  10.271   0.429  0.2307  0.0039  1.3093
  906MOL0     C22181   5.163  10.208   0.424  0.3476  0.1181 -0.3302
  906MOL0     C22182   5.122  10.117   0.327  0.1560 -0.1409  0.6279
  906MOL0     O22183   5.004  10.051   0.337  0.3900 -0.4603 -0.5291
  906MOL0     C22184   4.992   9.910   0.296  0.8615  0.3178 -0.7871
  906MOL0     C22185   4.874   9.841   0.357  1.1105 -0.3461 -0.2064
  906MOL0     C22186   4.745   9.923   0.399  0.0313 -0.5340  0.1009
  906MOL0     C22187   4.677   9.994   0.275 -0.8877  0.2720  0.6363
  906MOL0     C22188   4.554  10.074   0.325  0.3175  0.0310 -0.1747
  906MOL0     C22189   4.479  10.142   0.212 -0.1741 -0.1303  0.1266
  906MOL0     C22190   4.355  10.218   0.241  0.3280  0.0180 -0.4110
  906MOL0     C22191   4.240  10.130   0.299 -0.0261 -0.0052 -0.5924
  906MOL0     N22192   4.142  10.220   0.354 -0.0833  0.0128  0.1798
  906MOL0     C22193   4.160  10.286   0.471 -0.2353  0.3638 -0.0386
  906MOL0     C22194   4.061  10.381   0.478  0.1677 -0.0832 -0.3709
  906MOL0     C22195   4.029  10.472   0.590 -0.4211  0.8662 -0.7050
  906MOL0     C22196   3.901  10.553   0.573  0.4285 -1.3662 -0.3896
  906MOL0     C22197   3.896  10.668   0.682 -0.2215 -0.2609  0.4413
  906MOL0     C22198   3.770  10.760   0.678 -0.5097 -0.2962  0.5962
  906MOL0     O22199   3.732  10.784   0.539  0.2879 -0.1167 -0.3507
  906MOL0     C22200   3.592  10.811   0.519 -0.1725 -0.6950 -0.0005
  906MOL0     C22201   3.518  10.895   0.605 -0.4396 -0.2871  0.7213
  906MOL0     C22202   3.385  10.940   0.569 -0.6910  0.3356 -0.6297
  906MOL0     C22203   3.310  11.033   0.659 -0.7414 -0.5950  0.1687
  906MOL0     C22204   3.322  10.881   0.454  0.2656  0.0138 -0.9016
  906MOL0     C22205   3.187  10.913   0.400 -0.0394 -0.0409 -0.9270
  906MOL0     O22206   3.147  10.826   0.301 -0.2628  0.1091 -0.4420
  906MOL0     C22207   3.023  10.814   0.254  0.4719  0.5543 -0.0644
  906MOL0     C22208   2.911  10.821   0.343 -0.2303 -0.7174  0.8317
  906MOL0     C22209   2.783  10.793   0.306  0.5263 -0.1572  0.1661
  906MOL0     C22210   2.760  10.752   0.176 -1.5131  0.3941  0.0533
  906MOL0     O22211   2.642  10.711   0.135  0.4999 -0.4997  0.2924
  906MOL0     C22212   2.609  10.752  -0.004  0.2124 -1.0402 -0.6306
  906MOL0     C22213   2.460  10.749  -0.034  0.0915 -0.1426  0.8455
  906MOL0     C22214   2.399  10.879  -0.002 -0.0331  0.1783  0.3545
  906MOL0     C22215   2.247  10.874  -0.016  0.4180  0.3725  0.1469
  906MOL0     C22216   2.171  11.011  -0.009  0.0715  0.4852  0.7363
  906MOL0     C22217   2.151  11.066   0.139 -0.4299  0.1089  0.4730
  906MOL0     C22218   2.063  10.982   0.229 -0.2272  0.4721 -0.4324
  906MOL0     C22219   2.030  11.048   0.370 -0.0789 -0.2928 -0.4029
  906MOL0    Cl22220   2.000  11.225   0.358 -0.4343 -0.0282  0.5937
  906MOL0     C22221   2.874  10.739   0.089 -0.4294  0.0022  0.1042
  906MOL0     C22222   3.002  10.772   0.125 -0.6079 -0.5906 -0.0818
  906MOL0     O22223   3.133  11.022   0.433  0.0855  0.5689 -0.3136
  906MOL0     C22224   3.398  10.793   0.375 -0.3025 -0.0539 -1.0161
  906MOL0     C22225   3.528  10.758   0.402  0.1583  0.1043  0.2445
  906MOL0     N22226   3.978  10.364   0.365 -0.1677 -0.2108  0.6829
  906MOL0     N22227   4.022  10.257   0.301 -0.2721  0.0419  0.2052
  906MOL0     C22228   5.213  10.101   0.221  0.0553  0.3589  1.2426
  906MOL0     C22229   5.346  10.154   0.223  1.1412 -1.2314 -0.2165
  906MOL0     C22230   5.742  10.274   0.403  0.4874  0.0184 -1.1410
  906MOL0     C22231   5.853  10.198   0.440  0.8045  0.0571  0.1135
  906MOL0     C22232   5.978  10.251   0.462  0.0970  0.0135 -0.1321
  906MOL0     C22233   5.999  10.390   0.449  0.6579  0.5992 -0.7426
  906MOL0     O22234   6.125  10.422   0.489 -0.1941 -0.0616  0.2027
  906MOL0     C22235   6.166  10.555   0.457 -0.0438  0.6617  0.7524
  906MOL0     C22236   6.304  10.586   0.518 -0.7911 -0.7637  0.2808
  906MOL0     C22237   6.398  10.478   0.468 -0.2456  1.3464 -0.8393
  906MOL0     C22238   6.542  10.516   0.514 -0.4174  0.3880 -0.1607
  906MOL0     C22239   6.629  10.401   0.522 -0.4849  0.6655 -0.0091
  906MOL0     C22240   6.676  10.290   0.525  0.1518  0.0027 -0.2531
  906MOL0     C22241   5.888  10.467   0.399 -0.7699 -0.2378 -0.5631
  906MOL0     C22242   5.765  10.411   0.377 -0.3763  0.4956 -0.4238
  906MOL0     H22243   5.292  10.354   0.499  1.9309  0.8584  0.2501
  906MOL0     H22244   5.086  10.226   0.498  0.5251  1.7078 -0.5032
  906MOL0     H22245   4.981   9.908   0.187 -0.0536 -2.5842 -0.7233
  906MOL0     H22246   5.083   9.855   0.322  0.8758  0.3167 -0.8386
  906MOL0     H22247   4.850   9.747   0.306 -2.6601  1.3445 -1.8270
  906MOL0     H22248   4.904   9.808   0.457 -0.2895 -3.3830 -0.6729
  906MOL0     H22249   4.665   9.860   0.441 -3.7331  2.7001 -1.6098
  906MOL0     H22250   4.766   9.997   0.476  0.4656 -1.4092  0.8430
  906MOL0     H22251   4.755  10.051   0.223 -0.6186  0.3390  1.1150
  906MOL0     H22252   4.647   9.919   0.201  0.6150 -0.6259  0.9036
  906MOL0     H22253   4.495   9.997   0.375 -1.0841  1.3865  0.3555
  906MOL0     H22254   4.589  10.153   0.393 -1.7295  0.4476  0.4584
  906MOL0     H22255   4.554  10.200   0.157 -0.4119  0.3716  0.3253
  906MOL0     H22256   4.445  10.057   0.152 -0.8925 -0.1735  0.5810
  906MOL0     H22257   4.381  10.298   0.310  0.2099  1.9250 -2.4442
  906MOL0     H22258   4.320  10.264   0.148 -3.3589 -0.5320  0.5230
  906MOL0     H22259   4.274  10.056   0.371 -2.6747  0.3063  1.1350
  906MOL0     H22260   4.196  10.069   0.219  1.8609 -1.2942 -0.6973
  906MOL0     H22261   4.238  10.262   0.543 -2.2486 -0.3810  2.0122
  906MOL0     H22262   4.011  10.398   0.669 -0.1869  1.9830  0.4287
  906MOL0     H22263   4.120  10.526   0.618  0.6200 -1.4210  0.6487
  906MOL0     H22264   3.812  10.491   0.587 -1.6378  0.9865 -2.1894
  906MOL0     H22265   3.899  10.592   0.471 -0.3145  0.6048  0.3264
  906MOL0     H22266   3.988  10.727   0.677  0.5430 -1.5043 -0.7066
  906MOL0     H22267   3.905  10.624   0.782 -0.0703 -2.5835 -0.5267
  906MOL0     H22268   3.802  10.852   0.727  0.8629  0.1221 -0.9933
  906MOL0     H22269   3.695  10.712   0.742  0.9156 -1.4004  1.5088
  906MOL0     H22270   3.560  10.944   0.692  1.2581 -0.3387 -0.0342
  906MOL0     H22271   3.217  10.992   0.699  0.2127  1.4608  5.3780
  906MOL0     H22272   3.371  11.056   0.747  0.8535 -0.6692 -0.8717
  906MOL0     H22273   3.302  11.124   0.599 -0.9277 -0.3382  0.5813
  906MOL0     H22274   2.935  10.841   0.447  0.3747  0.2757  0.5197
  906MOL0     H22275   2.706  10.786   0.383 -0.5159 -2.6118 -0.9862
  906MOL0     H22276   2.649  10.852  -0.021 -0.9732 -0.6829 -1.4243
  906MOL0     H22277   2.651  10.689  -0.082  1.1176  1.1844 -2.0390
  906MOL0     H22278   2.448  10.731  -0.141  0.7238  2.4401  0.2815
  906MOL0     H22279   2.417  10.664   0.020 -2.0661 -1.2274 -2.3514
  906MOL0     H22280   2.437  10.957  -0.068 -1.1330  0.4236 -0.0081
  906MOL0     H22281   2.435  10.913   0.096  2.2386 -1.8504  0.3135
  906MOL0     H22282   2.222  10.840  -0.117 -0.7873 -0.5017  0.7136
  906MOL0     H22283   2.196  10.805   0.052 -1.1011 -1.8968 -3.0456
  906MOL0     H22284   2.069  10.999  -0.046 -0.2474  1.4379  1.2587
  906MOL0     H22285   2.226  11.088  -0.063  1.6013  0.0155  1.5467
  906MOL0     H22286   2.247  11.059   0.191  0.0193  1.3495 -0.1558
  906MOL0     H22287   2.124  11.172   0.149 -0.8531 -0.1177  2.1041
  906MOL0     H22288   2.106  10.884   0.250 -1.0521 -0.4143 -2.6145
  906MOL0     H22289   1.971  10.954   0.178 -0.9270  0.7518  0.6440
  906MOL0     H22290   2.111  11.026   0.440 -0.4443  1.3673  0.6107
  906MOL0     H22291   1.946  11.004   0.424  1.4370 -0.3645  2.0886
  906MOL0     H22292   2.864  10.698  -0.010  1.1094  0.9316 -0.4716
  906MOL0     H22293   3.088  10.759   0.061 -0.5534  2.6977 -0.8590
  906MOL0     H22294   3.361  10.752   0.282  1.0747 -0.4416 -1.4122
  906MOL0     H22295   3.588  10.699   0.333  2.1346 -1.5102  3.1202
  906MOL0     H22296   5.193  10.024   0.147  3.8453 -0.0045  0.4013
  906MOL0     H22297   5.421  10.131   0.149  2.3233  1.8265 -0.1328
  906MOL0     H22298   5.842  10.090   0.446 -2.1829  0.3553  2.7813
  906MOL0     H22299   6.061  10.186   0.488 -1.0392 -1.7530 -0.7333
  906MOL0     H22300   6.183  10.568   0.349  2.3841 -1.3789  0.7922
  906MOL0     H22301   6.095  10.631   0.490 -1.8039  0.6492 -2.5439
  906MOL0     H22302   6.294  10.584   0.627  4.3098  1.8140  1.1093
  906MOL0     H22303   6.343  10.684   0.491  1.1323 -0.8698  2.3682
  906MOL0     H22304   6.404  10.462   0.360 -0.3401 -0.5627 -0.5915
  906MOL0     H22305   6.367  10.387   0.521 -1.7411  1.9449 -0.6225
  906MOL0     H22306   6.544  10.568   0.610  0.2549  1.1905 -0.5988
  906MOL0     H22307   6.575  10.581   0.433 -1.9075  0.6214 -0.6075
  906MOL0     H22308   6.731  10.200   0.510  0.4140  0.4353 -2.1373
  906MOL0     H22309   5.895  10.573   0.379  2.0946  0.1263  1.6804
  906MOL0     H22310   5.687  10.468   0.328  0.2478  1.1704 -0.6509
  907MOL0     O22311   0.412  10.903   5.662 -0.6155  0.0440 -0.7000
  907MOL0     C22312   0.486  10.807   5.652  0.4964 -0.5935 -0.4841
  907MOL0     O22313   0.449  10.678   5.625 -0.2153 -0.1721  0.2430
  907MOL0     C22314   0.319  10.659   5.598 -0.4394 -0.2487 -0.4846
  907MOL0     C22315   0.225  10.672   5.696  0.7379  0.5338 -0.6009
  907MOL0     C22316   0.087  10.668   5.671  1.2500 -0.6864  0.0581
  907MOL0     C22317   0.049  10.648   5.539 -0.5113 -0.4256  0.0477
  907MOL0     O22318  -0.086  10.632   5.521  0.0801  0.2448 -0.1764
  907MOL0     C22319  -0.150  10.700   5.414  0.5575 -0.3495 -0.7177
  907MOL0     C22320  -0.286  10.636   5.402 -0.3003 -0.6867 -0.2061
  907MOL0     C22321  -0.363  10.713   5.296  0.6148 -0.3774  0.0724
  907MOL0     C22322  -0.512  10.669   5.293  0.5011  0.9622  0.0064
  907MOL0     C22323  -0.586  10.759   5.193 -0.2734  0.9755  0.0683
  907MOL0     C22324  -0.718  10.706   5.135  0.1373  0.1461  0.7448
  907MOL0     C22325  -0.814  10.673   5.255 -0.6213  0.6739 -0.3094
  907MOL0     C22326  -0.960  10.709   5.223 -0.0353 -0.1114  1.8510
  907MOL0     N22327  -1.011  10.603   5.123 -0.1048  0.1467 -0.3887
  907MOL0     C22328  -1.024  10.470   5.150 -0.2984  0.4643 -0.6416
  907MOL0     C22329  -1.067  10.419   5.034 -0.3310 -0.3597  0.5418
  907MOL0     C22330  -1.092  10.272   4.997 -0.2875 -0.4148 -0.1265
  907MOL0     C22331  -0.964  10.188   5.028 -0.2283 -0.3862  0.4519
  907MOL0     C22332  -0.848  10.233   4.948 -0.1377 -0.5844  0.7969
  907MOL0     C22333  -0.729  10.152   4.970  0.0504 -0.4514  0.3436
  907MOL0     O22334  -0.742  10.028   4.908  0.1562 -0.9982 -0.0310
  907MOL0     C22335  -0.635   9.951   4.915 -0.7326 -0.0742 -0.7417
  907MOL0     C22336  -0.652   9.834   4.842 -0.4937  0.2999  0.1061
  907MOL0     C22337  -0.545   9.744   4.808  0.2049 -0.3136 -0.0588
  907MOL0     C22338  -0.582   9.627   4.735  0.4074  0.0015 -0.3070
  907MOL0     C22339  -0.416   9.774   4.853 -0.4263 -1.1704  0.0207
  907MOL0     C22340  -0.291   9.697   4.814 -0.6334 -0.2704  0.1654
  907MOL0     O22341  -0.170   9.725   4.869  0.4853 -0.6388 -0.6765
  907MOL0     C22342  -0.067   9.641   4.839 -0.4559 -0.3230  0.0656
  907MOL0     C22343  -0.039   9.537   4.930 -1.2573 -0.5710 -0.1373
  907MOL0     C22344   0.073   9.456   4.907  0.3414 -0.2586  0.1093
  907MOL0     C22345   0.155   9.471   4.803 -0.1089 -0.2214  0.4626
  907MOL0     O22346   0.266   9.388   4.775  0.3014 -0.6952  0.6173
  907MOL0     C22347   0.322   9.308   4.877  0.1438  0.4705  0.9118
  907MOL0     C22348   0.443   9.245   4.810  0.1320  0.5570 -0.3387
  907MOL0     C22349   0.561   9.346   4.785  0.8557  0.1349  0.1436
  907MOL0     C22350   0.682   9.273   4.721 -0.2033 -0.6660 -0.3442
  907MOL0     C22351   0.812   9.331   4.785 -0.1057  0.4753 -0.8901
  907MOL0     C22352   0.943   9.250   4.752  0.3233  0.4567 -0.2720
  907MOL0     C22353   1.063   9.320   4.794  0.0591  0.1935  0.4789
  907MOL0     C22354   1.178   9.221   4.779 -0.2486 -0.6130 -0.3259
  907MOL0    Cl22355   1.338   9.306   4.819 -0.1769  0.0072 -0.2397
  907MOL0     C22356   0.128   9.578   4.715 -0.3646 -0.3745  0.5237
  907MOL0     C22357   0.010   9.659   4.728 -0.3346  0.5376 -0.2428
  907MOL0     O22358  -0.309   9.598   4.743  0.4224  0.1082  0.7480
  907MOL0     C22359  -0.400   9.883   4.943 -0.0707 -0.3791 -0.0034
  907MOL0     C22360  -0.503   9.976   4.966  0.1992 -1.1933  0.2048
  907MOL0     N22361  -1.078  10.519   4.939  0.4211  0.6039  0.1454
  907MOL0     N22362  -1.040  10.626   4.993 -0.3558  0.2736 -0.0801
  907MOL0     C22363   0.145  10.623   5.439  0.2783  0.4127  0.1291
  907MOL0     C22364   0.276  10.630   5.468 -0.1569 -0.2782  0.2058
  907MOL0     C22365   0.630  10.835   5.659 -0.4610  0.0505 -0.1167
  907MOL0     C22366   0.673  10.968   5.671  0.6483 -0.0907  0.8564
  907MOL0     C22367   0.811  10.995   5.679  0.2006 -0.3275  0.4626
  907MOL0     C22368   0.904  10.891   5.701  0.6449  1.1043 -0.2773
  907MOL0     O22369   1.036  10.923   5.697 -0.6329  0.1480  0.0944
  907MOL0     C22370   1.130  10.821   5.723 -0.5167 -0.5068 -0.1368
  907MOL0     C22371   1.265  10.885   5.728 -0.2665 -0.5789  0.8143
  907MOL0     C22372   1.371  10.767   5.764 -0.0585  0.0778 -0.7122
  907MOL0     C22373   1.510  10.829   5.762  0.1316 -0.1166 -0.1137
  907MOL0     C22374   1.605  10.718   5.787  0.3508 -0.2230 -0.2720
  907MOL0     C22375   1.689  10.636   5.826  0.2815  0.8652  0.6263
  907MOL0     C22376   0.856  10.756   5.703  0.1809 -0.1341  0.1651
  907MOL0     C22377   0.720  10.728   5.670  0.1836 -0.5996  0.2434
  907MOL0     H22378   0.247  10.683   5.802 -0.0540  1.6097 -0.5312
  907MOL0     H22379   0.020  10.677   5.755  1.6742 -0.2616  0.3584
  907MOL0     H22380  -0.147  10.808   5.431 -1.3045 -0.5560  1.4825
  907MOL0     H22381  -0.096  10.683   5.320  4.7792  1.5920  1.0867
  907MOL0     H22382  -0.275  10.536   5.358  1.2735 -0.6683  0.1032
  907MOL0     H22383  -0.333  10.641   5.501  0.1170  0.7922 -0.0582
  907MOL0     H22384  -0.358  10.822   5.300 -0.8354 -0.2934  0.1248
  907MOL0     H22385  -0.321  10.696   5.196 -1.1441  1.0806 -0.9770
  907MOL0     H22386  -0.514  10.563   5.265  0.7257  0.8852  0.2815
  907MOL0     H22387  -0.552  10.684   5.393 -1.0688 -3.1198  0.1907
  907MOL0     H22388  -0.606  10.849   5.252  1.5474  2.1693 -1.0245
  907MOL0     H22389  -0.523  10.792   5.110 -0.9037  0.5602 -0.5849
  907MOL0     H22390  -0.761  10.787   5.077 -0.9508 -1.5278 -0.9181
  907MOL0     H22391  -0.712  10.618   5.069  0.0513  0.2946  0.5396
  907MOL0     H22392  -0.814  10.571   5.294 -2.0743  1.3800  1.6970
  907MOL0     H22393  -0.791  10.733   5.343 -0.5833 -0.4545  0.4633
  907MOL0     H22394  -0.967  10.812   5.185  4.5974  0.1657  1.1992
  907MOL0     H22395  -1.022  10.701   5.313 -1.5794 -0.1248  0.8348
  907MOL0     H22396  -1.002  10.408   5.236 -1.9819 -0.8043 -1.0727
  907MOL0     H22397  -1.187  10.237   5.038  0.3721 -0.2795  1.5942
  907MOL0     H22398  -1.111  10.268   4.889  0.8622  2.1376 -0.4835
  907MOL0     H22399  -0.991  10.083   5.010 -3.3198  0.4407 -0.3840
  907MOL0     H22400  -0.940  10.192   5.134  0.5154 -0.0909  0.2819
  907MOL0     H22401  -0.831  10.335   4.985 -1.6411 -0.7254  1.9783
  907MOL0     H22402  -0.881  10.236   4.844 -0.7182 -1.0200  0.9624
  907MOL0     H22403  -0.716  10.135   5.077  1.2876  2.5483  0.7910
  907MOL0     H22404  -0.640  10.209   4.943 -0.0774 -0.3482  0.1406
  907MOL0     H22405  -0.757   9.814   4.822  0.1159 -3.6304  0.0799
  907MOL0     H22406  -0.575   9.534   4.791  1.4017 -0.5853 -1.3590
  907MOL0     H22407  -0.691   9.627   4.721 -0.0820  0.7789  2.7705
  907MOL0     H22408  -0.532   9.610   4.639  0.8629  1.0377 -0.2643
  907MOL0     H22409  -0.095   9.516   5.021  0.6208 -2.1437  0.7537
  907MOL0     H22410   0.094   9.387   4.988 -2.3729  1.1239  2.1739
  907MOL0     H22411   0.348   9.366   4.966 -0.4123  0.8277  0.8437
  907MOL0     H22412   0.246   9.236   4.908  1.7032 -0.7981  1.9491
  907MOL0     H22413   0.484   9.172   4.881 -0.2148  0.9368  0.2656
  907MOL0     H22414   0.417   9.198   4.715  4.2453  1.9017 -2.3926
  907MOL0     H22415   0.593   9.398   4.876 -1.3466  1.4703  0.2169
  907MOL0     H22416   0.521   9.427   4.724  0.1188 -0.2228  0.1382
  907MOL0     H22417   0.674   9.165   4.734 -0.6259 -0.6308 -0.3238
  907MOL0     H22418   0.686   9.298   4.615  3.0165  0.8815  0.0022
  907MOL0     H22419   0.803   9.331   4.894 -0.7747 -0.6732 -0.9353
  907MOL0     H22420   0.833   9.433   4.750  0.0336  0.6551 -0.2935
  907MOL0     H22421   0.932   9.161   4.815  2.0477  0.4141  0.0197
  907MOL0     H22422   0.950   9.222   4.647  0.3894 -1.1684  0.1309
  907MOL0     H22423   1.064   9.346   4.900 -3.3807 -2.4663  1.3731
  907MOL0     H22424   1.086   9.413   4.743 -1.1060  0.0220 -0.4123
  907MOL0     H22425   1.179   9.178   4.678 -2.2541 -0.3610 -0.4872
  907MOL0     H22426   1.167   9.145   4.856 -0.9896 -0.6113 -0.4265
  907MOL0     H22427   0.209   9.588   4.643 -0.0893 -1.6585  0.6235
  907MOL0     H22428  -0.018   9.739   4.660 -0.1822 -0.5603 -1.6367
  907MOL0     H22429  -0.305   9.896   4.994 -0.1730  1.2415 -0.1839
  907MOL0     H22430  -0.485  10.066   5.024 -3.0650 -1.3175  1.6208
  907MOL0     H22431   0.112  10.611   5.336  1.3901  0.7586 -0.2883
  907MOL0     H22432   0.353  10.626   5.392 -1.1786  0.6421 -0.9222
  907MOL0     H22433   0.608  11.054   5.665 -0.7551 -1.2048 -1.0543
  907MOL0     H22434   0.857  11.093   5.682 -0.4943  0.0298 -0.3076
  907MOL0     H22435   1.102  10.779   5.820 -0.4412 -1.0463 -0.3433
  907MOL0     H22436   1.135  10.746   5.643 -1.2526 -1.2919  0.5228
  907MOL0     H22437   1.262  10.965   5.802 -0.4313 -0.2915  0.4965
  907MOL0     H22438   1.285  10.928   5.630 -0.2461 -1.4183  0.4370
  907MOL0     H22439   1.368  10.692   5.685 -0.0406  0.0863 -0.7208
  907MOL0     H22440   1.352  10.715   5.858  0.4195  1.2444  0.0565
  907MOL0     H22441   1.524  10.900   5.844 -0.4975 -0.8129  0.6128
  907MOL0     H22442   1.542  10.872   5.667 -1.4491  0.1169 -0.5633
  907MOL0     H22443   1.771  10.573   5.854 -1.2418 -1.2494  0.5982
  907MOL0     H22444   0.922  10.672   5.723  0.1439 -0.0093  0.8311
  907MOL0     H22445   0.673  10.631   5.677 -2.4569  0.6934  3.2193
  908MOL0     O22446   4.017   2.357  11.224  0.5579  0.5562 -0.3777
  908MOL0     C22447   4.102   2.428  11.167  0.4599  0.6572  0.6359
  908MOL0     O22448   4.073   2.544  11.103  0.5385 -0.0834 -0.2495
  908MOL0     C22449   3.967   2.620  11.143 -0.1635 -0.4502  0.5597
  908MOL0     C22450   3.847   2.636  11.065  0.0676  0.2293 -1.3768
  908MOL0     C22451   3.747   2.707  11.128 -0.7111  0.0666 -0.2864
  908MOL0     C22452   3.753   2.770  11.251 -0.9131  0.1927 -0.8347
  908MOL0     O22453   3.631   2.833  11.291 -0.5130  0.3387  1.0923
  908MOL0     C22454   3.641   2.920  11.403 -0.5370 -0.1432  0.0424
  908MOL0     C22455   3.502   2.956  11.439  1.1881 -0.0877  0.0662
  908MOL0     C22456   3.484   3.021  11.576  0.3561  0.8413 -0.2160
  908MOL0     C22457   3.602   3.117  11.607 -0.7395  0.8951 -0.6429
  908MOL0     C22458   3.584   3.183  11.748 -0.1673 -0.2188  0.2132
  908MOL0     C22459   3.677   3.312  11.754  0.0579  0.0143  0.1985
  908MOL0     C22460   3.656   3.378  11.886  0.0679  1.0160  0.2984
  908MOL0     C22461   3.646   3.287  12.023  0.4548 -0.2353 -0.3183
  908MOL0     N22462   3.689   3.361  12.147  0.4467 -0.5433  0.1105
  908MOL0     C22463   3.741   3.305  12.259 -0.3220 -0.7958 -0.1207
  908MOL0     C22464   3.760   3.405  12.341  0.6815 -0.3258 -0.1579
  908MOL0     C22465   3.798   3.399  12.489 -0.5956 -0.1757 -0.8256
  908MOL0     C22466   3.692   3.467  12.583 -0.2610  0.1345 -0.6340
  908MOL0     C22467   3.560   3.383  12.588 -0.0904  0.2271 -0.6217
  908MOL0     C22468   3.469   3.451  12.696  0.1728  0.5149  0.4998
  908MOL0     O22469   3.372   3.348  12.735 -0.2228  0.1026 -0.6071
  908MOL0     C22470   3.232   3.371  12.721  0.7125  0.0068  0.5203
  908MOL0     C22471   3.151   3.301  12.801  0.1546  0.0208 -0.1575
  908MOL0     C22472   3.014   3.323  12.807  0.3381 -1.1047  0.4881
  908MOL0     C22473   2.938   3.244  12.914 -0.7618 -0.6653 -1.1836
  908MOL0     C22474   2.951   3.419  12.721 -0.7585  1.0387  0.0659
  908MOL0     C22475   2.804   3.443  12.722 -0.5196  0.2188  0.2305
  908MOL0     O22476   2.743   3.489  12.607 -0.6171 -0.2973 -0.4815
  908MOL0     C22477   2.611   3.512  12.603 -0.4430 -0.0170 -0.1440
  908MOL0     C22478   2.510   3.425  12.650  0.5813  0.0954 -0.6220
  908MOL0     C22479   2.380   3.453  12.615  0.6381 -0.2919 -0.6304
  908MOL0     C22480   2.345   3.571  12.553 -0.2408 -0.2251 -0.3831
  908MOL0     O22481   2.210   3.579  12.528  0.9613  0.1312  0.1805
  908MOL0     C22482   2.152   3.711  12.504  0.0052 -0.1418 -0.0372
  908MOL0     C22483   2.000   3.722  12.542  0.0004  0.3463  1.0418
  908MOL0     C22484   1.939   3.850  12.497  1.1843  0.2245  0.1761
  908MOL0     C22485   1.798   3.876  12.567  0.1762 -0.1960 -0.0206
  908MOL0     C22486   1.697   3.764  12.515  0.0571  0.4649  0.0451
  908MOL0     C22487   1.546   3.806  12.516 -0.4059  0.7792  0.0787
  908MOL0     C22488   1.466   3.687  12.468 -0.0011  0.5870  0.3527
  908MOL0     C22489   1.455   3.572  12.555  0.5537 -0.5082  0.0049
  908MOL0    Cl22490   1.314   3.475  12.482  0.0450 -0.6754 -0.1528
  908MOL0     C22491   2.444   3.658  12.509 -1.0040 -0.0571 -0.2998
  908MOL0     C22492   2.576   3.627  12.535 -0.4913 -0.8269 -0.1886
  908MOL0     O22493   2.748   3.434  12.832 -0.1610  0.9752 -0.4127
  908MOL0     C22494   3.040   3.488  12.639 -0.7791 -0.0576  0.1901
  908MOL0     C22495   3.179   3.469  12.635  0.3289 -0.6862  0.5757
  908MOL0     N22496   3.718   3.527  12.279  0.1478 -0.2357 -0.4965
  908MOL0     N22497   3.659   3.491  12.165  0.5856 -0.5559  0.2132
  908MOL0     C22498   3.867   2.757  11.328  0.3813 -0.0998  0.6179
  908MOL0     C22499   3.968   2.689  11.272  0.0836  0.0753 -0.9277
  908MOL0     C22500   4.242   2.387  11.157 -0.1448  0.7587  0.5939
  908MOL0     C22501   4.281   2.260  11.189  0.1832  0.2467 -0.5432
  908MOL0     C22502   4.416   2.225  11.164  0.1592  0.4001  0.3322
  908MOL0     C22503   4.506   2.313  11.102 -0.2652  0.2067  0.0260
  908MOL0     O22504   4.631   2.268  11.087  0.1536  0.0528  0.0128
  908MOL0     C22505   4.742   2.356  11.103  0.2208  0.2611  0.2557
  908MOL0     C22506   4.785   2.378  11.252 -0.0063 -0.2559  0.9539
  908MOL0     C22507   4.824   2.242  11.307  0.2414  0.2976  0.2220
  908MOL0     C22508   4.850   2.255  11.453  0.3043  0.1794  0.2277
  908MOL0     C22509   4.720   2.276  11.537  0.5492 -0.5128  0.3109
  908MOL0     C22510   4.620   2.308  11.603 -0.4948  0.4150 -0.4538
  908MOL0     C22511   4.462   2.447  11.075 -0.4118  0.0056  0.2688
  908MOL0     C22512   4.337   2.480  11.107  0.7140  0.5999 -0.5281
  908MOL0     H22513   3.822   2.584  10.973  0.5961 -0.7709 -0.9781
  908MOL0     H22514   3.658   2.717  11.066 -0.0231 -2.5368 -1.8492
  908MOL0     H22515   3.687   2.875  11.492  0.3164  0.3879 -0.1133
  908MOL0     H22516   3.697   3.009  11.374 -1.4529 -0.6179 -3.7337
  908MOL0     H22517   3.447   3.016  11.366 -1.6554 -0.8977  1.3912
  908MOL0     H22518   3.450   2.859  11.438  0.2529  0.3979 -1.8698
  908MOL0     H22519   3.392   3.079  11.587  0.2596  0.5065  0.7824
  908MOL0     H22520   3.481   2.941  11.650  0.7885  0.8369 -0.1959
  908MOL0     H22521   3.699   3.066  11.609 -2.1527 -1.9291  0.3001
  908MOL0     H22522   3.595   3.204  11.541  1.9244  1.3316 -0.4900
  908MOL0     H22523   3.479   3.215  11.747  0.0699  0.5885  0.1346
  908MOL0     H22524   3.600   3.102  11.819 -0.4075 -0.3190  0.1531
  908MOL0     H22525   3.780   3.280  11.738 -0.0757 -0.0285 -0.6234
  908MOL0     H22526   3.649   3.379  11.672  0.5203 -0.7151 -0.5646
  908MOL0     H22527   3.739   3.447  11.900  1.8583 -0.5594 -1.7754
  908MOL0     H22528   3.565   3.439  11.879 -0.4640  0.6487  2.8246
  908MOL0     H22529   3.715   3.203  12.007  1.3298  0.6788 -1.5691
  908MOL0     H22530   3.548   3.241  12.038  1.4172 -1.9468  1.0914
  908MOL0     H22531   3.763   3.200  12.271  0.1569 -0.6044  0.7573
  908MOL0     H22532   3.824   3.297  12.520 -2.3113 -0.6388 -0.8097
  908MOL0     H22533   3.890   3.457  12.484 -0.4825 -0.3882 -1.2709
  908MOL0     H22534   3.669   3.566  12.542 -1.6284 -0.1480 -0.5927
  908MOL0     H22535   3.730   3.478  12.685  1.2259  1.4799 -1.2952
  908MOL0     H22536   3.581   3.282  12.624  2.5290  0.1070 -2.1775
  908MOL0     H22537   3.506   3.374  12.494  0.3441  0.0313 -0.8589
  908MOL0     H22538   3.430   3.539  12.644 -1.3717  0.6046  1.7572
  908MOL0     H22539   3.525   3.491  12.781  1.1058  1.6791 -0.6200
  908MOL0     H22540   3.195   3.238  12.877 -2.7865  0.3826  2.0215
  908MOL0     H22541   3.001   3.176  12.973 -1.2424  0.3325  0.5525
  908MOL0     H22542   2.900   3.310  12.992 -0.5904 -2.6490  0.6682
  908MOL0     H22543   2.866   3.179  12.864 -3.3556  2.5064 -1.8290
  908MOL0     H22544   2.534   3.332  12.700 -0.4838 -0.3476 -0.9156
  908MOL0     H22545   2.298   3.387  12.639  1.3287  0.1725  4.0319
  908MOL0     H22546   2.207   3.779  12.570 -2.4642  0.2965  1.7185
  908MOL0     H22547   2.169   3.755  12.405 -1.1467 -1.7183 -0.9681
  908MOL0     H22548   1.942   3.643  12.494 -0.6661  1.3372  0.1776
  908MOL0     H22549   1.983   3.700  12.648 -2.7329 -0.3570  0.5191
  908MOL0     H22550   1.920   3.861  12.390  0.8499  1.3044  0.3366
  908MOL0     H22551   2.008   3.928  12.531  1.1545 -0.4531  1.8953
  908MOL0     H22552   1.817   3.869  12.674  3.2839 -1.0107 -0.5357
  908MOL0     H22553   1.766   3.979  12.548  3.7771  1.0101 -0.2942
  908MOL0     H22554   1.708   3.686  12.590 -2.2815  0.6975  0.7188
  908MOL0     H22555   1.721   3.726  12.416  0.8154 -0.2248  0.4848
  908MOL0     H22556   1.510   3.837  12.614  0.7542  0.3881  0.6424
  908MOL0     H22557   1.531   3.894  12.453  2.3590  0.2264 -1.5086
  908MOL0     H22558   1.483   3.651  12.366 -0.3992 -2.8207  1.3587
  908MOL0     H22559   1.362   3.722  12.460 -0.7813 -1.7320 -0.4508
  908MOL0     H22560   1.430   3.608  12.655  0.9242  1.6998 -0.6649
  908MOL0     H22561   1.545   3.512  12.571 -0.5166 -1.8331  1.4015
  908MOL0     H22562   2.426   3.750  12.455  1.2706  0.3790 -0.4459
  908MOL0     H22563   2.651   3.697  12.498 -0.8818 -0.7596 -0.8660
  908MOL0     H22564   2.990   3.562  12.577  1.3711  1.0693 -0.2977
  908MOL0     H22565   3.239   3.515  12.558 -0.8084 -1.0207 -0.5424
  908MOL0     H22566   3.868   2.811  11.422 -0.6410 -0.3860  0.8059
  908MOL0     H22567   4.063   2.680  11.325  0.7835 -0.4570 -2.2202
  908MOL0     H22568   4.215   2.189  11.239  2.3436 -0.7099  1.1659
  908MOL0     H22569   4.443   2.125  11.196 -0.9023 -0.0419 -0.1053
  908MOL0     H22570   4.824   2.314  11.044 -1.7283 -0.6629 -1.9704
  908MOL0     H22571   4.722   2.458  11.068 -0.2645  0.6408  1.5539
  908MOL0     H22572   4.704   2.421  11.311  0.6817  1.3697  0.7475
  908MOL0     H22573   4.867   2.450  11.253 -0.4979  0.4132 -1.2751
  908MOL0     H22574   4.913   2.205  11.256 -0.7549  0.3105 -1.6019
  908MOL0     H22575   4.748   2.166  11.285  0.2433  0.6738 -1.1573
  908MOL0     H22576   4.919   2.335  11.482 -1.4512  0.9481  2.5432
  908MOL0     H22577   4.904   2.163  11.478  2.2247  1.3427  0.6240
  908MOL0     H22578   4.546   2.334  11.677 -0.4898  2.3840 -1.0954
  908MOL0     H22579   4.530   2.513  11.023 -0.9475 -0.0991 -0.5792
  908MOL0     H22580   4.308   2.580  11.074  2.1817  1.0972 -0.3834
  909MOL0     O22581   5.656   6.997   6.663 -0.1926  0.1694 -0.0352
  909MOL0     C22582   5.590   7.065   6.591  0.7304 -0.1946  0.1993
  909MOL0     O22583   5.451   7.069   6.591  0.1466 -0.2991 -0.1806
  909MOL0     C22584   5.375   6.994   6.681 -0.0868 -0.1425 -0.2174
  909MOL0     C22585   5.249   6.948   6.633 -0.3102  0.0109  0.0637
  909MOL0     C22586   5.157   6.879   6.715 -0.5747  0.0403  0.0845
  909MOL0     C22587   5.200   6.833   6.842 -0.2409  0.1758 -0.4514
  909MOL0     O22588   5.112   6.752   6.916 -0.0315  0.6631 -0.1457
  909MOL0     C22589   5.160   6.619   6.946  0.2270  0.7482  0.4822
  909MOL0     C22590   5.054   6.555   7.039  0.1298  0.3671 -0.5536
  909MOL0     C22591   4.898   6.559   7.009 -1.1104 -0.2917  0.2239
  909MOL0     C22592   4.819   6.667   7.094  0.6160 -0.0405  0.3849
  909MOL0     C22593   4.671   6.647   7.080  0.5176  0.5989 -0.7232
  909MOL0     C22594   4.590   6.767   7.143 -0.1957  0.1451  0.6102
  909MOL0     C22595   4.439   6.733   7.134  0.3185 -0.1156 -0.2616
  909MOL0     C22596   4.387   6.787   7.007  0.4272 -0.2663  0.5768
  909MOL0     N22597   4.240   6.761   6.997 -0.0710 -0.2978  0.0611
  909MOL0     C22598   4.180   6.653   6.937 -0.0706 -0.1120 -1.1171
  909MOL0     C22599   4.049   6.668   6.966 -0.1548 -0.0845 -0.2998
  909MOL0     C22600   3.949   6.554   6.935 -0.1051 -0.2030  0.0581
  909MOL0     C22601   3.816   6.599   6.879  0.2097  0.2711  0.7064
  909MOL0     C22602   3.744   6.472   6.822 -0.1063 -0.3976 -0.0437
  909MOL0     C22603   3.614   6.506   6.752  0.4992 -0.0236  0.3878
  909MOL0     O22604   3.551   6.391   6.699  0.0827  0.2205  0.5281
  909MOL0     C22605   3.418   6.399   6.659  0.2267 -0.6392 -0.8789
  909MOL0     C22606   3.320   6.329   6.729 -0.3131 -0.8935  0.4307
  909MOL0     C22607   3.185   6.333   6.703  0.3737 -0.3716  0.2305
  909MOL0     C22608   3.095   6.232   6.776  0.3811  0.0397 -0.1278
  909MOL0     C22609   3.149   6.414   6.586 -0.3228 -0.6715  0.1072
  909MOL0     C22610   3.009   6.420   6.531 -0.6035 -0.2714  0.0376
  909MOL0     O22611   2.946   6.295   6.516 -0.0840  0.5859  0.4112
  909MOL0     C22612   2.815   6.296   6.482  0.2859 -0.7171  0.0244
  909MOL0     C22613   2.722   6.265   6.579 -0.1581  0.0537  0.2263
  909MOL0     C22614   2.585   6.265   6.565  0.0721 -0.0773  0.1748
  909MOL0     C22615   2.531   6.303   6.451 -0.1375 -0.6503 -0.5645
  909MOL0     O22616   2.400   6.306   6.420  0.1543 -0.0654 -0.0394
  909MOL0     C22617   2.303   6.214   6.466  0.4646  0.2172  0.0206
  909MOL0     C22618   2.162   6.249   6.412 -0.0561 -0.2378  0.3948
  909MOL0     C22619   2.044   6.248   6.517 -0.8706 -0.8941  0.5526
  909MOL0     C22620   1.915   6.285   6.446 -0.3331 -0.8836  0.0637
  909MOL0     C22621   1.792   6.273   6.549 -0.1935 -0.0295  0.7187
  909MOL0     C22622   1.666   6.347   6.500  0.1589 -0.1739 -0.5489
  909MOL0     C22623   1.539   6.290   6.576  0.1170 -0.7035 -0.7978
  909MOL0     C22624   1.406   6.361   6.528 -0.3771  0.4475  0.1562
  909MOL0    Cl22625   1.386   6.310   6.355 -0.1781 -0.1200  0.0031
  909MOL0     C22626   2.618   6.339   6.350 -0.5931  0.2834  0.6017
  909MOL0     C22627   2.759   6.322   6.358 -0.4265  0.8571 -0.5002
  909MOL0     O22628   2.966   6.534   6.498 -0.0321  0.9501 -0.2684
  909MOL0     C22629   3.247   6.479   6.521  0.5935  0.0263 -0.5792
  909MOL0     C22630   3.382   6.477   6.556 -0.2913 -0.3324  0.3369
  909MOL0     N22631   4.023   6.788   7.037  0.4745  0.1690 -0.2440
  909MOL0     N22632   4.141   6.835   7.060 -0.2303 -0.6324  0.0237
  909MOL0     C22633   5.329   6.866   6.883 -0.5499 -0.1670  0.0388
  909MOL0     C22634   5.418   6.955   6.814 -0.5240 -0.0612 -0.8404
  909MOL0     C22635   5.662   7.165   6.515 -0.1540  0.6616 -0.5354
  909MOL0     C22636   5.598   7.273   6.451  0.3066  1.0481 -0.1905
  909MOL0     C22637   5.669   7.356   6.373 -0.5920  0.6886  0.0709
  909MOL0     C22638   5.811   7.338   6.357  0.1575 -1.0338  0.1289
  909MOL0     O22639   5.872   7.424   6.265  0.0830  0.3323 -0.6661
  909MOL0     C22640   5.999   7.403   6.216 -0.0683 -0.8574  0.1460
  909MOL0     C22641   6.098   7.508   6.275 -0.2193 -0.1478  0.2254
  909MOL0     C22642   6.244   7.486   6.241  0.1416  0.2210  0.2586
  909MOL0     C22643   6.272   7.515   6.093 -0.7798 -0.0960 -0.6205
  909MOL0     C22644   6.418   7.479   6.077  0.7654 -0.0347  0.3492
  909MOL0     C22645   6.536   7.457   6.060  0.7998  0.4320 -0.1293
  909MOL0     C22646   5.876   7.231   6.412  0.0141 -0.1329 -0.3501
  909MOL0     C22647   5.800   7.143   6.487 -0.3445  0.3746  0.5576
  909MOL0     H22648   5.216   6.981   6.535 -2.0583 -1.3981  0.1181
  909MOL0     H22649   5.058   6.853   6.678 -1.3003 -2.1281  3.1425
  909MOL0     H22650   5.158   6.552   6.860 -3.2093 -0.1879  1.1600
  909MOL0     H22651   5.258   6.617   6.995  0.9071 -0.1044 -0.8575
  909MOL0     H22652   5.080   6.449   7.043 -1.2792 -0.1887 -3.4475
  909MOL0     H22653   5.064   6.604   7.137  0.3869 -1.7148  0.5141
  909MOL0     H22654   4.876   6.586   6.906 -3.2688 -1.2231  0.3814
  909MOL0     H22655   4.853   6.463   7.037 -0.4239 -1.2267 -1.7289
  909MOL0     H22656   4.849   6.657   7.199  0.8943 -3.0789  0.1172
  909MOL0     H22657   4.841   6.771   7.068 -0.7322  0.3312  0.6520
  909MOL0     H22658   4.648   6.639   6.973  0.1892 -0.7828 -0.5701
  909MOL0     H22659   4.640   6.553   7.127  0.6343  0.7834 -0.2684
  909MOL0     H22660   4.617   6.786   7.248  0.4679  0.7170  0.3475
  909MOL0     H22661   4.619   6.852   7.081  1.6453 -0.4947  0.5446
  909MOL0     H22662   4.429   6.625   7.151  0.8773 -0.7391 -3.3481
  909MOL0     H22663   4.376   6.784   7.208 -2.5850 -0.0591 -2.5856
  909MOL0     H22664   4.441   6.728   6.932  0.2473 -0.0893  0.3035
  909MOL0     H22665   4.403   6.894   6.996 -0.0518 -0.1782  0.7277
  909MOL0     H22666   4.212   6.576   6.868  1.8967 -0.4339  0.0958
  909MOL0     H22667   4.005   6.502   6.858  1.2135  1.4232 -0.1351
  909MOL0     H22668   3.923   6.488   7.018 -2.1229  0.3580 -0.0745
  909MOL0     H22669   3.826   6.667   6.794 -1.9868 -0.3927 -0.1667
  909MOL0     H22670   3.751   6.637   6.958 -0.9841  1.6815 -0.8700
  909MOL0     H22671   3.715   6.402   6.900  1.3208 -0.4872  0.4369
  909MOL0     H22672   3.812   6.436   6.744 -2.3238 -0.6923 -1.9526
  909MOL0     H22673   3.637   6.585   6.679  3.1305 -0.5388  0.5666
  909MOL0     H22674   3.550   6.552   6.828  1.6582  2.4642 -0.0423
  909MOL0     H22675   3.339   6.261   6.811 -2.2422 -3.7530 -1.3144
  909MOL0     H22676   2.988   6.238   6.753 -0.2243  2.3777  2.7163
  909MOL0     H22677   3.130   6.129   6.768  0.2721 -0.2823  2.4909
  909MOL0     H22678   3.094   6.246   6.885  1.4904 -2.5421  0.2902
  909MOL0     H22679   2.757   6.239   6.678 -0.2907 -0.8999  0.0289
  909MOL0     H22680   2.514   6.243   6.644  0.2600  0.7573  0.5860
  909MOL0     H22681   2.325   6.110   6.439  0.9661  0.6553 -1.3084
  909MOL0     H22682   2.296   6.223   6.575 -0.9269 -0.9140  0.0562
  909MOL0     H22683   2.174   6.348   6.369  1.7996 -1.1603 -1.4210
  909MOL0     H22684   2.147   6.175   6.333 -1.7267  0.7084 -0.2191
  909MOL0     H22685   2.063   6.319   6.598 -1.0957 -0.9226  0.6310
  909MOL0     H22686   2.027   6.145   6.549 -1.2885 -1.0381 -0.1096
  909MOL0     H22687   1.932   6.386   6.406  0.3597 -1.7884 -2.0426
  909MOL0     H22688   1.910   6.226   6.355  1.2119  2.0418 -2.0890
  909MOL0     H22689   1.824   6.318   6.643 -0.2799 -0.5539  1.0028
  909MOL0     H22690   1.775   6.167   6.568 -0.6772 -0.2153 -0.6497
  909MOL0     H22691   1.671   6.454   6.523 -2.6680 -0.3087  1.1971
  909MOL0     H22692   1.652   6.343   6.391 -3.3985  1.3751 -0.2993
  909MOL0     H22693   1.556   6.284   6.684  1.2230  0.3971 -0.8945
  909MOL0     H22694   1.526   6.182   6.558  2.0241 -1.0022 -0.5853
  909MOL0     H22695   1.405   6.469   6.546  1.7988  0.3634  1.1295
  909MOL0     H22696   1.326   6.324   6.593  1.6793 -0.1994  2.4752
  909MOL0     H22697   2.579   6.384   6.259  1.1891  1.8133  0.5329
  909MOL0     H22698   2.821   6.341   6.272  2.0886  0.2844  1.0729
  909MOL0     H22699   3.217   6.528   6.429 -0.3763 -0.8114 -0.7330
  909MOL0     H22700   3.458   6.530   6.499 -0.4380  1.0398  1.3572
  909MOL0     H22701   5.365   6.817   6.973 -0.7973 -1.0634 -0.3317
  909MOL0     H22702   5.514   6.979   6.858 -1.5817  0.9053  1.1133
  909MOL0     H22703   5.490   7.282   6.451 -0.0315 -1.9044 -1.3085
  909MOL0     H22704   5.624   7.437   6.316  0.7357 -0.5341 -2.9220
  909MOL0     H22705   6.031   7.301   6.239 -0.9247 -1.5599 -1.6368
  909MOL0     H22706   6.001   7.426   6.109  0.9976  0.8781  0.4844
  909MOL0     H22707   6.088   7.478   6.380  0.3912 -1.0394  0.0327
  909MOL0     H22708   6.070   7.613   6.260  3.4307  0.7446 -1.2016
  909MOL0     H22709   6.270   7.382   6.262 -0.1625 -0.2440 -1.5115
  909MOL0     H22710   6.310   7.553   6.296  0.2605  1.1129 -0.9375
  909MOL0     H22711   6.257   7.622   6.072  0.5270  0.2258 -0.0306
  909MOL0     H22712   6.210   7.451   6.030 -0.0070 -2.5278  0.9635
  909MOL0     H22713   6.639   7.460   6.031  0.1007 -0.2982 -2.9898
  909MOL0     H22714   5.981   7.209   6.396 -0.4011 -1.6183 -1.2564
  909MOL0     H22715   5.846   7.052   6.523 -0.7903 -1.4716 -3.0910
  910MOL0     O22716   2.282   2.321   4.952 -0.2340  0.1538  0.6159
  910MOL0     C22717   2.236   2.382   4.853 -0.7215  0.1231  0.6643
  910MOL0     O22718   2.111   2.376   4.812 -0.0199  0.0581 -0.5319
  910MOL0     C22719   2.033   2.274   4.860  0.1178 -0.1891 -0.3617
  910MOL0     C22720   2.061   2.137   4.839  0.5968 -0.3689  0.3481
  910MOL0     C22721   1.965   2.040   4.876  0.4101  0.4247  0.1620
  910MOL0     C22722   1.837   2.081   4.922  0.1065 -0.3507  0.3186
  910MOL0     O22723   1.733   1.997   4.965  0.7525  0.4745 -0.4626
  910MOL0     C22724   1.774   1.885   5.032  0.2830  0.3827 -0.2361
  910MOL0     C22725   1.667   1.817   5.121 -0.4660 -0.3827  0.1831
  910MOL0     C22726   1.550   1.762   5.034 -0.1131 -0.2514  0.4023
  910MOL0     C22727   1.493   1.635   5.115  0.6971 -0.5399 -0.0289
  910MOL0     C22728   1.364   1.584   5.055  0.2522  0.5463  0.8430
  910MOL0     C22729   1.238   1.665   5.095 -0.2407 -1.7305  0.2410
  910MOL0     C22730   1.120   1.598   5.034  0.6642  0.1561  0.5897
  910MOL0     C22731   0.985   1.645   5.087  0.0294  0.8430 -0.1426
  910MOL0     N22732   0.873   1.601   4.999  0.3051  0.5917  0.3267
  910MOL0     C22733   0.803   1.482   5.006 -0.8689  0.2754 -1.0253
  910MOL0     C22734   0.729   1.475   4.895  0.0137 -0.2310  1.0263
  910MOL0     C22735   0.626   1.371   4.853 -0.4155 -0.0368  0.3454
  910MOL0     C22736   0.491   1.384   4.924  0.0570  0.0741 -0.2524
  910MOL0     C22737   0.427   1.523   4.934 -0.8549 -0.7235 -0.0741
  910MOL0     C22738   0.281   1.528   4.967  0.3712 -0.5787 -0.3289
  910MOL0     O22739   0.207   1.456   4.869  0.1419  0.2972 -0.0331
  910MOL0     C22740   0.073   1.473   4.837  1.0919 -0.1534 -0.1805
  910MOL0     C22741   0.009   1.373   4.754 -1.0649 -1.0377 -0.0343
  910MOL0     C22742  -0.125   1.378   4.715 -0.3554 -0.3013 -0.4421
  910MOL0     C22743  -0.161   1.255   4.626 -0.4013 -0.6562  0.0499
  910MOL0     C22744  -0.198   1.491   4.743  0.3157  0.1820  0.3202
  910MOL0     C22745  -0.329   1.510   4.693 -0.1277  0.0575  0.0053
  910MOL0     O22746  -0.371   1.640   4.688 -0.5963  0.3821 -0.4648
  910MOL0     C22747  -0.484   1.663   4.611 -0.3401 -0.4273 -0.3715
  910MOL0     C22748  -0.460   1.725   4.489 -0.6186 -0.7606  0.2717
  910MOL0     C22749  -0.563   1.748   4.396 -0.2936  0.4801  0.5421
  910MOL0     C22750  -0.694   1.706   4.424  0.1816  0.5436 -0.0473
  910MOL0     O22751  -0.792   1.702   4.323  0.3600 -1.0083 -0.1615
  910MOL0     C22752  -0.764   1.751   4.191 -0.5955  0.1007 -0.4081
  910MOL0     C22753  -0.880   1.736   4.102  0.6728 -0.1450  0.3189
  910MOL0     C22754  -1.010   1.765   4.195  0.1222  0.6053  0.9252
  910MOL0     C22755  -1.131   1.783   4.093 -0.2464  0.1654  0.9658
  910MOL0     C22756  -1.257   1.802   4.171  0.8491  0.1392 -0.7257
  910MOL0     C22757  -1.373   1.826   4.074  0.2630 -0.4717  0.9636
  910MOL0     C22758  -1.514   1.819   4.132  0.3540  0.0988  0.2862
  910MOL0     C22759  -1.620   1.811   4.017 -0.1454  0.4432  0.2227
  910MOL0    Cl22760  -1.781   1.828   4.095  0.1729 -0.1288  0.0153
  910MOL0     C22761  -0.721   1.637   4.544 -0.6743  0.8117  0.5783
  910MOL0     C22762  -0.615   1.628   4.645 -0.0452 -0.1102  0.4534
  910MOL0     O22763  -0.389   1.419   4.648  0.6513  0.4427  0.6126
  910MOL0     C22764  -0.130   1.598   4.809 -0.1304 -0.5933  0.5479
  910MOL0     C22765  -0.002   1.585   4.862  0.1914 -0.4232 -0.2600
  910MOL0     N22766   0.751   1.593   4.822 -0.2436 -0.0282  0.6155
  910MOL0     N22767   0.835   1.665   4.888  0.5309 -0.2213 -0.0503
  910MOL0     C22768   1.802   2.221   4.914 -1.0330  0.1712  0.2591
  910MOL0     C22769   1.901   2.317   4.893 -0.3147 -0.2909  0.0034
  910MOL0     C22770   2.329   2.480   4.786 -0.0057  0.0193  0.2997
  910MOL0     C22771   2.284   2.586   4.697  0.0680  0.2911 -0.7299
  910MOL0     C22772   2.366   2.674   4.636  0.2572  0.0996  0.3296
  910MOL0     C22773   2.502   2.670   4.657 -0.3013 -0.0582 -0.7427
  910MOL0     O22774   2.585   2.770   4.597  0.2102  0.4404 -0.1153
  910MOL0     C22775   2.720   2.723   4.569 -0.1156  0.0806 -0.2000
  910MOL0     C22776   2.776   2.795   4.451 -0.3742  0.7879 -0.4741
  910MOL0     C22777   2.934   2.759   4.445  0.1925 -0.0599  0.0326
  910MOL0     C22778   2.994   2.824   4.323 -0.0772  0.1585  0.1695
  910MOL0     C22779   3.119   2.874   4.348 -0.3198  0.4954 -0.1323
  910MOL0     C22780   3.225   2.905   4.398 -0.5983 -0.6845 -0.1985
  910MOL0     C22781   2.553   2.555   4.734  0.0814  0.7484  0.1769
  910MOL0     C22782   2.468   2.460   4.793  1.0126  1.0864  0.6930
  910MOL0     H22783   2.154   2.103   4.794  0.6645 -0.2291  0.3828
  910MOL0     H22784   1.993   1.936   4.863  2.4431  0.8116  1.0537
  910MOL0     H22785   1.811   1.803   4.969 -2.7837 -2.3190  1.1900
  910MOL0     H22786   1.848   1.919   5.106  0.7034  0.3165 -0.6200
  910MOL0     H22787   1.708   1.749   5.196  1.0942 -1.4949 -1.6009
  910MOL0     H22788   1.632   1.893   5.193  1.1484 -1.2190  1.9467
  910MOL0     H22789   1.478   1.845   5.028  1.5920  1.1709 -2.0542
  910MOL0     H22790   1.576   1.734   4.932 -0.3576 -0.6560  0.4476
  910MOL0     H22791   1.571   1.559   5.104 -0.1687 -1.2176 -2.0136
  910MOL0     H22792   1.470   1.662   5.218 -0.7081  2.9893 -1.0951
  910MOL0     H22793   1.371   1.570   4.947 -1.3296  1.7379  0.5536
  910MOL0     H22794   1.349   1.484   5.098  2.1468 -1.7816 -3.2812
  910MOL0     H22795   1.223   1.672   5.203  0.8551 -1.0193  0.3648
  910MOL0     H22796   1.240   1.767   5.055 -0.5206 -0.4070  3.3405
  910MOL0     H22797   1.118   1.620   4.927  1.4909 -2.5239 -0.0556
  910MOL0     H22798   1.127   1.489   5.044  1.6131  0.3307  2.1285
  910MOL0     H22799   0.987   1.755   5.085  1.7404  0.8314 -0.5598
  910MOL0     H22800   0.973   1.601   5.186 -2.9789  0.7329 -0.4537
  910MOL0     H22801   0.812   1.409   5.086  0.8897  1.2544 -0.2576
  910MOL0     H22802   0.610   1.371   4.745  0.4332  1.7378  0.1697
  910MOL0     H22803   0.659   1.273   4.887  2.8976  1.8294  3.1541
  910MOL0     H22804   0.493   1.330   5.020  0.4545 -2.4656 -1.5885
  910MOL0     H22805   0.414   1.320   4.879 -2.5613  0.6367  3.0271
  910MOL0     H22806   0.448   1.584   4.846 -0.0569  0.5745  0.9716
  910MOL0     H22807   0.474   1.571   5.020 -0.8781  2.3356 -1.6639
  910MOL0     H22808   0.252   1.634   4.962  1.2998 -0.3187 -0.4182
  910MOL0     H22809   0.271   1.487   5.068 -1.4225 -1.5357 -0.8513
  910MOL0     H22810   0.074   1.291   4.725 -0.4458  0.2555 -2.6278
  910MOL0     H22811  -0.242   1.201   4.676  0.0889  0.3181  2.0052
  910MOL0     H22812  -0.198   1.289   4.529  1.9778  1.4163 -0.2344
  910MOL0     H22813  -0.073   1.192   4.614  1.9242  2.0794  1.5171
  910MOL0     H22814  -0.366   1.773   4.463 -1.0244  0.7311  1.4171
  910MOL0     H22815  -0.542   1.796   4.301 -0.0218  0.6430  0.6812
  910MOL0     H22816  -0.750   1.860   4.200 -0.8245  0.1766 -0.9224
  910MOL0     H22817  -0.677   1.701   4.147  0.2385  1.6702 -0.6400
  910MOL0     H22818  -0.867   1.796   4.012 -0.9655 -0.1651  0.0422
  910MOL0     H22819  -0.885   1.634   4.062  3.7903  0.1310 -1.0649
  910MOL0     H22820  -0.997   1.848   4.265  1.5557  0.4702  0.8476
  910MOL0     H22821  -1.031   1.673   4.250  2.5296 -2.1194 -2.3159
  910MOL0     H22822  -1.114   1.871   4.030 -3.0511  0.1253  0.0257
  910MOL0     H22823  -1.131   1.693   4.030 -0.8793  1.1479 -0.4823
  910MOL0     H22824  -1.239   1.875   4.251 -0.8600 -3.0592  2.8380
  910MOL0     H22825  -1.277   1.706   4.219 -1.8757  0.9980  0.0249
  910MOL0     H22826  -1.360   1.924   4.027  0.8562 -0.8774  0.2602
  910MOL0     H22827  -1.361   1.755   3.992  1.0304  0.8461 -0.1131
  910MOL0     H22828  -1.542   1.905   4.193  0.4536  1.1277 -1.0953
  910MOL0     H22829  -1.530   1.732   4.198 -0.2355  2.2231  3.1345
  910MOL0     H22830  -1.623   1.716   3.963  1.0877  0.6106 -0.1882
  910MOL0     H22831  -1.593   1.887   3.943  1.4778 -1.5395 -1.3465
  910MOL0     H22832  -0.817   1.588   4.558 -1.0291  0.1483 -3.2282
  910MOL0     H22833  -0.634   1.573   4.737 -0.3944 -0.0647  0.4095
  910MOL0     H22834  -0.188   1.683   4.840 -0.0489 -0.9847  1.8361
  910MOL0     H22835   0.047   1.668   4.912 -0.8206  2.4439 -3.6494
  910MOL0     H22836   1.699   2.247   4.931 -1.0567 -1.0586  2.3410
  910MOL0     H22837   1.885   2.424   4.901 -0.7523 -0.3618  0.1153
  910MOL0     H22838   2.177   2.605   4.694 -0.4379 -1.4879  2.3110
  910MOL0     H22839   2.309   2.739   4.569  0.8605 -1.7166 -2.0942
  910MOL0     H22840   2.786   2.740   4.654 -1.4015  2.3295  0.4247
  910MOL0     H22841   2.710   2.618   4.538  0.2828  0.9645 -3.7577
  910MOL0     H22842   2.772   2.901   4.478 -0.6921  0.5674  0.4049
  910MOL0     H22843   2.721   2.783   4.358  0.0281  0.3615 -0.6573
  910MOL0     H22844   2.951   2.651   4.444 -2.0366 -0.4630 -1.7423
  910MOL0     H22845   2.977   2.804   4.535 -0.5238 -2.1658  1.5169
  910MOL0     H22846   2.929   2.902   4.281 -0.9473 -2.3109 -3.4894
  910MOL0     H22847   2.997   2.749   4.244  0.2492 -0.3218  0.6353
  910MOL0     H22848   3.327   2.920   4.425 -0.8594 -0.6410  0.7935
  910MOL0     H22849   2.659   2.543   4.755 -0.2876 -0.1495  1.6188
  910MOL0     H22850   2.511   2.378   4.849  0.5985 -1.0366 -1.9035
  911MOL0     O22851   2.703   6.160   1.183  0.3197 -0.3066 -0.1735
  911MOL0     C22852   2.704   6.268   1.245  0.3142 -0.2715 -0.1931
  911MOL0     O22853   2.598   6.346   1.260 -0.8708  0.2363  0.2842
  911MOL0     C22854   2.483   6.300   1.198 -0.2113  0.6293  0.6061
  911MOL0     C22855   2.412   6.196   1.253  0.2280  0.5652 -0.3774
  911MOL0     C22856   2.311   6.134   1.186  0.0488 -0.2352  0.0347
  911MOL0     C22857   2.265   6.182   1.063 -0.4139  0.0024 -0.5064
  911MOL0     O22858   2.175   6.114   0.997 -0.3679  0.3025  0.0831
  911MOL0     C22859   2.207   5.975   0.964 -0.5893 -0.2965  0.4354
  911MOL0     C22860   2.129   5.918   0.843 -0.4663 -0.0635 -0.2677
  911MOL0     C22861   1.974   5.905   0.867 -0.6128  0.6224 -0.3299
  911MOL0     C22862   1.908   5.878   0.734  0.0994  0.0363 -0.1968
  911MOL0     C22863   1.765   5.831   0.770  0.1043  0.5075 -0.4652
  911MOL0     C22864   1.673   5.864   0.657 -0.7159  0.4000  0.6789
  911MOL0     C22865   1.532   5.815   0.665  0.3843  1.0374 -0.4976
  911MOL0     C22866   1.442   5.884   0.568  0.3181 -0.4265  0.1025
  911MOL0     N22867   1.297   5.861   0.589 -0.3339 -0.2279  0.0066
  911MOL0     C22868   1.224   5.881   0.706 -0.0302 -0.2211 -0.3768
  911MOL0     C22869   1.096   5.853   0.674  0.4915  0.8350  0.6546
  911MOL0     C22870   0.977   5.849   0.759  0.3290  0.5335 -0.1179
  911MOL0     C22871   0.847   5.800   0.700 -0.5928 -0.1428 -0.3446
  911MOL0     C22872   0.734   5.843   0.789  0.1489 -0.2033 -0.1194
  911MOL0     C22873   0.597   5.824   0.738  0.6015 -0.3473  0.6048
  911MOL0     O22874   0.557   5.680   0.750  0.6211  0.4097  0.0890
  911MOL0     C22875   0.447   5.642   0.674  0.9215  0.3212  0.6692
  911MOL0     C22876   0.417   5.507   0.662  0.5476  0.2212  0.7408
  911MOL0     C22877   0.315   5.456   0.587 -0.3012 -0.4441 -0.3982
  911MOL0     C22878   0.277   5.313   0.621  1.3286 -0.2429 -0.4284
  911MOL0     C22879   0.231   5.541   0.506  0.4435 -0.5784  0.0135
  911MOL0     C22880   0.114   5.497   0.415  0.3944  0.0559  0.9522
  911MOL0     O22881   0.043   5.600   0.359 -0.4008 -0.5530 -0.0550
  911MOL0     C22882  -0.051   5.559   0.274  1.1964 -0.1966  0.6412
  911MOL0     C22883  -0.020   5.529   0.137  0.6164  0.1864 -0.3346
  911MOL0     C22884  -0.123   5.486   0.049  0.5058 -0.1085  0.5844
  911MOL0     C22885  -0.260   5.492   0.091 -0.2456 -0.0905  0.4029
  911MOL0     O22886  -0.370   5.453   0.016  0.0957  0.3813  0.7914
  911MOL0     C22887  -0.378   5.524  -0.109 -0.9740 -0.5866  0.0098
  911MOL0     C22888  -0.501   5.491  -0.193  0.4580 -0.5407  0.2930
  911MOL0     C22889  -0.527   5.576  -0.316 -0.3412 -0.1606  0.5006
  911MOL0     C22890  -0.664   5.550  -0.371  0.0842 -0.3373 -0.4712
  911MOL0     C22891  -0.708   5.406  -0.398  0.3333 -0.0870  0.4088
  911MOL0     C22892  -0.854   5.405  -0.448 -0.0043 -0.9850  0.1093
  911MOL0     C22893  -0.926   5.278  -0.465  0.1958  0.3188  0.0223
  911MOL0     C22894  -1.044   5.289  -0.564 -0.5516  0.5493 -0.0972
  911MOL0    Cl22895  -1.162   5.406  -0.494  0.1915 -0.0361  0.0841
  911MOL0     C22896  -0.281   5.520   0.226  0.8500 -0.5586  0.0491
  911MOL0     C22897  -0.179   5.546   0.318  0.0939 -0.8618  0.7155
  911MOL0     O22898   0.105   5.372   0.389 -0.3918  0.0147  0.5084
  911MOL0     C22899   0.261   5.681   0.521 -0.1474 -0.0902  0.4945
  911MOL0     C22900   0.357   5.724   0.606  0.2037 -0.7747  0.2991
  911MOL0     N22901   1.089   5.826   0.536 -0.9422 -0.3027  0.3403
  911MOL0     N22902   1.205   5.861   0.490  0.1070  0.2430  0.6893
  911MOL0     C22903   2.332   6.289   1.006 -0.5396 -0.0385 -0.5548
  911MOL0     C22904   2.438   6.342   1.072 -0.3895 -0.4846 -0.5190
  911MOL0     C22905   2.828   6.324   1.297  0.0853  0.3430  0.0344
  911MOL0     C22906   2.835   6.462   1.316  0.8287  0.2567  0.4598
  911MOL0     C22907   2.952   6.518   1.366 -0.1294 -0.7293 -0.0101
  911MOL0     C22908   3.063   6.441   1.389  0.3071  0.3658  0.3828
  911MOL0     O22909   3.180   6.486   1.444  0.7301  0.2778  0.4621
  911MOL0     C22910   3.173   6.607   1.516 -0.0845 -0.8765  0.6965
  911MOL0     C22911   3.311   6.635   1.567  0.2836  1.3014  0.3898
  911MOL0     C22912   3.398   6.665   1.447 -0.2626 -0.6356  0.2581
  911MOL0     C22913   3.551   6.667   1.474  0.0355  0.5795  0.2268
  911MOL0     C22914   3.604   6.543   1.529  0.0890  0.3095  0.3501
  911MOL0     C22915   3.654   6.439   1.564 -0.2266  0.5302  0.3440
  911MOL0     C22916   3.052   6.307   1.369 -0.3885 -0.3889 -0.1839
  911MOL0     C22917   2.936   6.243   1.322 -0.2897 -0.8064 -0.3188
  911MOL0     H22918   2.437   6.156   1.351  2.3633  0.3479 -0.9450
  911MOL0     H22919   2.250   6.059   1.236  0.5678  0.5590  1.9506
  911MOL0     H22920   2.316   5.976   0.959 -0.5821  0.1498  0.6362
  911MOL0     H22921   2.178   5.916   1.052  1.6781 -2.1990 -0.0033
  911MOL0     H22922   2.140   5.987   0.760  1.1851 -0.7991 -0.7114
  911MOL0     H22923   2.166   5.821   0.809  2.9028  1.6675 -2.0860
  911MOL0     H22924   1.963   5.822   0.938  1.1288 -1.9806 -2.8467
  911MOL0     H22925   1.933   6.000   0.901 -0.0281 -0.2247  3.1294
  911MOL0     H22926   1.912   5.965   0.667 -2.8225 -1.3358 -2.3778
  911MOL0     H22927   1.962   5.803   0.676 -0.7048  1.3719 -2.8454
  911MOL0     H22928   1.772   5.724   0.791  1.3053  0.7084  0.2671
  911MOL0     H22929   1.738   5.891   0.857 -0.9071  0.7751 -0.9593
  911MOL0     H22930   1.668   5.973   0.657  0.2990  0.4694  1.6437
  911MOL0     H22931   1.721   5.832   0.564 -1.5555  1.2896 -0.0757
  911MOL0     H22932   1.527   5.708   0.640 -1.7525  0.9981 -0.1647
  911MOL0     H22933   1.505   5.836   0.769  3.1255  0.3664  0.4113
  911MOL0     H22934   1.470   5.852   0.467  0.1470 -0.1429 -0.0357
  911MOL0     H22935   1.464   5.991   0.575  2.4896 -0.9367  3.6667
  911MOL0     H22936   1.265   5.911   0.802  1.1091  1.7707 -1.4326
  911MOL0     H22937   1.006   5.787   0.844  0.0935 -1.2907 -1.3150
  911MOL0     H22938   0.948   5.950   0.790 -2.5714 -0.8535  2.0607
  911MOL0     H22939   0.853   5.692   0.687  0.5760  0.1527 -2.8792
  911MOL0     H22940   0.835   5.842   0.600  2.4670  0.1464 -0.6897
  911MOL0     H22941   0.742   5.946   0.827 -1.3756  0.2416 -0.9082
  911MOL0     H22942   0.730   5.782   0.880 -1.5425  3.2471  2.3829
  911MOL0     H22943   0.594   5.851   0.632 -0.1950 -1.7159  0.2597
  911MOL0     H22944   0.528   5.901   0.773  1.3803  1.9183 -2.4688
  911MOL0     H22945   0.491   5.444   0.711  2.2888 -1.2099 -3.2858
  911MOL0     H22946   0.168   5.314   0.625  1.2419  0.3470 -2.0794
  911MOL0     H22947   0.310   5.238   0.549 -1.0290 -0.7161 -1.1016
  911MOL0     H22948   0.306   5.282   0.721 -0.2693 -0.9446 -0.1511
  911MOL0     H22949   0.085   5.522   0.111  0.6904 -1.7465  0.3393
  911MOL0     H22950  -0.110   5.456  -0.054 -2.2057 -0.3715  0.2314
  911MOL0     H22951  -0.382   5.633  -0.099  2.6020 -0.3014 -0.3630
  911MOL0     H22952  -0.287   5.495  -0.161 -0.2093  1.0775  0.3499
  911MOL0     H22953  -0.494   5.385  -0.216  1.2495  0.0506 -2.5828
  911MOL0     H22954  -0.580   5.504  -0.118  0.9125 -3.8579  1.4819
  911MOL0     H22955  -0.457   5.562  -0.398 -1.5190  0.5052 -0.6558
  911MOL0     H22956  -0.522   5.682  -0.289 -1.5384  0.2567 -0.8433
  911MOL0     H22957  -0.734   5.598  -0.302 -0.6210 -1.3592 -0.4453
  911MOL0     H22958  -0.677   5.600  -0.467  0.3438 -2.2348 -1.5632
  911MOL0     H22959  -0.702   5.348  -0.306 -1.3476  0.4055  0.8548
  911MOL0     H22960  -0.643   5.361  -0.474  1.2909  0.7631  0.7020
  911MOL0     H22961  -0.902   5.457  -0.365  2.6617  2.4042 -0.2852
  911MOL0     H22962  -0.853   5.466  -0.539 -3.1858 -2.6027 -1.1823
  911MOL0     H22963  -0.974   5.241  -0.374 -5.1534 -1.1463 -2.9106
  911MOL0     H22964  -0.857   5.202  -0.504  1.6783 -0.0885  3.1599
  911MOL0     H22965  -1.099   5.197  -0.585 -1.6475  1.6644 -2.4539
  911MOL0     H22966  -1.005   5.332  -0.657  0.9159 -0.7529 -0.1292
  911MOL0     H22967  -0.387   5.527   0.250  1.2213  2.1971  1.1222
  911MOL0     H22968  -0.198   5.574   0.421  0.5355  0.6429  0.4116
  911MOL0     H22969   0.191   5.742   0.464  0.1531 -0.8863 -0.7805
  911MOL0     H22970   0.357   5.831   0.620  1.3228 -0.5050 -1.3958
  911MOL0     H22971   2.303   6.329   0.910 -0.8322  0.5401 -0.2289
  911MOL0     H22972   2.500   6.417   1.026  0.5974 -0.8077  0.2413
  911MOL0     H22973   2.743   6.517   1.298  1.0482  0.4654 -0.0400
  911MOL0     H22974   2.945   6.625   1.376 -1.7192 -0.8387  0.2728
  911MOL0     H22975   3.139   6.692   1.455 -1.0289 -1.7381 -0.0314
  911MOL0     H22976   3.099   6.601   1.596 -1.0567  0.3918 -0.0623
  911MOL0     H22977   3.343   6.548   1.624  0.6035  0.4424 -1.0394
  911MOL0     H22978   3.313   6.724   1.630  1.1178  1.3298  0.3322
  911MOL0     H22979   3.373   6.762   1.404 -0.2941 -0.9862 -0.5325
  911MOL0     H22980   3.389   6.580   1.379  0.2352 -0.6066  0.1496
  911MOL0     H22981   3.580   6.741   1.549  0.0791  0.2168  0.5671
  911MOL0     H22982   3.602   6.694   1.381 -1.4968  1.7165 -0.3246
  911MOL0     H22983   3.703   6.347   1.589  0.1455  0.3718 -0.9083
  911MOL0     H22984   3.132   6.238   1.395 -0.1619 -0.5606 -1.2838
  911MOL0     H22985   2.931   6.135   1.323  1.0223 -0.8733  0.5198
  912MOL0     O22986   2.267   5.160   5.768 -0.6408  0.9891 -0.0063
  912MOL0     C22987   2.286   5.226   5.665 -0.3142  0.3742 -0.0864
  912MOL0     O22988   2.193   5.278   5.592 -0.4625  0.2449  0.3319
  912MOL0     C22989   2.058   5.291   5.612 -0.3712 -0.0707  0.1812
  912MOL0     C22990   1.975   5.347   5.517  0.0632  0.0691 -0.0674
  912MOL0     C22991   1.836   5.364   5.535 -0.6662  0.6472 -0.2683
  912MOL0     C22992   1.774   5.313   5.644  0.1759 -0.3071 -0.2581
  912MOL0     O22993   1.642   5.322   5.670  0.0834  0.0047  0.3634
  912MOL0     C22994   1.556   5.284   5.562 -0.1120  0.5163 -0.1017
  912MOL0     C22995   1.424   5.239   5.609 -0.0592 -0.2011 -0.3028
  912MOL0     C22996   1.365   5.135   5.512 -0.2347 -0.9003 -0.2996
  912MOL0     C22997   1.239   5.066   5.561 -0.5300 -0.0371  0.4077
  912MOL0     C22998   1.159   4.983   5.463 -0.2586  0.1004 -0.3943
  912MOL0     C22999   1.045   4.918   5.543 -0.2051  0.6081 -0.5004
  912MOL0     C23000   0.977   4.805   5.461 -0.2495  1.1366  0.3159
  912MOL0     C23001   0.868   4.724   5.536 -0.5212 -0.1426  0.3620
  912MOL0     N23002   0.804   4.615   5.464  0.4593 -0.0864 -0.7236
  912MOL0     C23003   0.866   4.520   5.389  0.2050  0.6649 -0.1925
  912MOL0     C23004   0.767   4.446   5.338 -0.3302  0.1592 -0.1290
  912MOL0     C23005   0.775   4.318   5.268 -0.2221  0.0020 -0.2869
  912MOL0     C23006   0.643   4.263   5.225 -0.0473 -0.1665  0.0757
  912MOL0     C23007   0.617   4.111   5.250 -0.0068 -0.6720  0.5824
  912MOL0     C23008   0.474   4.076   5.242  0.3034  0.6979  0.2220
  912MOL0     O23009   0.437   4.082   5.105 -0.3463 -0.6913 -0.8184
  912MOL0     C23010   0.326   4.008   5.070 -0.0816 -0.7520 -0.1886
  912MOL0     C23011   0.238   4.070   4.982  0.5108  1.2481  0.1636
  912MOL0     C23012   0.134   4.008   4.924  0.0253 -0.2606  0.2562
  912MOL0     C23013   0.056   4.090   4.821  0.3330  0.3053 -0.4646
  912MOL0     C23014   0.091   3.882   4.977 -0.2981 -0.1399  0.5268
  912MOL0     C23015  -0.032   3.800   4.935 -0.3689  0.1062  0.1543
  912MOL0     O23016  -0.044   3.673   4.975 -0.4808  0.2162  0.0208
  912MOL0     C23017  -0.166   3.629   5.024  0.1833  0.4281 -0.6154
  912MOL0     C23018  -0.198   3.496   5.008 -0.2129  0.2978  0.0316
  912MOL0     C23019  -0.330   3.461   5.044 -0.1216 -0.4271 -0.3392
  912MOL0     C23020  -0.418   3.541   5.117 -0.3096  0.3443 -0.1810
  912MOL0     O23021  -0.542   3.481   5.158  0.0822  0.0622  0.8925
  912MOL0     C23022  -0.618   3.559   5.249  0.2212  0.8028 -1.0076
  912MOL0     C23023  -0.725   3.469   5.318  0.2339  0.1857  0.5335
  912MOL0     C23024  -0.847   3.550   5.367  0.8336  1.0032 -0.5178
  912MOL0     C23025  -0.929   3.455   5.446 -0.7650  0.4746 -0.1302
  912MOL0     C23026  -1.062   3.518   5.483 -0.0012  0.3256  0.2377
  912MOL0     C23027  -1.168   3.408   5.530  0.6031 -0.3851  0.5128
  912MOL0     C23028  -1.300   3.476   5.556  0.2313  0.0780 -0.0940
  912MOL0     C23029  -1.425   3.373   5.561 -0.6766 -0.2229  0.4090
  912MOL0    Cl23030  -1.572   3.478   5.579 -0.1358 -0.2806 -0.1023
  912MOL0     C23031  -0.376   3.674   5.155 -0.1548  0.7752  0.6039
  912MOL0     C23032  -0.250   3.711   5.112  0.1147  0.0876  0.0256
  912MOL0     O23033  -0.118   3.857   4.871  0.0389  0.4419 -0.1654
  912MOL0     C23034   0.177   3.829   5.075 -0.0251 -0.1131 -0.1923
  912MOL0     C23035   0.297   3.884   5.114 -1.1394 -0.9800 -0.0894
  912MOL0     N23036   0.647   4.496   5.384  0.4602  0.4447  0.4653
  912MOL0     N23037   0.674   4.598   5.460 -0.0629 -0.0383 -0.5125
  912MOL0     C23038   1.856   5.254   5.748  0.9799 -0.2288  0.0556
  912MOL0     C23039   1.996   5.245   5.731  0.4212  0.3438  0.0497
  912MOL0     C23040   2.422   5.224   5.594  0.1978 -0.1274 -1.2271
  912MOL0     C23041   2.446   5.273   5.463 -0.1076 -0.7474  0.1631
  912MOL0     C23042   2.579   5.258   5.414  0.2454 -0.6726 -0.6945
  912MOL0     C23043   2.678   5.196   5.489  0.0452  0.3804  1.0115
  912MOL0     O23044   2.796   5.186   5.422 -0.8219  0.2101  0.5993
  912MOL0     C23045   2.878   5.080   5.458 -1.6133  0.3886 -0.1554
  912MOL0     C23046   2.989   5.064   5.362  0.2049  0.3811 -0.2310
  912MOL0     C23047   3.088   5.186   5.345  0.0107  0.4229 -0.7260
  912MOL0     C23048   3.030   5.329   5.317  0.0914 -0.0950 -0.0950
  912MOL0     C23049   3.131   5.424   5.282 -0.0711 -0.8402 -0.2993
  912MOL0     C23050   3.218   5.498   5.244 -0.0352 -0.3704  0.5616
  912MOL0     C23051   2.651   5.150   5.617  0.3296  0.0258 -0.0955
  912MOL0     C23052   2.528   5.172   5.672  0.4383  0.7383  0.8556
  912MOL0     H23053   2.020   5.374   5.421  0.0407 -1.7730 -0.6211
  912MOL0     H23054   1.787   5.415   5.453  0.4355  2.0386 -0.1101
  912MOL0     H23055   1.532   5.368   5.497  3.4147 -0.6541 -3.2351
  912MOL0     H23056   1.602   5.223   5.484 -2.0279  1.0301 -1.7107
  912MOL0     H23057   1.445   5.193   5.706  1.0266  0.7348 -0.0740
  912MOL0     H23058   1.355   5.324   5.617  1.3515  1.1396 -1.5884
  912MOL0     H23059   1.346   5.188   5.418  1.9234 -1.8521 -1.3656
  912MOL0     H23060   1.429   5.052   5.480 -2.5172 -1.9327 -2.5735
  912MOL0     H23061   1.254   5.011   5.655 -0.9630 -2.6234 -0.9188
  912MOL0     H23062   1.168   5.143   5.592 -2.4426 -1.4791 -0.1969
  912MOL0     H23063   1.111   5.041   5.384 -0.5265  1.4480  0.7233
  912MOL0     H23064   1.223   4.902   5.426  0.1513 -2.0692  4.2544
  912MOL0     H23065   1.079   4.874   5.637  0.5634  1.9620 -0.1220
  912MOL0     H23066   0.968   4.992   5.564 -2.2159 -1.3918 -0.4018
  912MOL0     H23067   0.945   4.842   5.363 -2.5723  1.2467  1.0458
  912MOL0     H23068   1.050   4.728   5.435 -3.7790 -1.1410 -4.3818
  912MOL0     H23069   0.784   4.787   5.568 -2.1948 -0.4788 -2.9623
  912MOL0     H23070   0.912   4.670   5.620 -2.3398  2.5357  3.2646
  912MOL0     H23071   0.972   4.499   5.378  0.1326 -1.5220  2.3167
  912MOL0     H23072   0.844   4.322   5.183 -2.2406  0.4138 -1.9898
  912MOL0     H23073   0.814   4.249   5.344 -0.8351  0.1223  0.1400
  912MOL0     H23074   0.642   4.271   5.116  0.4218  3.1362  0.2133
  912MOL0     H23075   0.553   4.317   5.257  0.4368  1.8948 -1.8420
  912MOL0     H23076   0.635   4.092   5.356  2.4193  0.1643  0.3726
  912MOL0     H23077   0.682   4.042   5.196  1.3385  0.9385  0.0497
  912MOL0     H23078   0.402   4.143   5.291 -0.8840  2.8863 -3.9898
  912MOL0     H23079   0.475   3.977   5.289  1.5950  0.0683 -1.0866
  912MOL0     H23080   0.267   4.170   4.951 -1.3893  1.8463  0.1640
  912MOL0     H23081   0.127   4.146   4.759  2.1866 -0.3487  0.9645
  912MOL0     H23082   0.008   4.019   4.754 -0.0491 -1.6068  1.7143
  912MOL0     H23083   0.000   4.165   4.878 -0.3349 -1.9680  2.1094
  912MOL0     H23084  -0.136   3.423   4.957 -2.1395 -1.8980  0.7109
  912MOL0     H23085  -0.358   3.358   5.025  1.9635 -0.8359 -1.5321
  912MOL0     H23086  -0.557   3.593   5.333 -0.6597  1.3926 -0.5974
  912MOL0     H23087  -0.675   3.635   5.194  1.5123  1.6053 -1.2876
  912MOL0     H23088  -0.754   3.405   5.234  1.0675  0.5513 -0.0422
  912MOL0     H23089  -0.682   3.412   5.401  1.0571  0.7342  0.4943
  912MOL0     H23090  -0.888   3.587   5.273  0.3358  0.9140 -0.3358
  912MOL0     H23091  -0.823   3.640   5.423 -1.6962  2.7235 -2.0194
  912MOL0     H23092  -0.948   3.370   5.379  1.2569  1.7134 -2.4202
  912MOL0     H23093  -0.869   3.425   5.532 -0.2126  2.8149  0.3685
  912MOL0     H23094  -1.116   3.566   5.401  1.6149  0.2968 -0.8851
  912MOL0     H23095  -1.054   3.579   5.573  0.8391 -2.8818  2.5322
  912MOL0     H23096  -1.187   3.327   5.459  2.4160 -1.5649  1.2807
  912MOL0     H23097  -1.115   3.362   5.614  0.2906 -1.5808  0.0745
  912MOL0     H23098  -1.316   3.543   5.471 -2.0667  0.4100  0.5547
  912MOL0     H23099  -1.293   3.537   5.646 -0.5517 -0.0299  0.0448
  912MOL0     H23100  -1.431   3.303   5.645  1.4770 -0.4110  0.4552
  912MOL0     H23101  -1.433   3.322   5.464  1.2538  1.5366 -0.7428
  912MOL0     H23102  -0.426   3.746   5.219  3.0421  2.0096  1.9179
  912MOL0     H23103  -0.217   3.809   5.147  1.7067 -0.8353  1.2718
  912MOL0     H23104   0.137   3.738   5.118  2.7073 -0.4885  1.8107
  912MOL0     H23105   0.355   3.833   5.190 -0.8257  0.6820  0.8421
  912MOL0     H23106   1.812   5.232   5.844 -2.7107  1.8989 -0.9405
  912MOL0     H23107   2.044   5.188   5.810  0.1045  0.6917  0.5014
  912MOL0     H23108   2.368   5.302   5.394 -0.4396 -1.2216  0.3363
  912MOL0     H23109   2.613   5.272   5.312  1.4574 -1.6582 -0.4550
  912MOL0     H23110   2.921   5.088   5.559  1.2798 -2.1086 -1.0225
  912MOL0     H23111   2.810   4.994   5.460 -2.2529  0.8957  0.6070
  912MOL0     H23112   2.943   5.046   5.264 -1.8084  2.9542  0.1210
  912MOL0     H23113   3.052   4.982   5.398 -1.5187 -2.2621 -2.7308
  912MOL0     H23114   3.173   5.161   5.280  0.6790  1.3275 -0.2252
  912MOL0     H23115   3.128   5.187   5.447 -0.8845  0.9629 -0.3797
  912MOL0     H23116   2.978   5.371   5.403 -0.5534 -1.9328  0.4587
  912MOL0     H23117   2.963   5.318   5.231 -0.0971  2.9111 -0.4166
  912MOL0     H23118   3.298   5.543   5.190 -1.0181 -0.4402 -1.0368
  912MOL0     H23119   2.731   5.096   5.666 -0.3095  0.1196  1.0960
  912MOL0     H23120   2.510   5.142   5.775  1.2197 -1.0948  0.4934
  913MOL0     O23121   9.751  10.509   9.913  0.2696  0.4339 -0.3651
  913MOL0     C23122   9.832  10.430   9.967  0.9712 -0.8983 -0.7676
  913MOL0     O23123   9.794  10.320  10.041 -0.3620  0.0344  0.2733
  913MOL0     C23124   9.667  10.276  10.036 -0.8490  0.3189  0.0807
  913MOL0     C23125   9.655  10.140  10.069 -0.2037 -0.9416  1.1715
  913MOL0     C23126   9.539  10.065  10.050 -0.2369  0.5183 -0.4810
  913MOL0     C23127   9.422  10.127  10.032  0.4301 -0.9566  0.3000
  913MOL0     O23128   9.303  10.055  10.022  0.9316 -0.0104  0.1937
  913MOL0     C23129   9.178  10.118   9.964 -1.1673 -0.2874 -0.2694
  913MOL0     C23130   9.065  10.016   9.949  0.2268  0.8234 -0.2063
  913MOL0     C23131   8.929  10.082   9.908  0.2655  0.5554 -0.2645
  913MOL0     C23132   8.815   9.990   9.935 -0.0855  0.0824 -0.4351
  913MOL0     C23133   8.672  10.039   9.931 -0.7037 -0.2534  0.3141
  913MOL0     C23134   8.621  10.076   9.787  0.6777  0.0067  0.5145
  913MOL0     C23135   8.462  10.063   9.791  0.0348  0.6089  0.3691
  913MOL0     C23136   8.415  10.079   9.651  0.9829 -0.2958  0.3141
  913MOL0     N23137   8.296   9.999   9.625 -0.3829 -0.1183 -0.8209
  913MOL0     C23138   8.276   9.867   9.623  0.0181  0.3937 -0.5495
  913MOL0     C23139   8.145   9.833   9.610 -0.0346 -0.2198  0.8783
  913MOL0     C23140   8.080   9.699   9.599 -0.6218  0.7279  0.2003
  913MOL0     C23141   7.926   9.708   9.635 -0.7735  0.8017 -0.7723
  913MOL0     C23142   7.868   9.563   9.661  0.0137 -0.9891 -0.3035
  913MOL0     C23143   7.723   9.568   9.612 -0.2457  0.1411  0.2165
  913MOL0     O23144   7.648   9.452   9.649  0.6023  0.5248 -0.1636
  913MOL0     C23145   7.515   9.439   9.612 -0.3379  0.3386 -0.8197
  913MOL0     C23146   7.456   9.527   9.520  0.0803  0.8657  0.9386
  913MOL0     C23147   7.322   9.509   9.486  0.3739 -0.2224 -0.5341
  913MOL0     C23148   7.263   9.626   9.422 -0.5846 -0.7589 -0.5297
  913MOL0     C23149   7.246   9.405   9.537  0.5138  0.2031 -1.2591
  913MOL0     C23150   7.087   9.401   9.542  0.1051  0.2124  0.0919
  913MOL0     O23151   7.043   9.301   9.624  0.1590 -0.7680  0.4282
  913MOL0     C23152   6.907   9.303   9.647 -0.3275  0.6968 -0.3784
  913MOL0     C23153   6.867   9.333   9.773  0.4387 -0.7448  0.1802
  913MOL0     C23154   6.729   9.337   9.808  0.3675  0.1729 -0.1188
  913MOL0     C23155   6.633   9.308   9.707 -0.0897 -0.2840  0.0416
  913MOL0     O23156   6.501   9.332   9.728 -0.2820  0.2374 -0.1950
  913MOL0     C23157   6.445   9.318   9.854 -0.7168 -0.2854 -0.1956
  913MOL0     C23158   6.300   9.294   9.839 -0.3632  0.3041 -0.6853
  913MOL0     C23159   6.253   9.145   9.832  0.5928  0.0120  0.3580
  913MOL0     C23160   6.103   9.129   9.823  0.0470  0.1198  1.2698
  913MOL0     C23161   6.054   8.984   9.851  0.1138 -0.9096  1.0655
  913MOL0     C23162   5.932   8.947   9.767 -0.7170 -0.4102  0.3845
  913MOL0     C23163   5.799   9.023   9.780 -0.2151  0.5790 -1.0106
  913MOL0     C23164   5.688   8.930   9.720 -0.9175 -0.0214 -0.2083
  913MOL0    Cl23165   5.531   9.009   9.756  0.3728  0.0933  0.1453
  913MOL0     C23166   6.679   9.275   9.578 -0.0746  0.2743 -0.6791
  913MOL0     C23167   6.816   9.269   9.546 -1.2462 -0.0314 -0.1520
  913MOL0     O23168   7.019   9.481   9.478  0.2987 -0.3396  0.1665
  913MOL0     C23169   7.317   9.306   9.619  0.6585  0.9639 -1.0164
  913MOL0     C23170   7.449   9.328   9.652  0.1934  1.0960 -0.2943
  913MOL0     N23171   8.082   9.957   9.593 -0.9139 -0.3769  0.1676
  913MOL0     N23172   8.168  10.053   9.609 -0.7331  0.0888 -0.9911
  913MOL0     C23173   9.423  10.268  10.008 -0.0947  0.0666 -0.1328
  913MOL0     C23174   9.542  10.339  10.017 -0.6518 -0.2033 -0.0878
  913MOL0     C23175   9.974  10.460   9.963  1.2168 -0.2038 -0.6702
  913MOL0     C23176  10.064  10.353  10.002  0.0155 -0.3861 -0.6278
  913MOL0     C23177  10.202  10.384   9.992 -0.5720  0.2565  0.0680
  913MOL0     C23178  10.246  10.508   9.955  0.5395  0.5875 -0.4110
  913MOL0     O23179  10.376  10.540   9.932 -0.4428  0.0416 -0.0933
  913MOL0     C23180  10.482  10.460   9.981 -0.1793 -0.0279  0.4193
  913MOL0     C23181  10.610  10.514   9.908  0.4915 -0.0121  0.0276
  913MOL0     C23182  10.729  10.417   9.921 -0.4805  0.3446  0.7077
  913MOL0     C23183  10.867  10.484   9.889 -0.4669  0.5089 -0.2172
  913MOL0     C23184  10.979  10.393   9.926  0.0012 -0.7572  0.4399
  913MOL0     C23185  11.075  10.331   9.959 -0.1631 -1.0031 -0.0798
  913MOL0     C23186  10.157  10.610   9.927  0.0328 -0.2286 -0.0608
  913MOL0     C23187  10.021  10.591   9.933  0.3863  0.2364  0.4445
  913MOL0     H23188   9.743  10.084  10.099  1.2309  0.3357 -0.4362
  913MOL0     H23189   9.549   9.958  10.066 -1.3723  0.6416  1.2626
  913MOL0     H23190   9.153  10.204  10.027  1.3765  2.7907 -3.0814
  913MOL0     H23191   9.205  10.165   9.869 -2.0971 -1.3201 -1.0657
  913MOL0     H23192   9.087   9.942   9.871  0.9393  2.3980 -1.5427
  913MOL0     H23193   9.059   9.964  10.045  0.1134  2.0299  0.4582
  913MOL0     H23194   8.913  10.165   9.977 -1.8410  0.1629 -0.2368
  913MOL0     H23195   8.920  10.130   9.811  0.3246 -0.3814 -0.7480
  913MOL0     H23196   8.820   9.904   9.868 -0.0919  0.4274 -0.8819
  913MOL0     H23197   8.818   9.960  10.040  2.6773 -0.1321 -0.4958
  913MOL0     H23198   8.622   9.944   9.953  3.4762 -3.0671 -0.9557
  913MOL0     H23199   8.647  10.123   9.996 -2.5543 -1.0228  0.6395
  913MOL0     H23200   8.641  10.174   9.743  0.3907  0.0990  0.5890
  913MOL0     H23201   8.662  10.016   9.706 -0.6171  0.5453 -0.5610
  913MOL0     H23202   8.426   9.972   9.840  0.0905  0.6265  0.4435
  913MOL0     H23203   8.428  10.149   9.850 -0.4686  2.6663 -2.7074
  913MOL0     H23204   8.487  10.044   9.576  1.7631 -2.5240  1.9802
  913MOL0     H23205   8.391  10.185   9.638 -0.0735 -0.0780  3.2077
  913MOL0     H23206   8.352   9.791   9.638 -0.0433  0.7643  2.0507
  913MOL0     H23207   8.086   9.664   9.495  1.8083  0.8573  0.2500
  913MOL0     H23208   8.132   9.630   9.666 -0.3322  1.8944  1.2124
  913MOL0     H23209   7.876   9.755   9.550  0.1492 -0.1172 -1.8568
  913MOL0     H23210   7.907   9.774   9.720  2.5116 -0.3783  1.0869
  913MOL0     H23211   7.865   9.536   9.767  0.9362  0.7157  0.1972
  913MOL0     H23212   7.933   9.492   9.608  2.3527 -1.3436  2.7928
  913MOL0     H23213   7.734   9.571   9.503 -0.4703  0.4357  0.2003
  913MOL0     H23214   7.676   9.661   9.647 -2.8210 -0.6939 -0.8138
  913MOL0     H23215   7.500   9.613   9.470 -2.3666  0.6742 -1.8232
  913MOL0     H23216   7.331   9.678   9.353  0.6138 -2.5664 -0.7655
  913MOL0     H23217   7.176   9.614   9.356  0.7746  0.3676 -2.6473
  913MOL0     H23218   7.229   9.691   9.503  2.0239  2.6384 -1.9256
  913MOL0     H23219   6.937   9.369   9.848 -1.8945  1.3492  1.5035
  913MOL0     H23220   6.696   9.371   9.906  0.7041  0.8517 -0.2316
  913MOL0     H23221   6.490   9.229   9.898 -2.1514  0.4126  2.9523
  913MOL0     H23222   6.463   9.402   9.921  0.3075 -0.2042 -0.5542
  913MOL0     H23223   6.252   9.345   9.923 -1.0401  2.0465 -2.0747
  913MOL0     H23224   6.262   9.354   9.756  0.7801  2.6602  0.4031
  913MOL0     H23225   6.278   9.100   9.929 -0.4238  0.7028  0.9532
  913MOL0     H23226   6.303   9.096   9.748 -0.6575  0.5966 -0.7537
  913MOL0     H23227   6.058   9.206   9.886  0.7299  0.2314  1.6183
  913MOL0     H23228   6.082   9.159   9.719  3.0660 -0.7818  0.3241
  913MOL0     H23229   6.022   8.979   9.956 -3.8709  1.4800  0.1495
  913MOL0     H23230   6.137   8.915   9.831  0.9087 -0.1243  1.5354
  913MOL0     H23231   5.977   8.948   9.668  1.9809 -1.5278  1.5248
  913MOL0     H23232   5.913   8.843   9.793 -2.4302  0.0482  1.1531
  913MOL0     H23233   5.797   9.126   9.744  1.0112  1.3855  1.0257
  913MOL0     H23234   5.776   9.041   9.886 -0.0496  0.1507 -0.8978
  913MOL0     H23235   5.701   8.826   9.751  2.0403 -0.2520 -1.8384
  913MOL0     H23236   5.707   8.928   9.612 -0.1524  0.9536 -0.1031
  913MOL0     H23237   6.602   9.248   9.507 -2.6479 -0.0079  2.0307
  913MOL0     H23238   6.848   9.264   9.442 -2.2852  1.0287 -0.5525
  913MOL0     H23239   7.272   9.222   9.671  1.4552  1.2564  0.1791
  913MOL0     H23240   7.513   9.259   9.706 -1.4630 -0.7082 -0.5353
  913MOL0     H23241   9.336  10.330   9.990  0.6459  0.9299 -0.8496
  913MOL0     H23242   9.535  10.447  10.013  1.1663  0.0333  1.5054
  913MOL0     H23243  10.044  10.250  10.030  2.7600 -0.7415  0.3629
  913MOL0     H23244  10.277  10.306   9.997 -0.6114  0.3203  2.4836
  913MOL0     H23245  10.490  10.478  10.089  0.2045 -0.0603  0.3975
  913MOL0     H23246  10.460  10.358   9.947 -1.7504  0.1472  0.8435
  913MOL0     H23247  10.639  10.611   9.949  1.4243  0.1449 -0.9554
  913MOL0     H23248  10.586  10.536   9.803 -0.0699  0.6768  0.2884
  913MOL0     H23249  10.711  10.335   9.851  3.4983 -1.2322  1.2592
  913MOL0     H23250  10.732  10.379  10.023 -0.0292 -1.0472  0.2108
  913MOL0     H23251  10.878  10.582   9.935  0.2518 -0.0431  0.8196
  913MOL0     H23252  10.858  10.497   9.781 -0.8412  0.4662 -0.1908
  913MOL0     H23253  11.154  10.266   9.990 -0.2222 -0.5104  1.1458
  913MOL0     H23254  10.192  10.710   9.903  0.9349 -0.3705  0.6481
  913MOL0     H23255   9.953  10.668   9.900  1.8261  1.0399 -0.7870
  914MOL0     O23256   3.261   9.045   6.535 -1.3466  0.6178  0.6756
  914MOL0     C23257   3.329   9.113   6.609  0.1607  0.4937 -0.3309
  914MOL0     O23258   3.282   9.217   6.686  0.2657 -0.5042 -1.1374
  914MOL0     C23259   3.146   9.251   6.720 -0.3591 -0.2847 -0.0604
  914MOL0     C23260   3.124   9.377   6.779 -0.3972 -0.9528 -0.4203
  914MOL0     C23261   3.001   9.433   6.812 -0.0890  0.8481 -0.8153
  914MOL0     C23262   2.892   9.347   6.787  1.2928 -0.3439 -0.0401
  914MOL0     O23263   2.759   9.372   6.811 -0.1313 -1.1513 -0.3195
  914MOL0     C23264   2.710   9.507   6.837  0.2183 -0.1058 -0.1940
  914MOL0     C23265   2.569   9.494   6.772 -0.3736  0.0298 -0.5297
  914MOL0     C23266   2.478   9.620   6.786  0.2327  0.2596 -0.0832
  914MOL0     C23267   2.332   9.586   6.745 -0.0842  0.5179 -0.9112
  914MOL0     C23268   2.267   9.727   6.729  0.9583  0.0571  0.0001
  914MOL0     C23269   2.127   9.698   6.666  0.2242  0.7854  0.5905
  914MOL0     C23270   2.028   9.813   6.693  0.1189 -0.4369 -0.7281
  914MOL0     C23271   2.068   9.938   6.618  0.5461  0.2858  0.2065
  914MOL0     N23272   2.166  10.038   6.673  0.4439  0.5760  0.4721
  914MOL0     C23273   2.194  10.046   6.800 -0.9938  0.0043 -0.2170
  914MOL0     C23274   2.311  10.118   6.807 -0.5874  0.5913  0.0976
  914MOL0     C23275   2.394  10.167   6.924 -0.6249  0.5712 -0.0479
  914MOL0     C23276   2.341  10.307   6.958  0.6001  0.1421  0.4303
  914MOL0     C23277   2.402  10.368   7.081  0.0345 -0.3117 -0.5668
  914MOL0     C23278   2.362  10.514   7.124 -0.2110 -0.2307  1.1712
  914MOL0     O23279   2.222  10.526   7.132  0.0685  0.2393 -0.4623
  914MOL0     C23280   2.174  10.651   7.152 -0.1812  0.6257 -0.6224
  914MOL0     C23281   2.241  10.745   7.230 -0.2189  0.4874  0.0992
  914MOL0     C23282   2.197  10.880   7.237  0.9667  0.2734  0.1679
  914MOL0     C23283   2.272  10.979   7.326  0.1923  0.6224  0.5844
  914MOL0     C23284   2.076  10.913   7.172  0.7966  0.1530  0.0676
  914MOL0     C23285   2.015  11.051   7.176 -0.3866 -1.1857  0.1888
  914MOL0     O23286   1.892  11.064   7.126  0.6538  0.2477 -0.4041
  914MOL0     C23287   1.823  11.179   7.105 -0.4705  0.2638  0.6883
  914MOL0     C23288   1.876  11.310   7.077  0.0919 -0.8253 -0.5847
  914MOL0     C23289   1.792  11.422   7.066 -0.9706 -0.0697 -0.8833
  914MOL0     C23290   1.658  11.418   7.099  0.0337 -0.1954 -0.8170
  914MOL0     O23291   1.582  11.529   7.084  0.2375 -0.3977 -0.1419
  914MOL0     C23292   1.449  11.536   7.147 -0.0467 -0.1116 -0.3249
  914MOL0     C23293   1.409  11.687   7.135 -0.0542 -0.4178 -0.7636
  914MOL0     C23294   1.276  11.707   7.052 -0.1785 -0.0380  0.4958
  914MOL0     C23295   1.142  11.640   7.103 -0.6465  0.2108  0.3550
  914MOL0     C23296   1.013  11.666   7.024  0.1668  0.7999 -0.1859
  914MOL0     C23297   0.921  11.546   7.042  0.2340 -0.1270 -0.7811
  914MOL0     C23298   0.789  11.564   6.970  0.6243  0.1388  0.4735
  914MOL0     C23299   0.815  11.535   6.823  0.3329 -0.3948 -1.6161
  914MOL0    Cl23300   0.655  11.497   6.742  0.2298  0.5216  0.3097
  914MOL0     C23301   1.610  11.296   7.146 -0.5775  0.2739 -0.0829
  914MOL0     C23302   1.686  11.176   7.138 -0.1620  0.5326  0.6302
  914MOL0     O23303   2.090  11.149   7.197 -0.3869 -0.4634 -0.8836
  914MOL0     C23304   2.002  10.811   7.112  0.7854  0.4634 -0.6491
  914MOL0     C23305   2.059  10.677   7.087 -0.0154 -0.2518 -0.0356
  914MOL0     N23306   2.345  10.154   6.675  1.3819  0.0053  0.0368
  914MOL0     N23307   2.258  10.105   6.603 -0.4844 -0.4541  0.2405
  914MOL0     C23308   2.913   9.223   6.731  0.1907  0.9992  0.6525
  914MOL0     C23309   3.034   9.171   6.702 -0.3492  0.2304  0.1787
  914MOL0     C23310   3.478   9.101   6.604  0.5366  0.5317 -1.7216
  914MOL0     C23311   3.557   9.192   6.677 -0.4017 -0.1564  0.1713
  914MOL0     C23312   3.701   9.161   6.687  0.2040 -0.2513  0.0478
  914MOL0     C23313   3.764   9.052   6.626  0.2031  1.2682 -0.0872
  914MOL0     O23314   3.904   9.046   6.645 -0.1352  0.3757  0.0876
  914MOL0     C23315   3.968   8.927   6.603  1.0430 -0.1696 -0.2863
  914MOL0     C23316   4.010   8.957   6.455 -0.2129  0.6080 -0.1852
  914MOL0     C23317   4.106   9.072   6.435  1.2098  0.1889  0.1948
  914MOL0     C23318   4.228   9.073   6.534  0.4697 -0.2201  0.3196
  914MOL0     C23319   4.296   8.955   6.566 -0.4677 -0.1342  0.1238
  914MOL0     C23320   4.339   8.844   6.602 -0.9505  0.1713 -0.1273
  914MOL0     C23321   3.676   8.965   6.552  0.3146 -0.0106 -0.7860
  914MOL0     C23322   3.538   8.995   6.543 -0.2503 -1.1297 -0.1174
  914MOL0     H23323   3.210   9.440   6.799 -2.0456  2.6511 -3.4638
  914MOL0     H23324   2.976   9.531   6.851  0.0371  0.8677 -0.7817
  914MOL0     H23325   2.700   9.525   6.944 -1.1606  0.0607 -0.3305
  914MOL0     H23326   2.767   9.584   6.785  0.5013  1.9022  2.8596
  914MOL0     H23327   2.583   9.467   6.667 -0.1118  1.4239 -0.8777
  914MOL0     H23328   2.504   9.424   6.826 -0.0093  0.0634 -0.0340
  914MOL0     H23329   2.477   9.661   6.887 -0.5567  1.5621 -0.5855
  914MOL0     H23330   2.524   9.704   6.733  0.9581 -0.5492 -0.7589
  914MOL0     H23331   2.330   9.536   6.647  1.0518 -0.5838 -0.3929
  914MOL0     H23332   2.285   9.514   6.813 -0.9014 -1.4240 -3.3639
  914MOL0     H23333   2.254   9.768   6.829 -0.3279  0.4634 -0.3175
  914MOL0     H23334   2.319   9.795   6.661  0.7826  0.4844  0.2931
  914MOL0     H23335   2.136   9.688   6.558  3.1508  0.8887  0.7524
  914MOL0     H23336   2.097   9.599   6.703 -0.2611  1.0019  0.7960
  914MOL0     H23337   1.929   9.778   6.664  0.3328 -0.6437 -1.2152
  914MOL0     H23338   2.031   9.837   6.800 -1.2144  0.9257 -0.9757
  914MOL0     H23339   1.968   9.980   6.610  0.9177  1.1053 -0.1870
  914MOL0     H23340   2.109   9.922   6.518  1.1250 -0.0513  0.4932
  914MOL0     H23341   2.139   9.999   6.881  1.3035 -0.3015  1.2595
  914MOL0     H23342   2.383  10.095   7.005  0.5993 -1.4144 -1.5451
  914MOL0     H23343   2.502  10.171   6.906 -0.7900 -0.2531 -1.4211
  914MOL0     H23344   2.233  10.299   6.970  0.3218  2.2854 -0.2302
  914MOL0     H23345   2.358  10.379   6.877  1.7514 -0.1479  0.4009
  914MOL0     H23346   2.505  10.361   7.043 -0.0320  2.0195 -1.3938
  914MOL0     H23347   2.392  10.311   7.174  0.5609 -0.7301 -0.7563
  914MOL0     H23348   2.394  10.584   7.047 -0.6259 -1.3128 -0.0160
  914MOL0     H23349   2.413  10.540   7.218 -3.2220 -2.4169  3.6337
  914MOL0     H23350   2.333  10.725   7.284  0.1884  1.8380 -0.0589
  914MOL0     H23351   2.307  11.055   7.255  0.6732  0.0549  0.2056
  914MOL0     H23352   2.200  11.016   7.399  1.0627 -0.8190  2.2369
  914MOL0     H23353   2.351  10.931   7.384 -0.9338 -0.5541  1.1777
  914MOL0     H23354   1.980  11.328   7.054  0.4149  1.3720  2.1001
  914MOL0     H23355   1.828  11.519   7.034  0.1698 -0.2852 -0.2967
  914MOL0     H23356   1.381  11.473   7.088  0.6699 -0.0269 -1.2624
  914MOL0     H23357   1.450  11.506   7.252 -0.1440 -1.6116 -0.7223
  914MOL0     H23358   1.395  11.730   7.234 -2.1834 -2.8028  0.0453
  914MOL0     H23359   1.491  11.738   7.083  0.1466  0.4177  0.3425
  914MOL0     H23360   1.298  11.677   6.950  2.6671  1.0975  0.6805
  914MOL0     H23361   1.260  11.815   7.055  0.6052  0.0688  1.7030
  914MOL0     H23362   1.162  11.533   7.091  1.3862  0.4116  1.5277
  914MOL0     H23363   1.117  11.664   7.207 -1.4137 -0.4977  0.3520
  914MOL0     H23364   1.046  11.683   6.921  2.0940  1.4151  0.4853
  914MOL0     H23365   0.977  11.758   7.070 -0.0210  0.9107 -0.5543
  914MOL0     H23366   0.978  11.460   7.009 -0.0379  0.2444 -2.3191
  914MOL0     H23367   0.896  11.539   7.149 -2.8825 -0.9754 -1.4673
  914MOL0     H23368   0.738  11.660   6.986 -3.8341 -1.8003 -0.5212
  914MOL0     H23369   0.718  11.495   7.016 -1.2498  2.6422  1.5592
  914MOL0     H23370   0.893  11.458   6.815  1.0167 -0.1906  1.7865
  914MOL0     H23371   0.857  11.628   6.784  2.1590 -0.5444 -0.1144
  914MOL0     H23372   1.510  11.278   7.184  0.0517 -1.4567  0.8571
  914MOL0     H23373   1.655  11.074   7.159  0.8384 -0.6035 -2.7903
  914MOL0     H23374   1.905  10.833   7.071  1.4249  0.9461 -1.9673
  914MOL0     H23375   2.002  10.610   7.024 -1.4223  1.2827 -0.4460
  914MOL0     H23376   2.830   9.155   6.714 -0.2925  0.8808  3.1772
  914MOL0     H23377   3.035   9.069   6.666 -3.2823  0.5378 -1.1028
  914MOL0     H23378   3.516   9.275   6.735  0.2862  1.0253 -0.9697
  914MOL0     H23379   3.761   9.229   6.747  0.5836 -1.9393  1.6878
  914MOL0     H23380   4.046   8.898   6.674 -0.9826 -0.3165  1.9791
  914MOL0     H23381   3.896   8.845   6.604  1.3971 -0.4767  1.2331
  914MOL0     H23382   3.925   8.968   6.387 -1.3556 -0.3045  1.0510
  914MOL0     H23383   4.065   8.865   6.434 -1.8596 -0.4850  0.0604
  914MOL0     H23384   4.048   9.161   6.458  0.7340 -0.4553  1.6175
  914MOL0     H23385   4.138   9.064   6.331  2.1839 -1.2372  0.5655
  914MOL0     H23386   4.196   9.128   6.623  1.0078  1.6832 -0.6177
  914MOL0     H23387   4.309   9.133   6.491  1.5629 -1.5748  0.4224
  914MOL0     H23388   4.377   8.750   6.635 -0.5858  0.3530 -0.0322
  914MOL0     H23389   3.705   8.873   6.502 -1.1958 -1.4782  0.8607
  914MOL0     H23390   3.477   8.932   6.480 -2.0298 -0.9435  1.3317
  915MOL0     O23391   6.402   3.651   6.625 -0.1758 -0.5843 -0.1297
  915MOL0     C23392   6.469   3.554   6.574  0.2909  0.4776 -0.2900
  915MOL0     O23393   6.421   3.427   6.565  0.0905 -0.1027 -0.6238
  915MOL0     C23394   6.295   3.404   6.609  1.2475  0.0419 -0.7247
  915MOL0     C23395   6.279   3.330   6.723 -0.2248  0.2416  1.4752
  915MOL0     C23396   6.151   3.317   6.786 -0.6925 -0.4671  0.8845
  915MOL0     C23397   6.039   3.357   6.711  0.2694  0.0636 -0.1292
  915MOL0     O23398   5.907   3.359   6.743  0.6173  0.0323  0.4861
  915MOL0     C23399   5.863   3.307   6.865  0.2929  0.2859 -0.0568
  915MOL0     C23400   5.880   3.401   6.979  0.1517  0.0828 -0.5661
  915MOL0     C23401   5.769   3.389   7.091 -0.5600 -0.0750 -0.3989
  915MOL0     C23402   5.795   3.275   7.200  1.1370 -0.3876 -0.0684
  915MOL0     C23403   5.911   3.301   7.301 -0.1211  0.5320 -0.4862
  915MOL0     C23404   5.917   3.179   7.399  0.8912 -0.1504  0.7340
  915MOL0     C23405   6.027   3.201   7.502 -0.7309  0.3333 -0.4010
  915MOL0     C23406   6.061   3.076   7.589 -0.0227  0.4256  0.2014
  915MOL0     N23407   5.961   3.034   7.681 -0.8372 -0.2902  0.2258
  915MOL0     C23408   5.848   2.963   7.642 -0.6676 -0.5556  0.7314
  915MOL0     C23409   5.778   2.950   7.756 -0.1055 -0.6292  0.9163
  915MOL0     C23410   5.634   2.902   7.745  0.4019  0.4722 -0.3213
  915MOL0     C23411   5.534   2.969   7.650  0.5542  0.6172 -0.2704
  915MOL0     C23412   5.515   3.118   7.680 -0.1128  0.0487  0.1483
  915MOL0     C23413   5.430   3.152   7.806  0.8998 -1.1804 -0.0601
  915MOL0     O23414   5.306   3.081   7.817 -0.1798 -0.0541 -0.4075
  915MOL0     C23415   5.194   3.101   7.737 -1.2286 -0.2963  0.0638
  915MOL0     C23416   5.177   3.224   7.679 -0.3121 -0.1589 -0.7406
  915MOL0     C23417   5.074   3.247   7.585  0.5783  0.7412  0.7144
  915MOL0     C23418   5.063   3.372   7.503 -0.8103 -0.5248  1.2239
  915MOL0     C23419   4.974   3.142   7.569 -1.0503 -0.4177 -0.0495
  915MOL0     C23420   4.853   3.150   7.479 -0.0563 -0.5781  0.3874
  915MOL0     O23421   4.792   3.275   7.446  0.7069 -0.1549 -0.7991
  915MOL0     C23422   4.678   3.277   7.378 -0.2843  1.1052  0.2669
  915MOL0     C23423   4.672   3.299   7.242  0.1771  0.2894  0.8311
  915MOL0     C23424   4.551   3.301   7.183 -0.2714  0.5144 -0.1871
  915MOL0     C23425   4.433   3.265   7.249 -0.3240  0.2429 -0.0953
  915MOL0     O23426   4.317   3.266   7.171  0.2152 -0.5688 -0.1966
  915MOL0     C23427   4.206   3.205   7.236  0.0561  0.3998  0.6088
  915MOL0     C23428   4.093   3.224   7.134  0.0939 -0.6462  0.8256
  915MOL0     C23429   3.963   3.178   7.203 -0.0723  0.1872  0.0150
  915MOL0     C23430   3.847   3.184   7.114 -0.0283 -0.7890 -0.1626
  915MOL0     C23431   3.750   3.071   7.140 -0.0805  0.0829 -0.3469
  915MOL0     C23432   3.614   3.104   7.097 -0.1410 -0.0110 -0.0299
  915MOL0     C23433   3.518   2.995   7.158  0.3929  0.2635  0.0540
  915MOL0     C23434   3.373   3.045   7.129 -0.1535 -0.0348  0.3639
  915MOL0    Cl23435   3.253   2.970   7.242  0.0801  0.1296 -0.3017
  915MOL0     C23436   4.438   3.236   7.386 -0.3014 -0.0639  0.1392
  915MOL0     C23437   4.557   3.253   7.455 -0.5751 -0.2267 -0.4192
  915MOL0     O23438   4.814   3.043   7.437  0.2421  0.2933 -0.0907
  915MOL0     C23439   4.999   3.015   7.635 -0.2627 -0.5546  0.3144
  915MOL0     C23440   5.107   3.000   7.715  0.2295  0.4452  0.7366
  915MOL0     N23441   5.839   3.012   7.854 -0.7865  0.9876 -0.7709
  915MOL0     N23442   5.955   3.057   7.814 -0.4878  0.6810  1.1434
  915MOL0     C23443   6.056   3.417   6.586 -0.0962  0.3137  0.4038
  915MOL0     C23444   6.181   3.454   6.538 -0.3732  0.6795 -0.1074
  915MOL0     C23445   6.612   3.577   6.531 -0.3291 -0.1591  0.5973
  915MOL0     C23446   6.686   3.695   6.560 -0.1057 -0.1405 -0.1026
  915MOL0     C23447   6.816   3.715   6.507 -0.1912 -0.0318 -0.5765
  915MOL0     C23448   6.875   3.624   6.421  0.8910 -0.3191  0.0667
  915MOL0     O23449   7.000   3.658   6.384  0.3239 -0.1140  0.1921
  915MOL0     C23450   7.085   3.571   6.307  0.9168 -0.5764 -0.0416
  915MOL0     C23451   7.049   3.560   6.159 -0.2473  0.1289  0.4052
  915MOL0     C23452   7.118   3.437   6.088 -0.1976  0.3446 -0.4814
  915MOL0     C23453   7.072   3.299   6.143 -0.0530 -0.0103  0.4549
  915MOL0     C23454   7.081   3.192   6.052  0.5048  1.4950  0.6514
  915MOL0     C23455   7.103   3.105   5.973  0.2504 -0.0224 -0.1046
  915MOL0     C23456   6.806   3.509   6.390  0.3147  0.2586  1.1499
  915MOL0     C23457   6.674   3.480   6.442 -0.4450 -0.1392  0.1719
  915MOL0     H23458   6.372   3.287   6.758  1.6719 -0.0271 -3.1649
  915MOL0     H23459   6.140   3.281   6.888 -1.6450  0.5835  1.1703
  915MOL0     H23460   5.755   3.297   6.849  0.2471  1.6357 -0.6816
  915MOL0     H23461   5.906   3.207   6.880 -1.2269 -0.4559 -0.3695
  915MOL0     H23462   5.980   3.390   7.021 -0.8654 -3.9538  1.2456
  915MOL0     H23463   5.869   3.502   6.939  0.3622  0.6054  0.6368
  915MOL0     H23464   5.764   3.483   7.147 -0.0062 -0.3516  0.1370
  915MOL0     H23465   5.676   3.360   7.042  0.6043 -0.7035 -2.3769
  915MOL0     H23466   5.701   3.257   7.252  1.0612 -2.3942 -0.8193
  915MOL0     H23467   5.813   3.182   7.144 -0.5715  0.0626 -1.4324
  915MOL0     H23468   6.013   3.309   7.261  0.2733 -1.9325 -0.1340
  915MOL0     H23469   5.888   3.385   7.366 -1.9293 -2.2081  2.7410
  915MOL0     H23470   5.821   3.160   7.449  2.1105 -1.8234  2.6247
  915MOL0     H23471   5.926   3.082   7.349 -2.6716 -1.0924  1.5765
  915MOL0     H23472   6.117   3.234   7.450 -0.9843  1.1070 -0.3594
  915MOL0     H23473   5.999   3.276   7.577 -0.6077 -0.8049  0.8208
  915MOL0     H23474   6.153   3.095   7.646  1.0734 -1.2548 -0.9172
  915MOL0     H23475   6.086   2.991   7.525  0.6355  0.5083  0.3430
  915MOL0     H23476   5.815   2.932   7.544  4.8005 -0.5850 -1.4445
  915MOL0     H23477   5.641   2.799   7.708  0.0683  0.3869 -0.1461
  915MOL0     H23478   5.588   2.899   7.843 -0.3829  0.9088 -0.6699
  915MOL0     H23479   5.442   2.911   7.654  1.5617 -1.8159 -5.2449
  915MOL0     H23480   5.557   2.949   7.545  0.7995  1.4307 -0.3844
  915MOL0     H23481   5.463   3.163   7.595 -3.2991 -1.1056  1.3386
  915MOL0     H23482   5.614   3.163   7.695  0.3697 -1.0343  0.3800
  915MOL0     H23483   5.400   3.256   7.822 -2.5257 -2.2439  1.1494
  915MOL0     H23484   5.481   3.117   7.897 -1.6083 -1.0795  1.4658
  915MOL0     H23485   5.247   3.307   7.687 -1.2691  0.8341 -2.1806
  915MOL0     H23486   4.972   3.430   7.521 -0.3323  1.4855 -2.0603
  915MOL0     H23487   5.152   3.434   7.520 -1.1836  0.8795 -1.3976
  915MOL0     H23488   5.069   3.341   7.398  2.6169 -0.0471  1.1474
  915MOL0     H23489   4.760   3.324   7.184 -0.0158  0.2272  0.5072
  915MOL0     H23490   4.554   3.329   7.079 -0.5762  0.3026 -0.2541
  915MOL0     H23491   4.219   3.098   7.252  0.3340  0.4511  0.7498
  915MOL0     H23492   4.172   3.245   7.332  0.6541  2.6762 -0.0678
  915MOL0     H23493   4.074   3.328   7.106 -0.2255 -0.8031  0.4514
  915MOL0     H23494   4.109   3.167   7.042  0.5972  0.1025  0.4413
  915MOL0     H23495   3.935   3.228   7.296 -3.4549 -5.0471  2.3217
  915MOL0     H23496   3.983   3.075   7.232  0.9253  0.0379 -1.1238
  915MOL0     H23497   3.797   3.280   7.132  0.6264 -0.3844 -0.4561
  915MOL0     H23498   3.866   3.179   7.007  0.0971  0.8494 -0.2333
  915MOL0     H23499   3.752   3.044   7.247  1.1172  1.3416 -0.0217
  915MOL0     H23500   3.783   2.981   7.086  0.2589  0.3634 -0.6079
  915MOL0     H23501   3.589   3.207   7.122  0.8176 -0.0718  1.2778
  915MOL0     H23502   3.605   3.100   6.988  1.0417 -1.7424 -0.1035
  915MOL0     H23503   3.521   2.985   7.267 -0.4360  0.9198  0.1536
  915MOL0     H23504   3.536   2.898   7.112 -0.9022 -0.2849  0.6547
  915MOL0     H23505   3.348   3.018   7.026  2.3890 -1.1464 -0.0404
  915MOL0     H23506   3.370   3.154   7.141 -0.1336 -0.1927  2.0095
  915MOL0     H23507   4.350   3.210   7.443 -1.8901  1.0023 -1.7210
  915MOL0     H23508   4.551   3.240   7.563  1.0818 -0.3248 -0.3125
  915MOL0     H23509   4.943   2.926   7.611  0.4999 -0.9393 -0.0621
  915MOL0     H23510   5.128   2.897   7.743 -0.8137  0.1000  0.3300
  915MOL0     H23511   5.971   3.433   6.521  0.7286 -1.9908 -1.3645
  915MOL0     H23512   6.190   3.522   6.454 -1.4775  0.0890 -0.7193
  915MOL0     H23513   6.639   3.774   6.618  0.9560 -1.4592  2.7542
  915MOL0     H23514   6.865   3.807   6.536  3.3222 -0.9170 -2.9492
  915MOL0     H23515   7.190   3.601   6.320  0.4912  0.0443  2.6728
  915MOL0     H23516   7.078   3.469   6.348  0.3229 -0.1130  1.0472
  915MOL0     H23517   7.084   3.651   6.109 -1.7019  0.7913  0.5301
  915MOL0     H23518   6.940   3.563   6.150 -0.2829 -2.3921 -0.9000
  915MOL0     H23519   7.227   3.433   6.100  0.0149 -1.3984 -2.3352
  915MOL0     H23520   7.110   3.451   5.980 -0.6266  0.8359 -0.3887
  915MOL0     H23521   6.966   3.302   6.170  0.0255 -0.3536  0.8086
  915MOL0     H23522   7.124   3.262   6.232 -0.4600 -3.0904 -0.4615
  915MOL0     H23523   7.111   3.027   5.900 -1.5375 -1.7772  1.4258
  915MOL0     H23524   6.844   3.422   6.337  1.1789  0.4313  1.4802
  915MOL0     H23525   6.640   3.377   6.441  3.4606 -1.6018  1.2950
  916MOL0     O23526   9.198   8.754   4.650 -0.6473  0.4184 -0.2338
  916MOL0     C23527   9.299   8.788   4.711 -0.1790  0.4728  0.1899
  916MOL0     O23528   9.303   8.809   4.850 -0.7738 -0.2167  0.4990
  916MOL0     C23529   9.186   8.776   4.912  0.5004 -0.9614  0.3558
  916MOL0     C23530   9.086   8.861   4.928 -0.6451 -0.1277 -0.4057
  916MOL0     C23531   8.974   8.824   5.003  0.1418 -0.5812  0.3405
  916MOL0     C23532   8.973   8.708   5.078 -0.2446 -0.3169  0.4946
  916MOL0     O23533   8.855   8.681   5.144 -0.6509 -0.8980  0.0415
  916MOL0     C23534   8.863   8.604   5.266 -0.3645 -0.2372 -0.5835
  916MOL0     C23535   8.729   8.633   5.333 -0.4237  0.4108  0.2835
  916MOL0     C23536   8.619   8.557   5.258 -0.8841 -0.1625  0.7268
  916MOL0     C23537   8.499   8.573   5.348  0.9173  0.5601  0.6410
  916MOL0     C23538   8.382   8.488   5.289  0.0250 -0.9334 -0.1928
  916MOL0     C23539   8.246   8.523   5.357  0.4047  0.0440  0.5874
  916MOL0     C23540   8.127   8.451   5.286 -0.8861 -0.2749 -0.4535
  916MOL0     C23541   8.013   8.467   5.383 -0.3753 -0.1002  0.2057
  916MOL0     N23542   7.891   8.425   5.318  0.3407 -0.3886 -0.2818
  916MOL0     C23543   7.842   8.485   5.200  0.2869  0.0734 -0.0043
  916MOL0     C23544   7.729   8.409   5.176  0.2647 -0.1986 -0.2840
  916MOL0     C23545   7.656   8.408   5.050  0.5335 -0.0224 -0.6050
  916MOL0     C23546   7.512   8.452   5.059  0.1417  0.3449 -0.4372
  916MOL0     C23547   7.479   8.559   5.165  0.3010  0.5892  0.1554
  916MOL0     C23548   7.331   8.604   5.167  0.2177 -0.4095 -0.8396
  916MOL0     O23549   7.261   8.524   5.261  0.0468 -0.3124 -0.4342
  916MOL0     C23550   7.130   8.546   5.266  0.6229  0.1655  0.7906
  916MOL0     C23551   7.054   8.666   5.232  0.4241 -0.5578  1.0380
  916MOL0     C23552   6.914   8.678   5.228 -0.1513  0.1777  0.1101
  916MOL0     C23553   6.852   8.815   5.211 -0.7921  0.6702  0.1545
  916MOL0     C23554   6.839   8.564   5.262 -0.1439  1.0290 -0.0104
  916MOL0     C23555   6.691   8.562   5.258  0.7550 -0.2311  0.8770
  916MOL0     O23556   6.621   8.475   5.340  0.3779  0.4894 -0.0157
  916MOL0     C23557   6.493   8.442   5.298  0.0881  0.9801 -0.2528
  916MOL0     C23558   6.481   8.323   5.230 -0.3594 -0.8916  0.4057
  916MOL0     C23559   6.351   8.297   5.183  0.3786 -0.0757  0.3680
  916MOL0     C23560   6.236   8.377   5.200 -0.4812 -0.0941  0.8071
  916MOL0     O23561   6.103   8.347   5.165 -0.3210  0.0415 -0.0145
  916MOL0     C23562   6.080   8.228   5.092  0.2434  0.0652 -0.5142
  916MOL0     C23563   5.941   8.247   5.031  0.2380 -0.2493 -0.6021
  916MOL0     C23564   5.824   8.230   5.141 -0.7296 -0.5055 -0.1419
  916MOL0     C23565   5.690   8.218   5.080  0.9123  0.6049  0.3418
  916MOL0     C23566   5.574   8.203   5.190 -0.5902 -0.0285 -0.2005
  916MOL0     C23567   5.446   8.153   5.127 -0.0147 -0.9034 -0.7961
  916MOL0     C23568   5.367   8.123   5.251  0.7594  0.7173 -0.4661
  916MOL0     C23569   5.222   8.086   5.220 -0.0890 -0.6842 -0.0707
  916MOL0    Cl23570   5.120   8.078   5.370 -0.0076  0.0922 -0.2642
  916MOL0     C23571   6.258   8.501   5.274 -0.5553 -0.5070  0.4521
  916MOL0     C23572   6.388   8.534   5.314 -0.3664  0.0869  0.1425
  916MOL0     O23573   6.641   8.629   5.166  0.3197 -0.1428  0.1775
  916MOL0     C23574   6.905   8.453   5.305  0.0825  0.3422  0.1647
  916MOL0     C23575   7.047   8.442   5.303  0.3229  0.2310  0.0034
  916MOL0     N23576   7.707   8.322   5.282  0.4920 -0.9793 -0.0356
  916MOL0     N23577   7.802   8.340   5.371 -0.0683  0.2993  0.6686
  916MOL0     C23578   9.081   8.621   5.069 -0.4230  0.7770  0.6302
  916MOL0     C23579   9.188   8.660   4.981 -0.1253  0.0593 -0.2036
  916MOL0     C23580   9.435   8.808   4.639 -0.2815  0.6626  0.7402
  916MOL0     C23581   9.451   8.766   4.510 -0.1024 -0.7346  0.0369
  916MOL0     C23582   9.577   8.762   4.449 -0.4642 -0.6477 -0.0132
  916MOL0     C23583   9.687   8.814   4.513  0.0157  0.5473  1.2379
  916MOL0     O23584   9.808   8.815   4.458  0.2510  0.5145 -0.1165
  916MOL0     C23585   9.827   8.714   4.351  0.6553 -0.0345 -0.3061
  916MOL0     C23586   9.976   8.686   4.335  0.2100  0.5116  0.6063
  916MOL0     C23587  10.030   8.772   4.219 -0.1022  0.1696  0.2262
  916MOL0     C23588  10.182   8.756   4.188 -0.1785 -0.4298  0.0019
  916MOL0     C23589  10.218   8.813   4.055  0.5331  0.8379  0.5422
  916MOL0     C23590  10.257   8.869   3.956  0.0390  0.1494 -0.3282
  916MOL0     C23591   9.673   8.866   4.637  0.3759  0.4992 -0.3846
  916MOL0     C23592   9.552   8.859   4.704  0.7746 -0.2371  0.6931
  916MOL0     H23593   9.064   8.951   4.870  1.0099  1.8123  1.8036
  916MOL0     H23594   8.885   8.884   5.017  1.8398  2.1825  0.1415
  916MOL0     H23595   8.885   8.500   5.243  2.5970 -0.3267  2.0430
  916MOL0     H23596   8.944   8.650   5.324  0.3323 -0.0625 -1.6620
  916MOL0     H23597   8.726   8.606   5.440 -1.2550  0.7673  0.3589
  916MOL0     H23598   8.708   8.740   5.333 -1.0997  0.4054 -3.8457
  916MOL0     H23599   8.594   8.606   5.164  3.4557  0.0096 -0.5162
  916MOL0     H23600   8.651   8.453   5.245 -0.3176  0.2273 -1.2134
  916MOL0     H23601   8.517   8.534   5.448 -2.7169 -0.3425  1.1055
  916MOL0     H23602   8.463   8.676   5.355 -0.9803 -0.0134  0.0146
  916MOL0     H23603   8.371   8.495   5.181 -1.5295 -2.7169 -0.1786
  916MOL0     H23604   8.406   8.383   5.305 -3.3208 -1.8172 -0.3586
  916MOL0     H23605   8.246   8.487   5.461 -1.3164 -1.8231  0.0150
  916MOL0     H23606   8.222   8.629   5.371  0.5059  0.5155 -2.2816
  916MOL0     H23607   8.105   8.502   5.192  0.1835 -0.4447 -0.8128
  916MOL0     H23608   8.160   8.346   5.284  3.7930  0.8595  1.8235
  916MOL0     H23609   8.004   8.573   5.412 -2.4674  1.2305 -4.3981
  916MOL0     H23610   8.021   8.399   5.468 -1.2872  1.4082  1.5864
  916MOL0     H23611   7.892   8.548   5.127 -0.4972 -0.8805 -1.4240
  916MOL0     H23612   7.722   8.475   4.994  1.5260  0.8051  1.4699
  916MOL0     H23613   7.661   8.313   4.996  0.2314 -1.4597  1.7569
  916MOL0     H23614   7.452   8.362   5.073 -1.8847  1.6062 -0.7076
  916MOL0     H23615   7.484   8.502   4.965 -0.3271  1.8702  0.4763
  916MOL0     H23616   7.543   8.647   5.150 -0.5894  1.4916  1.3365
  916MOL0     H23617   7.515   8.532   5.265  1.8451  2.3752  0.1371
  916MOL0     H23618   7.303   8.587   5.062 -0.1442 -1.9426 -0.5246
  916MOL0     H23619   7.340   8.711   5.189 -0.5103 -0.4774 -0.1850
  916MOL0     H23620   7.109   8.752   5.195 -0.4706  0.1505  1.3243
  916MOL0     H23621   6.758   8.833   5.263  0.3375  0.1655  2.4844
  916MOL0     H23622   6.925   8.886   5.250  0.8470  0.6542 -2.5864
  916MOL0     H23623   6.833   8.825   5.103  0.9157  1.0037 -0.1424
  916MOL0     H23624   6.567   8.258   5.217  2.5357  2.2793  2.2089
  916MOL0     H23625   6.340   8.211   5.118 -0.3394  0.6724 -0.5352
  916MOL0     H23626   6.143   8.227   5.003 -0.5085 -2.2745 -1.0726
  916MOL0     H23627   6.086   8.142   5.159  3.3803 -0.4131 -1.2751
  916MOL0     H23628   5.943   8.343   4.979 -1.9141 -0.3154 -0.8884
  916MOL0     H23629   5.945   8.170   4.954  1.5467  0.1625 -0.9867
  916MOL0     H23630   5.828   8.323   5.199  0.2215  0.3079 -1.4479
  916MOL0     H23631   5.847   8.137   5.195  1.2754  0.1793  0.3063
  916MOL0     H23632   5.668   8.308   5.021 -0.3891  0.4064  0.4874
  916MOL0     H23633   5.668   8.127   5.024 -0.6296 -0.4934  2.5599
  916MOL0     H23634   5.553   8.296   5.243 -0.7415  0.0816 -0.4486
  916MOL0     H23635   5.614   8.142   5.271 -2.2689  0.9902  1.4786
  916MOL0     H23636   5.394   8.231   5.071  0.0844 -1.5563 -1.8171
  916MOL0     H23637   5.465   8.070   5.058  1.9481  0.4237 -1.9739
  916MOL0     H23638   5.358   8.211   5.315  3.1393  0.4120  0.4046
  916MOL0     H23639   5.414   8.044   5.311 -0.1870  1.8913  1.9764
  916MOL0     H23640   5.212   7.989   5.171 -2.1687 -0.7017  0.2968
  916MOL0     H23641   5.171   8.152   5.150 -1.4351 -1.6084 -0.0081
  916MOL0     H23642   6.184   8.579   5.289  1.9476  1.8284  1.5362
  916MOL0     H23643   6.411   8.620   5.375  1.5433 -2.6683  3.7048
  916MOL0     H23644   6.852   8.363   5.335  2.9253 -1.4008  0.3460
  916MOL0     H23645   7.092   8.346   5.325 -1.9167 -1.0909 -0.8578
  916MOL0     H23646   9.082   8.525   5.119 -1.9895  0.1057 -0.5539
  916MOL0     H23647   9.268   8.586   4.977 -1.4917 -1.4474 -0.9754
  916MOL0     H23648   9.362   8.728   4.460 -2.1724  1.9166  1.4673
  916MOL0     H23649   9.577   8.736   4.343  1.3092 -1.1605  0.0812
  916MOL0     H23650   9.773   8.624   4.381  1.0340 -0.4269 -0.7848
  916MOL0     H23651   9.788   8.748   4.254 -1.9643  2.0158  1.3144
  916MOL0     H23652   9.993   8.580   4.310 -0.0264  1.3410 -3.9108
  916MOL0     H23653  10.025   8.709   4.430 -0.1863 -0.4152  1.0503
  916MOL0     H23654  10.016   8.878   4.244 -1.4409  0.6142 -2.1153
  916MOL0     H23655   9.970   8.752   4.130 -0.6918 -1.2987  0.9172
  916MOL0     H23656  10.210   8.650   4.190 -1.4546 -0.8959  4.7233
  916MOL0     H23657  10.237   8.813   4.264 -0.3342  0.2787 -0.4109
  916MOL0     H23658  10.292   8.911   3.863 -1.9702  1.7607 -0.4191
  916MOL0     H23659   9.762   8.914   4.676 -0.4807  1.0097  1.0522
  916MOL0     H23660   9.548   8.889   4.808 -2.2413  0.6277  0.4245
  917MOL0     O23661   0.934   7.284  10.374  0.7513 -0.1836  0.1637
  917MOL0     C23662   0.973   7.249  10.488 -0.5011 -0.9886  0.0082
  917MOL0     O23663   0.894   7.206  10.592 -0.0014 -0.0592 -0.5130
  917MOL0     C23664   0.767   7.257  10.614 -0.3507 -0.8575  0.5482
  917MOL0     C23665   0.657   7.181  10.594 -0.4986  0.2362  0.4986
  917MOL0     C23666   0.535   7.243  10.604  0.4504  0.4585  0.3967
  917MOL0     C23667   0.517   7.373  10.646 -0.1236 -0.3497  0.0206
  917MOL0     O23668   0.406   7.450  10.669 -0.0358 -0.5450 -0.6066
  917MOL0     C23669   0.300   7.415  10.583  0.5423 -0.3136  0.3541
  917MOL0     C23670   0.174   7.497  10.625 -0.5015  0.3766  0.4217
  917MOL0     C23671   0.055   7.418  10.573 -0.2699  0.3191  0.2433
  917MOL0     C23672  -0.073   7.489  10.631 -0.2573  0.4921  0.0736
  917MOL0     C23673  -0.203   7.422  10.587 -0.6981 -0.7269 -0.2147
  917MOL0     C23674  -0.323   7.519  10.608  0.3996  0.5138 -0.4516
  917MOL0     C23675  -0.454   7.477  10.542 -0.9364  0.2055  0.1718
  917MOL0     C23676  -0.553   7.388  10.617 -0.3723 -0.8391 -0.0468
  917MOL0     N23677  -0.497   7.271  10.683 -0.3908 -0.4351 -0.6660
  917MOL0     C23678  -0.479   7.149  10.619 -1.1445  0.2574 -0.0261
  917MOL0     C23679  -0.417   7.080  10.711  0.2945 -0.1333  1.0245
  917MOL0     C23680  -0.379   6.934  10.693 -0.0916 -0.0747  0.1980
  917MOL0     C23681  -0.235   6.911  10.732  0.2942  0.4079 -0.0336
  917MOL0     C23682  -0.138   6.972  10.618  0.1331  0.1303 -0.1741
  917MOL0     C23683   0.005   6.944  10.638 -0.4677  0.8929  0.0280
  917MOL0     O23684   0.068   6.971  10.505  0.5255  0.1408  0.1728
  917MOL0     C23685   0.194   6.933  10.509 -0.7557  0.0301 -0.2485
  917MOL0     C23686   0.247   6.912  10.380 -0.5969  0.3922 -0.1333
  917MOL0     C23687   0.378   6.861  10.356  0.6719 -0.7090 -0.6501
  917MOL0     C23688   0.410   6.816  10.222  0.6042 -0.3085 -0.3542
  917MOL0     C23689   0.471   6.862  10.461  0.3108 -0.2797 -0.1277
  917MOL0     C23690   0.614   6.822  10.456  0.1690  0.3611  0.2189
  917MOL0     O23691   0.681   6.826  10.576 -0.4992  0.0659 -0.2689
  917MOL0     C23692   0.820   6.817  10.576  0.0348  0.0173 -0.0344
  917MOL0     C23693   0.906   6.889  10.494 -0.4983 -0.2392  0.0512
  917MOL0     C23694   1.050   6.884  10.522  0.4788 -0.2303  0.5895
  917MOL0     C23695   1.107   6.807  10.622  0.3224 -0.7820 -0.0782
  917MOL0     O23696   1.244   6.801  10.638 -0.1106 -0.5736 -0.3577
  917MOL0     C23697   1.316   6.780  10.516 -1.5484 -0.2800 -0.2018
  917MOL0     C23698   1.458   6.731  10.542  0.5879 -0.1539 -0.1039
  917MOL0     C23699   1.523   6.696  10.404 -0.5424  0.3736 -0.5282
  917MOL0     C23700   1.654   6.622  10.435  0.5266 -0.4650 -0.0077
  917MOL0     C23701   1.760   6.637  10.316  0.7517  0.5210 -0.1701
  917MOL0     C23702   1.833   6.770  10.324 -0.3356  0.3910 -0.6102
  917MOL0     C23703   1.899   6.805  10.189  0.5121 -0.2938  0.0072
  917MOL0     C23704   2.016   6.720  10.161 -0.7360  0.4963 -0.5350
  917MOL0    Cl23705   2.151   6.749  10.273  0.1797  0.2349 -0.4164
  917MOL0     C23706   1.014   6.737  10.695 -0.9458  0.4081  0.5363
  917MOL0     C23707   0.878   6.742  10.674 -0.5354 -0.0492  0.0079
  917MOL0     O23708   0.665   6.789  10.348  0.4767 -0.4680 -0.2081
  917MOL0     C23709   0.423   6.898  10.593  0.0934 -0.1767  0.0444
  917MOL0     C23710   0.285   6.910  10.612 -0.1938  0.3717  1.1764
  917MOL0     N23711  -0.390   7.153  10.826 -0.7099 -0.1508  0.2509
  917MOL0     N23712  -0.439   7.271  10.810 -0.1056  1.0736 -0.0388
  917MOL0     C23713   0.623   7.447  10.680  0.1675 -0.7630 -1.0262
  917MOL0     C23714   0.753   7.391  10.659 -0.2019  0.5450  0.2408
  917MOL0     C23715   1.122   7.220  10.495 -0.6453  0.1897 -0.0694
  917MOL0     C23716   1.195   7.216  10.377 -1.5918 -0.0969 -0.1596
  917MOL0     C23717   1.334   7.183  10.378  0.8886 -0.3543 -0.0697
  917MOL0     C23718   1.404   7.181  10.500 -0.1239  0.0623 -0.0210
  917MOL0     O23719   1.534   7.161  10.528 -0.4464  0.1636  0.3025
  917MOL0     C23720   1.621   7.117  10.423  0.1877  0.4256  0.4122
  917MOL0     C23721   1.715   7.232  10.410 -0.5541  0.1468  0.5999
  917MOL0     C23722   1.837   7.184  10.325  0.7412 -0.5645  0.1334
  917MOL0     C23723   1.944   7.123  10.403  0.1012 -0.0555  0.0305
  917MOL0     C23724   2.077   7.138  10.341  0.6060  0.4319 -0.2798
  917MOL0     C23725   2.183   7.120  10.287  0.0207  0.5487 -0.3929
  917MOL0     C23726   1.321   7.181  10.615 -0.9529 -0.8716 -0.0291
  917MOL0     C23727   1.192   7.192  10.616  0.8853  0.2155  0.0899
  917MOL0     H23728   0.674   7.075  10.575 -1.5230  0.3585 -1.3356
  917MOL0     H23729   0.444   7.187  10.589 -0.5631  1.8078  1.2335
  917MOL0     H23730   0.335   7.443  10.483 -1.7656 -0.0465 -0.4501
  917MOL0     H23731   0.271   7.309  10.590 -1.9394  0.2533 -0.1542
  917MOL0     H23732   0.181   7.514  10.733  1.0792 -2.9462  0.9589
  917MOL0     H23733   0.172   7.590  10.568  0.0086  0.5904  0.7518
  917MOL0     H23734   0.052   7.421  10.464  2.2799  2.6414  0.1352
  917MOL0     H23735   0.059   7.316  10.612  0.5596  0.4278  0.4524
  917MOL0     H23736  -0.063   7.489  10.740  3.3865  1.1108 -0.1586
  917MOL0     H23737  -0.081   7.592  10.594  1.0610 -0.3921 -2.9635
  917MOL0     H23738  -0.197   7.392  10.482 -4.5890  0.2901 -0.8866
  917MOL0     H23739  -0.226   7.331  10.643  0.7478  0.6284  2.8489
  917MOL0     H23740  -0.339   7.533  10.715  1.0713  2.5591 -0.5708
  917MOL0     H23741  -0.298   7.621  10.577 -4.6365  1.7181 -1.4163
  917MOL0     H23742  -0.505   7.570  10.514  0.1248  1.0800  1.0616
  917MOL0     H23743  -0.434   7.431  10.444 -1.5690  0.2718  0.0003
  917MOL0     H23744  -0.631   7.356  10.548 -0.3510 -1.9965  0.4513
  917MOL0     H23745  -0.603   7.450  10.692 -0.8390 -1.7967  0.4411
  917MOL0     H23746  -0.510   7.101  10.527  1.2686 -4.0091  1.1131
  917MOL0     H23747  -0.444   6.869  10.752 -0.0718  2.2258  2.9402
  917MOL0     H23748  -0.386   6.898  10.590  0.7651  0.3621 -0.0278
  917MOL0     H23749  -0.220   6.804  10.744 -0.6491  0.2711  0.0355
  917MOL0     H23750  -0.207   6.957  10.827  2.6090 -0.8790 -0.0266
  917MOL0     H23751  -0.150   7.081  10.607  1.0074  0.1343 -1.1600
  917MOL0     H23752  -0.163   6.925  10.523 -0.1289 -0.2391  0.0755
  917MOL0     H23753   0.018   6.837  10.661 -0.8152  1.2871  2.2997
  917MOL0     H23754   0.055   6.993  10.722  0.0103  1.1837 -0.4199
  917MOL0     H23755   0.184   6.930  10.294 -1.8864 -0.8650  0.5155
  917MOL0     H23756   0.320   6.823  10.159  0.9880 -1.5860 -1.0957
  917MOL0     H23757   0.478   6.888  10.176  0.7513  0.3871  0.9197
  917MOL0     H23758   0.458   6.717  10.215  3.2740  0.9448 -1.0975
  917MOL0     H23759   0.853   6.967  10.441  0.1280 -0.0417 -0.2915
  917MOL0     H23760   1.116   6.955  10.474  1.3094 -1.5852 -0.3503
  917MOL0     H23761   1.264   6.707  10.453 -0.1765 -0.3796 -1.2680
  917MOL0     H23762   1.332   6.868  10.452  2.3233 -0.2558  0.5732
  917MOL0     H23763   1.521   6.798  10.601 -0.6190 -1.2545  2.6064
  917MOL0     H23764   1.448   6.642  10.605  1.6969  0.3835  0.8643
  917MOL0     H23765   1.544   6.788  10.349  0.0960  0.6441  0.1451
  917MOL0     H23766   1.459   6.630  10.345  2.7224 -4.0127  0.3521
  917MOL0     H23767   1.697   6.671  10.522  0.8498 -2.5582  1.0829
  917MOL0     H23768   1.628   6.521  10.468  0.5164 -0.1119  1.1056
  917MOL0     H23769   1.701   6.627  10.224 -0.0481 -1.3988  0.4934
  917MOL0     H23770   1.827   6.550  10.318 -1.8587 -1.7008  3.2259
  917MOL0     H23771   1.764   6.851  10.348  0.9534  1.7393 -1.2535
  917MOL0     H23772   1.909   6.758  10.401 -0.5874 -0.3945 -0.4755
  917MOL0     H23773   1.938   6.906  10.205 -0.9223  0.6922 -2.2552
  917MOL0     H23774   1.831   6.798  10.104 -0.4576  0.6037  0.6830
  917MOL0     H23775   2.047   6.731  10.057 -2.9286  0.1502 -1.2813
  917MOL0     H23776   1.992   6.614  10.172 -0.1726  0.0563 -3.1226
  917MOL0     H23777   1.044   6.658  10.763  0.5073  0.4535 -0.0207
  917MOL0     H23778   0.813   6.685  10.740  0.7557 -0.6391  0.8063
  917MOL0     H23779   0.474   6.897  10.689 -1.3153 -4.9585  1.0083
  917MOL0     H23780   0.264   6.929  10.717 -0.9658  1.1923  0.8890
  917MOL0     H23781   0.607   7.543  10.728 -0.4923  0.1814 -3.0430
  917MOL0     H23782   0.843   7.448  10.682  0.5785 -1.4253  2.3502
  917MOL0     H23783   1.152   7.217  10.277  0.5113  0.1006 -1.1014
  917MOL0     H23784   1.382   7.183  10.280  1.3174 -0.1774  0.1402
  917MOL0     H23785   1.671   7.029  10.466  1.1891  0.7056 -0.1499
  917MOL0     H23786   1.569   7.083  10.333  0.1136 -1.5630  1.1533
  917MOL0     H23787   1.756   7.273  10.503  1.8301  2.0020 -1.1216
  917MOL0     H23788   1.660   7.309  10.356 -0.9433 -0.7594 -0.3277
  917MOL0     H23789   1.874   7.280  10.287 -4.0314  2.2828  1.9117
  917MOL0     H23790   1.803   7.116  10.247 -3.8492  0.7089  0.7267
  917MOL0     H23791   1.914   7.018  10.410  0.5666 -0.1477  0.7042
  917MOL0     H23792   1.956   7.163  10.504 -1.0965 -2.1178  1.0398
  917MOL0     H23793   2.279   7.112  10.241  0.4130  1.1873  0.2805
  917MOL0     H23794   1.371   7.176  10.711  1.4188  0.3477 -1.1171
  917MOL0     H23795   1.134   7.191  10.708  0.4282 -0.9995 -0.1958
  918MOL0     O23796  10.741   8.767   7.085  0.3926 -0.2971 -0.2000
  918MOL0     C23797  10.833   8.849   7.060  0.8057 -0.3387 -0.4513
  918MOL0     O23798  10.817   8.961   6.996  0.2619 -0.4177 -0.2701
  918MOL0     C23799  10.699   8.977   6.924  0.2482 -0.3758 -0.2991
  918MOL0     C23800  10.628   9.098   6.925 -0.3718  0.4783 -0.3542
  918MOL0     C23801  10.504   9.101   6.864  1.1655 -0.3497 -0.5706
  918MOL0     C23802  10.459   8.999   6.780 -0.0069 -0.1955 -0.2755
  918MOL0     O23803  10.333   9.005   6.715 -0.6124  0.5023  0.2196
  918MOL0     C23804  10.304   8.923   6.600 -0.5680  0.0582  0.0993
  918MOL0     C23805  10.394   8.966   6.476 -0.0752  0.1391 -0.2339
  918MOL0     C23806  10.372   9.109   6.437  0.1059  0.3322  0.8453
  918MOL0     C23807  10.471   9.163   6.323  0.8009  0.3879  0.2077
  918MOL0     C23808  10.444   9.088   6.191 -0.3908  1.0786 -0.3739
  918MOL0     C23809  10.322   9.142   6.124  0.3231  0.0898 -0.5576
  918MOL0     C23810  10.297   9.101   5.974 -0.4264  0.9951 -1.2264
  918MOL0     C23811  10.343   9.195   5.866 -0.5180 -0.2303  0.5368
  918MOL0     N23812  10.481   9.233   5.896  0.2455  0.5597  0.1943
  918MOL0     C23813  10.527   9.339   5.970 -0.6446 -0.0985 -1.0923
  918MOL0     C23814  10.660   9.331   5.961 -0.1832 -0.7499 -0.2624
  918MOL0     C23815  10.765   9.419   6.029  0.7836  0.5365  1.1362
  918MOL0     C23816  10.757   9.406   6.185 -0.3310 -0.2664  0.3776
  918MOL0     C23817  10.801   9.269   6.250  0.2818 -0.5272  0.3709
  918MOL0     C23818  10.944   9.239   6.223 -0.4939  0.4105  0.7746
  918MOL0     O23819  11.031   9.341   6.267  0.1326 -0.6101 -0.1629
  918MOL0     C23820  11.164   9.313   6.252  0.3451  0.5729 -0.5661
  918MOL0     C23821  11.239   9.409   6.317 -0.3816  0.4950  0.3778
  918MOL0     C23822  11.380   9.410   6.315  0.3661  1.3128 -0.6376
  918MOL0     C23823  11.446   9.503   6.417 -0.1551 -0.1885  0.4485
  918MOL0     C23824  11.445   9.292   6.264 -0.2450 -0.0316  0.5172
  918MOL0     C23825  11.600   9.279   6.256 -0.1351  0.2557  0.3843
  918MOL0     O23826  11.678   9.326   6.355  0.4969  0.2416  0.3214
  918MOL0     C23827  11.788   9.259   6.392  0.6514 -0.1370  0.3584
  918MOL0     C23828  11.810   9.123   6.390  0.2750  0.1069 -0.2404
  918MOL0     C23829  11.939   9.071   6.425 -0.3954 -0.3273 -0.4782
  918MOL0     C23830  12.038   9.154   6.471  0.2315 -1.0972  0.2486
  918MOL0     O23831  12.167   9.107   6.493  0.4258 -0.3661  0.0217
  918MOL0     C23832  12.187   8.973   6.521  0.9554 -0.1314 -0.2794
  918MOL0     C23833  12.311   8.968   6.607  0.9276 -0.2771  0.3529
  918MOL0     C23834  12.443   8.996   6.541  0.0626 -0.3217  0.2933
  918MOL0     C23835  12.558   9.064   6.622  0.8287 -0.4485  0.6857
  918MOL0     C23836  12.598   8.959   6.721  0.3225 -0.0906 -0.1019
  918MOL0     C23837  12.720   8.994   6.798 -0.3117 -0.7007  0.0132
  918MOL0     C23838  12.747   8.879   6.898 -0.5162 -0.0972  0.0462
  918MOL0     C23839  12.884   8.888   6.957  0.1632  0.0044 -0.4738
  918MOL0    Cl23840  12.907   9.051   7.022 -0.2029  0.2988 -0.2688
  918MOL0     C23841  12.013   9.293   6.470 -0.7205  0.1567  0.2099
  918MOL0     C23842  11.883   9.348   6.436 -0.9015  0.4592  0.1423
  918MOL0     O23843  11.627   9.215   6.153 -0.7025  0.0679 -0.5710
  918MOL0     C23844  11.364   9.195   6.192 -0.8046 -0.4838 -0.4548
  918MOL0     C23845  11.227   9.200   6.198  0.3762 -0.1042  0.4984
  918MOL0     N23846  10.686   9.231   5.868 -0.1516 -0.9833 -0.6967
  918MOL0     N23847  10.578   9.186   5.824 -0.4431  0.3192 -0.3147
  918MOL0     C23848  10.529   8.879   6.785 -0.0727  0.1588  0.7990
  918MOL0     C23849  10.646   8.868   6.850  0.1506 -0.0258 -0.0020
  918MOL0     C23850  10.971   8.803   7.084 -0.3469  0.0645  0.0324
  918MOL0     C23851  10.993   8.665   7.097  0.6521 -0.0844 -0.2131
  918MOL0     C23852  11.118   8.623   7.123 -0.3756  0.1998 -0.2578
  918MOL0     C23853  11.229   8.709   7.117 -0.2669 -0.2215  0.0301
  918MOL0     O23854  11.364   8.670   7.139 -0.1363  0.3320 -0.1814
  918MOL0     C23855  11.393   8.544   7.198 -0.9825  0.2254 -0.7651
  918MOL0     C23856  11.347   8.542   7.342 -0.4409 -0.1006 -0.1525
  918MOL0     C23857  11.370   8.397   7.400 -0.0119 -0.0020  0.0754
  918MOL0     C23858  11.252   8.339   7.482 -0.5839  0.0032 -0.6005
  918MOL0     C23859  11.136   8.325   7.394 -0.0676 -0.2363 -0.3015
  918MOL0     C23860  11.051   8.308   7.312 -0.1382  0.6236 -0.2540
  918MOL0     C23861  11.207   8.840   7.087  0.2972 -0.4982 -0.2750
  918MOL0     C23862  11.080   8.892   7.068 -0.2474  0.2541  0.0448
  918MOL0     H23863  10.662   9.186   6.980  1.2879 -0.4340  0.1727
  918MOL0     H23864  10.442   9.189   6.879  2.1893  0.2592  0.2206
  918MOL0     H23865  10.324   8.819   6.627 -2.0227  0.1833  1.8232
  918MOL0     H23866  10.200   8.936   6.568 -0.3868 -1.0347 -0.9996
  918MOL0     H23867  10.501   8.952   6.494  0.2024  2.1287 -0.1578
  918MOL0     H23868  10.376   8.903   6.388 -0.6484  0.7329 -0.5429
  918MOL0     H23869  10.265   9.116   6.416  0.4357 -0.8810 -1.5165
  918MOL0     H23870  10.397   9.176   6.520 -0.7648  0.0576  1.3367
  918MOL0     H23871  10.471   9.272   6.309 -0.6208  0.2823 -0.8092
  918MOL0     H23872  10.574   9.136   6.347  0.6338 -0.5021 -0.0270
  918MOL0     H23873  10.533   9.108   6.130  0.0979  1.2357  0.3766
  918MOL0     H23874  10.447   8.979   6.202  0.0283  1.1707  0.4674
  918MOL0     H23875  10.231   9.106   6.174  0.7269  0.9720  0.8823
  918MOL0     H23876  10.329   9.251   6.135 -0.5104  0.2360 -1.3165
  918MOL0     H23877  10.348   9.007   5.948 -1.4212  0.1972 -0.4160
  918MOL0     H23878  10.193   9.077   5.948 -0.1783  0.5890 -1.8844
  918MOL0     H23879  10.280   9.284   5.858  2.5524  2.2268  1.6303
  918MOL0     H23880  10.338   9.142   5.770 -1.1477 -0.2861  0.5967
  918MOL0     H23881  10.462   9.388   6.042 -1.9376 -2.7613 -0.3107
  918MOL0     H23882  10.865   9.398   5.990  0.8542 -0.3057  1.7385
  918MOL0     H23883  10.744   9.525   6.017 -1.1445  0.0445 -0.4610
  918MOL0     H23884  10.653   9.426   6.213 -0.6770 -1.3060 -0.1004
  918MOL0     H23885  10.814   9.482   6.239  0.0573  1.8804 -2.7548
  918MOL0     H23886  10.731   9.194   6.211 -1.6211  0.9750  0.7167
  918MOL0     H23887  10.780   9.266   6.357 -0.3668 -1.4298  0.2399
  918MOL0     H23888  10.957   9.220   6.116  1.6802  1.4188  0.8005
  918MOL0     H23889  10.972   9.146   6.274  0.6514 -0.2716 -1.0127
  918MOL0     H23890  11.195   9.501   6.355  1.7447  2.0886 -0.7877
  918MOL0     H23891  11.387   9.594   6.432 -3.4130 -2.3070  1.5301
  918MOL0     H23892  11.452   9.444   6.509 -0.1343 -0.8597  0.0268
  918MOL0     H23893  11.545   9.535   6.384 -0.4893  3.0258  2.2141
  918MOL0     H23894  11.729   9.059   6.354 -1.4464  1.5441  0.8820
  918MOL0     H23895  11.952   8.963   6.420 -0.8358 -0.5524  2.0175
  918MOL0     H23896  12.109   8.932   6.586  1.2154 -1.7566 -0.9451
  918MOL0     H23897  12.207   8.914   6.431 -0.2337 -0.2548 -0.4817
  918MOL0     H23898  12.294   9.037   6.691  1.4563  0.0904  0.1652
  918MOL0     H23899  12.317   8.866   6.645  2.0863 -0.5209 -0.4152
  918MOL0     H23900  12.424   9.067   6.459  0.4703 -0.9359 -0.3444
  918MOL0     H23901  12.485   8.907   6.494  1.3929  0.5287 -0.2056
  918MOL0     H23902  12.638   9.100   6.557  0.5709  1.8014  1.5255
  918MOL0     H23903  12.516   9.152   6.672 -0.3497 -0.7490  0.2673
  918MOL0     H23904  12.614   8.861   6.674  1.1429  0.9689 -2.1411
  918MOL0     H23905  12.511   8.942   6.785  1.5594  2.6990  2.5599
  918MOL0     H23906  12.799   9.020   6.727  0.7102  0.2176  1.4307
  918MOL0     H23907  12.690   9.082   6.856 -1.6312 -1.6803  0.8850
  918MOL0     H23908  12.737   8.782   6.849  2.0188 -0.5748  0.3307
  918MOL0     H23909  12.668   8.886   6.973 -0.9878 -0.5608 -0.4051
  918MOL0     H23910  12.955   8.869   6.876  2.0552 -0.6361  1.2357
  918MOL0     H23911  12.885   8.808   7.031  0.8906 -3.6189 -4.0709
  918MOL0     H23912  12.092   9.356   6.509  0.0944  0.9169 -2.4805
  918MOL0     H23913  11.866   9.455   6.442 -7.5883 -0.2148  0.5312
  918MOL0     H23914  11.416   9.106   6.158  2.2803  0.5072  1.2781
  918MOL0     H23915  11.165   9.119   6.161  0.1302  0.9040 -1.4384
  918MOL0     H23916  10.501   8.791   6.728  2.1225 -0.9335  1.2744
  918MOL0     H23917  10.689   8.769   6.845 -3.2311 -1.7263  1.1146
  918MOL0     H23918  10.913   8.592   7.092  0.9439 -0.3299 -1.4707
  918MOL0     H23919  11.130   8.517   7.147 -0.1021  0.5024  1.0579
  918MOL0     H23920  11.342   8.461   7.148 -1.2078 -0.9398  1.2886
  918MOL0     H23921  11.501   8.530   7.198 -0.9110  0.6453 -2.0386
  918MOL0     H23922  11.240   8.562   7.345 -0.5257 -0.5485  2.3670
  918MOL0     H23923  11.392   8.614   7.411  0.1884 -0.8589  0.2443
  918MOL0     H23924  11.459   8.403   7.464 -0.1623  0.8792  0.2160
  918MOL0     H23925  11.389   8.328   7.318 -2.6752 -2.6150  1.4652
  918MOL0     H23926  11.229   8.402   7.568 -0.1704 -0.5328 -0.0827
  918MOL0     H23927  11.277   8.237   7.514  1.4527 -0.3205 -2.9300
  918MOL0     H23928  10.965   8.310   7.248  0.3886 -0.4179 -1.0338
  918MOL0     H23929  11.293   8.906   7.082  0.9566 -1.3599 -0.4978
  918MOL0     H23930  11.069   8.997   7.043  0.7597  0.4862  0.5253
  919MOL0     O23931   4.954   5.468   0.802  0.4067 -0.3249  0.0713
  919MOL0     C23932   4.970   5.348   0.773  0.8340 -0.2636 -0.0723
  919MOL0     O23933   4.868   5.262   0.733 -0.7475  1.1470 -0.3963
  919MOL0     C23934   4.745   5.315   0.764 -0.1641  0.0623  0.2122
  919MOL0     C23935   4.675   5.384   0.663  0.5142  0.6222  0.7704
  919MOL0     C23936   4.535   5.415   0.677 -0.1364  0.4154 -0.4841
  919MOL0     C23937   4.478   5.384   0.801 -0.5995 -0.7183 -0.2678
  919MOL0     O23938   4.343   5.401   0.822  0.3605 -0.4068  0.0407
  919MOL0     C23939   4.294   5.452   0.945 -0.6183 -0.3836  0.4294
  919MOL0     C23940   4.144   5.484   0.915 -0.2968 -0.2074 -0.8322
  919MOL0     C23941   4.093   5.560   1.035 -0.1691 -0.7655 -0.2584
  919MOL0     C23942   3.944   5.545   1.053  0.2112  0.5562  0.7918
  919MOL0     C23943   3.892   5.627   1.167  0.2584 -0.1531  0.8987
  919MOL0     C23944   3.736   5.609   1.162  0.0016 -0.4022 -0.3172
  919MOL0     C23945   3.658   5.714   1.247 -0.1901  0.4035 -0.9038
  919MOL0     C23946   3.663   5.674   1.391  0.3031  0.2164 -0.0495
  919MOL0     N23947   3.576   5.558   1.425  0.1093  0.7886  0.4215
  919MOL0     C23948   3.448   5.563   1.486 -0.1005 -0.8838  0.8350
  919MOL0     C23949   3.420   5.439   1.524 -0.4810  0.3788  0.5299
  919MOL0     C23950   3.306   5.396   1.612  1.2070 -0.2715  0.2554
  919MOL0     C23951   3.162   5.389   1.543  0.3543 -0.2309  0.6429
  919MOL0     C23952   3.098   5.517   1.500 -0.1275 -0.6338 -0.7714
  919MOL0     C23953   2.960   5.488   1.443  0.5619  0.3431 -0.0523
  919MOL0     O23954   2.902   5.617   1.425 -0.3315  0.6985 -0.2890
  919MOL0     C23955   2.784   5.621   1.363  0.9525 -0.1579  0.6090
  919MOL0     C23956   2.760   5.718   1.269 -1.4307  0.5099 -0.0987
  919MOL0     C23957   2.643   5.719   1.192 -0.3002  0.0419  0.3551
  919MOL0     C23958   2.622   5.835   1.101 -0.8326 -0.4435  0.0338
  919MOL0     C23959   2.541   5.621   1.211 -0.0572  0.2008 -0.1403
  919MOL0     C23960   2.408   5.616   1.138 -0.9075 -0.4750  0.4394
  919MOL0     O23961   2.319   5.520   1.183 -0.0756 -0.0763 -0.7477
  919MOL0     C23962   2.201   5.500   1.112 -0.3766  0.0416 -0.0498
  919MOL0     C23963   2.205   5.402   1.011 -0.0818  0.6641 -0.5121
  919MOL0     C23964   2.086   5.366   0.951  0.2924 -0.1117 -0.6891
  919MOL0     C23965   1.966   5.424   0.977  0.0131  0.0680 -0.0777
  919MOL0     O23966   1.861   5.393   0.904  0.0451  0.4702 -0.0476
  919MOL0     C23967   1.730   5.387   0.963  0.2691 -0.3020 -0.3679
  919MOL0     C23968   1.614   5.440   0.866 -0.1936  0.4169  0.1481
  919MOL0     C23969   1.475   5.410   0.923 -0.9006  0.3714  0.4597
  919MOL0     C23970   1.369   5.462   0.826 -0.3970  0.0908 -0.3382
  919MOL0     C23971   1.238   5.382   0.847 -0.2994  0.6387  0.0160
  919MOL0     C23972   1.123   5.429   0.753  0.0044  0.1598  0.3886
  919MOL0     C23973   1.004   5.330   0.769 -0.6633 -0.2830 -0.7685
  919MOL0     C23974   0.873   5.375   0.701  0.2938  0.4444 -1.0593
  919MOL0    Cl23975   0.895   5.417   0.528 -0.1560 -0.3378  0.2331
  919MOL0     C23976   1.969   5.530   1.073  0.3989  1.0011  0.0206
  919MOL0     C23977   2.084   5.566   1.142 -0.2369 -1.5806  0.4426
  919MOL0     O23978   2.393   5.694   1.041 -0.1356  0.9540 -0.7645
  919MOL0     C23979   2.561   5.531   1.314 -0.2679  0.3639 -0.2460
  919MOL0     C23980   2.679   5.532   1.390  0.2029 -0.1628  0.2016
  919MOL0     N23981   3.524   5.364   1.481  0.3958  0.4334 -0.4723
  919MOL0     N23982   3.616   5.427   1.421  0.3415 -0.2668 -0.9090
  919MOL0     C23983   4.547   5.325   0.908  0.5260  0.0259  0.2637
  919MOL0     C23984   4.686   5.292   0.891 -0.8819 -0.0518  0.0673
  919MOL0     C23985   5.110   5.300   0.796  0.1607  0.9430  0.4309
  919MOL0     C23986   5.221   5.384   0.783 -0.2733 -0.6360  0.9289
  919MOL0     C23987   5.349   5.333   0.788 -0.8956  0.3905 -0.3401
  919MOL0     C23988   5.368   5.196   0.792  0.2192 -0.0215 -0.6714
  919MOL0     O23989   5.489   5.157   0.766 -0.4492 -0.6860 -0.2240
  919MOL0     C23990   5.518   5.019   0.763 -0.3937  0.6763 -0.3032
  919MOL0     C23991   5.659   4.996   0.718  0.6634  0.1867 -0.1511
  919MOL0     C23992   5.764   5.107   0.756  0.1224 -0.6453 -0.0474
  919MOL0     C23993   5.889   5.108   0.666 -0.0686  0.3491  0.5522
  919MOL0     C23994   5.869   5.160   0.529  0.1653  0.6626 -0.4890
  919MOL0     C23995   5.846   5.207   0.426  0.8900  0.2411 -0.6977
  919MOL0     C23996   5.256   5.106   0.812 -0.6401  0.4031  0.4710
  919MOL0     C23997   5.135   5.164   0.821  0.9896 -0.1630 -0.0286
  919MOL0     H23998   4.731   5.397   0.571  2.2328  0.6179  1.7774
  919MOL0     H23999   4.472   5.453   0.597  0.3501 -0.4937 -1.3188
  919MOL0     H24000   4.307   5.376   1.023 -0.1492 -1.2960 -0.5232
  919MOL0     H24001   4.345   5.544   0.974 -1.2278  0.2380 -0.4159
  919MOL0     H24002   4.142   5.548   0.825 -0.8239  0.2180 -0.5275
  919MOL0     H24003   4.080   5.398   0.895 -1.9587 -0.1008  3.2406
  919MOL0     H24004   4.144   5.511   1.118 -1.0510 -0.2107  0.6392
  919MOL0     H24005   4.120   5.665   1.021  0.5894 -0.6640  1.5896
  919MOL0     H24006   3.897   5.587   0.964 -2.3084  0.5390  1.9965
  919MOL0     H24007   3.923   5.438   1.061  3.7674 -0.4194 -1.1562
  919MOL0     H24008   3.935   5.602   1.264  1.8215  0.5128  0.4219
  919MOL0     H24009   3.919   5.731   1.145 -2.4556  0.7550  1.5113
  919MOL0     H24010   3.704   5.614   1.058  1.0924 -1.6879 -0.7487
  919MOL0     H24011   3.708   5.505   1.184 -0.9643  0.1903  1.4264
  919MOL0     H24012   3.710   5.809   1.231  1.4470 -0.6536 -2.2113
  919MOL0     H24013   3.553   5.722   1.216  0.2611  1.0285 -2.3590
  919MOL0     H24014   3.632   5.764   1.446  3.3587 -0.2500  2.7167
  919MOL0     H24015   3.767   5.647   1.414  0.1004  0.1638  0.8348
  919MOL0     H24016   3.402   5.654   1.523  0.8211  0.4818 -1.1727
  919MOL0     H24017   3.314   5.301   1.667 -1.0311 -1.3223 -1.0861
  919MOL0     H24018   3.301   5.471   1.691  2.2920  0.6647 -0.5343
  919MOL0     H24019   3.092   5.349   1.617 -1.6655  0.3785 -0.8416
  919MOL0     H24020   3.161   5.327   1.453 -0.0411  2.1196 -1.0742
  919MOL0     H24021   3.156   5.569   1.424  1.8485 -2.6959 -0.7695
  919MOL0     H24022   3.079   5.578   1.589 -0.6358 -0.8870 -0.7020
  919MOL0     H24023   2.900   5.429   1.513 -1.1890  2.2008  0.1141
  919MOL0     H24024   2.971   5.434   1.349 -0.4360  1.7798 -1.0380
  919MOL0     H24025   2.839   5.782   1.233 -0.3349  0.6290  2.3506
  919MOL0     H24026   2.626   5.802   0.997  2.7585  2.9510 -1.1401
  919MOL0     H24027   2.528   5.888   1.119 -0.4990  0.4468 -0.7860
  919MOL0     H24028   2.701   5.910   1.105 -1.2602 -0.0385  1.6208
  919MOL0     H24029   2.295   5.346   0.989 -0.4557 -0.0369 -0.2683
  919MOL0     H24030   2.097   5.299   0.867 -4.0353 -1.8887 -0.0510
  919MOL0     H24031   1.707   5.287   1.000  0.2661 -1.0826 -2.3213
  919MOL0     H24032   1.719   5.461   1.042  1.0425  2.4933 -2.7131
  919MOL0     H24033   1.624   5.547   0.849 -0.0152  0.2181 -1.0493
  919MOL0     H24034   1.622   5.390   0.769  1.5275  1.0871 -0.0904
  919MOL0     H24035   1.461   5.433   1.029  0.5415  0.0358  0.7468
  919MOL0     H24036   1.461   5.302   0.913 -0.1590  0.3114  0.0417
  919MOL0     H24037   1.355   5.568   0.849  0.4409 -0.1495  1.4129
  919MOL0     H24038   1.405   5.453   0.723 -1.1963 -1.5095 -0.5056
  919MOL0     H24039   1.199   5.373   0.949 -0.1040 -2.3331 -0.0711
  919MOL0     H24040   1.259   5.282   0.807  0.2596  0.7211  0.0888
  919MOL0     H24041   1.086   5.531   0.758 -3.9030 -1.0994  0.4108
  919MOL0     H24042   1.165   5.422   0.652 -2.8832 -0.4490 -0.8666
  919MOL0     H24043   0.976   5.324   0.874 -3.7179  1.4084 -1.3854
  919MOL0     H24044   1.034   5.233   0.728 -1.6922 -2.4623  3.1725
  919MOL0     H24045   0.833   5.460   0.757 -1.2156 -0.2325 -1.0473
  919MOL0     H24046   0.801   5.293   0.705  0.4263  0.3922  0.8199
  919MOL0     H24047   1.886   5.599   1.087 -0.3224  0.4782 -1.4055
  919MOL0     H24048   2.082   5.648   1.213  0.0127 -3.4370  2.7269
  919MOL0     H24049   2.488   5.451   1.330  0.1653 -0.2239 -1.1272
  919MOL0     H24050   2.688   5.461   1.472 -2.1381  1.0535  1.6374
  919MOL0     H24051   4.505   5.288   1.001 -1.3827  1.2172 -0.0878
  919MOL0     H24052   4.747   5.229   0.954  3.3796  1.4219 -2.1898
  919MOL0     H24053   5.211   5.490   0.764 -1.9303 -1.1568 -1.7204
  919MOL0     H24054   5.435   5.399   0.783  0.2821 -1.1596 -3.8314
  919MOL0     H24055   5.512   4.985   0.866 -2.6810 -0.1611 -0.6677
  919MOL0     H24056   5.451   4.957   0.704  1.2198 -1.1143 -0.3546
  919MOL0     H24057   5.660   4.978   0.610 -0.2692  2.4079 -0.5728
  919MOL0     H24058   5.689   4.906   0.772  1.6993  1.1809  1.0116
  919MOL0     H24059   5.796   5.093   0.860 -1.9613 -1.5915  0.5251
  919MOL0     H24060   5.725   5.209   0.753  0.8591 -0.2566  1.9635
  919MOL0     H24061   5.915   5.002   0.660 -3.8654 -0.9582  3.3086
  919MOL0     H24062   5.964   5.167   0.721  0.0838 -0.9517  1.7780
  919MOL0     H24063   5.845   5.257   0.332  1.3607  1.8511  0.1149
  919MOL0     H24064   5.259   5.000   0.790  1.6471  0.5760 -0.3217
  919MOL0     H24065   5.054   5.098   0.848  2.2814 -1.8952 -0.2399
  920MOL0     O24066   6.600   9.733   8.220  0.6477  0.4164 -0.4367
  920MOL0     C24067   6.553   9.655   8.306 -0.5835 -0.2389  0.7013
  920MOL0     O24068   6.451   9.581   8.297 -0.2491  0.1887  0.2448
  920MOL0     C24069   6.386   9.562   8.175 -0.3677  0.5205  0.0232
  920MOL0     C24070   6.253   9.507   8.179 -0.1039  0.0343  0.7020
  920MOL0     C24071   6.186   9.461   8.063 -0.3924 -0.5680  0.7968
  920MOL0     C24072   6.248   9.467   7.941  0.0434 -0.7550  0.0359
  920MOL0     O24073   6.189   9.403   7.837 -0.2458 -0.2328 -0.3613
  920MOL0     C24074   6.044   9.420   7.820  1.0518  0.0370  0.5470
  920MOL0     C24075   6.019   9.459   7.672 -0.8734 -0.1747  0.1424
  920MOL0     C24076   5.870   9.471   7.648  0.4336 -0.3788  0.4895
  920MOL0     C24077   5.785   9.345   7.636 -0.0109 -0.6370  0.3433
  920MOL0     C24078   5.638   9.378   7.626 -0.4284  0.7069 -0.2191
  920MOL0     C24079   5.555   9.255   7.639  0.2911 -0.1127 -0.5200
  920MOL0     C24080   5.409   9.295   7.678 -0.4869  0.4191  0.2996
  920MOL0     C24081   5.340   9.327   7.552  0.1676 -0.2616 -0.8058
  920MOL0     N24082   5.201   9.365   7.571 -0.6326 -0.6891 -0.4630
  920MOL0     C24083   5.163   9.488   7.597 -0.3279 -0.2321  0.0505
  920MOL0     C24084   5.023   9.488   7.589  0.6112 -0.7901  0.3989
  920MOL0     C24085   4.941   9.610   7.619 -0.2689  0.4506  0.6429
  920MOL0     C24086   4.950   9.709   7.494 -0.2457 -0.1928  0.0651
  920MOL0     C24087   4.896   9.852   7.525 -0.1420  0.9842 -0.6518
  920MOL0     C24088   4.744   9.863   7.552  0.8194 -0.3724  0.5172
  920MOL0     O24089   4.715   9.998   7.528 -0.0119  0.7067 -0.3389
  920MOL0     C24090   4.580  10.029   7.534  0.1902 -0.5147  0.7568
  920MOL0     C24091   4.476   9.942   7.574  0.3749  0.0420 -0.6774
  920MOL0     C24092   4.338   9.977   7.567 -0.0172 -0.1824  0.3483
  920MOL0     C24093   4.243   9.874   7.593 -0.4956  0.6688 -1.5152
  920MOL0     C24094   4.297  10.111   7.534 -0.8809  0.2013 -0.1721
  920MOL0     C24095   4.162  10.155   7.498  1.1596  0.2537  0.4947
  920MOL0     O24096   4.153  10.268   7.421  0.4774  0.6584 -0.0915
  920MOL0     C24097   4.042  10.283   7.347 -0.0210  0.2031 -0.2402
  920MOL0     C24098   4.023  10.245   7.213  0.1791 -0.2982 -0.4808
  920MOL0     C24099   3.907  10.263   7.140  0.7690  0.3124  0.7358
  920MOL0     C24100   3.795  10.318   7.192  0.7804 -0.1821 -0.9935
  920MOL0     O24101   3.674  10.312   7.116 -0.5540  0.4217  0.1955
  920MOL0     C24102   3.552  10.356   7.174  0.1411 -0.1836 -0.2066
  920MOL0     C24103   3.432  10.327   7.077  0.6984 -0.4146 -0.5812
  920MOL0     C24104   3.300  10.379   7.129  0.6380  0.3292  0.7641
  920MOL0     C24105   3.198  10.344   7.031  0.2985  1.4290 -0.2606
  920MOL0     C24106   3.064  10.394   7.083 -0.2621 -0.8423  0.2915
  920MOL0     C24107   2.967  10.418   6.967  0.1114 -0.1189 -0.2452
  920MOL0     C24108   2.843  10.484   7.020  0.0204  0.7303 -0.3789
  920MOL0     C24109   2.738  10.522   6.914  0.0526 -0.4445 -0.6805
  920MOL0    Cl24110   2.687  10.388   6.806 -0.1642  0.1515 -0.3168
  920MOL0     C24111   3.809  10.366   7.324  0.1989 -0.0216  0.1969
  920MOL0     C24112   3.930  10.357   7.400 -0.7719  0.0668  0.4532
  920MOL0     O24113   4.067  10.082   7.527  0.3082  0.0712 -0.1429
  920MOL0     C24114   4.401  10.197   7.495 -0.3478 -0.3132  0.5884
  920MOL0     C24115   4.539  10.161   7.495  0.3143 -0.3217  0.8651
  920MOL0     N24116   4.978   9.367   7.553  0.2749  0.9275  0.3190
  920MOL0     N24117   5.086   9.290   7.554  0.1805 -0.8811  0.6842
  920MOL0     C24118   6.379   9.525   7.938 -0.0413  0.4384 -0.0855
  920MOL0     C24119   6.449   9.571   8.046  0.1302  0.0999 -0.1812
  920MOL0     C24120   6.626   9.629   8.433  0.3727 -0.2681 -0.1279
  920MOL0     C24121   6.571   9.533   8.527  0.5707  0.0181  0.5154
  920MOL0     C24122   6.649   9.517   8.642  0.0914  0.5410 -0.1937
  920MOL0     C24123   6.776   9.571   8.665 -0.5153 -0.8167 -0.3667
  920MOL0     O24124   6.858   9.553   8.772 -0.2437 -0.0200 -0.4636
  920MOL0     C24125   6.807   9.489   8.877  0.1546 -0.0756  0.2036
  920MOL0     C24126   6.905   9.522   8.989 -1.1642 -0.8282 -0.2070
  920MOL0     C24127   7.046   9.462   8.955  0.3438 -0.1326 -0.0098
  920MOL0     C24128   7.140   9.454   9.071 -0.1014 -0.2225  0.3552
  920MOL0     C24129   7.240   9.556   9.071  0.2412 -0.4406 -0.1988
  920MOL0     C24130   7.297   9.661   9.082 -0.1605  0.5176 -0.8483
  920MOL0     C24131   6.827   9.655   8.563  0.2875  0.5523 -1.3356
  920MOL0     C24132   6.753   9.692   8.452 -0.0191 -0.4810  0.1723
  920MOL0     H24133   6.210   9.519   8.278 -2.0421  1.1066 -0.2171
  920MOL0     H24134   6.089   9.414   8.074 -0.4718 -1.3435 -2.3033
  920MOL0     H24135   5.986   9.330   7.842 -1.5854  0.8246 -2.3768
  920MOL0     H24136   6.006   9.503   7.881  1.5631  1.0252 -0.4392
  920MOL0     H24137   6.080   9.543   7.639  0.8983 -0.5942  2.0820
  920MOL0     H24138   6.043   9.369   7.616 -0.8517 -0.5009  0.6641
  920MOL0     H24139   5.833   9.533   7.730  2.6232 -2.0548  2.9157
  920MOL0     H24140   5.850   9.520   7.552 -1.5197 -2.1491 -0.0775
  920MOL0     H24141   5.814   9.280   7.553  0.2839 -1.4493  1.0561
  920MOL0     H24142   5.813   9.282   7.722 -0.0684 -2.5706 -0.9839
  920MOL0     H24143   5.612   9.443   7.710 -0.7744  0.7277 -0.3410
  920MOL0     H24144   5.612   9.431   7.534 -1.4428  0.9902  0.2114
  920MOL0     H24145   5.555   9.203   7.543  1.2060 -0.5835 -0.2701
  920MOL0     H24146   5.585   9.183   7.716 -1.2435 -0.3740 -0.1316
  920MOL0     H24147   5.344   9.215   7.715 -1.8598  0.5566 -1.6470
  920MOL0     H24148   5.412   9.378   7.749  0.7008  0.5385  0.1290
  920MOL0     H24149   5.340   9.246   7.478 -2.5296 -1.8042  0.7025
  920MOL0     H24150   5.386   9.414   7.505 -0.9128  0.5092 -0.5012
  920MOL0     H24151   5.225   9.572   7.629  1.1493 -0.2163 -2.5756
  920MOL0     H24152   4.836   9.581   7.625 -0.4795 -0.1683 -3.1385
  920MOL0     H24153   4.973   9.658   7.711  0.1069  0.0626  0.7187
  920MOL0     H24154   4.896   9.660   7.413 -0.7493 -1.7215  1.2746
  920MOL0     H24155   5.054   9.730   7.468  0.3997 -3.5282 -0.4630
  920MOL0     H24156   4.917   9.905   7.431 -0.5275  1.8287 -0.2710
  920MOL0     H24157   4.957   9.898   7.603  0.2201 -1.4274  0.5466
  920MOL0     H24158   4.715   9.830   7.652 -1.4509  2.7568  1.0659
  920MOL0     H24159   4.697   9.799   7.477  0.5886  1.0767 -0.6313
  920MOL0     H24160   4.505   9.845   7.613  0.3789 -0.4317 -1.8318
  920MOL0     H24161   4.172   9.846   7.514 -0.2959 -3.2255 -0.5292
  920MOL0     H24162   4.297   9.781   7.613  2.3083  1.7885 -3.3468
  920MOL0     H24163   4.177   9.913   7.671  0.1711  1.4320 -1.3156
  920MOL0     H24164   4.109  10.191   7.174 -1.4077 -2.9106 -0.6439
  920MOL0     H24165   3.901  10.216   7.042  0.3976  2.0274 -0.0981
  920MOL0     H24166   3.529  10.306   7.269  1.8748  0.4228  0.5762
  920MOL0     H24167   3.566  10.464   7.182  2.4546 -0.3032 -1.7558
  920MOL0     H24168   3.453  10.369   6.978 -1.6247  3.8796  0.5166
  920MOL0     H24169   3.421  10.220   7.058 -0.5024 -0.0034 -2.4655
  920MOL0     H24170   3.307  10.488   7.138  1.5522  0.8503 -3.8030
  920MOL0     H24171   3.277  10.324   7.220  0.1807 -2.1198 -0.7282
  920MOL0     H24172   3.223  10.399   6.939  3.2587  1.0869  0.2553
  920MOL0     H24173   3.186  10.237   7.013  2.5520  1.1698 -0.4133
  920MOL0     H24174   3.079  10.491   7.131 -1.9700 -1.0656  1.3695
  920MOL0     H24175   3.016  10.324   7.152 -2.7643 -0.3865 -0.8566
  920MOL0     H24176   3.007  10.494   6.900  1.1207 -0.4056  0.0128
  920MOL0     H24177   2.946  10.329   6.905  0.8399 -1.3626  1.2275
  920MOL0     H24178   2.877  10.564   7.086  0.2598 -0.7851  1.4052
  920MOL0     H24179   2.797  10.411   7.087 -0.0883  0.4832 -0.7150
  920MOL0     H24180   2.781  10.606   6.858 -3.9258  2.3118 -0.1042
  920MOL0     H24181   2.641  10.553   6.955  0.0341 -1.0856 -0.2334
  920MOL0     H24182   3.722  10.409   7.373  1.3760  2.1202  0.5161
  920MOL0     H24183   3.941  10.393   7.502  3.1185  1.1136 -0.1392
  920MOL0     H24184   4.382  10.302   7.474 -1.4464 -0.9714 -2.2582
  920MOL0     H24185   4.617  10.232   7.469 -0.2058 -0.1232 -0.2371
  920MOL0     H24186   6.439   9.523   7.847 -0.4179  2.7232 -0.4417
  920MOL0     H24187   6.552   9.599   8.025  1.3440 -2.3971  1.8377
  920MOL0     H24188   6.472   9.491   8.510  0.5914  0.1530  0.0417
  920MOL0     H24189   6.602   9.453   8.716  0.9903  0.1999  0.1037
  920MOL0     H24190   6.715   9.537   8.913  1.1214  0.7554  1.7012
  920MOL0     H24191   6.794   9.382   8.856 -0.3276  0.2928 -1.5312
  920MOL0     H24192   6.866   9.493   9.087  1.3510 -2.0180  0.5359
  920MOL0     H24193   6.926   9.629   8.994 -2.7448 -0.5423  2.4618
  920MOL0     H24194   7.087   9.523   8.873 -2.2855 -1.2898 -2.3616
  920MOL0     H24195   7.045   9.359   8.916  3.6028 -0.1897 -0.2279
  920MOL0     H24196   7.184   9.355   9.082 -0.5175 -0.3020  1.3873
  920MOL0     H24197   7.086   9.466   9.165  0.2684  1.9081  0.3369
  920MOL0     H24198   7.357   9.747   9.105 -1.3190  0.5585  2.6566
  920MOL0     H24199   6.923   9.701   8.581  1.2309 -2.1298  1.2957
  920MOL0     H24200   6.794   9.770   8.388 -0.1410 -2.4925 -2.5353
  921MOL0     O24201   2.058   7.961   0.970  0.0215  0.2805  0.5116
  921MOL0     C24202   2.116   7.948   1.075  0.5512  0.6892 -0.8825
  921MOL0     O24203   2.073   7.994   1.195 -0.1473  0.3252 -0.1421
  921MOL0     C24204   1.943   8.023   1.204 -0.1537 -0.5063 -0.3904
  921MOL0     C24205   1.906   8.156   1.225  0.1493  0.4539 -1.0678
  921MOL0     C24206   1.774   8.191   1.252  0.9372 -0.3688  0.8578
  921MOL0     C24207   1.674   8.090   1.250  0.0003  0.3554  0.5714
  921MOL0     O24208   1.544   8.138   1.259  0.6006 -0.1554 -0.1996
  921MOL0     C24209   1.439   8.045   1.230 -0.0569 -0.3484 -0.2543
  921MOL0     C24210   1.398   7.982   1.362 -0.6553 -0.6929 -0.0294
  921MOL0     C24211   1.258   7.920   1.339  0.4447 -0.7794 -0.7712
  921MOL0     C24212   1.211   7.852   1.465  0.3819 -0.6907  0.6692
  921MOL0     C24213   1.065   7.831   1.450 -0.0156 -0.2928  0.0273
  921MOL0     C24214   1.011   7.769   1.582 -0.0520  0.1526  0.5819
  921MOL0     C24215   0.856   7.747   1.572 -0.2278  0.1347 -0.4206
  921MOL0     C24216   0.811   7.644   1.467 -0.8372 -0.5259 -0.2093
  921MOL0     N24217   0.804   7.686   1.326  0.6808  0.4133 -0.2495
  921MOL0     C24218   0.696   7.768   1.277 -0.1138  0.3338 -0.9158
  921MOL0     C24219   0.739   7.798   1.150 -0.2495 -0.2220 -0.2072
  921MOL0     C24220   0.676   7.892   1.051  0.2223 -0.6286  0.1561
  921MOL0     C24221   0.555   7.826   0.972 -0.8301  0.0536 -0.2838
  921MOL0     C24222   0.484   7.899   0.858  0.4601 -0.4667  0.4984
  921MOL0     C24223   0.355   7.822   0.826 -0.7727 -0.2681  0.6000
  921MOL0     O24224   0.249   7.856   0.918  0.7888 -0.3239 -0.0363
  921MOL0     C24225   0.126   7.876   0.859 -0.2957  0.0140  0.2834
  921MOL0     C24226   0.031   7.960   0.921 -0.3528  0.3091 -0.0418
  921MOL0     C24227  -0.088   7.985   0.872  0.3746 -0.4015  0.0387
  921MOL0     C24228  -0.183   8.085   0.940  0.8674  0.4005  0.5095
  921MOL0     C24229  -0.142   7.911   0.762 -0.0915  0.1603 -0.4285
  921MOL0     C24230  -0.277   7.910   0.703  0.7152  0.3990 -0.1346
  921MOL0     O24231  -0.298   7.844   0.587 -0.1614  0.3689 -0.2989
  921MOL0     C24232  -0.422   7.837   0.537  0.1224 -1.2048  0.3885
  921MOL0     C24233  -0.489   7.716   0.516 -0.4254  0.3005  0.0097
  921MOL0     C24234  -0.613   7.718   0.454  0.5465 -0.2105 -0.0923
  921MOL0     C24235  -0.660   7.835   0.399 -0.4365 -0.4669 -0.5162
  921MOL0     O24236  -0.786   7.820   0.357 -0.0659 -0.5272 -0.0365
  921MOL0     C24237  -0.822   7.903   0.245  0.3362  0.8021 -0.3670
  921MOL0     C24238  -0.940   7.846   0.160 -0.1624  0.5464 -0.6733
  921MOL0     C24239  -1.062   7.841   0.247 -0.4006  0.6246  0.2473
  921MOL0     C24240  -1.185   7.870   0.167  0.1024  0.7143  0.1597
  921MOL0     C24241  -1.308   7.902   0.250  1.2461 -0.4108  0.3941
  921MOL0     C24242  -1.425   7.926   0.156 -0.0141  0.1474  0.3214
  921MOL0     C24243  -1.553   7.959   0.242  0.4905  0.0015 -0.1824
  921MOL0     C24244  -1.674   7.976   0.155 -0.5757 -0.0454 -0.1513
  921MOL0    Cl24245  -1.715   7.825   0.064  0.2392  0.4055 -0.2714
  921MOL0     C24246  -0.589   7.948   0.398  0.2916  0.6818 -0.5128
  921MOL0     C24247  -0.482   7.950   0.485 -0.0094 -1.4594 -1.1535
  921MOL0     O24248  -0.368   7.964   0.768 -0.3759  0.1476 -0.2060
  921MOL0     C24249  -0.056   7.812   0.712 -0.0264  1.2088  0.2151
  921MOL0     C24250   0.074   7.796   0.752  0.1267  0.3171  0.6312
  921MOL0     N24251   0.847   7.715   1.115 -0.4409 -0.2661 -0.1568
  921MOL0     N24252   0.882   7.645   1.223 -0.4627  0.2067  0.5847
  921MOL0     C24253   1.710   7.951   1.222  0.7568  0.9743  0.7238
  921MOL0     C24254   1.845   7.922   1.208 -0.2656  0.0814 -0.3658
  921MOL0     C24255   2.247   7.876   1.082  0.4698 -0.1847  0.2983
  921MOL0     C24256   2.297   7.819   0.966 -0.3255  0.4461 -0.1789
  921MOL0     C24257   2.423   7.752   0.966  0.0572  0.8547  0.8057
  921MOL0     C24258   2.500   7.749   1.077 -0.6489  0.5862 -0.1281
  921MOL0     O24259   2.625   7.687   1.068 -0.8900  0.0870 -0.4824
  921MOL0     C24260   2.707   7.679   1.186  0.4405  0.3392  0.3070
  921MOL0     C24261   2.839   7.606   1.164  0.1203 -0.1689 -0.0328
  921MOL0     C24262   2.920   7.688   1.069 -0.3286  0.0344 -0.6928
  921MOL0     C24263   3.070   7.671   1.076  0.7431  1.4444  0.1795
  921MOL0     C24264   3.122   7.732   0.955 -1.3928 -0.6087  0.7078
  921MOL0     C24265   3.172   7.791   0.863 -0.0372 -0.3195  0.3369
  921MOL0     C24266   2.452   7.805   1.196 -0.4355  0.2603  0.3352
  921MOL0     C24267   2.327   7.865   1.199 -0.1824 -0.5583  0.9635
  921MOL0     H24268   1.987   8.228   1.221 -0.0275  0.9337  1.6931
  921MOL0     H24269   1.757   8.297   1.266  1.4935 -0.5420  3.3472
  921MOL0     H24270   1.357   8.100   1.182  1.2776  2.3960  0.3948
  921MOL0     H24271   1.472   7.975   1.152 -1.9938 -2.0279  0.3528
  921MOL0     H24272   1.460   7.904   1.406  0.0557 -0.3521 -0.4046
  921MOL0     H24273   1.400   8.064   1.434  2.4515 -0.5928 -0.1040
  921MOL0     H24274   1.183   7.997   1.320  0.0051 -0.8102  0.7079
  921MOL0     H24275   1.251   7.854   1.252 -1.8847 -1.0211 -0.4533
  921MOL0     H24276   1.248   7.751   1.485 -0.9513 -1.4519 -0.4884
  921MOL0     H24277   1.235   7.925   1.543  2.1099  2.4191 -2.5162
  921MOL0     H24278   1.011   7.926   1.446  2.3054  1.1482  1.0661
  921MOL0     H24279   1.041   7.767   1.365 -0.3382  0.7610 -0.6854
  921MOL0     H24280   1.054   7.668   1.588  0.8215  0.3239 -1.7735
  921MOL0     H24281   1.043   7.833   1.665  3.2567  1.2160 -1.3541
  921MOL0     H24282   0.832   7.697   1.666  0.6559  2.3713  1.1095
  921MOL0     H24283   0.800   7.840   1.556  3.8130  3.0121  0.2514
  921MOL0     H24284   0.710   7.620   1.500 -0.5035 -1.8727 -0.0951
  921MOL0     H24285   0.877   7.557   1.471 -0.5763 -0.3616 -0.8322
  921MOL0     H24286   0.610   7.807   1.329 -0.6667 -0.4587 -1.2124
  921MOL0     H24287   0.637   7.981   1.101  1.8816 -0.1532  0.6920
  921MOL0     H24288   0.751   7.926   0.979 -1.9023 -0.4889 -2.1056
  921MOL0     H24289   0.481   7.791   1.045  0.4028 -4.5618 -0.9701
  921MOL0     H24290   0.599   7.736   0.928 -1.3181  1.1870 -3.3527
  921MOL0     H24291   0.557   7.905   0.776  1.6457 -1.5664  1.4199
  921MOL0     H24292   0.459   7.998   0.896  0.9804  0.6246 -1.8362
  921MOL0     H24293   0.380   7.716   0.832  0.3411 -0.1031 -0.6377
  921MOL0     H24294   0.330   7.830   0.720 -1.9443 -3.8188  0.4716
  921MOL0     H24295   0.063   8.015   1.010 -3.9768  1.5156  0.6817
  921MOL0     H24296  -0.272   8.038   0.984 -0.8477  0.4778 -2.5743
  921MOL0     H24297  -0.132   8.143   1.018  0.6118  0.5519  0.5658
  921MOL0     H24298  -0.230   8.150   0.865 -1.2084 -1.9459 -0.3540
  921MOL0     H24299  -0.455   7.617   0.545 -3.7311 -0.6810  1.0517
  921MOL0     H24300  -0.675   7.629   0.443 -0.4759  0.4857 -0.0782
  921MOL0     H24301  -0.847   7.999   0.290  0.4516  1.2523 -1.2350
  921MOL0     H24302  -0.751   7.910   0.162 -0.3267 -0.9965 -1.1501
  921MOL0     H24303  -0.951   7.911   0.073 -0.4867  3.3982  1.3446
  921MOL0     H24304  -0.923   7.743   0.128 -6.1220 -0.6342 -1.1312
  921MOL0     H24305  -1.057   7.922   0.321  0.7053  0.7056  0.1063
  921MOL0     H24306  -1.055   7.747   0.302  3.6143 -0.4392 -1.6898
  921MOL0     H24307  -1.162   7.965   0.117  1.0541  1.1928  1.4333
  921MOL0     H24308  -1.207   7.801   0.086  1.5454  0.0080  0.3387
  921MOL0     H24309  -1.302   7.995   0.308  0.5070  0.3223 -0.6561
  921MOL0     H24310  -1.335   7.823   0.320 -1.0032 -0.7181 -0.7366
  921MOL0     H24311  -1.398   8.013   0.095 -0.3205  1.7652  2.3848
  921MOL0     H24312  -1.440   7.837   0.094  1.7714 -1.7097  2.3960
  921MOL0     H24313  -1.528   8.053   0.292  0.5977 -0.1401  0.0274
  921MOL0     H24314  -1.589   7.882   0.310  0.4450  0.1888  0.0068
  921MOL0     H24315  -1.673   8.066   0.093  2.1120  0.1181  0.0097
  921MOL0     H24316  -1.756   7.990   0.226  0.7909  1.3088  1.2246
  921MOL0     H24317  -0.628   8.041   0.358 -0.8863 -0.7458 -2.8787
  921MOL0     H24318  -0.440   8.048   0.506 -1.6522 -0.9671 -0.0307
  921MOL0     H24319  -0.093   7.739   0.640 -2.3726  0.5659  1.9612
  921MOL0     H24320   0.134   7.723   0.699 -0.4766  0.8970 -0.9070
  921MOL0     H24321   1.641   7.868   1.232 -0.2152  1.5350 -0.9480
  921MOL0     H24322   1.870   7.818   1.193 -1.2727 -0.5696  1.9671
  921MOL0     H24323   2.240   7.820   0.874 -0.8834 -1.2373  0.1124
  921MOL0     H24324   2.463   7.708   0.875 -0.8874  0.7173  0.4561
  921MOL0     H24325   2.728   7.777   1.229 -3.0007  1.6759 -0.7782
  921MOL0     H24326   2.651   7.622   1.262  0.4030 -1.2362 -0.8562
  921MOL0     H24327   2.817   7.507   1.122 -0.1792 -0.0353 -0.1996
  921MOL0     H24328   2.889   7.584   1.258 -1.7017 -2.1308  0.5763
  921MOL0     H24329   2.898   7.793   1.092  1.5492  0.5075 -0.8431
  921MOL0     H24330   2.881   7.667   0.969 -1.3788  1.7498 -0.6919
  921MOL0     H24331   3.082   7.563   1.065  0.2557  0.9757  3.2876
  921MOL0     H24332   3.118   7.706   1.168 -1.3114 -0.1726  1.9642
  921MOL0     H24333   3.214   7.842   0.779 -1.7718 -1.5892 -1.3671
  921MOL0     H24334   2.514   7.807   1.284  1.6600 -0.7791 -1.0391
  921MOL0     H24335   2.288   7.911   1.289 -1.9983 -1.1839  0.5470
  922MOL0     O24336  11.244   2.931   3.506 -1.2766 -0.3217  0.3174
  922MOL0     C24337  11.334   2.884   3.427  0.4084 -0.6383 -0.2029
  922MOL0     O24338  11.314   2.793   3.324  0.6511  0.0274  0.5970
  922MOL0     C24339  11.190   2.757   3.290 -0.8219  0.1560  0.0407
  922MOL0     C24340  11.138   2.785   3.155 -0.1003  0.7887 -0.3807
  922MOL0     C24341  11.005   2.756   3.120 -0.0863 -0.5337  0.1409
  922MOL0     C24342  10.921   2.708   3.222 -0.2562 -0.0342  1.2896
  922MOL0     O24343  10.789   2.697   3.181  0.1617 -0.3198 -0.3811
  922MOL0     C24344  10.687   2.697   3.281  0.1357  0.9696 -0.3923
  922MOL0     C24345  10.556   2.755   3.215  0.3682  0.2199  0.3863
  922MOL0     C24346  10.588   2.877   3.134 -0.1489  0.8766 -0.0807
  922MOL0     C24347  10.465   2.940   3.073 -0.5172 -0.4446  0.2289
  922MOL0     C24348  10.508   3.044   2.963  0.5159 -0.1617  0.6256
  922MOL0     C24349  10.377   3.111   2.909 -0.1589  0.0966  0.0542
  922MOL0     C24350  10.397   3.235   2.822  0.5839 -0.2606  1.0666
  922MOL0     C24351  10.482   3.345   2.890 -0.3788  0.5563  0.7326
  922MOL0     N24352  10.514   3.464   2.810  0.1408  0.0796  0.5236
  922MOL0     C24353  10.423   3.562   2.782 -0.5221  0.7411 -0.1168
  922MOL0     C24354  10.498   3.648   2.715 -0.5153  0.5342  0.4531
  922MOL0     C24355  10.449   3.784   2.660 -0.4063  0.0472  0.5648
  922MOL0     C24356  10.341   3.756   2.544 -0.0995 -0.1808 -0.2258
  922MOL0     C24357  10.282   3.897   2.498  0.2130  0.4633  0.3260
  922MOL0     C24358  10.150   3.879   2.412  0.4564 -0.8062 -0.5015
  922MOL0     O24359  10.173   3.796   2.290 -0.1806 -0.7061 -0.2228
  922MOL0     C24360  10.069   3.735   2.234  0.2989  0.0423  0.1204
  922MOL0     C24361  10.096   3.609   2.185 -0.6305  0.0860 -1.0110
  922MOL0     C24362  10.000   3.520   2.127  0.3797 -0.0169 -0.9120
  922MOL0     C24363  10.037   3.378   2.098  0.3610 -0.1111  0.5983
  922MOL0     C24364   9.868   3.581   2.101 -1.1554 -0.2773 -0.1370
  922MOL0     C24365   9.753   3.501   2.046  0.4033 -0.5907  0.1624
  922MOL0     O24366   9.632   3.577   2.020 -0.6169 -0.5131 -0.1363
  922MOL0     C24367   9.528   3.515   1.958 -0.5866  0.2723  0.0483
  922MOL0     C24368   9.471   3.402   2.015 -0.6164 -0.1879  0.1810
  922MOL0     C24369   9.356   3.353   1.948  0.1218 -0.0833  0.3350
  922MOL0     C24370   9.298   3.404   1.826  0.0895 -1.3149  0.0071
  922MOL0     O24371   9.190   3.357   1.751  0.1743 -0.4597 -0.1780
  922MOL0     C24372   9.163   3.221   1.762  0.7034  0.5060  0.0246
  922MOL0     C24373   9.069   3.182   1.652  0.0985 -0.5588 -0.3350
  922MOL0     C24374   9.018   3.033   1.656  1.0541  0.0583 -0.0768
  922MOL0     C24375   9.083   2.942   1.546 -0.4748 -0.4228 -0.0155
  922MOL0     C24376   8.979   2.871   1.453  0.0252  0.2892 -0.4414
  922MOL0     C24377   8.893   2.768   1.541  0.4460  0.0207 -0.2452
  922MOL0     C24378   8.795   2.687   1.460  0.5778 -0.3113  0.1272
  922MOL0     C24379   8.694   2.599   1.540  0.0043  0.1305 -0.9286
  922MOL0    Cl24380   8.771   2.451   1.586 -0.0861 -0.0660 -0.2042
  922MOL0     C24381   9.359   3.517   1.774 -0.8228  0.0949 -0.4368
  922MOL0     C24382   9.474   3.572   1.841  0.3289 -0.0762 -0.1420
  922MOL0     O24383   9.750   3.376   2.027  0.1644 -0.5358 -0.2516
  922MOL0     C24384   9.849   3.716   2.146  0.8721  1.1833 -0.3972
  922MOL0     C24385   9.935   3.794   2.222  0.1074 -0.3771 -0.0221
  922MOL0     N24386  10.630   3.602   2.695  0.1877 -0.4613  0.3576
  922MOL0     N24387  10.638   3.490   2.764  0.3137  0.3171  0.2253
  922MOL0     C24388  10.964   2.675   3.344 -0.0794 -0.5502  0.1648
  922MOL0     C24389  11.102   2.692   3.376  0.3197  0.1142 -0.3253
  922MOL0     C24390  11.473   2.924   3.448 -0.4751  0.4213  0.2557
  922MOL0     C24391  11.500   3.032   3.525 -0.8135  0.5680  0.5315
  922MOL0     C24392  11.631   3.079   3.528 -0.7325 -0.7662  0.1413
  922MOL0     C24393  11.742   3.012   3.474 -0.3852 -0.0222 -0.5167
  922MOL0     O24394  11.869   3.061   3.510  0.2091 -0.7750  0.8079
  922MOL0     C24395  11.973   2.967   3.504 -0.1678 -0.4217  0.4045
  922MOL0     C24396  12.097   3.021   3.575  0.8796  0.4553 -0.5630
  922MOL0     C24397  12.202   2.913   3.591 -0.1754  0.4840 -0.6454
  922MOL0     C24398  12.322   2.965   3.661  0.3255  0.1541  0.7623
  922MOL0     C24399  12.415   2.856   3.690 -0.3170  0.0684 -0.0519
  922MOL0     C24400  12.504   2.773   3.708  0.7152 -0.5974 -0.0138
  922MOL0     C24401  11.716   2.901   3.395 -0.6514 -0.0915 -0.7103
  922MOL0     C24402  11.585   2.852   3.382  0.5285 -0.0290 -0.8411
  922MOL0     H24403  11.201   2.835   3.083  1.8806  0.5390  1.0853
  922MOL0     H24404  10.961   2.783   3.025  1.1934  2.2896  0.2461
  922MOL0     H24405  10.664   2.602   3.329 -0.5114  1.7953  1.0082
  922MOL0     H24406  10.709   2.768   3.361 -1.8867  0.0644  1.0385
  922MOL0     H24407  10.522   2.682   3.141  1.7222  1.5824 -1.6818
  922MOL0     H24408  10.477   2.779   3.287  0.3187 -0.6726  0.6477
  922MOL0     H24409  10.649   2.946   3.193 -0.2130  1.3620 -0.5733
  922MOL0     H24410  10.647   2.847   3.047 -0.1349  2.4064 -0.6329
  922MOL0     H24411  10.413   2.863   3.015  0.2723  0.3576 -1.6221
  922MOL0     H24412  10.403   2.975   3.156  0.0983 -0.0174  0.5160
  922MOL0     H24413  10.586   3.109   3.003  1.4433  1.7101 -3.6612
  922MOL0     H24414  10.560   2.989   2.883 -0.8816 -2.0199  0.9228
  922MOL0     H24415  10.326   3.037   2.847  3.3168 -1.5235 -1.1079
  922MOL0     H24416  10.306   3.132   2.990 -2.8626 -2.4867 -1.4395
  922MOL0     H24417  10.446   3.217   2.725  0.6377  1.2437  0.7868
  922MOL0     H24418  10.302   3.276   2.789  1.5626  2.0883  0.9888
  922MOL0     H24419  10.580   3.301   2.908  0.1348  1.7187  0.8812
  922MOL0     H24420  10.439   3.375   2.987  0.7985 -0.9241  1.7522
  922MOL0     H24421  10.322   3.557   2.821 -0.1413 -2.2283  0.7054
  922MOL0     H24422  10.402   3.855   2.728 -2.9522  1.8833 -2.7631
  922MOL0     H24423  10.532   3.839   2.615 -2.1550  0.6699 -2.1921
  922MOL0     H24424  10.269   3.695   2.599  2.3583 -2.5223  0.6503
  922MOL0     H24425  10.386   3.707   2.457  2.2392  1.0212  0.2294
  922MOL0     H24426  10.356   3.954   2.441  0.0376 -0.1342 -0.5155
  922MOL0     H24427  10.268   3.966   2.582 -1.0276  1.1332 -0.4012
  922MOL0     H24428  10.106   3.978   2.396 -0.8344 -1.4763 -1.2672
  922MOL0     H24429  10.073   3.832   2.474  0.1849  1.2523  0.8164
  922MOL0     H24430  10.190   3.567   2.219 -1.8326 -0.3350  2.1680
  922MOL0     H24431  10.134   3.359   2.146  0.1959 -0.8801  0.6315
  922MOL0     H24432   9.964   3.306   2.136 -1.0297 -0.4716 -2.4609
  922MOL0     H24433  10.050   3.371   1.990 -2.9042 -0.5772  0.1602
  922MOL0     H24434   9.496   3.337   2.098 -0.0011 -0.4363 -0.1927
  922MOL0     H24435   9.309   3.267   1.995  0.2320 -0.9517 -1.0758
  922MOL0     H24436   9.255   3.163   1.754  1.0170  1.2965 -3.5703
  922MOL0     H24437   9.119   3.208   1.862 -1.7401  0.6464 -0.9538
  922MOL0     H24438   8.985   3.247   1.678  0.8056  1.0362 -1.8436
  922MOL0     H24439   9.101   3.215   1.552 -1.3991 -1.8197 -1.2737
  922MOL0     H24440   8.910   3.037   1.638  1.2936  0.7823 -1.5302
  922MOL0     H24441   9.045   2.992   1.753 -0.2760 -1.7687 -0.4271
  922MOL0     H24442   9.151   3.002   1.485 -1.3253  1.7730  1.0853
  922MOL0     H24443   9.150   2.870   1.594  3.4640  3.3223  0.7029
  922MOL0     H24444   9.025   2.808   1.377  2.5255  2.0236 -0.4632
  922MOL0     H24445   8.916   2.943   1.401  0.1663  0.2631 -0.6456
  922MOL0     H24446   8.953   2.691   1.591 -1.8897 -2.0643 -0.4619
  922MOL0     H24447   8.842   2.830   1.615  0.9344  0.9411 -0.6511
  922MOL0     H24448   8.854   2.620   1.397  2.4974  2.0297 -0.6822
  922MOL0     H24449   8.738   2.757   1.399 -0.0258  0.9819  2.0787
  922MOL0     H24450   8.609   2.571   1.478 -0.3381 -2.4691  0.5756
  922MOL0     H24451   8.665   2.660   1.626  3.6031  0.0501  0.5541
  922MOL0     H24452   9.317   3.562   1.684  1.4349  0.4449 -1.3948
  922MOL0     H24453   9.526   3.657   1.798  2.6591 -0.1247  2.3456
  922MOL0     H24454   9.748   3.755   2.139  0.5985  0.4847 -0.4751
  922MOL0     H24455   9.904   3.894   2.251  1.7885  0.1375  0.1022
  922MOL0     H24456  10.911   2.626   3.425  0.1499 -0.1511  0.5598
  922MOL0     H24457  11.148   2.651   3.465  3.4644 -0.9190 -2.2466
  922MOL0     H24458  11.419   3.093   3.564 -0.2924  0.4534  1.8320
  922MOL0     H24459  11.646   3.166   3.592 -2.2438  0.2819 -0.8567
  922MOL0     H24460  11.954   2.874   3.558  0.8889 -0.7231  0.2979
  922MOL0     H24461  11.989   2.928   3.403  0.7655  2.6987 -0.7568
  922MOL0     H24462  12.056   3.060   3.668 -0.2749 -0.6324 -0.5865
  922MOL0     H24463  12.134   3.108   3.520  0.5432  1.6524  1.0329
  922MOL0     H24464  12.241   2.879   3.495  0.7947  0.0921 -0.1225
  922MOL0     H24465  12.173   2.835   3.662  0.6880  3.2929  3.1549
  922MOL0     H24466  12.292   3.009   3.757 -2.2051 -1.7737  0.9652
  922MOL0     H24467  12.376   3.043   3.607 -0.4178 -0.2908 -0.6769
  922MOL0     H24468  12.585   2.706   3.729  0.8322 -0.4437  0.0243
  922MOL0     H24469  11.795   2.857   3.336 -0.0020 -0.6720  0.5585
  922MOL0     H24470  11.559   2.771   3.314  0.0025 -0.0152 -0.6652
  923MOL0     O24471   3.610   8.511   0.147 -0.2842 -1.2622 -0.0041
  923MOL0     C24472   3.643   8.625   0.191 -0.0602  0.7883 -0.3242
  923MOL0     O24473   3.552   8.725   0.216  0.5982 -0.2054 -0.4010
  923MOL0     C24474   3.422   8.681   0.208 -0.5977  0.2301  0.3927
  923MOL0     C24475   3.347   8.669   0.330  0.8886  0.0824 -0.1558
  923MOL0     C24476   3.212   8.629   0.321 -0.3122 -0.6767  0.2530
  923MOL0     C24477   3.155   8.606   0.187 -0.3037 -0.3884 -0.2220
  923MOL0     O24478   3.025   8.576   0.157 -0.9994 -0.4174  0.4861
  923MOL0     C24479   2.918   8.633   0.236 -0.5629 -0.0170  0.0445
  923MOL0     C24480   2.794   8.590   0.156  0.0992 -0.8278 -0.9469
  923MOL0     C24481   2.654   8.620   0.222  0.5733  0.0133 -0.0448
  923MOL0     C24482   2.534   8.561   0.140  0.3903 -0.0852  0.0803
  923MOL0     C24483   2.400   8.604   0.196 -0.6370  0.3079  0.0331
  923MOL0     C24484   2.278   8.571   0.108 -0.1789 -0.5790 -0.0301
  923MOL0     C24485   2.153   8.657   0.139 -0.2119 -0.2050 -0.1122
  923MOL0     C24486   2.047   8.612   0.039 -0.1154  0.1657  0.6815
  923MOL0     N24487   1.928   8.712   0.039  0.4073  0.0496  0.7280
  923MOL0     C24488   1.828   8.706   0.132  0.1653  0.0205  0.3853
  923MOL0     C24489   1.729   8.779   0.076 -0.1397  0.7959 -0.3100
  923MOL0     C24490   1.589   8.793   0.128 -1.2118 -0.3284 -0.1602
  923MOL0     C24491   1.508   8.668   0.110 -0.5229  0.5003  0.1812
  923MOL0     C24492   1.367   8.686   0.163  0.0168 -0.4211 -0.4065
  923MOL0     C24493   1.276   8.594   0.094  0.6288  0.5184  0.1537
  923MOL0     O24494   1.130   8.608   0.113 -0.2765 -0.8329 -0.1255
  923MOL0     C24495   1.053   8.501   0.111  0.7248  1.4349  0.5163
  923MOL0     C24496   0.917   8.515   0.150  0.2843 -0.3898  0.7619
  923MOL0     C24497   0.827   8.406   0.157 -0.2614  0.0638 -0.7089
  923MOL0     C24498   0.690   8.436   0.218  0.4436  0.1608  0.6313
  923MOL0     C24499   0.866   8.282   0.106 -0.4724 -0.7883  0.7320
  923MOL0     C24500   0.774   8.169   0.099  0.4306  0.2602 -0.2868
  923MOL0     O24501   0.795   8.081  -0.009  0.5952 -0.0473 -0.3597
  923MOL0     C24502   0.694   7.986  -0.026 -0.5424  0.0649 -0.6047
  923MOL0     C24503   0.702   7.869   0.045  0.1464  0.2033  0.2176
  923MOL0     C24504   0.605   7.773   0.017  0.3232 -0.7718  0.0084
  923MOL0     C24505   0.499   7.797  -0.072  0.6384  0.0354 -0.7432
  923MOL0     O24506   0.407   7.699  -0.094 -0.1686 -0.5734  0.1455
  923MOL0     C24507   0.452   7.570  -0.115  0.1238  0.0392  0.1297
  923MOL0     C24508   0.333   7.472  -0.121  0.9411 -0.2928 -0.1739
  923MOL0     C24509   0.262   7.455   0.020  0.5524 -0.7728 -0.2566
  923MOL0     C24510   0.331   7.369   0.122 -0.2824 -0.6502  0.9200
  923MOL0     C24511   0.230   7.309   0.219 -0.7228  0.1451 -0.3338
  923MOL0     C24512   0.162   7.418   0.298  0.4088  0.3390  0.5772
  923MOL0     C24513   0.050   7.351   0.382 -0.2023  0.1269 -0.0646
  923MOL0     C24514   0.013   7.437   0.502  0.5662  0.3771 -0.8069
  923MOL0    Cl24515  -0.098   7.577   0.446 -0.0361  0.1507 -0.3039
  923MOL0     C24516   0.494   7.921  -0.141 -0.2957  0.4740 -0.2697
  923MOL0     C24517   0.588   8.011  -0.116 -0.5362 -0.0852  0.0679
  923MOL0     O24518   0.703   8.142   0.194 -0.2645 -0.5597 -0.1365
  923MOL0     C24519   1.000   8.274   0.067 -0.2284  0.7345 -0.1356
  923MOL0     C24520   1.089   8.376   0.066  0.4714  0.6137 -0.1874
  923MOL0     N24521   1.758   8.833  -0.041 -0.8005 -0.8591  0.5356
  923MOL0     N24522   1.879   8.787  -0.076  0.3105 -0.3350 -0.5694
  923MOL0     C24523   3.231   8.638   0.071 -0.4647 -0.9131  0.4745
  923MOL0     C24524   3.358   8.674   0.084 -0.5763  0.3186 -0.0944
  923MOL0     C24525   3.782   8.675   0.213 -0.3634  0.4140  0.1523
  923MOL0     C24526   3.884   8.578   0.196 -0.3077  0.4813 -0.0862
  923MOL0     C24527   4.018   8.614   0.203 -0.7010  0.3780 -0.0917
  923MOL0     C24528   4.052   8.738   0.230  0.6117 -0.4109  0.0795
  923MOL0     O24529   4.183   8.767   0.221 -0.3748 -0.4315 -0.7926
  923MOL0     C24530   4.233   8.819   0.098 -0.5109  0.4204  0.1261
  923MOL0     C24531   4.365   8.747   0.053 -0.2524 -0.3320  0.1043
  923MOL0     C24532   4.435   8.807  -0.077 -0.0183  0.0877  0.0756
  923MOL0     C24533   4.560   8.747  -0.127 -0.6918  0.1778 -0.0559
  923MOL0     C24534   4.610   8.820  -0.244 -0.7612 -0.5981  0.0691
  923MOL0     C24535   4.668   8.871  -0.349  0.1780  1.1519 -0.5713
  923MOL0     C24536   3.956   8.839   0.248  0.0503 -0.1062  0.7664
  923MOL0     C24537   3.823   8.809   0.221  0.5644  0.1598 -0.2392
  923MOL0     H24538   3.384   8.701   0.427  0.7987  1.6493 -0.6137
  923MOL0     H24539   3.159   8.621   0.415 -2.2317 -2.0796 -0.8714
  923MOL0     H24540   2.916   8.607   0.342  2.0339  2.1189  0.7397
  923MOL0     H24541   2.927   8.742   0.235 -3.3048  0.2781  0.6457
  923MOL0     H24542   2.783   8.654   0.068 -1.2737  0.3664  0.0544
  923MOL0     H24543   2.800   8.485   0.128  0.4520 -1.4250  1.1660
  923MOL0     H24544   2.643   8.586   0.325 -0.5831  4.2696  1.4758
  923MOL0     H24545   2.647   8.729   0.217 -1.6391 -0.0877 -0.3404
  923MOL0     H24546   2.554   8.589   0.036 -0.1983 -1.3507 -0.3898
  923MOL0     H24547   2.542   8.452   0.143  1.2960 -0.0889 -1.3153
  923MOL0     H24548   2.385   8.571   0.299 -1.6266  1.4422  0.2629
  923MOL0     H24549   2.417   8.712   0.201 -1.5928  0.4521  0.2261
  923MOL0     H24550   2.320   8.584   0.007  0.9220 -2.6040  0.1179
  923MOL0     H24551   2.246   8.469   0.129 -3.0598  0.3379  0.4733
  923MOL0     H24552   2.118   8.630   0.239 -1.9482  2.6701  0.1719
  923MOL0     H24553   2.176   8.763   0.149 -0.3087 -0.3544  2.0567
  923MOL0     H24554   2.022   8.506   0.046  2.8652 -0.6178  0.5670
  923MOL0     H24555   2.093   8.619  -0.059 -2.5520 -0.6235 -0.5973
  923MOL0     H24556   1.823   8.659   0.229 -2.8210  0.9264  0.7541
  923MOL0     H24557   1.612   8.831   0.228  5.1910  0.2608 -1.3896
  923MOL0     H24558   1.540   8.880   0.082  1.8658  0.3522 -2.5382
  923MOL0     H24559   1.561   8.588   0.161 -0.8760 -2.5748 -3.7492
  923MOL0     H24560   1.504   8.654   0.001 -1.7555  0.0508  0.2743
  923MOL0     H24561   1.332   8.783   0.125  2.4206  0.7644  0.2275
  923MOL0     H24562   1.374   8.683   0.272  2.3337  2.0739 -0.4088
  923MOL0     H24563   1.304   8.495   0.131  1.1147 -0.0902 -1.7251
  923MOL0     H24564   1.298   8.588  -0.013  0.9971 -1.7065  0.3157
  923MOL0     H24565   0.888   8.617   0.175  1.0793 -0.5344  2.4144
  923MOL0     H24566   0.687   8.387   0.316  0.5699  0.1833  0.6462
  923MOL0     H24567   0.676   8.544   0.225 -0.9008  0.0291  0.2561
  923MOL0     H24568   0.597   8.427   0.161  0.0323 -0.9667  1.4228
  923MOL0     H24569   0.788   7.859   0.111  0.8981  1.1490 -0.5682
  923MOL0     H24570   0.613   7.678   0.068  0.2292  0.0425  1.6215
  923MOL0     H24571   0.511   7.563  -0.206 -0.4001 -0.5242 -0.1793
  923MOL0     H24572   0.514   7.533  -0.033 -3.1614 -2.5270  1.6851
  923MOL0     H24573   0.264   7.499  -0.202  0.4725 -2.9510 -0.7433
  923MOL0     H24574   0.377   7.379  -0.157  3.0624  0.9672 -1.0988
  923MOL0     H24575   0.159   7.421   0.005 -0.4708  2.0160 -0.2108
  923MOL0     H24576   0.256   7.557   0.058 -2.4394 -0.2036 -1.9011
  923MOL0     H24577   0.382   7.290   0.066  1.9600  1.8285 -0.7606
  923MOL0     H24578   0.414   7.433   0.154  1.3752 -0.7088 -2.7973
  923MOL0     H24579   0.272   7.233   0.285 -3.8762 -1.0025  0.5282
  923MOL0     H24580   0.158   7.254   0.157 -3.1040  0.6800  1.7582
  923MOL0     H24581   0.231   7.474   0.361  1.0449  0.6443 -0.3629
  923MOL0     H24582   0.112   7.486   0.228  1.6004 -0.6976 -1.3919
  923MOL0     H24583   0.088   7.253   0.413  0.0185  0.9227  2.3613
  923MOL0     H24584  -0.038   7.333   0.318 -0.4558 -3.7148  1.1107
  923MOL0     H24585   0.101   7.488   0.544 -0.1232  0.5922  0.4322
  923MOL0     H24586  -0.030   7.373   0.579  1.0288 -0.4798 -1.2453
  923MOL0     H24587   0.406   7.929  -0.205 -1.4072 -0.7316  1.0352
  923MOL0     H24588   0.604   8.109  -0.159 -2.6666  0.0674 -0.4702
  923MOL0     H24589   1.050   8.182   0.037 -0.9327  0.5578 -0.7865
  923MOL0     H24590   1.190   8.351   0.036  0.5846  1.4496 -0.5467
  923MOL0     H24591   3.174   8.622  -0.020 -0.0512 -1.1663  0.2564
  923MOL0     H24592   3.421   8.709   0.003 -0.9789  0.5050 -0.3297
  923MOL0     H24593   3.869   8.472   0.180 -0.1355 -0.0095  2.5788
  923MOL0     H24594   4.095   8.540   0.187 -2.3924 -1.3154 -0.8510
  923MOL0     H24595   4.160   8.820   0.017  0.9976  3.1139 -1.3222
  923MOL0     H24596   4.261   8.924   0.109 -0.7217  0.6418 -1.2616
  923MOL0     H24597   4.352   8.639   0.040  2.1186 -0.7703  0.9862
  923MOL0     H24598   4.430   8.754   0.140 -0.8124 -1.0948  0.6020
  923MOL0     H24599   4.446   8.914  -0.057 -0.7666  0.1292  0.2823
  923MOL0     H24600   4.356   8.802  -0.153 -1.4687  1.4205  1.4336
  923MOL0     H24601   4.536   8.646  -0.162 -2.7687  1.2240 -1.8987
  923MOL0     H24602   4.633   8.762  -0.047  0.8497  3.8967 -1.9274
  923MOL0     H24603   4.732   8.907  -0.427 -0.8243  0.5463 -1.7177
  923MOL0     H24604   3.999   8.937   0.265  0.4262 -0.6947  3.6479
  923MOL0     H24605   3.742   8.882   0.223  0.6975  0.5008 -2.9760
  924MOL0     O24606   6.033   8.064   4.275 -0.0004 -0.1324 -1.4615
  924MOL0     C24607   6.087   8.074   4.172 -1.2899 -0.0689  0.5910
  924MOL0     O24608   6.036   8.035   4.042 -0.3418 -0.1501 -0.0163
  924MOL0     C24609   5.906   7.992   4.037 -0.4121 -1.1360  0.9596
  924MOL0     C24610   5.883   7.862   3.996 -0.1304 -0.3355 -0.4603
  924MOL0     C24611   5.751   7.825   3.972  0.7913  0.5129  0.2455
  924MOL0     C24612   5.644   7.911   3.980  1.0277 -0.8817 -0.4144
  924MOL0     O24613   5.506   7.874   3.957 -0.1286 -0.8066 -0.1471
  924MOL0     C24614   5.485   7.765   3.868 -0.0912 -0.1217 -0.6248
  924MOL0     C24615   5.336   7.765   3.830 -0.1049 -0.8296 -0.0425
  924MOL0     C24616   5.277   7.895   3.762 -1.0619 -0.2870  0.1391
  924MOL0     C24617   5.186   7.859   3.642  0.0054 -0.3886  0.0787
  924MOL0     C24618   5.125   7.963   3.557  0.8838  0.2840 -0.4640
  924MOL0     C24619   5.045   7.891   3.440  0.0370 -0.4913 -0.4273
  924MOL0     C24620   4.947   7.971   3.361  0.0255  0.6425  0.2047
  924MOL0     C24621   4.993   8.100   3.295  0.0495 -0.1615 -0.4376
  924MOL0     N24622   4.893   8.198   3.239  0.8916 -0.3024 -0.0645
  924MOL0     C24623   4.873   8.223   3.107 -0.6561  1.1182 -0.1363
  924MOL0     C24624   4.782   8.323   3.101  0.8357 -0.4911 -0.3307
  924MOL0     C24625   4.725   8.375   2.975 -0.4216 -0.5886  0.5010
  924MOL0     C24626   4.678   8.522   2.990 -0.5619 -0.4152 -0.0303
  924MOL0     C24627   4.626   8.586   2.858 -0.3226  0.1499  0.8849
  924MOL0     C24628   4.587   8.732   2.879  0.4512  0.1583 -0.2398
  924MOL0     O24629   4.542   8.771   2.744 -0.2775 -0.4034  0.4496
  924MOL0     C24630   4.502   8.901   2.734 -0.3958 -0.0887  0.1494
  924MOL0     C24631   4.443   8.936   2.611  0.1094  0.2128  0.3758
  924MOL0     C24632   4.385   9.062   2.588  0.1569  0.3696  0.4456
  924MOL0     C24633   4.328   9.095   2.453 -0.1665  0.3145  0.1007
  924MOL0     C24634   4.381   9.155   2.697  0.0016 -0.7118  0.5286
  924MOL0     C24635   4.326   9.293   2.692 -0.0500  0.2798 -0.4079
  924MOL0     O24636   4.273   9.336   2.813 -1.1696  0.1367  0.6105
  924MOL0     C24637   4.209   9.458   2.832 -0.3114  0.1526  0.1093
  924MOL0     C24638   4.176   9.565   2.740  0.2799 -0.0809  0.3991
  924MOL0     C24639   4.128   9.688   2.785  0.0720  0.1110  0.3919
  924MOL0     C24640   4.093   9.704   2.921  0.4795  0.4670  0.5990
  924MOL0     O24641   4.037   9.824   2.950 -0.3274  0.3407 -0.0750
  924MOL0     C24642   3.916   9.818   3.032  0.1297  0.5220  0.0762
  924MOL0     C24643   3.872   9.954   3.095 -0.6247  0.1507  1.1851
  924MOL0     C24644   3.847  10.055   2.979 -0.2347 -0.2724  0.0417
  924MOL0     C24645   3.779  10.189   3.045 -0.2248  0.8858 -0.4957
  924MOL0     C24646   3.746  10.303   2.946  0.6927 -0.3041 -0.0320
  924MOL0     C24647   3.879  10.380   2.916  0.5984  0.4235 -0.1871
  924MOL0     C24648   3.875  10.411   2.766 -0.4464  0.0760  0.1193
  924MOL0     C24649   3.989  10.493   2.715 -0.5625 -0.3703  0.8061
  924MOL0    Cl24650   3.985  10.654   2.771 -0.5197  0.2641  0.3482
  924MOL0     C24651   4.112   9.598   3.013 -0.9193  0.0274 -0.7989
  924MOL0     C24652   4.178   9.480   2.971 -0.4769 -0.2279  0.6396
  924MOL0     O24653   4.333   9.364   2.592  0.1769 -1.0492 -0.7480
  924MOL0     C24654   4.455   9.124   2.818 -0.3499  0.1030 -0.1123
  924MOL0     C24655   4.515   8.996   2.836  1.1229  0.1156  0.2124
  924MOL0     N24656   4.738   8.351   3.233 -0.0857 -0.1080 -0.0765
  924MOL0     N24657   4.821   8.294   3.311  0.0911  0.3356 -0.2575
  924MOL0     C24658   5.670   8.036   4.031  0.7048  0.5572  0.3481
  924MOL0     C24659   5.797   8.088   4.052 -0.5733  0.4628  0.0952
  924MOL0     C24660   6.221   8.131   4.174  0.2478 -0.9472  0.2252
  924MOL0     C24661   6.292   8.158   4.045 -0.3103 -0.1017 -0.6219
  924MOL0     C24662   6.432   8.202   4.048  0.5994  0.4596  0.3017
  924MOL0     C24663   6.494   8.223   4.169  0.0484 -0.2091 -0.2065
  924MOL0     O24664   6.622   8.276   4.161 -0.0082  0.8110 -0.5142
  924MOL0     C24665   6.711   8.265   4.280 -0.2943  0.7606  0.0236
  924MOL0     C24666   6.842   8.343   4.259  0.1658 -0.0687  0.2416
  924MOL0     C24667   6.816   8.497   4.273 -0.6666 -0.0925  0.1118
  924MOL0     C24668   6.927   8.583   4.215 -0.1434 -0.4148  0.5581
  924MOL0     C24669   7.043   8.579   4.304  0.4723 -0.4700  0.5072
  924MOL0     C24670   7.134   8.581   4.383 -0.0752  0.3951  0.5843
  924MOL0     C24671   6.429   8.193   4.290 -0.1236 -0.1676  1.0733
  924MOL0     C24672   6.298   8.144   4.292 -0.2353  0.0565  0.5198
  924MOL0     H24673   5.963   7.791   3.984  0.1703 -0.0344 -0.2737
  924MOL0     H24674   5.742   7.721   3.943  3.3698  0.4108 -0.4294
  924MOL0     H24675   5.546   7.785   3.779 -0.7098  0.7328 -0.8725
  924MOL0     H24676   5.507   7.665   3.908 -0.6814  0.2672  0.7238
  924MOL0     H24677   5.306   7.681   3.766 -0.9681  0.0098 -0.7711
  924MOL0     H24678   5.290   7.747   3.928  1.9907  2.3904  1.7235
  924MOL0     H24679   5.216   7.946   3.838 -2.3673 -0.3787 -0.8067
  924MOL0     H24680   5.347   7.973   3.729 -1.5297  0.0306 -0.1221
  924MOL0     H24681   5.244   7.785   3.587  0.9651 -1.0466  1.8788
  924MOL0     H24682   5.102   7.800   3.679 -0.0368  0.1611  0.9012
  924MOL0     H24683   5.049   8.018   3.613  0.5620  1.8222 -2.3020
  924MOL0     H24684   5.196   8.035   3.516  1.6876  1.5962  2.9666
  924MOL0     H24685   5.129   7.856   3.378  0.7050  2.4873 -1.3641
  924MOL0     H24686   4.986   7.810   3.483 -0.1724 -1.4597 -2.4092
  924MOL0     H24687   4.901   7.906   3.285 -1.2132  0.9049  0.7143
  924MOL0     H24688   4.864   7.989   3.431 -1.3527 -0.4842 -1.0643
  924MOL0     H24689   5.066   8.080   3.217  2.4403  1.3796  1.2706
  924MOL0     H24690   5.041   8.158   3.374  1.2939 -1.5643 -0.1369
  924MOL0     H24691   4.920   8.164   3.028 -0.6160  0.5338  0.3196
  924MOL0     H24692   4.785   8.373   2.884  0.8710  2.4085  1.1773
  924MOL0     H24693   4.632   8.322   2.949 -0.6710  0.5517 -1.0587
  924MOL0     H24694   4.763   8.578   3.030  0.1657 -0.9380 -0.8213
  924MOL0     H24695   4.596   8.521   3.063  0.7525  2.0171  1.6083
  924MOL0     H24696   4.537   8.528   2.829  0.8417 -1.8048  1.0654
  924MOL0     H24697   4.697   8.586   2.775  0.5496 -1.6043  1.5750
  924MOL0     H24698   4.673   8.790   2.912  2.1618 -2.9899  1.2096
  924MOL0     H24699   4.510   8.738   2.957  1.5066 -0.9852  0.9249
  924MOL0     H24700   4.448   8.859   2.535 -3.8531  1.2318 -1.1682
  924MOL0     H24701   4.366   9.196   2.430 -0.4886 -0.0018 -1.9912
  924MOL0     H24702   4.359   9.028   2.372  0.1404  2.8962 -2.1093
  924MOL0     H24703   4.219   9.088   2.456 -0.4165  1.0527 -3.2363
  924MOL0     H24704   4.198   9.553   2.635  3.2123  2.2977  0.6060
  924MOL0     H24705   4.124   9.778   2.725  3.5369  0.7794  0.9867
  924MOL0     H24706   3.841   9.767   2.970  0.3409 -1.2447  1.1936
  924MOL0     H24707   3.932   9.744   3.111  2.3595  3.3168  2.4156
  924MOL0     H24708   3.780   9.937   3.150 -1.5897 -1.2386 -0.7421
  924MOL0     H24709   3.952   9.987   3.162  1.8560 -2.3744 -0.2988
  924MOL0     H24710   3.794  10.012   2.894  0.3964  0.6859 -0.8580
  924MOL0     H24711   3.946  10.088   2.945  1.0935 -1.5441  2.3329
  924MOL0     H24712   3.686  10.150   3.087 -2.0308  1.5922 -3.5035
  924MOL0     H24713   3.846  10.218   3.127 -1.6319 -0.9524  1.3923
  924MOL0     H24714   3.669  10.371   2.984  1.6165  1.4876 -1.2601
  924MOL0     H24715   3.709  10.252   2.857 -0.8844  0.3976  0.1924
  924MOL0     H24716   3.886  10.474   2.972  2.4184 -1.8437  3.8662
  924MOL0     H24717   3.969  10.319   2.925  0.0774 -0.5384 -1.2982
  924MOL0     H24718   3.784  10.464   2.739  1.1739  2.3380 -1.1609
  924MOL0     H24719   3.878  10.318   2.708  0.8081  0.1415  0.0421
  924MOL0     H24720   3.990  10.493   2.606  1.4647  0.7095  0.7862
  924MOL0     H24721   4.085  10.450   2.745  1.1236  0.0116 -3.4162
  924MOL0     H24722   4.100   9.618   3.119 -2.4748  1.3843 -1.1880
  924MOL0     H24723   4.179   9.400   3.045  1.5606 -1.8488 -1.0252
  924MOL0     H24724   4.458   9.190   2.904 -0.4365 -1.2113  0.9349
  924MOL0     H24725   4.573   8.982   2.927  2.7267  3.4594 -0.1312
  924MOL0     H24726   5.590   8.109   4.043  0.6628  0.5070  0.3785
  924MOL0     H24727   5.817   8.188   4.090  0.0153 -0.0904  1.3143
  924MOL0     H24728   6.244   8.138   3.951 -0.0150 -1.7223 -0.4516
  924MOL0     H24729   6.500   8.230   3.968 -0.1326  1.4985  0.0228
  924MOL0     H24730   6.660   8.280   4.375  0.5266 -3.2853  1.3193
  924MOL0     H24731   6.747   8.161   4.281  2.6902  1.7193  0.2452
  924MOL0     H24732   6.877   8.317   4.159  1.1034  3.3361 -0.4392
  924MOL0     H24733   6.911   8.303   4.334 -0.3495 -0.5446  0.4736
  924MOL0     H24734   6.794   8.519   4.378  0.9006  0.4601  0.3622
  924MOL0     H24735   6.727   8.519   4.213  1.0519 -0.3392 -2.7494
  924MOL0     H24736   6.889   8.685   4.208  1.0859  0.0981  0.9470
  924MOL0     H24737   6.950   8.553   4.112 -2.3751  3.3298 -1.2189
  924MOL0     H24738   7.216   8.584   4.452  1.1029  1.4010 -0.8069
  924MOL0     H24739   6.486   8.189   4.382  2.4954 -1.0934 -0.4588
  924MOL0     H24740   6.260   8.107   4.387  1.8220 -0.3609  1.2254
  925MOL0     O24741   5.300   8.809   4.438 -0.0294 -0.1367  0.7666
  925MOL0     C24742   5.308   8.858   4.324 -0.1986  0.0706  0.7658
  925MOL0     O24743   5.203   8.903   4.249  0.3152 -0.1860  0.5062
  925MOL0     C24744   5.075   8.902   4.300  0.6644 -0.4400  0.5222
  925MOL0     C24745   4.966   8.865   4.218  0.0485  0.4949  0.1363
  925MOL0     C24746   4.835   8.868   4.275  0.1571 -0.9407 -0.0509
  925MOL0     C24747   4.815   8.914   4.404 -0.1037  0.9966  0.0308
  925MOL0     O24748   4.681   8.914   4.440 -0.8694 -0.2605 -0.3110
  925MOL0     C24749   4.658   8.954   4.573  1.1258 -0.7170  0.2077
  925MOL0     C24750   4.513   8.971   4.608 -1.0834  0.2770  0.1300
  925MOL0     C24751   4.438   8.840   4.602  0.7484 -0.3328  0.1102
  925MOL0     C24752   4.303   8.841   4.682  0.0672  0.8507 -0.2879
  925MOL0     C24753   4.227   8.715   4.691 -0.3504  0.5657 -0.5367
  925MOL0     C24754   4.184   8.658   4.554 -0.5883  0.9907  0.5366
  925MOL0     C24755   4.032   8.634   4.542  0.4702 -0.4907 -0.6260
  925MOL0     C24756   3.943   8.752   4.502  0.5926 -0.0409  0.3559
  925MOL0     N24757   3.801   8.714   4.492  0.0341  0.5445  0.2598
  925MOL0     C24758   3.715   8.721   4.596  0.7866 -0.5349 -0.5395
  925MOL0     C24759   3.593   8.703   4.545  0.2060 -0.0047  0.2649
  925MOL0     C24760   3.458   8.706   4.600  0.5196 -0.0244  0.0761
  925MOL0     C24761   3.401   8.849   4.606  0.2703  0.1144 -0.3511
  925MOL0     C24762   3.249   8.840   4.628 -0.2671  0.4209  0.1966
  925MOL0     C24763   3.188   8.970   4.641 -1.1217  0.0005  0.2448
  925MOL0     O24764   3.054   8.974   4.679 -0.6468  0.0271  0.2543
  925MOL0     C24765   2.984   9.083   4.648  0.6351 -0.5064  0.1809
  925MOL0     C24766   3.027   9.216   4.679  0.6433 -0.0940 -0.2104
  925MOL0     C24767   2.932   9.322   4.669  0.3726 -0.2355 -0.4992
  925MOL0     C24768   2.976   9.455   4.732  0.0235  0.2677  0.5310
  925MOL0     C24769   2.794   9.289   4.644 -0.1806 -1.2778  0.3075
  925MOL0     C24770   2.687   9.393   4.653  0.1169  1.5121  0.7342
  925MOL0     O24771   2.554   9.343   4.675 -0.7469 -0.1193  0.1215
  925MOL0     C24772   2.447   9.430   4.656 -0.2097  0.2837  0.4514
  925MOL0     C24773   2.424   9.485   4.527 -0.2933  0.7555  0.1352
  925MOL0     C24774   2.315   9.563   4.505  0.0090  0.0773 -0.3025
  925MOL0     C24775   2.220   9.573   4.607 -0.5746 -0.5676  0.5573
  925MOL0     O24776   2.101   9.638   4.595  0.6313 -0.2552  0.6548
  925MOL0     C24777   2.083   9.734   4.486 -0.6725 -0.6200 -0.0155
  925MOL0     C24778   1.947   9.799   4.534  0.4590  0.7218 -0.2167
  925MOL0     C24779   1.945   9.887   4.660 -0.4119 -0.7977 -0.3881
  925MOL0     C24780   1.815   9.961   4.686  1.1445  0.1062 -0.0622
  925MOL0     C24781   1.812  10.023   4.825 -0.0954 -0.2053 -0.6753
  925MOL0     C24782   1.684  10.102   4.849  0.2271  0.3074  0.6168
  925MOL0     C24783   1.569  10.003   4.869  0.6376 -0.6524 -0.2040
  925MOL0     C24784   1.443  10.054   4.942  0.5254 -0.5899  0.3105
  925MOL0    Cl24785   1.480  10.136   5.104 -0.0349 -0.9344  0.3871
  925MOL0     C24786   2.238   9.501   4.728  0.3221 -0.1913  0.1287
  925MOL0     C24787   2.352   9.434   4.755  0.6795 -0.5756  0.1717
  925MOL0     O24788   2.713   9.502   4.606 -1.2995  0.1904 -0.4509
  925MOL0     C24789   2.764   9.166   4.612 -0.2772  0.6547  0.0710
  925MOL0     C24790   2.852   9.060   4.601  0.0728  0.1377  0.1059
  925MOL0     N24791   3.613   8.680   4.408  0.8097  0.2870  1.0870
  925MOL0     N24792   3.738   8.682   4.374 -0.2628  0.2712 -0.2595
  925MOL0     C24793   4.921   8.943   4.478 -0.3250  0.0430  0.2825
  925MOL0     C24794   5.054   8.935   4.437 -0.1411 -0.8702 -0.2060
  925MOL0     C24795   5.440   8.859   4.262 -0.1971  0.0841 -0.6455
  925MOL0     C24796   5.449   8.901   4.131  0.4482 -0.1700 -0.1108
  925MOL0     C24797   5.574   8.914   4.072 -0.3703  0.1594  0.0599
  925MOL0     C24798   5.698   8.894   4.143 -0.6096  0.1210  0.2555
  925MOL0     O24799   5.821   8.916   4.084 -0.3877 -0.3283  0.2065
  925MOL0     C24800   5.908   8.801   4.067 -0.1442 -0.2889  0.7176
  925MOL0     C24801   6.032   8.855   3.988  0.9679 -0.5835 -0.0133
  925MOL0     C24802   6.008   8.865   3.833 -0.3717 -0.2579 -0.4790
  925MOL0     C24803   6.137   8.886   3.751 -0.6303  0.3073 -0.6484
  925MOL0     C24804   6.108   8.886   3.609  0.2141 -0.0113 -0.6941
  925MOL0     C24805   6.093   8.893   3.490  0.2106 -0.4394  0.1944
  925MOL0     C24806   5.685   8.846   4.272  0.4431 -0.0917 -0.8106
  925MOL0     C24807   5.558   8.825   4.328  0.4264  0.6225  0.1441
  925MOL0     H24808   4.980   8.832   4.116 -0.6459  1.4206 -0.2670
  925MOL0     H24809   4.756   8.835   4.209 -0.7500 -3.5745  2.1334
  925MOL0     H24810   4.706   8.888   4.646 -2.4691 -0.7646  2.7515
  925MOL0     H24811   4.698   9.054   4.589 -1.1229 -0.2150  3.8020
  925MOL0     H24812   4.516   9.007   4.712  3.1030  0.1456  0.2268
  925MOL0     H24813   4.453   9.045   4.555  0.6373  1.2355 -0.5211
  925MOL0     H24814   4.419   8.815   4.497  0.5377  1.0130 -0.1927
  925MOL0     H24815   4.504   8.770   4.655 -0.9711 -0.1004  2.7404
  925MOL0     H24816   4.326   8.873   4.784  1.8438  1.4207 -0.8275
  925MOL0     H24817   4.234   8.919   4.649 -0.2971  1.0563  0.9009
  925MOL0     H24818   4.283   8.639   4.746  0.2537 -0.4000 -2.3971
  925MOL0     H24819   4.146   8.744   4.759 -0.0469 -1.4445  0.7667
  925MOL0     H24820   4.226   8.712   4.468  1.9137 -1.2353  0.2400
  925MOL0     H24821   4.239   8.565   4.545  0.0185  1.4688 -1.0098
  925MOL0     H24822   4.023   8.558   4.464 -0.4906 -3.9842  2.6245
  925MOL0     H24823   3.987   8.593   4.633 -1.2929 -0.8923 -1.6332
  925MOL0     H24824   3.986   8.791   4.409  1.9069  0.7743  1.2716
  925MOL0     H24825   3.943   8.837   4.571  0.6643  0.1348  0.1409
  925MOL0     H24826   3.729   8.747   4.701 -1.6566 -3.0234  0.5222
  925MOL0     H24827   3.397   8.635   4.542  0.6713 -1.1672  1.2572
  925MOL0     H24828   3.467   8.666   4.702  1.3689 -0.6435 -0.2229
  925MOL0     H24829   3.416   8.903   4.512 -2.4171  1.4496 -0.0940
  925MOL0     H24830   3.452   8.903   4.686  0.1448 -0.2529 -0.0208
  925MOL0     H24831   3.221   8.778   4.713 -1.2698  1.2089  0.4576
  925MOL0     H24832   3.205   8.789   4.542 -0.0154 -1.6725  1.2697
  925MOL0     H24833   3.208   9.029   4.551 -1.2367 -2.2841 -1.3718
  925MOL0     H24834   3.248   9.010   4.723  2.8052 -2.8251 -0.9451
  925MOL0     H24835   3.128   9.231   4.715  0.4036 -0.8165  0.8028
  925MOL0     H24836   3.073   9.456   4.784  0.7110  1.4303 -0.7007
  925MOL0     H24837   2.985   9.535   4.658  1.2803 -0.9172 -0.6499
  925MOL0     H24838   2.909   9.476   4.816 -0.1163  0.9529  0.2574
  925MOL0     H24839   2.496   9.468   4.447 -1.6544 -0.7358 -0.8347
  925MOL0     H24840   2.294   9.605   4.407  0.3944  1.8550  0.3243
  925MOL0     H24841   2.159   9.813   4.490 -2.4045  1.0809  0.6386
  925MOL0     H24842   2.075   9.696   4.384 -0.4811  1.6961 -0.9421
  925MOL0     H24843   1.926   9.859   4.445 -0.8484 -0.8266 -1.0193
  925MOL0     H24844   1.870   9.721   4.532  1.4632 -0.4048 -4.7772
  925MOL0     H24845   2.026   9.960   4.658 -1.7648  0.7321 -2.0115
  925MOL0     H24846   1.939   9.820   4.746 -2.4113 -1.4695 -1.0013
  925MOL0     H24847   1.791  10.045   4.621 -0.3481 -0.0264  0.2837
  925MOL0     H24848   1.738   9.886   4.672  2.3059 -0.8231 -1.7746
  925MOL0     H24849   1.897  10.092   4.824 -1.4136  1.6364  2.3179
  925MOL0     H24850   1.830   9.952   4.906  0.9243  1.6978  0.8548
  925MOL0     H24851   1.708  10.164   4.936  0.2550  2.2103 -0.7085
  925MOL0     H24852   1.659  10.171   4.769  0.8504  0.4319  0.5259
  925MOL0     H24853   1.589   9.913   4.928 -2.2127 -0.5054  1.1434
  925MOL0     H24854   1.530   9.970   4.772 -2.6010  3.2885 -0.4984
  925MOL0     H24855   1.395   9.957   4.957 -0.2094 -0.4766 -1.0825
  925MOL0     H24856   1.380  10.116   4.877 -0.5915 -1.3768  0.6061
  925MOL0     H24857   2.172   9.489   4.814 -0.6629 -6.1679 -1.0028
  925MOL0     H24858   2.352   9.373   4.846 -2.3538  0.6874  1.1431
  925MOL0     H24859   2.663   9.155   4.573  0.1621  1.6030 -1.4630
  925MOL0     H24860   2.822   8.959   4.575  2.9566 -1.6210  2.8526
  925MOL0     H24861   4.907   8.956   4.585 -1.1441  0.4260  0.1371
  925MOL0     H24862   5.128   8.966   4.510  1.1645  1.4450 -2.3690
  925MOL0     H24863   5.362   8.934   4.075 -0.0073 -0.8421  0.1891
  925MOL0     H24864   5.590   8.952   3.972 -0.9842  2.3604  0.7502
  925MOL0     H24865   5.944   8.753   4.159 -3.2404  0.2274  2.3361
  925MOL0     H24866   5.860   8.724   4.007 -1.5639  1.8269 -0.9978
  925MOL0     H24867   6.125   8.798   4.002  3.5509  3.0172 -0.9809
  925MOL0     H24868   6.059   8.955   4.026  1.6515 -0.7638  0.0005
  925MOL0     H24869   5.940   8.945   3.805  0.3346  0.3083 -0.5906
  925MOL0     H24870   5.963   8.771   3.798 -0.7914 -0.0936 -0.3809
  925MOL0     H24871   6.207   8.805   3.768 -0.0486  1.3104  2.4257
  925MOL0     H24872   6.183   8.977   3.790 -1.1367  0.6001 -0.7118
  925MOL0     H24873   6.073   8.909   3.387 -1.7596 -1.3178  0.3935
  925MOL0     H24874   5.771   8.817   4.331  1.3175 -0.6432 -2.3176
  925MOL0     H24875   5.557   8.780   4.426  2.2242  0.2204  0.0140
  926MOL0     O24876   4.103   7.087   5.918  0.0643  0.1416 -0.2200
  926MOL0     C24877   4.122   7.112   5.801 -0.2150 -0.5344  0.1281
  926MOL0     O24878   4.021   7.137   5.709  0.4854  0.1196  0.0603
  926MOL0     C24879   3.886   7.147   5.741  0.4642  0.3635 -0.1007
  926MOL0     C24880   3.824   7.117   5.867  0.0612  0.3515  1.0100
  926MOL0     C24881   3.698   7.170   5.902 -0.2281  0.0955 -0.1575
  926MOL0     C24882   3.630   7.249   5.800 -0.8163  0.0010  0.3618
  926MOL0     O24883   3.509   7.295   5.842 -0.0538 -0.1534 -0.4181
  926MOL0     C24884   3.408   7.349   5.751 -0.7751  0.3858  0.3435
  926MOL0     C24885   3.328   7.235   5.689 -0.3276  0.2571  0.2896
  926MOL0     C24886   3.241   7.161   5.805 -0.4159  0.5934 -0.7756
  926MOL0     C24887   3.097   7.211   5.824 -0.4577 -0.1527  0.5403
  926MOL0     C24888   3.017   7.151   5.714  0.2218 -0.4127 -0.0362
  926MOL0     C24889   2.873   7.209   5.712  0.3274  0.4014  0.1277
  926MOL0     C24890   2.788   7.171   5.588  0.1533 -0.1073  0.3298
  926MOL0     C24891   2.639   7.191   5.621  0.2655  0.2587  0.1565
  926MOL0     N24892   2.575   7.127   5.507  0.5081  0.2676 -0.0882
  926MOL0     C24893   2.568   6.994   5.486  0.1547  0.2140 -0.0390
  926MOL0     C24894   2.485   6.973   5.382  0.0727  0.4906  0.3274
  926MOL0     C24895   2.447   6.845   5.312  0.1763 -0.2763 -0.4075
  926MOL0     C24896   2.306   6.801   5.361 -0.0002 -0.0058  0.7450
  926MOL0     C24897   2.273   6.664   5.298 -0.1259  0.3993 -0.2517
  926MOL0     C24898   2.123   6.644   5.269  0.9235 -0.1773  0.2309
  926MOL0     O24899   2.055   6.610   5.388 -0.4737  0.3023 -0.5431
  926MOL0     C24900   1.923   6.577   5.386 -0.4277  0.2567 -0.4588
  926MOL0     C24901   1.836   6.610   5.276  0.3764  1.1946  0.0671
  926MOL0     C24902   1.703   6.591   5.276  0.3798 -0.3174 -0.0497
  926MOL0     C24903   1.634   6.629   5.145  0.6263 -0.2853  0.1463
  926MOL0     C24904   1.643   6.552   5.394 -0.4882  0.4798  0.0333
  926MOL0     C24905   1.506   6.513   5.408 -0.3809  0.6714 -0.4770
  926MOL0     O24906   1.438   6.492   5.302  0.0206  1.0383  0.0899
  926MOL0     C24907   1.312   6.454   5.317  0.2367  1.1359  0.8393
  926MOL0     C24908   1.267   6.327   5.330 -0.4874 -0.5117 -0.5596
  926MOL0     C24909   1.134   6.281   5.331 -0.2964 -1.0022 -0.2581
  926MOL0     C24910   1.028   6.384   5.308 -0.5036  0.5444 -0.4168
  926MOL0     O24911   0.893   6.357   5.289 -1.0368 -0.5824 -0.4204
  926MOL0     C24912   0.844   6.224   5.300  0.3476  0.7795 -0.1864
  926MOL0     C24913   0.718   6.219   5.226  0.0879 -0.4952  0.5637
  926MOL0     C24914   0.621   6.110   5.264 -0.2370  0.1426 -0.1893
  926MOL0     C24915   0.485   6.130   5.201  0.1049  0.2640 -0.1226
  926MOL0     C24916   0.384   6.029   5.249 -0.5499  0.4894 -0.0423
  926MOL0     C24917   0.382   5.905   5.165 -0.2628 -0.6130  0.2475
  926MOL0     C24918   0.270   5.808   5.221  0.1810  0.4837  0.5729
  926MOL0     C24919   0.251   5.688   5.128  0.8965  0.3870  0.2223
  926MOL0    Cl24920   0.214   5.743   4.954 -0.1218 -0.6486 -0.5694
  926MOL0     C24921   1.073   6.510   5.296  0.0972  0.1436  0.7605
  926MOL0     C24922   1.209   6.549   5.295  0.6039 -0.5448 -0.0855
  926MOL0     O24923   1.464   6.520   5.523  0.3268  0.5803 -1.2032
  926MOL0     C24924   1.724   6.542   5.511  0.5767  0.2108 -0.0971
  926MOL0     C24925   1.861   6.553   5.508 -0.2788  1.5526  0.0637
  926MOL0     N24926   2.450   7.098   5.334  0.4217 -0.0864  1.1283
  926MOL0     N24927   2.496   7.189   5.407 -0.3069  0.3188  0.5123
  926MOL0     C24928   3.682   7.261   5.668  0.3833 -0.0234  0.1136
  926MOL0     C24929   3.806   7.209   5.650 -0.1593  0.2735  0.0211
  926MOL0     C24930   4.262   7.098   5.746 -0.0459  0.9459 -0.3658
  926MOL0     C24931   4.288   7.109   5.609 -0.1907  0.2433  0.4139
  926MOL0     C24932   4.418   7.110   5.555  0.6202  0.0841  0.3788
  926MOL0     C24933   4.525   7.089   5.639  0.1953 -0.1237 -0.1326
  926MOL0     O24934   4.653   7.079   5.596 -0.0024  0.7016  0.1554
  926MOL0     C24935   4.681   7.104   5.464 -0.4043  0.3870 -0.4960
  926MOL0     C24936   4.825   7.082   5.436 -0.8205 -0.4149 -0.1840
  926MOL0     C24937   4.876   7.098   5.291 -0.3828 -0.3167 -0.7649
  926MOL0     C24938   5.018   7.040   5.277 -0.5991  1.4902 -0.0154
  926MOL0     C24939   5.090   7.058   5.148  0.3843  0.3282 -0.2643
  926MOL0     C24940   5.151   7.073   5.040 -0.2196 -0.1382  0.1468
  926MOL0     C24941   4.497   7.064   5.774  0.5302  0.2124 -0.9370
  926MOL0     C24942   4.374   7.079   5.827 -0.5738 -0.3690 -0.0504
  926MOL0     H24943   3.876   7.058   5.942  0.8088 -0.7850 -0.3316
  926MOL0     H24944   3.652   7.157   5.999 -0.7073  3.2699  0.1639
  926MOL0     H24945   3.328   7.401   5.805 -2.4710  0.0637 -1.7594
  926MOL0     H24946   3.454   7.419   5.681  1.7133  0.8794  2.3010
  926MOL0     H24947   3.268   7.273   5.605 -1.4825 -4.0064 -1.0285
  926MOL0     H24948   3.397   7.164   5.644 -0.1070  0.7923 -0.2372
  926MOL0     H24949   3.230   7.056   5.780  1.2856 -0.1873  1.4200
  926MOL0     H24950   3.302   7.164   5.896 -0.0151  0.4706 -1.0427
  926MOL0     H24951   3.053   7.181   5.919  0.5839 -0.0180  1.0837
  926MOL0     H24952   3.105   7.319   5.811 -0.8703 -0.1046  0.6817
  926MOL0     H24953   3.069   7.170   5.620  1.3204  1.2594  0.8589
  926MOL0     H24954   3.014   7.043   5.727  0.4950 -0.6769 -1.9172
  926MOL0     H24955   2.818   7.163   5.795 -1.0584  0.9707 -0.4427
  926MOL0     H24956   2.867   7.318   5.716  0.1499  0.3988 -0.0501
  926MOL0     H24957   2.815   7.236   5.504  0.5524  0.8146  1.1522
  926MOL0     H24958   2.807   7.066   5.563  0.9283  0.0348  0.2948
  926MOL0     H24959   2.609   7.296   5.625 -1.9418 -0.2097 -2.0544
  926MOL0     H24960   2.597   7.146   5.712  1.3874 -1.3598 -0.0912
  926MOL0     H24961   2.620   6.920   5.547 -0.5723  2.3078  3.3884
  926MOL0     H24962   2.460   6.855   5.204  0.6639  0.6074 -0.2808
  926MOL0     H24963   2.517   6.768   5.346  0.8831  0.3622 -0.3788
  926MOL0     H24964   2.234   6.876   5.328 -0.5648  0.3184  2.5787
  926MOL0     H24965   2.299   6.790   5.470  0.9613  0.3320  0.8517
  926MOL0     H24966   2.297   6.586   5.371  2.4336  3.4818  2.5827
  926MOL0     H24967   2.329   6.648   5.205  1.5406  0.4579  0.6875
  926MOL0     H24968   2.101   6.573   5.188  0.5243  3.7880 -3.5506
  926MOL0     H24969   2.081   6.735   5.225 -2.3954 -0.8405  1.7033
  926MOL0     H24970   1.882   6.646   5.185 -1.3582  2.0331 -0.5297
  926MOL0     H24971   1.532   6.666   5.161  1.2661  0.9431  1.6327
  926MOL0     H24972   1.684   6.707   5.087  0.3836 -0.5440 -0.4193
  926MOL0     H24973   1.622   6.536   5.088  0.5180 -0.3312  0.2440
  926MOL0     H24974   1.340   6.251   5.358 -0.4559  0.1443  1.3259
  926MOL0     H24975   1.109   6.177   5.350 -0.1935 -0.6073  2.6124
  926MOL0     H24976   0.911   6.145   5.265  0.7849  1.4705 -0.9357
  926MOL0     H24977   0.832   6.216   5.409  1.5513 -1.1676 -0.1564
  926MOL0     H24978   0.665   6.314   5.234 -0.2057 -0.5003 -0.9565
  926MOL0     H24979   0.750   6.201   5.123 -4.2993 -0.4312 -1.0259
  926MOL0     H24980   0.607   6.108   5.372 -0.1674 -1.0762 -0.1839
  926MOL0     H24981   0.662   6.013   5.233  2.2010  0.9122  0.4246
  926MOL0     H24982   0.448   6.226   5.238 -1.6646 -0.3191 -0.2950
  926MOL0     H24983   0.485   6.128   5.092  1.9475 -0.5727 -0.1410
  926MOL0     H24984   0.286   6.076   5.253 -1.5472 -1.5954  1.4729
  926MOL0     H24985   0.400   6.013   5.356 -0.2301  1.5809  0.0863
  926MOL0     H24986   0.375   5.925   5.057  1.3929 -2.7338 -0.3208
  926MOL0     H24987   0.469   5.839   5.170 -0.6717 -1.5326 -2.5517
  926MOL0     H24988   0.174   5.861   5.227 -1.0599 -1.7970  2.7484
  926MOL0     H24989   0.304   5.781   5.321 -2.3973  2.0562  1.9731
  926MOL0     H24990   0.159   5.642   5.164  0.9242 -0.8155 -1.1135
  926MOL0     H24991   0.335   5.619   5.115 -0.2408 -1.6170  2.7578
  926MOL0     H24992   1.002   6.591   5.283 -1.3256 -0.9339  1.4347
  926MOL0     H24993   1.235   6.650   5.265  1.6823 -1.0480 -0.9080
  926MOL0     H24994   1.692   6.512   5.611 -1.1636 -3.0418 -1.4804
  926MOL0     H24995   1.916   6.543   5.601  0.9323 -5.2948 -0.8233
  926MOL0     H24996   3.629   7.320   5.594  0.7253  0.5001  0.2831
  926MOL0     H24997   3.839   7.228   5.548  0.8210 -3.1596 -0.4448
  926MOL0     H24998   4.210   7.130   5.536 -1.3562  3.1010  2.2649
  926MOL0     H24999   4.431   7.123   5.448 -2.0638  0.1996 -0.0047
  926MOL0     H25000   4.612   7.035   5.414  1.7449 -3.6539  1.6571
  926MOL0     H25001   4.646   7.206   5.443 -2.0094  0.8836  3.6502
  926MOL0     H25002   4.857   6.982   5.465 -0.9143  0.1997  2.2558
  926MOL0     H25003   4.877   7.144   5.510  1.5801 -2.2061 -0.2899
  926MOL0     H25004   4.889   7.204   5.264  1.9026 -0.5558 -0.8437
  926MOL0     H25005   4.811   7.037   5.227  0.6081 -3.6319  1.1814
  926MOL0     H25006   4.999   6.935   5.303 -2.1843  1.4946 -1.0378
  926MOL0     H25007   5.084   7.087   5.350  0.9627  0.3193 -0.5973
  926MOL0     H25008   5.189   7.061   4.941 -2.4606 -1.7083 -0.6008
  926MOL0     H25009   4.572   7.041   5.849  1.2532 -0.5701 -1.8537
  926MOL0     H25010   4.375   7.083   5.935  0.2294 -1.2721 -0.0093
  927MOL0     O25011   8.992   1.672   4.343  1.2276 -0.3045  0.4349
  927MOL0     C25012   8.977   1.554   4.389 -0.4482 -0.7227 -0.4240
  927MOL0     O25013   8.867   1.475   4.389  0.0788 -0.0098  0.4539
  927MOL0     C25014   8.759   1.536   4.332  0.0405  0.3172 -0.8854
  927MOL0     C25015   8.744   1.551   4.200 -0.5059  0.6933  0.7383
  927MOL0     C25016   8.630   1.608   4.139 -0.2586 -0.3552 -0.0957
  927MOL0     C25017   8.532   1.661   4.219 -0.1109 -0.3338 -0.5206
  927MOL0     O25018   8.431   1.730   4.158  0.6266 -0.0544 -0.1944
  927MOL0     C25019   8.337   1.814   4.233  0.6937  1.0067  0.4067
  927MOL0     C25020   8.219   1.729   4.294 -0.4368  0.3515 -0.1955
  927MOL0     C25021   8.124   1.660   4.191  0.2229 -0.2779  0.2725
  927MOL0     C25022   8.139   1.516   4.186 -0.1079  0.4706 -0.6105
  927MOL0     C25023   8.015   1.442   4.121  0.9819 -0.4607  0.5327
  927MOL0     C25024   8.027   1.288   4.153 -0.3132 -0.6443  0.6563
  927MOL0     C25025   7.901   1.227   4.107 -0.7626 -0.4839  0.1260
  927MOL0     C25026   7.912   1.070   4.100 -0.3330 -0.7112 -0.4583
  927MOL0     N25027   7.911   1.006   4.234 -0.3351  0.6194 -0.2284
  927MOL0     C25028   8.016   0.977   4.312 -0.2679  0.5345  0.2233
  927MOL0     C25029   7.963   0.923   4.419 -0.0729  0.2933 -0.1699
  927MOL0     C25030   8.030   0.871   4.542 -0.4164 -0.5218 -0.1861
  927MOL0     C25031   8.159   0.788   4.512 -0.4746 -0.0709  0.4673
  927MOL0     C25032   8.156   0.660   4.422 -0.0621  0.3247 -0.5031
  927MOL0     C25033   8.046   0.572   4.483 -0.5175  0.8752  0.0433
  927MOL0     O25034   8.037   0.438   4.421  0.4996 -0.1825 -0.4693
  927MOL0     C25035   7.927   0.351   4.453 -0.9069  0.7737 -0.4804
  927MOL0     C25036   7.941   0.216   4.413 -0.0201  0.1865  0.1973
  927MOL0     C25037   7.846   0.119   4.442  0.9590 -0.9554  0.1098
  927MOL0     C25038   7.879  -0.016   4.392  0.1670  0.0687  0.0349
  927MOL0     C25039   7.722   0.157   4.506 -0.1246  0.5694 -0.2056
  927MOL0     C25040   7.604   0.066   4.531  0.5206  0.3145 -0.0156
  927MOL0     O25041   7.487   0.128   4.574  0.6869 -0.3035 -0.5287
  927MOL0     C25042   7.389   0.036   4.615  0.5598  0.1294  0.2527
  927MOL0     C25043   7.280   0.009   4.536 -0.4274  0.3824  0.1819
  927MOL0     C25044   7.184  -0.084   4.568 -0.6491 -0.8257 -0.7210
  927MOL0     C25045   7.196  -0.157   4.685  0.3764  0.7820 -0.2502
  927MOL0     O25046   7.097  -0.246   4.718  0.5304  0.4064 -0.6691
  927MOL0     C25047   6.962  -0.208   4.713  0.4962  1.1769 -0.4719
  927MOL0     C25048   6.885  -0.309   4.797  0.1902  0.1297 -0.4872
  927MOL0     C25049   6.746  -0.246   4.832  0.2602 -0.3787  0.0608
  927MOL0     C25050   6.665  -0.349   4.904  0.9494  0.3208  0.2746
  927MOL0     C25051   6.535  -0.277   4.946  0.0458 -0.0703  0.2725
  927MOL0     C25052   6.423  -0.364   5.015  0.1491  0.2942 -0.2483
  927MOL0     C25053   6.292  -0.282   5.054  0.0499 -0.4149 -0.1541
  927MOL0     C25054   6.185  -0.390   5.085 -0.3604 -0.4932  0.3719
  927MOL0    Cl25055   6.051  -0.311   5.157 -0.2062 -0.0951  0.0469
  927MOL0     C25056   7.304  -0.137   4.768  0.3898  0.4095  0.7131
  927MOL0     C25057   7.400  -0.041   4.727 -0.3134 -1.1407  0.0938
  927MOL0     O25058   7.617  -0.053   4.500  0.0727 -0.4053 -0.3643
  927MOL0     C25059   7.716   0.292   4.553  0.5196 -0.6442  0.2716
  927MOL0     C25060   7.813   0.383   4.520  0.0563 -0.2848  0.2895
  927MOL0     N25061   7.818   0.916   4.406 -0.1502  0.1245  0.4571
  927MOL0     N25062   7.800   0.952   4.281 -0.3776 -0.2546  0.3669
  927MOL0     C25063   8.546   1.652   4.358  0.0099  0.0651 -0.2637
  927MOL0     C25064   8.657   1.592   4.417  0.3463  0.3473  0.0929
  927MOL0     C25065   9.097   1.494   4.447  0.6323 -0.1189  0.5045
  927MOL0     C25066   9.085   1.391   4.538  0.3743 -0.7786 -0.1711
  927MOL0     C25067   9.201   1.325   4.593  0.4679 -0.2885 -0.1503
  927MOL0     C25068   9.328   1.374   4.565 -0.0498 -0.5986  0.5401
  927MOL0     O25069   9.451   1.331   4.616  0.2448 -0.8670  0.0459
  927MOL0     C25070   9.459   1.299   4.755  0.2231 -0.3624 -0.2937
  927MOL0     C25071   9.588   1.249   4.809 -0.7609 -0.0385  0.4405
  927MOL0     C25072   9.697   1.356   4.805  0.4602 -0.1310  0.1732
  927MOL0     C25073   9.839   1.286   4.826 -0.4793  0.3949 -0.5722
  927MOL0     C25074   9.880   1.260   4.967 -0.4716 -0.1707  0.1550
  927MOL0     C25075   9.906   1.244   5.082  0.9333  0.0906 -0.0737
  927MOL0     C25076   9.341   1.468   4.466 -0.0409 -0.1462  0.1960
  927MOL0     C25077   9.226   1.526   4.402 -0.3846  0.0175  0.8002
  927MOL0     H25078   8.825   1.510   4.140 -2.1820 -0.7974 -0.6277
  927MOL0     H25079   8.611   1.630   4.034  0.0012 -2.9821 -0.7772
  927MOL0     H25080   8.386   1.868   4.314 -1.4216  1.5429  1.4010
  927MOL0     H25081   8.292   1.883   4.161  1.6362  1.0581 -0.1443
  927MOL0     H25082   8.267   1.651   4.353 -0.4549  1.0166  0.7194
  927MOL0     H25083   8.166   1.797   4.362  1.1726  1.8538 -0.3424
  927MOL0     H25084   8.023   1.673   4.231 -0.5623 -3.1001 -0.5297
  927MOL0     H25085   8.121   1.697   4.089 -0.0664  0.1485  0.4325
  927MOL0     H25086   8.226   1.483   4.127 -0.7337  1.3022 -2.0350
  927MOL0     H25087   8.150   1.480   4.288 -1.6982 -1.5485 -1.0869
  927MOL0     H25088   7.930   1.494   4.167  1.0349  1.4949 -1.4071
  927MOL0     H25089   8.009   1.458   4.013  1.4078  0.2499  0.6043
  927MOL0     H25090   8.116   1.246   4.106 -0.4530 -2.0757  1.6231
  927MOL0     H25091   8.039   1.266   4.259  0.5506 -1.2560  0.4385
  927MOL0     H25092   7.822   1.256   4.177 -0.4090  1.8199 -0.3268
  927MOL0     H25093   7.873   1.254   4.004  2.4419  1.7831 -0.2995
  927MOL0     H25094   8.008   1.043   4.054  0.0326  1.1588 -0.8727
  927MOL0     H25095   7.824   1.037   4.045 -0.0311 -1.7216 -0.3506
  927MOL0     H25096   8.113   1.015   4.282 -0.1831  1.0215  1.0867
  927MOL0     H25097   8.068   0.954   4.603  0.8394 -0.4571 -1.0006
  927MOL0     H25098   7.966   0.807   4.603  1.9244 -0.0259  3.0480
  927MOL0     H25099   8.206   0.744   4.601 -1.8557 -0.9001  0.8156
  927MOL0     H25100   8.227   0.864   4.473  0.7484 -1.2823  0.1732
  927MOL0     H25101   8.252   0.609   4.432 -0.8490 -1.0270  0.5891
  927MOL0     H25102   8.141   0.677   4.315  2.0115  0.2438 -0.8380
  927MOL0     H25103   7.960   0.638   4.467 -0.5748  1.1842  1.4516
  927MOL0     H25104   8.064   0.561   4.591 -1.9506  0.8205  0.2965
  927MOL0     H25105   8.032   0.184   4.365  2.4443  1.3650  3.6962
  927MOL0     H25106   7.868  -0.093   4.469 -0.5697 -0.5723 -0.6948
  927MOL0     H25107   7.810  -0.041   4.311 -0.4489  0.5721  0.3929
  927MOL0     H25108   7.979  -0.023   4.348 -0.0897 -0.6087 -0.4558
  927MOL0     H25109   7.270   0.051   4.436 -0.3152 -0.1905 -0.0731
  927MOL0     H25110   7.094  -0.096   4.507 -0.0132  0.6461 -2.0260
  927MOL0     H25111   6.952  -0.106   4.751  3.4412  1.1673  0.5511
  927MOL0     H25112   6.924  -0.204   4.610  2.0214  2.6791 -1.0234
  927MOL0     H25113   6.883  -0.410   4.755  0.8588 -0.2489  0.3591
  927MOL0     H25114   6.949  -0.313   4.885  1.1354 -0.1446 -1.1670
  927MOL0     H25115   6.696  -0.205   4.744  2.1613  0.4590 -0.6795
  927MOL0     H25116   6.776  -0.170   4.905  1.7024 -0.0928 -0.7829
  927MOL0     H25117   6.656  -0.433   4.834 -0.3216  1.2649 -0.7340
  927MOL0     H25118   6.704  -0.399   4.993 -2.2299 -3.6532 -0.2642
  927MOL0     H25119   6.497  -0.225   4.858 -2.2401 -0.8186  0.7288
  927MOL0     H25120   6.554  -0.200   5.021  3.2104 -0.4582 -0.0016
  927MOL0     H25121   6.394  -0.458   4.968 -1.8943 -0.1580  1.7055
  927MOL0     H25122   6.465  -0.394   5.111  1.1527  1.2536 -0.3684
  927MOL0     H25123   6.256  -0.218   4.973 -1.3109 -0.5397  0.3283
  927MOL0     H25124   6.307  -0.209   5.134 -1.2687 -0.7926  0.4646
  927MOL0     H25125   6.228  -0.471   5.145  1.0950  0.5177  0.7482
  927MOL0     H25126   6.153  -0.432   4.989  0.3144 -0.5482  0.1652
  927MOL0     H25127   7.304  -0.191   4.862 -2.4433 -1.1698 -0.0480
  927MOL0     H25128   7.484  -0.014   4.790 -1.9880  4.1062  0.5068
  927MOL0     H25129   7.628   0.322   4.609 -0.7289  0.6499 -2.2093
  927MOL0     H25130   7.818   0.483   4.563  2.3231 -0.5781  0.7911
  927MOL0     H25131   8.476   1.687   4.433  1.2451  1.5997  0.2243
  927MOL0     H25132   8.668   1.588   4.525 -4.7353  1.1618  0.8654
  927MOL0     H25133   8.991   1.352   4.575 -0.5154 -0.7110 -2.2569
  927MOL0     H25134   9.182   1.246   4.664 -1.2481 -0.5406 -0.8437
  927MOL0     H25135   9.422   1.389   4.804 -0.1690 -0.0572 -1.1332
  927MOL0     H25136   9.381   1.225   4.775  1.6115 -1.6573  0.5608
  927MOL0     H25137   9.614   1.163   4.746  0.1203 -0.2292  1.0531
  927MOL0     H25138   9.586   1.225   4.915 -2.0765  1.8144  0.8916
  927MOL0     H25139   9.676   1.430   4.883  0.8415 -0.1474  0.2945
  927MOL0     H25140   9.698   1.395   4.703  2.9206 -0.8818 -0.1666
  927MOL0     H25141   9.918   1.351   4.787  0.6674  1.3616  3.0020
  927MOL0     H25142   9.838   1.197   4.762 -4.0647  1.4249 -2.1893
  927MOL0     H25143   9.928   1.216   5.183  3.3718  1.3823 -0.1623
  927MOL0     H25144   9.440   1.496   4.429 -0.2832  1.1425  0.4657
  927MOL0     H25145   9.239   1.590   4.315 -0.7556  0.7341  1.2634
  928MOL0     O25146  10.030   1.830   3.291  0.1510  0.2368 -0.0338
  928MOL0     C25147  10.048   1.707   3.294 -0.4309 -0.3648 -0.6334
  928MOL0     O25148   9.959   1.614   3.259  0.4750 -0.1663 -0.0493
  928MOL0     C25149   9.836   1.653   3.205  0.2214  0.1495 -0.4961
  928MOL0     C25150   9.806   1.595   3.089 -0.2504  0.2239  1.0666
  928MOL0     C25151   9.674   1.605   3.033 -0.4679  0.0093 -0.0165
  928MOL0     C25152   9.578   1.688   3.096  0.5710  0.7000  0.2826
  928MOL0     O25153   9.444   1.709   3.056 -0.2828 -0.1911 -0.1394
  928MOL0     C25154   9.409   1.643   2.941  0.9022 -0.2366  0.7369
  928MOL0     C25155   9.265   1.673   2.914  0.6713  0.1000 -0.2700
  928MOL0     C25156   9.219   1.812   2.915  0.9217 -0.6260 -0.6490
  928MOL0     C25157   9.060   1.824   2.901 -0.7801 -0.4631  0.5436
  928MOL0     C25158   9.006   1.775   2.765  0.3036 -0.1610 -0.4361
  928MOL0     C25159   9.074   1.838   2.649 -0.2126 -0.5615  0.3191
  928MOL0     C25160   9.005   1.785   2.530  0.2666 -0.7700 -0.4569
  928MOL0     C25161   9.054   1.846   2.398 -0.2010 -0.3469 -0.2242
  928MOL0     N25162   8.970   1.794   2.291 -0.4624 -0.8252  0.6174
  928MOL0     C25163   8.855   1.860   2.257  0.1120 -0.0871  0.3800
  928MOL0     C25164   8.836   1.832   2.128 -0.2145 -0.4181  0.2629
  928MOL0     C25165   8.743   1.892   2.028 -0.1184 -0.5579 -0.5808
  928MOL0     C25166   8.602   1.842   2.042 -0.5694 -0.5901 -0.0887
  928MOL0     C25167   8.570   1.783   1.908  0.1335  0.1958  0.5161
  928MOL0     C25168   8.437   1.710   1.910  0.4321 -0.7560 -0.1551
  928MOL0     O25169   8.322   1.797   1.926  0.2235 -0.4739 -0.0596
  928MOL0     C25170   8.191   1.755   1.902  0.1945  0.5962 -0.3221
  928MOL0     C25171   8.089   1.845   1.943 -0.3197 -0.4790 -0.2002
  928MOL0     C25172   7.954   1.816   1.914  0.0687  0.3841 -0.7673
  928MOL0     C25173   7.857   1.924   1.931 -0.2386 -0.6454 -0.4635
  928MOL0     C25174   7.918   1.696   1.843 -0.1448 -1.0374  0.3863
  928MOL0     C25175   7.776   1.672   1.799 -0.6639  0.7832 -0.0576
  928MOL0     O25176   7.748   1.654   1.664 -0.1890  0.0053 -0.2871
  928MOL0     C25177   7.636   1.575   1.639 -0.6596  0.1545 -0.5980
  928MOL0     C25178   7.620   1.452   1.698  0.2724  0.3943  0.7519
  928MOL0     C25179   7.499   1.380   1.676 -0.3195  0.0326 -0.7906
  928MOL0     C25180   7.403   1.422   1.595  0.0032  0.3762 -0.3568
  928MOL0     O25181   7.289   1.336   1.578  0.0882  0.2662  0.6430
  928MOL0     C25182   7.198   1.390   1.479 -0.1533 -0.2755 -0.6258
  928MOL0     C25183   7.067   1.311   1.451  0.0239  0.4610  0.6767
  928MOL0     C25184   6.988   1.257   1.572  0.2823  0.1979 -0.4449
  928MOL0     C25185   6.861   1.190   1.524 -0.2505 -0.5355  0.4203
  928MOL0     C25186   6.745   1.162   1.629 -0.6558 -0.2387  0.0192
  928MOL0     C25187   6.639   1.064   1.585 -0.0681 -0.2686  0.1526
  928MOL0     C25188   6.510   1.137   1.537  0.5903  0.7737  0.5622
  928MOL0     C25189   6.412   1.151   1.659 -0.3242  0.3297 -0.0458
  928MOL0    Cl25190   6.250   1.192   1.586 -0.1055 -0.3188 -0.1707
  928MOL0     C25191   7.419   1.550   1.534  0.1507  0.4132  0.0078
  928MOL0     C25192   7.536   1.619   1.547  0.8865 -0.3325  0.2332
  928MOL0     O25193   7.696   1.668   1.890  0.0964 -0.4483 -0.2289
  928MOL0     C25194   8.026   1.612   1.809 -0.1854 -0.1284  0.5346
  928MOL0     C25195   8.156   1.634   1.842 -0.3172 -0.1361  0.4291
  928MOL0     N25196   8.927   1.731   2.096  0.0008  0.4869 -0.4851
  928MOL0     N25197   9.021   1.717   2.193 -0.2323  0.5288  0.3459
  928MOL0     C25198   9.611   1.742   3.222 -0.4701  0.0179 -0.2864
  928MOL0     C25199   9.740   1.720   3.275  0.4580 -0.5197  0.0336
  928MOL0     C25200  10.182   1.652   3.329 -0.8415  1.5333 -0.7347
  928MOL0     C25201  10.189   1.508   3.339 -0.6698  0.0249 -0.4511
  928MOL0     C25202  10.315   1.441   3.355  0.8534 -0.2457 -0.3741
  928MOL0     C25203  10.426   1.522   3.382  0.2803  0.4026  0.0634
  928MOL0     O25204  10.553   1.481   3.413 -0.4427 -0.2596 -0.0503
  928MOL0     C25205  10.572   1.336   3.438 -0.1947  0.1058  0.0355
  928MOL0     C25206  10.510   1.288   3.567  0.0937  0.4652 -0.1007
  928MOL0     C25207  10.574   1.349   3.696  0.5417  0.3212  0.0290
  928MOL0     C25208  10.713   1.322   3.725  0.4626 -0.0075  0.1043
  928MOL0     C25209  10.751   1.177   3.736  1.2286 -0.5152 -0.5918
  928MOL0     C25210  10.789   1.066   3.742 -0.4246  0.3258  0.3452
  928MOL0     C25211  10.417   1.663   3.392  0.2444 -0.1460  0.6508
  928MOL0     C25212  10.302   1.724   3.358  0.1580  0.5850 -0.2161
  928MOL0     H25213   9.883   1.533   3.043  0.3007  0.9913  0.9230
  928MOL0     H25214   9.649   1.557   2.939 -1.0719 -1.2137  0.7412
  928MOL0     H25215   9.475   1.664   2.856  0.2708  0.9226  0.5056
  928MOL0     H25216   9.416   1.536   2.960  0.9056 -0.3059  0.3521
  928MOL0     H25217   9.242   1.634   2.815 -1.2350  2.6236 -0.9260
  928MOL0     H25218   9.204   1.607   2.977 -1.6907  1.7616 -0.7010
  928MOL0     H25219   9.249   1.866   3.005 -0.2459 -1.5992  0.3650
  928MOL0     H25220   9.268   1.861   2.831 -0.5232 -1.0095 -1.7583
  928MOL0     H25221   9.027   1.760   2.984 -0.8581 -0.3320  0.6145
  928MOL0     H25222   9.026   1.924   2.926  4.1848  1.3974  1.0470
  928MOL0     H25223   9.003   1.666   2.754 -2.2796 -0.4931  2.2721
  928MOL0     H25224   8.902   1.809   2.759  0.7088  1.1338 -0.3057
  928MOL0     H25225   9.081   1.946   2.661 -0.1176  0.0668 -3.9248
  928MOL0     H25226   9.177   1.800   2.644 -0.2998 -0.7638 -0.0110
  928MOL0     H25227   9.002   1.676   2.526 -1.4179 -0.7496 -0.6329
  928MOL0     H25228   8.900   1.815   2.534  0.4677  0.0321 -1.0640
  928MOL0     H25229   9.154   1.807   2.376 -1.2889 -3.2550 -0.4084
  928MOL0     H25230   9.058   1.955   2.406 -2.6165 -0.0588 -1.9499
  928MOL0     H25231   8.806   1.942   2.308 -0.8416 -1.4636  1.7951
  928MOL0     H25232   8.742   1.999   2.052  1.2749 -0.3431 -1.3163
  928MOL0     H25233   8.788   1.892   1.928 -0.2325 -0.7980 -0.6337
  928MOL0     H25234   8.538   1.930   2.060  0.0966 -0.3083  1.0114
  928MOL0     H25235   8.592   1.771   2.124 -1.5451 -1.8091 -1.2203
  928MOL0     H25236   8.652   1.717   1.877 -0.5343 -1.0493  1.3105
  928MOL0     H25237   8.571   1.863   1.833  1.7468  0.5145  0.8350
  928MOL0     H25238   8.438   1.629   1.984  2.8343 -0.0640  0.6659
  928MOL0     H25239   8.421   1.659   1.815 -1.1305  1.2784 -1.0662
  928MOL0     H25240   8.103   1.945   1.984 -2.8567  0.0529 -0.4371
  928MOL0     H25241   7.776   1.898   1.999 -1.4913  1.0900 -1.2132
  928MOL0     H25242   7.910   2.014   1.963  2.1208 -1.4111 -1.9586
  928MOL0     H25243   7.804   1.952   1.839 -0.7490  3.1145  0.7988
  928MOL0     H25244   7.703   1.411   1.754 -1.0204 -1.0183  1.7013
  928MOL0     H25245   7.468   1.289   1.726 -1.5921 -0.1428 -1.8290
  928MOL0     H25246   7.156   1.482   1.519  0.0847 -1.0088  1.4213
  928MOL0     H25247   7.250   1.407   1.384  2.0020 -3.4365 -0.2006
  928MOL0     H25248   7.008   1.376   1.385  0.1189  0.5689  0.6970
  928MOL0     H25249   7.076   1.223   1.386 -1.7864  0.4815  0.3615
  928MOL0     H25250   6.964   1.344   1.633 -0.9563 -0.8111  0.5625
  928MOL0     H25251   7.029   1.181   1.639 -1.9555  0.2486  1.0943
  928MOL0     H25252   6.818   1.245   1.440  2.3246 -0.4278 -0.9589
  928MOL0     H25253   6.882   1.095   1.474  0.0980 -0.3729  0.2547
  928MOL0     H25254   6.702   1.258   1.660  1.6402  1.1115 -0.7274
  928MOL0     H25255   6.793   1.122   1.718 -0.7804 -2.5779 -0.8816
  928MOL0     H25256   6.675   1.002   1.502  1.9843  3.2043 -1.7673
  928MOL0     H25257   6.618   1.003   1.674 -3.2653 -0.0200 -0.2996
  928MOL0     H25258   6.463   1.070   1.465  0.2788  0.1855  1.2927
  928MOL0     H25259   6.525   1.232   1.487 -2.5001 -0.3358 -2.9248
  928MOL0     H25260   6.437   1.234   1.727 -0.6094  2.9464 -2.9212
  928MOL0     H25261   6.400   1.058   1.716  1.6369 -0.8452 -1.4413
  928MOL0     H25262   7.346   1.584   1.462  0.8832  0.6241 -0.6458
  928MOL0     H25263   7.544   1.717   1.501  2.7871 -0.5680 -0.0449
  928MOL0     H25264   8.008   1.520   1.755 -0.4804  0.2872 -0.0845
  928MOL0     H25265   8.224   1.558   1.805 -2.4766 -1.8581 -0.2311
  928MOL0     H25266   9.543   1.804   3.279  0.7972  0.4443  0.8404
  928MOL0     H25267   9.771   1.765   3.369  1.5531 -0.9912 -0.0893
  928MOL0     H25268  10.097   1.450   3.331  0.3845 -2.3614  2.5686
  928MOL0     H25269  10.319   1.333   3.344  1.5171 -0.1546 -1.1667
  928MOL0     H25270  10.539   1.278   3.352  1.7290 -1.8883  0.5774
  928MOL0     H25271  10.679   1.316   3.442 -0.0066  0.9271 -0.4649
  928MOL0     H25272  10.514   1.178   3.569  0.3633  0.4786  0.1200
  928MOL0     H25273  10.407   1.323   3.569  0.1690  0.7002 -0.2353
  928MOL0     H25274  10.517   1.327   3.787  1.7898  0.4662  0.8626
  928MOL0     H25275  10.565   1.457   3.688  0.6630  0.4283  1.1748
  928MOL0     H25276  10.728   1.359   3.827 -2.3738 -0.7134  0.8920
  928MOL0     H25277  10.782   1.384   3.667  0.1264  1.4753  1.2292
  928MOL0     H25278  10.823   0.964   3.746 -1.7868 -0.1433  0.6718
  928MOL0     H25279  10.498   1.734   3.407  0.0453 -0.2805  2.6877
  928MOL0     H25280  10.312   1.826   3.393 -1.2417 -0.1273  2.5110
  929MOL0     O25281  10.119   8.437   6.946  0.0304  0.3779 -0.0510
  929MOL0     C25282  10.190   8.352   6.895  0.2327  0.1827 -1.1816
  929MOL0     O25283  10.151   8.234   6.836  0.2723 -0.0046 -0.1299
  929MOL0     C25284  10.014   8.206   6.825  0.4655  0.2542 -0.5857
  929MOL0     C25285   9.980   8.073   6.848 -0.0179  0.4295 -0.5183
  929MOL0     C25286   9.849   8.031   6.834  0.5147  0.3804  0.1105
  929MOL0     C25287   9.747   8.124   6.803 -0.7830 -0.8802  0.5081
  929MOL0     O25288   9.621   8.077   6.800  0.1124 -0.0501 -0.2718
  929MOL0     C25289   9.509   8.157   6.767  0.7788 -0.1241 -0.7733
  929MOL0     C25290   9.389   8.066   6.780 -0.0332  0.3988 -0.4550
  929MOL0     C25291   9.376   8.020   6.927  0.6774 -0.0063  0.5894
  929MOL0     C25292   9.250   7.938   6.948 -0.0357 -0.3736  0.0172
  929MOL0     C25293   9.112   8.013   6.955  0.4079 -0.2701  0.0384
  929MOL0     C25294   8.997   7.918   6.979  0.5128 -0.1993  0.3905
  929MOL0     C25295   8.859   7.988   6.962 -0.5418  0.7642 -0.1631
  929MOL0     C25296   8.759   7.867   6.951  0.0910  0.7773  0.1861
  929MOL0     N25297   8.630   7.909   6.893 -0.1647 -0.1905  0.5368
  929MOL0     C25298   8.505   7.908   6.950  0.7841  0.5532 -0.3724
  929MOL0     C25299   8.424   7.954   6.850 -0.1604  0.0456 -0.3953
  929MOL0     C25300   8.277   7.988   6.879  0.2112  0.0418 -0.7367
  929MOL0     C25301   8.193   7.868   6.924 -0.6158  0.0822  0.3347
  929MOL0     C25302   8.050   7.890   6.967 -0.2690 -0.0946  0.0258
  929MOL0     C25303   7.980   7.761   6.971  0.0900 -0.0882  0.3945
  929MOL0     O25304   7.946   7.710   6.841  0.0305 -1.2114  0.8393
  929MOL0     C25305   7.817   7.664   6.823 -0.6793  0.6419  0.4731
  929MOL0     C25306   7.767   7.674   6.694 -0.3631  0.1166 -0.6530
  929MOL0     C25307   7.632   7.636   6.672 -0.1819 -0.3053  1.3230
  929MOL0     C25308   7.594   7.653   6.523 -0.2787  0.2307  0.3356
  929MOL0     C25309   7.542   7.601   6.767 -0.3063  0.1406 -0.5303
  929MOL0     C25310   7.397   7.585   6.750  0.7880  0.7293  0.4426
  929MOL0     O25311   7.343   7.498   6.844 -0.4391  0.2419 -0.0385
  929MOL0     C25312   7.207   7.504   6.862  0.5512  1.0029  0.5803
  929MOL0     C25313   7.162   7.512   6.994  0.3086  0.2064 -0.2516
  929MOL0     C25314   7.029   7.503   7.033  0.0712 -0.5524  0.8056
  929MOL0     C25315   6.936   7.475   6.934  0.3665 -0.0312  0.0418
  929MOL0     O25316   6.806   7.459   6.970  0.0444 -0.1645 -0.0953
  929MOL0     C25317   6.736   7.351   6.912 -0.3152 -0.0645 -0.1968
  929MOL0     C25318   6.596   7.401   6.896  0.6842 -0.3972  0.4123
  929MOL0     C25319   6.530   7.444   7.034 -0.1723  0.2157  0.0156
  929MOL0     C25320   6.380   7.491   7.015 -0.0818  0.4890 -0.3912
  929MOL0     C25321   6.311   7.490   7.148 -0.7422  0.8492 -0.3834
  929MOL0     C25322   6.166   7.531   7.145  0.2615  0.8099 -0.4761
  929MOL0     C25323   6.119   7.543   7.291 -0.0227  0.4879 -0.3154
  929MOL0     C25324   5.973   7.585   7.305 -0.4960 -0.8012  0.9394
  929MOL0    Cl25325   5.870   7.485   7.209 -0.0991  0.1568 -0.0793
  929MOL0     C25326   6.981   7.465   6.800 -0.5318 -0.4532 -0.4988
  929MOL0     C25327   7.112   7.485   6.764  0.2431 -0.9557 -0.1960
  929MOL0     O25328   7.331   7.653   6.674  0.1140  0.0257 -0.5955
  929MOL0     C25329   7.600   7.575   6.893 -0.4050 -1.0001  0.5183
  929MOL0     C25330   7.733   7.605   6.919  0.4615 -0.3645  0.1414
  929MOL0     N25331   8.492   7.984   6.739  0.0955 -0.0088  0.3961
  929MOL0     N25332   8.614   7.951   6.765 -0.7721 -0.3284 -0.1109
  929MOL0     C25333   9.783   8.260   6.770 -0.1476  0.5754  0.1298
  929MOL0     C25334   9.916   8.294   6.782  0.4131  0.7959  0.7956
  929MOL0     C25335  10.339   8.380   6.898 -0.5922  0.1361 -0.3401
  929MOL0     C25336  10.388   8.501   6.948 -0.1633 -0.4462  0.4386
  929MOL0     C25337  10.527   8.515   6.959 -0.1296  0.5662 -0.1040
  929MOL0     C25338  10.616   8.412   6.914 -0.0477 -1.5016 -0.0523
  929MOL0     O25339  10.747   8.449   6.917  0.8170  0.1055  0.0767
  929MOL0     C25340  10.837   8.361   6.854 -0.3856 -0.8434 -0.0596
  929MOL0     C25341  10.985   8.399   6.883  0.4465  0.3398  0.7200
  929MOL0     C25342  11.064   8.291   6.808  0.1620  0.2599  0.3176
  929MOL0     C25343  11.206   8.303   6.865  0.3321  0.1398  0.2018
  929MOL0     C25344  11.295   8.207   6.802  0.4599 -0.3531 -0.4547
  929MOL0     C25345  11.357   8.125   6.740  0.6130 -0.1325 -0.4949
  929MOL0     C25346  10.562   8.302   6.858  0.0461  0.1715  0.1035
  929MOL0     C25347  10.424   8.281   6.857  0.0541 -0.5761  0.6620
  929MOL0     H25348  10.063   8.005   6.864 -0.8864 -0.1096  2.2116
  929MOL0     H25349   9.816   7.931   6.861  1.4003 -0.1287 -0.6439
  929MOL0     H25350   9.499   8.244   6.832  2.2124 -0.5601  0.0887
  929MOL0     H25351   9.508   8.194   6.664  0.4086  1.8877 -0.0911
  929MOL0     H25352   9.300   8.123   6.751 -0.1749  1.2141  1.4653
  929MOL0     H25353   9.407   7.982   6.712 -0.9618 -2.8500  2.9919
  929MOL0     H25354   9.463   7.963   6.962  1.4093  0.5816 -0.2092
  929MOL0     H25355   9.361   8.110   6.986  0.1194  0.8822 -0.8467
  929MOL0     H25356   9.258   7.869   6.863  2.6261 -0.2277  0.0591
  929MOL0     H25357   9.261   7.874   7.036  0.5018 -1.1225 -0.5780
  929MOL0     H25358   9.122   8.081   7.040 -0.3287 -1.0646  0.7864
  929MOL0     H25359   9.102   8.067   6.860  1.8430 -1.0686 -0.5929
  929MOL0     H25360   9.008   7.831   6.913  3.1662 -1.4069  2.2304
  929MOL0     H25361   9.006   7.872   7.078 -3.4751 -2.6975 -0.2050
  929MOL0     H25362   8.825   8.055   7.042 -0.7065  0.2806  0.1770
  929MOL0     H25363   8.865   8.047   6.870  0.4580 -0.8205 -1.1677
  929MOL0     H25364   8.730   7.829   7.050 -1.0875  0.3742 -0.2986
  929MOL0     H25365   8.805   7.781   6.902 -2.0088 -0.8592  0.9271
  929MOL0     H25366   8.470   7.874   7.047 -1.5429 -2.4192 -2.0584
  929MOL0     H25367   8.274   8.061   6.961 -0.1419  0.1052 -0.8048
  929MOL0     H25368   8.227   8.030   6.791  0.5466 -0.7419 -1.3186
  929MOL0     H25369   8.246   7.813   7.002  2.6380  1.6743 -0.5485
  929MOL0     H25370   8.198   7.798   6.841 -0.4223 -0.1877  0.5730
  929MOL0     H25371   7.995   7.963   6.906 -1.0066 -0.8036 -0.1818
  929MOL0     H25372   8.054   7.927   7.070  3.0951 -1.8843  0.6491
  929MOL0     H25373   7.883   7.789   7.013 -0.4693  3.4393 -2.7101
  929MOL0     H25374   8.033   7.690   7.035 -2.4852 -1.8126  0.8015
  929MOL0     H25375   7.831   7.717   6.618  1.9124  0.3395  1.2655
  929MOL0     H25376   7.541   7.748   6.513  1.3967  1.3163  1.2155
  929MOL0     H25377   7.677   7.673   6.455 -0.3096  4.5728  1.3203
  929MOL0     H25378   7.532   7.565   6.503  0.7283 -0.7744  1.4361
  929MOL0     H25379   7.232   7.520   7.077 -0.0569 -1.6811  0.2682
  929MOL0     H25380   6.993   7.521   7.133  0.2178 -0.4461  0.8380
  929MOL0     H25381   6.775   7.310   6.818 -0.3393 -2.8630  0.9409
  929MOL0     H25382   6.737   7.272   6.986 -3.2801  1.4516  1.6793
  929MOL0     H25383   6.598   7.492   6.835  2.0087 -0.1186  0.8323
  929MOL0     H25384   6.534   7.324   6.849 -1.5697  0.6524  1.4944
  929MOL0     H25385   6.593   7.520   7.080  0.5858 -0.0357 -0.5791
  929MOL0     H25386   6.539   7.353   7.094  3.6092  0.3127 -0.1989
  929MOL0     H25387   6.377   7.588   6.964 -3.8733  0.7569  0.0234
  929MOL0     H25388   6.319   7.436   6.943 -4.1493  0.4259  2.7170
  929MOL0     H25389   6.366   7.551   7.219 -1.0994  2.6105 -1.5491
  929MOL0     H25390   6.313   7.387   7.185  2.5458  0.4267 -1.4108
  929MOL0     H25391   6.152   7.629   7.099  1.2761  0.4276 -1.6616
  929MOL0     H25392   6.106   7.460   7.087  0.8333  0.2231 -0.3638
  929MOL0     H25393   6.175   7.621   7.343 -1.9686  1.7715 -0.0362
  929MOL0     H25394   6.116   7.449   7.347  3.1622  1.1864  1.2292
  929MOL0     H25395   5.966   7.689   7.274  0.1126 -0.8935  0.4728
  929MOL0     H25396   5.937   7.576   7.408  2.5059  0.0942  2.1641
  929MOL0     H25397   6.917   7.431   6.720  0.2465  0.7790 -1.6728
  929MOL0     H25398   7.140   7.481   6.660  0.1815 -0.1771 -0.2449
  929MOL0     H25399   7.542   7.553   6.983 -0.4031 -2.0173  0.2841
  929MOL0     H25400   7.766   7.594   7.022 -3.5969  0.7499  1.7543
  929MOL0     H25401   9.701   8.321   6.735 -1.5535 -1.1038  0.3295
  929MOL0     H25402   9.944   8.392   6.747  0.8217  0.5189  0.3395
  929MOL0     H25403  10.318   8.572   6.990  1.2583  0.9994  0.4677
  929MOL0     H25404  10.576   8.606   6.990  1.0797 -0.2036  0.3204
  929MOL0     H25405  10.827   8.256   6.883  2.2072 -1.3137 -0.5665
  929MOL0     H25406  10.827   8.366   6.745 -4.8563 -0.7994  0.1703
  929MOL0     H25407  10.992   8.395   6.992  2.1584 -0.3398  0.6189
  929MOL0     H25408  11.008   8.497   6.841 -1.1906 -0.1383 -1.5133
  929MOL0     H25409  11.049   8.309   6.701 -1.2802 -0.8843  0.2969
  929MOL0     H25410  11.023   8.190   6.815  0.1767  0.3004  1.0156
  929MOL0     H25411  11.203   8.290   6.974  1.7345  0.8530  0.3405
  929MOL0     H25412  11.241   8.403   6.841 -1.4259  1.0308  1.1673
  929MOL0     H25413  11.418   8.043   6.706  0.0933 -0.7203 -0.0211
  929MOL0     H25414  10.625   8.214   6.841  1.2208 -0.1190  4.7168
  929MOL0     H25415  10.389   8.181   6.833 -1.2101 -0.1587  0.7123
  930MOL0     O25416  11.030   9.149   8.079  0.2760  0.2369  0.0076
  930MOL0     C25417  11.044   9.055   8.153 -0.0854 -0.1292 -0.6849
  930MOL0     O25418  10.944   8.964   8.191  0.0419  0.7725 -0.2465
  930MOL0     C25419  10.815   9.002   8.165  0.3502 -0.9594 -0.0609
  930MOL0     C25420  10.740   9.052   8.268  0.2046 -0.5126 -0.4464
  930MOL0     C25421  10.603   9.081   8.247 -0.7064 -0.6152 -0.4710
  930MOL0     C25422  10.551   9.081   8.116  0.6288 -0.0173  0.0873
  930MOL0     O25423  10.425   9.121   8.099  0.5177  0.1041  0.0334
  930MOL0     C25424  10.389   9.210   7.996  0.9419  0.2225 -0.5059
  930MOL0     C25425  10.243   9.254   8.021  0.4870  0.7698 -0.5402
  930MOL0     C25426  10.218   9.329   8.152  0.7238 -0.3063 -0.6154
  930MOL0     C25427  10.095   9.414   8.145  0.8578 -0.0409 -0.8963
  930MOL0     C25428   9.968   9.330   8.165 -0.2800  0.0526 -0.1380
  930MOL0     C25429   9.830   9.400   8.146 -0.3349  1.0157 -0.0390
  930MOL0     C25430   9.798   9.471   8.281 -0.4657  0.2063 -0.1425
  930MOL0     C25431   9.738   9.389   8.391 -0.3093  0.5564  0.2131
  930MOL0     N25432   9.598   9.352   8.355 -0.7013  0.2532 -0.6162
  930MOL0     C25433   9.558   9.228   8.300  0.6750  0.2927  0.4784
  930MOL0     C25434   9.427   9.238   8.278  0.7305  0.3779  0.4373
  930MOL0     C25435   9.348   9.124   8.224 -0.4260 -0.6041  0.6905
  930MOL0     C25436   9.204   9.119   8.256  0.0757 -0.1207  0.4988
  930MOL0     C25437   9.113   9.214   8.180 -0.2860 -0.0022 -0.5824
  930MOL0     C25438   8.966   9.197   8.210 -0.9370 -0.8212  0.5073
  930MOL0     O25439   8.925   9.084   8.132  0.1622 -0.6263  0.4463
  930MOL0     C25440   8.795   9.044   8.120  0.2742  0.2124 -0.8072
  930MOL0     C25441   8.685   9.132   8.157 -0.3428 -0.1299  0.7081
  930MOL0     C25442   8.553   9.082   8.162 -0.0555  0.1909 -0.3983
  930MOL0     C25443   8.465   9.191   8.215  0.0114  0.0018 -0.4946
  930MOL0     C25444   8.531   8.947   8.124  0.0015 -0.0400 -0.1037
  930MOL0     C25445   8.396   8.887   8.123  0.1241 -0.8466 -0.4407
  930MOL0     O25446   8.384   8.755   8.133 -0.7264  0.0989  0.1466
  930MOL0     C25447   8.262   8.699   8.147  0.8935 -0.5105 -0.0907
  930MOL0     C25448   8.189   8.731   8.263  0.2511 -0.2406  0.4114
  930MOL0     C25449   8.061   8.691   8.273  0.4149 -0.5351 -0.4718
  930MOL0     C25450   8.005   8.600   8.183 -0.3812  0.1623  0.7177
  930MOL0     O25451   7.874   8.567   8.204  0.0374  0.0798 -0.0473
  930MOL0     C25452   7.807   8.459   8.135 -0.0424 -0.7777 -0.1946
  930MOL0     C25453   7.672   8.410   8.186  0.3708 -0.1738 -1.2060
  930MOL0     C25454   7.592   8.528   8.243 -0.4933  0.0012 -0.2799
  930MOL0     C25455   7.449   8.496   8.270  0.0477 -0.5433 -0.6959
  930MOL0     C25456   7.372   8.620   8.311 -0.4342 -0.3050 -0.5960
  930MOL0     C25457   7.223   8.601   8.291  0.1163  0.0824 -0.5405
  930MOL0     C25458   7.141   8.699   8.378 -0.1987 -0.5610 -1.1782
  930MOL0     C25459   6.991   8.703   8.346 -0.7793  0.1575  0.4782
  930MOL0    Cl25460   6.910   8.548   8.372 -0.3293 -0.2933  0.2622
  930MOL0     C25461   8.084   8.557   8.074 -0.2484  1.2721  0.3655
  930MOL0     C25462   8.205   8.612   8.054 -0.4029  0.1984 -0.0859
  930MOL0     O25463   8.303   8.965   8.127 -0.8290  0.2293  0.3310
  930MOL0     C25464   8.639   8.865   8.090  0.5593 -0.1198  0.9072
  930MOL0     C25465   8.764   8.914   8.081  0.4208 -0.1857  0.2718
  930MOL0     N25466   9.390   9.365   8.298 -0.3671 -1.4743  0.0057
  930MOL0     N25467   9.489   9.432   8.355 -0.2668  0.1234  0.1275
  930MOL0     C25468  10.639   9.046   8.008 -0.4628  0.2519  0.4107
  930MOL0     C25469  10.776   9.004   8.035  0.1567  0.2246  0.1357
  930MOL0     C25470  11.180   9.030   8.212 -0.4724  0.4453 -0.6019
  930MOL0     C25471  11.290   9.116   8.185 -0.1723 -0.0479 -0.1116
  930MOL0     C25472  11.418   9.087   8.235  0.0108 -0.1743  1.1271
  930MOL0     C25473  11.444   8.971   8.308 -0.5449 -0.1921  0.6986
  930MOL0     O25474  11.569   8.953   8.353 -0.2086 -0.3696 -0.4542
  930MOL0     C25475  11.596   8.847   8.441  1.1940  0.2922  0.1773
  930MOL0     C25476  11.723   8.873   8.516 -0.5772 -0.1848 -0.8558
  930MOL0     C25477  11.836   8.775   8.501  0.1206 -0.1726 -0.1290
  930MOL0     C25478  11.806   8.645   8.582  0.5710  0.4582 -0.1580
  930MOL0     C25479  11.847   8.662   8.719 -0.6268  0.3626  0.1487
  930MOL0     C25480  11.891   8.675   8.831  0.1761  0.0960 -0.8153
  930MOL0     C25481  11.337   8.881   8.322 -0.1037 -0.0432 -0.3012
  930MOL0     C25482  11.206   8.918   8.287  0.1009 -0.4642  0.9230
  930MOL0     H25483  10.783   9.066   8.366  0.9764  1.3001 -0.9930
  930MOL0     H25484  10.543   9.119   8.329 -0.3128  3.2939 -1.8249
  930MOL0     H25485  10.451   9.298   8.011  1.1949  0.0280 -0.3963
  930MOL0     H25486  10.408   9.172   7.895 -2.1104  2.3844 -2.0704
  930MOL0     H25487  10.214   9.316   7.935 -2.0568 -1.5007 -1.4806
  930MOL0     H25488  10.175   9.169   8.009  1.9245 -0.1793 -2.4470
  930MOL0     H25489  10.210   9.268   8.243  0.2088  0.3943 -0.1856
  930MOL0     H25490  10.303   9.397   8.165 -0.3071  0.9583 -0.3141
  930MOL0     H25491  10.085   9.488   8.225 -0.9621 -0.6344 -0.5154
  930MOL0     H25492  10.085   9.472   8.053 -1.4206 -1.6298 -1.7381
  930MOL0     H25493   9.967   9.245   8.095  0.0820 -0.8509  0.9255
  930MOL0     H25494   9.973   9.290   8.266  0.0010  1.4420  0.4184
  930MOL0     H25495   9.850   9.460   8.057  0.0079  1.0785  0.0812
  930MOL0     H25496   9.747   9.333   8.118 -2.7586  2.8824  2.1370
  930MOL0     H25497   9.893   9.509   8.317  0.2027  0.1837 -1.7722
  930MOL0     H25498   9.738   9.559   8.255  3.0702  2.9999  0.5343
  930MOL0     H25499   9.752   9.442   8.485  2.4661 -1.4525  1.0662
  930MOL0     H25500   9.795   9.296   8.401 -0.4346  0.3930 -0.4678
  930MOL0     H25501   9.617   9.139   8.281  1.5969  1.3564 -2.0052
  930MOL0     H25502   9.359   9.124   8.115 -1.9999  1.7682  0.4628
  930MOL0     H25503   9.393   9.032   8.262 -1.2207 -2.0298 -1.6239
  930MOL0     H25504   9.189   9.137   8.363  0.4329 -1.0754  0.7167
  930MOL0     H25505   9.169   9.018   8.231  3.8681 -1.3130 -0.6107
  930MOL0     H25506   9.129   9.188   8.075 -0.8099  0.2151 -0.7224
  930MOL0     H25507   9.132   9.318   8.207  0.2605 -0.3026  0.2293
  930MOL0     H25508   8.920   9.289   8.173  0.1949 -0.5102 -0.1824
  930MOL0     H25509   8.935   9.188   8.314 -2.1563  0.2295  0.2700
  930MOL0     H25510   8.703   9.236   8.181 -2.8472  1.5155 -3.4198
  930MOL0     H25511   8.511   9.290   8.226 -0.7968  0.2557  1.0062
  930MOL0     H25512   8.373   9.196   8.156  0.0590  1.4134 -0.4976
  930MOL0     H25513   8.417   9.165   8.310 -4.6755 -2.5342 -3.1998
  930MOL0     H25514   8.228   8.807   8.330 -1.0321  1.8972 -1.1356
  930MOL0     H25515   7.989   8.715   8.351  2.1721 -1.7872  1.6669
  930MOL0     H25516   7.811   8.476   8.027  3.4983  0.3397  0.0133
  930MOL0     H25517   7.870   8.372   8.155 -0.3144 -1.0352 -0.4442
  930MOL0     H25518   7.615   8.351   8.113 -1.8862  0.8303 -0.3488
  930MOL0     H25519   7.686   8.343   8.271 -0.4284 -0.6005 -1.4008
  930MOL0     H25520   7.594   8.621   8.184  1.1286  0.8701  1.0650
  930MOL0     H25521   7.637   8.545   8.341  0.1755  1.9397 -0.8649
  930MOL0     H25522   7.403   8.441   8.188  0.9959 -2.3911 -0.0500
  930MOL0     H25523   7.445   8.421   8.350 -2.1363 -0.6827 -0.8734
  930MOL0     H25524   7.399   8.708   8.252  3.7130  1.1804  2.9652
  930MOL0     H25525   7.407   8.668   8.403  0.0814  1.7542 -1.7928
  930MOL0     H25526   7.199   8.619   8.186 -1.6657  0.1875 -0.1554
  930MOL0     H25527   7.202   8.498   8.319 -2.5247  0.2471 -1.6058
  930MOL0     H25528   7.171   8.804   8.375  0.7178 -0.6672  1.5989
  930MOL0     H25529   7.149   8.678   8.484 -2.3597 -4.2499 -1.5794
  930MOL0     H25530   6.973   8.740   8.244  0.5751  0.0756  0.1871
  930MOL0     H25531   6.930   8.773   8.404 -2.7787  1.7611 -3.1715
  930MOL0     H25532   8.044   8.490   7.999 -1.3409  0.1895  1.8443
  930MOL0     H25533   8.257   8.597   7.960 -1.7702  2.5019 -1.3195
  930MOL0     H25534   8.615   8.762   8.064 -0.6456 -0.1403  1.9630
  930MOL0     H25535   8.847   8.852   8.047  1.3052  0.1897  1.6697
  930MOL0     H25536  10.601   9.031   7.908 -1.4465 -0.0848  0.8249
  930MOL0     H25537  10.835   8.963   7.954 -1.5447 -5.1161  1.1757
  930MOL0     H25538  11.281   9.206   8.125 -1.9639 -1.3397 -1.8936
  930MOL0     H25539  11.492   9.164   8.213  0.3712 -0.7732  0.1861
  930MOL0     H25540  11.519   8.847   8.519  1.1552 -0.1256  0.1428
  930MOL0     H25541  11.584   8.754   8.385 -0.5259  1.0331 -0.7371
  930MOL0     H25542  11.698   8.883   8.622 -0.3262  3.0035 -0.9939
  930MOL0     H25543  11.764   8.969   8.484 -1.6429  0.1536 -1.2468
  930MOL0     H25544  11.921   8.832   8.541 -0.1579 -0.7583  1.3529
  930MOL0     H25545  11.844   8.759   8.393  0.6252 -2.0471  0.1527
  930MOL0     H25546  11.854   8.562   8.531 -0.6900 -2.0510  2.4324
  930MOL0     H25547  11.696   8.640   8.587  0.4148  1.9382 -1.2568
  930MOL0     H25548  11.940   8.687   8.926 -1.7921  1.9900  0.0542
  930MOL0     H25549  11.334   8.779   8.360 -1.8410  0.7141  1.8152
  930MOL0     H25550  11.118   8.854   8.288 -1.7672  1.9449  0.4016
  931MOL0     O25551  11.061   6.603   4.720 -0.8866  0.8585 -0.9344
  931MOL0     C25552  11.116   6.578   4.621  0.3798 -0.5074  0.6667
  931MOL0     O25553  11.059   6.511   4.518  0.6984  0.3205  0.2935
  931MOL0     C25554  10.936   6.441   4.543 -0.3342 -0.6882 -0.3007
  931MOL0     C25555  10.888   6.378   4.658  0.3061 -0.4111 -0.0684
  931MOL0     C25556  10.768   6.309   4.650 -0.4386 -0.7971  0.6738
  931MOL0     C25557  10.686   6.311   4.542  0.1193  0.2941  0.1324
  931MOL0     O25558  10.568   6.244   4.551 -0.3919 -0.1776 -0.1639
  931MOL0     C25559  10.462   6.262   4.452  0.1760  0.2715 -0.3989
  931MOL0     C25560  10.328   6.197   4.487  0.0464  0.0357  0.2496
  931MOL0     C25561  10.252   6.288   4.589  0.0502  0.0695 -0.5908
  931MOL0     C25562  10.128   6.211   4.660 -0.0038  0.1160  0.2198
  931MOL0     C25563  10.055   6.312   4.745  1.6083  0.1747 -0.8133
  931MOL0     C25564   9.973   6.239   4.855 -0.5467  0.8179  0.4238
  931MOL0     C25565   9.879   6.327   4.922  0.8490  0.7285 -0.8580
  931MOL0     C25566   9.808   6.252   5.039 -0.3626  0.5385  0.1471
  931MOL0     N25567   9.742   6.126   4.997 -0.3274  0.8035 -0.4638
  931MOL0     C25568   9.807   6.004   5.006  0.5197  0.0545  0.6339
  931MOL0     C25569   9.707   5.924   4.958 -0.2395  0.4105 -1.4216
  931MOL0     C25570   9.714   5.774   4.936  0.0696  0.0759 -0.3502
  931MOL0     C25571   9.573   5.713   4.896  0.8443  0.0711 -0.3621
  931MOL0     C25572   9.568   5.565   4.904  0.9984  0.0310  0.3383
  931MOL0     C25573   9.455   5.505   4.810  0.2005 -0.4204 -0.3816
  931MOL0     O25574   9.478   5.538   4.676  0.0478  0.6866  0.0348
  931MOL0     C25575   9.374   5.519   4.590  0.5982  0.0026  0.0747
  931MOL0     C25576   9.379   5.598   4.471  0.2848  0.7866  0.6113
  931MOL0     C25577   9.276   5.605   4.378  0.7734  0.2509  0.6854
  931MOL0     C25578   9.287   5.707   4.265 -0.2566  0.2778  0.0603
  931MOL0     C25579   9.162   5.515   4.408  0.0906  0.4193  0.2600
  931MOL0     C25580   9.045   5.512   4.315  0.9529  1.0230  0.1580
  931MOL0     O25581   8.970   5.400   4.321 -0.5145  0.1736 -0.1878
  931MOL0     C25582   8.842   5.387   4.264 -0.6635  0.2363  0.6567
  931MOL0     C25583   8.736   5.384   4.355 -0.2055  0.1652 -0.0751
  931MOL0     C25584   8.607   5.371   4.290 -0.0738  0.4390  0.6799
  931MOL0     C25585   8.590   5.369   4.146 -0.2625 -0.1403  0.6112
  931MOL0     O25586   8.468   5.367   4.081  0.6075 -0.7755  0.6525
  931MOL0     C25587   8.361   5.428   4.157  0.3356  0.2756  1.1306
  931MOL0     C25588   8.246   5.448   4.052  0.0549 -0.6396  0.3898
  931MOL0     C25589   8.168   5.309   4.047 -0.0678  0.1692  0.8005
  931MOL0     C25590   8.028   5.342   4.008 -0.0207 -0.1724 -0.0098
  931MOL0     C25591   7.938   5.213   3.997 -1.2191 -0.1123  0.3015
  931MOL0     C25592   7.948   5.150   3.855  0.2340 -1.0770  0.2386
  931MOL0     C25593   7.828   5.065   3.818  0.4374 -1.0117  0.2553
  931MOL0     C25594   7.706   5.147   3.790 -0.4913 -0.6705 -0.0620
  931MOL0    Cl25595   7.603   5.046   3.687  0.4798  0.4582 -0.4574
  931MOL0     C25596   8.705   5.362   4.060 -0.0552 -0.0212 -0.4117
  931MOL0     C25597   8.828   5.377   4.124 -0.3716 -0.9944 -0.3561
  931MOL0     O25598   9.018   5.612   4.249 -0.4108  0.0064 -0.6353
  931MOL0     C25599   9.160   5.432   4.520  0.0250 -0.3747 -0.2526
  931MOL0     C25600   9.271   5.430   4.608 -0.0774 -0.0126  0.0982
  931MOL0     N25601   9.595   6.000   4.931  0.4314 -0.0285 -0.0624
  931MOL0     N25602   9.622   6.121   4.944  0.5319  0.4744  0.3527
  931MOL0     C25603  10.734   6.380   4.434  0.4721  0.1681  0.1061
  931MOL0     C25604  10.865   6.435   4.423 -0.3382 -0.3472  0.0678
  931MOL0     C25605  11.250   6.628   4.603  0.3677 -0.5626 -0.3521
  931MOL0     C25606  11.299   6.676   4.478 -0.5568 -0.2419  0.4961
  931MOL0     C25607  11.435   6.722   4.461  0.1703  0.5067 -0.7610
  931MOL0     C25608  11.519   6.725   4.574  0.8116 -0.3955 -0.5521
  931MOL0     O25609  11.650   6.763   4.569 -0.0989  0.2766  0.6790
  931MOL0     C25610  11.708   6.805   4.444  0.4114  0.3465  0.4072
  931MOL0     C25611  11.866   6.825   4.456 -0.6929 -0.1875  0.6098
  931MOL0     C25612  11.932   6.686   4.471  0.7007  1.1089  1.1506
  931MOL0     C25613  12.076   6.696   4.433 -0.4191  0.2328 -0.2723
  931MOL0     C25614  12.158   6.760   4.540 -0.1226 -0.3006  0.3991
  931MOL0     C25615  12.228   6.821   4.620 -0.8559 -0.4130  0.2413
  931MOL0     C25616  11.469   6.689   4.697  0.8222 -0.4270 -0.4539
  931MOL0     C25617  11.339   6.639   4.712 -0.0348 -0.4800 -0.4142
  931MOL0     H25618  10.941   6.375   4.753 -0.5172  0.5120  0.4419
  931MOL0     H25619  10.728   6.245   4.728 -0.6982 -1.1129  0.2822
  931MOL0     H25620  10.453   6.369   4.432 -0.2310  0.5162  0.9473
  931MOL0     H25621  10.496   6.208   4.363  1.6596 -0.0246  0.2991
  931MOL0     H25622  10.270   6.179   4.397 -0.0033  1.0813  0.0627
  931MOL0     H25623  10.345   6.104   4.542  0.2204  0.4912  0.9896
  931MOL0     H25624  10.317   6.328   4.668 -2.0332  0.8823  0.7883
  931MOL0     H25625  10.216   6.375   4.533 -1.5941 -0.2970 -0.1500
  931MOL0     H25626  10.056   6.188   4.582  0.9919  0.5057 -0.8365
  931MOL0     H25627  10.167   6.126   4.717  0.6069 -1.6010 -2.5890
  931MOL0     H25628  10.124   6.387   4.785  0.9290  0.4496 -0.1367
  931MOL0     H25629   9.980   6.372   4.692  0.4991  0.4309  0.9673
  931MOL0     H25630   9.918   6.159   4.806 -0.9748  2.7279 -2.4666
  931MOL0     H25631  10.051   6.203   4.922 -0.1765 -0.8974 -0.8618
  931MOL0     H25632   9.922   6.416   4.968  0.5471 -1.0580  3.3609
  931MOL0     H25633   9.799   6.355   4.852 -0.7617 -1.5051 -0.0255
  931MOL0     H25634   9.729   6.317   5.076 -0.9849  0.1543 -0.4830
  931MOL0     H25635   9.875   6.240   5.125 -1.9618  3.9242  2.0699
  931MOL0     H25636   9.904   5.982   5.048  1.5352  0.5481 -1.3533
  931MOL0     H25637   9.779   5.740   4.855 -2.5408 -2.4821 -1.5926
  931MOL0     H25638   9.742   5.724   5.030 -0.3360 -0.8013 -0.6787
  931MOL0     H25639   9.530   5.768   4.812 -1.8640  0.0570  0.9012
  931MOL0     H25640   9.511   5.742   4.981  0.7420  0.1259 -0.4554
  931MOL0     H25641   9.552   5.530   5.006  1.3188  0.7719  0.6404
  931MOL0     H25642   9.661   5.513   4.879  1.0866 -1.7263  3.7867
  931MOL0     H25643   9.363   5.551   4.846 -1.5426 -2.3190 -2.1801
  931MOL0     H25644   9.445   5.397   4.818 -2.2931 -0.2906 -0.9546
  931MOL0     H25645   9.464   5.665   4.459  0.9875  0.3604  2.8288
  931MOL0     H25646   9.369   5.777   4.282 -0.9634  0.8519  1.2949
  931MOL0     H25647   9.296   5.650   4.172  0.1383  1.1397 -0.4420
  931MOL0     H25648   9.195   5.766   4.261 -0.6878 -0.2991  1.0378
  931MOL0     H25649   8.739   5.406   4.462  1.9595  0.3154 -0.1327
  931MOL0     H25650   8.523   5.369   4.358 -0.1590  0.0321  0.5644
  931MOL0     H25651   8.325   5.374   4.245 -2.9072  1.2476  0.5401
  931MOL0     H25652   8.385   5.533   4.176 -0.5879  0.8881 -0.7222
  931MOL0     H25653   8.175   5.521   4.090  1.4678  1.1626 -0.2884
  931MOL0     H25654   8.282   5.478   3.953 -0.6530 -0.4358  0.1908
  931MOL0     H25655   8.171   5.253   4.141 -1.3144  2.0216  2.0011
  931MOL0     H25656   8.221   5.255   3.968 -0.9951 -0.9092  0.8850
  931MOL0     H25657   7.997   5.402   4.095  0.3376  1.3889 -0.9300
  931MOL0     H25658   8.021   5.404   3.918 -0.4905 -1.5981 -0.9887
  931MOL0     H25659   7.838   5.247   4.027 -1.4747 -2.0429  1.7571
  931MOL0     H25660   7.973   5.144   4.074 -1.7136  0.2111  0.8249
  931MOL0     H25661   7.941   5.232   3.782 -0.5220 -0.1277  1.3335
  931MOL0     H25662   8.047   5.103   3.848  1.3415  0.5757  2.9656
  931MOL0     H25663   7.820   4.991   3.899  3.2604 -0.1329  1.4712
  931MOL0     H25664   7.843   5.003   3.729  0.4870  0.7473 -1.0096
  931MOL0     H25665   7.730   5.238   3.734  0.4178  0.0957  1.5082
  931MOL0     H25666   7.658   5.186   3.881 -0.4337 -0.9382  0.0822
  931MOL0     H25667   8.709   5.346   3.952 -0.0498 -1.9391 -0.1713
  931MOL0     H25668   8.917   5.371   4.062 -0.0246 -2.0518  0.2313
  931MOL0     H25669   9.071   5.375   4.541  0.6492 -1.3947 -0.2938
  931MOL0     H25670   9.268   5.367   4.696  1.4531 -1.2726 -0.6886
  931MOL0     H25671  10.673   6.389   4.344  0.5030  0.4901  0.1175
  931MOL0     H25672  10.895   6.488   4.334  1.2978  2.1289  1.9513
  931MOL0     H25673  11.225   6.696   4.401  0.0768  3.2486  0.6182
  931MOL0     H25674  11.459   6.756   4.361 -3.1611 -0.0166 -1.8709
  931MOL0     H25675  11.679   6.736   4.364  1.8010 -1.1972  1.1668
  931MOL0     H25676  11.661   6.901   4.419  0.6489  0.1528 -0.8329
  931MOL0     H25677  11.885   6.885   4.545 -3.2418  2.9925 -0.7951
  931MOL0     H25678  11.903   6.888   4.376  3.0833  0.0845  2.3520
  931MOL0     H25679  11.888   6.621   4.394  1.1029  1.7198  0.3921
  931MOL0     H25680  11.913   6.634   4.565 -0.3657  0.2128  0.4644
  931MOL0     H25681  12.097   6.745   4.338  1.0831  2.8868  1.3168
  931MOL0     H25682  12.113   6.593   4.429  2.1004  1.0009  1.3066
  931MOL0     H25683  12.286   6.873   4.693 -1.7510  1.3364 -0.2290
  931MOL0     H25684  11.541   6.685   4.778 -1.6331  1.2608  2.0301
  931MOL0     H25685  11.313   6.598   4.810 -2.8878  0.6535 -0.6216
  932MOL0     O25686   0.907   9.147   4.160 -0.2235  0.0881 -0.2747
  932MOL0     C25687   0.892   9.084   4.266  1.2991  0.5237 -0.2347
  932MOL0     O25688   0.764   9.043   4.310 -0.2746  0.4999 -0.4060
  932MOL0     C25689   0.665   9.058   4.222  0.1035 -0.8029  0.1026
  932MOL0     C25690   0.609   9.186   4.211 -0.1684  0.0585  0.0662
  932MOL0     C25691   0.501   9.203   4.128  0.1888 -0.8290 -0.9512
  932MOL0     C25692   0.438   9.096   4.064 -0.3247  0.6273  0.0914
  932MOL0     O25693   0.323   9.123   3.994 -0.3192  0.1470 -0.6349
  932MOL0     C25694   0.220   9.018   3.978 -0.2541  0.1573  1.0477
  932MOL0     C25695   0.098   9.075   3.905 -0.5953 -0.0065 -0.2678
  932MOL0     C25696   0.033   9.206   3.964 -0.5659  0.2822  0.7890
  932MOL0     C25697  -0.041   9.179   4.091  0.5375  0.0734 -1.0117
  932MOL0     C25698  -0.172   9.101   4.056 -0.8847 -0.1291  0.0664
  932MOL0     C25699  -0.268   9.084   4.178 -0.2167  0.5126 -0.2164
  932MOL0     C25700  -0.422   9.060   4.151 -0.6938  1.1173 -0.6614
  932MOL0     C25701  -0.473   9.151   4.038  0.1435  0.1780 -0.7542
  932MOL0     N25702  -0.619   9.149   4.048  0.1977  0.1161  0.1657
  932MOL0     C25703  -0.686   9.236   4.129  0.2859  0.5651 -0.1530
  932MOL0     C25704  -0.814   9.216   4.103  0.6939  0.0673  0.1926
  932MOL0     C25705  -0.934   9.270   4.169  0.5281 -0.4669  0.5180
  932MOL0     C25706  -0.985   9.197   4.285  0.3537 -0.4631 -0.0743
  932MOL0     C25707  -1.107   9.267   4.341  0.6754 -0.1455  0.9215
  932MOL0     C25708  -1.167   9.180   4.455 -0.2206  0.2034  0.4427
  932MOL0     O25709  -1.212   9.247   4.575 -0.8347 -0.3416  0.2347
  932MOL0     C25710  -1.348   9.241   4.608 -0.0033  0.6305  0.5160
  932MOL0     C25711  -1.380   9.218   4.739  0.6555  0.3638 -0.1634
  932MOL0     C25712  -1.509   9.217   4.792  0.2287 -0.0938 -0.5715
  932MOL0     C25713  -1.524   9.202   4.938 -0.0161 -0.9567 -0.4233
  932MOL0     C25714  -1.616   9.215   4.690 -0.0568  0.2131 -0.1966
  932MOL0     C25715  -1.766   9.209   4.721  0.2796  0.3636  0.1718
  932MOL0     O25716  -1.851   9.215   4.621 -0.1805  0.4303  0.5243
  932MOL0     C25717  -1.980   9.243   4.632  0.0454 -0.2260 -0.1739
  932MOL0     C25718  -2.021   9.365   4.589  0.5183 -0.2973 -0.0246
  932MOL0     C25719  -2.154   9.410   4.601  0.1663 -0.0218 -0.1503
  932MOL0     C25720  -2.251   9.325   4.656 -0.9340  0.6738 -0.0858
  932MOL0     O25721  -2.388   9.348   4.669  0.6143 -0.3274  0.0225
  932MOL0     C25722  -2.415   9.488   4.719 -0.0994 -0.4330  0.3854
  932MOL0     C25723  -2.549   9.483   4.792  0.2884 -0.3524 -0.9419
  932MOL0     C25724  -2.599   9.633   4.816  0.0390  0.8541 -0.0797
  932MOL0     C25725  -2.733   9.637   4.896 -0.2013 -0.7896 -0.2863
  932MOL0     C25726  -2.845   9.651   4.800  0.9466  0.6306  0.3290
  932MOL0     C25727  -2.978   9.599   4.865 -0.1778 -0.0946 -0.1764
  932MOL0     C25728  -3.097   9.668   4.804  1.3733  0.1555  0.0256
  932MOL0     C25729  -3.229   9.600   4.835 -0.5719  0.3838 -0.1327
  932MOL0    Cl25730  -3.264   9.603   5.005 -0.0726  0.0967  0.2326
  932MOL0     C25731  -2.209   9.193   4.696  0.1048 -0.0246  0.0353
  932MOL0     C25732  -2.075   9.153   4.686  0.3310  0.1510 -0.0574
  932MOL0     O25733  -1.799   9.189   4.836 -0.9623  0.7728 -0.1180
  932MOL0     C25734  -1.579   9.238   4.552  0.4621  0.1797  0.6337
  932MOL0     C25735  -1.452   9.254   4.516 -0.0647  0.1264  0.4083
  932MOL0     N25736  -0.824   9.120   4.005 -0.0402 -0.1520  0.9256
  932MOL0     N25737  -0.704   9.073   3.980 -0.5545  0.5184  0.7646
  932MOL0     C25738   0.486   8.960   4.084 -0.6079  0.1430  0.4527
  932MOL0     C25739   0.612   8.950   4.156  0.4726  0.6237 -0.6279
  932MOL0     C25740   1.005   9.040   4.345 -0.2148 -0.0892 -0.0502
  932MOL0     C25741   1.003   8.939   4.448 -0.4583  0.3504 -0.2808
  932MOL0     C25742   1.122   8.895   4.510 -0.5540 -0.0286  0.3648
  932MOL0     C25743   1.244   8.951   4.481 -0.2867 -0.2870 -0.2246
  932MOL0     O25744   1.360   8.890   4.538  0.6900 -0.1418  0.0419
  932MOL0     C25745   1.487   8.959   4.524 -0.1062  0.3517  0.3101
  932MOL0     C25746   1.606   8.875   4.574  0.3875 -1.1414  0.0177
  932MOL0     C25747   1.731   8.951   4.539 -0.3388  0.6591  0.5592
  932MOL0     C25748   1.743   9.096   4.572 -0.7347 -0.2065  0.0760
  932MOL0     C25749   1.705   9.127   4.712 -1.6862 -0.4756 -0.3339
  932MOL0     C25750   1.652   9.154   4.817  0.1423  0.1192 -0.2039
  932MOL0     C25751   1.250   9.064   4.392 -0.2817  0.7530  0.4005
  932MOL0     C25752   1.128   9.097   4.317  0.0672 -0.3218 -0.4187
  932MOL0     H25753   0.653   9.263   4.274  0.3632 -2.2850  2.8129
  932MOL0     H25754   0.461   9.299   4.097 -2.4171 -1.5029  0.0879
  932MOL0     H25755   0.260   8.940   3.912 -1.0559  1.6609 -1.3537
  932MOL0     H25756   0.192   8.974   4.074 -3.0589 -0.9730 -0.1692
  932MOL0     H25757   0.143   9.093   3.807  0.6953  1.2242  0.5188
  932MOL0     H25758   0.029   8.992   3.889  1.4239 -2.2344  1.7009
  932MOL0     H25759   0.116   9.276   3.973 -0.7494  0.8600 -1.5315
  932MOL0     H25760  -0.037   9.249   3.892 -1.1446 -3.3532 -1.0835
  932MOL0     H25761   0.026   9.116   4.150  2.1792  1.9598 -0.7696
  932MOL0     H25762  -0.059   9.269   4.150  0.0141 -1.5594  1.4843
  932MOL0     H25763  -0.222   9.176   3.994  0.5548  1.2895  0.5564
  932MOL0     H25764  -0.149   9.003   4.012 -1.7373 -1.0889  1.6662
  932MOL0     H25765  -0.226   9.002   4.237  1.6735  0.4998 -1.5071
  932MOL0     H25766  -0.264   9.173   4.241 -0.5059 -0.4695  1.2509
  932MOL0     H25767  -0.452   8.955   4.143 -0.3414  0.5628  3.2971
  932MOL0     H25768  -0.463   9.096   4.245  0.6556 -0.1995  0.4716
  932MOL0     H25769  -0.439   9.115   3.940  2.5830  1.8987 -0.6395
  932MOL0     H25770  -0.440   9.254   4.054 -0.5469  1.0096 -3.9170
  932MOL0     H25771  -0.629   9.299   4.197  1.4243 -1.4492  0.8490
  932MOL0     H25772  -0.905   9.371   4.196 -0.3714 -0.0384 -0.0791
  932MOL0     H25773  -1.020   9.270   4.101 -0.0942 -1.5899  1.2684
  932MOL0     H25774  -0.901   9.181   4.352 -0.6465  0.0072  1.3249
  932MOL0     H25775  -1.018   9.100   4.246  1.4364 -0.5651 -0.7789
  932MOL0     H25776  -1.178   9.284   4.259  1.6444  0.6719  0.2317
  932MOL0     H25777  -1.078   9.364   4.381  1.7210  0.2436 -0.6866
  932MOL0     H25778  -1.086   9.119   4.495  1.6537  1.9695 -0.5051
  932MOL0     H25779  -1.229   9.106   4.403  0.9693 -1.0686  0.7796
  932MOL0     H25780  -1.295   9.210   4.806  0.2772  1.6020  0.5025
  932MOL0     H25781  -1.615   9.254   4.971 -1.7840 -2.9318 -1.9504
  932MOL0     H25782  -1.529   9.097   4.967  4.0474 -0.6825  1.8432
  932MOL0     H25783  -1.437   9.244   4.988 -0.2438 -0.3809 -0.5006
  932MOL0     H25784  -1.953   9.443   4.555  0.5539 -0.5727 -0.6028
  932MOL0     H25785  -2.178   9.513   4.577 -0.6183 -0.3060 -0.6141
  932MOL0     H25786  -2.334   9.520   4.786 -0.6507 -0.2411  0.9628
  932MOL0     H25787  -2.423   9.556   4.634 -1.4955  0.2591  1.0355
  932MOL0     H25788  -2.620   9.429   4.729  1.5547 -2.0962 -0.9445
  932MOL0     H25789  -2.558   9.448   4.895  0.5325  2.8553  0.2992
  932MOL0     H25790  -2.602   9.690   4.722 -1.5041  1.0200  0.0484
  932MOL0     H25791  -2.520   9.684   4.872  1.3867  1.1548 -2.1324
  932MOL0     H25792  -2.745   9.548   4.958  3.7144 -0.3656  1.4026
  932MOL0     H25793  -2.717   9.723   4.961  3.1792 -2.4832  1.3458
  932MOL0     H25794  -2.838   9.594   4.708 -0.9681 -0.5271  0.8462
  932MOL0     H25795  -2.847   9.755   4.765  0.6756  0.0692 -1.4005
  932MOL0     H25796  -2.988   9.494   4.838 -1.7151 -0.2233  0.7863
  932MOL0     H25797  -2.987   9.614   4.973  0.4977  1.3837 -0.3000
  932MOL0     H25798  -3.085   9.686   4.697  2.5934  4.1464  0.6912
  932MOL0     H25799  -3.103   9.768   4.847  3.1403  0.1065  0.4686
  932MOL0     H25800  -3.219   9.497   4.797 -0.9129 -0.1230  1.1053
  932MOL0     H25801  -3.308   9.642   4.772  0.0891  0.2815 -1.0498
  932MOL0     H25802  -2.276   9.113   4.725 -2.2548  2.4302  1.8311
  932MOL0     H25803  -2.038   9.054   4.709  0.4124  0.5379  1.6318
  932MOL0     H25804  -1.649   9.249   4.470  1.7452  0.7596 -0.4110
  932MOL0     H25805  -1.431   9.277   4.412 -0.2368  1.8133  0.7172
  932MOL0     H25806   0.421   8.879   4.052  0.0491  0.0217 -0.6376
  932MOL0     H25807   0.646   8.847   4.155 -2.2344 -0.3460 -0.0343
  932MOL0     H25808   0.904   8.900   4.469 -0.1155 -0.8435 -0.7660
  932MOL0     H25809   1.125   8.802   4.565  2.2788  0.4300  1.1649
  932MOL0     H25810   1.509   8.973   4.418  0.4996 -0.8613  0.2444
  932MOL0     H25811   1.489   9.058   4.571  2.1729 -0.1890  1.5413
  932MOL0     H25812   1.609   8.778   4.522 -3.6986 -1.5033  0.1395
  932MOL0     H25813   1.602   8.869   4.683  0.4105 -2.3947 -0.0313
  932MOL0     H25814   1.765   8.940   4.435 -0.8096  0.2812  0.4404
  932MOL0     H25815   1.806   8.891   4.591 -0.5945  0.7188  0.9938
  932MOL0     H25816   1.680   9.151   4.501 -0.5291  0.7182  0.5945
  932MOL0     H25817   1.847   9.122   4.550  0.0677 -3.8694 -1.1532
  932MOL0     H25818   1.592   9.169   4.904 -2.1371 -1.5315 -1.4127
  932MOL0     H25819   1.342   9.116   4.369 -0.4329  0.8527  0.0108
  932MOL0     H25820   1.132   9.178   4.245 -2.1744 -0.2506 -0.5253
  933MOL0     O25821   5.238   3.921   3.927 -0.6024 -0.0449 -0.2169
  933MOL0     C25822   5.233   4.015   3.852  0.3373 -0.2630  0.9218
  933MOL0     O25823   5.135   4.099   3.826  0.8379  0.1387  0.5532
  933MOL0     C25824   5.020   4.109   3.898 -0.4518  0.6423 -0.3528
  933MOL0     C25825   4.963   3.992   3.946 -0.0562 -0.4405 -0.1817
  933MOL0     C25826   4.856   3.999   4.028  0.0854  0.4989  0.2699
  933MOL0     C25827   4.786   4.117   4.055 -0.5892  0.4997  0.1500
  933MOL0     O25828   4.663   4.110   4.121  0.3434 -0.1268  0.1870
  933MOL0     C25829   4.608   4.223   4.194 -0.5076 -0.3680 -0.0556
  933MOL0     C25830   4.474   4.183   4.257 -0.8639 -0.1231 -0.1141
  933MOL0     C25831   4.386   4.102   4.164 -0.2797  0.6786 -1.4391
  933MOL0     C25832   4.293   4.005   4.245  0.2826  0.7250 -1.1330
  933MOL0     C25833   4.159   3.980   4.169  1.0040  0.1389 -0.1293
  933MOL0     C25834   4.074   3.878   4.249 -0.1217  0.5228 -0.5636
  933MOL0     C25835   3.925   3.886   4.208  0.3069  0.3449 -0.7314
  933MOL0     C25836   3.847   3.783   4.287  0.1904 -0.3066 -0.0383
  933MOL0     N25837   3.712   3.767   4.226 -0.3468 -0.5947 -0.4974
  933MOL0     C25838   3.671   3.680   4.133 -0.2697 -0.1390  0.6589
  933MOL0     C25839   3.535   3.682   4.143  0.6855 -0.7733  0.7031
  933MOL0     C25840   3.455   3.600   4.042 -0.4135 -0.3847 -0.6721
  933MOL0     C25841   3.409   3.692   3.935  0.0647  0.0182  0.8867
  933MOL0     C25842   3.313   3.624   3.843 -0.4155  0.0117  0.1070
  933MOL0     C25843   3.233   3.715   3.755  0.0371  0.2521  0.1002
  933MOL0     O25844   3.203   3.841   3.821 -0.5767  0.0711 -0.3674
  933MOL0     C25845   3.095   3.849   3.899 -0.4499  0.0392 -0.1577
  933MOL0     C25846   3.015   3.740   3.939 -0.5475 -0.4169 -0.4845
  933MOL0     C25847   2.906   3.753   4.026 -0.0105 -0.1388 -0.6633
  933MOL0     C25848   2.825   3.634   4.074  0.4416  0.4618 -0.2192
  933MOL0     C25849   2.879   3.878   4.073  0.1706  0.3245  0.1205
  933MOL0     C25850   2.747   3.907   4.134 -0.4921 -0.1149  0.2872
  933MOL0     O25851   2.631   3.903   4.060  0.1933 -0.0139  0.8141
  933MOL0     C25852   2.512   3.935   4.122 -0.2894  0.2994  0.0663
  933MOL0     C25853   2.487   4.062   4.179  0.6802 -0.4675 -0.5546
  933MOL0     C25854   2.376   4.089   4.258  0.9603 -0.3815 -0.2011
  933MOL0     C25855   2.272   3.988   4.274  0.2891 -0.3692  0.6102
  933MOL0     O25856   2.161   4.016   4.348  0.0436  0.8980  0.1286
  933MOL0     C25857   2.045   3.937   4.312 -0.1235 -0.4204  0.0936
  933MOL0     C25858   1.927   4.016   4.365  0.9109 -0.5173  0.1802
  933MOL0     C25859   1.804   3.921   4.374  0.3872 -0.0041  0.4210
  933MOL0     C25860   1.684   3.971   4.462 -0.3195  0.3207 -0.4695
  933MOL0     C25861   1.571   3.871   4.446  0.4534  0.3121 -0.2864
  933MOL0     C25862   1.440   3.939   4.502  0.6403 -0.6445 -0.7891
  933MOL0     C25863   1.309   3.853   4.499 -0.3455 -0.1260  0.1843
  933MOL0     C25864   1.175   3.916   4.565 -0.4827  1.0792  0.1278
  933MOL0    Cl25865   1.114   4.043   4.469 -0.7988 -0.0911  0.2443
  933MOL0     C25866   2.288   3.865   4.210 -0.5763  0.0321  0.4674
  933MOL0     C25867   2.403   3.838   4.129 -0.2565 -0.2295 -0.2038
  933MOL0     O25868   2.758   3.950   4.245 -0.7505 -0.2536  0.1020
  933MOL0     C25869   2.955   3.984   4.036  0.1440  0.0897 -0.3376
  933MOL0     C25870   3.056   3.968   3.949 -0.9877  0.8095 -0.2802
  933MOL0     N25871   3.488   3.769   4.239 -0.8616 -0.2571  0.1866
  933MOL0     N25872   3.597   3.812   4.283 -0.3828 -0.1611  0.2323
  933MOL0     C25873   4.845   4.242   4.016  0.5476  0.3175 -0.2669
  933MOL0     C25874   4.968   4.239   3.945 -0.5940  0.3313  0.1851
  933MOL0     C25875   5.348   4.026   3.753  0.4541  0.1503  0.7069
  933MOL0     C25876   5.332   4.099   3.631  0.0245 -0.3322 -0.1726
  933MOL0     C25877   5.442   4.107   3.538  0.2387  0.6464 -0.0187
  933MOL0     C25878   5.576   4.067   3.574  0.3726  0.3196  0.2481
  933MOL0     O25879   5.676   4.102   3.490 -0.1169 -0.6362 -0.1429
  933MOL0     C25880   5.803   4.036   3.517 -0.4668 -0.7163  0.3459
  933MOL0     C25881   5.875   4.054   3.381  0.3592 -0.3945 -0.1925
  933MOL0     C25882   6.013   4.011   3.394 -0.9576 -0.0972 -0.3462
  933MOL0     C25883   6.089   4.010   3.267  0.5746  0.4097  0.6342
  933MOL0     C25884   6.231   3.971   3.293  0.4951  0.5955  0.5436
  933MOL0     C25885   6.343   3.939   3.325 -0.0560  0.8875 -0.2263
  933MOL0     C25886   5.585   3.977   3.682  0.0415 -0.3151 -0.0686
  933MOL0     C25887   5.471   3.959   3.769 -0.2167 -0.7531  0.4886
  933MOL0     H25888   4.996   3.900   3.898  1.3838  0.1209 -0.3284
  933MOL0     H25889   4.809   3.905   4.055  0.3031 -0.1851 -1.5815
  933MOL0     H25890   4.675   4.248   4.278 -1.0716  0.0353  0.2814
  933MOL0     H25891   4.604   4.318   4.139 -0.3263  0.1826  0.8550
  933MOL0     H25892   4.505   4.124   4.344  4.4054  4.2209  1.5362
  933MOL0     H25893   4.420   4.273   4.287 -1.8399 -0.4047 -0.9884
  933MOL0     H25894   4.315   4.176   4.124 -1.2840  1.1385  0.9749
  933MOL0     H25895   4.443   4.047   4.088 -0.0173 -1.0565 -0.0387
  933MOL0     H25896   4.331   3.903   4.258 -0.0545  0.3337 -2.8772
  933MOL0     H25897   4.271   4.042   4.345 -1.4039 -0.2321 -1.1172
  933MOL0     H25898   4.097   4.069   4.154  1.9137  1.2147  2.0749
  933MOL0     H25899   4.170   3.938   4.069  1.0615  0.0069 -0.0676
  933MOL0     H25900   4.106   3.775   4.233 -1.2032  0.1688 -0.5462
  933MOL0     H25901   4.088   3.899   4.355 -0.9659 -1.3138 -0.0423
  933MOL0     H25902   3.888   3.987   4.228 -0.5709 -0.1315  0.1625
  933MOL0     H25903   3.925   3.874   4.100  0.0941 -2.4358 -0.4815
  933MOL0     H25904   3.833   3.819   4.390 -2.7763 -0.8852 -0.1485
  933MOL0     H25905   3.898   3.687   4.290 -0.5794 -0.7153  0.0828
  933MOL0     H25906   3.743   3.632   4.067 -0.3478 -0.0614  0.5151
  933MOL0     H25907   3.523   3.528   3.996  1.3092 -0.1153  1.2637
  933MOL0     H25908   3.386   3.538   4.101  0.5566 -0.2020  0.7015
  933MOL0     H25909   3.494   3.724   3.874  0.0725 -1.4244  0.0940
  933MOL0     H25910   3.368   3.784   3.978  0.3983 -0.0482  1.3571
  933MOL0     H25911   3.257   3.554   3.905  1.8975 -1.8381  0.2680
  933MOL0     H25912   3.361   3.559   3.769 -0.2112  1.4902 -1.1165
  933MOL0     H25913   3.150   3.665   3.704 -0.3329  1.1043 -0.1527
  933MOL0     H25914   3.292   3.736   3.666 -0.1838  1.7448  0.2761
  933MOL0     H25915   3.044   3.640   3.907 -3.3812 -1.5855  0.2704
  933MOL0     H25916   2.867   3.537   4.044 -2.0482 -0.7508 -0.0328
  933MOL0     H25917   2.812   3.636   4.182 -1.5542 -1.9398 -0.3136
  933MOL0     H25918   2.729   3.642   4.023  1.4069  1.8449 -1.9517
  933MOL0     H25919   2.557   4.145   4.165 -1.0169  1.0143 -0.5778
  933MOL0     H25920   2.354   4.178   4.316  2.5126 -0.2930  0.3057
  933MOL0     H25921   2.027   3.942   4.205 -1.9212  0.4065  0.4103
  933MOL0     H25922   2.052   3.835   4.352  4.3577  0.0866  1.2184
  933MOL0     H25923   1.950   4.056   4.465  2.2087  0.6543 -0.5493
  933MOL0     H25924   1.905   4.094   4.292  2.3012 -1.6264 -1.4813
  933MOL0     H25925   1.834   3.819   4.402  1.4837 -0.1443 -1.1186
  933MOL0     H25926   1.767   3.929   4.271  0.0172  2.5420  0.7066
  933MOL0     H25927   1.721   3.981   4.565 -0.5539  0.7021 -0.4164
  933MOL0     H25928   1.663   4.076   4.437 -0.2031  0.7347  1.0323
  933MOL0     H25929   1.600   3.782   4.502  1.8669  0.5457 -0.6043
  933MOL0     H25930   1.561   3.853   4.338  0.1676  3.4657 -0.8915
  933MOL0     H25931   1.452   3.968   4.607  0.5803 -1.1491 -0.6432
  933MOL0     H25932   1.423   4.020   4.430 -0.0634  0.1564  0.2479
  933MOL0     H25933   1.341   3.757   4.539  0.1478  0.6624  1.7882
  933MOL0     H25934   1.289   3.834   4.394  2.9744 -0.1361 -0.5425
  933MOL0     H25935   1.201   3.948   4.666 -1.4054  2.8754 -0.1537
  933MOL0     H25936   1.105   3.832   4.563 -0.7696  1.3043 -2.4647
  933MOL0     H25937   2.217   3.783   4.214  0.4137 -0.8713 -0.0747
  933MOL0     H25938   2.423   3.738   4.090 -0.9848  0.2936 -2.0434
  933MOL0     H25939   2.915   4.081   4.063 -1.2725 -0.9363  1.4580
  933MOL0     H25940   3.122   4.049   3.920  0.2686  0.0407  0.3437
  933MOL0     H25941   4.797   4.337   4.037  0.9570  0.9655 -2.0519
  933MOL0     H25942   5.021   4.323   3.900 -1.2242  0.8159  0.3346
  933MOL0     H25943   5.237   4.150   3.622  0.2419 -0.2942 -3.3234
  933MOL0     H25944   5.420   4.167   3.450 -0.3777 -0.4770 -0.6563
  933MOL0     H25945   5.861   4.089   3.593 -0.6478  1.5681 -1.0054
  933MOL0     H25946   5.802   3.929   3.535 -0.6277 -0.6504  0.7437
  933MOL0     H25947   5.873   4.160   3.354  1.2975  0.3910  2.5106
  933MOL0     H25948   5.827   3.986   3.310  1.6091 -1.7140  0.1733
  933MOL0     H25949   6.010   3.906   3.427 -1.0981  0.0321  0.0508
  933MOL0     H25950   6.070   4.068   3.467 -3.3556  1.1060  0.6824
  933MOL0     H25951   6.092   4.113   3.228  0.3984  0.8091  1.6526
  933MOL0     H25952   6.029   3.953   3.196  0.4419  0.6830  0.5235
  933MOL0     H25953   6.446   3.924   3.351 -0.6904  1.3897  3.0631
  933MOL0     H25954   5.674   3.922   3.714  0.6054 -0.8449 -2.3791
  933MOL0     H25955   5.481   3.893   3.854  3.2364  0.0193  0.8266
  934MOL0     O25956  10.704   0.476   4.306  0.4973 -0.5022 -0.0686
  934MOL0     C25957  10.690   0.517   4.421  0.2446  0.1318 -0.0772
  934MOL0     O25958  10.577   0.520   4.487  0.2428 -0.1017 -0.0126
  934MOL0     C25959  10.457   0.494   4.435 -0.1246  0.4529  0.0277
  934MOL0     C25960  10.409   0.567   4.331 -0.4435  0.9021  0.0336
  934MOL0     C25961  10.274   0.553   4.289 -0.6633  0.1347 -0.4839
  934MOL0     C25962  10.186   0.454   4.347 -1.0285 -0.0345  1.0116
  934MOL0     O25963  10.063   0.416   4.304 -0.0977  0.6837  0.4757
  934MOL0     C25964  10.011   0.479   4.187  0.7548  0.3223  0.0097
  934MOL0     C25965   9.911   0.595   4.220 -0.0232 -0.1258 -0.3429
  934MOL0     C25966   9.787   0.562   4.310  0.0283 -0.7971 -0.0107
  934MOL0     C25967   9.713   0.425   4.281 -1.1839 -0.4088 -0.5430
  934MOL0     C25968   9.603   0.413   4.386 -0.0713 -0.1069 -0.2927
  934MOL0     C25969   9.509   0.289   4.358  0.0561 -0.0074 -0.2861
  934MOL0     C25970   9.401   0.264   4.453 -0.1322 -0.0929 -0.3985
  934MOL0     C25971   9.262   0.224   4.398 -0.2061  0.5683 -0.3295
  934MOL0     N25972   9.196   0.338   4.325  0.5093 -0.2913 -0.7995
  934MOL0     C25973   9.186   0.333   4.188 -0.6991 -0.3192  0.9178
  934MOL0     C25974   9.110   0.438   4.155 -0.6383 -0.2065 -0.1958
  934MOL0     C25975   9.070   0.470   4.014  0.3406  0.0762  0.5779
  934MOL0     C25976   9.018   0.614   4.001 -0.4147  0.5304  0.4707
  934MOL0     C25977   8.995   0.657   3.858  0.7532 -0.4323  0.0855
  934MOL0     C25978   8.841   0.668   3.824 -0.7842 -1.0573 -0.0768
  934MOL0     O25979   8.830   0.720   3.687 -0.1158  0.3622  0.0562
  934MOL0     C25980   8.807   0.632   3.584  0.3319 -0.3273 -0.6022
  934MOL0     C25981   8.837   0.496   3.581 -0.2291 -0.5403 -0.2739
  934MOL0     C25982   8.784   0.412   3.485  0.3128  1.2135  0.8235
  934MOL0     C25983   8.811   0.264   3.507  0.6256 -0.7968 -0.3075
  934MOL0     C25984   8.720   0.466   3.372 -0.9920  0.5016 -0.3178
  934MOL0     C25985   8.659   0.387   3.263  0.1454  0.1567  0.4197
  934MOL0     O25986   8.632   0.460   3.149 -0.2484  0.1235 -1.1185
  934MOL0     C25987   8.577   0.381   3.042 -0.9553 -0.0813 -0.2347
  934MOL0     C25988   8.645   0.273   2.983 -0.3785  0.0964  1.3694
  934MOL0     C25989   8.578   0.207   2.876  0.3917  0.1318  0.3319
  934MOL0     C25990   8.445   0.242   2.835  0.2925  0.3389  0.4686
  934MOL0     O25991   8.386   0.190   2.725  0.1737 -0.3843  0.5604
  934MOL0     C25992   8.378   0.059   2.724  0.0285  0.6334  0.1736
  934MOL0     C25993   8.274   0.025   2.615 -0.4149 -0.7013  0.7352
  934MOL0     C25994   8.122   0.045   2.654 -0.1295 -0.4567  0.1528
  934MOL0     C25995   8.081   0.197   2.635  0.7613  0.3669  0.5183
  934MOL0     C25996   7.937   0.208   2.684  0.3101  0.5097 -0.3867
  934MOL0     C25997   7.901   0.353   2.680  0.9747  0.4384 -0.0040
  934MOL0     C25998   7.751   0.364   2.733  0.1131  0.1004  0.6361
  934MOL0     C25999   7.719   0.495   2.807 -0.8589  0.1765 -0.1845
  934MOL0    Cl26000   7.547   0.483   2.850  0.1838 -0.0958  0.5826
  934MOL0     C26001   8.390   0.353   2.893  0.7860  0.0685 -0.1501
  934MOL0     C26002   8.457   0.429   2.992 -0.1465  0.6913  0.1830
  934MOL0     O26003   8.637   0.260   3.278  0.6117  0.0151  0.2607
  934MOL0     C26004   8.708   0.604   3.372 -0.0660  0.4483  0.1539
  934MOL0     C26005   8.747   0.692   3.475  0.3503  0.5081 -0.0665
  934MOL0     N26006   9.078   0.511   4.268  0.5210 -0.1853 -0.0612
  934MOL0     N26007   9.141   0.451   4.377  0.1468  0.0365 -0.2744
  934MOL0     C26008  10.237   0.381   4.448 -0.6494  0.4661  0.2122
  934MOL0     C26009  10.369   0.403   4.500 -0.6348 -0.9077  0.4550
  934MOL0     C26010  10.816   0.564   4.482 -0.3354 -0.5136 -0.2895
  934MOL0     C26011  10.817   0.641   4.602  0.0651  0.9722  0.1456
  934MOL0     C26012  10.940   0.704   4.646 -0.5371 -0.2996  0.9541
  934MOL0     C26013  11.064   0.677   4.582  0.0154 -0.4205 -0.8363
  934MOL0     O26014  11.179   0.728   4.630  0.1754 -0.9117  0.0892
  934MOL0     C26015  11.229   0.825   4.532 -0.0243  0.2549  0.5289
  934MOL0     C26016  11.306   0.923   4.616 -0.4305 -0.7230 -0.7491
  934MOL0     C26017  11.441   0.871   4.676 -0.3981 -0.2530 -0.5643
  934MOL0     C26018  11.513   0.976   4.762 -0.2012 -0.3643 -0.1866
  934MOL0     C26019  11.564   1.085   4.673  0.2338 -0.4342  0.8188
  934MOL0     C26020  11.600   1.173   4.590 -0.5883 -0.5814 -0.2633
  934MOL0     C26021  11.059   0.581   4.476 -0.2148 -0.6706 -0.5853
  934MOL0     C26022  10.938   0.529   4.424  0.0675 -0.6378 -0.3832
  934MOL0     H26023  10.455   0.643   4.268  0.3031  0.2469 -0.2356
  934MOL0     H26024  10.236   0.609   4.203  0.1008 -2.3350 -2.5480
  934MOL0     H26025  10.092   0.522   4.127  0.3275  1.7152  0.3978
  934MOL0     H26026   9.949   0.412   4.127  1.0268  0.2633 -0.2062
  934MOL0     H26027   9.966   0.681   4.259 -2.4209  1.3546 -0.0271
  934MOL0     H26028   9.867   0.625   4.124 -1.9040  4.6497  1.7163
  934MOL0     H26029   9.807   0.562   4.417 -0.7818  1.4901  0.2031
  934MOL0     H26030   9.709   0.637   4.295  0.9447 -0.1609 -1.8810
  934MOL0     H26031   9.663   0.414   4.184 -1.1170 -1.9456 -0.4221
  934MOL0     H26032   9.786   0.345   4.289  1.9601  2.3030  0.0034
  934MOL0     H26033   9.654   0.398   4.481  1.0636 -1.7610 -1.1295
  934MOL0     H26034   9.536   0.500   4.397  1.0594  0.8526 -0.8198
  934MOL0     H26035   9.467   0.294   4.257 -0.6325 -3.6256 -0.2892
  934MOL0     H26036   9.564   0.196   4.344  0.2453 -0.3743  2.3049
  934MOL0     H26037   9.433   0.186   4.522  1.1351  0.9569  0.2560
  934MOL0     H26038   9.389   0.355   4.513  0.7361 -0.1773 -0.0759
  934MOL0     H26039   9.209   0.180   4.483  0.6737 -0.6965 -0.4108
  934MOL0     H26040   9.275   0.140   4.328  0.2178  2.4186 -2.5902
  934MOL0     H26041   9.235   0.259   4.125 -0.8087 -0.4655  1.0048
  934MOL0     H26042   9.159   0.458   3.950  0.5156  0.3866  0.7564
  934MOL0     H26043   8.990   0.404   3.980 -0.5678  1.1409  0.5866
  934MOL0     H26044   9.080   0.688   4.053  0.2229  0.1920  0.2029
  934MOL0     H26045   8.924   0.612   4.057 -0.2088 -2.0567  0.8611
  934MOL0     H26046   9.038   0.584   3.789  1.1007 -0.3031  0.1630
  934MOL0     H26047   9.033   0.758   3.839  0.5039 -0.4084 -0.3045
  934MOL0     H26048   8.774   0.728   3.886 -3.5849 -1.5432 -2.4396
  934MOL0     H26049   8.791   0.571   3.834 -2.3775 -0.4906 -2.0195
  934MOL0     H26050   8.900   0.455   3.659  2.2145 -0.2498 -2.0048
  934MOL0     H26051   8.875   0.234   3.424 -0.5562  0.0347 -1.5591
  934MOL0     H26052   8.852   0.249   3.608 -3.4473  1.5509  1.9756
  934MOL0     H26053   8.721   0.202   3.512 -0.1457  0.2039 -1.1320
  934MOL0     H26054   8.738   0.234   3.024  0.0979  1.1092  1.2875
  934MOL0     H26055   8.642   0.135   2.826  2.0341  1.8912 -0.2264
  934MOL0     H26056   8.465   0.007   2.682  0.5959 -0.4972  2.5754
  934MOL0     H26057   8.354   0.006   2.817  0.3951 -1.1170 -0.6925
  934MOL0     H26058   8.295   0.090   2.530 -1.3961  0.0874  1.0656
  934MOL0     H26059   8.283  -0.078   2.579 -2.4269 -1.0080  1.0071
  934MOL0     H26060   8.110   0.020   2.760  0.4167  2.2640  0.9486
  934MOL0     H26061   8.057  -0.009   2.585 -1.4823  2.1252 -0.7313
  934MOL0     H26062   8.136   0.265   2.701 -0.7999  2.7334 -0.4713
  934MOL0     H26063   8.088   0.234   2.533  0.4980  1.6956  0.9610
  934MOL0     H26064   7.925   0.178   2.788 -0.2646 -2.1736 -1.1437
  934MOL0     H26065   7.867   0.148   2.625 -0.8801  0.3556  1.1403
  934MOL0     H26066   7.961   0.418   2.744 -0.0362  0.7462  0.6388
  934MOL0     H26067   7.899   0.384   2.575  0.5702 -0.6911 -0.3445
  934MOL0     H26068   7.722   0.281   2.797 -1.5945 -0.0504 -0.2683
  934MOL0     H26069   7.683   0.350   2.649  2.1266  0.1378 -1.0870
  934MOL0     H26070   7.751   0.576   2.741 -0.8183 -0.5688 -1.1126
  934MOL0     H26071   7.776   0.506   2.899  0.4258 -2.6052 -0.5268
  934MOL0     H26072   8.296   0.398   2.863 -0.8104 -0.8544  2.9409
  934MOL0     H26073   8.406   0.510   3.044 -1.2640  0.8649 -1.1166
  934MOL0     H26074   8.658   0.661   3.294  1.8354  0.8329 -0.8522
  934MOL0     H26075   8.728   0.799   3.470 -0.4246  0.3579 -0.5932
  934MOL0     H26076  10.174   0.301   4.484 -0.2831  0.1440  0.1398
  934MOL0     H26077  10.410   0.340   4.579  1.0496 -1.3748 -0.7156
  934MOL0     H26078  10.719   0.661   4.643  0.1444 -1.1804  1.5930
  934MOL0     H26079  10.941   0.783   4.720  0.2168  1.9029 -1.2942
  934MOL0     H26080  11.297   0.766   4.469 -2.8143 -2.4904 -0.1624
  934MOL0     H26081  11.157   0.882   4.474 -1.6182 -1.2910  0.9061
  934MOL0     H26082  11.237   0.949   4.696  0.3426 -0.3688 -0.1881
  934MOL0     H26083  11.332   1.020   4.572 -1.8329  1.0125  2.0477
  934MOL0     H26084  11.512   0.830   4.604 -0.0982  0.3733 -0.6322
  934MOL0     H26085  11.417   0.788   4.743 -0.4073  1.0678  1.1349
  934MOL0     H26086  11.602   0.937   4.811 -1.1762  1.0208  2.9518
  934MOL0     H26087  11.455   1.014   4.847  2.1555  0.2395  1.2338
  934MOL0     H26088  11.624   1.245   4.515 -1.8145  0.8205  0.6404
  934MOL0     H26089  11.151   0.543   4.434  0.0077  1.2888 -1.9967
  934MOL0     H26090  10.935   0.470   4.333 -0.8794 -0.8192 -0.2464
  935MOL0     O26091   9.014  11.207   7.851 -0.6432  0.1220  0.1584
  935MOL0     C26092   9.019  11.326   7.799 -0.6033  0.0572  0.0760
  935MOL0     O26093   8.917  11.403   7.752  0.1169 -0.3411  0.3814
  935MOL0     C26094   8.789  11.357   7.767 -0.0338  0.1451  0.2967
  935MOL0     C26095   8.750  11.221   7.757  0.3456 -0.7841 -0.4268
  935MOL0     C26096   8.614  11.185   7.751 -0.2631 -0.5332  0.5444
  935MOL0     C26097   8.518  11.292   7.756  0.2937  0.3069  0.5389
  935MOL0     O26098   8.381  11.266   7.743  0.0719 -0.4720  0.0877
  935MOL0     C26099   8.325  11.145   7.798 -0.2791 -0.5233  0.8197
  935MOL0     C26100   8.178  11.148   7.756  0.1912 -0.8254 -0.1147
  935MOL0     C26101   8.089  11.219   7.859 -0.2883  0.4360 -0.1454
  935MOL0     C26102   7.941  11.211   7.816  0.4178 -0.9779  0.2776
  935MOL0     C26103   7.856  11.308   7.892  0.4532 -0.2311  0.1988
  935MOL0     C26104   7.708  11.285   7.888  0.8109 -0.4355  0.7701
  935MOL0     C26105   7.644  11.302   7.746 -0.2713  0.2351 -0.4033
  935MOL0     C26106   7.496  11.244   7.734 -0.3135 -0.4073 -0.0850
  935MOL0     N26107   7.408  11.321   7.825 -0.2491 -0.8502 -0.4474
  935MOL0     C26108   7.361  11.277   7.945  1.3894  0.4226  1.3610
  935MOL0     C26109   7.286  11.371   8.003 -0.6108 -0.5224  0.2241
  935MOL0     C26110   7.217  11.356   8.134  0.3301 -0.3422 -0.1941
  935MOL0     C26111   7.104  11.256   8.131  0.1354  0.6568  0.4127
  935MOL0     C26112   7.022  11.257   8.256 -0.4521  0.8015  0.3291
  935MOL0     C26113   6.882  11.193   8.230  1.3843 -0.5206  0.4583
  935MOL0     O26114   6.794  11.301   8.176  0.2321  0.7241  0.5945
  935MOL0     C26115   6.655  11.284   8.182 -0.1858  0.1153  0.0484
  935MOL0     C26116   6.592  11.163   8.203 -0.0105 -0.7037 -0.7588
  935MOL0     C26117   6.450  11.163   8.211  0.3083 -0.2295 -0.4469
  935MOL0     C26118   6.374  11.030   8.228  0.2732 -0.0533 -0.1788
  935MOL0     C26119   6.377  11.284   8.221 -0.0443 -0.0049  0.4547
  935MOL0     C26120   6.229  11.295   8.235 -0.0947 -0.4428 -0.0317
  935MOL0     O26121   6.203  11.390   8.322 -0.4582  0.1002 -0.3691
  935MOL0     C26122   6.067  11.410   8.358 -0.0213  0.7945 -0.5249
  935MOL0     C26123   5.961  11.418   8.265  0.0084 -0.0385 -0.1729
  935MOL0     C26124   5.827  11.432   8.305  0.2165 -0.6358 -0.7634
  935MOL0     C26125   5.796  11.439   8.447 -0.2529 -1.2613  0.0116
  935MOL0     O26126   5.669  11.476   8.484 -0.0873  0.1967 -0.0646
  935MOL0     C26127   5.631  11.437   8.623 -0.3788  0.5136  0.6146
  935MOL0     C26128   5.597  11.286   8.631 -0.1709 -0.6106  0.0567
  935MOL0     C26129   5.555  11.269   8.776 -0.0103 -0.0978  1.2032
  935MOL0     C26130   5.556  11.126   8.833  0.3281 -0.0595 -0.4619
  935MOL0     C26131   5.533  11.120   8.980  0.4824 -0.0807  0.1526
  935MOL0     C26132   5.510  10.972   9.021  0.0901 -0.2311  0.8268
  935MOL0     C26133   5.482  10.965   9.169 -0.6804  0.5048  0.3892
  935MOL0     C26134   5.599  10.944   9.259 -0.2707  1.1389 -0.1639
  935MOL0    Cl26135   5.554  10.906   9.425  0.1396 -0.1343  0.8412
  935MOL0     C26136   5.903  11.445   8.541 -0.0448  0.9694  0.3983
  935MOL0     C26137   6.035  11.433   8.492  0.1260 -0.0785 -0.2512
  935MOL0     O26138   6.146  11.216   8.192 -0.4416  0.0343 -0.4725
  935MOL0     C26139   6.444  11.402   8.197 -0.1021 -0.0916 -0.6510
  935MOL0     C26140   6.578  11.400   8.183 -0.1283  0.3156 -0.5462
  935MOL0     N26141   7.285  11.479   7.915  0.0252  0.3029  0.1605
  935MOL0     N26142   7.366  11.449   7.811  0.4910  0.2475 -0.4801
  935MOL0     C26143   8.558  11.428   7.759  0.0095  1.3115  0.3171
  935MOL0     C26144   8.694  11.458   7.769  0.5196 -0.5839 -1.0135
  935MOL0     C26145   9.159  11.390   7.813  0.0284 -0.1502 -0.1478
  935MOL0     C26146   9.184  11.520   7.777  0.4712  0.0831 -0.2169
  935MOL0     C26147   9.314  11.579   7.772  0.6668  0.3237  0.0123
  935MOL0     C26148   9.425  11.508   7.824 -0.6120  0.4342  0.6933
  935MOL0     O26149   9.544  11.574   7.849  0.3607 -0.6037 -0.3771
  935MOL0     C26150   9.643  11.501   7.918 -0.0349 -0.4075 -0.2352
  935MOL0     C26151   9.755  11.605   7.926  0.0073 -0.0996 -0.3752
  935MOL0     C26152   9.820  11.645   7.790  0.1999  0.0150  0.3551
  935MOL0     C26153   9.946  11.739   7.803  0.3760  0.0422 -0.5424
  935MOL0     C26154  10.057  11.699   7.893 -0.5674  0.1021 -0.2043
  935MOL0     C26155  10.158  11.682   7.962  0.3704 -0.8513 -0.4316
  935MOL0     C26156   9.397  11.377   7.869 -0.3651  0.6212 -0.6808
  935MOL0     C26157   9.267  11.320   7.858  1.1982 -0.0111  0.3727
  935MOL0     H26158   8.822  11.145   7.732 -0.8735 -2.2189  0.2906
  935MOL0     H26159   8.588  11.080   7.748  3.5908 -1.6005 -0.3393
  935MOL0     H26160   8.377  11.059   7.756  0.6364 -0.0518  0.9478
  935MOL0     H26161   8.340  11.141   7.907  2.1902  1.8189  0.6737
  935MOL0     H26162   8.177  11.200   7.660  0.7264 -1.5209 -0.5066
  935MOL0     H26163   8.147  11.048   7.725 -1.1640 -0.0351 -1.3832
  935MOL0     H26164   8.100  11.185   7.962 -4.1642 -0.2709  0.1985
  935MOL0     H26165   8.118  11.325   7.857 -0.4673  0.4791 -0.7438
  935MOL0     H26166   7.932  11.232   7.709  0.5959  2.3925  0.8101
  935MOL0     H26167   7.890  11.116   7.831 -1.0755 -0.4421 -1.0931
  935MOL0     H26168   7.894  11.299   7.995  0.7826 -1.0653  0.0175
  935MOL0     H26169   7.877  11.408   7.855  0.6816 -1.0995 -2.1650
  935MOL0     H26170   7.685  11.186   7.930 -0.5743  0.1446  1.4488
  935MOL0     H26171   7.660  11.361   7.951 -0.9757 -0.3408 -0.6152
  935MOL0     H26172   7.638  11.410   7.731 -1.8509 -0.0488 -2.3238
  935MOL0     H26173   7.711  11.247   7.679  0.8172  1.4878 -0.3875
  935MOL0     H26174   7.493  11.138   7.762 -1.7016 -2.0635 -5.3478
  935MOL0     H26175   7.469  11.252   7.629 -1.3722  1.5996  0.2906
  935MOL0     H26176   7.377  11.176   7.983  1.0429 -0.4859 -0.7561
  935MOL0     H26177   7.290  11.315   8.205  1.7333 -0.4568 -1.6426
  935MOL0     H26178   7.170  11.448   8.169  0.3551 -0.3806 -0.0601
  935MOL0     H26179   7.146  11.157   8.112 -1.7692 -0.1831  0.4030
  935MOL0     H26180   7.040  11.284   8.047 -2.7017  0.4565  2.3781
  935MOL0     H26181   7.008  11.354   8.306  0.5926  1.3844 -0.4840
  935MOL0     H26182   7.080  11.195   8.325 -0.1281  0.9756  0.2162
  935MOL0     H26183   6.841  11.164   8.327  0.7553  1.0590  0.6938
  935MOL0     H26184   6.897  11.100   8.174  1.8472  0.2042 -0.6593
  935MOL0     H26185   6.643  11.068   8.213 -1.4103 -1.4046 -0.0714
  935MOL0     H26186   6.444  10.948   8.244 -0.4267 -0.7223 -0.4357
  935MOL0     H26187   6.320  11.029   8.323  1.4745  3.2026  0.6625
  935MOL0     H26188   6.308  11.004   8.144  2.4245  1.3206 -2.4217
  935MOL0     H26189   5.973  11.394   8.160 -0.1506 -0.8521 -0.0124
  935MOL0     H26190   5.744  11.435   8.235 -0.7486 -2.4613  0.2110
  935MOL0     H26191   5.696  11.466   8.705  0.5745 -0.5575  0.2519
  935MOL0     H26192   5.535  11.490   8.633 -2.2031 -2.1924 -1.1936
  935MOL0     H26193   5.516  11.263   8.562  0.4330  2.6055 -1.9667
  935MOL0     H26194   5.689  11.232   8.608 -0.0194 -0.8485  1.1658
  935MOL0     H26195   5.455  11.312   8.788 -0.1085  1.2199 -2.7892
  935MOL0     H26196   5.630  11.318   8.838  0.4886 -0.6573  1.0580
  935MOL0     H26197   5.474  11.074   8.782 -1.5313 -0.1228  2.3413
  935MOL0     H26198   5.650  11.076   8.810  1.3838  1.6199  0.0309
  935MOL0     H26199   5.441  11.173   9.006  0.5665  1.4986 -2.3441
  935MOL0     H26200   5.614  11.169   9.035 -0.0634  3.0480 -1.5686
  935MOL0     H26201   5.417  10.935   8.977  0.6193  0.0050 -0.5261
  935MOL0     H26202   5.598  10.918   8.983  0.4693  1.8908 -1.5194
  935MOL0     H26203   5.426  10.872   9.184  0.8521 -0.8777 -1.9039
  935MOL0     H26204   5.415  11.046   9.199 -1.6950  0.0041 -0.4480
  935MOL0     H26205   5.668  11.029   9.253  1.4327 -0.3229 -2.2579
  935MOL0     H26206   5.648  10.857   9.215 -1.1919  0.3235  0.3770
  935MOL0     H26207   5.885  11.464   8.646 -1.3558  1.8576  0.0557
  935MOL0     H26208   6.114  11.436   8.567  0.8076  1.2362 -0.9826
  935MOL0     H26209   6.402  11.502   8.203 -0.2001 -0.1388 -0.5268
  935MOL0     H26210   6.634  11.493   8.179  0.4254 -0.0273 -0.9738
  935MOL0     H26211   8.491  11.513   7.762 -1.7199  0.1397 -2.0189
  935MOL0     H26212   8.717  11.564   7.762 -2.6347  0.4106  1.2166
  935MOL0     H26213   9.101  11.575   7.734 -1.2480  0.8606  3.6793
  935MOL0     H26214   9.320  11.679   7.731  2.0897 -0.7819 -2.7244
  935MOL0     H26215   9.614  11.460   8.016  0.5732  1.2896  0.6856
  935MOL0     H26216   9.678  11.411   7.866 -0.3036 -2.2453  2.5541
  935MOL0     H26217   9.833  11.570   7.994  0.9341 -0.4684 -1.5995
  935MOL0     H26218   9.718  11.702   7.963 -0.2544 -0.4771  0.3601
  935MOL0     H26219   9.749  11.686   7.717 -0.0783 -0.5991  0.2719
  935MOL0     H26220   9.851  11.555   7.734 -3.1259 -1.4236  0.5785
  935MOL0     H26221   9.916  11.843   7.822 -1.6818 -0.5619 -0.2775
  935MOL0     H26222   9.995  11.751   7.706  1.5449  2.7559  0.2801
  935MOL0     H26223  10.242  11.690   8.027  0.4963  1.7207 -0.8072
  935MOL0     H26224   9.469  11.309   7.911  0.0563  0.7032 -1.2606
  935MOL0     H26225   9.252  11.219   7.894 -0.8300 -0.7841 -2.3008
  936MOL0     O26226   0.724   7.337   5.889  0.2292 -0.1641 -0.2888
  936MOL0     C26227   0.792   7.234   5.873  0.1922  0.0397 -0.0466
  936MOL0     O26228   0.743   7.117   5.828 -0.0185  0.1460  0.1516
  936MOL0     C26229   0.609   7.107   5.832  0.2979 -0.0944  0.3801
  936MOL0     C26230   0.538   7.094   5.718  0.3682  0.1922 -0.9157
  936MOL0     C26231   0.393   7.096   5.726 -0.6310  0.1288 -0.3930
  936MOL0     C26232   0.324   7.101   5.843 -0.1144  0.1320 -0.0997
  936MOL0     O26233   0.186   7.101   5.843  0.6505 -0.6659  0.3500
  936MOL0     C26234   0.132   7.202   5.763 -0.0867  0.0895  0.3019
  936MOL0     C26235  -0.010   7.205   5.814 -0.6917 -0.0439  0.0329
  936MOL0     C26236  -0.097   7.114   5.722  0.5696 -0.5437  0.3312
  936MOL0     C26237  -0.137   7.169   5.589  0.6315 -0.7294 -0.8488
  936MOL0     C26238  -0.266   7.106   5.553 -0.8487  0.6296 -0.3105
  936MOL0     C26239  -0.310   7.113   5.401  0.3606 -0.0836 -1.2505
  936MOL0     C26240  -0.210   7.061   5.304 -0.3969  0.0748 -0.3947
  936MOL0     C26241  -0.270   7.027   5.173 -0.0911  0.3348 -0.1716
  936MOL0     N26242  -0.337   7.144   5.119  0.0978 -1.2419 -0.4260
  936MOL0     C26243  -0.467   7.188   5.143 -0.6783 -0.0840 -0.4262
  936MOL0     C26244  -0.478   7.303   5.066  0.2682 -0.2235  0.2458
  936MOL0     C26245  -0.597   7.391   5.071  0.0546  0.2472 -0.4270
  936MOL0     C26246  -0.610   7.468   5.204 -0.0887 -0.6980  0.1766
  936MOL0     C26247  -0.735   7.558   5.194  0.3414  0.1422 -0.3315
  936MOL0     C26248  -0.771   7.594   5.338  1.4003  0.0202 -0.0916
  936MOL0     O26249  -0.908   7.649   5.334  0.5565 -0.2122 -0.4461
  936MOL0     C26250  -0.993   7.640   5.445  0.0003 -0.2479  0.4738
  936MOL0     C26251  -0.944   7.605   5.567  0.3569  0.1666 -0.1005
  936MOL0     C26252  -1.026   7.604   5.682 -0.1263  0.0317 -0.0060
  936MOL0     C26253  -0.968   7.553   5.815  0.3579 -0.2349 -0.3283
  936MOL0     C26254  -1.159   7.646   5.669 -0.2304 -0.7521  0.7124
  936MOL0     C26255  -1.250   7.663   5.780 -0.1095 -0.1538 -0.3326
  936MOL0     O26256  -1.355   7.754   5.756  0.2582  0.4477 -0.0778
  936MOL0     C26257  -1.433   7.791   5.861  0.0763 -0.0955 -0.4254
  936MOL0     C26258  -1.567   7.749   5.861 -0.5507  0.4836  0.3208
  936MOL0     C26259  -1.651   7.800   5.956  0.6023  0.4643 -0.5824
  936MOL0     C26260  -1.602   7.878   6.063 -0.1015  0.6513 -0.2824
  936MOL0     O26261  -1.686   7.919   6.159 -0.0515  0.2956 -0.2266
  936MOL0     C26262  -1.798   7.997   6.117 -0.3429  0.2700  0.5751
  936MOL0     C26263  -1.917   7.988   6.206 -0.3039  0.2247 -0.5312
  936MOL0     C26264  -1.955   7.843   6.237 -0.5149 -0.0904  0.1525
  936MOL0     C26265  -2.076   7.843   6.330  0.1344  0.6319  0.1673
  936MOL0     C26266  -2.204   7.873   6.254 -0.5733  0.7966 -0.3303
  936MOL0     C26267  -2.336   7.824   6.315  0.4322  0.0997 -0.6140
  936MOL0     C26268  -2.399   7.931   6.418 -0.8599  0.1300  0.1948
  936MOL0     C26269  -2.303   7.979   6.525  0.6937 -0.9946 -0.1086
  936MOL0    Cl26270  -2.253   7.839   6.631  0.2658  0.2878  0.0635
  936MOL0     C26271  -1.471   7.915   6.064 -0.2015  0.8355  0.0647
  936MOL0     C26272  -1.383   7.879   5.950 -0.0217 -0.2133 -0.4060
  936MOL0     O26273  -1.237   7.589   5.882  0.0731 -0.6918  0.5458
  936MOL0     C26274  -1.206   7.689   5.544 -0.9879  0.0845  0.6421
  936MOL0     C26275  -1.119   7.680   5.434  0.1157 -0.7383 -0.0661
  936MOL0     N26276  -0.360   7.324   4.986 -0.2785  0.0340 -0.4748
  936MOL0     N26277  -0.283   7.226   5.028 -0.0751  0.1001  0.0062
  936MOL0     C26278   0.400   7.092   5.955  0.1479 -0.6382 -0.7778
  936MOL0     C26279   0.537   7.097   5.953  0.1211  0.6376  0.2407
  936MOL0     C26280   0.937   7.236   5.887  1.0043  0.4777 -0.4501
  936MOL0     C26281   1.015   7.115   5.880  0.2987 -0.0956  0.1344
  936MOL0     C26282   1.149   7.121   5.903  0.3462 -0.0484  0.8059
  936MOL0     C26283   1.213   7.241   5.941  0.5124 -0.7799  1.4407
  936MOL0     O26284   1.337   7.272   5.974  0.1545  0.4197  0.0390
  936MOL0     C26285   1.437   7.169   5.995  0.1674 -0.1999  0.3760
  936MOL0     C26286   1.565   7.222   6.061  0.2108  0.5253 -1.0242
  936MOL0     C26287   1.640   7.305   5.966 -0.9531  0.3075 -0.0103
  936MOL0     C26288   1.785   7.340   6.003 -0.4625 -0.3700 -0.2792
  936MOL0     C26289   1.871   7.220   5.985  0.5468  0.3470  0.3976
  936MOL0     C26290   1.942   7.123   5.988 -0.1845  0.6629 -0.2070
  936MOL0     C26291   1.130   7.356   5.946  0.7284  0.8949  0.1485
  936MOL0     C26292   0.998   7.351   5.909  0.4757 -0.4244  0.4970
  936MOL0     H26293   0.594   7.068   5.629  1.6866  1.3776 -0.4640
  936MOL0     H26294   0.338   7.069   5.636  0.0432  1.9625 -1.4080
  936MOL0     H26295   0.164   7.305   5.782 -0.9838  0.7478 -1.4925
  936MOL0     H26296   0.140   7.183   5.656  2.5581 -2.1875  0.7935
  936MOL0     H26297  -0.027   7.171   5.917 -3.3594  1.9040  0.3302
  936MOL0     H26298  -0.050   7.306   5.816  0.9018  0.7151 -2.2355
  936MOL0     H26299  -0.040   7.022   5.713  0.9314 -0.6010  2.7281
  936MOL0     H26300  -0.188   7.073   5.767  1.5418 -0.7773  2.1577
  936MOL0     H26301  -0.143   7.278   5.597  1.3653 -0.6962 -0.6877
  936MOL0     H26302  -0.061   7.145   5.513  1.4631  0.5025 -0.4384
  936MOL0     H26303  -0.260   6.997   5.561  2.2036  0.6487 -1.0428
  936MOL0     H26304  -0.346   7.145   5.616 -1.6720  0.2607 -1.1020
  936MOL0     H26305  -0.407   7.065   5.383 -0.8266  1.6857  0.1246
  936MOL0     H26306  -0.317   7.217   5.366  2.6487  0.5133 -0.0773
  936MOL0     H26307  -0.136   7.138   5.281 -2.0487  1.6920 -0.5995
  936MOL0     H26308  -0.162   6.969   5.338 -3.9447 -1.4225  1.0337
  936MOL0     H26309  -0.340   6.947   5.201  1.1897 -0.4313  0.9883
  936MOL0     H26310  -0.193   6.990   5.103 -1.3051  0.8892 -1.8647
  936MOL0     H26311  -0.529   7.135   5.215 -0.8007 -0.1346 -0.5699
  936MOL0     H26312  -0.605   7.469   4.995  0.4087  0.5839 -0.1225
  936MOL0     H26313  -0.687   7.329   5.061  0.4260 -0.7349  1.7241
  936MOL0     H26314  -0.521   7.526   5.227 -1.2888  1.1165  0.4721
  936MOL0     H26315  -0.620   7.393   5.284 -0.6679 -0.7797  0.0328
  936MOL0     H26316  -0.816   7.500   5.148 -0.6975  2.3143 -1.4033
  936MOL0     H26317  -0.729   7.644   5.126 -0.4701  2.1158  1.9502
  936MOL0     H26318  -0.709   7.665   5.393 -0.1282 -0.0152  1.8081
  936MOL0     H26319  -0.774   7.497   5.388 -1.8546  0.6583  1.2096
  936MOL0     H26320  -0.839   7.582   5.585 -0.1341 -0.0188  3.2088
  936MOL0     H26321  -0.986   7.627   5.894  2.3989 -1.1513  1.0598
  936MOL0     H26322  -1.021   7.467   5.855 -2.0590  1.1451 -0.3488
  936MOL0     H26323  -0.865   7.516   5.812 -0.9197 -4.1132 -0.9712
  936MOL0     H26324  -1.607   7.685   5.784 -0.4901  0.2218  0.5035
  936MOL0     H26325  -1.749   7.755   5.965  1.3956 -0.9575  1.6241
  936MOL0     H26326  -1.757   8.099   6.119 -0.6136  0.4225 -0.8513
  936MOL0     H26327  -1.830   7.973   6.016 -0.8928 -0.8384  0.9982
  936MOL0     H26328  -1.895   8.030   6.305 -2.5654 -1.1974  0.6657
  936MOL0     H26329  -1.998   8.050   6.168  0.6347  2.8551  1.4340
  936MOL0     H26330  -1.872   7.796   6.293 -0.7233 -0.0734  0.4795
  936MOL0     H26331  -1.974   7.791   6.143  1.3890  0.1435 -0.4054
  936MOL0     H26332  -2.082   7.739   6.362  2.4220  0.7185  1.0304
  936MOL0     H26333  -2.061   7.911   6.414 -1.9900  3.5052 -1.5860
  936MOL0     H26334  -2.203   7.808   6.166 -1.2072 -0.4598  0.5519
  936MOL0     H26335  -2.211   7.980   6.232  1.4443  0.7232 -1.5451
  936MOL0     H26336  -2.405   7.802   6.232  2.3300 -5.3255 -1.1311
  936MOL0     H26337  -2.329   7.724   6.359 -0.4246  1.1582  2.1423
  936MOL0     H26338  -2.487   7.887   6.466  0.2054  2.4239  4.8450
  936MOL0     H26339  -2.430   8.014   6.354  1.2072 -0.6259 -1.9075
  936MOL0     H26340  -2.358   8.047   6.591  4.6066 -0.7742  3.3791
  936MOL0     H26341  -2.215   8.029   6.485  1.5867  1.8941  4.6722
  936MOL0     H26342  -1.430   7.980   6.140  1.8793  1.2866 -1.3374
  936MOL0     H26343  -1.282   7.918   5.941 -0.8015  2.4185  0.8782
  936MOL0     H26344  -1.306   7.727   5.528 -1.1579 -1.1148 -1.5809
  936MOL0     H26345  -1.156   7.719   5.339  1.7138  0.4761 -0.2180
  936MOL0     H26346   0.348   7.090   6.050  2.1083  0.4085  0.3592
  936MOL0     H26347   0.585   7.100   6.050  0.4159  3.4640  0.0807
  936MOL0     H26348   0.964   7.020   5.863  0.3020 -0.0626 -0.0630
  936MOL0     H26349   1.206   7.029   5.912 -3.0660 -2.4316  0.2171
  936MOL0     H26350   1.391   7.097   6.063 -3.5366 -0.5058 -2.1996
  936MOL0     H26351   1.462   7.117   5.902  1.5897  1.2565 -0.1013
  936MOL0     H26352   1.629   7.139   6.093  2.4110  2.8888  1.1745
  936MOL0     H26353   1.532   7.273   6.153 -0.9427 -0.4105 -0.8981
  936MOL0     H26354   1.578   7.394   5.950 -0.3060  0.5473 -1.3508
  936MOL0     H26355   1.651   7.250   5.872 -2.7817 -0.3003  0.0897
  936MOL0     H26356   1.791   7.376   6.106  0.7631  0.6286 -0.6754
  936MOL0     H26357   1.825   7.426   5.949  1.8392  1.0661  3.2959
  936MOL0     H26358   1.997   7.032   5.997  0.0284  0.9948  3.4731
  936MOL0     H26359   1.177   7.451   5.970  1.0532  0.9705 -0.7400
  936MOL0     H26360   0.947   7.447   5.896  1.0371 -0.3179 -1.2327
  937MOL0     O26361   1.010   9.485   0.929 -0.5040  0.3221  0.1376
  937MOL0     C26362   1.060   9.490   1.041 -0.9279 -0.2727  0.1304
  937MOL0     O26363   0.995   9.456   1.156 -0.0358  0.2808  0.5193
  937MOL0     C26364   0.862   9.419   1.140 -0.2730  0.2859  0.3438
  937MOL0     C26365   0.819   9.292   1.104  0.6611 -0.2694  0.0629
  937MOL0     C26366   0.678   9.266   1.111 -0.3602  0.0448  0.7470
  937MOL0     C26367   0.580   9.358   1.156 -0.8028 -0.1322  0.3174
  937MOL0     O26368   0.447   9.337   1.156 -0.6910  0.3747 -0.1904
  937MOL0     C26369   0.413   9.238   1.250 -0.3124  0.2040 -0.0672
  937MOL0     C26370   0.356   9.117   1.170 -0.0025  0.8538 -0.0321
  937MOL0     C26371   0.236   9.137   1.071  0.6958 -0.2697 -0.0357
  937MOL0     C26372   0.248   9.065   0.934 -0.0234  0.2620 -0.2123
  937MOL0     C26373   0.120   9.039   0.868 -0.1861 -0.8142 -0.6315
  937MOL0     C26374   0.135   9.007   0.718  0.5947  0.4978  0.1748
  937MOL0     C26375  -0.007   8.970   0.665 -1.1511  0.4329  0.1719
  937MOL0     C26376   0.007   8.915   0.523 -0.2532 -0.4316  0.5654
  937MOL0     N26377   0.041   9.027   0.439  0.2522 -0.2918  0.2541
  937MOL0     C26378   0.167   9.045   0.383  0.4228  0.5928  0.4459
  937MOL0     C26379   0.147   9.145   0.294  0.2021  0.0799 -0.0224
  937MOL0     C26380   0.250   9.219   0.218 -0.1640  0.4809  0.8328
  937MOL0     C26381   0.256   9.370   0.259  0.1444  0.0030  0.3741
  937MOL0     C26382   0.206   9.458   0.149  1.0559  0.2876  0.0703
  937MOL0     C26383   0.049   9.467   0.128 -0.6622 -1.0114 -0.4884
  937MOL0     O26384  -0.007   9.554   0.220  0.2495 -0.5107 -0.0049
  937MOL0     C26385  -0.148   9.561   0.233 -0.3494 -0.4011 -0.0259
  937MOL0     C26386  -0.240   9.458   0.198  0.0275  0.3893 -0.0052
  937MOL0     C26387  -0.376   9.478   0.197 -0.5873  0.2958  0.3650
  937MOL0     C26388  -0.461   9.360   0.180 -0.1542 -0.5106  0.6125
  937MOL0     C26389  -0.426   9.609   0.239  0.2465  0.5447  0.4842
  937MOL0     C26390  -0.570   9.631   0.262  0.6280  0.2703 -0.9699
  937MOL0     O26391  -0.609   9.733   0.350  0.0031 -0.4655 -0.4495
  937MOL0     C26392  -0.739   9.749   0.362  1.1660  0.3790 -0.0755
  937MOL0     C26393  -0.805   9.695   0.473  0.0449 -0.0986  0.0783
  937MOL0     C26394  -0.948   9.716   0.492  0.2937 -0.3072 -0.1357
  937MOL0     C26395  -1.021   9.767   0.384 -0.3064  1.3322 -0.2129
  937MOL0     O26396  -1.156   9.756   0.371 -0.0062  0.5295  0.2157
  937MOL0     C26397  -1.211   9.811   0.494 -0.4682 -0.4007 -0.5940
  937MOL0     C26398  -1.357   9.868   0.473  0.5409 -0.0670 -0.3947
  937MOL0     C26399  -1.359   9.984   0.368 -0.0098 -1.0164 -0.1730
  937MOL0     C26400  -1.488  10.065   0.353  0.2281 -0.2269  0.4180
  937MOL0     C26401  -1.618   9.990   0.306 -0.5228  0.5485 -0.2201
  937MOL0     C26402  -1.728  10.091   0.254 -0.4163  0.3339 -0.0489
  937MOL0     C26403  -1.845  10.016   0.191 -0.9990 -0.2651 -0.2834
  937MOL0     C26404  -1.975  10.102   0.205  0.6305 -0.4964 -0.0245
  937MOL0    Cl26405  -2.116  10.041   0.118  0.6428 -0.2282  0.0990
  937MOL0     C26406  -0.950   9.822   0.280 -0.0274  0.5902  0.5560
  937MOL0     C26407  -0.812   9.818   0.266 -0.4208 -0.1318  0.8285
  937MOL0     O26408  -0.642   9.564   0.188 -0.2013  0.2000 -0.6131
  937MOL0     C26409  -0.336   9.707   0.276 -0.0279 -0.7419  0.9163
  937MOL0     C26410  -0.198   9.679   0.273 -0.6362  0.7175 -0.2509
  937MOL0     N26411   0.014   9.182   0.292  0.5368 -0.0962 -0.4845
  937MOL0     N26412  -0.045   9.127   0.394  0.0303 -0.0808 -0.4570
  937MOL0     C26413   0.636   9.488   1.195 -1.0771  1.2805  0.2466
  937MOL0     C26414   0.771   9.513   1.186 -0.1741  0.1197 -0.7748
  937MOL0     C26415   1.202   9.530   1.050 -0.7963 -0.1102  0.6709
  937MOL0     C26416   1.281   9.557   0.935  0.0429  0.5645 -0.1823
  937MOL0     C26417   1.418   9.585   0.943  0.5444 -0.4882 -0.5055
  937MOL0     C26418   1.477   9.600   1.068 -0.2658  0.5395 -0.1341
  937MOL0     O26419   1.615   9.615   1.082 -0.5476  0.0155  0.0510
  937MOL0     C26420   1.706   9.627   0.971 -0.4858 -0.8826 -0.3192
  937MOL0     C26421   1.741   9.485   0.923 -0.0791 -0.2945  1.0773
  937MOL0     C26422   1.846   9.480   0.801  0.1482 -0.2735 -1.1065
  937MOL0     C26423   1.808   9.364   0.702  0.5076 -0.0765 -0.6145
  937MOL0     C26424   1.920   9.340   0.611  0.5019 -0.2863 -0.9808
  937MOL0     C26425   2.020   9.305   0.550  0.8879  0.1256  0.4709
  937MOL0     C26426   1.396   9.586   1.177  0.2558  0.6815 -0.7524
  937MOL0     C26427   1.256   9.554   1.171 -0.8956  0.0896  0.2553
  937MOL0     H26428   0.889   9.223   1.057  0.7914  2.7553 -4.8834
  937MOL0     H26429   0.639   9.179   1.060  2.4364  0.6381 -2.8230
  937MOL0     H26430   0.503   9.210   1.307  0.0194  0.2627 -0.5561
  937MOL0     H26431   0.334   9.281   1.312 -2.7762  0.1227 -2.9137
  937MOL0     H26432   0.440   9.068   1.119  2.1226  1.7427  2.3757
  937MOL0     H26433   0.316   9.040   1.238  0.2973 -0.2047 -1.0210
  937MOL0     H26434   0.143   9.096   1.112  1.2009  0.4521  1.9767
  937MOL0     H26435   0.224   9.246   1.062  0.6080 -0.1424  1.3265
  937MOL0     H26436   0.322   9.118   0.873  2.5341 -1.9718  0.7512
  937MOL0     H26437   0.299   8.969   0.951  2.8817  1.4320 -1.7067
  937MOL0     H26438   0.054   8.976   0.928 -0.9131  0.6808  0.1984
  937MOL0     H26439   0.059   9.130   0.863 -0.9042 -1.3370 -2.8676
  937MOL0     H26440   0.183   9.090   0.665 -2.9018  2.7230  0.1673
  937MOL0     H26441   0.191   8.913   0.716 -1.7957 -0.9907  0.2943
  937MOL0     H26442  -0.040   8.886   0.726 -2.3402  1.3161  0.7725
  937MOL0     H26443  -0.077   9.053   0.675 -1.3505  0.3916 -0.8179
  937MOL0     H26444  -0.090   8.882   0.486  0.3547 -1.1225 -0.4468
  937MOL0     H26445   0.068   8.824   0.525 -0.7286 -0.7651  2.3374
  937MOL0     H26446   0.262   8.993   0.390  1.2185  1.6759 -1.4007
  937MOL0     H26447   0.349   9.176   0.237 -0.5116 -0.7862 -0.0655
  937MOL0     H26448   0.231   9.199   0.112 -2.5456 -3.1624  1.7205
  937MOL0     H26449   0.362   9.392   0.276  0.1889  2.0041 -1.8643
  937MOL0     H26450   0.197   9.409   0.342  0.4782 -0.3366  0.7723
  937MOL0     H26451   0.251   9.434   0.052 -0.4628  0.8230 -0.8112
  937MOL0     H26452   0.240   9.560   0.169 -3.8840  2.4425 -0.9625
  937MOL0     H26453   0.019   9.363   0.143  0.5601 -1.3872 -0.5338
  937MOL0     H26454   0.019   9.493   0.027 -1.7382  0.3070  0.1455
  937MOL0     H26455  -0.193   9.363   0.176  1.1444  1.0815 -0.7149
  937MOL0     H26456  -0.404   9.267   0.185  0.2937 -0.3742 -1.2795
  937MOL0     H26457  -0.530   9.353   0.265 -0.0903 -1.8935  0.5725
  937MOL0     H26458  -0.514   9.370   0.085  1.4265 -1.3512 -0.3947
  937MOL0     H26459  -0.755   9.653   0.559 -1.9286 -2.0138  0.3768
  937MOL0     H26460  -0.989   9.682   0.586 -1.4452  2.1042  0.0809
  937MOL0     H26461  -1.224   9.730   0.565 -1.3865  0.7647  0.6122
  937MOL0     H26462  -1.153   9.892   0.540  1.5389 -1.6432 -0.8275
  937MOL0     H26463  -1.425   9.796   0.426  0.9738 -0.2620 -0.7263
  937MOL0     H26464  -1.385   9.894   0.575  3.4987 -0.0553  0.5018
  937MOL0     H26465  -1.346   9.934   0.272  1.5664 -0.9185 -0.0256
  937MOL0     H26466  -1.279  10.056   0.388 -0.4040 -0.7316  0.4154
  937MOL0     H26467  -1.511  10.130   0.438 -2.1079 -0.0314 -0.2866
  937MOL0     H26468  -1.455  10.139   0.279  3.0753  1.4351  3.1390
  937MOL0     H26469  -1.656   9.934   0.392 -1.6567  1.6605  0.0110
  937MOL0     H26470  -1.590   9.922   0.225 -0.9530 -0.1866  0.2321
  937MOL0     H26471  -1.759  10.151   0.340 -0.8046 -0.1990  0.1882
  937MOL0     H26472  -1.687  10.156   0.176 -1.8637 -0.2700 -1.3654
  937MOL0     H26473  -1.865   9.919   0.236 -0.5090 -0.5524 -0.6794
  937MOL0     H26474  -1.814   9.994   0.089  0.2509 -0.5586  0.1363
  937MOL0     H26475  -1.970  10.200   0.156  1.7811  0.7469  2.3884
  937MOL0     H26476  -1.984  10.117   0.313  0.8923 -1.0037  0.0698
  937MOL0     H26477  -1.007   9.870   0.201 -1.5051 -0.5651  0.8746
  937MOL0     H26478  -0.752   9.866   0.188 -1.4334  0.6118  0.4854
  937MOL0     H26479  -0.381   9.801   0.306 -0.3651 -0.1783 -1.2109
  937MOL0     H26480  -0.128   9.750   0.315  3.9224 -2.2860 -1.9731
  937MOL0     H26481   0.576   9.568   1.239 -2.0174  2.1036 -2.2971
  937MOL0     H26482   0.815   9.610   1.206  2.7269 -1.0766 -0.8070
  937MOL0     H26483   1.244   9.527   0.837 -2.1721  0.7640  0.5373
  937MOL0     H26484   1.478   9.601   0.853  0.2865 -2.7417 -1.1571
  937MOL0     H26485   1.667   9.685   0.887 -0.5859 -0.7687 -0.1931
  937MOL0     H26486   1.792   9.678   1.015 -1.2102  0.7952 -0.7584
  937MOL0     H26487   1.646   9.447   0.886 -1.1726 -0.0958  3.4803
  937MOL0     H26488   1.781   9.422   1.003  0.8582  0.7946  1.4982
  937MOL0     H26489   1.946   9.459   0.842  0.1249  2.1899  0.4421
  937MOL0     H26490   1.852   9.577   0.750  4.3852 -0.4785 -1.3701
  937MOL0     H26491   1.720   9.391   0.643 -0.3950 -0.0358  0.7263
  937MOL0     H26492   1.787   9.271   0.755  0.2656  0.5145  0.3411
  937MOL0     H26493   2.106   9.273   0.495 -0.4710  0.4019 -1.9633
  937MOL0     H26494   1.433   9.573   1.279 -0.0290 -0.2313 -0.7502
  937MOL0     H26495   1.192   9.551   1.259 -3.2538  1.4704 -1.3015
  938MOL0     O26496   1.644   4.943   1.347  0.1986 -0.1882  0.6886
  938MOL0     C26497   1.704   5.041   1.301  0.1275  0.3473 -0.1084
  938MOL0     O26498   1.664   5.105   1.187  0.2113 -0.0429  0.0888
  938MOL0     C26499   1.542   5.061   1.136  0.2567 -0.2122 -0.3400
  938MOL0     C26500   1.541   4.942   1.060 -0.5447 -0.2413  0.0372
  938MOL0     C26501   1.419   4.881   1.016  0.0655 -0.0389  0.6470
  938MOL0     C26502   1.298   4.939   1.057 -0.0326  0.8931  0.0178
  938MOL0     O26503   1.174   4.884   1.031 -0.0536 -0.1057  0.6973
  938MOL0     C26504   1.094   4.974   0.953  0.8610  0.5387 -0.8306
  938MOL0     C26505   0.943   4.948   0.952  0.0769  0.3106  0.5111
  938MOL0     C26506   0.904   4.808   0.915 -0.4007  0.0884 -1.6130
  938MOL0     C26507   0.750   4.808   0.902 -0.0982  0.9360 -0.0445
  938MOL0     C26508   0.701   4.668   0.861 -0.0235  0.2703  0.8247
  938MOL0     C26509   0.703   4.578   0.991 -0.1723 -0.6140 -0.3167
  938MOL0     C26510   0.651   4.435   0.958  0.3660 -0.7660  0.0302
  938MOL0     C26511   0.649   4.353   1.087  0.1342 -0.4719  0.4924
  938MOL0     N26512   0.611   4.209   1.061 -0.5420  0.2166 -0.8135
  938MOL0     C26513   0.684   4.122   0.985 -0.2525  0.1973  0.9337
  938MOL0     C26514   0.606   4.008   0.981 -0.1205 -0.5509  0.3571
  938MOL0     C26515   0.632   3.882   0.906 -0.1969  0.2757 -0.4830
  938MOL0     C26516   0.618   3.752   0.987  0.2253  0.8418  0.7816
  938MOL0     C26517   0.598   3.627   0.892  0.9106 -0.8265 -0.2462
  938MOL0     C26518   0.455   3.603   0.845  0.0607 -0.9181 -0.9551
  938MOL0     O26519   0.404   3.475   0.879  0.5200  0.2080 -0.1288
  938MOL0     C26520   0.277   3.459   0.824  0.0833 -0.4169 -0.2713
  938MOL0     C26521   0.186   3.550   0.757  1.2028  0.4214 -0.2363
  938MOL0     C26522   0.076   3.496   0.684 -0.0642  0.3842 -1.2660
  938MOL0     C26523  -0.017   3.595   0.612 -0.5389 -0.7287  0.1820
  938MOL0     C26524   0.059   3.353   0.677  0.6824 -0.0072  0.5346
  938MOL0     C26525  -0.047   3.283   0.603  0.0526 -0.2232  0.1481
  938MOL0     O26526  -0.084   3.159   0.646  0.1666  0.3311 -0.2309
  938MOL0     C26527  -0.168   3.077   0.578 -1.0141  0.2017 -0.2655
  938MOL0     C26528  -0.171   2.933   0.594  0.0890  0.6507  0.5501
  938MOL0     C26529  -0.255   2.852   0.517  0.3550  0.2923  0.3989
  938MOL0     C26530  -0.349   2.906   0.424 -0.1947 -0.8934  0.6540
  938MOL0     O26531  -0.438   2.820   0.353 -0.1208 -0.1631 -0.6246
  938MOL0     C26532  -0.467   2.851   0.221  0.4520  0.0391  0.8199
  938MOL0     C26533  -0.493   2.711   0.146 -0.9763 -0.3451  0.3752
  938MOL0     C26534  -0.558   2.728   0.007 -0.1135 -0.0818 -0.5829
  938MOL0     C26535  -0.564   2.598  -0.084 -0.7559  0.0220 -0.6815
  938MOL0     C26536  -0.645   2.628  -0.210 -1.0812  0.2965  0.6324
  938MOL0     C26537  -0.660   2.501  -0.304  0.4455  0.0100  0.5717
  938MOL0     C26538  -0.667   2.524  -0.456  0.5355  0.5334 -0.1539
  938MOL0     C26539  -0.786   2.611  -0.498 -0.1696 -0.1722 -0.0926
  938MOL0    Cl26540  -0.946   2.541  -0.441 -0.0752  0.1596 -0.0809
  938MOL0     C26541  -0.358   3.045   0.419 -0.1807  0.7897  0.4066
  938MOL0     C26542  -0.268   3.122   0.497  0.4182 -0.6023  0.0461
  938MOL0     O26543  -0.084   3.342   0.500  0.2575 -0.0586  0.6607
  938MOL0     C26544   0.155   3.271   0.736  0.0824  0.0062  0.9243
  938MOL0     C26545   0.255   3.324   0.804  0.0445  0.2466  0.9676
  938MOL0     N26546   0.498   4.033   1.057 -0.4590 -0.2867 -0.4845
  938MOL0     N26547   0.499   4.150   1.110  0.5729 -0.0714 -0.4756
  938MOL0     C26548   1.297   5.049   1.145 -0.8068 -0.0854  0.4651
  938MOL0     C26549   1.421   5.120   1.185  0.1092 -0.2838  0.0775
  938MOL0     C26550   1.842   5.070   1.338  0.0983 -0.3525 -0.1426
  938MOL0     C26551   1.904   5.013   1.456  0.1053  0.6078 -0.1331
  938MOL0     C26552   2.031   5.054   1.490 -1.2585  0.2406  0.6657
  938MOL0     C26553   2.102   5.151   1.414  0.1363  0.0913  0.2291
  938MOL0     O26554   2.227   5.199   1.445  0.1559  0.4309  0.0335
  938MOL0     C26555   2.309   5.095   1.505  0.0498 -0.2234  0.0855
  938MOL0     C26556   2.442   5.165   1.535 -0.4651  0.1923  0.0942
  938MOL0     C26557   2.537   5.068   1.607  0.4899  0.3831 -0.1913
  938MOL0     C26558   2.670   5.127   1.647  0.2143  0.4710  0.5144
  938MOL0     C26559   2.764   5.150   1.533  1.1231  0.7272  0.1685
  938MOL0     C26560   2.847   5.184   1.449 -0.0457 -0.1563  0.2188
  938MOL0     C26561   2.041   5.202   1.296 -0.1309  0.5235 -0.4815
  938MOL0     C26562   1.916   5.159   1.260 -0.4961  0.1407 -0.1318
  938MOL0     H26563   1.642   4.913   1.032 -0.4870  1.7247 -2.1141
  938MOL0     H26564   1.422   4.788   0.960 -4.2152 -0.5662  0.9409
  938MOL0     H26565   1.107   5.079   0.978  0.0193  0.2254  1.1253
  938MOL0     H26566   1.117   4.947   0.850 -0.3416 -2.4903 -0.4193
  938MOL0     H26567   0.917   4.970   1.056 -1.6145  0.9291 -0.0206
  938MOL0     H26568   0.897   5.009   0.874  0.1920 -0.6883 -0.3692
  938MOL0     H26569   0.948   4.776   0.820 -0.5173 -1.0335 -1.3066
  938MOL0     H26570   0.938   4.735   0.989 -3.0191  0.0704 -0.3022
  938MOL0     H26571   0.708   4.842   0.997 -2.1478 -2.5672  0.4606
  938MOL0     H26572   0.709   4.879   0.830 -2.6547  0.0575  0.4598
  938MOL0     H26573   0.599   4.674   0.823  0.3286 -2.3538 -0.8053
  938MOL0     H26574   0.761   4.630   0.777  0.1603  3.0399 -0.4004
  938MOL0     H26575   0.806   4.578   1.027  0.5995  2.8921 -1.9993
  938MOL0     H26576   0.635   4.623   1.064 -0.9929 -1.4131 -0.5644
  938MOL0     H26577   0.553   4.432   0.908  0.5864 -0.7833 -0.4068
  938MOL0     H26578   0.728   4.399   0.889  1.8857 -0.6688  1.6194
  938MOL0     H26579   0.573   4.402   1.149  1.5808  1.9696  0.4723
  938MOL0     H26580   0.746   4.358   1.137  1.0681  0.8914 -1.3544
  938MOL0     H26581   0.779   4.120   0.934 -1.0176 -1.5865 -0.5413
  938MOL0     H26582   0.557   3.892   0.827 -0.5195 -0.9982 -0.3673
  938MOL0     H26583   0.731   3.875   0.859 -1.1330 -0.2631 -2.4858
  938MOL0     H26584   0.538   3.753   1.062 -0.8318  2.8696 -0.3050
  938MOL0     H26585   0.711   3.743   1.044  0.9579 -0.1441 -0.5355
  938MOL0     H26586   0.613   3.533   0.946 -0.3305  0.0614  1.7894
  938MOL0     H26587   0.673   3.641   0.814 -0.0933  0.4040 -1.0359
  938MOL0     H26588   0.440   3.629   0.740 -2.2248  1.4753 -0.1462
  938MOL0     H26589   0.392   3.678   0.894  1.1109 -0.4032 -0.3527
  938MOL0     H26590   0.204   3.657   0.749 -0.8921  0.7167 -1.7392
  938MOL0     H26591  -0.019   3.697   0.651 -0.6645 -0.4119 -0.6413
  938MOL0     H26592   0.016   3.603   0.508  0.4645 -0.7125  0.4915
  938MOL0     H26593  -0.122   3.562   0.610 -1.7600  2.7338 -0.4586
  938MOL0     H26594  -0.107   2.885   0.667 -0.7415  2.2191  2.3824
  938MOL0     H26595  -0.260   2.744   0.526  2.0128  0.2489  1.0315
  938MOL0     H26596  -0.550   2.920   0.202  1.1077  0.5865 -0.1414
  938MOL0     H26597  -0.379   2.901   0.179 -1.5017  2.3267 -0.8323
  938MOL0     H26598  -0.401   2.655   0.127 -1.7702 -0.4382 -4.8102
  938MOL0     H26599  -0.565   2.654   0.206 -1.3742  0.5641  0.7723
  938MOL0     H26600  -0.508   2.807  -0.048  0.8357  0.1305  0.5387
  938MOL0     H26601  -0.659   2.767   0.018  1.4425  3.5411  4.5315
  938MOL0     H26602  -0.462   2.569  -0.110 -0.0450  0.0721  1.8037
  938MOL0     H26603  -0.613   2.516  -0.030 -0.4904 -0.7920 -1.6622
  938MOL0     H26604  -0.588   2.700  -0.270  1.7514 -1.9992  0.3382
  938MOL0     H26605  -0.739   2.683  -0.198 -1.2429  0.3589 -0.7638
  938MOL0     H26606  -0.572   2.438  -0.287  0.1702 -0.4938  0.1629
  938MOL0     H26607  -0.746   2.438  -0.282 -0.9334  1.3135 -0.8512
  938MOL0     H26608  -0.669   2.428  -0.507  0.8432  1.0441 -1.1570
  938MOL0     H26609  -0.581   2.584  -0.487 -1.8431  3.3882 -1.7908
  938MOL0     H26610  -0.780   2.612  -0.607  0.2099 -0.5481 -0.0768
  938MOL0     H26611  -0.759   2.710  -0.460  0.1365 -1.2500  2.7292
  938MOL0     H26612  -0.427   3.111   0.368  0.0204  0.3580 -0.4374
  938MOL0     H26613  -0.291   3.227   0.480 -0.0111 -0.5707  0.7890
  938MOL0     H26614   0.146   3.163   0.740  2.2187 -0.3497 -1.5452
  938MOL0     H26615   0.330   3.251   0.834 -0.6903 -0.8261  0.2734
  938MOL0     H26616   1.203   5.085   1.186 -2.0495  0.1483 -2.4122
  938MOL0     H26617   1.406   5.210   1.244  1.5924  0.9980 -1.4058
  938MOL0     H26618   1.849   4.941   1.515  2.0523  0.4874  1.6554
  938MOL0     H26619   2.070   5.016   1.584  1.2128  3.7363  1.2888
  938MOL0     H26620   2.271   5.063   1.602 -0.1483  3.1075  1.2393
  938MOL0     H26621   2.323   5.005   1.444 -2.6676 -0.0173 -1.0193
  938MOL0     H26622   2.431   5.257   1.593 -2.2897  0.9702 -1.3556
  938MOL0     H26623   2.482   5.195   1.438 -0.3536  1.5704  0.5407
  938MOL0     H26624   2.550   4.976   1.551 -3.1131 -0.4595  0.1146
  938MOL0     H26625   2.495   5.026   1.698  2.3171  0.0682  0.5583
  938MOL0     H26626   2.713   5.053   1.715 -2.2799 -0.9605  0.6602
  938MOL0     H26627   2.663   5.215   1.711  1.7189  0.5977  0.5446
  938MOL0     H26628   2.932   5.207   1.387 -0.9618  1.8120 -0.3944
  938MOL0     H26629   2.098   5.284   1.252  2.7218 -0.6288  0.7881
  938MOL0     H26630   1.877   5.199   1.168  1.1935  0.1291 -0.9008
  939MOL0     O26631  10.842   2.388   9.594 -0.0753 -0.0405  0.3918
  939MOL0     C26632  10.931   2.445   9.535 -0.8537  0.0843  0.1530
  939MOL0     O26633  10.921   2.498   9.416 -0.5161  0.1123  0.2432
  939MOL0     C26634  10.796   2.494   9.354 -0.1395  0.0017 -0.4765
  939MOL0     C26635  10.767   2.387   9.273 -0.2528 -0.7803 -0.6502
  939MOL0     C26636  10.651   2.382   9.199  0.2767  0.4737  0.4741
  939MOL0     C26637  10.562   2.487   9.200  0.5445  1.0995 -0.6964
  939MOL0     O26638  10.438   2.468   9.139 -0.7182  0.3025  0.5816
  939MOL0     C26639  10.347   2.570   9.092  1.5058  0.1060 -0.1493
  939MOL0     C26640  10.251   2.522   8.983  1.3295  0.7291 -0.0436
  939MOL0     C26641  10.136   2.441   9.037  0.4173  0.2153 -1.1693
  939MOL0     C26642  10.055   2.402   8.918 -0.0739  0.3905 -0.6511
  939MOL0     C26643   9.917   2.344   8.944 -0.1772  0.0174 -0.9368
  939MOL0     C26644   9.844   2.300   8.817 -0.0670 -0.1644 -0.2611
  939MOL0     C26645   9.692   2.255   8.844 -0.0700 -0.0673 -0.9799
  939MOL0     C26646   9.654   2.135   8.759  0.1722 -0.3048  0.4921
  939MOL0     N26647   9.611   2.164   8.623 -0.6726  0.2756  0.1628
  939MOL0     C26648   9.497   2.113   8.561 -0.5854 -0.2665 -0.5296
  939MOL0     C26649   9.496   2.183   8.447  0.6110  0.1600 -0.3464
  939MOL0     C26650   9.405   2.138   8.341  0.0413  0.7768  0.3452
  939MOL0     C26651   9.482   2.088   8.222  0.4318  0.5170 -0.2051
  939MOL0     C26652   9.383   2.066   8.112 -0.5756 -0.0768  0.2311
  939MOL0     C26653   9.431   1.985   7.989 -0.5664 -0.7605  0.2533
  939MOL0     O26654   9.360   2.030   7.876  0.4079 -0.6067 -0.0916
  939MOL0     C26655   9.239   1.960   7.845 -0.4576  0.5331  0.0983
  939MOL0     C26656   9.197   1.981   7.714 -0.0548  0.2862 -0.2556
  939MOL0     C26657   9.084   1.917   7.667 -0.4870 -0.8926  0.3695
  939MOL0     C26658   9.053   1.948   7.526 -0.3795 -0.2605 -0.3722
  939MOL0     C26659   9.013   1.826   7.750 -0.3355 -0.2957  0.4933
  939MOL0     C26660   8.900   1.744   7.702 -0.4714  0.0107  0.1838
  939MOL0     O26661   8.899   1.616   7.751  0.1056 -0.1182  0.2882
  939MOL0     C26662   8.782   1.549   7.718 -0.0379 -0.4004  0.1950
  939MOL0     C26663   8.660   1.563   7.775  0.2073  0.0721  0.4092
  939MOL0     C26664   8.563   1.487   7.716  0.3704  0.4434  0.4213
  939MOL0     C26665   8.581   1.397   7.614 -0.7627  0.1490  0.1740
  939MOL0     O26666   8.477   1.311   7.589  0.4170 -0.4344  0.2143
  939MOL0     C26667   8.490   1.207   7.483 -0.3567 -0.1240 -0.3819
  939MOL0     C26668   8.377   1.098   7.489 -0.2182  0.1754 -0.2843
  939MOL0     C26669   8.237   1.149   7.520  0.2640 -0.0463  0.4089
  939MOL0     C26670   8.135   1.066   7.441 -0.0025  0.5740 -0.0050
  939MOL0     C26671   7.991   1.117   7.482  0.8261  1.0688  0.0776
  939MOL0     C26672   7.885   1.032   7.402  0.4752  0.1299 -0.6089
  939MOL0     C26673   7.752   1.096   7.433  0.5007  0.6661  0.8213
  939MOL0     C26674   7.645   1.034   7.351 -0.6515  0.6522  0.6669
  939MOL0    Cl26675   7.620   1.115   7.195 -0.2914 -0.0268  0.0720
  939MOL0     C26676   8.705   1.380   7.553  0.2721 -0.3266 -0.5186
  939MOL0     C26677   8.806   1.461   7.609  0.0947  0.9148  0.0899
  939MOL0     O26678   8.811   1.790   7.629 -0.8678  0.4107 -0.0873
  939MOL0     C26679   9.052   1.814   7.882 -0.5514 -0.1180 -0.3342
  939MOL0     C26680   9.176   1.866   7.926  0.5689  0.1673  0.7940
  939MOL0     N26681   9.589   2.283   8.448 -0.2908 -0.6955 -0.0033
  939MOL0     N26682   9.653   2.278   8.556 -0.2021  0.6410 -0.3095
  939MOL0     C26683  10.591   2.597   9.289  0.3367  0.2758 -0.0852
  939MOL0     C26684  10.709   2.604   9.357 -0.2703  0.7239 -0.7419
  939MOL0     C26685  11.066   2.438   9.602  0.3154 -0.5734 -0.3470
  939MOL0     C26686  11.192   2.452   9.535 -0.4419  0.3322  0.6876
  939MOL0     C26687  11.315   2.460   9.606 -0.9686  0.4350 -0.0976
  939MOL0     C26688  11.317   2.450   9.745 -0.5127  0.6286 -0.3925
  939MOL0     O26689  11.432   2.462   9.807  1.0244 -0.2372 -0.2119
  939MOL0     C26690  11.456   2.386   9.926  0.2133 -0.8246  0.4964
  939MOL0     C26691  11.606   2.366   9.960 -0.4248  0.0919 -0.0605
  939MOL0     C26692  11.668   2.281   9.849 -0.4411 -0.1816 -0.2031
  939MOL0     C26693  11.817   2.236   9.861  0.2316 -0.8236 -0.1051
  939MOL0     C26694  11.847   2.144   9.963 -0.3856 -0.2305  0.7110
  939MOL0     C26695  11.887   2.074  10.056 -0.1283 -0.2401 -0.1311
  939MOL0     C26696  11.197   2.437   9.816 -0.6256 -0.1514  0.5706
  939MOL0     C26697  11.078   2.432   9.748  1.0205  0.3089 -0.1385
  939MOL0     H26698  10.842   2.309   9.267 -0.4373 -1.1908  1.4447
  939MOL0     H26699  10.643   2.301   9.127 -1.4798  0.4344  0.6728
  939MOL0     H26700  10.284   2.604   9.174 -0.7241  1.2848 -2.2094
  939MOL0     H26701  10.401   2.655   9.049  0.0367  0.4750 -1.3661
  939MOL0     H26702  10.203   2.601   8.925  0.4596  0.4299  0.2542
  939MOL0     H26703  10.307   2.460   8.912  3.6117  1.2030  1.2374
  939MOL0     H26704  10.178   2.353   9.087  1.1112  2.4882  2.6667
  939MOL0     H26705  10.070   2.502   9.099 -1.8929 -0.9824 -2.3288
  939MOL0     H26706  10.051   2.486   8.848  4.2063  1.1015 -0.3606
  939MOL0     H26707  10.109   2.328   8.858  1.6382  1.2296 -0.2433
  939MOL0     H26708   9.929   2.255   9.007 -1.6988  0.4585  0.0314
  939MOL0     H26709   9.859   2.414   9.004  1.5900 -1.2100  2.5053
  939MOL0     H26710   9.852   2.379   8.743  0.4405  0.5184  0.5089
  939MOL0     H26711   9.909   2.222   8.775  0.4215  1.0180 -1.7739
  939MOL0     H26712   9.688   2.229   8.950 -1.3281  1.9448 -0.4784
  939MOL0     H26713   9.616   2.333   8.830 -0.1773 -0.1928 -1.0972
  939MOL0     H26714   9.569   2.086   8.807  0.1471 -1.0594 -0.2871
  939MOL0     H26715   9.740   2.067   8.756 -0.4798 -1.1355 -1.0263
  939MOL0     H26716   9.435   2.033   8.599 -0.8233  0.3948  0.5136
  939MOL0     H26717   9.341   2.057   8.376 -1.0361  1.0274 -0.9704
  939MOL0     H26718   9.336   2.221   8.322 -3.6876 -1.8768  1.3060
  939MOL0     H26719   9.534   1.996   8.249 -0.4028 -0.3845 -1.5495
  939MOL0     H26720   9.554   2.157   8.176 -0.5748  1.1601 -0.8650
  939MOL0     H26721   9.369   2.166   8.071  1.1552 -0.0670 -0.4341
  939MOL0     H26722   9.287   2.027   8.148 -0.3028 -2.2318 -1.2307
  939MOL0     H26723   9.421   1.876   7.997 -0.5916 -0.8783 -1.1808
  939MOL0     H26724   9.538   2.002   7.975  0.1502 -2.4014  2.8756
  939MOL0     H26725   9.263   2.036   7.648  0.7023 -1.8020 -1.3268
  939MOL0     H26726   9.072   1.857   7.468 -0.2307 -0.4657 -0.0033
  939MOL0     H26727   8.948   1.972   7.509 -0.0173  1.4333 -0.3700
  939MOL0     H26728   9.116   2.024   7.479 -2.6319  1.1111 -1.3334
  939MOL0     H26729   8.653   1.645   7.845  4.1522 -0.0190  1.1830
  939MOL0     H26730   8.460   1.482   7.750 -0.2320 -0.3250 -1.3906
  939MOL0     H26731   8.480   1.265   7.391  1.4407 -1.4538 -1.4816
  939MOL0     H26732   8.587   1.156   7.488  0.0837  0.7798  1.4282
  939MOL0     H26733   8.373   1.046   7.393 -0.1223 -2.5815  1.1025
  939MOL0     H26734   8.403   1.018   7.560  0.4293 -1.3128 -2.1089
  939MOL0     H26735   8.226   1.254   7.490 -0.9961 -0.8090 -2.1606
  939MOL0     H26736   8.207   1.147   7.625  0.1474  0.7882  0.3999
  939MOL0     H26737   8.144   1.083   7.333  3.3457 -2.0519 -0.2993
  939MOL0     H26738   8.149   0.960   7.463  0.3127  0.0852 -2.2642
  939MOL0     H26739   7.979   1.222   7.457 -2.0905  0.6332 -0.7337
  939MOL0     H26740   7.979   1.116   7.591  0.9919 -0.9319  0.1206
  939MOL0     H26741   7.917   1.027   7.298  1.2194  0.6994 -0.4166
  939MOL0     H26742   7.890   0.925   7.425  1.4405  0.5078  1.1027
  939MOL0     H26743   7.755   1.204   7.410 -0.5153  0.5316 -0.0400
  939MOL0     H26744   7.732   1.075   7.538 -1.2800 -1.4259  0.1317
  939MOL0     H26745   7.549   1.048   7.401 -0.0098  2.1775  1.5326
  939MOL0     H26746   7.666   0.927   7.340 -1.3833  0.3592  1.9395
  939MOL0     H26747   8.733   1.317   7.469 -1.4012  0.4105 -1.6942
  939MOL0     H26748   8.908   1.468   7.574  0.0792 -0.7224 -0.3872
  939MOL0     H26749   8.990   1.759   7.952 -1.1702 -0.8053 -1.3794
  939MOL0     H26750   9.211   1.838   8.026  0.1587 -1.4483  0.5058
  939MOL0     H26751  10.523   2.682   9.297  2.7395  2.2009  1.4039
  939MOL0     H26752  10.736   2.690   9.417 -2.1139 -0.4412  1.9353
  939MOL0     H26753  11.189   2.471   9.429  0.5324  1.8165  0.8943
  939MOL0     H26754  11.411   2.483   9.561  0.1824 -0.8027  1.6170
  939MOL0     H26755  11.415   2.439  10.012  0.9793 -0.5921  0.7244
  939MOL0     H26756  11.408   2.287   9.925 -1.6895  0.0563  0.6579
  939MOL0     H26757  11.624   2.316  10.056 -1.0153 -1.3999 -0.6897
  939MOL0     H26758  11.658   2.462   9.964  1.0861 -0.7298  1.3824
  939MOL0     H26759  11.653   2.332   9.753 -2.5293 -0.7867 -0.2373
  939MOL0     H26760  11.609   2.189   9.842  1.4310 -1.3779 -1.1087
  939MOL0     H26761  11.873   2.325   9.892  1.4434 -1.9620  1.1232
  939MOL0     H26762  11.857   2.199   9.767 -1.4192 -0.2750 -1.0672
  939MOL0     H26763  11.916   2.002  10.129 -1.4319 -1.1289 -0.4531
  939MOL0     H26764  11.200   2.433   9.924  2.5479  0.7408  0.6375
  939MOL0     H26765  10.992   2.433   9.814  1.3371  1.9459  0.2837
  940MOL0     O26766   2.504   2.410  10.014 -0.1331  0.4442  0.5385
  940MOL0     C26767   2.527   2.503   9.940  0.5561  1.3855  0.5729
  940MOL0     O26768   2.435   2.589   9.887 -0.3041  0.6606 -0.0035
  940MOL0     C26769   2.308   2.574   9.927  0.2083 -0.2241 -0.2935
  940MOL0     C26770   2.257   2.623  10.054  0.2811 -0.1929 -0.2495
  940MOL0     C26771   2.126   2.602  10.092 -0.3302 -0.1142  0.0562
  940MOL0     C26772   2.041   2.517  10.022 -0.3332  0.9298  0.2890
  940MOL0     O26773   1.917   2.486  10.072 -0.0563 -0.3483  0.3386
  940MOL0     C26774   1.826   2.397  10.004 -0.4549  0.1099  0.0579
  940MOL0     C26775   1.713   2.363  10.100  0.0013 -0.3533  0.6587
  940MOL0     C26776   1.745   2.228  10.168 -0.0694  0.9531 -0.5376
  940MOL0     C26777   1.620   2.183  10.253 -0.2546  0.2013 -0.2843
  940MOL0     C26778   1.627   2.036  10.306 -0.1585 -0.7670 -0.4292
  940MOL0     C26779   1.501   1.996  10.379 -0.3347 -0.5896 -0.4574
  940MOL0     C26780   1.384   1.978  10.286  0.3939 -0.1155 -0.2975
  940MOL0     C26781   1.395   1.845  10.225 -0.1410  0.4220  0.1169
  940MOL0     N26782   1.288   1.804  10.134 -0.5333  1.1439  0.4905
  940MOL0     C26783   1.164   1.858  10.115  0.0248  0.6144  0.3689
  940MOL0     C26784   1.101   1.772  10.040  0.0622  0.8261 -0.3234
  940MOL0     C26785   0.966   1.798   9.993 -0.3946  0.3159  0.8316
  940MOL0     C26786   0.930   1.738   9.853 -0.0009 -0.3858 -0.1089
  940MOL0     C26787   0.794   1.788   9.819  0.5251  0.2402  0.4924
  940MOL0     C26788   0.724   1.717   9.697 -0.3513 -0.0739  0.8340
  940MOL0     O26789   0.627   1.815   9.656 -0.5285  0.2017  0.3048
  940MOL0     C26790   0.494   1.831   9.692  0.8251 -0.4102  0.4996
  940MOL0     C26791   0.423   1.724   9.752 -0.9388  0.0012 -0.1369
  940MOL0     C26792   0.282   1.741   9.775 -0.8526 -0.0131 -0.4989
  940MOL0     C26793   0.216   1.620   9.834 -0.4556  0.4178  0.1178
  940MOL0     C26794   0.219   1.864   9.742  0.3400 -0.8024 -0.3993
  940MOL0     C26795   0.067   1.885   9.769  0.5494  0.2326 -0.3632
  940MOL0     O26796   0.018   1.999   9.717 -0.5088  0.1735 -0.4609
  940MOL0     C26797  -0.119   2.001   9.704  0.6094  0.1690  0.0741
  940MOL0     C26798  -0.195   2.102   9.758 -0.6485  0.0643  0.8593
  940MOL0     C26799  -0.332   2.113   9.734  0.3242  0.7710 -0.9391
  940MOL0     C26800  -0.396   2.015   9.660  0.6700 -0.0057 -0.4142
  940MOL0     O26801  -0.534   2.010   9.636 -0.2939 -0.2562 -0.0286
  940MOL0     C26802  -0.594   2.125   9.570  0.4221 -0.2057  0.2118
  940MOL0     C26803  -0.735   2.080   9.528 -0.8988  0.6061  0.3452
  940MOL0     C26804  -0.819   2.195   9.458 -0.4665  0.0704 -0.3928
  940MOL0     C26805  -0.822   2.334   9.534  0.3928  0.8350 -0.3126
  940MOL0     C26806  -0.959   2.397   9.517  0.6111 -0.4210  0.5269
  940MOL0     C26807  -0.950   2.540   9.576 -0.9819  0.7180  0.0129
  940MOL0     C26808  -1.095   2.603   9.588  0.2548 -0.0464 -1.0190
  940MOL0     C26809  -1.097   2.748   9.547 -0.3126  0.5595  0.5637
  940MOL0    Cl26810  -1.261   2.810   9.568  0.2692 -0.2145  0.2021
  940MOL0     C26811  -0.321   1.917   9.595 -0.0690 -0.1578 -0.1628
  940MOL0     C26812  -0.189   1.902   9.623  0.0573 -0.0507  0.8409
  940MOL0     O26813   0.000   1.809   9.831  0.0713  0.7360  0.8823
  940MOL0     C26814   0.294   1.967   9.679 -0.5652  0.1722 -0.0035
  940MOL0     C26815   0.430   1.953   9.654 -0.0489  1.3315 -0.4711
  940MOL0     N26816   1.179   1.663  10.005  0.5673  0.4620  0.4179
  940MOL0     N26817   1.293   1.680  10.067 -0.1284  0.2895  0.6379
  940MOL0     C26818   2.096   2.466   9.898  0.1458 -0.4390 -0.0131
  940MOL0     C26819   2.227   2.491   9.847 -0.2414  0.2252 -0.5121
  940MOL0     C26820   2.665   2.521   9.894  0.2312 -0.6166 -0.2707
  940MOL0     C26821   2.706   2.647   9.843 -0.0455 -0.0828  0.1638
  940MOL0     C26822   2.844   2.664   9.807 -0.5299  0.0314  0.4667
  940MOL0     C26823   2.937   2.559   9.809 -0.1033  0.6153 -1.0878
  940MOL0     O26824   3.069   2.570   9.785  0.2514 -0.3959 -0.6398
  940MOL0     C26825   3.120   2.676   9.692  0.1427 -0.1289 -0.3500
  940MOL0     C26826   3.271   2.662   9.669 -0.0931 -0.3891 -0.9456
  940MOL0     C26827   3.304   2.531   9.592  0.3525  0.4016 -0.6562
  940MOL0     C26828   3.450   2.506   9.573 -0.2931 -0.6027  0.7938
  940MOL0     C26829   3.496   2.413   9.471 -0.2249 -0.3691 -0.0106
  940MOL0     C26830   3.540   2.323   9.403 -0.8839  0.1147  0.6250
  940MOL0     C26831   2.890   2.437   9.874  0.0299 -0.1268  0.5855
  940MOL0     C26832   2.752   2.417   9.909 -0.0717 -0.6981 -0.3604
  940MOL0     H26833   2.316   2.689  10.117  1.3126 -0.0868 -1.2874
  940MOL0     H26834   2.082   2.651  10.178 -0.7259  1.9479 -1.2296
  940MOL0     H26835   1.787   2.445   9.913 -0.8941  0.9543  0.6801
  940MOL0     H26836   1.874   2.303   9.975  1.0428 -0.4036  3.7107
  940MOL0     H26837   1.706   2.447  10.170 -1.8867 -1.4855  1.8983
  940MOL0     H26838   1.613   2.354  10.057  0.1078  0.2311  0.2661
  940MOL0     H26839   1.779   2.152  10.097  0.6156 -1.7770  2.4733
  940MOL0     H26840   1.831   2.236  10.236  1.0080 -0.3285 -1.7025
  940MOL0     H26841   1.604   2.243  10.344  1.0774 -0.2705  0.2812
  940MOL0     H26842   1.536   2.183  10.182  0.9995 -0.9969 -1.8283
  940MOL0     H26843   1.657   1.969  10.225 -2.3008  0.8182 -2.6559
  940MOL0     H26844   1.709   2.039  10.380  0.2821 -0.3420 -0.9265
  940MOL0     H26845   1.535   1.904  10.429  1.1423  0.0600 -0.2058
  940MOL0     H26846   1.473   2.067  10.457  0.6217 -0.6968  0.0003
  940MOL0     H26847   1.287   1.982  10.337  1.0060 -0.7780  0.9567
  940MOL0     H26848   1.374   2.067  10.223  1.6989  0.6135  0.4868
  940MOL0     H26849   1.398   1.776  10.309  2.1397  1.4567  0.9336
  940MOL0     H26850   1.482   1.837  10.159  0.1581 -0.4108  0.5979
  940MOL0     H26851   1.130   1.949  10.164  2.2212  1.6786  0.0253
  940MOL0     H26852   0.901   1.744  10.063  0.6472  0.6113  2.0700
  940MOL0     H26853   0.945   1.906  10.001  0.6079  0.4870  1.3850
  940MOL0     H26854   0.930   1.630   9.874 -0.8340 -0.0857  1.5887
  940MOL0     H26855   0.997   1.750   9.767  0.5299 -2.1625  0.0150
  940MOL0     H26856   0.797   1.895   9.797 -1.0954 -0.3049 -3.0316
  940MOL0     H26857   0.727   1.775   9.904  0.9780  0.8821  0.9539
  940MOL0     H26858   0.677   1.623   9.727  1.9971 -1.6070 -0.0414
  940MOL0     H26859   0.800   1.690   9.624 -0.7212 -3.8486  1.6296
  940MOL0     H26860   0.477   1.633   9.776 -0.5627  0.1227 -0.5080
  940MOL0     H26861   0.115   1.609   9.792 -0.8909 -0.6233  1.3608
  940MOL0     H26862   0.280   1.532   9.824  3.6822  3.2924 -1.6672
  940MOL0     H26863   0.210   1.630   9.943 -0.6379  1.2985  0.0351
  940MOL0     H26864  -0.145   2.182   9.811  1.0019 -0.3769  0.0448
  940MOL0     H26865  -0.397   2.194   9.766 -2.2933 -1.3672 -0.5477
  940MOL0     H26866  -0.596   2.205   9.645  0.8521  0.4877 -0.5004
  940MOL0     H26867  -0.540   2.164   9.483 -0.7269  1.1862  0.0895
  940MOL0     H26868  -0.711   1.998   9.460 -0.6999 -1.4057  2.6762
  940MOL0     H26869  -0.790   2.037   9.612 -1.4319  1.9684  0.7138
  940MOL0     H26870  -0.918   2.152   9.441  0.5946 -1.1464 -4.7901
  940MOL0     H26871  -0.775   2.210   9.359  1.5420 -0.3536  0.3801
  940MOL0     H26872  -0.810   2.334   9.643  0.8835  1.6323 -0.3550
  940MOL0     H26873  -0.734   2.388   9.497  1.9308 -1.7016 -0.6336
  940MOL0     H26874  -1.039   2.344   9.570 -1.2976  1.2581 -0.5156
  940MOL0     H26875  -0.992   2.411   9.413 -0.7520  1.5761  1.1588
  940MOL0     H26876  -0.896   2.546   9.671  1.6703 -0.7201 -1.2845
  940MOL0     H26877  -0.899   2.605   9.504 -2.5552  0.1602 -1.6764
  940MOL0     H26878  -1.136   2.598   9.689  0.3944  3.0486 -0.7185
  940MOL0     H26879  -1.156   2.550   9.513 -0.6574 -2.5117  1.2939
  940MOL0     H26880  -1.060   2.749   9.444 -2.2064 -1.3086 -0.2173
  940MOL0     H26881  -1.031   2.805   9.612  1.8057 -1.4868  0.3303
  940MOL0     H26882  -0.365   1.853   9.519 -0.3239 -0.8437  0.5547
  940MOL0     H26883  -0.136   1.815   9.584  0.7638 -0.1858  2.0645
  940MOL0     H26884   0.234   2.051   9.645  1.2926 -0.1770 -5.1115
  940MOL0     H26885   0.493   2.024   9.601  0.6584  0.4395 -0.8663
  940MOL0     H26886   2.030   2.401   9.842 -0.2251  0.2837 -0.4258
  940MOL0     H26887   2.262   2.484   9.744 -0.3573  3.4587 -0.8845
  940MOL0     H26888   2.645   2.737   9.844  1.9100  1.4035  3.2639
  940MOL0     H26889   2.883   2.763   9.784  3.0605 -0.9064  1.9072
  940MOL0     H26890   3.069   2.665   9.596  2.9527  0.0415 -1.9758
  940MOL0     H26891   3.092   2.777   9.724  0.1967  0.1136 -1.0433
  940MOL0     H26892   3.314   2.674   9.768  0.3578  0.2423 -1.2091
  940MOL0     H26893   3.306   2.749   9.613  3.4766 -0.1674  1.3779
  940MOL0     H26894   3.253   2.532   9.495 -1.0613  1.0590  0.0575
  940MOL0     H26895   3.263   2.442   9.642  0.4638  0.4945 -0.4009
  940MOL0     H26896   3.478   2.474   9.673  1.8342  1.0007  0.7835
  940MOL0     H26897   3.496   2.602   9.549 -0.0823 -0.8733  0.0692
  940MOL0     H26898   3.592   2.256   9.337 -2.4936  1.3355 -2.0272
  940MOL0     H26899   2.956   2.351   9.874  0.1376 -0.0938  2.3815
  940MOL0     H26900   2.734   2.321   9.956  1.0703 -0.8779 -0.2567
  941MOL0     O26901   4.023   5.802   6.065  0.5907 -0.2734  0.2474
  941MOL0     C26902   4.078   5.719   6.134  0.1927 -0.7261 -0.6847
  941MOL0     O26903   4.026   5.601   6.165 -0.1712 -0.1071 -0.3314
  941MOL0     C26904   3.906   5.568   6.109  0.7698  0.0636 -0.3902
  941MOL0     C26905   3.906   5.484   5.995 -0.2019 -0.6959  0.4680
  941MOL0     C26906   3.783   5.447   5.937 -0.2446 -0.0210 -0.3944
  941MOL0     C26907   3.663   5.479   5.994  0.9435  0.3846  0.0870
  941MOL0     O26908   3.546   5.431   5.941  0.0834 -0.1774  0.9048
  941MOL0     C26909   3.435   5.406   6.034 -0.1208 -0.5192  0.0002
  941MOL0     C26910   3.347   5.307   5.960  0.3872 -0.4868 -0.4582
  941MOL0     C26911   3.234   5.375   5.882  0.4587  0.4348 -0.1945
  941MOL0     C26912   3.120   5.278   5.867  0.1532  0.3230 -0.1519
  941MOL0     C26913   3.022   5.303   5.750 -0.0733  0.0819 -0.2448
  941MOL0     C26914   2.964   5.448   5.755 -0.7381 -0.2930  0.0806
  941MOL0     C26915   2.812   5.467   5.715  0.1171 -0.1174 -0.3261
  941MOL0     C26916   2.775   5.614   5.719 -1.0335  0.2246  0.4421
  941MOL0     N26917   2.638   5.631   5.679  0.0405  0.1560 -0.1965
  941MOL0     C26918   2.601   5.659   5.548 -0.2812  0.0157  0.6908
  941MOL0     C26919   2.475   5.706   5.551  0.4326  0.3268  0.0662
  941MOL0     C26920   2.403   5.759   5.435  0.3685 -0.4851 -0.6137
  941MOL0     C26921   2.273   5.674   5.398 -0.5925  0.1600 -0.0132
  941MOL0     C26922   2.213   5.746   5.275 -0.2854  0.0294  1.2666
  941MOL0     C26923   2.082   5.688   5.209 -0.3212  0.0467  0.1386
  941MOL0     O26924   1.989   5.656   5.312  0.5375 -0.0413  0.2821
  941MOL0     C26925   1.848   5.661   5.284 -0.0538 -0.1864 -0.1320
  941MOL0     C26926   1.760   5.672   5.393  0.4511  0.0308 -0.4464
  941MOL0     C26927   1.622   5.669   5.376 -0.4686 -0.2555  0.4021
  941MOL0     C26928   1.533   5.707   5.498 -0.1591  1.0309 -0.2419
  941MOL0     C26929   1.565   5.655   5.244 -0.2687  1.2710 -0.1934
  941MOL0     C26930   1.427   5.619   5.235 -0.0726  0.7461  0.7247
  941MOL0     O26931   1.366   5.551   5.342  0.3198  0.0018  0.1951
  941MOL0     C26932   1.243   5.490   5.345  0.2763  0.6642  1.3173
  941MOL0     C26933   1.152   5.505   5.448 -0.1721  0.2059 -0.1600
  941MOL0     C26934   1.030   5.438   5.449  0.1099  0.0610  0.6785
  941MOL0     C26935   1.005   5.337   5.347  0.4962  0.7758  0.1488
  941MOL0     O26936   0.890   5.260   5.338 -0.1695  0.1136  0.4480
  941MOL0     C26937   0.819   5.249   5.466  0.4249  0.1591 -0.8464
  941MOL0     C26938   0.733   5.116   5.458 -0.3044 -0.4338 -0.4819
  941MOL0     C26939   0.631   5.123   5.347 -0.3165 -0.7516  0.1673
  941MOL0     C26940   0.593   4.987   5.304  0.4364  0.9660  0.6091
  941MOL0     C26941   0.496   4.916   5.398  0.0508 -0.4775 -0.3585
  941MOL0     C26942   0.416   4.809   5.322 -0.2005  0.0111 -0.1156
  941MOL0     C26943   0.346   4.716   5.421 -0.3045  0.1001 -0.5073
  941MOL0     C26944   0.231   4.645   5.356 -0.3228 -0.2141 -0.3825
  941MOL0    Cl26945   0.090   4.753   5.334 -0.0255 -0.2908 -0.3963
  941MOL0     C26946   1.092   5.328   5.238 -0.7555  0.0514 -0.8126
  941MOL0     C26947   1.208   5.406   5.230  0.1451  0.5639 -0.4952
  941MOL0     O26948   1.380   5.631   5.120  0.4248 -0.0359  0.3358
  941MOL0     C26949   1.656   5.658   5.136  0.1763 -0.2475 -0.2005
  941MOL0     C26950   1.793   5.655   5.158 -0.0362 -0.4648  0.2762
  941MOL0     N26951   2.437   5.701   5.687  0.0285  0.2626 -0.5741
  941MOL0     N26952   2.532   5.653   5.760 -0.1063 -0.0589 -0.1400
  941MOL0     C26953   3.662   5.556   6.109  0.1002 -0.6537  0.5642
  941MOL0     C26954   3.782   5.604   6.167  0.3644 -0.2352  0.6020
  941MOL0     C26955   4.209   5.754   6.200  0.8681  0.2903 -0.3279
  941MOL0     C26956   4.278   5.683   6.296  0.2455 -0.0243  0.3238
  941MOL0     C26957   4.398   5.718   6.355 -0.8379  0.0744  0.1700
  941MOL0     C26958   4.456   5.839   6.315 -0.3953 -0.8419 -0.0336
  941MOL0     O26959   4.566   5.874   6.386 -0.0173  0.1867  0.1606
  941MOL0     C26960   4.632   5.997   6.357 -0.4574 -0.9212  0.1739
  941MOL0     C26961   4.571   6.123   6.421 -0.5452 -0.3612  0.1185
  941MOL0     C26962   4.630   6.250   6.364 -0.3106 -0.4418 -0.1580
  941MOL0     C26963   4.583   6.371   6.435 -0.0325 -0.0926 -0.0070
  941MOL0     C26964   4.621   6.489   6.356  0.5465  0.3976 -0.2485
  941MOL0     C26965   4.640   6.592   6.295 -0.4292  0.0133  0.3005
  941MOL0     C26966   4.379   5.922   6.223  0.5068 -0.5472 -0.7016
  941MOL0     C26967   4.263   5.879   6.170 -0.0277 -0.6170 -0.4231
  941MOL0     H26968   4.002   5.453   5.954  1.2046  1.9367  1.5348
  941MOL0     H26969   3.794   5.374   5.857 -3.9079 -2.6690  1.2409
  941MOL0     H26970   3.483   5.367   6.125 -0.1624 -2.9025 -0.9297
  941MOL0     H26971   3.378   5.496   6.061  2.0300  1.1325 -0.6478
  941MOL0     H26972   3.408   5.250   5.889  2.5358  0.5428  0.4602
  941MOL0     H26973   3.312   5.243   6.042 -0.0923 -1.2399 -1.2405
  941MOL0     H26974   3.203   5.468   5.930  0.0399  0.9425 -1.3970
  941MOL0     H26975   3.254   5.403   5.778 -1.1661  1.4878 -0.2438
  941MOL0     H26976   3.165   5.183   5.839  0.8524  0.9596 -1.2800
  941MOL0     H26977   3.070   5.267   5.963  0.1144 -2.5671 -0.4286
  941MOL0     H26978   3.065   5.296   5.649  0.1445 -0.3585 -0.1234
  941MOL0     H26979   2.937   5.234   5.754 -0.0984  0.1570  0.7228
  941MOL0     H26980   2.976   5.488   5.856 -1.7968  2.0083 -0.6522
  941MOL0     H26981   3.030   5.501   5.686 -0.5403 -2.7891 -1.8308
  941MOL0     H26982   2.803   5.436   5.610 -0.6608  1.3247 -0.7115
  941MOL0     H26983   2.748   5.402   5.775 -0.3156  2.5302  2.3046
  941MOL0     H26984   2.846   5.662   5.650 -1.9614  0.6540 -0.2336
  941MOL0     H26985   2.787   5.649   5.822  2.1976 -4.5117  2.0293
  941MOL0     H26986   2.669   5.650   5.463 -1.0078  0.7817  0.0080
  941MOL0     H26987   2.365   5.860   5.457 -1.9019 -0.5767 -3.5835
  941MOL0     H26988   2.462   5.761   5.344  2.2098  2.6202  0.4714
  941MOL0     H26989   2.200   5.679   5.479  1.4832  2.3283  1.8899
  941MOL0     H26990   2.306   5.571   5.378  1.1460  0.7127 -0.1852
  941MOL0     H26991   2.288   5.740   5.195 -1.0228 -3.1936  0.6814
  941MOL0     H26992   2.184   5.848   5.301 -0.7585 -0.2631  1.8989
  941MOL0     H26993   2.105   5.603   5.144  1.5879  0.0302  0.7585
  941MOL0     H26994   2.033   5.762   5.146  0.4613  1.0052  0.6278
  941MOL0     H26995   1.805   5.678   5.491 -1.2564 -0.3408  0.3888
  941MOL0     H26996   1.449   5.771   5.471 -0.1247  0.4600 -1.7947
  941MOL0     H26997   1.503   5.629   5.570 -0.8409  2.5269  1.1679
  941MOL0     H26998   1.606   5.764   5.557  1.3556 -0.9457 -0.1043
  941MOL0     H26999   1.165   5.578   5.528  0.2845  1.1139 -1.0369
  941MOL0     H27000   0.951   5.450   5.523 -1.5413 -0.8523 -0.8763
  941MOL0     H27001   0.878   5.228   5.555 -1.9973 -2.3109  0.3398
  941MOL0     H27002   0.752   5.331   5.494  0.7325  0.8871 -2.1463
  941MOL0     H27003   0.801   5.033   5.435 -1.2692 -1.4927  0.3875
  941MOL0     H27004   0.690   5.110   5.558  0.2478  2.4445  0.0242
  941MOL0     H27005   0.677   5.173   5.261  0.6331  3.1435  2.6917
  941MOL0     H27006   0.539   5.178   5.370 -2.0480 -2.6050 -1.8522
  941MOL0     H27007   0.538   5.000   5.211 -2.2317  1.6508  2.1899
  941MOL0     H27008   0.680   4.926   5.275 -0.3771 -0.1408  0.4315
  941MOL0     H27009   0.426   4.990   5.438  1.6827  1.1586 -0.3535
  941MOL0     H27010   0.550   4.872   5.482 -0.9531 -1.9598 -0.4653
  941MOL0     H27011   0.340   4.866   5.268  0.4361  1.4355  0.4618
  941MOL0     H27012   0.476   4.744   5.258 -0.9896  0.0082 -0.8824
  941MOL0     H27013   0.322   4.776   5.510  1.0908 -0.4481  0.2825
  941MOL0     H27014   0.413   4.640   5.462 -2.6316 -1.9315 -0.2321
  941MOL0     H27015   0.202   4.558   5.416 -1.3737 -0.1765 -0.8076
  941MOL0     H27016   0.265   4.609   5.259 -2.0354  1.6372 -1.7596
  941MOL0     H27017   1.066   5.261   5.157 -1.1243  0.1426 -0.7693
  941MOL0     H27018   1.265   5.395   5.137 -1.0066 -3.2000 -0.8917
  941MOL0     H27019   1.622   5.633   5.037  0.1000  0.8940 -0.4847
  941MOL0     H27020   1.865   5.655   5.077 -1.0972 -0.4993 -0.6842
  941MOL0     H27021   3.570   5.594   6.151 -0.2219  0.8343 -1.3296
  941MOL0     H27022   3.789   5.678   6.246  2.3364  0.4885 -0.1970
  941MOL0     H27023   4.254   5.583   6.331 -0.6128  0.6037  1.5957
  941MOL0     H27024   4.449   5.651   6.424 -2.6177  1.0066  2.5174
  941MOL0     H27025   4.735   5.977   6.387 -0.1086  0.0934 -0.3071
  941MOL0     H27026   4.632   6.016   6.249  1.9941  1.2537  0.4603
  941MOL0     H27027   4.590   6.113   6.528 -2.6031  1.5157  0.7316
  941MOL0     H27028   4.464   6.137   6.402 -0.3734  1.9967  0.5943
  941MOL0     H27029   4.619   6.251   6.255 -1.5630 -0.7976 -0.0452
  941MOL0     H27030   4.740   6.251   6.368 -0.3007  0.8911 -0.3263
  941MOL0     H27031   4.624   6.379   6.536 -2.5504 -0.0889  1.0859
  941MOL0     H27032   4.476   6.361   6.454  0.0749 -2.0988 -0.1744
  941MOL0     H27033   4.645   6.678   6.231  1.1523 -1.8032 -2.1661
  941MOL0     H27034   4.420   6.017   6.189 -0.9527  0.6397  0.6706
  941MOL0     H27035   4.219   5.953   6.105 -0.0979 -0.8903 -0.6885
  942MOL0     O27036   7.168   6.759   6.478  0.0439  0.6617  0.1361
  942MOL0     C27037   7.241   6.832   6.538  0.7516 -0.0894 -0.6540
  942MOL0     O27038   7.192   6.930   6.618 -0.2825 -0.4546 -0.7420
  942MOL0     C27039   7.057   6.922   6.661 -0.2362  0.3066  0.4662
  942MOL0     C27040   6.965   7.016   6.606 -0.9620 -0.1912 -0.2324
  942MOL0     C27041   6.832   7.019   6.646  0.0277 -0.1251 -1.1535
  942MOL0     C27042   6.797   6.929   6.745  0.7278  0.4166  0.4245
  942MOL0     O27043   6.666   6.943   6.792  0.7722  0.1493 -0.2686
  942MOL0     C27044   6.583   6.869   6.710  0.9452 -0.1353 -0.5667
  942MOL0     C27045   6.442   6.859   6.776  0.0825  0.5991  0.7963
  942MOL0     C27046   6.333   6.836   6.672 -0.9563  0.3450  0.0852
  942MOL0     C27047   6.218   6.749   6.742  0.2084 -0.9934  0.5850
  942MOL0     C27048   6.132   6.688   6.637 -0.2417  0.4561  0.4119
  942MOL0     C27049   6.064   6.783   6.543 -0.2176 -0.1944  0.4467
  942MOL0     C27050   6.019   6.715   6.415  0.3796  0.1211 -0.1535
  942MOL0     C27051   5.952   6.814   6.312  0.5896  0.8008 -0.7137
  942MOL0     N27052   5.797   6.812   6.308 -0.5468 -0.5549 -0.2383
  942MOL0     C27053   5.713   6.804   6.421 -0.4410 -0.0286  1.0124
  942MOL0     C27054   5.596   6.751   6.375 -0.0464  0.2410  0.5474
  942MOL0     C27055   5.479   6.716   6.466 -0.0389 -0.0428 -0.0477
  942MOL0     C27056   5.463   6.565   6.472  0.0338 -0.3129  0.2356
  942MOL0     C27057   5.346   6.517   6.555 -0.3350  0.6435 -0.6407
  942MOL0     C27058   5.347   6.362   6.569  0.4480 -0.1353 -0.0142
  942MOL0     O27059   5.431   6.333   6.679 -0.0038  0.3837 -0.2289
  942MOL0     C27060   5.383   6.305   6.803 -0.0171 -0.2592  0.5452
  942MOL0     C27061   5.289   6.201   6.821  0.0132  0.1317  0.1430
  942MOL0     C27062   5.235   6.169   6.952 -0.5511  0.1657 -0.4441
  942MOL0     C27063   5.145   6.048   6.953 -0.6499  0.4733 -0.6265
  942MOL0     C27064   5.283   6.239   7.063  0.5875 -0.3541 -1.3696
  942MOL0     C27065   5.227   6.213   7.195  0.0989 -0.7420 -0.2506
  942MOL0     O27066   5.100   6.168   7.212 -0.2427 -0.7081  0.0019
  942MOL0     C27067   5.007   6.246   7.272  0.2716 -0.0724 -0.3110
  942MOL0     C27068   5.019   6.380   7.306 -0.2914  0.1354  0.6401
  942MOL0     C27069   4.911   6.446   7.356 -0.3484  0.4195  0.0543
  942MOL0     C27070   4.789   6.387   7.358  0.0102 -0.0562 -0.3221
  942MOL0     O27071   4.686   6.463   7.396 -0.0625 -0.6484 -0.2707
  942MOL0     C27072   4.574   6.396   7.463 -0.6142  0.1604  0.3737
  942MOL0     C27073   4.494   6.484   7.546  0.0397  0.2142 -0.3147
  942MOL0     C27074   4.424   6.595   7.475 -0.0136 -0.2047 -0.3249
  942MOL0     C27075   4.296   6.542   7.396 -0.4812 -0.0603  0.4776
  942MOL0     C27076   4.187   6.491   7.501  0.0621 -0.6137  0.3116
  942MOL0     C27077   4.034   6.490   7.455 -0.1362  0.0679 -0.0358
  942MOL0     C27078   4.021   6.376   7.348 -0.2538  0.1634 -0.2326
  942MOL0     C27079   3.863   6.351   7.316 -0.1450  0.5570 -0.2361
  942MOL0    Cl27080   3.845   6.243   7.172  0.2808 -0.2759 -0.2415
  942MOL0     C27081   4.776   6.254   7.325  0.8776  0.5381 -0.3274
  942MOL0     C27082   4.880   6.178   7.275  0.2214 -0.6233  0.2241
  942MOL0     O27083   5.301   6.247   7.288  0.5527 -0.2050 -0.0272
  942MOL0     C27084   5.373   6.346   7.047  0.4982  0.2312  0.1955
  942MOL0     C27085   5.423   6.375   6.916 -0.2793 -0.7057  0.0912
  942MOL0     N27086   5.606   6.735   6.238 -0.3755 -0.3150  0.3541
  942MOL0     N27087   5.724   6.766   6.202 -0.6289  0.1203  0.1452
  942MOL0     C27088   6.884   6.838   6.790 -0.5116 -0.0353 -0.3267
  942MOL0     C27089   7.014   6.830   6.752 -0.7435 -0.3600 -0.9629
  942MOL0     C27090   7.395   6.821   6.539 -0.3745 -0.3160  0.7244
  942MOL0     C27091   7.461   6.707   6.493 -0.1141  0.2202  0.2801
  942MOL0     C27092   7.606   6.707   6.483 -0.3871 -0.4163  0.1577
  942MOL0     C27093   7.684   6.801   6.555 -1.0172  0.7656  0.2319
  942MOL0     O27094   7.817   6.790   6.580 -0.5563  0.6846  0.3705
  942MOL0     C27095   7.892   6.709   6.484 -0.4642 -0.1630 -0.7713
  942MOL0     C27096   8.043   6.727   6.511  0.1587 -0.3662 -0.2627
  942MOL0     C27097   8.100   6.877   6.515 -0.4785  0.7533  0.4049
  942MOL0     C27098   8.245   6.881   6.559 -0.3579  1.0559  0.0102
  942MOL0     C27099   8.306   7.005   6.533  0.1179 -0.2740  0.0407
  942MOL0     C27100   8.336   7.128   6.523  0.3669  0.5019 -0.3663
  942MOL0     C27101   7.613   6.903   6.616 -0.0243 -0.2125  0.3563
  942MOL0     C27102   7.474   6.923   6.602 -0.0267  0.1623  0.1575
  942MOL0     H27103   7.008   7.081   6.531 -0.7532 -0.4422 -0.3297
  942MOL0     H27104   6.760   7.087   6.601 -0.3488 -1.2414 -2.3070
  942MOL0     H27105   6.565   6.913   6.612 -0.6391 -3.3933 -1.8977
  942MOL0     H27106   6.620   6.766   6.701 -0.6280 -0.7074 -0.8663
  942MOL0     H27107   6.454   6.780   6.851  3.6886 -0.8924 -1.1130
  942MOL0     H27108   6.413   6.951   6.828 -2.8725  0.3120 -0.1848
  942MOL0     H27109   6.295   6.926   6.623 -2.8042 -1.2198 -1.5194
  942MOL0     H27110   6.381   6.773   6.597 -3.7876 -0.9337 -0.7978
  942MOL0     H27111   6.257   6.675   6.812  0.9027 -0.7055  0.5074
  942MOL0     H27112   6.157   6.819   6.800  1.0006 -1.4042  1.9575
  942MOL0     H27113   6.193   6.612   6.586 -3.6220 -3.3430  1.4760
  942MOL0     H27114   6.061   6.628   6.694  0.8902 -0.3300  1.0216
  942MOL0     H27115   5.977   6.818   6.599  1.8002  2.5755  2.0701
  942MOL0     H27116   6.126   6.871   6.528 -2.0649  1.2666  1.0426
  942MOL0     H27117   6.101   6.670   6.359  0.0506 -1.0976  0.3216
  942MOL0     H27118   5.948   6.635   6.440 -0.2687  1.1374  1.4603
  942MOL0     H27119   5.990   6.789   6.213  1.9148 -2.1675  0.4200
  942MOL0     H27120   5.989   6.914   6.338  0.1917  1.3558 -2.1845
  942MOL0     H27121   5.735   6.814   6.527  0.5013  1.7730  0.6844
  942MOL0     H27122   5.498   6.762   6.563 -1.9576  0.3343  0.1730
  942MOL0     H27123   5.386   6.753   6.422  0.3743  0.0260 -0.9017
  942MOL0     H27124   5.555   6.529   6.519 -0.3249 -2.0237 -0.2831
  942MOL0     H27125   5.449   6.526   6.371  1.5583  0.4113 -0.2783
  942MOL0     H27126   5.254   6.555   6.510 -1.1937  1.5915  1.7600
  942MOL0     H27127   5.339   6.567   6.652 -0.8563 -0.2750 -0.1889
  942MOL0     H27128   5.400   6.313   6.486 -0.2862  0.8188 -1.0798
  942MOL0     H27129   5.242   6.334   6.585  0.7282 -1.5778 -0.4917
  942MOL0     H27130   5.261   6.136   6.739 -0.8036 -0.5816  0.9675
  942MOL0     H27131   5.152   5.985   6.865  0.2956 -0.4846  0.1116
  942MOL0     H27132   5.167   5.977   7.033 -1.5381  1.0941  0.1980
  942MOL0     H27133   5.045   6.083   6.981 -0.1564  1.1255  0.3998
  942MOL0     H27134   5.105   6.438   7.276 -0.1067 -0.5466 -0.1885
  942MOL0     H27135   4.915   6.551   7.381 -0.6101  0.0720  1.6778
  942MOL0     H27136   4.519   6.347   7.382  0.1086  2.0175 -1.3323
  942MOL0     H27137   4.615   6.320   7.529 -1.1469 -0.8801 -0.4618
  942MOL0     H27138   4.423   6.426   7.607  0.7965  0.1454  0.5224
  942MOL0     H27139   4.565   6.519   7.622  0.8255 -1.1457 -0.3847
  942MOL0     H27140   4.489   6.640   7.400  0.1478  1.6843  0.8782
  942MOL0     H27141   4.394   6.676   7.543  2.6723  1.3228 -0.8027
  942MOL0     H27142   4.255   6.623   7.335 -0.2226 -1.8172 -2.1909
  942MOL0     H27143   4.324   6.466   7.322  0.5205 -1.1701  1.9196
  942MOL0     H27144   4.189   6.564   7.582 -1.8475  3.9384 -3.2881
  942MOL0     H27145   4.205   6.385   7.522  2.7682 -0.8652 -2.4567
  942MOL0     H27146   3.974   6.473   7.544 -1.2766 -1.9661 -1.1188
  942MOL0     H27147   3.999   6.581   7.404  2.8055  1.8439  0.8541
  942MOL0     H27148   4.073   6.284   7.378  0.9675  0.6152 -0.8896
  942MOL0     H27149   4.067   6.406   7.254 -0.7203 -1.7053 -1.0930
  942MOL0     H27150   3.804   6.441   7.296 -0.3308  0.2229 -1.2055
  942MOL0     H27151   3.822   6.297   7.402 -0.2456 -0.3312 -0.8357
  942MOL0     H27152   4.676   6.213   7.326  0.2552  2.0213  0.0698
  942MOL0     H27153   4.879   6.072   7.249 -0.7245 -0.5899  0.1192
  942MOL0     H27154   5.402   6.394   7.140 -0.2276 -2.7419  2.1032
  942MOL0     H27155   5.483   6.465   6.905  2.6577 -2.3298  1.6449
  942MOL0     H27156   6.839   6.771   6.863  0.9981 -2.8360 -1.8181
  942MOL0     H27157   7.078   6.747   6.781 -1.2384 -0.7869 -1.0725
  942MOL0     H27158   7.410   6.631   6.434  2.3261  0.7968 -2.8562
  942MOL0     H27159   7.647   6.621   6.432 -1.1331 -1.1553  0.7784
  942MOL0     H27160   7.880   6.601   6.491 -0.4412 -0.1253 -0.1270
  942MOL0     H27161   7.872   6.742   6.381 -0.9077  1.3582 -0.2171
  942MOL0     H27162   8.110   6.672   6.445  0.9512 -0.9079  0.9607
  942MOL0     H27163   8.052   6.675   6.607 -1.0786 -1.2699 -0.6019
  942MOL0     H27164   8.044   6.935   6.589  0.2553  1.1967  0.6307
  942MOL0     H27165   8.081   6.927   6.419 -1.1547  2.0283  1.1770
  942MOL0     H27166   8.301   6.801   6.510  0.1731  3.0662 -2.9143
  942MOL0     H27167   8.248   6.863   6.667  0.3240 -0.8546 -0.2861
  942MOL0     H27168   8.350   7.231   6.501 -0.7473  0.5790 -0.7890
  942MOL0     H27169   7.679   6.960   6.681  1.0215 -0.4632 -0.4624
  942MOL0     H27170   7.427   7.006   6.653  0.9793  0.0164  1.3676
  943MOL0     O27171   9.890   9.849   4.851 -0.2393  0.4707 -0.8166
  943MOL0     C27172   9.896   9.969   4.819 -0.0303  0.4372 -0.7525
  943MOL0     O27173   9.808  10.064   4.858 -0.0824 -0.4161 -0.4270
  943MOL0     C27174   9.723  10.027   4.956  0.8214 -0.2370  0.7080
  943MOL0     C27175   9.592   9.981   4.928  0.1238  0.3951  0.8285
  943MOL0     C27176   9.510   9.933   5.029 -0.0835  0.9579  0.2664
  943MOL0     C27177   9.547   9.922   5.163 -0.1222 -0.2525  0.1096
  943MOL0     O27178   9.470   9.877   5.266 -0.2257  0.3146  0.5665
  943MOL0     C27179   9.335   9.840   5.251 -0.2201 -0.7104  0.0694
  943MOL0     C27180   9.278   9.811   5.391  0.1424 -0.8531 -0.5574
  943MOL0     C27181   9.127   9.820   5.388  0.5471  1.0134  0.0798
  943MOL0     C27182   9.059   9.790   5.520  0.1385  0.5986 -1.0619
  943MOL0     C27183   8.909   9.780   5.488  0.6545  0.1087  0.0829
  943MOL0     C27184   8.823   9.774   5.621 -0.9039  0.3353 -0.0906
  943MOL0     C27185   8.834   9.910   5.688  0.1568 -0.3092 -0.1299
  943MOL0     C27186   8.747   9.925   5.817 -0.0155  0.5838 -0.2915
  943MOL0     N27187   8.606   9.896   5.792 -0.1397 -0.2189 -0.8601
  943MOL0     C27188   8.512   9.973   5.737 -0.5923  0.5139  0.0491
  943MOL0     C27189   8.404   9.897   5.724 -0.3581  0.6500 -1.1282
  943MOL0     C27190   8.292   9.939   5.644  0.1959  0.1642 -0.6536
  943MOL0     C27191   8.173   9.988   5.731  0.6952  0.3638  0.1379
  943MOL0     C27192   8.107   9.859   5.804 -0.7739  0.4358  0.4060
  943MOL0     C27193   7.981   9.898   5.874  0.1657  0.4597 -0.6992
  943MOL0     O27194   7.879   9.946   5.784  0.0322  0.4800  0.5595
  943MOL0     C27195   7.753   9.892   5.807  0.5012 -0.7481  0.1396
  943MOL0     C27196   7.652   9.958   5.889 -0.4792  0.0519 -0.4478
  943MOL0     C27197   7.535   9.897   5.923  0.7186 -0.4348 -0.0757
  943MOL0     C27198   7.435   9.963   6.009  0.4066 -0.2335  0.8076
  943MOL0     C27199   7.514   9.761   5.883 -0.5067  0.3316 -0.4568
  943MOL0     C27200   7.387   9.697   5.904  0.4097  0.2284 -0.1303
  943MOL0     O27201   7.283   9.761   5.841 -0.5589  0.5122 -0.3061
  943MOL0     C27202   7.159   9.719   5.873  0.1139  0.3170 -0.2818
  943MOL0     C27203   7.079   9.801   5.954 -0.4643 -0.0921 -0.9401
  943MOL0     C27204   6.949   9.769   5.986  0.3250  0.1607 -0.0417
  943MOL0     C27205   6.898   9.645   5.931 -0.5186 -0.0986  0.0346
  943MOL0     O27206   6.763   9.613   5.973 -0.7746  0.2932  0.4447
  943MOL0     C27207   6.691   9.529   5.881  0.0414  0.1077 -0.4794
  943MOL0     C27208   6.554   9.500   5.917 -0.0905 -0.4299  0.5568
  943MOL0     C27209   6.465   9.445   5.801 -0.4399  0.2924  0.5997
  943MOL0     C27210   6.322   9.415   5.840 -0.6889 -1.2710 -0.0240
  943MOL0     C27211   6.233   9.377   5.720 -0.6271  0.4297  0.1999
  943MOL0     C27212   6.088   9.345   5.765  0.8396 -0.2672  0.5194
  943MOL0     C27213   5.991   9.322   5.646  0.4611  0.7527 -0.1243
  943MOL0     C27214   5.848   9.269   5.672  0.1735  0.4663 -0.1042
  943MOL0    Cl27215   5.756   9.393   5.760 -0.0223  0.0464 -0.3980
  943MOL0     C27216   6.974   9.561   5.850  0.0760  0.3616 -1.0947
  943MOL0     C27217   7.107   9.602   5.820  0.4107 -0.6842 -0.5584
  943MOL0     O27218   7.374   9.599   5.980 -0.0197 -0.2159 -0.7973
  943MOL0     C27219   7.609   9.695   5.803  0.1604  0.7394  0.0489
  943MOL0     C27220   7.727   9.763   5.762 -0.5360  0.4426  0.3105
  943MOL0     N27221   8.439   9.773   5.776  0.5207 -0.0408  0.3597
  943MOL0     N27222   8.553   9.773   5.819  0.2003 -0.4139  0.6284
  943MOL0     C27223   9.682   9.969   5.190 -0.0088 -0.4203  0.1718
  943MOL0     C27224   9.765  10.022   5.083  0.0676  0.1877 -0.1250
  943MOL0     C27225  10.003  10.018   4.737  1.1159  0.5295  0.5817
  943MOL0     C27226  10.119   9.938   4.732 -0.4731  0.3327  0.8701
  943MOL0     C27227  10.233   9.979   4.668  0.4534  0.7409 -0.2649
  943MOL0     C27228  10.232  10.098   4.602  0.0405 -0.3673 -0.2253
  943MOL0     O27229  10.336  10.145   4.527  0.1766  0.2755 -0.2783
  943MOL0     C27230  10.467  10.084   4.549  1.1458 -0.6483 -0.1176
  943MOL0     C27231  10.562  10.155   4.452  0.6840 -0.2083  0.8143
  943MOL0     C27232  10.707  10.130   4.475 -0.3602 -0.1633  0.4473
  943MOL0     C27233  10.743   9.983   4.457  0.5528  0.3967  0.1163
  943MOL0     C27234  10.875   9.961   4.504 -0.6097  0.6261 -0.4328
  943MOL0     C27235  10.980   9.932   4.555 -0.6373 -1.6316  0.7740
  943MOL0     C27236  10.117  10.175   4.595  1.2110  0.0210 -0.3697
  943MOL0     C27237  10.001  10.141   4.666  0.0395  0.4749  0.4977
  943MOL0     H27238   9.549   9.985   4.828  0.6188 -1.2323  0.5325
  943MOL0     H27239   9.412   9.894   5.002  1.2712 -2.1364 -0.7004
  943MOL0     H27240   9.278   9.921   5.205 -0.5660 -0.8443  0.2634
  943MOL0     H27241   9.335   9.755   5.182  0.6801 -1.0941  0.5119
  943MOL0     H27242   9.326   9.717   5.422  2.7978 -0.1066 -2.0882
  943MOL0     H27243   9.315   9.893   5.453 -0.7468  0.0434 -1.2006
  943MOL0     H27244   9.088   9.917   5.355 -0.7322  0.7559  0.7746
  943MOL0     H27245   9.090   9.750   5.312 -2.0524  1.2403  1.0373
  943MOL0     H27246   9.094   9.697   5.566 -1.8932  0.1582 -0.2902
  943MOL0     H27247   9.069   9.878   5.584 -4.4118  0.7510 -0.2349
  943MOL0     H27248   8.874   9.874   5.443 -2.0441 -1.3657 -1.1200
  943MOL0     H27249   8.887   9.693   5.426  1.0990 -2.0370  2.7424
  943MOL0     H27250   8.722   9.749   5.589 -1.2299  1.1754  0.2689
  943MOL0     H27251   8.863   9.694   5.685  0.5213 -0.4434 -1.8715
  943MOL0     H27252   8.929   9.951   5.723 -0.1787  2.4414 -2.1003
  943MOL0     H27253   8.792   9.984   5.620 -0.9140  0.0159  0.8611
  943MOL0     H27254   8.763  10.024   5.861  2.0061  0.6634 -1.1006
  943MOL0     H27255   8.793   9.857   5.889 -1.4233 -2.2383 -1.8979
  943MOL0     H27256   8.527  10.070   5.691 -2.1372  1.0506  0.6066
  943MOL0     H27257   8.319  10.007   5.562  1.4935  0.6414  0.1290
  943MOL0     H27258   8.252   9.847   5.601 -4.9004  0.1945  3.1353
  943MOL0     H27259   8.108  10.031   5.654 -0.9652 -1.9562  0.1269
  943MOL0     H27260   8.199  10.059   5.810  0.8286  0.4511  0.0160
  943MOL0     H27261   8.174   9.818   5.880 -0.0801  0.7728 -0.0101
  943MOL0     H27262   8.084   9.784   5.728 -0.2600  3.5701 -3.1615
  943MOL0     H27263   7.993   9.984   5.942 -2.7063 -0.1955  0.8060
  943MOL0     H27264   7.958   9.813   5.939 -1.3464  1.4953  0.1801
  943MOL0     H27265   7.666  10.060   5.925 -3.4886  1.8973 -3.8251
  943MOL0     H27266   7.349   9.900   6.032 -0.8314  1.0402 -0.1360
  943MOL0     H27267   7.483   9.997   6.101 -0.7829  0.1025  1.3167
  943MOL0     H27268   7.406  10.049   5.948 -0.3748 -1.1140 -0.1062
  943MOL0     H27269   7.116   9.894   5.996 -0.1345  0.2734 -2.0097
  943MOL0     H27270   6.891   9.830   6.054  1.0118  1.3989 -0.5346
  943MOL0     H27271   6.691   9.575   5.782  0.9505 -1.0187 -1.0301
  943MOL0     H27272   6.744   9.434   5.877  2.1900  1.2364 -0.5443
  943MOL0     H27273   6.546   9.430   6.000 -2.8927 -2.1687 -1.0015
  943MOL0     H27274   6.497   9.580   5.965  1.2834  0.5516  0.6064
  943MOL0     H27275   6.504   9.351   5.759 -0.7953 -0.7378  2.4619
  943MOL0     H27276   6.467   9.521   5.723  1.7819  1.0895  1.3631
  943MOL0     H27277   6.327   9.323   5.899  0.5055 -2.0611 -1.2877
  943MOL0     H27278   6.289   9.502   5.896 -0.4029 -0.6795 -0.7476
  943MOL0     H27279   6.274   9.282   5.683 -0.0448  0.4013  0.8760
  943MOL0     H27280   6.241   9.452   5.641  0.7832 -3.1958 -3.4159
  943MOL0     H27281   6.088   9.255   5.828 -0.3422  1.3311  2.9951
  943MOL0     H27282   6.041   9.422   5.828 -2.6781 -1.0517 -0.8933
  943MOL0     H27283   6.038   9.249   5.580  1.4739  0.4310  0.9209
  943MOL0     H27284   5.983   9.417   5.592  1.6067  0.0273 -1.6529
  943MOL0     H27285   5.855   9.179   5.734  1.0029 -0.0707 -0.9449
  943MOL0     H27286   5.808   9.246   5.573  1.8952 -1.7352 -0.3778
  943MOL0     H27287   6.934   9.468   5.809 -0.2945  0.7557 -1.6424
  943MOL0     H27288   7.166   9.540   5.753  0.0660  1.5154 -3.0665
  943MOL0     H27289   7.581   9.595   5.773  0.9152  0.7672 -0.7912
  943MOL0     H27290   7.800   9.720   5.695  0.2859  2.5504 -0.2093
  943MOL0     H27291   9.711   9.961   5.294 -1.9690  2.1271  1.0057
  943MOL0     H27292   9.867  10.048   5.107 -1.0723  3.5075  1.7295
  943MOL0     H27293  10.139   9.859   4.804  1.5647  0.6024  0.6464
  943MOL0     H27294  10.320   9.916   4.681  0.4405  0.5559 -1.0192
  943MOL0     H27295  10.509  10.104   4.648  0.5948 -0.2523  0.0374
  943MOL0     H27296  10.461   9.979   4.519 -0.5293 -0.4765 -0.4799
  943MOL0     H27297  10.547  10.263   4.466 -0.3005 -0.3197  0.6999
  943MOL0     H27298  10.543  10.119   4.351  3.0081 -0.9833  0.6061
  943MOL0     H27299  10.726  10.167   4.576 -0.7692  2.3901 -0.3614
  943MOL0     H27300  10.769  10.185   4.404 -2.3708 -1.2440 -2.3697
  943MOL0     H27301  10.734   9.963   4.350 -2.9782  0.1183  0.3324
  943MOL0     H27302  10.671   9.915   4.503  0.7649 -0.1462 -0.3553
  943MOL0     H27303  11.078   9.907   4.590  1.8501  1.7805 -2.9229
  943MOL0     H27304  10.125  10.265   4.535  3.7501  0.8355  1.0205
  943MOL0     H27305   9.904  10.190   4.657 -1.1320 -1.7164  0.5459
  944MOL0     O27306   7.329  11.235   0.972  0.5625  0.4418  0.1961
  944MOL0     C27307   7.396  11.293   1.055 -0.4459 -0.8047  0.0178
  944MOL0     O27308   7.388  11.278   1.190  0.7160  0.8957 -0.1505
  944MOL0     C27309   7.270  11.214   1.240 -0.1648  0.3946  0.3232
  944MOL0     C27310   7.138  11.270   1.211  0.1273  0.9045  0.2140
  944MOL0     C27311   7.017  11.217   1.266 -0.4396 -0.2231  0.7529
  944MOL0     C27312   7.034  11.107   1.356 -0.4155 -0.3283 -0.2023
  944MOL0     O27313   6.931  11.034   1.404  0.4363 -0.0934  0.0998
  944MOL0     C27314   6.801  11.043   1.329 -0.3213 -0.4921 -0.0071
  944MOL0     C27315   6.695  10.936   1.372 -0.4048 -0.2962 -0.0827
  944MOL0     C27316   6.755  10.793   1.374  0.3931  0.2350  0.5937
  944MOL0     C27317   6.639  10.696   1.375 -0.8564 -0.4142 -0.6970
  944MOL0     C27318   6.572  10.680   1.521 -0.0584  0.2492 -0.3954
  944MOL0     C27319   6.463  10.573   1.518  0.3614 -0.2768 -0.0254
  944MOL0     C27320   6.373  10.580   1.640  0.6432 -0.3918 -0.4829
  944MOL0     C27321   6.275  10.455   1.639 -0.5617 -0.3818 -0.3012
  944MOL0     N27322   6.349  10.324   1.647  0.2998  0.4568 -0.1988
  944MOL0     C27323   6.362  10.231   1.537  0.4094 -0.3344  0.5098
  944MOL0     C27324   6.429  10.129   1.580 -0.4357 -0.1589  0.4855
  944MOL0     C27325   6.465  10.004   1.497 -0.1255 -0.4692  0.0614
  944MOL0     C27326   6.347   9.913   1.456  0.2542 -0.2416  0.4842
  944MOL0     C27327   6.380   9.806   1.342  0.2688 -0.8360 -0.7395
  944MOL0     C27328   6.258   9.747   1.283 -0.1630 -0.4390  0.7286
  944MOL0     O27329   6.169   9.858   1.245 -0.2615 -0.5258 -0.3429
  944MOL0     C27330   6.059   9.829   1.169 -0.5669  0.6578 -0.1934
  944MOL0     C27331   6.011   9.699   1.152  0.5339  0.7300  0.2677
  944MOL0     C27332   5.888   9.678   1.091  1.1580  0.2912 -0.2950
  944MOL0     C27333   5.825   9.536   1.094 -0.5738 -1.1538  1.0392
  944MOL0     C27334   5.813   9.792   1.033  0.2047  0.1549  0.2574
  944MOL0     C27335   5.680   9.784   0.960  0.3359  0.4902 -0.9276
  944MOL0     O27336   5.616   9.907   0.942  0.6305 -0.0801 -0.1497
  944MOL0     C27337   5.489   9.905   0.893 -0.1872  0.4358 -0.4291
  944MOL0     C27338   5.467   9.957   0.768 -0.3817 -1.0260  0.6885
  944MOL0     C27339   5.336   9.968   0.720  0.9890 -0.6992 -0.1349
  944MOL0     C27340   5.230   9.920   0.800  0.7348  0.0569 -0.4478
  944MOL0     O27341   5.095   9.911   0.758 -0.3207  0.3763  0.6663
  944MOL0     C27342   5.047  10.036   0.713 -0.4130 -0.6251 -0.0606
  944MOL0     C27343   5.024  10.139   0.835  0.6885 -0.3950  0.6795
  944MOL0     C27344   4.951  10.075   0.951 -0.6984  0.0621  0.4003
  944MOL0     C27345   4.815  10.026   0.918  0.3207 -0.5107  0.2139
  944MOL0     C27346   4.725  10.140   0.865  0.7865  0.6483  0.0203
  944MOL0     C27347   4.573  10.115   0.867  0.1744 -0.9684  0.3036
  944MOL0     C27348   4.498  10.244   0.825 -0.4163  0.1986  0.4529
  944MOL0     C27349   4.347  10.246   0.872  0.0458 -0.3829  1.1045
  944MOL0    Cl27350   4.262  10.119   0.784  0.1967 -0.1774  0.0153
  944MOL0     C27351   5.250   9.857   0.924 -0.1441  0.0447  0.0106
  944MOL0     C27352   5.378   9.862   0.982 -0.1930  0.2450  0.0058
  944MOL0     O27353   5.635   9.680   0.919  0.2028  0.2806 -0.0648
  944MOL0     C27354   5.874   9.916   1.032  0.5103 -0.5665 -0.0291
  944MOL0     C27355   5.994   9.933   1.108  0.2927 -0.0152  0.6266
  944MOL0     N27356   6.456  10.152   1.715  0.0525 -0.1415 -0.1064
  944MOL0     N27357   6.413  10.265   1.758  0.4810 -0.5103  0.3501
  944MOL0     C27358   7.164  11.064   1.396  0.7031 -0.6473 -0.8332
  944MOL0     C27359   7.280  11.111   1.338 -0.0390 -0.2596  0.4694
  944MOL0     C27360   7.503  11.377   1.002  0.6590 -0.4975  0.1791
  944MOL0     C27361   7.595  11.439   1.089 -1.0248  1.1227  0.0073
  944MOL0     C27362   7.694  11.523   1.052  0.3232  0.2405 -0.3881
  944MOL0     C27363   7.690  11.562   0.913  0.8109  0.4502 -0.5302
  944MOL0     O27364   7.780  11.656   0.864 -0.4977 -0.4936  0.3357
  944MOL0     C27365   7.841  11.618   0.739  0.7243 -0.2071 -0.3876
  944MOL0     C27366   7.909  11.736   0.677 -0.1577  0.4031 -0.3717
  944MOL0     C27367   8.008  11.810   0.769  0.0391 -1.3091 -0.3683
  944MOL0     C27368   8.032  11.959   0.735 -0.9617  0.5281  0.2359
  944MOL0     C27369   8.083  11.984   0.597 -0.3612 -0.1807 -0.0993
  944MOL0     C27370   8.136  11.987   0.485  0.0429  0.2242 -1.2218
  944MOL0     C27371   7.597  11.504   0.827  0.6491  0.0051  0.0136
  944MOL0     C27372   7.504  11.417   0.869  0.2182  0.2840  0.1631
  944MOL0     H27373   7.129  11.351   1.138  0.9689  0.4581 -0.4039
  944MOL0     H27374   6.924  11.268   1.244  1.5871  3.5504  0.0497
  944MOL0     H27375   6.755  11.140   1.349 -0.4119 -0.6303  0.4719
  944MOL0     H27376   6.810  11.028   1.221 -2.8243  2.2636 -0.7216
  944MOL0     H27377   6.640  10.947   1.466 -1.6642 -2.9246 -0.4259
  944MOL0     H27378   6.623  10.935   1.290 -1.7995 -3.1102  1.0642
  944MOL0     H27379   6.817  10.785   1.285  2.2379  0.3087  1.8048
  944MOL0     H27380   6.817  10.760   1.458 -3.9089 -2.7525  3.0144
  944MOL0     H27381   6.569  10.725   1.296  0.1371  0.2270 -1.3608
  944MOL0     H27382   6.687  10.602   1.348  2.6257  0.9609  0.1885
  944MOL0     H27383   6.638  10.641   1.599 -3.0850  2.1038  3.4152
  944MOL0     H27384   6.532  10.775   1.558  0.0262  0.2959 -0.4249
  944MOL0     H27385   6.404  10.580   1.426 -0.6547 -3.5610  0.2304
  944MOL0     H27386   6.509  10.473   1.520 -1.0573 -1.0075 -1.4988
  944MOL0     H27387   6.426  10.583   1.735 -1.4004  0.7638  0.6792
  944MOL0     H27388   6.309  10.669   1.639  0.1175 -0.7473  0.5424
  944MOL0     H27389   6.207  10.459   1.553 -3.2715 -1.9500  1.5838
  944MOL0     H27390   6.210  10.462   1.727  1.1139  2.4225  0.8338
  944MOL0     H27391   6.320  10.234   1.437  1.6905  1.0458 -0.0284
  944MOL0     H27392   6.525  10.030   1.409  0.2758  3.2504  1.2270
  944MOL0     H27393   6.532   9.945   1.561  1.0523  0.9831  0.2326
  944MOL0     H27394   6.266   9.982   1.430 -0.0369 -0.6522  0.2925
  944MOL0     H27395   6.324   9.860   1.548  1.7939  0.2835  1.2072
  944MOL0     H27396   6.449   9.729   1.379  1.2803  0.5092  0.2635
  944MOL0     H27397   6.418   9.854   1.251  1.1049 -0.8714 -0.4201
  944MOL0     H27398   6.207   9.669   1.341 -1.0610 -1.0065 -0.7382
  944MOL0     H27399   6.282   9.692   1.191  0.3491  1.2783 -0.2145
  944MOL0     H27400   6.056   9.617   1.207 -0.8376  1.3195  2.3683
  944MOL0     H27401   5.782   9.512   0.997 -1.1092  1.4233  0.5694
  944MOL0     H27402   5.905   9.463   1.114  1.9341  0.7958 -1.1086
  944MOL0     H27403   5.746   9.521   1.168 -1.7469 -2.6476 -0.4231
  944MOL0     H27404   5.553  10.001   0.719  1.1823 -2.7480  1.7395
  944MOL0     H27405   5.334  10.008   0.619  2.5160  2.0508  0.8101
  944MOL0     H27406   5.116  10.074   0.637  1.2818 -0.3180  1.5906
  944MOL0     H27407   4.956  10.024   0.652  0.0727 -2.4765 -0.4954
  944MOL0     H27408   5.118  10.162   0.885  0.1130 -0.5511  1.8557
  944MOL0     H27409   4.974  10.228   0.795  2.0957  0.6730  1.2269
  944MOL0     H27410   4.958  10.131   1.045  3.4459 -1.3117  1.1177
  944MOL0     H27411   5.011   9.984   0.963  0.6398  0.9238  0.5367
  944MOL0     H27412   4.815   9.940   0.851 -2.0514 -0.4604  0.0537
  944MOL0     H27413   4.760   9.986   1.004 -2.3839  0.6612 -0.8594
  944MOL0     H27414   4.752  10.157   0.760 -0.8193  0.8531 -0.3934
  944MOL0     H27415   4.761  10.232   0.913  3.4561  0.2293 -0.9924
  944MOL0     H27416   4.552  10.043   0.788  0.7333  1.2682 -2.0113
  944MOL0     H27417   4.532  10.076   0.961 -0.5557  1.6624  1.1573
  944MOL0     H27418   4.500  10.254   0.716  0.1277  3.5765  0.6690
  944MOL0     H27419   4.547  10.331   0.870 -1.6544  0.0701  2.1328
  944MOL0     H27420   4.295  10.338   0.845  1.2347  0.2119  0.7374
  944MOL0     H27421   4.348  10.230   0.980  1.8108 -1.2119  1.0158
  944MOL0     H27422   5.162   9.818   0.974  0.7144 -1.1030  0.6905
  944MOL0     H27423   5.387   9.818   1.081  0.5969  1.0963  0.3346
  944MOL0     H27424   5.822   9.999   0.985  0.3960 -0.9632 -0.6155
  944MOL0     H27425   6.036  10.033   1.103 -2.0875  0.9904 -1.9174
  944MOL0     H27426   7.169  10.995   1.479 -3.2020  2.0465  2.0003
  944MOL0     H27427   7.378  11.066   1.356  0.3532 -1.4558 -3.5800
  944MOL0     H27428   7.591  11.402   1.191 -1.6751  1.9086  0.2848
  944MOL0     H27429   7.773  11.558   1.118 -0.6414  0.7531  0.4990
  944MOL0     H27430   7.902  11.530   0.759 -1.3138 -1.0390  2.9662
  944MOL0     H27431   7.779  11.577   0.658  2.4630  0.5952 -2.2019
  944MOL0     H27432   7.826  11.801   0.646 -1.9674 -1.4215  0.4013
  944MOL0     H27433   7.970  11.689   0.599  1.4854 -0.5891  1.4440
  944MOL0     H27434   8.103  11.756   0.761  1.7743  1.6637 -1.6675
  944MOL0     H27435   7.978  11.809   0.874 -0.7305 -1.9244 -0.5914
  944MOL0     H27436   8.109  11.986   0.808  0.5011 -1.3891 -0.4840
  944MOL0     H27437   7.937  12.008   0.758 -1.8202 -0.9746  0.0192
  944MOL0     H27438   8.190  11.992   0.392  1.0245  1.2553 -0.6287
  944MOL0     H27439   7.589  11.544   0.726  1.8532  1.8675  0.5961
  944MOL0     H27440   7.434  11.370   0.801 -1.6684  2.6386  0.3342
  945MOL0     O27441   3.845   4.870   7.138  0.2586 -0.3513  0.0069
  945MOL0     C27442   3.851   4.755   7.092 -0.2307  0.2427  0.0823
  945MOL0     O27443   3.745   4.679   7.067 -0.1912  0.0705  0.3270
  945MOL0     C27444   3.625   4.718   7.120  0.1753 -0.4221  0.1893
  945MOL0     C27445   3.601   4.768   7.250  0.2272  1.1400 -0.6042
  945MOL0     C27446   3.466   4.786   7.296 -0.2316  0.4794 -0.8894
  945MOL0     C27447   3.358   4.761   7.214  0.2034  0.4348  0.0184
  945MOL0     O27448   3.238   4.803   7.261 -0.0673 -0.2540 -0.2354
  945MOL0     C27449   3.126   4.727   7.218  0.5172 -0.4208 -0.3829
  945MOL0     C27450   2.996   4.750   7.302  0.0208  0.3388 -0.5036
  945MOL0     C27451   2.867   4.719   7.222  0.1007 -0.3823  0.1375
  945MOL0     C27452   2.747   4.719   7.320  0.4878 -0.9171  0.1151
  945MOL0     C27453   2.700   4.861   7.359  0.1791  0.2219  0.3361
  945MOL0     C27454   2.562   4.880   7.426 -0.2786 -0.2989  0.2689
  945MOL0     C27455   2.534   5.037   7.436  0.1139  0.1520 -0.0539
  945MOL0     C27456   2.401   5.053   7.520  1.0664  1.0824  0.7497
  945MOL0     N27457   2.346   5.187   7.492  0.3902  0.2720 -0.5488
  945MOL0     C27458   2.288   5.267   7.588 -0.0248  0.0470  0.2565
  945MOL0     C27459   2.236   5.371   7.512  0.0036 -0.3168 -0.4745
  945MOL0     C27460   2.162   5.487   7.580  0.2127  0.0514  0.3962
  945MOL0     C27461   2.028   5.435   7.623 -0.8283 -0.2390  0.1048
  945MOL0     C27462   1.951   5.546   7.687 -0.2305  0.0799  1.0332
  945MOL0     C27463   1.807   5.499   7.729  0.0420  0.1731  1.0298
  945MOL0     O27464   1.741   5.604   7.796 -1.1389  0.2344 -0.1631
  945MOL0     C27465   1.612   5.572   7.836 -0.6240 -0.9314  0.7889
  945MOL0     C27466   1.525   5.683   7.828  0.3117 -0.4871  0.4274
  945MOL0     C27467   1.383   5.657   7.830 -0.8877 -0.5985 -1.3675
  945MOL0     C27468   1.292   5.781   7.816 -0.3161  0.5771  0.4054
  945MOL0     C27469   1.330   5.528   7.858 -1.2413 -0.3166 -0.3868
  945MOL0     C27470   1.184   5.499   7.874  0.1696  0.5494  0.0765
  945MOL0     O27471   1.148   5.400   7.963 -0.8010  0.2909  0.2856
  945MOL0     C27472   1.018   5.393   7.996  0.3021 -1.0299 -0.6599
  945MOL0     C27473   0.957   5.505   8.038  0.4657  0.2899 -0.4074
  945MOL0     C27474   0.822   5.503   8.071 -0.3398  0.1788 -0.5000
  945MOL0     C27475   0.746   5.386   8.062 -0.3939  0.4824 -0.2423
  945MOL0     O27476   0.613   5.361   8.094 -0.1062  0.0370 -0.0297
  945MOL0     C27477   0.525   5.468   8.115 -0.6044  0.2555 -0.8341
  945MOL0     C27478   0.387   5.402   8.137  0.1151 -0.1807 -0.4611
  945MOL0     C27479   0.339   5.347   7.996 -0.1937 -0.3297  0.3617
  945MOL0     C27480   0.236   5.235   7.992 -0.3259 -0.1249  0.0608
  945MOL0     C27481   0.101   5.257   8.070 -0.6031 -0.9755 -0.2252
  945MOL0     C27482   0.028   5.124   8.085 -0.5651  0.0326 -0.1681
  945MOL0     C27483   0.092   5.042   8.196 -0.1321  0.7069  0.3997
  945MOL0     C27484   0.024   4.902   8.230  0.9371 -0.5129 -0.3623
  945MOL0    Cl27485  -0.144   4.923   8.284 -0.0012 -0.0157  0.2701
  945MOL0     C27486   0.817   5.274   8.016  0.6808  0.0321  0.0093
  945MOL0     C27487   0.951   5.272   7.988  0.0155  0.1052  0.7917
  945MOL0     O27488   1.116   5.540   7.780  0.5020 -0.3531  0.1476
  945MOL0     C27489   1.430   5.424   7.885 -0.2755 -0.7052 -0.1702
  945MOL0     C27490   1.567   5.443   7.867  0.6434 -0.1236  0.6394
  945MOL0     N27491   2.266   5.353   7.384 -0.1246  0.1694  0.7381
  945MOL0     N27492   2.331   5.240   7.371 -0.9843 -1.3259  0.3864
  945MOL0     C27493   3.383   4.698   7.086  0.1927 -0.8363  0.0372
  945MOL0     C27494   3.515   4.681   7.044 -0.8387  0.9179 -0.9077
  945MOL0     C27495   3.991   4.700   7.075  0.7542 -0.9680 -0.2705
  945MOL0     C27496   4.095   4.771   7.146 -0.0579  0.3493  0.3589
  945MOL0     C27497   4.231   4.725   7.125 -0.4152  0.7266 -0.0413
  945MOL0     C27498   4.257   4.601   7.054 -0.0283  0.1144  0.2923
  945MOL0     O27499   4.380   4.540   7.041 -0.3451 -0.2228  0.1634
  945MOL0     C27500   4.461   4.561   6.927 -0.0784 -0.8492  0.3779
  945MOL0     C27501   4.577   4.649   6.960  0.2316  0.9556  0.4150
  945MOL0     C27502   4.696   4.561   6.975 -0.2977  0.0490  0.8964
  945MOL0     C27503   4.815   4.640   7.027 -0.3358  0.1738 -0.3518
  945MOL0     C27504   4.791   4.688   7.170 -0.4853 -0.2520  0.2176
  945MOL0     C27505   4.774   4.736   7.282 -0.1485  0.2576 -0.2717
  945MOL0     C27506   4.149   4.541   6.988  0.2799 -0.1152  0.0478
  945MOL0     C27507   4.021   4.589   6.999  0.4743 -0.3887  0.3772
  945MOL0     H27508   3.684   4.790   7.316  3.1325 -1.3081 -3.1157
  945MOL0     H27509   3.443   4.840   7.388 -0.0322 -1.4790  0.3649
  945MOL0     H27510   3.101   4.753   7.115 -0.1518 -3.2387 -1.0222
  945MOL0     H27511   3.153   4.621   7.219 -1.3475 -0.9669 -1.8603
  945MOL0     H27512   3.004   4.698   7.398  1.0975  1.2505 -0.0843
  945MOL0     H27513   2.983   4.851   7.343  0.4922 -0.2508  1.2257
  945MOL0     H27514   2.853   4.780   7.133 -0.2984 -2.0084 -0.9515
  945MOL0     H27515   2.868   4.615   7.190 -0.4193 -1.1662  2.4318
  945MOL0     H27516   2.668   4.662   7.270 -1.2870 -0.0860  1.8103
  945MOL0     H27517   2.763   4.657   7.409  2.5372 -1.4310 -0.5714
  945MOL0     H27518   2.782   4.894   7.423  0.7523 -1.8102  0.7306
  945MOL0     H27519   2.677   4.904   7.261 -1.1290 -1.6655 -0.2371
  945MOL0     H27520   2.489   4.829   7.361 -0.0453 -0.2457 -0.0390
  945MOL0     H27521   2.559   4.834   7.524 -5.3479  0.0619  0.5468
  945MOL0     H27522   2.613   5.093   7.487 -0.2008  0.3096  0.2590
  945MOL0     H27523   2.514   5.078   7.337 -4.8536  0.2189  0.7421
  945MOL0     H27524   2.413   5.037   7.627 -0.0546  1.1882  0.9118
  945MOL0     H27525   2.330   4.976   7.487 -0.1510  2.5693 -0.2256
  945MOL0     H27526   2.281   5.256   7.696 -1.8686  1.0538  0.2790
  945MOL0     H27527   2.210   5.535   7.666 -1.4437 -2.3125  2.8234
  945MOL0     H27528   2.157   5.572   7.512  0.0065  1.1918  1.7854
  945MOL0     H27529   2.039   5.352   7.693  3.3087  1.6734  2.0969
  945MOL0     H27530   1.978   5.384   7.540  1.9982 -4.3829  0.6541
  945MOL0     H27531   1.936   5.617   7.605  0.8330 -1.2924 -0.4045
  945MOL0     H27532   2.003   5.592   7.771 -0.4104 -2.8515  2.9228
  945MOL0     H27533   1.819   5.418   7.800 -0.7207 -1.0971 -0.2423
  945MOL0     H27534   1.748   5.468   7.642  3.2393 -0.3559 -1.1553
  945MOL0     H27535   1.554   5.785   7.809 -2.3871  0.0300 -1.5843
  945MOL0     H27536   1.188   5.756   7.842  1.3971 -4.3443  3.9301
  945MOL0     H27537   1.320   5.868   7.876 -1.2964 -0.6017  2.6903
  945MOL0     H27538   1.303   5.814   7.713 -0.1202 -0.9673 -0.0994
  945MOL0     H27539   1.014   5.592   8.068  1.4539 -0.2751 -0.6045
  945MOL0     H27540   0.779   5.594   8.110  2.6662  1.3488  0.4242
  945MOL0     H27541   0.550   5.538   8.196 -2.7635 -1.0807  1.0864
  945MOL0     H27542   0.525   5.533   8.026 -1.3060 -0.5386 -1.4236
  945MOL0     H27543   0.391   5.318   8.206  4.2032 -0.2775 -0.5261
  945MOL0     H27544   0.320   5.483   8.167  1.3436  0.6809  0.0503
  945MOL0     H27545   0.426   5.314   7.939 -0.0514 -2.6759  1.7642
  945MOL0     H27546   0.291   5.435   7.953 -3.3661 -2.3907 -0.6418
  945MOL0     H27547   0.217   5.222   7.885  0.3576 -3.0425  0.2311
  945MOL0     H27548   0.276   5.138   8.019 -0.2954 -0.2712 -0.4976
  945MOL0     H27549   0.046   5.329   8.008 -0.5811 -0.7428  0.0263
  945MOL0     H27550   0.124   5.303   8.166 -3.1576 -0.0369  0.0230
  945MOL0     H27551  -0.070   5.149   8.126  1.2544  1.6963  3.6330
  945MOL0     H27552   0.030   5.074   7.988 -0.4612  0.8493 -0.6003
  945MOL0     H27553   0.090   5.100   8.289  2.2233  0.8429  0.4290
  945MOL0     H27554   0.197   5.029   8.170 -0.3478 -0.6213  0.1463
  945MOL0     H27555   0.086   4.843   8.297 -1.3305 -3.6969 -0.8063
  945MOL0     H27556   0.012   4.842   8.139 -0.0473  0.2773 -0.7740
  945MOL0     H27557   0.761   5.184   7.994  1.0181 -0.1978  0.1003
  945MOL0     H27558   0.992   5.176   7.957 -1.9047 -1.8290  3.6541
  945MOL0     H27559   1.386   5.327   7.909 -0.6581  0.2047  3.5034
  945MOL0     H27560   1.636   5.359   7.871 -0.6052 -1.4107 -2.1019
  945MOL0     H27561   3.308   4.672   7.012  2.3029  1.4354 -3.2080
  945MOL0     H27562   3.530   4.631   6.949  0.3002 -1.3193  0.3695
  945MOL0     H27563   4.084   4.867   7.197 -0.4573  0.8177 -0.5950
  945MOL0     H27564   4.314   4.772   7.177 -2.1235  2.2421  1.4931
  945MOL0     H27565   4.490   4.463   6.888  1.2495 -0.3464  0.0496
  945MOL0     H27566   4.414   4.620   6.848  0.7831  2.6421  2.2495
  945MOL0     H27567   4.554   4.707   7.050 -2.2103  0.4586  0.1749
  945MOL0     H27568   4.609   4.715   6.878 -0.2854  0.3523 -0.2895
  945MOL0     H27569   4.716   4.517   6.877  2.8310 -0.3421  1.6028
  945MOL0     H27570   4.676   4.478   7.044  1.6081 -1.0706  0.1764
  945MOL0     H27571   4.817   4.729   6.964  1.0536 -1.6823 -3.1103
  945MOL0     H27572   4.911   4.587   7.020  1.1852  2.5924  0.7869
  945MOL0     H27573   4.752   4.792   7.370  2.0152 -0.1338  0.5828
  945MOL0     H27574   4.165   4.456   6.922 -0.0826 -0.9844  1.0514
  945MOL0     H27575   3.940   4.536   6.949 -1.1326 -1.5933  3.9226
  946MOL0     O27576   7.965   5.911  11.199 -0.2351 -0.1719 -0.0269
  946MOL0     C27577   7.992   5.801  11.250  0.2032 -0.1688 -0.2947
  946MOL0     O27578   7.903   5.717  11.315 -0.3750 -0.0702 -0.1872
  946MOL0     C27579   7.773   5.746  11.308  0.0590 -0.4459 -0.0880
  946MOL0     C27580   7.697   5.798  11.416  0.1823 -0.0298  1.0197
  946MOL0     C27581   7.557   5.809  11.400 -0.2200  0.2055  0.0622
  946MOL0     C27582   7.489   5.785  11.281 -1.5434 -0.5622  1.2531
  946MOL0     O27583   7.352   5.791  11.271  0.2470 -0.0055 -0.0618
  946MOL0     C27584   7.282   5.763  11.396 -0.0173 -0.9779 -0.2606
  946MOL0     C27585   7.132   5.730  11.371 -0.4177  0.4336 -0.4235
  946MOL0     C27586   7.044   5.723  11.504  0.4861  0.5677  0.3999
  946MOL0     C27587   7.069   5.598  11.593 -0.1729  0.2516 -0.4338
  946MOL0     C27588   6.985   5.594  11.720 -0.0526 -0.0112 -0.1092
  946MOL0     C27589   6.942   5.446  11.771 -0.8186  0.0523 -0.2535
  946MOL0     C27590   6.912   5.451  11.918 -0.0837  0.6510 -0.1742
  946MOL0     C27591   6.804   5.359  11.975 -0.1592  0.3099  0.0747
  946MOL0     N27592   6.829   5.213  11.949 -1.2372 -0.2120  0.4440
  946MOL0     C27593   6.932   5.135  11.996 -0.2463 -0.2995  0.0122
  946MOL0     C27594   6.892   5.014  11.954  0.7142  0.3022  0.3466
  946MOL0     C27595   6.956   4.889  11.996  0.1050  0.5367 -0.0088
  946MOL0     C27596   6.970   4.874  12.148  0.5921 -0.4276  0.3801
  946MOL0     C27597   6.838   4.835  12.205 -0.1671  0.0200 -0.0397
  946MOL0     C27598   6.842   4.826  12.359  0.1315 -0.2922 -0.0542
  946MOL0     O27599   6.713   4.782  12.415 -0.7567 -0.3090  0.1554
  946MOL0     C27600   6.629   4.869  12.485  0.0772 -0.7135  0.4043
  946MOL0     C27601   6.674   4.969  12.572  0.8413  0.3178 -0.9903
  946MOL0     C27602   6.580   5.050  12.632 -0.0196 -0.0182 -0.8113
  946MOL0     C27603   6.634   5.161  12.724 -0.4920  0.3449  0.2173
  946MOL0     C27604   6.440   5.039  12.607  0.4354 -0.6745 -0.1908
  946MOL0     C27605   6.324   5.125  12.661 -0.2436  0.4085 -0.3860
  946MOL0     O27606   6.350   5.227  12.751 -0.0943  0.3954 -0.0056
  946MOL0     C27607   6.259   5.313  12.806  1.1192 -0.0963  0.6740
  946MOL0     C27608   6.283   5.358  12.937  0.3574  0.8428  0.5871
  946MOL0     C27609   6.198   5.442  13.000  0.3549 -0.3403 -0.6180
  946MOL0     C27610   6.078   5.481  12.939 -0.7034 -0.6155 -0.6031
  946MOL0     O27611   5.991   5.563  13.006  0.5296  0.1537 -0.1843
  946MOL0     C27612   5.913   5.660  12.931 -0.5587 -0.2900  0.1630
  946MOL0     C27613   5.863   5.775  13.022  0.4224  0.2167  0.2742
  946MOL0     C27614   5.781   5.698  13.132 -0.0661  0.0543  0.2249
  946MOL0     C27615   5.686   5.800  13.208  0.0983 -0.4963 -0.5316
  946MOL0     C27616   5.621   5.740  13.334  0.3589 -0.1159 -0.9306
  946MOL0     C27617   5.509   5.833  13.378  0.1009 -0.1364 -0.2054
  946MOL0     C27618   5.446   5.785  13.508 -0.2776 -0.1624 -0.0341
  946MOL0     C27619   5.315   5.852  13.558 -0.3197  0.3810  0.6914
  946MOL0    Cl27620   5.264   5.775  13.709  0.1810 -0.0135 -0.2291
  946MOL0     C27621   6.055   5.436  12.808 -0.5844  0.0377 -0.4634
  946MOL0     C27622   6.148   5.360  12.737  0.1165 -0.6927  0.0498
  946MOL0     O27623   6.215   5.097  12.613 -0.5848 -0.6772  0.1773
  946MOL0     C27624   6.402   4.924  12.528 -0.1443 -0.0869 -0.4517
  946MOL0     C27625   6.494   4.839  12.471  0.0582 -1.4676  0.3807
  946MOL0     N27626   6.771   5.019  11.904  0.2046  0.0218  0.4783
  946MOL0     N27627   6.737   5.138  11.891 -0.7196 -0.5012  0.5821
  946MOL0     C27628   7.567   5.747  11.169  0.0571 -0.7694 -0.9558
  946MOL0     C27629   7.706   5.728  11.183 -0.7162 -0.1788  0.7429
  946MOL0     C27630   8.136   5.750  11.231  1.5419  0.1135  0.6944
  946MOL0     C27631   8.174   5.628  11.299  0.5157 -0.4818 -0.0221
  946MOL0     C27632   8.306   5.583  11.291 -0.1181 -0.5134 -0.2074
  946MOL0     C27633   8.402   5.662  11.215  0.6370 -0.4154  1.0313
  946MOL0     O27634   8.535   5.641  11.205  0.2749 -0.4402 -0.1705
  946MOL0     C27635   8.604   5.554  11.298 -0.3644 -0.1131  0.1050
  946MOL0     C27636   8.627   5.406  11.240  0.4419 -1.7617 -0.1118
  946MOL0     C27637   8.712   5.327  11.324  0.5166  0.1516  0.4903
  946MOL0     C27638   8.859   5.319  11.270  0.0548  0.2058 -0.3397
  946MOL0     C27639   8.927   5.199  11.322  0.5433 -0.5106 -0.4217
  946MOL0     C27640   8.991   5.099  11.343 -0.5293  0.3139 -0.4710
  946MOL0     C27641   8.361   5.779  11.145 -0.2673  0.2895 -0.3306
  946MOL0     C27642   8.224   5.817  11.153 -0.1823 -0.3321  0.5474
  946MOL0     H27643   7.756   5.812  11.506 -0.1490 -1.0113  1.3965
  946MOL0     H27644   7.506   5.829  11.494 -0.3307 -0.0313  0.0532
  946MOL0     H27645   7.328   5.685  11.458  2.0728  0.5881  0.3192
  946MOL0     H27646   7.280   5.858  11.451  2.1282 -0.1200 -1.5463
  946MOL0     H27647   7.101   5.814  11.308 -0.7600  0.5906 -0.0436
  946MOL0     H27648   7.118   5.640  11.311  2.2987 -0.8631  0.7018
  946MOL0     H27649   7.050   5.818  11.558  0.3684 -0.2259  1.8342
  946MOL0     H27650   6.940   5.717  11.471 -0.0384  0.9674  1.8990
  946MOL0     H27651   7.042   5.509  11.535 -3.2660  1.8358 -1.6291
  946MOL0     H27652   7.174   5.593  11.621 -0.9128  0.8857  2.9197
  946MOL0     H27653   7.045   5.640  11.800 -1.0914 -0.6190  1.0586
  946MOL0     H27654   6.891   5.650  11.712 -1.0834 -1.4039  1.4343
  946MOL0     H27655   6.857   5.411  11.712  1.2845  0.8391 -4.0934
  946MOL0     H27656   7.020   5.372  11.751 -0.6606  0.0788  0.2591
  946MOL0     H27657   7.001   5.431  11.978  0.1679 -0.4701 -0.8858
  946MOL0     H27658   6.871   5.551  11.934 -1.4220  0.0127  0.6452
  946MOL0     H27659   6.708   5.395  11.937 -1.0870 -2.9990 -1.0135
  946MOL0     H27660   6.805   5.375  12.083  1.3192 -2.9785  0.6534
  946MOL0     H27661   7.017   5.154  12.060 -0.5131  3.0597 -0.4538
  946MOL0     H27662   6.889   4.814  11.951 -0.3426  0.0364  1.4282
  946MOL0     H27663   7.056   4.870  11.956  0.1754 -1.4013  0.9482
  946MOL0     H27664   7.007   4.969  12.188 -2.6151  0.2125  2.1715
  946MOL0     H27665   7.041   4.792  12.164  2.3022  1.1274  1.2767
  946MOL0     H27666   6.808   4.740  12.161  1.8662 -0.8558  0.3626
  946MOL0     H27667   6.759   4.906  12.178 -1.4276 -1.7287 -1.1350
  946MOL0     H27668   6.874   4.920  12.407 -0.8063 -0.5497  1.1285
  946MOL0     H27669   6.920   4.753  12.380 -0.4892 -0.7445  0.7145
  946MOL0     H27670   6.779   4.984  12.592  0.3590  0.0209  2.3716
  946MOL0     H27671   6.743   5.153  12.736 -0.6084  0.9924  2.0046
  946MOL0     H27672   6.601   5.256  12.681 -1.9572 -0.1971  0.0921
  946MOL0     H27673   6.589   5.155  12.824 -0.1855  0.2697  0.3523
  946MOL0     H27674   6.371   5.309  12.978  0.0880 -0.0030  0.1933
  946MOL0     H27675   6.219   5.490  13.095 -3.8198  2.6000 -0.9324
  946MOL0     H27676   5.980   5.702  12.855  1.9941  0.3997  2.6269
  946MOL0     H27677   5.835   5.607  12.876  0.6372 -0.6704 -1.2256
  946MOL0     H27678   5.946   5.831  13.068  1.6207  0.0706 -1.6278
  946MOL0     H27679   5.791   5.842  12.974 -0.4389 -1.7579 -1.2856
  946MOL0     H27680   5.853   5.660  13.205  0.4203  2.7444  1.2688
  946MOL0     H27681   5.724   5.616  13.089 -0.3165  0.3448 -0.0046
  946MOL0     H27682   5.747   5.889  13.228  1.4033 -1.6280  0.7421
  946MOL0     H27683   5.598   5.829  13.150  0.8745  4.5024  0.2572
  946MOL0     H27684   5.696   5.722  13.412 -2.3866 -2.8651  1.3448
  946MOL0     H27685   5.575   5.642  13.320 -2.3212  1.0516 -0.8790
  946MOL0     H27686   5.553   5.932  13.393  0.4452 -0.5311  1.5704
  946MOL0     H27687   5.435   5.833  13.298 -0.9479 -0.8301  0.7280
  946MOL0     H27688   5.519   5.805  13.587  2.0760  2.3776 -2.5939
  946MOL0     H27689   5.433   5.680  13.483 -1.4454  0.3522 -1.7942
  946MOL0     H27690   5.237   5.847  13.482 -0.6979  0.0014  1.0978
  946MOL0     H27691   5.337   5.959  13.567  0.1486  0.2477  1.1272
  946MOL0     H27692   5.968   5.475  12.756 -0.7256  2.0048  1.1215
  946MOL0     H27693   6.120   5.339  12.635 -1.1920  3.0146 -0.5318
  946MOL0     H27694   6.299   4.894  12.519 -0.2654  0.7994 -2.5950
  946MOL0     H27695   6.464   4.751  12.416 -2.6343 -1.8140  2.1950
  946MOL0     H27696   7.510   5.727  11.079 -1.8003 -2.3690  0.4713
  946MOL0     H27697   7.765   5.681  11.106  0.6219 -2.6958  3.1302
  946MOL0     H27698   8.104   5.567  11.356  2.0639 -1.6666  0.6857
  946MOL0     H27699   8.338   5.488  11.331 -1.0055 -0.9005 -0.3781
  946MOL0     H27700   8.703   5.595  11.321 -0.0526  1.2384 -3.1125
  946MOL0     H27701   8.552   5.559  11.395 -1.2286 -0.7322 -0.3151
  946MOL0     H27702   8.673   5.422  11.142 -2.2702  0.9492 -1.1163
  946MOL0     H27703   8.529   5.359  11.222  0.4342 -1.9481  0.3873
  946MOL0     H27704   8.662   5.230  11.322  1.0582 -0.1322  0.9082
  946MOL0     H27705   8.706   5.364  11.426 -1.0560  2.2625 -0.2741
  946MOL0     H27706   8.904   5.416  11.294  0.4472  0.8148 -3.1823
  946MOL0     H27707   8.854   5.298  11.163 -0.1221 -0.2748 -0.2403
  946MOL0     H27708   9.045   5.011  11.373 -2.6285 -0.0931  2.4477
  946MOL0     H27709   8.426   5.844  11.087  1.4183  0.7974  1.9787
  946MOL0     H27710   8.206   5.906  11.094  1.9465  0.5399  1.1200
  947MOL0     O27711   8.059   0.949   2.218 -0.2413  0.4416 -0.4268
  947MOL0     C27712   8.149   0.977   2.142 -0.4533  0.4871 -0.5127
  947MOL0     O27713   8.136   1.005   2.008 -0.3010 -0.7357 -0.3372
  947MOL0     C27714   8.009   1.010   1.958  0.5130 -0.1693 -0.4847
  947MOL0     C27715   7.952   0.879   1.921 -0.9312  0.2731  0.6180
  947MOL0     C27716   7.821   0.870   1.870  0.3727 -0.5271  0.3576
  947MOL0     C27717   7.745   0.985   1.876  0.6850 -0.1435 -0.0856
  947MOL0     O27718   7.604   0.975   1.846 -0.4201 -0.0519  0.2396
  947MOL0     C27719   7.575   0.897   1.729  0.1909 -0.1726  0.5836
  947MOL0     C27720   7.440   0.942   1.650 -0.5841  0.4727 -0.3619
  947MOL0     C27721   7.316   0.874   1.701  0.2540  0.8222  0.0716
  947MOL0     C27722   7.240   0.945   1.811  0.3824 -0.1654  0.5899
  947MOL0     C27723   7.107   0.882   1.845  0.0419 -0.6762 -0.0318
  947MOL0     C27724   7.047   0.962   1.961  0.4300  0.4676 -0.0574
  947MOL0     C27725   6.890   0.935   1.958 -0.5916 -0.4076 -0.3005
  947MOL0     C27726   6.837   1.018   2.077  0.0554 -0.1004  0.8398
  947MOL0     N27727   6.693   1.032   2.070 -0.1326  0.2415  0.0307
  947MOL0     C27728   6.605   0.952   2.137  0.1735  0.0690 -0.0211
  947MOL0     C27729   6.485   1.000   2.116  0.3529 -0.3998  0.3766
  947MOL0     C27730   6.344   0.972   2.182  0.0447  0.0353  0.1004
  947MOL0     C27731   6.324   1.030   2.318  0.1188  0.2769  0.0726
  947MOL0     C27732   6.206   0.969   2.390  0.9233  0.1243  0.7565
  947MOL0     C27733   6.210   1.000   2.539  0.8226 -0.4942  0.5224
  947MOL0     O27734   6.101   0.943   2.609  0.2941 -0.5773 -0.2711
  947MOL0     C27735   5.979   1.003   2.592 -0.0549  0.6912  0.1464
  947MOL0     C27736   5.959   1.134   2.546 -0.3249 -0.2530 -0.5389
  947MOL0     C27737   5.830   1.194   2.531 -0.2092 -0.7734  0.5690
  947MOL0     C27738   5.831   1.333   2.477  0.5031 -0.1409 -0.3688
  947MOL0     C27739   5.713   1.119   2.569  0.2850  0.0033 -0.2052
  947MOL0     C27740   5.573   1.165   2.551 -0.2422  0.5941 -0.1147
  947MOL0     O27741   5.476   1.068   2.537 -0.0508 -0.3394  0.3765
  947MOL0     C27742   5.354   1.101   2.578  0.7123  0.1910 -0.1909
  947MOL0     C27743   5.297   1.048   2.692 -0.3848 -0.3900  0.0192
  947MOL0     C27744   5.169   1.079   2.735 -0.1917 -0.3254  0.2120
  947MOL0     C27745   5.096   1.173   2.668 -0.1119  0.3141 -0.7486
  947MOL0     O27746   4.966   1.218   2.704 -0.2903 -0.2838  0.2969
  947MOL0     C27747   4.925   1.190   2.836 -0.0047  0.9762  0.3156
  947MOL0     C27748   4.808   1.281   2.876  0.3677 -0.2985 -0.6990
  947MOL0     C27749   4.688   1.260   2.781 -0.2913  0.6845  0.5445
  947MOL0     C27750   4.563   1.331   2.833  0.5608  0.1625  0.2647
  947MOL0     C27751   4.434   1.299   2.741 -1.1369  0.0648 -0.5430
  947MOL0     C27752   4.315   1.348   2.819  0.0553  0.4563 -0.4891
  947MOL0     C27753   4.191   1.324   2.738  0.4513 -0.9107  0.0283
  947MOL0     C27754   4.124   1.188   2.752  0.1590  0.0516  0.1694
  947MOL0    Cl27755   3.968   1.171   2.653  0.2502 -0.3030 -0.0003
  947MOL0     C27756   5.147   1.228   2.550 -0.0782  0.7984  1.0969
  947MOL0     C27757   5.269   1.184   2.503 -1.3401 -0.2616  0.4234
  947MOL0     O27758   5.548   1.282   2.570 -0.7475 -0.3022 -0.7287
  947MOL0     C27759   5.736   0.992   2.632 -0.5033 -0.7262  0.6253
  947MOL0     C27760   5.865   0.942   2.637 -0.1882 -0.4695  0.9954
  947MOL0     N27761   6.501   1.115   2.032  0.1779 -0.1631  0.8010
  947MOL0     N27762   6.626   1.140   2.014  0.1882  0.4777 -0.3771
  947MOL0     C27763   7.796   1.118   1.907 -0.8934  0.2741 -0.6299
  947MOL0     C27764   7.930   1.126   1.940 -0.0349  0.4982 -0.2432
  947MOL0     C27765   8.285   0.977   2.208  0.2943 -0.1436 -0.0891
  947MOL0     C27766   8.307   0.996   2.347 -0.6178  1.0816 -0.1741
  947MOL0     C27767   8.440   1.016   2.390  1.1874 -0.7296  0.2388
  947MOL0     C27768   8.553   1.021   2.307 -0.4675  0.4087  0.2938
  947MOL0     O27769   8.677   1.034   2.371  0.3715 -0.1414  0.7693
  947MOL0     C27770   8.804   1.020   2.301  0.7633  0.3622  0.5783
  947MOL0     C27771   8.837   1.181   2.262  0.0739  0.7506 -0.5950
  947MOL0     C27772   8.873   1.269   2.387 -0.3833  0.2326  0.3597
  947MOL0     C27773   8.887   1.408   2.345 -0.1402 -0.9762  0.1405
  947MOL0     C27774   8.765   1.467   2.294  0.3253  0.2246  0.8154
  947MOL0     C27775   8.657   1.515   2.260  0.0679  0.2450  0.4336
  947MOL0     C27776   8.528   1.004   2.177 -0.9151  0.2072  0.3131
  947MOL0     C27777   8.403   0.983   2.118  0.2728  0.4059 -0.1430
  947MOL0     H27778   8.028   0.801   1.920 -0.4552  0.7274 -0.8875
  947MOL0     H27779   7.797   0.766   1.848  2.2743 -1.1719  1.1259
  947MOL0     H27780   7.654   0.922   1.658 -0.5187 -1.4161 -0.6936
  947MOL0     H27781   7.563   0.793   1.760 -4.0361  0.2308  0.8958
  947MOL0     H27782   7.426   1.051   1.652 -0.0321  0.5722 -1.4920
  947MOL0     H27783   7.466   0.910   1.549 -0.3051 -2.7673  0.6329
  947MOL0     H27784   7.252   0.858   1.613 -0.2263 -1.4566  0.7571
  947MOL0     H27785   7.343   0.770   1.719  1.9898  0.7681 -2.3193
  947MOL0     H27786   7.303   0.951   1.900 -1.2811  2.0046  1.7205
  947MOL0     H27787   7.223   1.046   1.775  1.5218  1.0045  3.0724
  947MOL0     H27788   7.039   0.884   1.760 -2.3530 -1.8533  1.7191
  947MOL0     H27789   7.124   0.776   1.865  0.5289 -1.0620 -2.2465
  947MOL0     H27790   7.094   0.938   2.057  5.7676  1.2897 -2.1128
  947MOL0     H27791   7.064   1.067   1.937 -0.4737  0.3464 -1.3510
  947MOL0     H27792   6.864   0.979   1.861  1.5559 -1.0150 -1.1906
  947MOL0     H27793   6.865   0.830   1.973 -0.9484 -0.4101 -0.8903
  947MOL0     H27794   6.892   1.112   2.082  0.5133 -0.3822  1.2395
  947MOL0     H27795   6.870   0.961   2.165 -0.8816  0.0867  1.3280
  947MOL0     H27796   6.632   0.867   2.199  0.0943 -0.0404 -0.1370
  947MOL0     H27797   6.257   0.993   2.119 -0.2649 -0.7554  0.2488
  947MOL0     H27798   6.325   0.864   2.192 -2.7488  0.6244  2.8889
  947MOL0     H27799   6.292   1.134   2.306  1.0346  0.6046  0.4224
  947MOL0     H27800   6.416   1.022   2.376 -0.7955 -0.0517  1.5045
  947MOL0     H27801   6.222   0.861   2.388  0.3923  0.0395  1.0116
  947MOL0     H27802   6.108   0.991   2.347  0.0318 -1.2447  2.0144
  947MOL0     H27803   6.226   1.105   2.566 -1.6457 -0.4077  1.8752
  947MOL0     H27804   6.295   0.943   2.578  1.6005  1.2733  1.5636
  947MOL0     H27805   6.049   1.189   2.521  0.1925  0.4721  2.5278
  947MOL0     H27806   5.786   1.394   2.556  4.5947  2.0833  0.5468
  947MOL0     H27807   5.932   1.361   2.446 -0.2836  1.2668 -1.8187
  947MOL0     H27808   5.766   1.337   2.389 -0.9899 -3.9292  0.3858
  947MOL0     H27809   5.350   0.974   2.751  0.0399 -2.5627 -2.8568
  947MOL0     H27810   5.139   1.023   2.823 -1.1515  0.5830  0.4804
  947MOL0     H27811   4.898   1.084   2.847 -2.4021  1.5976  1.1609
  947MOL0     H27812   5.011   1.201   2.903 -0.4590 -0.7069  1.2291
  947MOL0     H27813   4.771   1.258   2.976  0.5650  1.6708 -0.1241
  947MOL0     H27814   4.847   1.383   2.874  2.1512 -0.9358 -2.8020
  947MOL0     H27815   4.668   1.154   2.770  1.7506  0.5035 -2.6915
  947MOL0     H27816   4.719   1.290   2.681  2.1894  0.6573  1.2180
  947MOL0     H27817   4.539   1.307   2.937  1.6140 -1.2923  0.2001
  947MOL0     H27818   4.576   1.439   2.831 -0.2547  0.2644 -0.7804
  947MOL0     H27819   4.437   1.191   2.722  1.3246 -0.1417  0.6519
  947MOL0     H27820   4.435   1.355   2.647 -1.3374  1.9491  0.5296
  947MOL0     H27821   4.294   1.306   2.918 -0.5012  1.4317 -0.1795
  947MOL0     H27822   4.339   1.454   2.835  4.1560 -0.4793  0.5367
  947MOL0     H27823   4.211   1.363   2.638 -0.4811 -2.1681 -0.6732
  947MOL0     H27824   4.120   1.395   2.781  2.3963  0.0085  1.9431
  947MOL0     H27825   4.099   1.173   2.857 -2.2342  0.9736 -0.1864
  947MOL0     H27826   4.193   1.108   2.726  0.0594 -0.1061  0.3870
  947MOL0     H27827   5.086   1.296   2.492 -1.8075 -0.7254  1.0424
  947MOL0     H27828   5.316   1.218   2.412 -1.2313  2.0511  1.2703
  947MOL0     H27829   5.650   0.938   2.670 -0.8738  0.8579  2.1660
  947MOL0     H27830   5.873   0.839   2.670 -2.0121 -0.5769  1.2520
  947MOL0     H27831   7.746   1.210   1.877 -2.2956 -0.5808 -0.9923
  947MOL0     H27832   7.979   1.219   1.967 -1.6148  1.0611  0.7728
  947MOL0     H27833   8.229   0.980   2.421  1.7891  0.4774  2.4109
  947MOL0     H27834   8.458   1.019   2.497 -1.1665  2.1919  0.6699
  947MOL0     H27835   8.883   0.970   2.359 -0.6923 -0.6520  1.7608
  947MOL0     H27836   8.789   0.959   2.211  1.3137  0.0100  0.7234
  947MOL0     H27837   8.753   1.217   2.202 -0.8649  0.9590  0.8100
  947MOL0     H27838   8.926   1.191   2.198  0.9249  0.3571  0.4980
  947MOL0     H27839   8.971   1.236   2.424 -1.4112 -2.4149  0.8943
  947MOL0     H27840   8.798   1.260   2.465 -0.4354  0.1173  0.2956
  947MOL0     H27841   8.956   1.409   2.261 -1.2050  0.3678 -0.7773
  947MOL0     H27842   8.927   1.469   2.427  1.6519 -1.5743 -0.2498
  947MOL0     H27843   8.559   1.540   2.224 -0.6389 -1.1826  1.2984
  947MOL0     H27844   8.611   0.999   2.107  0.3080  2.6381  1.4728
  947MOL0     H27845   8.383   0.984   2.011 -4.3429 -1.1546  0.4794
  948MOL0     O27846   8.229   0.716   7.493 -0.2230  0.2936 -0.8162
  948MOL0     C27847   8.288   0.763   7.589 -0.4087  0.1764  0.0941
  948MOL0     O27848   8.239   0.819   7.697  0.5632  0.0329 -0.5565
  948MOL0     C27849   8.106   0.827   7.726 -1.0136 -0.5013 -0.8170
  948MOL0     C27850   8.003   0.743   7.671 -0.2833 -0.2569  0.3093
  948MOL0     C27851   7.866   0.779   7.681 -0.3006  1.1903 -0.2280
  948MOL0     C27852   7.829   0.880   7.767 -0.2380  0.2160  0.0573
  948MOL0     O27853   7.699   0.926   7.791 -0.0333  0.1371  0.0311
  948MOL0     C27854   7.593   0.872   7.712 -0.5420 -1.0306 -0.7298
  948MOL0     C27855   7.481   0.978   7.714  1.1034 -0.5711 -0.3191
  948MOL0     C27856   7.348   0.929   7.648 -0.2547  0.3780  0.4224
  948MOL0     C27857   7.236   1.036   7.629 -0.6845 -0.3900  0.1928
  948MOL0     C27858   7.095   0.984   7.604  0.4265  0.4033 -0.1348
  948MOL0     C27859   7.027   0.923   7.729  0.3238  0.3223  1.1091
  948MOL0     C27860   6.894   0.858   7.689 -0.1345 -0.1009  0.1496
  948MOL0     C27861   6.784   0.955   7.652  0.1182  0.2777 -0.2650
  948MOL0     N27862   6.665   0.866   7.621 -0.8124  0.2655  0.1513
  948MOL0     C27863   6.594   0.799   7.714 -0.1339  0.0704 -0.9403
  948MOL0     C27864   6.521   0.715   7.640  0.2718 -0.2874 -0.0472
  948MOL0     C27865   6.412   0.624   7.702 -0.4073 -0.1227  0.0539
  948MOL0     C27866   6.275   0.681   7.657  0.3397  0.3313 -0.0112
  948MOL0     C27867   6.170   0.589   7.724 -0.3956 -1.1593  0.3301
  948MOL0     C27868   6.032   0.633   7.685  0.1983 -0.1183 -0.4217
  948MOL0     O27869   5.972   0.723   7.780 -0.4519  0.2038 -0.2876
  948MOL0     C27870   5.839   0.727   7.764  0.2138 -0.5738  0.1166
  948MOL0     C27871   5.782   0.736   7.638  0.2648  0.5749 -0.2980
  948MOL0     C27872   5.643   0.752   7.624  1.1554  0.3165 -0.3444
  948MOL0     C27873   5.587   0.760   7.487  0.7871  0.1740 -0.7206
  948MOL0     C27874   5.558   0.752   7.742  0.0971 -0.0212  0.4500
  948MOL0     C27875   5.415   0.775   7.738 -0.4331  0.6736  0.3902
  948MOL0     O27876   5.377   0.844   7.845  0.1551 -0.2170  0.2963
  948MOL0     C27877   5.248   0.896   7.861  0.0473 -0.4594  0.7909
  948MOL0     C27878   5.136   0.862   7.791  0.3844  0.0048 -0.1254
  948MOL0     C27879   5.013   0.919   7.821 -0.7191 -0.5480 -0.7438
  948MOL0     C27880   5.003   1.025   7.912  0.0568 -1.6754 -0.2180
  948MOL0     O27881   4.883   1.077   7.939  0.5845 -0.1429 -0.3726
  948MOL0     C27882   4.862   1.188   8.030 -0.6091 -0.0372  0.1240
  948MOL0     C27883   4.722   1.239   8.044  0.2713 -0.5141  1.1718
  948MOL0     C27884   4.628   1.129   8.093 -0.0908 -0.0075 -0.6291
  948MOL0     C27885   4.480   1.179   8.101 -0.3242  0.2888 -0.4581
  948MOL0     C27886   4.384   1.056   8.135 -0.9254 -0.3403  0.3925
  948MOL0     C27887   4.241   1.087   8.182  0.0414 -0.4333  0.0444
  948MOL0     C27888   4.158   1.182   8.103 -0.3083 -0.5125  0.0350
  948MOL0     C27889   4.020   1.201   8.170 -1.1929 -0.8310  0.2689
  948MOL0    Cl27890   4.044   1.276   8.326 -0.1286 -0.1657 -0.0031
  948MOL0     C27891   5.123   1.072   7.962 -0.3898 -0.3722 -0.1774
  948MOL0     C27892   5.242   1.009   7.932 -0.4817 -0.1810  0.2293
  948MOL0     O27893   5.340   0.734   7.652  0.0731  0.5086  0.5276
  948MOL0     C27894   5.623   0.741   7.867  0.3732  0.0671  0.0551
  948MOL0     C27895   5.756   0.727   7.872  0.7030 -0.3169  0.1615
  948MOL0     N27896   6.557   0.715   7.505 -0.1966  0.7308 -0.7436
  948MOL0     N27897   6.651   0.805   7.503  0.9742 -0.9587  0.6850
  948MOL0     C27898   7.929   0.956   7.835  0.6069 -0.2005  0.1672
  948MOL0     C27899   8.064   0.934   7.807 -0.4090 -0.6431 -0.2337
  948MOL0     C27900   8.438   0.752   7.585  0.1377  0.3162 -0.3079
  948MOL0     C27901   8.501   0.686   7.477 -0.1483  0.2938  0.7757
  948MOL0     C27902   8.638   0.696   7.452  0.3548 -0.3718  0.4577
  948MOL0     C27903   8.722   0.757   7.549  0.0214  0.5263 -0.8971
  948MOL0     O27904   8.856   0.767   7.555 -0.0278  0.0330 -0.5362
  948MOL0     C27905   8.926   0.713   7.448 -0.0680 -0.0432  0.3826
  948MOL0     C27906   9.081   0.719   7.473  0.9408  0.1606 -0.1167
  948MOL0     C27907   9.167   0.647   7.364 -0.4501  0.0639 -0.3957
  948MOL0     C27908   9.312   0.694   7.346 -0.2647 -0.4055 -0.1079
  948MOL0     C27909   9.396   0.616   7.437 -0.0308  0.5762  0.5710
  948MOL0     C27910   9.476   0.544   7.499  0.0500 -0.2210  1.1362
  948MOL0     C27911   8.654   0.818   7.661 -0.0680 -0.2632  0.3549
  948MOL0     C27912   8.517   0.819   7.680  0.6717 -0.4496  0.2812
  948MOL0     H27913   8.020   0.655   7.610 -0.0899  0.6108 -0.9103
  948MOL0     H27914   7.801   0.710   7.629  2.6432 -3.0811  1.1593
  948MOL0     H27915   7.631   0.870   7.609 -0.7795  1.1613 -0.8943
  948MOL0     H27916   7.570   0.770   7.747 -0.2014 -1.2497 -1.1324
  948MOL0     H27917   7.440   0.984   7.815  1.8420  0.0203 -0.0479
  948MOL0     H27918   7.505   1.077   7.674  1.0063  0.9234  2.9670
  948MOL0     H27919   7.377   0.899   7.547 -0.7895 -1.2017  0.7203
  948MOL0     H27920   7.316   0.844   7.709  0.8815  1.0252  1.9989
  948MOL0     H27921   7.233   1.105   7.713  2.3103 -0.8427  0.8073
  948MOL0     H27922   7.272   1.096   7.545  1.7511 -1.3877  0.4398
  948MOL0     H27923   7.035   1.067   7.565 -2.1719 -1.0827  0.4213
  948MOL0     H27924   7.097   0.910   7.523 -0.0768  0.1299  0.0954
  948MOL0     H27925   7.080   0.836   7.770 -2.8789 -2.6489 -0.4876
  948MOL0     H27926   7.008   0.995   7.809  2.3679  2.6175 -0.3244
  948MOL0     H27927   6.920   0.803   7.598  0.3299  1.3058 -0.6103
  948MOL0     H27928   6.863   0.797   7.774  2.2163 -0.0595  1.1358
  948MOL0     H27929   6.803   1.021   7.567  0.4881 -1.0509 -1.2427
  948MOL0     H27930   6.765   1.028   7.732 -0.0685  2.3595 -2.0981
  948MOL0     H27931   6.578   0.817   7.820  1.2532 -1.4813 -0.4233
  948MOL0     H27932   6.415   0.518   7.675  0.0106 -0.4041  1.1481
  948MOL0     H27933   6.421   0.620   7.811 -0.9159  1.1570  0.1629
  948MOL0     H27934   6.276   0.678   7.548  0.0179  0.7934 -0.0280
  948MOL0     H27935   6.264   0.786   7.685  0.5752  0.5219 -0.6207
  948MOL0     H27936   6.185   0.581   7.832 -1.2806 -1.9767  0.4121
  948MOL0     H27937   6.181   0.485   7.693 -1.6929 -1.4529  0.7748
  948MOL0     H27938   5.976   0.541   7.663  0.4491 -0.0880 -1.2400
  948MOL0     H27939   6.025   0.691   7.592 -0.4544 -0.9675 -0.9188
  948MOL0     H27940   5.838   0.732   7.545  0.4079 -0.2976 -0.1823
  948MOL0     H27941   5.481   0.741   7.464  0.6426  0.7686 -0.5673
  948MOL0     H27942   5.603   0.865   7.461 -1.6889  0.4343 -1.5186
  948MOL0     H27943   5.643   0.693   7.422  0.5838 -0.5601 -0.1522
  948MOL0     H27944   5.132   0.781   7.719  1.9599 -3.3584  3.2267
  948MOL0     H27945   4.922   0.889   7.769 -2.6160  0.3429  1.8607
  948MOL0     H27946   4.898   1.157   8.128 -0.7174  0.4674  0.3287
  948MOL0     H27947   4.923   1.276   8.008  0.1520 -0.1125  1.8216
  948MOL0     H27948   4.721   1.331   8.104  0.3520  0.1014  0.2622
  948MOL0     H27949   4.685   1.259   7.943  0.5379  0.1455  1.1977
  948MOL0     H27950   4.657   1.101   8.194 -0.5219  0.1147 -0.4662
  948MOL0     H27951   4.632   1.040   8.030  1.9371  0.3543 -1.0720
  948MOL0     H27952   4.463   1.252   8.180  0.1806 -1.0725  0.9652
  948MOL0     H27953   4.441   1.222   8.008 -0.8924  2.7078  0.8474
  948MOL0     H27954   4.429   0.988   8.207 -2.5916  1.2112  3.0364
  948MOL0     H27955   4.374   1.001   8.041 -1.7160 -1.2866  1.0249
  948MOL0     H27956   4.191   0.990   8.182 -2.3382  0.6618 -2.4492
  948MOL0     H27957   4.260   1.131   8.280 -1.1200  2.3371 -0.8633
  948MOL0     H27958   4.141   1.135   8.006 -1.4507 -0.1581  0.0429
  948MOL0     H27959   4.217   1.273   8.089  0.8946 -0.8671  2.3835
  948MOL0     H27960   3.971   1.104   8.181 -0.9052 -0.9778  0.2734
  948MOL0     H27961   3.961   1.265   8.104 -1.1222 -1.5328 -0.4950
  948MOL0     H27962   5.114   1.150   8.037 -2.9073 -2.8494  2.3101
  948MOL0     H27963   5.338   1.031   7.978 -0.2120 -0.8553  0.0060
  948MOL0     H27964   5.559   0.759   7.953 -1.7802 -2.3230 -0.9117
  948MOL0     H27965   5.811   0.719   7.966  3.5593 -2.3187 -1.5209
  948MOL0     H27966   7.905   1.033   7.907  1.2696 -1.0523  1.3169
  948MOL0     H27967   8.135   1.001   7.855  2.9942 -2.4316 -2.3726
  948MOL0     H27968   8.434   0.641   7.403 -1.5997  0.5959  1.8583
  948MOL0     H27969   8.680   0.643   7.368 -1.6559  0.0082 -0.8728
  948MOL0     H27970   8.897   0.608   7.437 -0.7823  0.3613 -2.2436
  948MOL0     H27971   8.902   0.773   7.360  2.0481  2.4042  1.3202
  948MOL0     H27972   9.092   0.674   7.572 -2.1683 -0.2544  0.1280
  948MOL0     H27973   9.105   0.826   7.474 -0.9574  0.6121  0.5570
  948MOL0     H27974   9.117   0.665   7.268  1.7995  1.0605 -1.4737
  948MOL0     H27975   9.174   0.539   7.373 -2.6023 -0.2613 -1.8998
  948MOL0     H27976   9.319   0.802   7.358  2.4551 -0.7347  2.2137
  948MOL0     H27977   9.345   0.660   7.247 -2.1720 -0.8910 -0.6312
  948MOL0     H27978   9.547   0.490   7.558 -0.3692  0.7036  2.5631
  948MOL0     H27979   8.709   0.869   7.740 -0.2703 -1.0294  0.9968
  948MOL0     H27980   8.473   0.872   7.763 -1.6704 -1.4714 -0.2376
  949MOL0     O27981   1.863   3.689   0.787 -0.3400  0.4900 -0.1914
  949MOL0     C27982   1.961   3.647   0.860 -0.7134  0.2748  0.6206
  949MOL0     O27983   2.092   3.699   0.858 -0.3364  0.0938  0.0434
  949MOL0     C27984   2.132   3.793   0.762  0.0821  0.0604  0.4441
  949MOL0     C27985   2.112   3.932   0.789 -0.4543 -0.2031  0.4927
  949MOL0     C27986   2.166   4.018   0.696 -0.3689 -0.5105 -0.1161
  949MOL0     C27987   2.241   3.983   0.584  0.0759 -0.6202  0.2316
  949MOL0     O27988   2.284   4.078   0.500  0.3612 -0.0621 -0.2377
  949MOL0     C27989   2.398   4.064   0.410 -0.1928  1.0558  0.0848
  949MOL0     C27990   2.466   4.195   0.409 -0.7544  0.7792 -0.3986
  949MOL0     C27991   2.569   4.226   0.522  0.3834 -0.7786  1.0807
  949MOL0     C27992   2.647   4.355   0.497  0.6903 -0.0359 -0.4095
  949MOL0     C27993   2.753   4.379   0.594 -0.9461 -1.1932  0.0626
  949MOL0     C27994   2.837   4.492   0.535 -0.0744 -0.7093  0.0692
  949MOL0     C27995   2.928   4.554   0.645  0.1120 -0.9474 -0.1076
  949MOL0     C27996   3.018   4.664   0.565  0.9613  0.1719  0.0239
  949MOL0     N27997   3.081   4.753   0.672  0.3708 -0.2098 -0.3230
  949MOL0     C27998   3.209   4.744   0.720  0.5999 -0.4387 -0.2682
  949MOL0     C27999   3.221   4.853   0.806 -0.1450  0.3075  0.3531
  949MOL0     C28000   3.343   4.908   0.880 -0.6093  0.1099 -0.3715
  949MOL0     C28001   3.411   5.028   0.829 -0.5620 -0.4069 -0.0059
  949MOL0     C28002   3.539   4.996   0.750  0.1403  0.1179 -0.1840
  949MOL0     C28003   3.617   5.127   0.743 -0.0228 -0.0922 -0.4601
  949MOL0     O28004   3.748   5.113   0.685 -0.4033  0.0929 -0.3445
  949MOL0     C28005   3.829   5.221   0.657  0.5009 -0.1298  0.1859
  949MOL0     C28006   3.802   5.356   0.695  0.6444  0.5294 -0.2691
  949MOL0     C28007   3.891   5.465   0.653  0.2633  0.1673 -0.4487
  949MOL0     C28008   3.847   5.605   0.699 -0.0928 -0.0292  0.7205
  949MOL0     C28009   4.001   5.436   0.568 -0.3370  0.0397  0.2112
  949MOL0     C28010   4.103   5.535   0.514  0.2617 -0.1742  0.8763
  949MOL0     O28011   4.066   5.664   0.523 -0.6499  0.1006 -0.3788
  949MOL0     C28012   4.160   5.748   0.468  0.4986 -0.3251 -0.1313
  949MOL0     C28013   4.183   5.740   0.336 -0.2446 -0.5964  0.1732
  949MOL0     C28014   4.270   5.822   0.266  0.5969  0.3367 -0.3335
  949MOL0     C28015   4.334   5.921   0.344 -0.5870  0.2876 -0.1682
  949MOL0     O28016   4.427   6.000   0.277 -0.2898  0.2061 -1.0269
  949MOL0     C28017   4.504   6.091   0.359 -0.0191 -0.3391  0.7412
  949MOL0     C28018   4.620   6.127   0.266 -0.1963 -0.5064 -0.3203
  949MOL0     C28019   4.579   6.178   0.135 -0.0106 -0.1725 -0.1110
  949MOL0     C28020   4.540   6.329   0.141  0.7322  0.5069  1.0373
  949MOL0     C28021   4.506   6.392   0.005 -0.3525  0.0340 -0.7741
  949MOL0     C28022   4.361   6.357  -0.040  0.7191  0.0891  0.0821
  949MOL0     C28023   4.355   6.403  -0.186  0.4807  0.1840  0.3962
  949MOL0     C28024   4.239   6.324  -0.252 -0.8922 -0.3977  0.3791
  949MOL0    Cl28025   4.170   6.393  -0.400 -0.4069  0.2873  0.1979
  949MOL0     C28026   4.319   5.930   0.480  0.2942 -0.3704 -0.0569
  949MOL0     C28027   4.233   5.845   0.539 -0.7584  0.1815 -1.7700
  949MOL0     O28028   4.216   5.496   0.482 -0.5001  0.3603  0.1779
  949MOL0     C28029   4.018   5.300   0.531 -0.5780  0.2306 -0.0013
  949MOL0     C28030   3.935   5.191   0.583 -0.3582  0.2373 -0.8508
  949MOL0     N28031   3.107   4.934   0.788  0.8661  0.2688  0.7903
  949MOL0     N28032   3.024   4.870   0.708 -0.6627 -0.1584  0.1210
  949MOL0     C28033   2.247   3.847   0.551 -0.3250 -0.2934 -1.3493
  949MOL0     C28034   2.195   3.750   0.645 -0.9627  0.4343 -0.1167
  949MOL0     C28035   1.939   3.534   0.948 -1.0426  0.4384 -0.5487
  949MOL0     C28036   2.038   3.458   1.012 -0.2978  0.6378  0.2282
  949MOL0     C28037   2.017   3.354   1.093 -0.2228 -0.3457  0.3704
  949MOL0     C28038   1.889   3.300   1.104  0.2288 -0.5208 -0.5936
  949MOL0     O28039   1.851   3.184   1.166 -0.3403  0.1375 -0.6295
  949MOL0     C28040   1.952   3.084   1.200 -0.6897 -0.0610 -0.3441
  949MOL0     C28041   1.880   2.951   1.230  1.1179  0.1197 -0.8090
  949MOL0     C28042   1.981   2.861   1.308 -0.2684 -0.3289  0.3145
  949MOL0     C28043   1.999   2.891   1.452 -0.0451  0.0278  0.3001
  949MOL0     C28044   2.078   2.794   1.525  0.9850 -0.6249 -0.2526
  949MOL0     C28045   2.154   2.718   1.582  1.0548 -0.5141 -0.0988
  949MOL0     C28046   1.783   3.377   1.057  0.1088  0.1337 -0.6904
  949MOL0     C28047   1.807   3.491   0.978 -0.2001 -0.0498 -0.1467
  949MOL0     H28048   2.058   3.982   0.869  0.1728  0.7243  0.3506
  949MOL0     H28049   2.156   4.125   0.712  2.5229 -0.3332  1.0250
  949MOL0     H28050   2.461   3.980   0.437  1.0043  1.3640 -1.6183
  949MOL0     H28051   2.354   4.041   0.313 -0.1734 -0.8507  0.5030
  949MOL0     H28052   2.517   4.191   0.312 -2.1439  0.8142 -1.1687
  949MOL0     H28053   2.393   4.276   0.399 -0.1819  1.6094  1.7206
  949MOL0     H28054   2.526   4.229   0.622 -2.1267 -1.1204  0.0886
  949MOL0     H28055   2.644   4.147   0.512 -0.5918 -1.5711 -0.3098
  949MOL0     H28056   2.696   4.345   0.400 -1.2699  0.4845 -1.5227
  949MOL0     H28057   2.582   4.443   0.490  0.2832 -0.0229  2.5742
  949MOL0     H28058   2.710   4.424   0.685 -0.6553 -0.9747  0.0923
  949MOL0     H28059   2.813   4.290   0.612 -1.5113 -1.2394  1.9689
  949MOL0     H28060   2.904   4.446   0.462 -2.5390  0.1855 -2.9923
  949MOL0     H28061   2.781   4.571   0.485 -3.1268 -1.5262  1.9141
  949MOL0     H28062   2.859   4.595   0.719  1.5604  0.5482  0.4941
  949MOL0     H28063   2.990   4.478   0.692  2.4102 -0.8311 -2.6719
  949MOL0     H28064   2.951   4.719   0.499 -1.2291 -4.8944 -2.5543
  949MOL0     H28065   3.098   4.613   0.511  0.2190 -0.6531 -0.3224
  949MOL0     H28066   3.287   4.680   0.682 -1.8400 -4.2816  0.6781
  949MOL0     H28067   3.299   4.936   0.977  0.3794 -0.7419  0.3446
  949MOL0     H28068   3.413   4.826   0.897  0.9590  0.7944 -3.0370
  949MOL0     H28069   3.432   5.099   0.910 -1.0686  0.7213 -0.8266
  949MOL0     H28070   3.345   5.077   0.757 -0.1754  1.2604  0.7053
  949MOL0     H28071   3.515   4.961   0.649  0.9137 -1.4464  0.1529
  949MOL0     H28072   3.601   4.916   0.789 -0.4213 -0.2241  0.0250
  949MOL0     H28073   3.622   5.161   0.846  0.5183 -2.8357  0.5156
  949MOL0     H28074   3.553   5.196   0.688 -1.6550  1.6483  3.3132
  949MOL0     H28075   3.715   5.385   0.752 -1.0517 -1.3137 -1.7762
  949MOL0     H28076   3.818   5.657   0.607  1.1299 -1.8899 -0.7806
  949MOL0     H28077   3.764   5.597   0.770  0.1943  2.0130  1.3508
  949MOL0     H28078   3.930   5.655   0.749  0.7077  1.1792 -1.6631
  949MOL0     H28079   4.132   5.666   0.275 -1.4809 -0.0325  0.4902
  949MOL0     H28080   4.277   5.796   0.161  3.1754 -1.1817  0.1206
  949MOL0     H28081   4.442   6.172   0.398  0.0143 -0.5382  1.2154
  949MOL0     H28082   4.549   6.038   0.443  2.8234  1.3015  0.3923
  949MOL0     H28083   4.692   6.195   0.314  0.9500 -1.3497 -0.7867
  949MOL0     H28084   4.678   6.037   0.242 -0.5031 -0.6939 -0.3681
  949MOL0     H28085   4.499   6.118   0.090  1.4779  0.2668 -3.6964
  949MOL0     H28086   4.673   6.180   0.078  0.4769  0.8098  0.6873
  949MOL0     H28087   4.458   6.349   0.211  0.7950 -0.3211  1.3602
  949MOL0     H28088   4.633   6.377   0.172  0.1023  1.7507  1.0218
  949MOL0     H28089   4.576   6.356  -0.071  0.2007  0.1370 -0.3140
  949MOL0     H28090   4.513   6.501   0.009 -2.2672  0.1637  0.5514
  949MOL0     H28091   4.342   6.250  -0.027  2.3976 -0.1401  0.8983
  949MOL0     H28092   4.294   6.425   0.014  1.6961  1.4092 -0.3255
  949MOL0     H28093   4.434   6.372  -0.255 -0.1300 -2.6232  0.8458
  949MOL0     H28094   4.346   6.512  -0.190  2.5724  0.3843  0.2432
  949MOL0     H28095   4.158   6.307  -0.180 -0.5889 -2.9832  0.1791
  949MOL0     H28096   4.271   6.221  -0.269  2.3346  0.4392  0.7268
  949MOL0     H28097   4.354   6.019   0.531 -1.1865  0.5967 -0.6608
  949MOL0     H28098   4.230   5.840   0.648  2.8793  0.2737 -1.5463
  949MOL0     H28099   4.105   5.276   0.472 -0.5564 -0.5802  0.3382
  949MOL0     H28100   3.962   5.093   0.546 -0.3225  1.6838 -5.2470
  949MOL0     H28101   2.296   3.802   0.466  0.4582 -0.5472 -0.7783
  949MOL0     H28102   2.199   3.645   0.617 -1.3122  0.4159 -0.1085
  949MOL0     H28103   2.141   3.489   0.995 -0.5323  0.4891 -1.7913
  949MOL0     H28104   2.108   3.316   1.140  0.6306  0.6736 -0.4112
  949MOL0     H28105   2.018   3.064   1.115 -0.4737 -0.5320 -0.0668
  949MOL0     H28106   1.999   3.123   1.291 -3.6721 -1.3388  1.9047
  949MOL0     H28107   1.841   2.912   1.135  0.3888 -3.0914  0.6783
  949MOL0     H28108   1.792   2.968   1.292  1.0114 -1.8533 -0.3513
  949MOL0     H28109   2.075   2.853   1.253  0.4855 -0.6105  1.6241
  949MOL0     H28110   1.932   2.763   1.313 -1.0490  0.1099  1.5982
  949MOL0     H28111   1.896   2.904   1.487 -0.6987 -0.6509 -1.2871
  949MOL0     H28112   2.051   2.985   1.466  4.6328 -1.9890 -1.5105
  949MOL0     H28113   2.208   2.645   1.639 -1.1856 -1.7379  0.5608
  949MOL0     H28114   1.681   3.343   1.076  0.8537 -1.0910  1.5446
  949MOL0     H28115   1.719   3.552   0.958 -1.2684 -1.7943 -0.9782
  950MOL0     O28116   7.435  10.366   5.853  0.1604 -0.3061 -0.9810
  950MOL0     C28117   7.510  10.310   5.770 -0.1900 -0.4267 -1.0168
  950MOL0     O28118   7.468  10.216   5.682 -0.5905 -0.3161  0.5919
  950MOL0     C28119   7.338  10.174   5.669 -0.4248  0.1438  1.0020
  950MOL0     C28120   7.233  10.262   5.647 -0.4118 -0.8329  1.0463
  950MOL0     C28121   7.100  10.220   5.634 -0.1446  0.4796  0.0593
  950MOL0     C28122   7.073  10.083   5.631 -0.1432 -0.9436 -0.1703
  950MOL0     O28123   6.952  10.035   5.602  0.7755 -0.3537 -0.6988
  950MOL0     C28124   6.909   9.910   5.659  1.2593  0.3133  0.4134
  950MOL0     C28125   6.775   9.860   5.610  0.2719  0.3534 -0.1680
  950MOL0     C28126   6.662   9.934   5.672  0.0414 -0.4973  1.0008
  950MOL0     C28127   6.536   9.852   5.659  0.7903 -0.2644 -0.0060
  950MOL0     C28128   6.406   9.910   5.729  0.5090 -0.4706 -1.1897
  950MOL0     C28129   6.277   9.841   5.716  0.1699  0.8631 -0.3908
  950MOL0     C28130   6.148   9.913   5.763 -0.0444 -0.4787 -0.4960
  950MOL0     C28131   6.025   9.826   5.772 -0.5018 -0.1607 -0.4813
  950MOL0     N28132   5.924   9.846   5.660  0.8181 -0.1868  0.0522
  950MOL0     C28133   5.839   9.955   5.651  0.0251 -0.2379 -0.3283
  950MOL0     C28134   5.794   9.958   5.521  0.0740 -0.0489  0.3481
  950MOL0     C28135   5.701  10.055   5.454  0.0373  0.2331 -0.2417
  950MOL0     C28136   5.570  10.051   5.537  0.2087  0.2996  0.2569
  950MOL0     C28137   5.503   9.916   5.534 -0.6721 -0.5888 -0.0489
  950MOL0     C28138   5.359   9.920   5.582 -0.0276  0.2987  0.4251
  950MOL0     O28139   5.262   9.998   5.505  0.3194  0.4489  0.0986
  950MOL0     C28140   5.182   9.937   5.412  0.7758 -0.0464 -0.7490
  950MOL0     C28141   5.043   9.957   5.436 -0.1918  0.1138 -0.7811
  950MOL0     C28142   4.951   9.924   5.337  0.2511 -0.4437  0.3118
  950MOL0     C28143   4.801   9.943   5.379 -0.6868 -1.5184 -0.4334
  950MOL0     C28144   4.989   9.849   5.219  0.3850 -0.1400  0.5251
  950MOL0     C28145   4.890   9.798   5.122 -0.3613  0.3485  0.1199
  950MOL0     O28146   4.758   9.837   5.114 -0.2691  0.2294 -1.1437
  950MOL0     C28147   4.673   9.761   5.044  0.5860  0.1551 -0.1563
  950MOL0     C28148   4.654   9.791   4.905  0.2687  0.9038 -0.0589
  950MOL0     C28149   4.542   9.722   4.837  0.6974  0.6265 -0.3430
  950MOL0     C28150   4.451   9.643   4.908 -0.6807  0.0639  0.9893
  950MOL0     O28151   4.338   9.587   4.850  0.0382 -0.7179 -0.3721
  950MOL0     C28152   4.238   9.670   4.790 -0.3020  0.3702 -0.6172
  950MOL0     C28153   4.098   9.598   4.804 -0.0377  0.2051 -0.1480
  950MOL0     C28154   3.983   9.663   4.719 -0.0411  0.2137  0.3197
  950MOL0     C28155   3.848   9.604   4.748  0.3118 -0.2545 -0.6531
  950MOL0     C28156   3.736   9.658   4.659 -0.4952 -0.5778 -0.2224
  950MOL0     C28157   3.603   9.594   4.683 -0.1115  0.8309  0.3516
  950MOL0     C28158   3.605   9.442   4.684 -0.1392 -1.1845  0.2792
  950MOL0     C28159   3.458   9.389   4.675 -0.7218 -0.0774 -0.3309
  950MOL0    Cl28160   3.350   9.437   4.799 -0.1570  0.6317 -0.1451
  950MOL0     C28161   4.476   9.621   5.045  0.4570 -0.1125 -0.3545
  950MOL0     C28162   4.585   9.674   5.110 -0.0471 -0.9195 -0.3348
  950MOL0     O28163   4.941   9.717   5.039  0.2131  0.0728  0.0625
  950MOL0     C28164   5.126   9.820   5.205 -0.3592  0.2388 -0.7088
  950MOL0     C28165   5.219   9.868   5.300  0.5171  0.3593  0.2379
  950MOL0     N28166   5.845   9.842   5.466  0.1412 -0.6261 -0.0664
  950MOL0     N28167   5.917   9.775   5.545 -0.2350 -0.8306 -0.7487
  950MOL0     C28168   7.182   9.989   5.653 -0.1418 -0.4295 -1.2091
  950MOL0     C28169   7.314  10.039   5.672 -0.7839  1.0965 -0.9385
  950MOL0     C28170   7.650  10.356   5.752 -0.3188  0.5845 -0.5572
  950MOL0     C28171   7.748  10.271   5.695  0.4234  0.1640 -0.6800
  950MOL0     C28172   7.882  10.313   5.678 -0.1510 -0.5569  0.2156
  950MOL0     C28173   7.927  10.437   5.707 -0.0907 -0.2842 -0.3701
  950MOL0     O28174   8.060  10.474   5.677 -0.1489 -0.1547 -0.6118
  950MOL0     C28175   8.107  10.592   5.740 -0.1823 -0.6487  0.0119
  950MOL0     C28176   8.255  10.616   5.702 -0.0740  0.0294  0.1830
  950MOL0     C28177   8.295  10.760   5.722  0.4823  0.4629 -0.0073
  950MOL0     C28178   8.423  10.795   5.650 -0.3028 -0.4426  0.1433
  950MOL0     C28179   8.411  10.781   5.508 -0.5786  0.2234 -0.0168
  950MOL0     C28180   8.402  10.771   5.390  0.0365  0.3070  0.0838
  950MOL0     C28181   7.833  10.513   5.774  0.1760  0.0539 -0.1208
  950MOL0     C28182   7.697  10.477   5.791 -0.2919 -0.4716  0.1875
  950MOL0     H28183   7.242  10.370   5.643 -3.3593 -0.5167  1.0976
  950MOL0     H28184   7.016  10.287   5.622 -1.2919 -0.5870  1.7536
  950MOL0     H28185   6.972   9.832   5.615  1.2647  1.2128 -1.2674
  950MOL0     H28186   6.904   9.902   5.768  0.9321 -0.5009  0.3447
  950MOL0     H28187   6.765   9.879   5.503  2.4433  3.0704 -0.0052
  950MOL0     H28188   6.771   9.752   5.626 -1.8888  0.4720  0.4275
  950MOL0     H28189   6.684   9.961   5.776 -0.3352  0.7831  0.7621
  950MOL0     H28190   6.659  10.027   5.614  1.3013 -1.2943 -0.4144
  950MOL0     H28191   6.511   9.852   5.552  2.7128  0.1815 -0.4935
  950MOL0     H28192   6.556   9.751   5.697  0.7838 -0.5391 -0.7073
  950MOL0     H28193   6.425   9.931   5.835 -3.0401 -0.3232 -0.4479
  950MOL0     H28194   6.404  10.010   5.685 -0.4277  1.0763  2.0278
  950MOL0     H28195   6.258   9.811   5.612 -0.0814 -1.4068  0.2554
  950MOL0     H28196   6.281   9.745   5.769  0.2104  0.6097 -0.8438
  950MOL0     H28197   6.173   9.948   5.863 -0.0990 -4.2624  0.9921
  950MOL0     H28198   6.120   9.994   5.695 -1.3896 -2.0916 -1.9558
  950MOL0     H28199   5.980   9.858   5.867  0.7949  0.3596 -0.0142
  950MOL0     H28200   6.047   9.719   5.768  0.5427  0.0768 -2.7455
  950MOL0     H28201   5.821  10.029   5.728 -2.5604 -2.1845  1.0740
  950MOL0     H28202   5.733  10.157   5.477 -0.8995  0.3640  0.5918
  950MOL0     H28203   5.686  10.040   5.347  1.3006  1.8079 -0.6652
  950MOL0     H28204   5.498  10.125   5.503 -0.8288 -0.4842  0.7064
  950MOL0     H28205   5.588  10.074   5.642 -1.0749  1.1208  0.3129
  950MOL0     H28206   5.559   9.855   5.606  0.9249  1.4383  0.5390
  950MOL0     H28207   5.510   9.875   5.432 -1.2890  0.1334 -0.3877
  950MOL0     H28208   5.357   9.940   5.689  0.4159 -0.2780  0.5489
  950MOL0     H28209   5.319   9.819   5.567 -2.3820  0.9264  2.0522
  950MOL0     H28210   5.003  10.004   5.525 -3.4255 -2.0957 -0.8955
  950MOL0     H28211   4.794   9.986   5.479 -1.2722 -3.3971  0.3889
  950MOL0     H28212   4.744  10.003   5.308 -1.4600 -0.2180  1.2167
  950MOL0     H28213   4.746   9.848   5.372 -2.7938 -0.4999  1.1654
  950MOL0     H28214   4.722   9.851   4.846  0.9724 -1.6886 -2.0685
  950MOL0     H28215   4.522   9.740   4.732  1.4451  1.3008 -0.3775
  950MOL0     H28216   4.234   9.771   4.833 -2.3739  0.2663 -0.4590
  950MOL0     H28217   4.261   9.673   4.683 -1.5753  1.1217 -0.8943
  950MOL0     H28218   4.100   9.495   4.768  0.5944  0.2939 -0.3918
  950MOL0     H28219   4.075   9.585   4.910 -0.7490  0.9097 -0.2078
  950MOL0     H28220   4.002   9.644   4.613  0.0514  1.2446  0.1460
  950MOL0     H28221   3.983   9.771   4.734 -0.4616  0.5883 -1.9655
  950MOL0     H28222   3.853   9.495   4.745 -1.5933 -0.4945  1.8645
  950MOL0     H28223   3.815   9.635   4.847 -3.7849 -0.3092 -1.8380
  950MOL0     H28224   3.758   9.633   4.554 -2.5519 -1.2370 -0.5514
  950MOL0     H28225   3.721   9.763   4.685 -3.6944 -0.8758 -0.3874
  950MOL0     H28226   3.550   9.621   4.775 -0.4314  1.0309  0.1108
  950MOL0     H28227   3.542   9.623   4.597 -0.8879 -2.5615 -0.3967
  950MOL0     H28228   3.656   9.388   4.765  1.7780 -3.5752 -2.3193
  950MOL0     H28229   3.664   9.419   4.595 -0.6239  3.0912 -1.3579
  950MOL0     H28230   3.459   9.280   4.675 -2.3797 -0.1069 -1.0720
  950MOL0     H28231   3.416   9.429   4.583 -0.1371  0.0298 -0.5561
  950MOL0     H28232   4.412   9.556   5.103  0.5996 -0.9782 -1.1469
  950MOL0     H28233   4.601   9.661   5.216 -0.8602  0.4115 -0.0179
  950MOL0     H28234   5.163   9.766   5.118 -1.3387 -0.5958 -0.6291
  950MOL0     H28235   5.322   9.845   5.273 -0.2918  0.2968 -3.3455
  950MOL0     H28236   7.155   9.884   5.657 -0.4211 -0.3217  0.6388
  950MOL0     H28237   7.385   9.957   5.676 -2.6281 -0.5219  0.4253
  950MOL0     H28238   7.720  10.169   5.671  0.0467 -0.0663  0.6416
  950MOL0     H28239   7.963  10.251   5.641 -0.7769 -1.6136  0.5807
  950MOL0     H28240   8.052  10.677   5.698 -0.0776 -1.3989 -1.7463
  950MOL0     H28241   8.101  10.575   5.848  0.5080  2.0655  0.5582
  950MOL0     H28242   8.257  10.582   5.599 -0.0596 -2.3305  0.9032
  950MOL0     H28243   8.324  10.546   5.749  0.9219  1.7240  1.3846
  950MOL0     H28244   8.300  10.803   5.823 -0.1023  2.8969 -0.9355
  950MOL0     H28245   8.219  10.818   5.669  0.1448 -0.5265 -0.6283
  950MOL0     H28246   8.501  10.728   5.688 -0.5044  0.3431  2.0857
  950MOL0     H28247   8.454  10.898   5.669 -0.1503  0.3239 -3.5659
  950MOL0     H28248   8.389  10.760   5.284  2.9559 -1.6125 -0.2108
  950MOL0     H28249   7.850  10.616   5.802 -1.5053  1.0616 -2.5587
  950MOL0     H28250   7.628  10.558   5.817 -0.1607 -0.3106  0.0371
  951MOL0     O28251   7.274   5.791   5.910 -0.1470  0.4867  0.4126
  951MOL0     C28252   7.353   5.835   5.990 -0.5426 -0.3307 -0.3950
  951MOL0     O28253   7.342   5.820   6.129 -0.0189  0.0290  0.3852
  951MOL0     C28254   7.255   5.729   6.173  0.4215  0.1645  0.8007
  951MOL0     C28255   7.225   5.605   6.121 -0.3144  0.3199  0.5707
  951MOL0     C28256   7.133   5.524   6.193 -0.0417  0.6275  0.7803
  951MOL0     C28257   7.059   5.568   6.301 -0.5037  0.3272 -0.5619
  951MOL0     O28258   6.954   5.499   6.356  0.7575  0.1503  0.0507
  951MOL0     C28259   6.912   5.380   6.291  0.1810  0.1366  0.0892
  951MOL0     C28260   6.783   5.336   6.371  0.7027 -0.7203  0.7357
  951MOL0     C28261   6.659   5.407   6.316 -0.4480 -0.2200  0.7228
  951MOL0     C28262   6.532   5.406   6.404 -0.6507 -0.5076 -0.5017
  951MOL0     C28263   6.467   5.263   6.399 -1.3652 -0.1746 -0.2616
  951MOL0     C28264   6.350   5.250   6.497  0.5304  1.2265  0.0445
  951MOL0     C28265   6.302   5.108   6.521 -0.2350  0.2262  0.3082
  951MOL0     C28266   6.209   5.055   6.407  0.2273  0.1543  0.0336
  951MOL0     N28267   6.070   5.098   6.424 -0.2878  1.0330  0.3841
  951MOL0     C28268   5.996   5.080   6.535  0.4868  0.0539  0.3868
  951MOL0     C28269   5.869   5.131   6.501 -0.0937  0.1452 -0.4193
  951MOL0     C28270   5.750   5.140   6.593  0.0853  0.1731 -0.3052
  951MOL0     C28271   5.633   5.056   6.554  0.2306  0.3895 -0.2575
  951MOL0     C28272   5.500   5.096   6.611 -0.2798  1.0019  0.3705
  951MOL0     C28273   5.411   4.976   6.600  0.0836 -0.5088 -0.4065
  951MOL0     O28274   5.285   5.029   6.589 -0.0906  0.0470  0.5379
  951MOL0     C28275   5.181   4.948   6.591 -0.1748 -0.4357 -0.5445
  951MOL0     C28276   5.168   4.813   6.622  0.7005  0.3772  1.5680
  951MOL0     C28277   5.047   4.741   6.634  0.2596  0.4491  0.0613
  951MOL0     C28278   5.048   4.595   6.682 -0.0118 -1.8593  0.2556
  951MOL0     C28279   4.928   4.810   6.593 -1.3099 -0.0476 -0.1951
  951MOL0     C28280   4.792   4.754   6.588 -0.2584  0.0284  0.0315
  951MOL0     O28281   4.693   4.842   6.577 -0.5096 -0.6593 -0.4402
  951MOL0     C28282   4.556   4.810   6.574 -0.2441  0.4471  0.7211
  951MOL0     C28283   4.505   4.684   6.537 -0.2198  0.7869  0.5035
  951MOL0     C28284   4.365   4.658   6.543 -0.9870  0.0454 -0.9437
  951MOL0     C28285   4.278   4.753   6.593  1.2226  0.2325 -0.1466
  951MOL0     O28286   4.138   4.750   6.599  0.2556 -0.1952 -0.3488
  951MOL0     C28287   4.080   4.619   6.602 -0.3056 -0.1286 -0.2943
  951MOL0     C28288   3.926   4.620   6.584 -0.1263 -1.1949 -0.2726
  951MOL0     C28289   3.867   4.491   6.608  0.3402  0.4374 -0.6217
  951MOL0     C28290   3.710   4.484   6.596 -0.0891 -0.5710  0.4708
  951MOL0     C28291   3.663   4.521   6.452  0.1793 -0.1044  1.4891
  951MOL0     C28292   3.528   4.448   6.415 -0.4978 -0.4126 -0.3947
  951MOL0     C28293   3.417   4.486   6.505 -0.5084 -0.3374  0.6889
  951MOL0     C28294   3.295   4.393   6.490 -0.5828  0.1878  0.7886
  951MOL0    Cl28295   3.219   4.408   6.320 -0.2558  0.3696 -0.6074
  951MOL0     C28296   4.326   4.880   6.622  0.1348  0.3734 -0.1659
  951MOL0     C28297   4.466   4.906   6.612 -0.0435  0.1522  0.0392
  951MOL0     O28298   4.781   4.632   6.587  0.3236 -0.1363  0.5364
  951MOL0     C28299   4.940   4.953   6.576  0.3560  0.0885 -0.3619
  951MOL0     C28300   5.065   5.016   6.575  0.0682 -0.0890  0.4401
  951MOL0     N28301   5.881   5.188   6.378 -0.4634 -0.4602  0.3497
  951MOL0     N28302   5.995   5.165   6.327  0.1962 -0.0260  0.8211
  951MOL0     C28303   7.094   5.689   6.352  0.6322  1.5439 -0.8196
  951MOL0     C28304   7.189   5.769   6.291  0.8413  0.1396  0.3125
  951MOL0     C28305   7.457   5.940   5.947  0.0677  0.1380 -0.5248
  951MOL0     C28306   7.578   5.959   6.029 -0.2009 -0.7764  0.0013
  951MOL0     C28307   7.661   6.058   5.988  0.2334 -0.4109  0.3215
  951MOL0     C28308   7.638   6.136   5.869  1.4177 -0.2350 -0.2123
  951MOL0     O28309   7.723   6.240   5.849  0.0982 -0.0089  0.1424
  951MOL0     C28310   7.692   6.344   5.758 -0.5745 -0.2579 -0.1500
  951MOL0     C28311   7.571   6.434   5.791  1.1431 -0.6210 -0.0961
  951MOL0     C28312   7.542   6.544   5.672 -0.3730  0.2344 -0.6210
  951MOL0     C28313   7.508   6.485   5.534 -0.0688  0.0131  0.2121
  951MOL0     C28314   7.408   6.376   5.534  0.4467 -0.3953 -0.3798
  951MOL0     C28315   7.330   6.288   5.511  0.2114  0.2702  0.4143
  951MOL0     C28316   7.525   6.110   5.795  0.1775 -0.1139  0.2262
  951MOL0     C28317   7.434   6.011   5.834  0.1578 -0.3876 -0.1835
  951MOL0     H28318   7.280   5.569   6.035 -1.0626  1.4738 -0.4326
  951MOL0     H28319   7.122   5.423   6.155  1.3220  0.7505  0.0251
  951MOL0     H28320   6.871   5.406   6.192 -3.7638  3.0494  2.2019
  951MOL0     H28321   6.988   5.301   6.294 -0.2909 -0.2841  1.8761
  951MOL0     H28322   6.763   5.229   6.355  0.6310 -0.6507  0.3494
  951MOL0     H28323   6.798   5.354   6.478  1.5048  0.2047  0.4763
  951MOL0     H28324   6.679   5.512   6.292 -2.7801 -0.0511 -0.7592
  951MOL0     H28325   6.638   5.365   6.217  3.6720 -1.9758  0.3682
  951MOL0     H28326   6.540   5.436   6.509 -0.4175 -0.3770 -0.5547
  951MOL0     H28327   6.454   5.464   6.353 -0.3494 -1.0975 -1.6814
  951MOL0     H28328   6.437   5.247   6.295 -0.5545  2.1580 -0.9178
  951MOL0     H28329   6.533   5.180   6.428 -1.4180 -0.9868 -2.3009
  951MOL0     H28330   6.380   5.288   6.596  3.4214 -1.3332  0.3228
  951MOL0     H28331   6.270   5.312   6.457  0.0287  0.9844  0.6556
  951MOL0     H28332   6.392   5.045   6.516  1.3098  2.3063  0.3647
  951MOL0     H28333   6.260   5.098   6.621 -0.1051 -1.1916  0.2404
  951MOL0     H28334   6.228   4.947   6.408  1.9205  0.4120  1.3485
  951MOL0     H28335   6.231   5.086   6.304 -1.6341  2.8892  0.3686
  951MOL0     H28336   6.019   5.045   6.635 -1.1273  2.3609  1.6592
  951MOL0     H28337   5.790   5.103   6.688  1.7203  0.3815 -0.8800
  951MOL0     H28338   5.723   5.246   6.596  1.2539  0.4672  0.5303
  951MOL0     H28339   5.655   4.960   6.601  0.6518  0.2645 -0.6971
  951MOL0     H28340   5.641   5.043   6.445  0.6337  0.7641 -0.2721
  951MOL0     H28341   5.457   5.187   6.568 -2.9445  0.4195  1.5600
  951MOL0     H28342   5.510   5.112   6.719 -2.5671 -1.2253  1.0237
  951MOL0     H28343   5.432   4.921   6.692 -1.6611 -0.9962 -0.2746
  951MOL0     H28344   5.434   4.919   6.509  0.3066 -0.8620 -0.1292
  951MOL0     H28345   5.254   4.757   6.658  0.2362 -1.9055 -0.5854
  951MOL0     H28346   5.010   4.521   6.610  1.3918 -2.6289  0.2712
  951MOL0     H28347   5.151   4.566   6.705 -0.2794 -3.2055 -0.1497
  951MOL0     H28348   4.984   4.586   6.769 -1.9734 -1.6020 -1.0954
  951MOL0     H28349   4.559   4.601   6.491 -2.2031 -0.9330  1.1278
  951MOL0     H28350   4.330   4.561   6.512 -1.2976 -0.3662  0.6164
  951MOL0     H28351   4.113   4.557   6.518 -2.0665 -0.2776 -0.9040
  951MOL0     H28352   4.105   4.565   6.694 -3.0104  1.0306  1.2148
  951MOL0     H28353   3.894   4.686   6.665 -1.4916  0.7177 -2.2599
  951MOL0     H28354   3.897   4.661   6.487  0.2341  1.8942  0.7991
  951MOL0     H28355   3.901   4.449   6.703 -0.8216 -0.9872 -0.8084
  951MOL0     H28356   3.908   4.421   6.534  3.0102  0.5701  0.5949
  951MOL0     H28357   3.681   4.384   6.628 -1.6844  0.5051  2.6029
  951MOL0     H28358   3.656   4.552   6.662 -2.8941 -0.9185 -1.2809
  951MOL0     H28359   3.739   4.501   6.376 -1.6123  0.6665 -0.6068
  951MOL0     H28360   3.652   4.630   6.454  1.3402  0.1320 -0.9475
  951MOL0     H28361   3.506   4.451   6.308  0.1487 -0.7677 -0.5455
  951MOL0     H28362   3.552   4.344   6.442  0.1286 -0.2128 -0.1670
  951MOL0     H28363   3.388   4.591   6.490 -0.6666 -0.4042  0.5167
  951MOL0     H28364   3.447   4.503   6.608  0.7560 -1.9485  0.6126
  951MOL0     H28365   3.220   4.422   6.563 -1.1521 -0.9343  0.6703
  951MOL0     H28366   3.331   4.291   6.509 -1.0355 -0.0350  0.4587
  951MOL0     H28367   4.254   4.957   6.648 -0.7116  1.0021 -3.8389
  951MOL0     H28368   4.505   5.006   6.632 -0.9549  0.4549  0.3632
  951MOL0     H28369   4.858   5.018   6.546  0.1840 -0.0712 -0.2376
  951MOL0     H28370   5.068   5.121   6.548 -0.5060 -0.1683  0.0519
  951MOL0     H28371   7.039   5.719   6.440 -0.1689 -2.5513  0.3079
  951MOL0     H28372   7.210   5.865   6.337  1.1065 -1.0296  2.7785
  951MOL0     H28373   7.599   5.912   6.124  1.9843 -2.0030 -1.0151
  951MOL0     H28374   7.749   6.091   6.042  1.2507 -0.1577 -1.3986
  951MOL0     H28375   7.781   6.407   5.755 -0.0040 -0.8666  1.9724
  951MOL0     H28376   7.667   6.303   5.660 -0.0041 -2.2602  0.4895
  951MOL0     H28377   7.589   6.486   5.885 -1.8820 -2.1784  1.4937
  951MOL0     H28378   7.478   6.378   5.810 -0.0825  1.0691 -0.8105
  951MOL0     H28379   7.625   6.616   5.669  0.9831 -1.1104  1.7001
  951MOL0     H28380   7.453   6.601   5.701 -1.2230 -1.4072  0.0915
  951MOL0     H28381   7.605   6.447   5.502 -0.3847 -2.4426  1.9380
  951MOL0     H28382   7.484   6.567   5.466  1.3230 -0.7761 -1.3134
  951MOL0     H28383   7.263   6.207   5.493  0.4584  0.2403 -0.4399
  951MOL0     H28384   7.503   6.158   5.700  1.4071 -0.0302 -0.0334
  951MOL0     H28385   7.350   5.997   5.767 -1.2592 -2.1591  1.8453
  952MOL0     O28386   8.122   8.905   0.520 -0.4909 -0.3826 -0.0379
  952MOL0     C28387   8.119   9.033   0.502 -0.8744  0.2531 -0.2885
  952MOL0     O28388   8.053   9.128   0.581  0.1754  0.1988  0.2226
  952MOL0     C28389   8.003   9.073   0.697  0.9972  0.0339  0.8007
  952MOL0     C28390   7.865   9.048   0.705 -0.5133  0.7213  0.0651
  952MOL0     C28391   7.810   8.986   0.816 -0.6102  0.0743 -0.9327
  952MOL0     C28392   7.891   8.956   0.925  0.2881  0.6901 -0.6465
  952MOL0     O28393   7.823   8.913   1.035  0.0751 -1.0452  0.1044
  952MOL0     C28394   7.892   8.862   1.153  0.0779  0.0472  0.6573
  952MOL0     C28395   7.932   8.709   1.133  0.1423 -0.3643 -0.2301
  952MOL0     C28396   7.811   8.625   1.101  0.2073  0.1665  0.9228
  952MOL0     C28397   7.832   8.474   1.125 -0.1683 -0.1518 -0.3039
  952MOL0     C28398   7.829   8.442   1.272 -0.7405  0.4679  0.5454
  952MOL0     C28399   7.689   8.461   1.335  0.0854 -0.3860  0.5557
  952MOL0     C28400   7.636   8.354   1.437 -0.7343 -0.4045 -0.1898
  952MOL0     C28401   7.581   8.230   1.366  0.0169  0.4230  0.9348
  952MOL0     N28402   7.491   8.156   1.455 -0.8970 -0.3322 -0.6088
  952MOL0     C28403   7.372   8.192   1.509  0.1500  0.0356 -1.1356
  952MOL0     C28404   7.327   8.085   1.577 -0.0788 -0.3074  0.3412
  952MOL0     C28405   7.210   8.087   1.669 -0.1735  0.5042 -0.5827
  952MOL0     C28406   7.104   7.991   1.621  0.2260  0.4541 -0.2627
  952MOL0     C28407   6.990   7.992   1.724 -0.2009 -0.0714 -0.6790
  952MOL0     C28408   6.878   7.898   1.699 -0.2371 -0.4740 -0.6061
  952MOL0     O28409   6.831   7.931   1.566 -0.3658  0.5367  0.4025
  952MOL0     C28410   6.704   7.900   1.533 -0.3180  0.4781  0.0250
  952MOL0     C28411   6.597   7.893   1.620 -0.2441  0.5579 -1.3259
  952MOL0     C28412   6.460   7.869   1.579  0.0857  0.4219 -0.0981
  952MOL0     C28413   6.355   7.886   1.684  0.8256  0.5569 -0.4278
  952MOL0     C28414   6.435   7.848   1.438 -0.8959  0.1786 -0.1784
  952MOL0     C28415   6.302   7.830   1.386  0.9725  0.9870  0.0678
  952MOL0     O28416   6.293   7.875   1.257  0.4149  0.2315 -0.6077
  952MOL0     C28417   6.175   7.877   1.194 -0.0519 -0.0943 -0.3361
  952MOL0     C28418   6.077   7.775   1.185 -0.0723 -0.7875 -0.2777
  952MOL0     C28419   5.955   7.792   1.120  0.7271 -1.0395 -0.2898
  952MOL0     C28420   5.923   7.923   1.067 -0.5364 -0.0316 -0.2973
  952MOL0     O28421   5.814   7.929   0.983 -0.6062  0.1950 -0.9040
  952MOL0     C28422   5.789   8.051   0.905 -0.5366 -0.7603 -0.1748
  952MOL0     C28423   5.687   8.037   0.796 -0.3954  0.0822 -0.0269
  952MOL0     C28424   5.553   8.003   0.853 -0.5207 -0.4646  0.2868
  952MOL0     C28425   5.521   7.862   0.815  0.0702 -0.0341 -0.2680
  952MOL0     C28426   5.469   7.849   0.674 -1.1060 -0.3832  0.0230
  952MOL0     C28427   5.403   7.712   0.659  0.4714 -0.1141  0.6111
  952MOL0     C28428   5.370   7.678   0.515  0.8850 -0.1416  0.3387
  952MOL0     C28429   5.494   7.667   0.430  1.0352  0.3024  0.4276
  952MOL0    Cl28430   5.455   7.583   0.275 -0.3080  0.0645  0.3218
  952MOL0     C28431   6.018   8.031   1.089 -0.3013  0.5294  0.4013
  952MOL0     C28432   6.138   8.000   1.152 -0.2186 -0.0765  0.6631
  952MOL0     O28433   6.215   7.762   1.444  0.1670 -0.4398 -0.5082
  952MOL0     C28434   6.549   7.854   1.348  0.5626  0.1256 -0.0183
  952MOL0     C28435   6.678   7.884   1.398  0.6629 -0.3843  0.6697
  952MOL0     N28436   7.412   7.984   1.574  0.6247  0.6621  0.4980
  952MOL0     N28437   7.500   8.023   1.484  0.2704 -0.1281 -0.3860
  952MOL0     C28438   8.033   8.975   0.917  0.6109  0.1290 -1.1126
  952MOL0     C28439   8.080   9.035   0.802 -0.6406  0.2885 -0.1034
  952MOL0     C28440   8.216   9.092   0.405 -0.2287 -0.5886 -0.1362
  952MOL0     C28441   8.312   9.009   0.338 -0.4965  0.8560 -0.7197
  952MOL0     C28442   8.420   9.071   0.272  0.6421 -0.5577 -0.8564
  952MOL0     C28443   8.428   9.210   0.254  0.2838 -0.2733  0.1777
  952MOL0     O28444   8.531   9.281   0.186  0.2952  0.7944  0.1960
  952MOL0     C28445   8.645   9.206   0.145  0.2695  0.4959  0.6128
  952MOL0     C28446   8.728   9.299   0.059 -0.2015 -0.2346 -0.4383
  952MOL0     C28447   8.881   9.269   0.063  0.3703 -0.8594 -0.0924
  952MOL0     C28448   8.961   9.355  -0.040 -0.9659 -0.1501 -0.2186
  952MOL0     C28449   9.083   9.280  -0.057 -0.4290 -1.3116 -0.5988
  952MOL0     C28450   9.188   9.214  -0.050  0.6902  0.4914 -0.5568
  952MOL0     C28451   8.328   9.289   0.311 -0.3157 -0.1115  0.7527
  952MOL0     C28452   8.224   9.233   0.385  0.3265  0.3843  0.4081
  952MOL0     H28453   7.811   9.087   0.619 -1.1214  0.1631  0.1924
  952MOL0     H28454   7.707   8.961   0.839 -0.1218  0.7101  2.3080
  952MOL0     H28455   7.982   8.920   1.175 -1.1663  2.6389 -0.6393
  952MOL0     H28456   7.831   8.879   1.242  1.7515  2.2333  1.4749
  952MOL0     H28457   8.002   8.699   1.049 -0.4816  0.8776 -0.9217
  952MOL0     H28458   7.991   8.664   1.214  0.6083 -1.4074 -1.1173
  952MOL0     H28459   7.727   8.667   1.157  0.4103  3.7574 -1.1456
  952MOL0     H28460   7.777   8.652   1.000  1.9427  0.5577  0.4175
  952MOL0     H28461   7.745   8.421   1.085 -1.2351  0.8109  0.6633
  952MOL0     H28462   7.927   8.442   1.081 -0.4675 -0.4541 -0.7359
  952MOL0     H28463   7.868   8.341   1.287  1.4808  1.0550 -0.9230
  952MOL0     H28464   7.902   8.502   1.327 -2.2550  2.4725  0.4857
  952MOL0     H28465   7.696   8.561   1.379 -0.3873 -0.3177  0.4776
  952MOL0     H28466   7.623   8.472   1.248 -0.2436  3.3425  1.0973
  952MOL0     H28467   7.711   8.324   1.510 -0.6324 -2.3565 -1.0501
  952MOL0     H28468   7.554   8.403   1.491  0.7017  0.9363  0.8872
  952MOL0     H28469   7.655   8.156   1.333 -0.7532  0.7483 -1.7992
  952MOL0     H28470   7.525   8.268   1.280  0.5942  0.0488  0.3825
  952MOL0     H28471   7.325   8.290   1.507 -2.0764 -0.9123  0.6546
  952MOL0     H28472   7.244   8.057   1.769  1.2379 -0.6036 -1.3459
  952MOL0     H28473   7.183   8.190   1.691  1.6088  0.5373  1.8299
  952MOL0     H28474   7.146   7.891   1.603 -0.2688  0.6414 -3.0085
  952MOL0     H28475   7.061   8.028   1.527  1.5050  0.7298 -0.7717
  952MOL0     H28476   6.955   8.095   1.734  1.5648  0.5239 -0.1959
  952MOL0     H28477   7.032   7.968   1.822 -0.7836  1.2301 -0.0848
  952MOL0     H28478   6.799   7.909   1.774 -0.5896 -1.3122 -0.8433
  952MOL0     H28479   6.923   7.799   1.712 -0.0323 -0.3411 -0.2944
  952MOL0     H28480   6.610   7.902   1.727  0.6764  0.2285 -1.4068
  952MOL0     H28481   6.353   7.800   1.752  0.7433  2.6998  2.4789
  952MOL0     H28482   6.376   7.974   1.746 -0.0161  1.5878 -1.5398
  952MOL0     H28483   6.254   7.903   1.646 -0.3983 -0.2072  2.2942
  952MOL0     H28484   6.092   7.679   1.232  2.1472  1.0674  3.2322
  952MOL0     H28485   5.881   7.713   1.112 -1.1314  0.7546 -2.6909
  952MOL0     H28486   5.768   8.130   0.978 -0.2078 -1.2055  0.4140
  952MOL0     H28487   5.884   8.083   0.861  0.0170  1.7338  2.4995
  952MOL0     H28488   5.673   8.138   0.755  1.0430  1.0003  1.6181
  952MOL0     H28489   5.743   7.980   0.720  0.2484  2.2824 -1.3098
  952MOL0     H28490   5.473   8.066   0.813 -0.1242 -0.8726 -1.2334
  952MOL0     H28491   5.556   8.022   0.960  0.6879 -1.7043  0.5070
  952MOL0     H28492   5.604   7.795   0.839  0.2887  0.1399 -0.5397
  952MOL0     H28493   5.438   7.836   0.882 -0.4129  2.3807  0.1744
  952MOL0     H28494   5.555   7.856   0.607 -2.3617 -0.6780 -1.7223
  952MOL0     H28495   5.393   7.925   0.652  1.5389  2.3358 -0.3880
  952MOL0     H28496   5.464   7.632   0.703  2.6269  2.0974  1.9213
  952MOL0     H28497   5.311   7.713   0.718  0.3202  1.0671  0.3617
  952MOL0     H28498   5.292   7.740   0.471  2.1056  0.7023 -0.7106
  952MOL0     H28499   5.330   7.576   0.508  0.1336  0.1874 -0.3566
  952MOL0     H28500   5.575   7.618   0.485 -0.3904  0.8104  3.1514
  952MOL0     H28501   5.513   7.770   0.400 -0.3885  0.6724  0.6910
  952MOL0     H28502   5.991   8.127   1.048 -0.5574  1.6531  2.9944
  952MOL0     H28503   6.200   8.084   1.181  1.5042 -1.4038  1.0128
  952MOL0     H28504   6.539   7.849   1.240  0.3723  1.7931 -0.1112
  952MOL0     H28505   6.763   7.891   1.331  0.1764 -1.0058 -0.0190
  952MOL0     H28506   8.094   8.956   1.005 -1.5812 -1.0253  0.2589
  952MOL0     H28507   8.188   9.049   0.801 -0.4257 -0.8882  1.5137
  952MOL0     H28508   8.313   8.902   0.351  0.5120  0.9393 -0.0596
  952MOL0     H28509   8.495   9.010   0.221  0.5314  0.6993 -2.6244
  952MOL0     H28510   8.701   9.178   0.234  0.9746  3.1536  1.0702
  952MOL0     H28511   8.624   9.110   0.096  0.5395  0.0364  1.3784
  952MOL0     H28512   8.721   9.401   0.098 -0.2559 -0.6743  0.7510
  952MOL0     H28513   8.694   9.306  -0.044  0.4480 -0.0491 -0.6439
  952MOL0     H28514   8.888   9.160   0.052 -0.6563 -0.9501  0.0335
  952MOL0     H28515   8.921   9.286   0.163  0.4389 -4.1812  0.5528
  952MOL0     H28516   8.982   9.448   0.015 -0.1555 -0.6982  0.4365
  952MOL0     H28517   8.898   9.380  -0.125 -2.8221 -4.8431 -0.5341
  952MOL0     H28518   9.280   9.160  -0.043  1.1074  1.2539 -0.0418
  952MOL0     H28519   8.335   9.396   0.294  1.0585 -0.4055 -0.8399
  952MOL0     H28520   8.142   9.286   0.433 -0.0314  0.1749  0.0420
  953MOL0     O28521   8.199   8.096   9.803  0.3084  0.5726  0.1940
  953MOL0     C28522   8.206   8.185   9.724  0.0036  0.8651  0.4657
  953MOL0     O28523   8.118   8.202   9.616  0.3923  0.8588  0.0185
  953MOL0     C28524   8.021   8.112   9.579 -0.6755  0.0891 -0.1926
  953MOL0     C28525   7.912   8.168   9.523 -0.4817  0.1633  0.5147
  953MOL0     C28526   7.809   8.092   9.468  0.6266  0.3514 -0.9272
  953MOL0     C28527   7.811   7.951   9.473  0.7568  0.2004  0.3802
  953MOL0     O28528   7.702   7.890   9.411  0.1805 -0.2760  0.3301
  953MOL0     C28529   7.652   7.768   9.472 -0.6674 -0.2358  0.0958
  953MOL0     C28530   7.591   7.811   9.603  0.5006 -0.1572 -0.6771
  953MOL0     C28531   7.496   7.923   9.596 -0.6232 -0.7137  0.1533
  953MOL0     C28532   7.410   7.956   9.723 -0.0908  0.1920 -0.3860
  953MOL0     C28533   7.284   7.860   9.743  0.4344 -0.4861  0.2817
  953MOL0     C28534   7.201   7.923   9.862 -0.1226  0.0135 -0.2244
  953MOL0     C28535   7.072   7.833   9.865  0.0725  0.5000 -0.5044
  953MOL0     C28536   7.110   7.707   9.948 -0.3103  0.2722 -0.6809
  953MOL0     N28537   7.020   7.590   9.921 -0.2033 -0.2311 -0.6601
  953MOL0     C28538   7.028   7.511   9.810 -0.2778 -0.1773 -0.4541
  953MOL0     C28539   6.911   7.443   9.800  0.0423  0.5829 -0.1590
  953MOL0     C28540   6.874   7.342   9.696  0.4438  0.5132 -0.1914
  953MOL0     C28541   6.796   7.401   9.584  0.4687 -0.0826  0.2581
  953MOL0     C28542   6.648   7.431   9.627  0.0352 -0.3303 -0.1240
  953MOL0     C28543   6.574   7.490   9.508  0.2265  0.1652  1.4524
  953MOL0     O28544   6.521   7.403   9.407 -0.0085  0.0028 -0.0637
  953MOL0     C28545   6.405   7.337   9.437 -0.8389  0.2728  0.1203
  953MOL0     C28546   6.360   7.255   9.335  0.3298  0.3309 -0.4705
  953MOL0     C28547   6.243   7.172   9.348  0.5762  0.3538 -0.4612
  953MOL0     C28548   6.220   7.068   9.238 -0.1446  0.5261 -0.2208
  953MOL0     C28549   6.164   7.186   9.469  0.7793 -0.8776  0.0453
  953MOL0     C28550   6.031   7.113   9.488  0.8275 -0.6936  0.6715
  953MOL0     O28551   5.970   7.110   9.612  0.2600  0.4901 -1.0231
  953MOL0     C28552   5.852   7.042   9.622 -0.3267 -0.6081  0.6062
  953MOL0     C28553   5.847   6.903   9.589  0.1853 -0.7868 -0.5219
  953MOL0     C28554   5.724   6.838   9.590  0.2991  0.3738  0.2020
  953MOL0     C28555   5.601   6.906   9.621 -0.1000 -0.8499  0.2448
  953MOL0     O28556   5.485   6.825   9.634 -0.9946  0.7991  0.6538
  953MOL0     C28557   5.462   6.799   9.773 -0.1434 -0.9066 -0.1133
  953MOL0     C28558   5.369   6.694   9.789 -0.1193  0.0364  0.2606
  953MOL0     C28559   5.227   6.736   9.747 -0.3217  0.1651 -0.6686
  953MOL0     C28560   5.139   6.616   9.742 -0.3581 -0.6228 -0.9667
  953MOL0     C28561   4.997   6.655   9.707  0.7282  0.7647 -0.5310
  953MOL0     C28562   4.937   6.528   9.634 -0.8172  0.0283  0.3254
  953MOL0     C28563   4.790   6.541   9.592 -0.2617 -0.0062  0.6883
  953MOL0     C28564   4.739   6.399   9.537  0.3112 -0.0080 -0.0408
  953MOL0    Cl28565   4.604   6.400   9.417 -0.3293  0.0053 -0.2539
  953MOL0     C28566   5.605   7.044   9.649 -0.6412  0.9444  0.1031
  953MOL0     C28567   5.734   7.110   9.658  0.3042 -0.0902 -1.1752
  953MOL0     O28568   5.963   7.090   9.384 -0.5580 -0.7471  0.1222
  953MOL0     C28569   6.202   7.280   9.563 -0.1003 -0.1860  0.0074
  953MOL0     C28570   6.327   7.348   9.554  0.5045  0.1530 -0.2229
  953MOL0     N28571   6.830   7.483   9.908 -0.5342 -0.3006  0.0798
  953MOL0     N28572   6.894   7.580   9.967  0.6530 -0.5054 -0.5475
  953MOL0     C28573   7.924   7.891   9.528  1.0043 -0.0760  0.6480
  953MOL0     C28574   8.027   7.969   9.590  0.5772 -0.2924 -0.2669
  953MOL0     C28575   8.315   8.276   9.743 -0.8649  0.0126  0.0527
  953MOL0     C28576   8.438   8.223   9.760  0.0662 -0.2226 -0.4594
  953MOL0     C28577   8.547   8.306   9.785  0.0929 -0.9049  0.1441
  953MOL0     C28578   8.528   8.442   9.779 -0.7243 -0.0877  0.0889
  953MOL0     O28579   8.627   8.540   9.802  0.0091 -0.2681 -0.5187
  953MOL0     C28580   8.760   8.492   9.825 -0.1501 -0.2387  0.0715
  953MOL0     C28581   8.853   8.616   9.840 -0.9964 -0.6966 -0.7977
  953MOL0     C28582   9.003   8.584   9.809  1.2877  0.4407 -0.6331
  953MOL0     C28583   9.108   8.680   9.866  0.4900 -1.5933 -0.3692
  953MOL0     C28584   9.239   8.650   9.818  0.1346  0.6743 -0.0831
  953MOL0     C28585   9.352   8.639   9.781  0.9707 -0.0742  0.7800
  953MOL0     C28586   8.403   8.504   9.748  0.5958  0.3420  0.9735
  953MOL0     C28587   8.297   8.413   9.730 -0.1907 -0.1364 -0.0685
  953MOL0     H28588   7.906   8.276   9.523  2.4524  0.4374 -1.2992
  953MOL0     H28589   7.724   8.145   9.425  2.3204  2.0413 -2.4338
  953MOL0     H28590   7.575   7.714   9.415  0.2134 -1.9239  0.4392
  953MOL0     H28591   7.732   7.694   9.481  0.0961  0.3998 -1.1905
  953MOL0     H28592   7.542   7.723   9.646  2.5647 -1.1822 -0.3111
  953MOL0     H28593   7.671   7.847   9.667 -0.4261  1.9089 -0.6167
  953MOL0     H28594   7.553   8.014   9.575  1.3052 -1.9174 -0.0769
  953MOL0     H28595   7.431   7.911   9.510 -0.8834  1.5622 -0.0258
  953MOL0     H28596   7.470   7.941   9.813 -0.0889 -1.1895 -0.5958
  953MOL0     H28597   7.373   8.058   9.711 -1.2764 -0.3970 -2.0999
  953MOL0     H28598   7.224   7.858   9.651  1.5293 -1.1790 -0.4422
  953MOL0     H28599   7.310   7.754   9.747 -1.4905 -1.1233 -1.6633
  953MOL0     H28600   7.257   7.914   9.956 -0.0279  0.5120 -0.2312
  953MOL0     H28601   7.180   8.030   9.851  2.5228  0.9441  2.3679
  953MOL0     H28602   6.990   7.883   9.916 -0.0936 -0.8491  0.5994
  953MOL0     H28603   7.049   7.803   9.762  2.0347 -1.3023 -0.5010
  953MOL0     H28604   7.108   7.726  10.056  2.0402 -1.3262 -0.2958
  953MOL0     H28605   7.216   7.684   9.933 -0.6698 -1.2983 -0.9573
  953MOL0     H28606   7.108   7.503   9.737 -0.5096  0.2559 -0.7600
  953MOL0     H28607   6.974   7.305   9.671 -0.5625 -1.7720 -1.1109
  953MOL0     H28608   6.823   7.267   9.757  2.9695 -1.5346 -0.4100
  953MOL0     H28609   6.788   7.329   9.502 -2.0088  0.9290 -0.4686
  953MOL0     H28610   6.847   7.489   9.543 -0.1873 -1.2123 -3.3455
  953MOL0     H28611   6.651   7.518   9.693 -0.0095  0.1864 -0.7850
  953MOL0     H28612   6.595   7.350   9.677  0.2578  0.9997  2.4097
  953MOL0     H28613   6.641   7.565   9.464 -2.5415  0.7395 -2.3543
  953MOL0     H28614   6.483   7.546   9.533 -2.0751 -1.5623 -2.1119
  953MOL0     H28615   6.431   7.242   9.254  1.4539 -0.8060  0.6385
  953MOL0     H28616   6.140   7.093   9.168 -1.2230  1.5191  1.3221
  953MOL0     H28617   6.308   7.049   9.176 -1.6132 -2.7053 -1.5711
  953MOL0     H28618   6.209   6.973   9.291  3.3588  0.0516 -0.0868
  953MOL0     H28619   5.938   6.847   9.575  0.7387 -0.0449  0.0195
  953MOL0     H28620   5.724   6.730   9.583  0.9002  0.4086 -0.4127
  953MOL0     H28621   5.560   6.769   9.812 -0.0140 -1.4869 -0.8561
  953MOL0     H28622   5.430   6.889   9.826 -1.7825 -1.2946 -0.4010
  953MOL0     H28623   5.411   6.615   9.727  1.4743  0.9665  0.0990
  953MOL0     H28624   5.370   6.662   9.894 -3.3307 -1.8106 -0.1496
  953MOL0     H28625   5.227   6.774   9.644 -0.9127  0.2389 -0.6452
  953MOL0     H28626   5.190   6.812   9.816  1.6636  0.3989  0.2187
  953MOL0     H28627   5.181   6.538   9.677  1.3984  1.4627 -2.4701
  953MOL0     H28628   5.139   6.565   9.839  2.1859 -0.9853 -1.0859
  953MOL0     H28629   4.990   6.747   9.649  1.2139  0.7361 -0.6366
  953MOL0     H28630   4.946   6.684   9.799  1.9743  0.1323  0.3967
  953MOL0     H28631   4.994   6.518   9.541  1.1506  0.1819  1.4578
  953MOL0     H28632   4.950   6.439   9.697 -3.5378 -2.3548 -2.1881
  953MOL0     H28633   4.766   6.619   9.518  0.7140 -0.6894 -0.3879
  953MOL0     H28634   4.736   6.577   9.680  0.6658 -2.3162  2.2935
  953MOL0     H28635   4.715   6.346   9.631  1.6862  2.4703  1.8217
  953MOL0     H28636   4.822   6.356   9.482  0.9992  0.3957  0.6652
  953MOL0     H28637   5.516   7.099   9.680 -1.1406  1.6486 -2.3775
  953MOL0     H28638   5.743   7.212   9.694  3.3920 -0.1631 -1.5103
  953MOL0     H28639   6.138   7.307   9.647  1.4389 -1.6771  1.7400
  953MOL0     H28640   6.351   7.428   9.624  2.5188 -0.7225  0.1620
  953MOL0     H28641   7.948   7.785   9.516  0.2178  0.0586 -4.1337
  953MOL0     H28642   8.109   7.912   9.632  0.2276 -0.8993 -0.3886
  953MOL0     H28643   8.441   8.115   9.756 -2.0474 -0.3677  0.4591
  953MOL0     H28644   8.650   8.274   9.802  0.4442  1.1801  2.6179
  953MOL0     H28645   8.769   8.440   9.921  0.8743 -0.5446 -0.1785
  953MOL0     H28646   8.791   8.425   9.745  1.1316 -0.0455  0.3817
  953MOL0     H28647   8.847   8.670   9.935 -0.9706 -1.9830 -0.0382
  953MOL0     H28648   8.816   8.684   9.763 -4.0764 -0.4625  0.7352
  953MOL0     H28649   9.004   8.587   9.699 -1.9959  1.3951 -0.7383
  953MOL0     H28650   9.024   8.479   9.834  0.9725  0.8745  1.6045
  953MOL0     H28651   9.123   8.665   9.974  3.4510 -2.7555 -0.8458
  953MOL0     H28652   9.092   8.787   9.847 -1.6072 -1.3279  2.2070
  953MOL0     H28653   9.450   8.645   9.739  0.3315  3.7920 -0.6119
  953MOL0     H28654   8.385   8.610   9.738  2.7932  0.5327 -2.6388
  953MOL0     H28655   8.198   8.448   9.702  0.4784  0.7899 -1.4208
  954MOL0     O28656   4.566   5.136   8.740 -0.7725 -0.0466 -0.4214
  954MOL0     C28657   4.632   5.218   8.678 -0.0559  0.7931 -0.0070
  954MOL0     O28658   4.577   5.316   8.595  0.0399 -0.5305 -0.8173
  954MOL0     C28659   4.444   5.299   8.576  0.2015 -0.3946  0.6120
  954MOL0     C28660   4.353   5.368   8.653 -0.2171  0.1781 -0.4801
  954MOL0     C28661   4.212   5.347   8.627  0.6137  0.6713 -0.5400
  954MOL0     C28662   4.165   5.271   8.522  0.3409 -0.1750 -0.0523
  954MOL0     O28663   4.026   5.267   8.519 -0.3944 -0.0626  0.4230
  954MOL0     C28664   3.973   5.190   8.407 -0.0202  0.2515  0.5398
  954MOL0     C28665   3.815   5.189   8.392 -0.4693 -0.2443 -0.0121
  954MOL0     C28666   3.760   5.325   8.377  0.2303  0.6272 -0.3578
  954MOL0     C28667   3.638   5.322   8.286  0.1918  0.3259  0.0670
  954MOL0     C28668   3.532   5.215   8.344  1.2037 -0.6458 -0.1086
  954MOL0     C28669   3.399   5.211   8.263  0.6213 -0.4669 -0.1697
  954MOL0     C28670   3.296   5.104   8.301 -0.0468  0.9959 -0.8875
  954MOL0     C28671   3.223   5.060   8.172  0.7429 -0.1589  0.5485
  954MOL0     N28672   3.083   5.007   8.197 -0.9770 -0.3352  0.2950
  954MOL0     C28673   3.040   4.903   8.280 -1.5981 -0.4065  0.0536
  954MOL0     C28674   2.908   4.910   8.271  1.0575  0.3871  0.2870
  954MOL0     C28675   2.821   4.810   8.331  0.6648 -1.0048 -0.3831
  954MOL0     C28676   2.674   4.838   8.313 -0.3779  0.1360  0.3139
  954MOL0     C28677   2.593   4.746   8.404 -0.6878  1.0057 -0.1903
  954MOL0     C28678   2.442   4.766   8.404 -0.2394  0.3233  0.4365
  954MOL0     O28679   2.376   4.788   8.280 -0.0726  0.1070  0.1753
  954MOL0     C28680   2.241   4.748   8.271 -0.3483  0.1556 -0.2667
  954MOL0     C28681   2.139   4.798   8.358 -0.0759  0.6385 -0.2971
  954MOL0     C28682   2.000   4.764   8.336 -0.9210  0.2264  0.3582
  954MOL0     C28683   1.900   4.853   8.415  0.3485  0.7869  0.3214
  954MOL0     C28684   1.970   4.679   8.230  0.4060  0.5357 -0.7101
  954MOL0     C28685   1.829   4.629   8.212 -0.0926 -0.0050 -0.2054
  954MOL0     O28686   1.793   4.577   8.091 -0.5654 -0.5422  0.3962
  954MOL0     C28687   1.675   4.520   8.077  1.4440  0.6994  0.1309
  954MOL0     C28688   1.573   4.612   8.067  0.2899  0.2191 -0.0978
  954MOL0     C28689   1.443   4.566   8.038  0.2706 -0.1124 -0.6338
  954MOL0     C28690   1.420   4.428   8.023  0.0272  0.5536  0.6068
  954MOL0     O28691   1.297   4.378   7.998  0.0287  0.8580  0.0052
  954MOL0     C28692   1.171   4.435   8.043  0.0549 -0.0817 -0.9715
  954MOL0     C28693   1.053   4.339   8.021 -0.9749 -0.1982 -0.7158
  954MOL0     C28694   0.921   4.398   8.080  0.5093 -0.2996 -0.1822
  954MOL0     C28695   0.822   4.285   8.117 -0.6586  1.1083  0.0274
  954MOL0     C28696   0.700   4.337   8.196 -1.3422 -0.6757  0.2467
  954MOL0     C28697   0.620   4.441   8.116 -0.1728 -0.6071 -0.4321
  954MOL0     C28698   0.510   4.507   8.203  1.1803 -0.8311 -0.7084
  954MOL0     C28699   0.404   4.574   8.110  0.2198 -0.3266 -0.0133
  954MOL0    Cl28700   0.331   4.703   8.201 -0.4715 -0.2997 -0.3796
  954MOL0     C28701   1.528   4.339   8.029  0.0348  0.1245 -0.2400
  954MOL0     C28702   1.656   4.385   8.059 -0.6202 -0.1670  0.0435
  954MOL0     O28703   1.758   4.617   8.314 -0.7765 -0.2266 -0.0228
  954MOL0     C28704   2.070   4.639   8.139 -0.2026  0.6593 -0.0220
  954MOL0     C28705   2.205   4.667   8.166  0.2125  0.7756 -0.7081
  954MOL0     N28706   2.868   5.011   8.186  1.0500  0.0909  0.1959
  954MOL0     N28707   2.973   5.062   8.142  0.2432  0.2375  0.4522
  954MOL0     C28708   4.257   5.199   8.449  0.6051 -0.3976 -0.2573
  954MOL0     C28709   4.392   5.221   8.470 -0.4586  0.1567 -0.5688
  954MOL0     C28710   4.779   5.212   8.690 -0.1517 -0.2210  0.2743
  954MOL0     C28711   4.852   5.109   8.748 -1.3797 -0.1157  0.4653
  954MOL0     C28712   4.989   5.109   8.754 -0.2183 -0.4984 -0.0792
  954MOL0     C28713   5.065   5.209   8.699 -0.1036 -0.5176  0.1949
  954MOL0     O28714   5.207   5.203   8.702  0.2558  0.2511  0.0371
  954MOL0     C28715   5.296   5.312   8.658  0.8324  0.2779 -0.4723
  954MOL0     C28716   5.437   5.302   8.698 -1.2694 -0.1314 -0.5423
  954MOL0     C28717   5.508   5.209   8.599 -0.3543  0.2151  0.3005
  954MOL0     C28718   5.654   5.238   8.604 -0.3544 -0.8110 -0.1267
  954MOL0     C28719   5.735   5.153   8.515 -0.4488  0.7322  0.5435
  954MOL0     C28720   5.812   5.087   8.448 -0.0150  0.6596  0.2964
  954MOL0     C28721   4.993   5.314   8.637 -0.2810  0.2096 -0.2066
  954MOL0     C28722   4.855   5.313   8.623 -0.4759  0.3864 -0.9910
  954MOL0     H28723   4.389   5.431   8.733  0.0024 -1.0737  0.4405
  954MOL0     H28724   4.138   5.392   8.692  0.3838 -1.7746  1.0127
  954MOL0     H28725   4.014   5.226   8.312  2.2859 -1.1619  0.9184
  954MOL0     H28726   3.998   5.084   8.414  2.4665  0.7760  0.8064
  954MOL0     H28727   3.798   5.129   8.303 -0.9714 -0.2988  0.1188
  954MOL0     H28728   3.771   5.147   8.483  0.6203  1.8144  1.5894
  954MOL0     H28729   3.750   5.363   8.479 -0.2408 -1.6791  0.5156
  954MOL0     H28730   3.832   5.393   8.330  0.7666 -0.1708 -0.7034
  954MOL0     H28731   3.610   5.426   8.268 -0.7978 -0.3941 -3.3093
  954MOL0     H28732   3.671   5.288   8.188 -0.2941 -1.0315  0.3438
  954MOL0     H28733   3.574   5.117   8.320 -1.1481 -1.7231 -0.0959
  954MOL0     H28734   3.521   5.220   8.453  1.6567  1.1051 -0.1219
  954MOL0     H28735   3.347   5.306   8.275 -1.1914 -1.6427  2.1239
  954MOL0     H28736   3.422   5.193   8.158  1.4438  0.4934 -0.1670
  954MOL0     H28737   3.338   5.019   8.355 -1.9261  1.1638  0.9501
  954MOL0     H28738   3.226   5.162   8.362  1.5750  1.0077  1.0437
  954MOL0     H28739   3.282   4.989   8.114  0.6770  1.0393 -1.0602
  954MOL0     H28740   3.205   5.149   8.110 -1.7625  0.2763  1.7857
  954MOL0     H28741   3.103   4.839   8.341  1.0426  0.5285 -1.4845
  954MOL0     H28742   2.856   4.714   8.293 -0.9349 -0.8798 -2.3943
  954MOL0     H28743   2.827   4.810   8.440 -0.7462 -1.3349 -0.2769
  954MOL0     H28744   2.642   4.820   8.210 -1.8571  2.3865  0.3089
  954MOL0     H28745   2.667   4.942   8.347  1.8259  0.1865  0.7593
  954MOL0     H28746   2.630   4.768   8.504 -0.4671 -0.5122  0.0834
  954MOL0     H28747   2.615   4.641   8.379 -0.1960  0.7700  1.1525
  954MOL0     H28748   2.419   4.850   8.470 -1.6728 -0.2817  0.7496
  954MOL0     H28749   2.394   4.677   8.446  1.4880 -0.3338  1.0880
  954MOL0     H28750   2.163   4.863   8.442 -0.7072 -1.3387  1.5006
  954MOL0     H28751   1.813   4.862   8.349 -0.0069 -1.9469  0.3184
  954MOL0     H28752   1.873   4.807   8.511  1.5614 -1.0790 -0.1963
  954MOL0     H28753   1.941   4.953   8.435 -0.4875  1.2637 -0.2576
  954MOL0     H28754   1.587   4.720   8.058  1.3264  0.4047  2.7351
  954MOL0     H28755   1.359   4.634   8.027 -0.6521 -1.5761 -3.7027
  954MOL0     H28756   1.178   4.455   8.150 -0.5942 -0.5246 -0.8423
  954MOL0     H28757   1.135   4.524   7.990 -1.6037 -0.0150  0.2176
  954MOL0     H28758   1.052   4.323   7.912 -1.8085  0.9811 -0.8921
  954MOL0     H28759   1.072   4.237   8.055 -1.7957  0.1992  1.0091
  954MOL0     H28760   0.884   4.470   8.007  2.5211  1.5352  0.4851
  954MOL0     H28761   0.943   4.453   8.172  2.2576 -1.8744  0.4185
  954MOL0     H28762   0.782   4.245   8.023  3.0725 -1.4482 -0.6992
  954MOL0     H28763   0.874   4.201   8.165 -1.9093  0.0138 -0.4918
  954MOL0     H28764   0.740   4.380   8.289 -0.5675 -2.8087  0.9510
  954MOL0     H28765   0.648   4.243   8.218  0.8951 -2.4524 -1.5188
  954MOL0     H28766   0.675   4.524   8.071 -1.4383  0.2695 -0.4148
  954MOL0     H28767   0.583   4.379   8.035 -0.9616 -2.9512  1.6091
  954MOL0     H28768   0.567   4.574   8.269  1.8315 -1.7049 -0.3619
  954MOL0     H28769   0.448   4.434   8.256  0.2774  0.5551  0.2017
  954MOL0     H28770   0.333   4.492   8.095 -0.1262 -0.1400  0.5598
  954MOL0     H28771   0.444   4.606   8.013 -1.9949 -0.2236 -0.9522
  954MOL0     H28772   1.504   4.237   8.002 -1.7365  0.3830  0.2764
  954MOL0     H28773   1.734   4.310   8.073  0.1202  0.9749  2.9144
  954MOL0     H28774   2.033   4.585   8.053 -0.2577  1.7264 -0.6799
  954MOL0     H28775   2.277   4.646   8.087 -0.0207  0.0771 -0.7439
  954MOL0     H28776   4.226   5.130   8.372  2.3988 -1.2472 -0.2781
  954MOL0     H28777   4.462   5.165   8.409 -0.0068  0.8122 -0.6645
  954MOL0     H28778   4.792   5.035   8.800 -2.1800 -0.6414 -1.1414
  954MOL0     H28779   5.029   5.024   8.809 -0.6706 -1.3495 -1.0383
  954MOL0     H28780   5.284   5.341   8.553  1.6477 -1.6894 -1.1617
  954MOL0     H28781   5.268   5.397   8.720  0.7569  2.0685 -2.8167
  954MOL0     H28782   5.461   5.258   8.795  1.0551  0.3351 -0.8450
  954MOL0     H28783   5.469   5.406   8.686  0.0393 -0.3492  0.7947
  954MOL0     H28784   5.472   5.230   8.498  2.6143  0.5050 -0.7733
  954MOL0     H28785   5.499   5.101   8.615  1.1641  0.0236 -0.0374
  954MOL0     H28786   5.682   5.228   8.710 -6.4263 -1.9501  1.7633
  954MOL0     H28787   5.674   5.340   8.570  1.6708 -0.4899  1.7532
  954MOL0     H28788   5.886   5.037   8.388  1.6221  3.3666 -0.1280
  954MOL0     H28789   5.041   5.391   8.577 -3.7257  2.3487 -0.4932
  954MOL0     H28790   4.811   5.394   8.567 -1.1150  1.2174  0.6498
  955MOL0     O28791   1.344   6.672   7.958  0.7203  0.2064  0.3900
  955MOL0     C28792   1.436   6.679   8.038 -1.2887  0.2232  0.5840
  955MOL0     O28793   1.445   6.593   8.149 -0.4031 -0.3118 -0.0993
  955MOL0     C28794   1.339   6.530   8.204  0.3819 -0.0161 -0.2780
  955MOL0     C28795   1.199   6.551   8.182 -0.2527 -0.0372  0.6093
  955MOL0     C28796   1.101   6.485   8.245 -0.3899  0.0777 -1.3668
  955MOL0     C28797   1.130   6.373   8.315 -2.0626 -0.7254  0.7051
  955MOL0     O28798   1.044   6.281   8.361 -0.0574  0.1016 -0.0037
  955MOL0     C28799   0.908   6.302   8.320  1.5520 -0.0521  0.1421
  955MOL0     C28800   0.823   6.186   8.375  0.1315 -0.1502  0.2693
  955MOL0     C28801   0.670   6.209   8.366  0.1514 -0.4405  0.4707
  955MOL0     C28802   0.614   6.293   8.481  0.2310 -0.5799 -0.1469
  955MOL0     C28803   0.464   6.287   8.470  0.0978  0.0841  0.4387
  955MOL0     C28804   0.404   6.166   8.554  0.2041  0.0911 -0.0609
  955MOL0     C28805   0.255   6.158   8.528 -0.4872  0.8728 -0.1241
  955MOL0     C28806   0.216   6.083   8.392  0.1476 -0.3240  0.1653
  955MOL0     N28807   0.073   6.059   8.381 -0.2071 -0.1065 -0.6065
  955MOL0     C28808  -0.004   6.094   8.279 -0.0072 -0.6061 -0.9905
  955MOL0     C28809  -0.134   6.081   8.326  0.7168  0.5544  0.8710
  955MOL0     C28810  -0.259   6.128   8.246 -0.6250  1.3241 -0.7659
  955MOL0     C28811  -0.357   6.013   8.209 -0.3473  0.4636 -0.1832
  955MOL0     C28812  -0.496   6.062   8.162  0.5843  0.3098 -0.6868
  955MOL0     C28813  -0.576   5.944   8.113  0.2571  0.3200 -0.5094
  955MOL0     O28814  -0.699   6.010   8.077  1.1276 -0.2678 -0.1899
  955MOL0     C28815  -0.782   5.955   7.983 -0.6264 -0.4936 -0.6231
  955MOL0     C28816  -0.888   6.022   7.935  0.6139 -0.1915  0.0789
  955MOL0     C28817  -0.987   5.968   7.858 -0.1509  0.3030 -1.1752
  955MOL0     C28818  -1.109   6.054   7.820  0.5810 -0.0658 -0.0311
  955MOL0     C28819  -0.973   5.834   7.817  0.1275  0.1424  0.2486
  955MOL0     C28820  -1.085   5.769   7.745 -0.3756 -0.1370 -0.2494
  955MOL0     O28821  -1.125   5.820   7.627  0.4480 -0.5532  0.5359
  955MOL0     C28822  -1.248   5.779   7.583 -0.0949  0.8619 -0.5716
  955MOL0     C28823  -1.252   5.667   7.500  0.5792  0.2140 -0.4997
  955MOL0     C28824  -1.378   5.622   7.447  0.2684 -0.0781 -0.3551
  955MOL0     C28825  -1.495   5.694   7.474  0.0364  0.1070 -0.3265
  955MOL0     O28826  -1.623   5.653   7.448 -0.3717  0.1068  0.5263
  955MOL0     C28827  -1.661   5.523   7.408 -0.5866  0.5846  0.3798
  955MOL0     C28828  -1.807   5.507   7.370 -0.1246 -0.2923  0.4869
  955MOL0     C28829  -1.914   5.532   7.483  0.4006  0.4780  0.3402
  955MOL0     C28830  -2.060   5.509   7.437 -0.6054  0.4563 -0.4102
  955MOL0     C28831  -2.147   5.534   7.560  0.2896  0.0766 -0.5970
  955MOL0     C28832  -2.295   5.505   7.518 -0.5623 -0.3189  0.4437
  955MOL0     C28833  -2.388   5.485   7.642 -0.5951 -0.0534 -0.6004
  955MOL0     C28834  -2.533   5.505   7.625  0.3305  0.0245 -0.3747
  955MOL0    Cl28835  -2.614   5.407   7.748 -0.0227  0.1088  0.2983
  955MOL0     C28836  -1.486   5.812   7.552 -0.1965 -0.5673  0.5233
  955MOL0     C28837  -1.370   5.845   7.623  0.1248 -0.6116 -0.0283
  955MOL0     O28838  -1.143   5.690   7.813  0.2160  0.4119  0.0082
  955MOL0     C28839  -0.858   5.757   7.862  0.0248  0.5490 -0.0835
  955MOL0     C28840  -0.766   5.828   7.941 -0.3029  1.8914 -0.1364
  955MOL0     N28841  -0.130   6.011   8.444  0.5172  0.2460  0.3431
  955MOL0     N28842  -0.009   6.012   8.482 -0.1024 -0.1074  0.0634
  955MOL0     C28843   1.266   6.333   8.340  0.4508 -0.6383 -0.0945
  955MOL0     C28844   1.372   6.414   8.288  0.7200 -0.6630  0.1339
  955MOL0     C28845   1.561   6.738   7.974  0.5248  0.1223 -0.4115
  955MOL0     C28846   1.680   6.746   8.043  0.1545  0.2158 -0.5767
  955MOL0     C28847   1.802   6.780   7.988  0.5543 -0.6289  0.5229
  955MOL0     C28848   1.813   6.794   7.850  0.1874  0.1810  0.5018
  955MOL0     O28849   1.929   6.809   7.772 -0.2198 -0.2934 -0.4932
  955MOL0     C28850   2.058   6.802   7.832  0.3660 -0.4614  0.2817
  955MOL0     C28851   2.157   6.785   7.723 -0.0994 -0.2803  0.0683
  955MOL0     C28852   2.299   6.793   7.778  0.3470  0.0926 -0.8931
  955MOL0     C28853   2.390   6.779   7.657  0.4208 -0.3015  0.4627
  955MOL0     C28854   2.520   6.731   7.690 -0.1713  0.0177  0.3996
  955MOL0     C28855   2.635   6.690   7.699 -0.4052 -0.5776 -0.5270
  955MOL0     C28856   1.690   6.793   7.781  0.1161 -0.1013  0.4501
  955MOL0     C28857   1.564   6.772   7.841  0.3701  0.6687 -0.0906
  955MOL0     H28858   1.164   6.634   8.122 -0.6061  0.2863  1.2515
  955MOL0     H28859   0.999   6.509   8.215  0.1506  2.2993 -1.6246
  955MOL0     H28860   0.872   6.399   8.355 -1.9404 -1.1042 -0.1733
  955MOL0     H28861   0.902   6.296   8.211  1.3602 -0.2088  0.1602
  955MOL0     H28862   0.847   6.092   8.326 -1.7888  0.0849 -1.2538
  955MOL0     H28863   0.857   6.177   8.479 -0.6694  0.9826  0.6513
  955MOL0     H28864   0.651   6.269   8.276  2.4246  0.5691  0.6008
  955MOL0     H28865   0.614   6.116   8.351 -2.5617  0.8193  2.1993
  955MOL0     H28866   0.648   6.254   8.577  2.3411  1.2783 -0.0600
  955MOL0     H28867   0.642   6.399   8.483  0.8154 -0.7159 -0.8258
  955MOL0     H28868   0.422   6.378   8.513 -0.8836 -1.1920  2.3047
  955MOL0     H28869   0.430   6.301   8.367  0.8469 -0.5772  0.0902
  955MOL0     H28870   0.439   6.066   8.526  0.0267 -0.6614  2.2223
  955MOL0     H28871   0.415   6.177   8.662 -1.4362  2.2823 -0.0476
  955MOL0     H28872   0.220   6.097   8.611  3.3943  0.7638  1.6474
  955MOL0     H28873   0.203   6.254   8.534 -3.7542 -0.7325 -0.2798
  955MOL0     H28874   0.259   5.982   8.395 -0.4911 -0.5839  2.1780
  955MOL0     H28875   0.266   6.134   8.309 -0.5923 -0.3912 -0.3261
  955MOL0     H28876   0.026   6.148   8.189 -0.3534 -0.2086 -0.8702
  955MOL0     H28877  -0.312   6.188   8.320 -1.3904 -0.9909  0.6768
  955MOL0     H28878  -0.245   6.181   8.151 -0.2215 -0.0883 -1.5263
  955MOL0     H28879  -0.365   5.939   8.290  0.4553 -1.3540 -1.6920
  955MOL0     H28880  -0.306   5.951   8.135 -1.8517 -1.2496  0.1502
  955MOL0     H28881  -0.474   6.133   8.082  0.6252  2.0240  0.8045
  955MOL0     H28882  -0.545   6.122   8.239  1.6028  1.7507 -1.1226
  955MOL0     H28883  -0.589   5.864   8.187  0.1953 -0.3126 -1.1874
  955MOL0     H28884  -0.523   5.900   8.028  1.1496  1.8816 -0.7956
  955MOL0     H28885  -0.886   6.121   7.979 -1.1848 -0.5328  1.0316
  955MOL0     H28886  -1.210   6.014   7.833  0.1742  0.2691 -1.9336
  955MOL0     H28887  -1.116   6.146   7.878 -2.0551  0.0515 -0.4153
  955MOL0     H28888  -1.092   6.079   7.715  1.9186 -1.2561 -0.1301
  955MOL0     H28889  -1.154   5.620   7.487  0.0943 -1.1917  0.7002
  955MOL0     H28890  -1.382   5.528   7.392  2.4246 -0.8258  0.6274
  955MOL0     H28891  -1.596   5.496   7.324  2.9819 -1.2287  3.4527
  955MOL0     H28892  -1.641   5.452   7.489 -3.6787 -0.9700 -0.0675
  955MOL0     H28893  -1.834   5.572   7.286 -1.7168 -1.1416  0.2940
  955MOL0     H28894  -1.828   5.403   7.344  0.3996 -0.2898  0.0506
  955MOL0     H28895  -1.900   5.636   7.515  1.1079  1.2587 -2.2597
  955MOL0     H28896  -1.893   5.459   7.562  0.4893 -2.9409 -2.5506
  955MOL0     H28897  -2.078   5.586   7.362 -0.1501  1.1069  0.1368
  955MOL0     H28898  -2.071   5.405   7.405 -0.3487  0.5432 -0.7912
  955MOL0     H28899  -2.146   5.641   7.584  1.4159 -0.2846  1.1522
  955MOL0     H28900  -2.115   5.470   7.643  3.9999 -0.2686 -2.1108
  955MOL0     H28901  -2.331   5.586   7.453  1.8544  0.2997 -0.2081
  955MOL0     H28902  -2.308   5.417   7.454 -2.6900 -0.7934  1.4353
  955MOL0     H28903  -2.364   5.564   7.714  2.0278 -0.8181 -0.5388
  955MOL0     H28904  -2.374   5.389   7.693 -2.5725 -0.2196 -0.2702
  955MOL0     H28905  -2.567   5.475   7.525 -0.8319  0.2378 -0.0564
  955MOL0     H28906  -2.566   5.609   7.634  2.4067  0.6240  1.2688
  955MOL0     H28907  -1.575   5.866   7.582 -2.1925 -2.8011 -0.9799
  955MOL0     H28908  -1.364   5.925   7.695 -0.1474 -1.3996  0.8862
  955MOL0     H28909  -0.841   5.657   7.825 -1.2624  0.0003  0.7475
  955MOL0     H28910  -0.678   5.773   7.972 -2.1638 -0.7946  0.6799
  955MOL0     H28911   1.281   6.242   8.397  0.0099 -0.3895  0.4227
  955MOL0     H28912   1.473   6.397   8.323  0.7095 -2.3778 -0.5900
  955MOL0     H28913   1.683   6.712   8.146 -1.6165 -0.8945 -0.8446
  955MOL0     H28914   1.880   6.805   8.059  1.1964 -1.7738  0.2472
  955MOL0     H28915   2.069   6.891   7.894 -0.9930  0.3261 -0.5511
  955MOL0     H28916   2.057   6.720   7.905 -2.9214  0.3875  1.3607
  955MOL0     H28917   2.139   6.868   7.654 -1.2141 -0.9059 -0.4173
  955MOL0     H28918   2.157   6.690   7.667 -1.8817  0.0182 -0.4973
  955MOL0     H28919   2.319   6.716   7.853  0.0334  2.1155  1.3749
  955MOL0     H28920   2.319   6.892   7.819 -0.9494  0.4778 -1.1489
  955MOL0     H28921   2.396   6.882   7.620 -1.9774 -0.8618 -1.7801
  955MOL0     H28922   2.340   6.723   7.578 -1.5674  0.0709  1.3983
  955MOL0     H28923   2.740   6.673   7.715 -0.2194  0.2953 -0.7376
  955MOL0     H28924   1.708   6.812   7.676  0.8806 -1.7403  0.2578
  955MOL0     H28925   1.479   6.775   7.774 -1.2585 -0.2081  1.8365
  956MOL0     O28926   5.279   9.737   9.757  0.7871 -0.4229  0.4246
  956MOL0     C28927   5.296   9.830   9.833 -1.0620 -0.5533 -0.8410
  956MOL0     O28928   5.198   9.906   9.880 -0.4317 -0.3995 -0.0184
  956MOL0     C28929   5.069   9.868   9.851  0.5536 -0.6465  0.8181
  956MOL0     C28930   4.994   9.800   9.938  0.4841  0.5046  0.3475
  956MOL0     C28931   4.860   9.775   9.912  0.2394  0.4275 -0.2321
  956MOL0     C28932   4.797   9.819   9.795 -0.1124 -0.3095 -0.4306
  956MOL0     O28933   4.672   9.782   9.756  0.4135  0.0885 -1.3411
  956MOL0     C28934   4.571   9.831   9.847  0.2360 -0.3519 -0.2474
  956MOL0     C28935   4.432   9.764   9.832 -0.3240  0.2059  0.1981
  956MOL0     C28936   4.312   9.861   9.829 -0.3774  0.3126  0.5123
  956MOL0     C28937   4.178   9.780   9.801 -0.1688 -0.6553  0.6592
  956MOL0     C28938   4.061   9.862   9.849 -0.1682  0.4255 -0.3674
  956MOL0     C28939   3.937   9.795   9.815  0.9050 -0.3547  0.0806
  956MOL0     C28940   3.813   9.878   9.849 -0.4345 -0.3868  0.0073
  956MOL0     C28941   3.764   9.863   9.995  0.5811 -0.2416 -0.1142
  956MOL0     N28942   3.643   9.948  10.025  0.5350 -0.3495  0.0428
  956MOL0     C28943   3.523   9.931   9.955 -0.2791 -0.4322 -0.4605
  956MOL0     C28944   3.431  10.011  10.012  0.2048  0.8011  0.5070
  956MOL0     C28945   3.292  10.025   9.979  0.8315  0.0127  0.1540
  956MOL0     C28946   3.238  10.159  10.030  0.4866  0.1295  0.7026
  956MOL0     C28947   3.097  10.196   9.986  0.3606 -1.4482 -0.1155
  956MOL0     C28948   3.063  10.344  10.000 -0.1639  0.4941 -0.1522
  956MOL0     O28949   3.058  10.384  10.142  0.1366  0.3561 -0.1719
  956MOL0     C28950   2.947  10.439  10.200 -0.3766  0.0541 -0.3394
  956MOL0     C28951   2.963  10.456  10.335  0.6214  0.4393 -0.6644
  956MOL0     C28952   2.864  10.507  10.419  0.6420 -0.4381 -0.1635
  956MOL0     C28953   2.917  10.537  10.559 -0.5137  0.4678 -0.1585
  956MOL0     C28954   2.733  10.545  10.369 -0.2876 -0.4575  1.0654
  956MOL0     C28955   2.619  10.592  10.449 -0.7815 -0.9165 -0.2402
  956MOL0     O28956   2.515  10.642  10.378 -0.5949  0.3362 -0.7412
  956MOL0     C28957   2.392  10.703  10.419 -0.6448  0.0135  0.4890
  956MOL0     C28958   2.286  10.708  10.324  0.2405  0.0963  0.2473
  956MOL0     C28959   2.161  10.753  10.365  0.9143 -0.3890  0.7764
  956MOL0     C28960   2.131  10.774  10.495 -0.0604 -0.4619 -0.3674
  956MOL0     O28961   2.005  10.797  10.545  0.4058  0.2439 -0.4609
  956MOL0     C28962   1.891  10.806  10.463  0.1745  0.8496 -0.1549
  956MOL0     C28963   1.769  10.814  10.549 -0.2537  0.2500 -0.4769
  956MOL0     C28964   1.726  10.962  10.583  0.2672  0.3784 -0.0435
  956MOL0     C28965   1.590  10.990  10.519  0.5138  0.0785  0.0875
  956MOL0     C28966   1.515  11.122  10.564 -0.2029 -0.1788 -0.5171
  956MOL0     C28967   1.388  11.143  10.477  0.7823 -0.0386 -0.8845
  956MOL0     C28968   1.326  11.284  10.497  0.3921  0.7195  0.1762
  956MOL0     C28969   1.231  11.321  10.387 -0.3475  0.7107 -0.1824
  956MOL0    Cl28970   1.136  11.459  10.449  0.0254  0.4569  0.0864
  956MOL0     C28971   2.238  10.776  10.591  0.1739  0.0975 -0.5361
  956MOL0     C28972   2.368  10.739  10.553  0.2463 -0.3053  0.0805
  956MOL0     O28973   2.619  10.573  10.568  0.6198  0.6666  0.2585
  956MOL0     C28974   2.723  10.533  10.231  0.3328 -0.1728 -0.1754
  956MOL0     C28975   2.827  10.477  10.151 -0.0294  0.2802  1.0918
  956MOL0     N28976   3.501  10.084  10.110 -0.5955  0.1281  0.1446
  956MOL0     N28977   3.630  10.047  10.109  0.3015  0.2235 -0.5898
  956MOL0     C28978   4.874   9.889   9.707 -0.3074 -0.2688  0.4271
  956MOL0     C28979   5.011   9.909   9.727  0.6823 -0.4871  0.1432
  956MOL0     C28980   5.439   9.867   9.875 -0.3752 -0.3907 -0.8109
  956MOL0     C28981   5.557   9.801   9.827  1.1133  0.2042  0.6895
  956MOL0     C28982   5.687   9.821   9.876 -0.3913 -0.7094 -0.2832
  956MOL0     C28983   5.709   9.917   9.982 -0.5698  0.3305  0.3789
  956MOL0     O28984   5.838   9.949  10.038  0.6539 -0.1003  0.2847
  956MOL0     C28985   5.954   9.910   9.970  0.5426  1.1971  0.3083
  956MOL0     C28986   6.081   9.984  10.025  0.6838  0.0217 -0.8865
  956MOL0     C28987   6.203   9.964   9.936 -0.3747  1.0034  0.1243
  956MOL0     C28988   6.328  10.041   9.981 -0.0113  1.1585  0.1744
  956MOL0     C28989   6.387  10.004  10.106 -0.3061  0.2427 -1.0589
  956MOL0     C28990   6.426   9.975  10.214 -0.5384 -0.0858 -0.2811
  956MOL0     C28991   5.596   9.978  10.028  0.5391  0.3222  0.0031
  956MOL0     C28992   5.469   9.950   9.983  1.2767  0.6202  0.1323
  956MOL0     H28993   5.040   9.771  10.032 -0.8924  0.5312  1.0491
  956MOL0     H28994   4.809   9.706   9.978  3.3615  0.6344  2.6515
  956MOL0     H28995   4.607   9.839   9.950 -0.5307  0.1674 -0.0076
  956MOL0     H28996   4.552   9.932   9.808  2.9146  0.5550  0.5715
  956MOL0     H28997   4.438   9.708   9.738 -1.3107  0.4380 -0.0083
  956MOL0     H28998   4.403   9.698   9.914  0.7139 -1.2655 -0.5560
  956MOL0     H28999   4.313   9.904   9.930 -0.6290 -0.4923  0.8605
  956MOL0     H29000   4.324   9.941   9.755 -3.1063 -0.0393 -0.4523
  956MOL0     H29001   4.166   9.760   9.694 -2.1983  0.6121  0.6125
  956MOL0     H29002   4.174   9.687   9.859 -4.4562 -1.0797  0.0138
  956MOL0     H29003   4.071   9.861   9.958  0.6485 -3.2168 -0.3698
  956MOL0     H29004   4.072   9.962   9.806 -1.3862  0.6087 -0.2835
  956MOL0     H29005   3.915   9.768   9.711  0.0533 -0.7241  0.3471
  956MOL0     H29006   3.927   9.697   9.863 -1.2741 -1.0363 -1.6291
  956MOL0     H29007   3.825   9.985   9.830 -1.6214 -0.3275 -0.4943
  956MOL0     H29008   3.738   9.849   9.774  0.2459 -2.5365  0.0787
  956MOL0     H29009   3.842   9.889  10.067 -0.5449  0.2493  0.9635
  956MOL0     H29010   3.736   9.758  10.007 -0.2194 -0.2434 -1.7237
  956MOL0     H29011   3.496   9.855   9.883 -1.3219  0.4916 -1.0897
  956MOL0     H29012   3.278  10.023   9.871 -2.1215  1.8576  0.3797
  956MOL0     H29013   3.237   9.939  10.019  0.3493  0.3728  0.2853
  956MOL0     H29014   3.304  10.235   9.987 -0.2570 -1.0530 -2.9156
  956MOL0     H29015   3.249  10.165  10.139  0.3879  0.7292  0.6830
  956MOL0     H29016   3.026  10.137  10.045 -1.2272  1.3506  0.9324
  956MOL0     H29017   3.083  10.179   9.879 -1.0577  2.7632 -0.7635
  956MOL0     H29018   2.973  10.358   9.940  1.3172 -1.0090 -2.8722
  956MOL0     H29019   3.140  10.400   9.946  0.5731  0.5246  0.8963
  956MOL0     H29020   3.062  10.429  10.368  0.4523 -0.9257 -1.2069
  956MOL0     H29021   3.024  10.521  10.570 -0.6416 -1.1119 -0.9600
  956MOL0     H29022   2.910  10.643  10.586  4.6232  0.8253  0.5858
  956MOL0     H29023   2.872  10.470  10.633 -1.2969 -0.7602 -1.6673
  956MOL0     H29024   2.303  10.676  10.222  0.3076  1.8736 -0.3204
  956MOL0     H29025   2.084  10.768  10.290  0.9024 -1.0831  0.6473
  956MOL0     H29026   1.881  10.885  10.388  0.3056  1.3548  0.3595
  956MOL0     H29027   1.877  10.713  10.407 -1.6768  1.8627 -1.4462
  956MOL0     H29028   1.679  10.772  10.505  0.0055  0.2134 -0.9780
  956MOL0     H29029   1.786  10.759  10.642  3.4926 -1.2163 -1.8261
  956MOL0     H29030   1.797  11.035  10.541  0.3841 -0.4198 -1.2783
  956MOL0     H29031   1.724  10.974  10.692 -2.4293  2.5123 -0.2107
  956MOL0     H29032   1.613  10.994  10.412  2.0616  0.4906  0.4024
  956MOL0     H29033   1.520  10.908  10.538 -0.4382  0.8787  0.1355
  956MOL0     H29034   1.568  11.218  10.561 -0.5897  0.0587  0.1446
  956MOL0     H29035   1.476  11.105  10.664  4.4629 -2.0155  1.2809
  956MOL0     H29036   1.408  11.119  10.372 -0.2606 -0.4727 -0.9970
  956MOL0     H29037   1.311  11.072  10.506  1.5010 -0.4766 -0.0357
  956MOL0     H29038   1.404  11.361  10.503 -0.0073  1.1810 -0.3776
  956MOL0     H29039   1.271  11.287  10.591 -2.7543  3.0111 -1.5534
  956MOL0     H29040   1.166  11.236  10.363  0.2543  0.8231 -2.3774
  956MOL0     H29041   1.295  11.341  10.300  1.9121 -0.9260  0.9954
  956MOL0     H29042   2.217  10.797  10.695 -0.3879  2.5902 -1.0907
  956MOL0     H29043   2.447  10.748  10.627 -1.2958 -1.3240  1.9643
  956MOL0     H29044   2.637  10.575  10.180  0.5300  1.2772  0.6264
  956MOL0     H29045   2.811  10.462  10.044 -1.0613  2.1098  0.9354
  956MOL0     H29046   4.834   9.920   9.611  1.7032  2.1686  0.2833
  956MOL0     H29047   5.056   9.972   9.651 -1.9578 -0.4850 -1.5582
  956MOL0     H29048   5.543   9.726   9.749  4.2626  1.2903 -1.0843
  956MOL0     H29049   5.775   9.767   9.843  1.0518  1.3734 -0.1038
  956MOL0     H29050   5.975   9.802   9.972  0.8875  1.2664  1.7166
  956MOL0     H29051   5.943   9.945   9.867 -0.3363  0.4449  0.1244
  956MOL0     H29052   6.101   9.946  10.125 -1.0372 -0.7164 -0.7839
  956MOL0     H29053   6.056  10.091  10.029  0.4299  0.0183 -2.0265
  956MOL0     H29054   6.177   9.991   9.833 -5.3191  1.1888  1.1643
  956MOL0     H29055   6.225   9.857   9.944 -1.5286  0.7952  0.9066
  956MOL0     H29056   6.299  10.146   9.974 -5.3377 -0.0611 -1.6657
  956MOL0     H29057   6.410  10.021   9.911 -1.3311 -2.8181 -0.5075
  956MOL0     H29058   6.464   9.941  10.308 -0.8784 -0.5174 -0.2948
  956MOL0     H29059   5.601  10.036  10.119 -2.9013 -2.3181  2.1245
  956MOL0     H29060   5.381   9.997  10.026  1.3243  2.9831 -2.1384
  957MOL0     O29061   9.290   0.379   1.572  1.5343 -0.7025  0.6793
  957MOL0     C29062   9.407   0.372   1.601  0.5220  0.4182  0.1010
  957MOL0     O29063   9.462   0.271   1.673  0.9094 -0.4221  0.0230
  957MOL0     C29064   9.373   0.171   1.717  0.4814  0.2776  0.1121
  957MOL0     C29065   9.286   0.088   1.636  0.0142  0.4051 -0.3719
  957MOL0     C29066   9.224  -0.025   1.692  0.0961  0.2291 -0.1947
  957MOL0     C29067   9.221  -0.044   1.835  0.1276  0.3000  0.0554
  957MOL0     O29068   9.148  -0.132   1.910 -0.3966 -0.0253  0.3828
  957MOL0     C29069   9.081  -0.236   1.831  0.7826 -0.1221 -0.4072
  957MOL0     C29070   8.985  -0.309   1.915  0.0698 -0.0688  0.3977
  957MOL0     C29071   8.866  -0.218   1.970  0.8774  0.1909 -0.1014
  957MOL0     C29072   8.765  -0.296   2.044  0.6955  0.7515 -0.1132
  957MOL0     C29073   8.693  -0.404   1.950 -0.5680 -0.2416 -0.0579
  957MOL0     C29074   8.567  -0.466   2.009 -0.1936 -0.7840  0.1407
  957MOL0     C29075   8.442  -0.377   1.978 -0.6515 -0.3309  0.6154
  957MOL0     C29076   8.418  -0.349   1.830  0.2470  0.2242 -0.4485
  957MOL0     N29077   8.289  -0.278   1.818  0.0898 -0.0354 -0.3652
  957MOL0     C29078   8.272  -0.146   1.836 -0.0731  0.3066  0.1596
  957MOL0     C29079   8.139  -0.121   1.817  0.3762  0.4506  0.6744
  957MOL0     C29080   8.078   0.017   1.812 -0.5018 -0.4890  0.3078
  957MOL0     C29081   7.946   0.019   1.882 -0.6132  0.3824 -0.4201
  957MOL0     C29082   7.834  -0.037   1.785 -0.5220  0.3906  0.8851
  957MOL0     C29083   7.695  -0.029   1.836 -0.1280  0.1626 -0.4774
  957MOL0     O29084   7.607  -0.084   1.738 -0.4783  0.1680 -0.0742
  957MOL0     C29085   7.475  -0.058   1.762  0.8449 -0.1376 -0.2691
  957MOL0     C29086   7.410  -0.058   1.888 -0.9547  0.1241 -0.3293
  957MOL0     C29087   7.272  -0.043   1.899  0.4775 -0.5520 -0.4604
  957MOL0     C29088   7.212  -0.088   2.029 -0.3626  0.0150 -0.0181
  957MOL0     C29089   7.196  -0.004   1.787 -0.2109  0.3562 -0.0866
  957MOL0     C29090   7.047   0.017   1.793 -0.3259  0.3194  0.4645
  957MOL0     O29091   6.993   0.066   1.670 -0.0130 -0.7744  0.0703
  957MOL0     C29092   6.862   0.113   1.670 -0.1303  0.5942  0.3374
  957MOL0     C29093   6.829   0.220   1.749 -0.3764 -0.0556 -0.2119
  957MOL0     C29094   6.698   0.273   1.758 -0.5602  0.7734  0.2111
  957MOL0     C29095   6.594   0.207   1.697 -0.3559  0.0595 -0.8614
  957MOL0     O29096   6.471   0.250   1.686  0.3052 -0.0232 -0.7608
  957MOL0     C29097   6.427   0.373   1.749  0.3486  0.5199  0.0050
  957MOL0     C29098   6.275   0.404   1.737 -1.5479  0.8372 -0.3335
  957MOL0     C29099   6.250   0.468   1.603  0.3588 -0.8087  0.0149
  957MOL0     C29100   6.111   0.479   1.559 -0.9119 -0.3475  0.6383
  957MOL0     C29101   6.082   0.585   1.455  0.7407 -0.4847  0.5622
  957MOL0     C29102   6.174   0.559   1.328 -0.1727  0.1498 -0.0834
  957MOL0     C29103   6.129   0.658   1.216  0.9277  0.0201 -0.5966
  957MOL0     C29104   6.217   0.659   1.092 -0.3550 -0.2022  0.4220
  957MOL0    Cl29105   6.405   0.657   1.126  0.1779  0.4340  0.3047
  957MOL0     C29106   6.626   0.098   1.616  0.3751  0.1645  0.1573
  957MOL0     C29107   6.753   0.045   1.600 -0.7368 -0.5762 -0.8671
  957MOL0     O29108   6.982  -0.003   1.889 -0.1510 -0.4117 -0.4692
  957MOL0     C29109   7.253   0.004   1.659 -0.5093  0.2230 -0.5560
  957MOL0     C29110   7.393  -0.034   1.653  0.3268 -0.7211 -0.2330
  957MOL0     N29111   8.083  -0.245   1.770  0.1814  0.0706 -0.1641
  957MOL0     N29112   8.173  -0.336   1.772 -0.1328  0.3989  0.0705
  957MOL0     C29113   9.294   0.044   1.916  0.0927 -0.2519 -0.3797
  957MOL0     C29114   9.370   0.153   1.858 -0.1608 -0.5514 -0.1441
  957MOL0     C29115   9.488   0.488   1.561  0.2334  0.1545  0.7880
  957MOL0     C29116   9.624   0.490   1.558 -0.4210 -0.0105  0.2049
  957MOL0     C29117   9.699   0.586   1.495 -0.2276 -0.4757 -0.5776
  957MOL0     C29118   9.643   0.701   1.441  0.8498  0.7156 -0.7332
  957MOL0     O29119   9.725   0.788   1.379 -0.3710 -0.8793 -0.1577
  957MOL0     C29120   9.671   0.886   1.302  0.2974  0.1589  0.8607
  957MOL0     C29121   9.777   0.929   1.192 -0.3190 -0.0663  0.2864
  957MOL0     C29122   9.881   1.026   1.273 -0.5894  0.8148  0.3430
  957MOL0     C29123  10.003   1.075   1.199 -0.0588  0.1814  0.0138
  957MOL0     C29124  10.074   0.970   1.129 -0.2294  0.1040  0.0244
  957MOL0     C29125  10.118   0.884   1.054 -0.0596  0.2001 -0.5711
  957MOL0     C29126   9.501   0.706   1.448  0.2599 -0.5484 -0.5017
  957MOL0     C29127   9.424   0.597   1.496  0.1897  0.1128 -0.4822
  957MOL0     H29128   9.292   0.109   1.530  1.4384  0.9450 -0.2096
  957MOL0     H29129   9.153  -0.083   1.634 -1.9774  1.9004  0.5435
  957MOL0     H29130   9.009  -0.189   1.763 -0.4118 -2.0814 -0.5492
  957MOL0     H29131   9.151  -0.303   1.780 -1.4738 -2.0630 -1.0966
  957MOL0     H29132   8.947  -0.392   1.855 -0.9343  1.4010 -1.1041
  957MOL0     H29133   9.040  -0.353   1.999  1.1775  0.4186 -0.0550
  957MOL0     H29134   8.903  -0.135   2.032 -2.1565  2.0214 -0.5335
  957MOL0     H29135   8.807  -0.178   1.888  0.3524  0.6544  0.4886
  957MOL0     H29136   8.816  -0.357   2.119 -0.5841 -0.7511 -0.4140
  957MOL0     H29137   8.682  -0.236   2.083  0.5522 -0.2032  1.1456
  957MOL0     H29138   8.675  -0.363   1.850  0.2867 -0.4907 -0.3250
  957MOL0     H29139   8.767  -0.482   1.928 -0.2529  0.7129 -2.7149
  957MOL0     H29140   8.545  -0.560   1.957  0.7208  0.7392 -3.2584
  957MOL0     H29141   8.584  -0.489   2.115  0.8154 -1.7414 -0.2069
  957MOL0     H29142   8.350  -0.419   2.018 -0.9908 -1.5496 -1.3388
  957MOL0     H29143   8.442  -0.282   2.033 -0.9190  1.6214 -2.5089
  957MOL0     H29144   8.424  -0.442   1.772  0.4265 -1.7601  2.5480
  957MOL0     H29145   8.498  -0.284   1.793 -1.4781  2.5047 -0.4273
  957MOL0     H29146   8.356  -0.080   1.855 -0.2135  0.1373  1.4498
  957MOL0     H29147   8.159   0.076   1.855 -0.2076 -2.2129  2.2260
  957MOL0     H29148   8.056   0.060   1.714  0.1386 -0.2371  0.2709
  957MOL0     H29149   7.933   0.126   1.902  0.6179  0.3632  0.6165
  957MOL0     H29150   7.958  -0.028   1.980  1.2653  0.4792 -0.5685
  957MOL0     H29151   7.849  -0.143   1.763 -1.5784  0.1246  1.3942
  957MOL0     H29152   7.843   0.020   1.692  1.4284 -2.2290 -0.6752
  957MOL0     H29153   7.664   0.071   1.866  0.5684  0.4426 -0.6679
  957MOL0     H29154   7.692  -0.085   1.930  3.5047 -1.1038 -0.9662
  957MOL0     H29155   7.463  -0.080   1.980 -0.7413  1.8756  0.0056
  957MOL0     H29156   7.131  -0.158   2.003  0.6612 -0.4582 -2.1661
  957MOL0     H29157   7.289  -0.138   2.087 -2.0430 -1.2938  1.2066
  957MOL0     H29158   7.181  -0.001   2.088  0.6601 -0.6599  1.5582
  957MOL0     H29159   6.904   0.275   1.804 -0.0280 -0.2320 -0.5002
  957MOL0     H29160   6.692   0.363   1.819  0.3053  0.2551  1.1051
  957MOL0     H29161   6.459   0.372   1.854  1.6453 -0.1912 -0.3739
  957MOL0     H29162   6.473   0.459   1.700 -4.1509  3.4844  0.3639
  957MOL0     H29163   6.210   0.316   1.744  0.6431 -1.0418 -1.9256
  957MOL0     H29164   6.246   0.463   1.824  1.8626  0.6054  1.0969
  957MOL0     H29165   6.298   0.418   1.518 -1.6027 -1.4849 -0.7470
  957MOL0     H29166   6.295   0.567   1.611 -0.2169 -0.5941  0.6198
  957MOL0     H29167   6.072   0.385   1.520  0.6387 -0.3408 -1.0687
  957MOL0     H29168   6.049   0.492   1.648  2.6077 -0.9463  3.3899
  957MOL0     H29169   6.110   0.683   1.495  0.4339 -0.1279 -0.0922
  957MOL0     H29170   5.977   0.577   1.428  0.4834 -1.7648  1.7933
  957MOL0     H29171   6.277   0.577   1.359 -0.2889 -0.0983  0.4492
  957MOL0     H29172   6.173   0.457   1.289  0.2595  0.9924 -2.4648
  957MOL0     H29173   6.149   0.753   1.266  1.6798 -0.7340  0.6121
  957MOL0     H29174   6.023   0.640   1.196  1.1645  0.3828 -2.2929
  957MOL0     H29175   6.191   0.738   1.020  2.8803 -0.0389 -0.7591
  957MOL0     H29176   6.191   0.564   1.045  3.0575 -1.4076  0.6712
  957MOL0     H29177   6.545   0.043   1.568  1.3925 -0.9192 -0.3660
  957MOL0     H29178   6.784  -0.036   1.535  2.0113 -1.4777  1.3588
  957MOL0     H29179   7.209   0.044   1.569  0.4856  1.6774 -0.4226
  957MOL0     H29180   7.455  -0.044   1.565  3.2125 -3.4762  1.9359
  957MOL0     H29181   9.288   0.039   2.024 -0.5416  0.7519 -0.3488
  957MOL0     H29182   9.423   0.221   1.924 -1.3999  0.9340 -0.6042
  957MOL0     H29183   9.674   0.406   1.606 -2.1809 -0.3809  1.4974
  957MOL0     H29184   9.808   0.592   1.502 -0.3414  1.0126  0.6156
  957MOL0     H29185   9.588   0.846   1.243 -0.8701 -1.9712  3.7187
  957MOL0     H29186   9.634   0.967   1.364 -1.5540  0.2989 -0.3468
  957MOL0     H29187   9.722   0.991   1.120 -2.9245 -1.1319  1.2174
  957MOL0     H29188   9.813   0.840   1.140 -2.3237  0.5206 -2.3228
  957MOL0     H29189   9.918   0.991   1.371  2.1207  3.5768  0.4429
  957MOL0     H29190   9.833   1.120   1.302  1.3966  1.6302  1.1721
  957MOL0     H29191  10.063   1.127   1.275 -1.8842  2.3596  0.0763
  957MOL0     H29192   9.970   1.153   1.130 -0.5887  1.4363  1.6209
  957MOL0     H29193  10.154   0.803   0.994  0.0909 -0.4528  0.3734
  957MOL0     H29194   9.450   0.794   1.411 -0.7042 -1.6220 -1.8292
  957MOL0     H29195   9.317   0.596   1.475  0.5473 -2.0871 -2.7011
  958MOL0     O29196   4.000   6.805   0.468  0.3162  0.0223  0.2455
  958MOL0     C29197   4.008   6.924   0.477 -0.0665  0.5746 -0.0101
  958MOL0     O29198   3.907   7.018   0.522  0.0481 -0.5029  0.1877
  958MOL0     C29199   3.782   6.984   0.526  0.7088  0.8838  0.1553
  958MOL0     C29200   3.691   7.089   0.497  0.3901 -0.5943  0.5158
  958MOL0     C29201   3.552   7.072   0.509  0.5135  0.2557  0.2254
  958MOL0     C29202   3.500   6.950   0.558 -0.3362  0.6511 -0.0071
  958MOL0     O29203   3.369   6.923   0.575 -0.6064  0.9342 -0.3716
  958MOL0     C29204   3.264   7.020   0.541  0.0778 -0.1954 -0.2666
  958MOL0     C29205   3.126   6.946   0.545  0.3256  0.2902 -0.2210
  958MOL0     C29206   3.019   7.050   0.569  0.1346  0.6127 -0.4903
  958MOL0     C29207   2.880   6.992   0.582 -0.2290  0.0524 -0.0516
  958MOL0     C29208   2.772   7.099   0.619  0.3117 -0.4587 -0.5519
  958MOL0     C29209   2.646   7.056   0.555 -0.6445  0.1627  0.0330
  958MOL0     C29210   2.535   7.159   0.599 -0.7379  0.2325  0.3976
  958MOL0     C29211   2.426   7.163   0.491 -0.0565 -0.9895 -0.2015
  958MOL0     N29212   2.318   7.257   0.521  0.7526  0.5587  0.5018
  958MOL0     C29213   2.320   7.396   0.506 -0.0744  0.0699 -0.9387
  958MOL0     C29214   2.189   7.433   0.506 -0.3608 -0.0934 -0.3744
  958MOL0     C29215   2.149   7.567   0.475 -0.2673  0.1219  0.3663
  958MOL0     C29216   1.998   7.581   0.424 -0.1066 -0.5881 -0.9946
  958MOL0     C29217   1.975   7.734   0.438  0.0516  0.0136  0.5522
  958MOL0     C29218   1.839   7.778   0.407 -0.2293 -0.6379 -0.0245
  958MOL0     O29219   1.825   7.918   0.436 -0.2891  0.0716  0.3357
  958MOL0     C29220   1.817   7.994   0.317  0.0080 -0.2361 -0.5396
  958MOL0     C29221   1.943   8.023   0.259 -0.5844 -0.0738 -0.5835
  958MOL0     C29222   1.949   8.090   0.135  0.2224 -0.1154  0.5955
  958MOL0     C29223   2.082   8.130   0.083  0.4073  0.9288 -0.5091
  958MOL0     C29224   1.828   8.134   0.078 -0.4689 -0.2497 -0.7469
  958MOL0     C29225   1.813   8.212  -0.052  0.5027 -0.3498 -1.0455
  958MOL0     O29226   1.693   8.230  -0.115 -0.0569  0.2693 -0.0883
  958MOL0     C29227   1.673   8.331  -0.203  0.1979 -0.4184  0.4175
  958MOL0     C29228   1.568   8.330  -0.299 -1.4357  0.6358  0.2278
  958MOL0     C29229   1.544   8.438  -0.379  0.9999 -0.4061 -1.4508
  958MOL0     C29230   1.615   8.563  -0.362  0.0235 -0.5222  0.9557
  958MOL0     O29231   1.565   8.679  -0.425 -0.4785 -0.3419 -0.0551
  958MOL0     C29232   1.656   8.775  -0.478  0.3014 -0.1946 -0.2729
  958MOL0     C29233   1.574   8.889  -0.532 -0.9368  0.2644  0.4383
  958MOL0     C29234   1.489   8.867  -0.662  0.1270  0.4392  0.2827
  958MOL0     C29235   1.369   8.960  -0.683 -0.4293 -0.6596  0.7097
  958MOL0     C29236   1.280   8.924  -0.795 -0.0808  0.3441 -0.1130
  958MOL0     C29237   1.152   9.005  -0.784  0.4178 -0.2440  0.7962
  958MOL0     C29238   1.047   8.981  -0.893 -0.3285 -0.6441 -0.6112
  958MOL0     C29239   0.935   9.088  -0.867  0.4761 -0.0170 -1.0346
  958MOL0    Cl29240   0.967   9.263  -0.922  0.0370 -0.1717  0.2389
  958MOL0     C29241   1.724   8.566  -0.272 -0.6209 -0.4900  0.0683
  958MOL0     C29242   1.739   8.456  -0.191 -0.7908 -0.7515  0.1843
  958MOL0     O29243   1.924   8.244  -0.104  0.2275 -0.6526 -0.4309
  958MOL0     C29244   1.712   8.109   0.141 -0.2878 -0.7377 -0.2434
  958MOL0     C29245   1.700   8.033   0.259  0.1816 -0.6611  0.2519
  958MOL0     N29246   2.110   7.328   0.537  0.6099  0.0721 -0.0143
  958MOL0     N29247   2.184   7.217   0.544 -0.0188 -1.0576  0.3341
  958MOL0     C29248   3.586   6.845   0.590 -0.3908 -0.2097  0.2029
  958MOL0     C29249   3.722   6.862   0.571 -0.8162  0.0043 -0.5855
  958MOL0     C29250   4.137   6.993   0.453  0.2512  0.3155 -0.1316
  958MOL0     C29251   4.157   7.133   0.489  0.3979  0.6905  0.7270
  958MOL0     C29252   4.286   7.197   0.469 -0.3307  0.5330 -0.5125
  958MOL0     C29253   4.387   7.130   0.401 -0.6180 -0.4090 -0.1705
  958MOL0     O29254   4.499   7.214   0.373  0.4886  0.7160 -0.0210
  958MOL0     C29255   4.600   7.158   0.284 -0.1335  0.4041  0.0274
  958MOL0     C29256   4.738   7.203   0.315  0.1709  0.2982  0.8254
  958MOL0     C29257   4.767   7.209   0.464 -0.0015 -0.6319 -0.9791
  958MOL0     C29258   4.905   7.253   0.509 -0.4981 -0.3956  0.7119
  958MOL0     C29259   4.935   7.386   0.455 -0.2169  0.5442 -0.4033
  958MOL0     C29260   4.974   7.494   0.411 -0.2239  0.3816 -0.5269
  958MOL0     C29261   4.367   6.993   0.366 -0.1990  1.1952  0.2440
  958MOL0     C29262   4.240   6.923   0.391 -0.6901 -0.9628  0.1112
  958MOL0     H29263   3.723   7.187   0.466 -0.6684 -0.2048  0.6249
  958MOL0     H29264   3.489   7.157   0.485  2.2209  1.1651 -1.2060
  958MOL0     H29265   3.267   7.105   0.610  1.1734 -1.2969  1.1387
  958MOL0     H29266   3.284   7.066   0.444 -1.5100 -2.3006 -1.6768
  958MOL0     H29267   3.099   6.887   0.457 -0.3624 -0.2367  0.3252
  958MOL0     H29268   3.127   6.880   0.633  0.5404 -0.6944 -0.9500
  958MOL0     H29269   3.048   7.097   0.663  1.2110  0.3487 -0.6732
  958MOL0     H29270   3.020   7.129   0.494 -1.5094 -0.3202 -1.5487
  958MOL0     H29271   2.858   6.951   0.483 -0.8301  0.4234 -0.0778
  958MOL0     H29272   2.885   6.904   0.645  1.5702 -1.1986 -1.8105
  958MOL0     H29273   2.759   7.096   0.728  0.1142 -3.6815 -0.5630
  958MOL0     H29274   2.800   7.199   0.583  0.3449  0.8407  2.7305
  958MOL0     H29275   2.654   7.064   0.447 -1.2974  0.3152 -0.0062
  958MOL0     H29276   2.608   6.955   0.574  0.1749 -0.0473  0.6072
  958MOL0     H29277   2.499   7.128   0.697  2.0156  0.2564  1.4824
  958MOL0     H29278   2.578   7.258   0.610  0.0637 -0.4215  4.5023
  958MOL0     H29279   2.384   7.066   0.463 -0.0768 -1.7208  2.1772
  958MOL0     H29280   2.465   7.202   0.396  2.0147  0.7127  1.2367
  958MOL0     H29281   2.413   7.443   0.476  0.5353 -0.6190 -0.1785
  958MOL0     H29282   2.175   7.625   0.565  1.6241 -0.2373  0.0968
  958MOL0     H29283   2.210   7.607   0.393 -2.2115 -0.9779 -1.7214
  958MOL0     H29284   1.934   7.522   0.489 -0.0723 -0.7505 -1.1073
  958MOL0     H29285   1.988   7.551   0.319  4.2062  0.0652 -1.7966
  958MOL0     H29286   2.049   7.787   0.379 -1.1682  1.2378  0.0644
  958MOL0     H29287   1.992   7.747   0.545  0.8447 -1.5773  0.6522
  958MOL0     H29288   1.776   7.712   0.468 -0.1163  1.0974  2.1070
  958MOL0     H29289   1.813   7.748   0.305 -2.7005 -0.6480  0.5471
  958MOL0     H29290   2.030   7.979   0.307 -1.0225 -1.3266 -0.9069
  958MOL0     H29291   2.098   8.076  -0.011  0.6448 -2.4801  1.3334
  958MOL0     H29292   2.081   8.240   0.075  3.8902  1.2881  1.6008
  958MOL0     H29293   2.164   8.117   0.154  0.9148  0.1297 -1.2228
  958MOL0     H29294   1.514   8.236  -0.311  0.2373 -0.1861 -1.2236
  958MOL0     H29295   1.462   8.425  -0.449  0.9151 -0.5792 -1.3216
  958MOL0     H29296   1.721   8.816  -0.401 -1.9012  0.5104  1.2998
  958MOL0     H29297   1.711   8.725  -0.559  1.7355 -0.9140  1.1033
  958MOL0     H29298   1.509   8.926  -0.452 -3.2454  0.3430 -1.3686
  958MOL0     H29299   1.649   8.961  -0.566  2.5870 -2.6402  1.4465
  958MOL0     H29300   1.460   8.762  -0.655 -2.1016  1.0765  1.8702
  958MOL0     H29301   1.548   8.879  -0.753  0.9162 -2.0044  0.3923
  958MOL0     H29302   1.320   8.966  -0.585 -0.4752 -1.8241  0.7622
  958MOL0     H29303   1.401   9.063  -0.706 -1.3903 -0.3492  0.7161
  958MOL0     H29304   1.252   8.818  -0.794 -0.2207  0.3838  0.1876
  958MOL0     H29305   1.336   8.938  -0.888  0.3322  0.7561  0.1945
  958MOL0     H29306   1.110   8.982  -0.686 -0.7815  1.5652  0.7575
  958MOL0     H29307   1.157   9.113  -0.768 -1.1484 -0.1765  0.9661
  958MOL0     H29308   1.012   8.877  -0.890 -3.0498  0.1990 -1.0428
  958MOL0     H29309   1.082   8.990  -0.996  0.1813 -1.4627 -0.5207
  958MOL0     H29310   0.916   9.100  -0.760  0.1655  0.1272 -1.1055
  958MOL0     H29311   0.838   9.057  -0.905  0.5868  1.6024 -2.7488
  958MOL0     H29312   1.786   8.654  -0.263  0.8159 -1.5282  0.7716
  958MOL0     H29313   1.805   8.471  -0.106 -0.4559 -0.0331 -0.1956
  958MOL0     H29314   1.615   8.143   0.106 -0.5405  0.3252  1.3606
  958MOL0     H29315   1.606   8.010   0.308  0.6901 -2.2858  0.4930
  958MOL0     H29316   3.550   6.749   0.625  3.0247 -1.1341  1.5670
  958MOL0     H29317   3.797   6.786   0.588  0.8915  1.6107 -0.7043
  958MOL0     H29318   4.076   7.187   0.538 -1.5976 -0.2638 -1.3515
  958MOL0     H29319   4.303   7.303   0.484  1.3548  0.3941 -1.2289
  958MOL0     H29320   4.609   7.049   0.282  2.0322  0.5489 -0.8746
  958MOL0     H29321   4.579   7.178   0.178  1.0516 -0.6486 -0.4272
  958MOL0     H29322   4.750   7.299   0.265  0.8428 -0.6929 -1.0151
  958MOL0     H29323   4.818   7.135   0.282  1.5130  2.7999 -1.4357
  958MOL0     H29324   4.742   7.123   0.526 -2.1534 -0.5264 -1.6279
  958MOL0     H29325   4.704   7.287   0.506  1.3351 -1.1628  2.2725
  958MOL0     H29326   4.983   7.185   0.474 -1.0748 -0.4071 -0.6245
  958MOL0     H29327   4.907   7.261   0.618 -3.0675 -0.4917  0.8472
  958MOL0     H29328   5.018   7.583   0.372  3.3817 -1.3617 -0.8524
  958MOL0     H29329   4.449   6.934   0.324  1.0188  1.6999  1.8063
  958MOL0     H29330   4.232   6.818   0.364  5.3672 -1.4182 -1.5136
  959MOL0     O29331   9.958   7.043   7.145 -0.2894  0.4706 -0.0283
  959MOL0     C29332   9.950   7.162   7.158 -0.1491  0.3978 -0.0009
  959MOL0     O29333   9.840   7.236   7.137 -0.2445  0.1122 -0.5006
  959MOL0     C29334   9.718   7.176   7.131  0.9672  0.2555 -0.1109
  959MOL0     C29335   9.616   7.225   7.220 -0.3462 -0.4751  0.1244
  959MOL0     C29336   9.491   7.161   7.215 -0.4446 -0.1518  0.5728
  959MOL0     C29337   9.476   7.052   7.137 -1.0636 -0.2640 -0.4992
  959MOL0     O29338   9.356   6.983   7.135 -0.2103  0.3217  0.2817
  959MOL0     C29339   9.238   7.019   7.208 -1.0227  0.0846  0.1242
  959MOL0     C29340   9.147   6.902   7.175  0.1452  0.6440  0.2989
  959MOL0     C29341   9.014   6.901   7.251 -0.0269  0.2883 -0.2577
  959MOL0     C29342   8.919   6.797   7.187 -0.1008  0.7793 -0.0451
  959MOL0     C29343   8.794   6.763   7.272  0.3587 -0.0605  0.1779
  959MOL0     C29344   8.717   6.890   7.303 -0.6801 -0.9853  0.9875
  959MOL0     C29345   8.583   6.854   7.359  1.0636 -0.2248  0.5712
  959MOL0     C29346   8.496   6.980   7.376 -0.8159  0.9138 -0.7337
  959MOL0     N29347   8.387   6.948   7.462  0.1111  1.2545  0.0472
  959MOL0     C29348   8.258   6.914   7.418 -0.3484 -0.1405  0.6692
  959MOL0     C29349   8.184   6.910   7.530  0.0733  1.1349 -0.0245
  959MOL0     C29350   8.043   6.862   7.516  0.9774  0.5757  0.2668
  959MOL0     C29351   7.951   6.949   7.423 -0.4909  0.5369 -0.5957
  959MOL0     C29352   7.798   6.917   7.430  0.0487  0.4119  0.0862
  959MOL0     C29353   7.757   6.778   7.362 -0.6249 -0.4238  0.2128
  959MOL0     O29354   7.683   6.699   7.455 -0.9205  0.2275 -0.4454
  959MOL0     C29355   7.546   6.707   7.473 -0.3312 -0.0187  0.4530
  959MOL0     C29356   7.472   6.817   7.451 -0.5443 -0.1308 -0.3963
  959MOL0     C29357   7.336   6.825   7.489 -0.0918  0.6058  0.5772
  959MOL0     C29358   7.272   6.957   7.443 -0.0879  0.2968 -0.2775
  959MOL0     C29359   7.268   6.721   7.544 -0.1599 -0.0267 -0.6088
  959MOL0     C29360   7.133   6.724   7.582  0.1200  0.0508 -1.0864
  959MOL0     O29361   7.058   6.842   7.568  0.8052  0.3795 -1.6534
  959MOL0     C29362   6.929   6.852   7.611  0.2243  0.7141  0.0216
  959MOL0     C29363   6.875   6.804   7.730 -0.6167  0.0684 -0.9018
  959MOL0     C29364   6.743   6.823   7.756  0.3735  0.2221  0.1259
  959MOL0     C29365   6.668   6.901   7.662  0.4517 -0.0239  1.2542
  959MOL0     O29366   6.533   6.918   7.665  0.6442  0.2152 -0.4472
  959MOL0     C29367   6.463   6.877   7.781  0.5129  0.2295  0.0676
  959MOL0     C29368   6.310   6.895   7.764  0.3682  0.1224 -0.5840
  959MOL0     C29369   6.273   7.045   7.776 -0.2621 -0.4540  0.5028
  959MOL0     C29370   6.126   7.056   7.755 -0.2709 -0.1948 -0.1370
  959MOL0     C29371   6.087   7.204   7.744  0.1271 -0.5040 -0.9648
  959MOL0     C29372   6.038   7.256   7.876 -0.3214  0.6514  0.3826
  959MOL0     C29373   5.995   7.397   7.867 -0.4711  1.3896 -0.0819
  959MOL0     C29374   5.922   7.442   8.002  0.0264 -0.5684  0.2311
  959MOL0    Cl29375   5.937   7.610   8.027 -0.0247 -0.4442  0.6836
  959MOL0     C29376   6.724   6.956   7.555  0.6549  0.2420 -1.2199
  959MOL0     C29377   6.860   6.942   7.527 -0.3805  0.5466  1.0085
  959MOL0     O29378   7.081   6.618   7.623 -0.1046  0.2061  1.3883
  959MOL0     C29379   7.340   6.601   7.554  0.9928  0.1479 -0.9622
  959MOL0     C29380   7.476   6.597   7.528 -0.5352  0.4551  0.2973
  959MOL0     N29381   8.260   6.926   7.642 -0.4255  0.5773  0.2026
  959MOL0     N29382   8.383   6.964   7.596  0.5051 -0.2865  0.0105
  959MOL0     C29383   9.573   7.004   7.045  0.7971 -0.3017 -1.2514
  959MOL0     C29384   9.692   7.068   7.037 -0.9270  0.1330 -0.5443
  959MOL0     C29385  10.064   7.228   7.218 -0.2712 -0.2310 -0.7866
  959MOL0     C29386  10.072   7.366   7.237 -0.0375  0.2249  0.0204
  959MOL0     C29387  10.186   7.428   7.287 -0.3216  0.3557  0.4647
  959MOL0     C29388  10.303   7.357   7.295 -0.1175  0.1043  0.5938
  959MOL0     O29389  10.413   7.431   7.332 -0.1502 -0.8411  0.3673
  959MOL0     C29390  10.505   7.376   7.422  0.7565  0.1304 -1.0713
  959MOL0     C29391  10.629   7.468   7.427  0.0066  0.3281 -0.5056
  959MOL0     C29392  10.738   7.406   7.518 -0.4109 -0.5745  0.0818
  959MOL0     C29393  10.863   7.496   7.533 -0.6606 -0.3864  0.2750
  959MOL0     C29394  10.949   7.431   7.627  0.4853  0.4582 -0.0689
  959MOL0     C29395  11.028   7.383   7.708 -1.4521  0.3139 -0.7389
  959MOL0     C29396  10.302   7.216   7.279 -0.0397  0.1624 -0.1921
  959MOL0     C29397  10.180   7.158   7.244 -0.3310  0.1256  0.0294
  959MOL0     H29398   9.635   7.310   7.285 -2.0046 -0.9113  1.2329
  959MOL0     H29399   9.422   7.202   7.289 -2.0725 -0.8082 -0.5195
  959MOL0     H29400   9.262   7.025   7.315  1.8906 -0.4010 -0.4194
  959MOL0     H29401   9.189   7.111   7.175  0.4617  1.2695  1.0968
  959MOL0     H29402   9.123   6.921   7.070 -0.7517  1.8706  0.7059
  959MOL0     H29403   9.203   6.808   7.186 -0.8288  0.0166  0.0845
  959MOL0     H29404   9.034   6.879   7.356  0.0947 -0.4192 -0.4262
  959MOL0     H29405   8.959   6.995   7.260 -1.0610 -0.5078  4.7311
  959MOL0     H29406   8.878   6.819   7.088 -4.1275 -4.1520  0.0773
  959MOL0     H29407   8.984   6.711   7.171  0.3291  0.9627  0.6742
  959MOL0     H29408   8.729   6.703   7.208  1.2699 -0.3329 -0.5254
  959MOL0     H29409   8.816   6.706   7.362  1.5800  2.8961  1.8997
  959MOL0     H29410   8.772   6.949   7.377  1.0186 -0.0090 -0.9440
  959MOL0     H29411   8.714   6.950   7.211  3.7763 -0.5635  0.8879
  959MOL0     H29412   8.526   6.793   7.289 -0.9050  0.0914  1.8248
  959MOL0     H29413   8.596   6.805   7.456  1.4622  0.8056  1.0564
  959MOL0     H29414   8.455   7.009   7.279 -0.6039  1.8225 -0.5644
  959MOL0     H29415   8.558   7.056   7.426 -0.5841  0.5451 -0.4519
  959MOL0     H29416   8.222   6.900   7.317  1.4939  1.7503 -0.3133
  959MOL0     H29417   8.038   6.762   7.473 -4.3352  0.2077  1.0878
  959MOL0     H29418   7.999   6.870   7.617  1.5902  1.4060  0.4781
  959MOL0     H29419   7.990   6.924   7.323  0.9293 -2.2551  0.5667
  959MOL0     H29420   7.963   7.056   7.443 -0.5168  0.5872 -0.8420
  959MOL0     H29421   7.736   6.996   7.387 -3.5365 -0.0004  3.8007
  959MOL0     H29422   7.779   6.911   7.538 -0.4252  2.6672  0.1767
  959MOL0     H29423   7.852   6.727   7.347 -0.3151 -0.0946  1.0333
  959MOL0     H29424   7.719   6.794   7.261 -1.4236 -1.0623  0.4008
  959MOL0     H29425   7.519   6.885   7.381 -0.7156  1.9682  1.4358
  959MOL0     H29426   7.348   7.012   7.385 -0.5398 -1.7150 -3.0156
  959MOL0     H29427   7.188   6.945   7.374 -1.6783 -0.8351  1.7500
  959MOL0     H29428   7.247   7.012   7.534 -3.6578 -0.6455 -0.5473
  959MOL0     H29429   6.932   6.760   7.811 -1.4760 -0.9101 -0.8187
  959MOL0     H29430   6.693   6.793   7.848  0.7582 -2.1024 -0.3650
  959MOL0     H29431   6.468   6.771   7.811 -0.3405 -0.5656 -2.3859
  959MOL0     H29432   6.499   6.945   7.859  0.1028  0.8846 -0.3111
  959MOL0     H29433   6.275   6.866   7.664  0.5579  2.7951 -1.5225
  959MOL0     H29434   6.265   6.842   7.848  2.7199  1.9230  1.9818
  959MOL0     H29435   6.324   7.106   7.702 -0.6463 -2.1581 -1.2332
  959MOL0     H29436   6.302   7.095   7.869  0.4039  3.9330 -1.8320
  959MOL0     H29437   6.097   7.028   7.654 -2.1114  0.3733  0.2075
  959MOL0     H29438   6.063   7.005   7.828 -0.0093  2.0476  1.7635
  959MOL0     H29439   6.004   7.211   7.673  0.0356  0.1030 -0.8027
  959MOL0     H29440   6.170   7.265   7.707 -1.6144  1.0590 -2.5413
  959MOL0     H29441   5.954   7.190   7.900  1.8080 -2.8508 -0.8978
  959MOL0     H29442   6.118   7.236   7.948 -0.8083 -3.0917  0.0892
  959MOL0     H29443   5.939   7.395   7.773  2.9742 -0.0928 -2.3494
  959MOL0     H29444   6.078   7.466   7.845 -0.8674  1.8667 -0.1218
  959MOL0     H29445   5.967   7.389   8.087  0.1987  1.9587  1.8027
  959MOL0     H29446   5.814   7.429   7.995 -0.2127  1.4126 -0.1174
  959MOL0     H29447   6.666   7.018   7.487  1.0794  3.0353  0.7717
  959MOL0     H29448   6.913   6.982   7.441  2.0083 -0.7758  1.7585
  959MOL0     H29449   7.297   6.509   7.592 -0.0431  0.9076 -0.2041
  959MOL0     H29450   7.532   6.507   7.551  0.9132  1.1162 -0.5152
  959MOL0     H29451   9.544   6.918   6.987  0.0093  0.7109 -2.3948
  959MOL0     H29452   9.775   7.026   6.982  1.8479  2.1716  1.7280
  959MOL0     H29453   9.976   7.415   7.221 -0.7768 -1.0409  0.3895
  959MOL0     H29454  10.186   7.537   7.290 -0.5018  0.3933 -0.6920
  959MOL0     H29455  10.449   7.374   7.515 -0.6695 -1.2944 -1.9108
  959MOL0     H29456  10.527   7.274   7.387 -0.2873  0.0564 -1.5315
  959MOL0     H29457  10.591   7.564   7.462 -2.8125 -1.1889  0.9698
  959MOL0     H29458  10.656   7.478   7.322 -1.8016  0.7955 -0.9675
  959MOL0     H29459  10.775   7.319   7.463 -0.2385  0.1084 -0.8949
  959MOL0     H29460  10.712   7.385   7.622  1.0121 -2.3981  0.1315
  959MOL0     H29461  10.834   7.594   7.573 -2.2443 -0.3880 -0.7518
  959MOL0     H29462  10.911   7.513   7.436 -1.0619  0.2730  0.1874
  959MOL0     H29463  11.110   7.366   7.776 -1.6939  2.3245  0.1188
  959MOL0     H29464  10.378   7.145   7.310 -2.1892 -3.2732 -2.1600
  959MOL0     H29465  10.185   7.050   7.237 -2.2561 -0.0416  0.7064
  960MOL0     O29466   7.042   1.094   2.955 -0.7099  0.0730 -0.1506
  960MOL0     C29467   7.058   0.976   2.918  0.0519  0.2181 -0.2410
  960MOL0     O29468   6.973   0.880   2.952 -0.0822  0.4007  0.0440
  960MOL0     C29469   6.847   0.915   2.983  0.9429  0.0820  0.6840
  960MOL0     C29470   6.780   0.819   3.062  0.7760  0.2391  0.7200
  960MOL0     C29471   6.656   0.838   3.113 -0.1077 -0.0528 -0.1354
  960MOL0     C29472   6.595   0.963   3.102 -0.3109 -0.8011  0.7623
  960MOL0     O29473   6.486   0.976   3.185  0.4670 -0.1735  0.6659
  960MOL0     C29474   6.367   1.037   3.122  0.1691 -0.1961  0.3778
  960MOL0     C29475   6.244   0.995   3.201  1.2426 -0.2954  0.0644
  960MOL0     C29476   6.111   1.054   3.158 -0.1839 -0.7344  0.4328
  960MOL0     C29477   6.073   1.033   3.014 -0.0953  0.1486 -0.6283
  960MOL0     C29478   5.949   1.104   2.974  0.4947 -0.4582 -0.2117
  960MOL0     C29479   5.816   1.020   3.006 -0.3943 -0.3969 -0.0696
  960MOL0     C29480   5.689   1.101   2.988 -0.9071  0.1924  0.2212
  960MOL0     C29481   5.683   1.225   3.075  0.4359  0.5948 -0.5084
  960MOL0     N29482   5.545   1.272   3.055 -0.9978 -1.0418 -0.5343
  960MOL0     C29483   5.490   1.310   2.936  0.5630 -0.0264  0.4453
  960MOL0     C29484   5.367   1.360   2.962  0.0792 -0.1660  0.9408
  960MOL0     C29485   5.262   1.416   2.869 -0.4442 -0.7217 -1.1106
  960MOL0     C29486   5.289   1.556   2.832 -1.4314 -0.6433 -0.2783
  960MOL0     C29487   5.244   1.600   2.687 -0.6709  0.0950  0.0119
  960MOL0     C29488   5.095   1.578   2.676  0.2007 -0.3146 -0.1049
  960MOL0     O29489   5.019   1.673   2.761  0.4405 -0.2269 -0.1162
  960MOL0     C29490   4.884   1.692   2.739 -0.1046 -0.4629 -0.5868
  960MOL0     C29491   4.819   1.813   2.766 -0.6913 -0.4926 -1.2237
  960MOL0     C29492   4.691   1.845   2.718 -0.4054 -0.3742 -0.1079
  960MOL0     C29493   4.636   1.985   2.762 -0.6471 -0.8756  0.4231
  960MOL0     C29494   4.622   1.741   2.657 -1.0305  0.5016  0.3522
  960MOL0     C29495   4.481   1.743   2.611  0.2823 -0.7306 -0.4666
  960MOL0     O29496   4.437   1.654   2.518 -0.7328  0.2811  0.2009
  960MOL0     C29497   4.305   1.674   2.479  0.3764  0.1339 -0.1502
  960MOL0     C29498   4.284   1.732   2.354  0.6692  1.1303  0.2575
  960MOL0     C29499   4.158   1.765   2.316  0.1434  0.2975 -0.2633
  960MOL0     C29500   4.045   1.730   2.398 -0.0889  0.3315 -0.8602
  960MOL0     O29501   3.923   1.772   2.339 -0.4417 -0.2456  0.1239
  960MOL0     C29502   3.799   1.749   2.406  0.0810  0.3952 -0.0445
  960MOL0     C29503   3.706   1.862   2.384 -0.0915 -0.4366  1.2126
  960MOL0     C29504   3.564   1.849   2.444  0.0559  0.2702  0.1360
  960MOL0     C29505   3.498   1.988   2.457  0.0480 -0.0228 -1.2078
  960MOL0     C29506   3.346   1.977   2.455 -0.5469 -0.4566 -0.1258
  960MOL0     C29507   3.288   1.885   2.568  0.0587  0.1324  0.3050
  960MOL0     C29508   3.326   1.914   2.719  0.5255 -0.1387  0.7885
  960MOL0     C29509   3.269   2.057   2.757  0.6723 -0.6214 -0.9295
  960MOL0    Cl29510   3.263   2.075   2.936 -0.2224 -0.2124 -0.2208
  960MOL0     C29511   4.065   1.672   2.528 -0.2467  0.1891 -1.0852
  960MOL0     C29512   4.194   1.647   2.568  0.3106  0.1300 -0.6265
  960MOL0     O29513   4.416   1.841   2.650  0.4946  0.3817  0.4861
  960MOL0     C29514   4.683   1.610   2.642 -0.6162 -0.2467 -0.4150
  960MOL0     C29515   4.807   1.593   2.682 -0.9919 -0.1813 -0.0652
  960MOL0     N29516   5.351   1.347   3.097 -0.4303 -0.1838 -0.3662
  960MOL0     N29517   5.461   1.290   3.147  0.6584 -0.6832 -0.3247
  960MOL0     C29518   6.650   1.057   3.015  0.4629 -0.1167 -0.4454
  960MOL0     C29519   6.773   1.031   2.955  0.5271  0.1778 -0.1956
  960MOL0     C29520   7.184   0.933   2.850  0.6598 -0.2665 -0.5538
  960MOL0     C29521   7.280   1.030   2.817  0.7584 -0.2514  0.4797
  960MOL0     C29522   7.395   0.997   2.737  0.8110 -0.9397  0.7804
  960MOL0     C29523   7.420   0.867   2.701 -1.1536 -0.3269 -0.2676
  960MOL0     O29524   7.546   0.837   2.638 -0.0979 -0.5192  0.2077
  960MOL0     C29525   7.610   0.933   2.552  0.3252 -0.4013  0.0410
  960MOL0     C29526   7.740   0.965   2.627  0.1332 -0.2361 -0.3509
  960MOL0     C29527   7.846   0.861   2.637  0.4529 -0.1096  0.4385
  960MOL0     C29528   7.983   0.925   2.647 -1.2427  0.8903 -0.1117
  960MOL0     C29529   8.071   0.832   2.719 -0.3982 -0.4463 -0.6074
  960MOL0     C29530   8.151   0.755   2.773  0.2948  0.5292 -0.1486
  960MOL0     C29531   7.324   0.764   2.728 -0.6366 -0.1050  0.0761
  960MOL0     C29532   7.212   0.804   2.811 -0.0823  0.6258 -0.2375
  960MOL0     H29533   6.835   0.726   3.074 -1.3958 -1.2339 -0.1641
  960MOL0     H29534   6.611   0.767   3.181  1.1682 -0.9195 -0.1772
  960MOL0     H29535   6.375   1.146   3.120 -2.1251  0.0304 -1.0937
  960MOL0     H29536   6.354   0.998   3.020 -1.2153 -0.9095  0.7997
  960MOL0     H29537   6.245   0.885   3.200 -1.5455 -0.4551  2.1956
  960MOL0     H29538   6.268   1.034   3.300  1.5550  0.2041 -0.2020
  960MOL0     H29539   6.031   1.020   3.223 -1.3908  0.2279 -0.4956
  960MOL0     H29540   6.111   1.161   3.180 -1.6030 -0.8977  1.3245
  960MOL0     H29541   6.149   1.074   2.947 -2.7005  1.7446 -2.8282
  960MOL0     H29542   6.053   0.926   3.003 -1.3087  0.3692 -0.6758
  960MOL0     H29543   5.941   1.194   3.037 -1.8382 -0.7658  0.0036
  960MOL0     H29544   5.948   1.127   2.867  0.4092 -1.8917 -0.5363
  960MOL0     H29545   5.820   0.931   2.943 -1.2747  0.0334 -0.7631
  960MOL0     H29546   5.820   0.992   3.112 -0.2468  0.6409  0.2104
  960MOL0     H29547   5.699   1.127   2.882  1.7984 -0.2383  0.2935
  960MOL0     H29548   5.596   1.045   2.991 -1.2264  0.5876 -1.1690
  960MOL0     H29549   5.749   1.303   3.036  1.5395 -0.2589 -0.3692
  960MOL0     H29550   5.695   1.201   3.180 -0.1257  0.0555 -0.5611
  960MOL0     H29551   5.535   1.304   2.837  1.9263 -2.0447  1.1237
  960MOL0     H29552   5.266   1.359   2.776  5.4616 -3.3615  0.3167
  960MOL0     H29553   5.167   1.417   2.924 -0.5598 -1.5248 -1.2875
  960MOL0     H29554   5.395   1.579   2.835 -1.1599 -1.8961  1.1259
  960MOL0     H29555   5.234   1.620   2.902  0.7358  1.4938 -0.4158
  960MOL0     H29556   5.295   1.543   2.608  0.3756  0.7180  0.2260
  960MOL0     H29557   5.262   1.706   2.672 -0.6545 -0.1356 -1.8899
  960MOL0     H29558   5.072   1.473   2.693 -0.1892 -0.3049 -0.5531
  960MOL0     H29559   5.064   1.603   2.574 -1.6762  2.1652  0.9417
  960MOL0     H29560   4.886   1.894   2.794  0.8486 -1.2058 -2.6675
  960MOL0     H29561   4.578   1.966   2.853 -1.0985 -1.1277  0.0876
  960MOL0     H29562   4.719   2.055   2.772 -0.6671  0.0264 -3.7497
  960MOL0     H29563   4.567   2.032   2.690  0.6713  1.1119  0.3872
  960MOL0     H29564   4.364   1.744   2.281  1.6694  0.8174  1.2704
  960MOL0     H29565   4.146   1.815   2.221  1.3077  0.8060 -0.1484
  960MOL0     H29566   3.749   1.670   2.350 -0.6214  0.5604  0.3406
  960MOL0     H29567   3.812   1.737   2.514 -1.3675 -1.2299 -0.0107
  960MOL0     H29568   3.754   1.956   2.412 -0.0042  0.0625 -0.4871
  960MOL0     H29569   3.694   1.861   2.275 -2.2056 -0.1381  1.3937
  960MOL0     H29570   3.573   1.805   2.543 -0.0412  2.0214  0.9540
  960MOL0     H29571   3.496   1.785   2.386 -1.5297  0.8396  1.2883
  960MOL0     H29572   3.534   2.030   2.551  1.2934  1.0758 -2.1186
  960MOL0     H29573   3.532   2.050   2.373  1.6758 -1.2334 -1.4799
  960MOL0     H29574   3.316   1.945   2.354 -0.5937  0.7681 -0.5192
  960MOL0     H29575   3.307   2.079   2.462  1.7556  0.3990  1.3822
  960MOL0     H29576   3.179   1.879   2.562 -0.0519  0.8573  1.3738
  960MOL0     H29577   3.323   1.783   2.552 -0.8580 -0.1494  0.0569
  960MOL0     H29578   3.432   1.902   2.739  0.4673 -1.9373  0.1674
  960MOL0     H29579   3.279   1.849   2.793  2.0576 -0.4291  1.5260
  960MOL0     H29580   3.174   2.079   2.708  1.8812  1.6631 -2.4749
  960MOL0     H29581   3.338   2.133   2.719  1.3585 -1.7566 -2.0550
  960MOL0     H29582   3.983   1.635   2.588  2.2725 -3.0731  0.7126
  960MOL0     H29583   4.207   1.607   2.669  1.1581 -0.3962 -0.9281
  960MOL0     H29584   4.636   1.524   2.596  0.1188 -2.2526  2.3426
  960MOL0     H29585   4.841   1.494   2.655 -1.8507 -0.0292 -1.8824
  960MOL0     H29586   6.606   1.155   2.996  3.5488  2.2323  3.1335
  960MOL0     H29587   6.804   1.110   2.888 -1.2469 -0.9316 -2.5059
  960MOL0     H29588   7.274   1.135   2.843 -3.6703 -0.3534  0.7348
  960MOL0     H29589   7.465   1.075   2.710 -1.6987  1.4456  0.6810
  960MOL0     H29590   7.634   0.892   2.454  2.0837 -2.2574  1.1829
  960MOL0     H29591   7.551   1.024   2.535  0.5644 -0.4363 -1.0155
  960MOL0     H29592   7.710   0.992   2.728  1.1542 -0.6017  0.0615
  960MOL0     H29593   7.787   1.054   2.583  2.3164 -1.3591 -0.3990
  960MOL0     H29594   7.849   0.799   2.547  0.4283 -0.6582  0.8093
  960MOL0     H29595   7.835   0.794   2.723  2.7614 -0.0789  0.8344
  960MOL0     H29596   7.985   1.021   2.699  0.2897  0.9775 -0.3001
  960MOL0     H29597   8.012   0.942   2.543 -2.9252  0.5821 -0.6645
  960MOL0     H29598   8.216   0.681   2.814 -1.8409 -1.1077  0.4588
  960MOL0     H29599   7.330   0.663   2.690  0.6993 -0.2090  0.4896
  960MOL0     H29600   7.139   0.728   2.834  0.1976  1.6318  5.2074
  961MOL0     O29601   7.834   1.677   5.136  0.8269 -0.3838 -0.6725
  961MOL0     C29602   7.932   1.698   5.068  0.5934  0.5931  0.0236
  961MOL0     O29603   7.937   1.787   4.968 -0.1971  0.1164  0.1460
  961MOL0     C29604   7.820   1.844   4.915  0.2678  0.2281  0.2119
  961MOL0     C29605   7.839   1.965   4.867 -0.1750 -0.7437 -0.1590
  961MOL0     C29606   7.728   2.032   4.804  0.0958 -0.0228  0.7958
  961MOL0     C29607   7.594   1.988   4.812 -0.9286  0.4442 -0.0265
  961MOL0     O29608   7.499   2.064   4.747  0.1778 -0.4832  0.2437
  961MOL0     C29609   7.362   2.024   4.760  0.0356  0.2792  0.0673
  961MOL0     C29610   7.274   2.115   4.678 -0.5069  0.3857  0.4569
  961MOL0     C29611   7.120   2.095   4.695 -0.5170  0.2197  0.1054
  961MOL0     C29612   7.023   2.147   4.578 -0.8034 -0.9818  0.3265
  961MOL0     C29613   6.884   2.132   4.627 -0.0599 -0.4078 -0.0208
  961MOL0     C29614   6.847   1.980   4.620  0.2109 -0.4259  0.3262
  961MOL0     C29615   6.700   1.959   4.655 -0.3257  0.7761 -0.1189
  961MOL0     C29616   6.659   1.811   4.653  0.0716  0.0293  0.0992
  961MOL0     N29617   6.515   1.790   4.675 -0.0159  0.0698  0.6637
  961MOL0     C29618   6.424   1.764   4.579  0.1406 -0.6589  0.4017
  961MOL0     C29619   6.308   1.764   4.647  0.5027  0.4429 -0.6649
  961MOL0     C29620   6.178   1.746   4.575 -0.1777  0.0907  0.0262
  961MOL0     C29621   6.109   1.882   4.543  0.3228 -0.3243  0.2534
  961MOL0     C29622   6.050   1.963   4.658 -0.1231 -0.1396 -0.4775
  961MOL0     C29623   5.982   1.886   4.776 -0.4737 -1.2456  0.5049
  961MOL0     O29624   5.858   1.821   4.742  0.0471 -0.7147  0.0075
  961MOL0     C29625   5.748   1.902   4.727  0.1175  0.1278  0.3553
  961MOL0     C29626   5.688   1.970   4.840  0.2978 -0.1886  0.6741
  961MOL0     C29627   5.563   2.026   4.829 -0.5204 -0.3809  0.4585
  961MOL0     C29628   5.521   2.101   4.958 -0.4790 -0.5510  0.0755
  961MOL0     C29629   5.495   2.030   4.707 -0.3917 -0.4693 -0.5264
  961MOL0     C29630   5.349   2.069   4.695  0.3504  0.6461 -0.3128
  961MOL0     O29631   5.307   2.092   4.565  0.7718 -0.9619 -0.1367
  961MOL0     C29632   5.173   2.119   4.536  0.1875  0.0297 -0.1450
  961MOL0     C29633   5.115   2.052   4.427 -0.3775  0.8835 -0.0126
  961MOL0     C29634   4.979   2.067   4.402  0.2059  0.4088 -0.1624
  961MOL0     C29635   4.908   2.174   4.465  0.2012  0.0476 -0.4201
  961MOL0     O29636   4.783   2.222   4.434 -0.2497 -0.0592 -0.0525
  961MOL0     C29637   4.743   2.198   4.294 -0.0489 -0.3187 -0.1947
  961MOL0     C29638   4.601   2.271   4.270  0.2292  0.0030  0.6038
  961MOL0     C29639   4.535   2.242   4.133 -0.0684 -0.3179 -0.3178
  961MOL0     C29640   4.468   2.108   4.105  0.7184 -0.7215 -0.6266
  961MOL0     C29641   4.392   2.124   3.979  0.6705  0.4519 -1.0335
  961MOL0     C29642   4.318   1.990   3.946 -0.0456 -0.3127 -0.7175
  961MOL0     C29643   4.183   1.994   4.018  0.6717  0.5833  0.9743
  961MOL0     C29644   4.134   1.852   4.032  0.4498  0.1814 -0.1455
  961MOL0    Cl29645   3.984   1.860   4.139  0.3337 -0.0968 -0.3303
  961MOL0     C29646   4.973   2.247   4.568 -0.1286  0.3111 -0.1037
  961MOL0     C29647   5.098   2.215   4.613 -0.2858 -0.4873 -0.4148
  961MOL0     O29648   5.280   2.078   4.794  0.1835  0.5522  0.2647
  961MOL0     C29649   5.551   1.958   4.602  0.4410  0.4989  0.7116
  961MOL0     C29650   5.676   1.897   4.608  0.4483  0.0381 -0.2564
  961MOL0     N29651   6.334   1.787   4.778 -1.0616 -0.9208 -0.3035
  961MOL0     N29652   6.462   1.811   4.793  0.3298  0.3990 -1.0095
  961MOL0     C29653   7.573   1.869   4.883  0.5417  0.5119 -0.5329
  961MOL0     C29654   7.689   1.793   4.929  1.0721  0.7757  0.1074
  961MOL0     C29655   8.063   1.635   5.115 -0.0521 -0.5760  0.8779
  961MOL0     C29656   8.064   1.520   5.185  0.3341 -0.3344  0.3223
  961MOL0     C29657   8.183   1.460   5.232 -0.1147 -0.2149  0.1736
  961MOL0     C29658   8.306   1.535   5.213  0.1830  0.4392 -0.0691
  961MOL0     O29659   8.425   1.499   5.264 -0.0953 -0.2260  0.0254
  961MOL0     C29660   8.491   1.388   5.196 -0.2930  1.1850  0.0810
  961MOL0     C29661   8.588   1.338   5.301 -0.2088 -0.0359  0.2533
  961MOL0     C29662   8.684   1.245   5.230 -0.7145  0.6703 -0.7167
  961MOL0     C29663   8.818   1.318   5.192 -0.9034 -0.1620  0.3153
  961MOL0     C29664   8.905   1.352   5.302 -0.0525 -0.2079  0.2426
  961MOL0     C29665   8.970   1.389   5.400  0.0668  1.0926  0.5694
  961MOL0     C29666   8.305   1.655   5.142 -0.5844  0.2668  0.0184
  961MOL0     C29667   8.185   1.703   5.091 -0.2248  0.3541 -0.3986
  961MOL0     H29668   7.937   2.011   4.864 -0.7762  0.6886  1.1192
  961MOL0     H29669   7.758   2.120   4.748 -1.2983  0.1745  0.3147
  961MOL0     H29670   7.344   1.925   4.719 -0.2399 -1.0466  3.1485
  961MOL0     H29671   7.326   2.033   4.863 -0.9343 -1.1950 -0.1211
  961MOL0     H29672   7.297   2.219   4.705 -1.9561 -0.0370  3.7255
  961MOL0     H29673   7.301   2.110   4.572 -0.3918  2.2719  0.3635
  961MOL0     H29674   7.097   1.990   4.713 -0.4654 -0.0776 -1.4334
  961MOL0     H29675   7.088   2.157   4.779  0.0633  1.3728 -0.4913
  961MOL0     H29676   7.050   2.248   4.546  0.7868 -0.7689  2.1863
  961MOL0     H29677   7.048   2.087   4.490  1.7714 -1.0893  1.0605
  961MOL0     H29678   6.860   2.184   4.720  1.6810 -1.7535  1.2430
  961MOL0     H29679   6.828   2.186   4.550 -0.6051  0.9085  1.2473
  961MOL0     H29680   6.853   1.948   4.515 -1.6953  1.6211 -0.4718
  961MOL0     H29681   6.906   1.918   4.688 -1.8140 -2.4835  0.3343
  961MOL0     H29682   6.685   1.993   4.758  0.2138 -0.7448  0.4941
  961MOL0     H29683   6.633   2.013   4.588 -1.7667 -1.3583 -0.4941
  961MOL0     H29684   6.712   1.758   4.733  1.5384  0.0598 -0.8127
  961MOL0     H29685   6.698   1.766   4.561  2.0128 -0.0499  0.8947
  961MOL0     H29686   6.432   1.758   4.471  1.8794 -0.7683  0.5080
  961MOL0     H29687   6.205   1.687   4.487  2.1856  1.1620 -0.0309
  961MOL0     H29688   6.107   1.681   4.627 -1.3302  0.4236 -1.0763
  961MOL0     H29689   6.025   1.864   4.475  0.2669 -1.1581  0.5269
  961MOL0     H29690   6.182   1.932   4.479 -1.8335 -0.5891 -2.6301
  961MOL0     H29691   5.979   2.043   4.634 -0.9005 -0.9193 -0.8756
  961MOL0     H29692   6.134   2.011   4.709 -0.0293 -0.4827 -0.3082
  961MOL0     H29693   5.961   1.962   4.852 -3.3636  0.8585 -2.1230
  961MOL0     H29694   6.064   1.825   4.814 -1.3751 -1.6777  1.8307
  961MOL0     H29695   5.745   1.950   4.931  0.1720  1.5172  1.1581
  961MOL0     H29696   5.601   2.092   5.031  0.9224 -2.6987 -1.5639
  961MOL0     H29697   5.499   2.206   4.939  0.7535 -0.4263 -0.7750
  961MOL0     H29698   5.431   2.057   5.001 -0.8764 -0.1037 -0.2899
  961MOL0     H29699   5.181   1.997   4.362 -1.2579 -0.2047 -0.0198
  961MOL0     H29700   4.938   2.007   4.321  1.2955  0.3537 -0.6884
  961MOL0     H29701   4.833   2.237   4.245  2.0759 -0.5943  3.1760
  961MOL0     H29702   4.731   2.091   4.279 -0.8409 -0.3385  0.5369
  961MOL0     H29703   4.533   2.231   4.346  3.2760 -2.3342  2.2963
  961MOL0     H29704   4.603   2.379   4.284  0.8100  0.5751 -2.9358
  961MOL0     H29705   4.606   2.270   4.055  2.4415 -1.3469  1.4890
  961MOL0     H29706   4.448   2.309   4.132 -0.3418 -0.6627  0.0537
  961MOL0     H29707   4.537   2.023   4.102  1.1757 -0.5312  1.9829
  961MOL0     H29708   4.394   2.083   4.182  0.8347  1.6266  0.3240
  961MOL0     H29709   4.469   2.147   3.905  1.8818 -0.5565 -0.1242
  961MOL0     H29710   4.315   2.202   3.970  1.8132  1.5341 -1.8275
  961MOL0     H29711   4.302   1.975   3.838 -1.2951 -1.8686 -0.3537
  961MOL0     H29712   4.371   1.903   3.985 -0.8508  0.3707  2.1645
  961MOL0     H29713   4.117   2.053   3.953  1.2886 -1.5378 -1.7530
  961MOL0     H29714   4.199   2.030   4.121 -1.5286  1.7060  1.0101
  961MOL0     H29715   4.209   1.791   4.084 -2.4978 -3.0670  0.7192
  961MOL0     H29716   4.112   1.805   3.936  0.9801  4.4643 -2.5691
  961MOL0     H29717   4.929   2.341   4.601  1.5436  0.8448  0.7261
  961MOL0     H29718   5.136   2.271   4.698 -0.4921  0.1993 -0.7671
  961MOL0     H29719   5.496   1.949   4.509  1.0906 -1.1990  0.4501
  961MOL0     H29720   5.710   1.835   4.526  0.0966  3.1789 -2.9992
  961MOL0     H29721   7.471   1.836   4.898  1.0312  0.1429  2.4645
  961MOL0     H29722   7.670   1.697   4.976 -1.2956  1.2066  0.1586
  961MOL0     H29723   7.969   1.474   5.211  0.5895  0.1328  2.2038
  961MOL0     H29724   8.178   1.378   5.302 -0.6019 -0.4294 -0.1072
  961MOL0     H29725   8.423   1.308   5.165  1.3330 -0.1298 -0.1711
  961MOL0     H29726   8.542   1.425   5.106 -0.7021  0.8149 -0.3097
  961MOL0     H29727   8.529   1.289   5.378  1.0877 -1.3914  0.4161
  961MOL0     H29728   8.631   1.420   5.360 -2.6210  2.1391 -0.7786
  961MOL0     H29729   8.645   1.196   5.140  2.3037 -1.1950 -1.1662
  961MOL0     H29730   8.698   1.159   5.297 -2.8969  0.6430 -0.2015
  961MOL0     H29731   8.786   1.400   5.129 -1.3019 -1.0478 -0.6645
  961MOL0     H29732   8.882   1.252   5.132 -1.6957 -3.7879  3.0505
  961MOL0     H29733   9.024   1.429   5.483  1.3097  1.9500 -0.6122
  961MOL0     H29734   8.394   1.713   5.120  0.3817 -2.2752 -3.8610
  961MOL0     H29735   8.191   1.794   5.032  0.7290  2.9398  3.2942
  962MOL0     O29736   3.053   4.754   8.562 -1.0241  0.5842 -0.4156
  962MOL0     C29737   3.099   4.644   8.569  0.6388  0.0269 -0.0190
  962MOL0     O29738   3.032   4.540   8.616  0.3728  0.2536 -0.0975
  962MOL0     C29739   2.895   4.544   8.611  0.5633  0.7150  0.2802
  962MOL0     C29740   2.828   4.453   8.533  0.2391  0.4200 -0.3956
  962MOL0     C29741   2.690   4.418   8.556  0.2805  0.0824  0.3920
  962MOL0     C29742   2.624   4.487   8.661  0.4378 -0.4467 -0.1060
  962MOL0     O29743   2.500   4.452   8.721 -0.9855  0.4656 -0.3624
  962MOL0     C29744   2.407   4.375   8.649 -0.3285  0.3611  0.8384
  962MOL0     C29745   2.266   4.388   8.706  0.6967 -0.3980  0.1440
  962MOL0     C29746   2.164   4.328   8.612  0.6386 -0.0717 -0.0201
  962MOL0     C29747   2.022   4.353   8.670 -0.3626 -0.1697 -0.0020
  962MOL0     C29748   1.909   4.266   8.602 -0.0497  0.2937 -0.2231
  962MOL0     C29749   1.904   4.291   8.443 -1.0227 -0.1573  0.4898
  962MOL0     C29750   1.803   4.205   8.378  0.2584 -0.0318  0.4327
  962MOL0     C29751   1.845   4.051   8.370 -0.4410  0.5756  0.1356
  962MOL0     N29752   1.770   3.976   8.270 -0.5131 -0.1069 -0.3311
  962MOL0     C29753   1.638   3.943   8.269 -0.1651 -0.6971  0.4422
  962MOL0     C29754   1.607   3.907   8.141 -0.8731  0.0638 -0.0976
  962MOL0     C29755   1.480   3.855   8.087 -0.0143 -0.4380 -0.5588
  962MOL0     C29756   1.404   3.967   8.009  0.2826  0.6395  0.1135
  962MOL0     C29757   1.266   3.916   7.968 -0.1346 -0.2239 -0.9051
  962MOL0     C29758   1.198   3.996   7.865 -0.3363  0.2145 -0.5448
  962MOL0     O29759   1.061   3.940   7.846 -0.3616  0.3275 -0.7745
  962MOL0     C29760   0.972   4.019   7.771  0.5050  0.5505  0.2615
  962MOL0     C29761   0.996   4.096   7.662 -0.5194 -0.6746 -0.3456
  962MOL0     C29762   0.897   4.162   7.589  0.0568 -0.0917  0.1701
  962MOL0     C29763   0.948   4.230   7.467 -0.3605 -0.8711 -0.7444
  962MOL0     C29764   0.765   4.151   7.628 -0.0023 -0.1192  0.2993
  962MOL0     C29765   0.649   4.186   7.553 -0.5224 -0.1807  0.3701
  962MOL0     O29766   0.533   4.195   7.624 -0.0393  0.3806 -0.2392
  962MOL0     C29767   0.413   4.136   7.589 -0.2583 -0.4491  0.5381
  962MOL0     C29768   0.311   4.172   7.676  0.1400  0.0387 -0.3786
  962MOL0     C29769   0.186   4.120   7.657  0.3847 -0.8119  0.4882
  962MOL0     C29770   0.154   4.028   7.551 -0.1648 -0.2575 -0.5722
  962MOL0     O29771   0.032   3.970   7.541  0.6395 -0.7307  0.0807
  962MOL0     C29772  -0.086   4.050   7.557  0.0763 -0.6660  0.5095
  962MOL0     C29773  -0.187   4.045   7.440  0.3027 -0.4548 -0.4907
  962MOL0     C29774  -0.313   4.127   7.460  1.4362 -0.2086 -0.8435
  962MOL0     C29775  -0.384   4.156   7.327 -0.1840  0.0891  0.4817
  962MOL0     C29776  -0.506   4.252   7.350  0.2765  0.1867 -0.4603
  962MOL0     C29777  -0.605   4.240   7.230  0.0512  0.2661  0.8385
  962MOL0     C29778  -0.685   4.374   7.232  0.6138 -0.0584  0.7357
  962MOL0     C29779  -0.812   4.332   7.160  0.4134 -0.1658  0.0408
  962MOL0    Cl29780  -0.937   4.463   7.166 -0.1913 -0.3736  0.1646
  962MOL0     C29781   0.257   3.997   7.461 -0.5442  0.4596 -0.3014
  962MOL0     C29782   0.390   4.048   7.483 -0.7662  0.2189  0.2038
  962MOL0     O29783   0.660   4.191   7.431 -0.1334 -0.6167 -0.0592
  962MOL0     C29784   0.745   4.073   7.753 -1.0258 -0.8288 -0.5120
  962MOL0     C29785   0.847   4.015   7.822  0.5047 -0.2621 -0.4267
  962MOL0     N29786   1.720   3.924   8.067  1.1856  0.1051 -0.7474
  962MOL0     N29787   1.813   3.967   8.142  0.4143  0.5274 -0.2184
  962MOL0     C29788   2.702   4.586   8.734 -0.0003 -0.3220 -0.0032
  962MOL0     C29789   2.830   4.615   8.705 -0.0343  0.5807 -0.7707
  962MOL0     C29790   3.236   4.633   8.538 -0.0433 -0.1271  0.2282
  962MOL0     C29791   3.291   4.502   8.513 -0.6850 -0.2484  0.5970
  962MOL0     C29792   3.430   4.492   8.509 -0.9246 -0.7114  0.3927
  962MOL0     C29793   3.515   4.601   8.513 -0.6953 -0.3537 -0.1381
  962MOL0     O29794   3.649   4.587   8.485 -0.6600  0.0481  0.2802
  962MOL0     C29795   3.742   4.556   8.589  0.2685  0.0837 -0.1757
  962MOL0     C29796   3.809   4.678   8.647 -0.2338  0.4319  0.4294
  962MOL0     C29797   3.869   4.768   8.531 -0.7416  0.1270  0.0371
  962MOL0     C29798   3.963   4.705   8.429  0.0540 -0.2458 -0.0866
  962MOL0     C29799   4.073   4.634   8.502  0.3737 -0.6240  1.0989
  962MOL0     C29800   4.163   4.576   8.554  0.3428  0.3160  0.0421
  962MOL0     C29801   3.464   4.726   8.525  0.5228  0.3127 -0.3918
  962MOL0     C29802   3.323   4.743   8.534 -0.0787  0.7932  0.5216
  962MOL0     H29803   2.884   4.388   8.467  3.3661  1.1992  1.3169
  962MOL0     H29804   2.636   4.338   8.508  2.2895 -0.6509 -0.7849
  962MOL0     H29805   2.408   4.408   8.545 -2.9348  2.7067  1.4420
  962MOL0     H29806   2.437   4.270   8.646  1.1232  0.7670 -1.2120
  962MOL0     H29807   2.251   4.346   8.806  0.8536  0.1983  0.4229
  962MOL0     H29808   2.235   4.493   8.710  3.2178  0.3952  0.4062
  962MOL0     H29809   2.166   4.375   8.513 -1.8921  0.4831  0.1337
  962MOL0     H29810   2.185   4.220   8.612 -1.2435 -0.5439 -2.8131
  962MOL0     H29811   2.021   4.335   8.778 -2.6274 -2.0806 -0.2696
  962MOL0     H29812   1.989   4.458   8.674 -0.6129 -0.2405  4.0002
  962MOL0     H29813   1.931   4.159   8.613  0.1888  0.0681 -2.3140
  962MOL0     H29814   1.812   4.277   8.650  0.5640 -0.0957  1.1642
  962MOL0     H29815   1.879   4.396   8.425 -1.8598 -0.3457  0.5417
  962MOL0     H29816   2.007   4.273   8.410 -0.8405  0.9090  0.4538
  962MOL0     H29817   1.713   4.226   8.435  0.2228 -2.6074  1.4858
  962MOL0     H29818   1.782   4.242   8.277 -2.1754  1.0898  1.2800
  962MOL0     H29819   1.826   4.019   8.472 -0.1473  2.4764  0.8385
  962MOL0     H29820   1.953   4.037   8.357 -0.4344  1.4322 -0.9421
  962MOL0     H29821   1.567   3.931   8.350  1.4536 -3.1785  1.5854
  962MOL0     H29822   1.498   3.773   8.018 -0.4003 -0.9854 -0.0208
  962MOL0     H29823   1.417   3.835   8.175  1.8367 -0.7314  0.7607
  962MOL0     H29824   1.468   3.993   7.924 -0.3595  0.5459 -0.4041
  962MOL0     H29825   1.392   4.054   8.074 -0.6404  1.8221 -1.5775
  962MOL0     H29826   1.207   3.911   8.060  0.5786 -1.1462 -0.4850
  962MOL0     H29827   1.285   3.813   7.940  0.0535 -0.1763 -0.9508
  962MOL0     H29828   1.255   3.995   7.771  0.1529  0.1347 -0.2539
  962MOL0     H29829   1.193   4.098   7.904 -1.9484 -0.0352 -0.0448
  962MOL0     H29830   1.092   4.089   7.611 -0.5573 -0.7991 -0.3992
  962MOL0     H29831   0.931   4.177   7.373 -0.9257  1.4401 -2.0386
  962MOL0     H29832   0.897   4.322   7.437 -0.1656 -0.6210 -0.3166
  962MOL0     H29833   1.057   4.243   7.470 -0.3902 -0.8623  0.7667
  962MOL0     H29834   0.336   4.244   7.754 -1.8919  1.6032 -1.0871
  962MOL0     H29835   0.109   4.148   7.729 -2.2239 -0.2944 -2.2667
  962MOL0     H29836  -0.129   4.010   7.649  0.9168  0.8320  1.5848
  962MOL0     H29837  -0.057   4.154   7.573 -2.0177  0.3991 -1.8986
  962MOL0     H29838  -0.128   4.066   7.351  1.3774  3.9776  1.0289
  962MOL0     H29839  -0.232   3.945   7.436  0.0525 -0.7039  3.7416
  962MOL0     H29840  -0.303   4.222   7.514 -1.3843 -0.3347  0.0455
  962MOL0     H29841  -0.382   4.072   7.523  0.8060  0.9707 -0.4801
  962MOL0     H29842  -0.321   4.190   7.245 -0.0854 -0.4570  0.3258
  962MOL0     H29843  -0.413   4.058   7.288  1.3762  1.0392 -3.5230
  962MOL0     H29844  -0.475   4.357   7.357 -1.0415  0.8872 -3.6613
  962MOL0     H29845  -0.556   4.224   7.444  0.4086 -4.9527 -1.6322
  962MOL0     H29846  -0.543   4.255   7.141 -0.0970  0.8275  0.8267
  962MOL0     H29847  -0.657   4.144   7.228  0.8246 -0.1710 -1.8191
  962MOL0     H29848  -0.631   4.460   7.191 -0.6837  0.2494 -0.4374
  962MOL0     H29849  -0.714   4.386   7.337  0.7267  0.8180  0.6770
  962MOL0     H29850  -0.862   4.239   7.189 -1.8846  0.7912 -0.5776
  962MOL0     H29851  -0.796   4.314   7.054 -1.6843 -1.3423 -0.1231
  962MOL0     H29852   0.229   3.951   7.367  0.1665  0.7474 -0.6587
  962MOL0     H29853   0.463   4.037   7.404 -0.0414  0.4727  0.8292
  962MOL0     H29854   0.646   4.055   7.794  0.3721 -1.0298  3.1201
  962MOL0     H29855   0.816   3.957   7.909 -1.9364  0.1745 -0.9189
  962MOL0     H29856   2.651   4.644   8.810 -1.1384 -0.9214 -0.2799
  962MOL0     H29857   2.874   4.688   8.773  1.0860  0.5267 -1.4068
  962MOL0     H29858   3.233   4.411   8.511 -2.5243  0.7283 -3.9623
  962MOL0     H29859   3.481   4.396   8.500 -0.1988 -0.5292  2.1303
  962MOL0     H29860   3.688   4.512   8.674  2.0881  1.3776  1.7724
  962MOL0     H29861   3.818   4.482   8.564 -0.3255 -0.5775 -0.0636
  962MOL0     H29862   3.887   4.637   8.712 -1.1310 -1.1316  0.5760
  962MOL0     H29863   3.729   4.738   8.691 -4.1233 -0.7800 -4.1544
  962MOL0     H29864   3.924   4.849   8.580  0.0515 -1.0648  1.1764
  962MOL0     H29865   3.785   4.810   8.475 -0.8591  1.3322  1.0973
  962MOL0     H29866   4.006   4.789   8.374  1.8329 -0.7450  0.4775
  962MOL0     H29867   3.913   4.645   8.352  0.2007  0.0158 -0.3869
  962MOL0     H29868   4.248   4.524   8.595  0.4040 -0.9398 -1.5784
  962MOL0     H29869   3.530   4.812   8.538  1.5558 -0.7228  1.8452
  962MOL0     H29870   3.280   4.842   8.523 -2.4083 -0.0536  1.2897
  963MOL0     O29871   4.518   3.654  10.725 -0.4955  0.1908 -0.5247
  963MOL0     C29872   4.505   3.778  10.728  0.5643  0.4002  0.2858
  963MOL0     O29873   4.522   3.857  10.632 -0.8340 -0.4385  0.1708
  963MOL0     C29874   4.527   3.821  10.503  0.6976  0.6891  0.5371
  963MOL0     C29875   4.635   3.875  10.426 -0.6679  0.8065  0.2486
  963MOL0     C29876   4.658   3.843  10.287 -0.6915 -0.6211 -0.1708
  963MOL0     C29877   4.569   3.749  10.229 -0.3056  0.3279  0.1139
  963MOL0     O29878   4.573   3.716  10.093  0.1406 -0.0912 -1.2355
  963MOL0     C29879   4.635   3.806   9.995  0.1950  0.0528  0.6373
  963MOL0     C29880   4.786   3.770   9.967 -0.3206 -0.2259  0.2985
  963MOL0     C29881   4.815   3.631   9.917  0.0805 -0.3786 -0.4555
  963MOL0     C29882   4.966   3.611   9.900 -0.6240  0.8034 -0.8109
  963MOL0     C29883   4.996   3.457   9.868 -0.1099  0.4208 -0.1501
  963MOL0     C29884   5.141   3.414   9.887  0.6988 -0.7080 -0.5528
  963MOL0     C29885   5.146   3.260   9.861 -0.1226  0.1121 -0.8555
  963MOL0     C29886   5.261   3.190   9.935 -0.1856  0.4915  0.3811
  963MOL0     N29887   5.227   3.183  10.079 -0.2082 -0.1891 -0.2846
  963MOL0     C29888   5.146   3.088  10.147 -0.0425 -0.3252  0.2733
  963MOL0     C29889   5.160   3.127  10.279  0.4996 -0.0407 -0.6739
  963MOL0     C29890   5.082   3.069  10.390 -0.3758  0.1348  0.2888
  963MOL0     C29891   5.089   2.916  10.415 -0.4339  0.1758  0.6971
  963MOL0     C29892   4.988   2.846  10.508  0.0569  0.2742 -0.0417
  963MOL0     C29893   4.958   2.925  10.632 -0.7843  0.0933  0.3066
  963MOL0     O29894   4.908   2.839  10.736 -0.4623  0.4571  0.0078
  963MOL0     C29895   4.825   2.882  10.831 -0.2307 -0.7998  0.8714
  963MOL0     C29896   4.696   2.840  10.849  0.1454 -0.4383  0.2595
  963MOL0     C29897   4.606   2.901  10.938 -0.6781  0.4823  0.1564
  963MOL0     C29898   4.468   2.831  10.960 -0.0364 -0.0747 -1.1747
  963MOL0     C29899   4.650   3.017  11.004  0.3683 -0.1652 -0.0745
  963MOL0     C29900   4.574   3.101  11.087  0.3842 -0.2185  0.5225
  963MOL0     O29901   4.630   3.226  11.131 -0.3460  0.3930  0.1509
  963MOL0     C29902   4.534   3.310  11.176  0.4669 -1.0077  0.4693
  963MOL0     C29903   4.513   3.327  11.312 -0.1476 -0.1125  0.2448
  963MOL0     C29904   4.409   3.412  11.353  0.2186  1.1771 -0.4288
  963MOL0     C29905   4.322   3.465  11.264 -0.4017 -0.5438  0.4745
  963MOL0     O29906   4.221   3.548  11.297  0.1991 -0.4052 -0.1376
  963MOL0     C29907   4.164   3.534  11.429  0.1258  0.3719  0.3752
  963MOL0     C29908   4.046   3.633  11.434 -0.4196  0.8493  0.8625
  963MOL0     C29909   3.963   3.611  11.559  0.6938  0.3926 -0.5351
  963MOL0     C29910   3.836   3.684  11.527 -0.4225 -0.2244  0.3615
  963MOL0     C29911   3.741   3.675  11.650 -0.3409 -0.4445 -0.0415
  963MOL0     C29912   3.603   3.721  11.611 -0.2687 -0.1519 -0.8895
  963MOL0     C29913   3.498   3.677  11.718 -0.1800  0.0662 -0.7362
  963MOL0     C29914   3.384   3.776  11.723 -0.0873  0.0097 -0.6248
  963MOL0    Cl29915   3.291   3.737  11.885 -0.2351  0.1170  0.5581
  963MOL0     C29916   4.355   3.450  11.125  0.3468  0.0934  0.2639
  963MOL0     C29917   4.459   3.380  11.086 -1.2044  0.9233 -0.0893
  963MOL0     O29918   4.460   3.067  11.104  0.3167  0.0836 -0.4101
  963MOL0     C29919   4.785   3.056  10.988 -0.9051  0.0748 -0.7965
  963MOL0     C29920   4.875   2.987  10.906  0.5458 -0.0419  0.5358
  963MOL0     N29921   5.248   3.230  10.287 -0.2271  0.2472  0.4120
  963MOL0     N29922   5.297   3.250  10.168 -0.9525 -0.1720 -0.5210
  963MOL0     C29923   4.457   3.705  10.300  0.1922 -0.0720 -0.1870
  963MOL0     C29924   4.431   3.739  10.433  0.6381 -0.4599  0.2136
  963MOL0     C29925   4.454   3.844  10.850  0.3033  0.0597  0.4368
  963MOL0     C29926   4.400   3.768  10.958  0.8539 -0.5514  0.1866
  963MOL0     C29927   4.354   3.831  11.078  0.2242 -0.2766  0.2269
  963MOL0     C29928   4.369   3.966  11.100  0.9394 -0.0954  0.1854
  963MOL0     O29929   4.342   4.040  11.209  0.2231 -0.1101  0.2304
  963MOL0     C29930   4.266   3.987  11.319  0.6681  0.3945  0.4038
  963MOL0     C29931   4.370   3.940  11.430  0.9188  0.2554 -0.7180
  963MOL0     C29932   4.300   3.928  11.558 -0.0808  0.5900 -0.4391
  963MOL0     C29933   4.415   3.898  11.662  0.1627  0.0577 -0.2591
  963MOL0     C29934   4.475   3.762  11.658  0.1330 -0.2863 -0.4234
  963MOL0     C29935   4.530   3.650  11.665 -0.2947 -0.8971 -0.1783
  963MOL0     C29936   4.420   4.045  10.992 -0.0954 -0.6671 -0.1688
  963MOL0     C29937   4.461   3.983  10.869  1.0073  0.7995  0.2172
  963MOL0     H29938   4.706   3.937  10.480 -0.0165 -1.1859  1.8570
  963MOL0     H29939   4.736   3.892  10.230  0.3040 -0.4257  1.3190
  963MOL0     H29940   4.579   3.793   9.902  0.3686 -3.0034  0.8549
  963MOL0     H29941   4.618   3.910  10.025 -0.7721  0.3336 -0.8021
  963MOL0     H29942   4.812   3.850   9.896 -2.8230  0.1556 -0.2969
  963MOL0     H29943   4.845   3.785  10.057  1.0026  1.9757 -0.8447
  963MOL0     H29944   4.780   3.559   9.991  0.4009  0.0656  0.1372
  963MOL0     H29945   4.771   3.619   9.817  0.4017  1.6052 -0.8709
  963MOL0     H29946   5.016   3.678   9.830  0.8957 -0.5247 -1.0627
  963MOL0     H29947   5.009   3.631   9.999 -0.1626 -0.0650 -0.8310
  963MOL0     H29948   4.941   3.389   9.934 -0.1338 -0.8068 -1.3891
  963MOL0     H29949   4.954   3.431   9.770 -1.6110  3.7796 -0.5479
  963MOL0     H29950   5.216   3.469   9.830  0.0290  0.3850 -0.4169
  963MOL0     H29951   5.169   3.421   9.993 -2.2405  2.2380  0.1973
  963MOL0     H29952   5.054   3.207   9.886 -0.6378  1.0989 -0.6117
  963MOL0     H29953   5.166   3.247   9.754 -1.8636 -2.4511 -0.9466
  963MOL0     H29954   5.346   3.258   9.926  0.9182 -0.8072  0.6858
  963MOL0     H29955   5.305   3.102   9.887  0.6632 -0.3646  2.5837
  963MOL0     H29956   5.093   3.004  10.102 -0.2070 -0.9774  1.6403
  963MOL0     H29957   5.113   3.126  10.478  1.9191  1.5921 -1.3577
  963MOL0     H29958   4.977   3.092  10.370 -0.5302  0.0867  1.0121
  963MOL0     H29959   5.188   2.897  10.458  0.1820  0.6900 -0.4636
  963MOL0     H29960   5.090   2.855  10.325  4.8790 -0.0985  0.6498
  963MOL0     H29961   5.042   2.755  10.534 -1.1424 -0.7302 -0.9360
  963MOL0     H29962   4.895   2.824  10.455  0.7500 -0.7007 -0.9000
  963MOL0     H29963   4.895   3.012  10.614  1.4960  1.9734  0.9049
  963MOL0     H29964   5.052   2.972  10.661 -0.0903 -0.5033 -0.9070
  963MOL0     H29965   4.661   2.762  10.783  0.9506 -0.4105 -0.2062
  963MOL0     H29966   4.399   2.898  10.908  0.2444  1.0228 -0.1903
  963MOL0     H29967   4.457   2.728  10.927 -0.5875 -0.2894 -0.3551
  963MOL0     H29968   4.459   2.825  11.069  0.5234  0.0199 -1.1222
  963MOL0     H29969   4.582   3.276  11.378 -2.7066 -3.3443  0.7060
  963MOL0     H29970   4.400   3.434  11.459 -2.1057 -4.6299  0.9578
  963MOL0     H29971   4.131   3.432  11.453  0.1056 -0.5351 -2.9271
  963MOL0     H29972   4.233   3.569  11.506  0.4158  2.3842 -0.7356
  963MOL0     H29973   4.084   3.735  11.430  0.9180  0.3514 -1.9625
  963MOL0     H29974   3.980   3.613  11.349  0.6941 -2.8869  0.6733
  963MOL0     H29975   4.010   3.653  11.649  0.7738 -1.8365  0.5290
  963MOL0     H29976   3.946   3.503  11.569  1.8709  0.1082 -1.4569
  963MOL0     H29977   3.850   3.789  11.496 -0.5403 -0.0503  0.8888
  963MOL0     H29978   3.781   3.629  11.451  1.7961 -0.7028 -1.0072
  963MOL0     H29979   3.786   3.745  11.722 -2.5675 -0.7810  1.7715
  963MOL0     H29980   3.752   3.571  11.684  3.2793  0.0433  0.6746
  963MOL0     H29981   3.605   3.830  11.606  0.7880 -0.1348 -0.3396
  963MOL0     H29982   3.572   3.691  11.510 -0.8554  1.6911 -1.2928
  963MOL0     H29983   3.549   3.680  11.815  1.0409 -2.6653 -1.1935
  963MOL0     H29984   3.445   3.584  11.695 -0.4564  0.3940 -1.4806
  963MOL0     H29985   3.321   3.742  11.640  0.3972  0.3063 -1.1176
  963MOL0     H29986   3.421   3.879  11.724  0.0773 -0.0513 -0.2585
  963MOL0     H29987   4.290   3.503  11.056  2.4844  3.7419  0.7706
  963MOL0     H29988   4.484   3.379  10.980 -0.9242 -0.5580 -0.0221
  963MOL0     H29989   4.835   3.140  11.036  2.2155 -1.7788 -0.5706
  963MOL0     H29990   4.980   3.014  10.897  0.3014  1.2579  1.3894
  963MOL0     H29991   4.384   3.640  10.252  0.8346 -1.3666  0.5234
  963MOL0     H29992   4.330   3.714  10.465 -1.4150  1.9959 -3.6527
  963MOL0     H29993   4.383   3.662  10.946  1.9927 -0.7242  0.0470
  963MOL0     H29994   4.310   3.772  11.157 -1.1435 -2.1326 -1.7836
  963MOL0     H29995   4.196   4.061  11.357 -0.7503 -0.5004 -0.3718
  963MOL0     H29996   4.199   3.909  11.281  2.4721 -0.3231 -1.5214
  963MOL0     H29997   4.446   4.017  11.444  2.1424 -1.1433  0.6418
  963MOL0     H29998   4.419   3.845  11.407 -1.3145 -1.0938 -0.1989
  963MOL0     H29999   4.231   3.843  11.556  0.2695  0.3227 -1.3035
  963MOL0     H30000   4.239   4.009  11.600 -0.3536  0.0652  0.2025
  963MOL0     H30001   4.375   3.918  11.762  2.3801 -1.6800  1.0764
  963MOL0     H30002   4.489   3.977  11.643 -1.7003  1.7868 -0.6283
  963MOL0     H30003   4.581   3.556  11.665  2.4879  0.5070 -0.2604
  963MOL0     H30004   4.428   4.153  10.999 -0.3418 -0.5583 -1.4148
  963MOL0     H30005   4.487   4.047  10.787 -1.3819  1.8201  0.1599
  964MOL0     O30006   8.922   2.875   0.592  0.3625 -0.0052 -0.1889
  964MOL0     C30007   8.982   2.970   0.645 -0.2026  0.2001  0.5302
  964MOL0     O30008   8.923   3.082   0.696  0.5487  0.0180  0.0103
  964MOL0     C30009   8.793   3.113   0.660 -0.6754  0.8415 -0.0859
  964MOL0     C30010   8.780   3.235   0.586  1.0013  0.0456  0.8097
  964MOL0     C30011   8.658   3.272   0.528 -0.4278  0.8670  0.4457
  964MOL0     C30012   8.548   3.186   0.539 -0.8457 -0.0864  0.0498
  964MOL0     O30013   8.442   3.224   0.467  0.1902  0.5832  0.2949
  964MOL0     C30014   8.329   3.141   0.473 -0.0544  0.8268 -0.0953
  964MOL0     C30015   8.216   3.184   0.374  0.5686 -0.1838 -0.3869
  964MOL0     C30016   8.086   3.090   0.389  0.2453  0.5416  0.8160
  964MOL0     C30017   7.964   3.141   0.299 -1.1396 -0.0137 -0.1125
  964MOL0     C30018   7.841   3.063   0.336  0.1673  0.1403 -0.4453
  964MOL0     C30019   7.723   3.090   0.236 -0.2819 -0.7518  0.2789
  964MOL0     C30020   7.590   3.033   0.276 -0.1015  0.2165  0.5062
  964MOL0     C30021   7.488   3.082   0.171 -0.4117  0.3880  0.3155
  964MOL0     N30022   7.350   3.037   0.221  0.1209  0.4594  0.5181
  964MOL0     C30023   7.314   2.982   0.343 -0.2560 -0.2799  0.0143
  964MOL0     C30024   7.178   2.978   0.342  0.0814  0.0676 -0.1597
  964MOL0     C30025   7.084   2.946   0.449 -0.5556  0.7118 -0.1043
  964MOL0     C30026   7.063   3.072   0.526 -0.7517 -0.3639  0.5844
  964MOL0     C30027   7.185   3.131   0.602  0.9894 -0.0030  0.4603
  964MOL0     C30028   7.134   3.227   0.710 -0.6423 -0.3670 -0.3617
  964MOL0     O30029   7.075   3.338   0.641  0.7334  0.1806 -0.1943
  964MOL0     C30030   6.960   3.369   0.716 -0.9121 -0.5674  0.3599
  964MOL0     C30031   6.955   3.432   0.845  0.7735  0.5624 -0.0592
  964MOL0     C30032   6.838   3.447   0.916 -0.1199  0.0041  0.4030
  964MOL0     C30033   6.846   3.500   1.061  0.3778 -0.8024  0.4516
  964MOL0     C30034   6.713   3.416   0.853  0.2537  0.3521 -1.3732
  964MOL0     C30035   6.585   3.430   0.923 -0.2107  0.0078 -0.1267
  964MOL0     O30036   6.484   3.474   0.839 -0.0204 -0.5511  0.1281
  964MOL0     C30037   6.368   3.510   0.891 -0.3459  0.0097 -0.6970
  964MOL0     C30038   6.287   3.429   0.972 -0.7061  0.0114  0.3730
  964MOL0     C30039   6.160   3.467   1.018 -0.3834 -0.2411 -0.2129
  964MOL0     C30040   6.110   3.595   0.988  0.3766 -0.3867 -0.4053
  964MOL0     O30041   5.985   3.635   1.043 -0.9480  0.2380  0.5420
  964MOL0     C30042   5.894   3.700   0.958  0.0725  0.2230  0.0432
  964MOL0     C30043   5.769   3.701   1.036 -0.1404 -0.1006 -0.2430
  964MOL0     C30044   5.660   3.768   0.962 -0.1746  0.0330  0.8501
  964MOL0     C30045   5.528   3.749   1.028 -0.1306  0.1726 -0.5254
  964MOL0     C30046   5.426   3.854   0.985  0.3111  0.4384  0.0125
  964MOL0     C30047   5.293   3.805   1.040 -0.1811 -0.1410 -0.1896
  964MOL0     C30048   5.169   3.890   0.998 -0.3046 -0.6208 -0.3928
  964MOL0     C30049   5.182   4.046   1.013 -0.4881 -0.0222  0.3826
  964MOL0    Cl30050   5.026   4.126   0.964  0.1459 -0.2175  0.2631
  964MOL0     C30051   6.182   3.676   0.902  0.4679 -0.0859  0.5943
  964MOL0     C30052   6.308   3.627   0.853  1.0017 -0.6220 -0.0953
  964MOL0     O30053   6.566   3.376   1.030 -0.2387  0.8355 -0.3197
  964MOL0     C30054   6.720   3.355   0.727 -0.8249 -0.0096  0.5285
  964MOL0     C30055   6.840   3.329   0.657  0.1992 -0.5959  0.6323
  964MOL0     N30056   7.137   3.035   0.221 -0.0358  0.2259 -0.4117
  964MOL0     N30057   7.242   3.073   0.153  0.5677  0.4651 -1.0337
  964MOL0     C30058   8.560   3.071   0.625 -0.3933  0.1697 -0.5148
  964MOL0     C30059   8.683   3.038   0.680  0.4128  0.0286  0.2897
  964MOL0     C30060   9.128   2.963   0.669  0.3325  0.6226  0.4553
  964MOL0     C30061   9.204   3.065   0.719  0.6442 -0.3218  0.0804
  964MOL0     C30062   9.345   3.078   0.714  0.7066  0.7189 -0.0181
  964MOL0     C30063   9.413   2.968   0.675 -0.2892  0.1813 -0.0273
  964MOL0     O30064   9.552   2.968   0.683 -0.4028  0.4207  1.0509
  964MOL0     C30065   9.621   2.845   0.667 -0.5569 -0.0175 -0.2224
  964MOL0     C30066   9.764   2.855   0.712  0.1054 -0.8373  0.0891
  964MOL0     C30067   9.842   2.972   0.644 -0.0854  0.7091  0.8286
  964MOL0     C30068   9.957   3.029   0.733 -0.7500  0.2259 -0.9761
  964MOL0     C30069  10.073   2.933   0.751  0.6449 -0.0480  0.2809
  964MOL0     C30070  10.151   2.846   0.756  0.1570  0.4277  0.2780
  964MOL0     C30071   9.339   2.858   0.636  1.3237 -0.2239 -0.1687
  964MOL0     C30072   9.202   2.856   0.622  0.7198  0.2976  0.6213
  964MOL0     H30073   8.869   3.293   0.568  1.7694 -1.5444 -0.8120
  964MOL0     H30074   8.653   3.356   0.460 -0.4708 -1.3724 -2.5631
  964MOL0     H30075   8.358   3.042   0.434 -1.2495  0.6115 -0.4735
  964MOL0     H30076   8.295   3.128   0.576  0.5296  1.4549  0.1847
  964MOL0     H30077   8.175   3.281   0.404 -0.8529 -1.3781  1.8681
  964MOL0     H30078   8.261   3.186   0.274  0.1095  1.0124 -0.5852
  964MOL0     H30079   8.105   2.987   0.358  0.3022  1.2280 -1.6733
  964MOL0     H30080   8.053   3.087   0.493 -0.0790  2.6944  0.8267
  964MOL0     H30081   7.951   3.244   0.332  0.1916 -0.0914  0.7237
  964MOL0     H30082   7.978   3.140   0.190 -1.5313  0.0042 -0.1649
  964MOL0     H30083   7.870   2.957   0.333  0.8849  0.3317 -0.4748
  964MOL0     H30084   7.811   3.087   0.439 -1.5189 -1.0876 -0.6066
  964MOL0     H30085   7.711   3.198   0.245 -1.8011 -0.7067 -1.7148
  964MOL0     H30086   7.748   3.077   0.131  0.0658 -2.6523  0.5539
  964MOL0     H30087   7.604   2.925   0.286 -1.7811  0.0667  1.6687
  964MOL0     H30088   7.563   3.072   0.375  0.7059 -0.4961  1.0212
  964MOL0     H30089   7.495   3.049   0.067  0.2844  2.3599 -0.3099
  964MOL0     H30090   7.484   3.191   0.166  2.5409  0.5018 -1.3396
  964MOL0     H30091   7.374   2.952   0.428  0.9621  0.1052 -0.6734
  964MOL0     H30092   6.998   2.897   0.402  0.9618  1.1876 -3.6407
  964MOL0     H30093   7.116   2.871   0.522  1.0627  0.5970 -0.8901
  964MOL0     H30094   6.984   3.051   0.598 -1.8205 -2.0124 -1.0057
  964MOL0     H30095   7.025   3.141   0.451 -1.4584  0.6732  1.8498
  964MOL0     H30096   7.251   3.184   0.532  1.5131  0.0773  1.0081
  964MOL0     H30097   7.230   3.047   0.656 -1.4423 -0.7813  1.4089
  964MOL0     H30098   7.217   3.262   0.772 -1.6154  0.0955  0.7380
  964MOL0     H30099   7.068   3.166   0.772  1.2284  1.1813  3.5006
  964MOL0     H30100   7.049   3.465   0.889  0.6834  1.3457 -0.4423
  964MOL0     H30101   6.747   3.546   1.074  0.8425 -0.0478  1.4834
  964MOL0     H30102   6.865   3.411   1.121  3.2200 -0.5240  0.1135
  964MOL0     H30103   6.928   3.572   1.071 -1.7950  1.7718  1.0781
  964MOL0     H30104   6.314   3.327   1.001  0.1840 -0.6205 -2.3235
  964MOL0     H30105   6.114   3.395   1.084  1.1257 -1.7076 -0.6768
  964MOL0     H30106   5.913   3.806   0.940 -4.3489  0.7312 -3.2253
  964MOL0     H30107   5.885   3.647   0.862  2.8295 -1.3774  0.5494
  964MOL0     H30108   5.756   3.596   1.063  3.6959 -0.6199  0.1103
  964MOL0     H30109   5.785   3.756   1.129 -3.7428 -1.7592  1.5735
  964MOL0     H30110   5.650   3.711   0.869  1.6188  1.8380 -0.5226
  964MOL0     H30111   5.675   3.871   0.927 -0.7598 -0.2577 -0.3084
  964MOL0     H30112   5.492   3.648   1.003 -0.1473 -0.0472  0.3615
  964MOL0     H30113   5.535   3.770   1.135  1.7620  2.6662 -1.0465
  964MOL0     H30114   5.418   3.873   0.877  0.2774 -0.7832 -0.2132
  964MOL0     H30115   5.452   3.941   1.046 -1.3997  0.7145  0.3996
  964MOL0     H30116   5.272   3.700   1.020  0.9362 -0.9512  2.4312
  964MOL0     H30117   5.303   3.814   1.149  0.8636  1.9366 -0.4052
  964MOL0     H30118   5.082   3.872   1.062  0.5024 -2.0281  0.3768
  964MOL0     H30119   5.150   3.870   0.892 -0.9117  0.7001 -0.5476
  964MOL0     H30120   5.256   4.083   0.941 -2.9946 -0.6671 -2.7728
  964MOL0     H30121   5.216   4.068   1.114  1.9038  1.5783 -0.6644
  964MOL0     H30122   6.147   3.772   0.863 -0.3927 -1.0602 -1.1639
  964MOL0     H30123   6.362   3.686   0.780  0.8849 -1.3804 -0.8098
  964MOL0     H30124   6.637   3.314   0.671 -0.5756 -1.6560  1.2807
  964MOL0     H30125   6.857   3.263   0.573  1.3800 -2.0742  1.9933
  964MOL0     H30126   8.470   3.019   0.657 -1.4035  2.1253 -0.0374
  964MOL0     H30127   8.693   2.942   0.729 -2.6059 -0.1195  0.7888
  964MOL0     H30128   9.146   3.146   0.763  0.6518 -0.4405  0.3072
  964MOL0     H30129   9.391   3.173   0.743  2.1435  0.4149 -1.1711
  964MOL0     H30130   9.576   2.765   0.727 -0.6353 -1.2303 -1.8404
  964MOL0     H30131   9.608   2.810   0.564  0.2017 -1.5846  0.1833
  964MOL0     H30132   9.814   2.759   0.700  1.6358  0.0247 -0.7257
  964MOL0     H30133   9.754   2.875   0.820  2.5417 -1.4704  0.4929
  964MOL0     H30134   9.767   3.050   0.633 -1.5848 -0.4715  2.2016
  964MOL0     H30135   9.874   2.939   0.545 -2.1736  2.1605 -0.4131
  964MOL0     H30136   9.922   3.050   0.834  2.7513  0.2867  0.3820
  964MOL0     H30137   9.999   3.116   0.681 -0.7437 -0.4167 -2.0791
  964MOL0     H30138  10.233   2.776   0.753 -0.6975 -0.5647 -1.3607
  964MOL0     H30139   9.382   2.764   0.605 -0.7658 -1.4284  0.4305
  964MOL0     H30140   9.154   2.769   0.580  1.2792  0.8569 -1.2916
  965MOL0     O30141   2.356   0.727   6.154 -0.0108 -0.2780  0.2526
  965MOL0     C30142   2.459   0.658   6.149  0.1901  0.1974  0.3797
  965MOL0     O30143   2.479   0.556   6.058 -0.2969 -0.3229  0.3925
  965MOL0     C30144   2.389   0.523   5.965 -1.6138 -0.2783 -0.7212
  965MOL0     C30145   2.309   0.614   5.895  0.6902  0.3708 -0.2043
  965MOL0     C30146   2.221   0.578   5.800 -0.1254  0.8886  0.4193
  965MOL0     C30147   2.202   0.442   5.778  0.1529  0.8238  0.6727
  965MOL0     O30148   2.120   0.393   5.679 -0.0479  0.4739 -0.8045
  965MOL0     C30149   1.972   0.400   5.710  0.5297  0.1883  0.3347
  965MOL0     C30150   1.900   0.315   5.604  0.1705 -0.6168  0.0006
  965MOL0     C30151   1.752   0.338   5.631 -0.3155  0.1662  0.2159
  965MOL0     C30152   1.676   0.250   5.538  0.4153  0.1481 -0.5925
  965MOL0     C30153   1.664   0.102   5.594 -0.4202 -0.6293 -0.0263
  965MOL0     C30154   1.601  -0.006   5.502 -0.6100 -0.3745 -0.1001
  965MOL0     C30155   1.457   0.035   5.454  0.0636  0.3919 -0.3041
  965MOL0     C30156   1.353   0.049   5.562 -0.0740  0.0501 -0.2962
  965MOL0     N30157   1.215   0.069   5.518  0.6952  0.2294 -0.1663
  965MOL0     C30158   1.148   0.187   5.515 -0.0190  0.3343  0.4054
  965MOL0     C30159   1.032   0.151   5.455  0.4669  1.0976 -0.4949
  965MOL0     C30160   0.919   0.250   5.408 -0.4079 -0.3860  0.2097
  965MOL0     C30161   0.827   0.282   5.534  0.0363 -0.0451  0.3236
  965MOL0     C30162   0.684   0.224   5.521  0.5008  0.4676 -0.3051
  965MOL0     C30163   0.701   0.062   5.525 -0.0072 -0.8945  0.2028
  965MOL0     O30164   0.571  -0.003   5.520 -1.0426 -1.0700  0.0029
  965MOL0     C30165   0.506   0.003   5.398  0.0533 -0.2477 -0.4365
  965MOL0     C30166   0.575  -0.031   5.280  0.1384  0.1901  0.0478
  965MOL0     C30167   0.512  -0.013   5.156 -0.0372 -0.0873  0.1554
  965MOL0     C30168   0.589  -0.017   5.026  0.5952  1.0234 -0.4662
  965MOL0     C30169   0.372   0.017   5.154  0.4708 -0.4140 -0.0741
  965MOL0     C30170   0.280   0.030   5.033 -0.4326 -0.0043 -0.2217
  965MOL0     O30171   0.146   0.047   5.053  0.3096 -0.2061 -0.5743
  965MOL0     C30172   0.051   0.039   4.955 -0.4343 -0.1885 -0.6507
  965MOL0     C30173   0.044  -0.067   4.866  0.5481 -0.0917 -0.0547
  965MOL0     C30174  -0.053  -0.071   4.769  0.0407 -0.2169  0.6058
  965MOL0     C30175  -0.151   0.030   4.755 -0.4209  0.5973 -0.2230
  965MOL0     O30176  -0.239   0.005   4.653  0.1988 -0.5901  0.1876
  965MOL0     C30177  -0.378   0.057   4.663  0.6694  0.4424 -0.4030
  965MOL0     C30178  -0.463  -0.025   4.569 -0.5848  0.0663 -0.5041
  965MOL0     C30179  -0.596   0.047   4.555  0.0923  0.2040 -0.1883
  965MOL0     C30180  -0.670  -0.039   4.456 -0.5779 -0.1389 -0.2332
  965MOL0     C30181  -0.807   0.008   4.444  0.4815 -0.0678  0.0914
  965MOL0     C30182  -0.878  -0.056   4.323  0.3077 -0.2874 -0.0693
  965MOL0     C30183  -1.021  -0.020   4.327  0.1513  1.1071 -0.8536
  965MOL0     C30184  -1.107  -0.056   4.203 -0.6880  0.4626  0.2434
  965MOL0    Cl30185  -1.284  -0.010   4.250  0.4810  0.1409 -0.1846
  965MOL0     C30186  -0.142   0.143   4.840  0.7027  0.2200  0.2956
  965MOL0     C30187  -0.040   0.143   4.940 -0.0066  0.6139 -0.5817
  965MOL0     O30188   0.329   0.039   4.922  0.6053 -0.7667  0.0165
  965MOL0     C30189   0.300   0.025   5.275 -0.0061  0.5409  1.2771
  965MOL0     C30190   0.368   0.025   5.399 -0.0425  0.3688  0.1623
  965MOL0     N30191   1.030   0.017   5.411 -0.0207  0.5795  0.4850
  965MOL0     N30192   1.144  -0.027   5.455 -0.1741  0.5628 -0.4479
  965MOL0     C30193   2.278   0.349   5.848  0.3329 -0.4198 -0.1672
  965MOL0     C30194   2.368   0.389   5.938 -0.0060  0.6070 -0.5853
  965MOL0     C30195   2.573   0.691   6.239 -0.8602 -0.4942 -0.2075
  965MOL0     C30196   2.544   0.790   6.333 -0.4736  0.1675  0.0064
  965MOL0     C30197   2.643   0.832   6.414 -0.5084 -0.4791  0.3610
  965MOL0     C30198   2.769   0.768   6.416  0.3828 -0.2459 -0.4282
  965MOL0     O30199   2.871   0.799   6.502 -0.0467 -0.2683  0.4598
  965MOL0     C30200   2.850   0.904   6.600  0.0250 -0.2342  0.0722
  965MOL0     C30201   2.951   0.876   6.708  1.0551 -0.6912 -0.3001
  965MOL0     C30202   3.095   0.905   6.663 -0.2598  0.2595  0.1648
  965MOL0     C30203   3.202   0.912   6.774  0.2777  0.1956 -0.0657
  965MOL0     C30204   3.335   0.956   6.730  0.1196 -0.6959  0.0437
  965MOL0     C30205   3.446   0.994   6.705  0.2780  0.0100 -0.8465
  965MOL0     C30206   2.796   0.666   6.324  0.9026  0.0568 -0.5101
  965MOL0     C30207   2.697   0.623   6.238 -0.1029  0.4783  0.8174
  965MOL0     H30208   2.314   0.719   5.922  0.2585 -0.0516  1.6953
  965MOL0     H30209   2.154   0.646   5.750 -1.4137  0.6087  1.7153
  965MOL0     H30210   1.940   0.369   5.810 -2.1720  0.8918 -0.2217
  965MOL0     H30211   1.943   0.505   5.706 -0.4218 -0.0327  1.1324
  965MOL0     H30212   1.927   0.361   5.508  2.0678 -0.2148  0.7026
  965MOL0     H30213   1.926   0.210   5.617 -2.0990 -1.2421  0.0418
  965MOL0     H30214   1.719   0.314   5.733  0.8510  0.8295  0.7666
  965MOL0     H30215   1.717   0.437   5.598 -2.7616 -1.8361 -3.9937
  965MOL0     H30216   1.579   0.295   5.512  1.3127  1.2906 -2.1934
  965MOL0     H30217   1.736   0.248   5.447  1.9400 -1.4315  0.3890
  965MOL0     H30218   1.767   0.066   5.611  0.1009  1.1530  0.7636
  965MOL0     H30219   1.609   0.106   5.688  1.1736  1.6905  0.8975
  965MOL0     H30220   1.666  -0.024   5.415  3.0797  0.5470  2.2175
  965MOL0     H30221   1.593  -0.101   5.554 -0.1439 -1.0662 -1.2503
  965MOL0     H30222   1.466   0.117   5.381  1.6322 -0.0638 -0.6610
  965MOL0     H30223   1.414  -0.042   5.390  1.6481  0.1611 -1.1467
  965MOL0     H30224   1.382   0.126   5.634 -0.5730  0.1037 -0.1513
  965MOL0     H30225   1.352  -0.045   5.618 -2.6714 -0.3549 -0.9145
  965MOL0     H30226   1.177   0.284   5.555 -0.0375 -0.3427  2.1635
  965MOL0     H30227   0.975   0.338   5.375 -0.2010 -0.0283  1.4615
  965MOL0     H30228   0.866   0.194   5.330 -1.7540 -0.6600  1.2741
  965MOL0     H30229   0.815   0.390   5.548 -1.0583 -0.0371 -0.5144
  965MOL0     H30230   0.879   0.242   5.621  0.7342  1.4630  0.6366
  965MOL0     H30231   0.638   0.255   5.427  2.7983 -0.6409 -1.8798
  965MOL0     H30232   0.630   0.257   5.610  0.5327 -2.0586  0.7363
  965MOL0     H30233   0.744   0.030   5.621 -0.7675 -2.4560  0.0500
  965MOL0     H30234   0.777   0.018   5.459 -2.0842 -2.9078 -0.9884
  965MOL0     H30235   0.679  -0.061   5.284 -0.3384 -2.0653 -2.0497
  965MOL0     H30236   0.687  -0.055   5.053  0.6096  1.8550  0.7735
  965MOL0     H30237   0.555  -0.087   4.950  1.4889 -0.2184  0.2459
  965MOL0     H30238   0.588   0.082   4.979  0.5448  1.0846 -0.3338
  965MOL0     H30239   0.120  -0.142   4.883 -0.5372 -1.1294  0.3776
  965MOL0     H30240  -0.059  -0.150   4.695  2.6335 -0.2997  0.4003
  965MOL0     H30241  -0.413   0.047   4.766  0.9252 -0.4121 -0.3962
  965MOL0     H30242  -0.375   0.163   4.636 -1.4987  1.3678  2.4880
  965MOL0     H30243  -0.418  -0.038   4.470 -2.7010 -1.0166 -1.3636
  965MOL0     H30244  -0.472  -0.121   4.619  0.7131 -0.1613 -0.6683
  965MOL0     H30245  -0.586   0.152   4.526  1.8153 -0.2264 -1.2532
  965MOL0     H30246  -0.656   0.029   4.645  2.3609 -0.5538  1.2687
  965MOL0     H30247  -0.618  -0.028   4.360  0.0582 -2.9847 -0.2894
  965MOL0     H30248  -0.667  -0.146   4.480  0.4245 -0.2612 -0.8627
  965MOL0     H30249  -0.797   0.117   4.442  4.1705 -0.2801 -0.0426
  965MOL0     H30250  -0.858  -0.008   4.539 -0.4875 -1.4305 -0.6261
  965MOL0     H30251  -0.834  -0.018   4.231  0.4442 -0.3365 -0.0250
  965MOL0     H30252  -0.866  -0.165   4.330 -2.5510 -0.6544  0.2121
  965MOL0     H30253  -1.034   0.085   4.353  1.2007  1.5421 -2.0024
  965MOL0     H30254  -1.064  -0.084   4.405  1.5482  0.3502 -0.6832
  965MOL0     H30255  -1.108  -0.165   4.195  2.1274  0.3072  1.0462
  965MOL0     H30256  -1.065  -0.019   4.109  0.0914 -1.0806 -0.0537
  965MOL0     H30257  -0.200   0.234   4.831  1.0427  0.7247  2.6235
  965MOL0     H30258  -0.037   0.228   5.008 -1.9988 -0.6563  1.2103
  965MOL0     H30259   0.192   0.032   5.280 -0.5355 -4.1188  0.6572
  965MOL0     H30260   0.321   0.047   5.494  1.5816  1.9705  0.6443
  965MOL0     H30261   2.278   0.245   5.818  2.6251 -0.3582 -0.5790
  965MOL0     H30262   2.436   0.326   5.993 -0.9356  1.1066  1.1979
  965MOL0     H30263   2.450   0.845   6.341  0.3118  1.8329 -1.6920
  965MOL0     H30264   2.624   0.921   6.473 -0.0290 -0.9472  1.2481
  965MOL0     H30265   2.863   1.002   6.554  0.9814  0.0454  0.9168
  965MOL0     H30266   2.749   0.907   6.644  1.4846  1.1506  3.6827
  965MOL0     H30267   2.962   0.771   6.737  0.0647 -0.6531  0.2514
  965MOL0     H30268   2.919   0.927   6.799  1.0426 -1.4009  0.1071
  965MOL0     H30269   3.102   1.005   6.620  3.0449 -0.3056 -0.8861
  965MOL0     H30270   3.125   0.836   6.584  0.0499  1.4497 -0.7801
  965MOL0     H30271   3.204   0.815   6.823  0.1798  2.1876  4.3128
  965MOL0     H30272   3.161   0.988   6.842 -3.6963  2.9887 -4.8546
  965MOL0     H30273   3.550   1.017   6.690  0.8486 -2.9963 -2.3936
  965MOL0     H30274   2.897   0.627   6.337  1.2350  1.4634  1.5851
  965MOL0     H30275   2.722   0.539   6.173  0.4176  0.1232  1.4707
  966MOL0     O30276   6.670  10.219   2.925 -1.0620 -0.6932  0.1120
  966MOL0     C30277   6.737  10.114   2.923  0.2226  0.6177  0.0005
  966MOL0     O30278   6.705   9.996   2.857 -0.0265  0.5030  0.0030
  966MOL0     C30279   6.587   9.987   2.784  0.6608 -0.1031  0.1366
  966MOL0     C30280   6.467  10.041   2.829  0.3372  0.8068 -0.3250
  966MOL0     C30281   6.351  10.006   2.754 -0.0293 -0.3600  1.0310
  966MOL0     C30282   6.360   9.950   2.629 -0.2865 -0.6046  0.0564
  966MOL0     O30283   6.247   9.912   2.575 -0.6297 -0.2237  0.4188
  966MOL0     C30284   6.242   9.845   2.446 -0.1677 -0.1897  0.5343
  966MOL0     C30285   6.101   9.835   2.383 -1.4151 -0.5240  0.0094
  966MOL0     C30286   6.052   9.975   2.342 -0.0965  0.1636 -0.4188
  966MOL0     C30287   5.901   9.970   2.313  0.0772 -0.7631  0.8835
  966MOL0     C30288   5.847  10.106   2.279 -0.0675 -0.0410 -0.4379
  966MOL0     C30289   5.834  10.198   2.406 -0.1924  0.2279 -0.0966
  966MOL0     C30290   5.738  10.318   2.391 -0.6354  0.0501  0.4411
  966MOL0     C30291   5.775  10.406   2.276 -0.3457  1.1072  0.1988
  966MOL0     N30292   5.669  10.507   2.263 -0.4859  0.1301 -0.5692
  966MOL0     C30293   5.542  10.477   2.218 -0.2539 -0.2888 -0.6678
  966MOL0     C30294   5.468  10.590   2.232  0.5168  0.2776 -0.6683
  966MOL0     C30295   5.324  10.616   2.213 -0.1817  0.3729  1.0726
  966MOL0     C30296   5.260  10.733   2.289  0.4445 -0.4082  0.1254
  966MOL0     C30297   5.163  10.709   2.405  0.0513 -0.6597  0.4392
  966MOL0     C30298   5.032  10.684   2.342  0.6557  0.5971  0.3577
  966MOL0     O30299   5.034  10.572   2.251  0.8039  0.0489  0.5718
  966MOL0     C30300   4.919  10.542   2.166 -0.4582  0.9325 -0.0891
  966MOL0     C30301   4.885  10.407   2.132  0.0643 -1.0247 -0.7411
  966MOL0     C30302   4.769  10.368   2.065  0.7280 -0.7384 -0.6478
  966MOL0     C30303   4.738  10.219   2.063  0.2898 -0.3155  0.0544
  966MOL0     C30304   4.681  10.470   2.023  0.3105  0.8249  0.0628
  966MOL0     C30305   4.544  10.444   1.970 -0.5466  0.4050  0.3730
  966MOL0     O30306   4.456  10.354   2.033  0.2847  0.2299  0.3658
  966MOL0     C30307   4.322  10.357   2.007 -0.1878  0.3356  0.9632
  966MOL0     C30308   4.260  10.242   1.956 -1.0310 -0.7691 -0.5967
  966MOL0     C30309   4.126  10.244   1.920 -0.7814 -0.1385 -0.7305
  966MOL0     C30310   4.041  10.355   1.957  0.1794  0.0836  0.0349
  966MOL0     O30311   3.900  10.350   1.939 -0.1853  0.6226 -0.6269
  966MOL0     C30312   3.843  10.216   1.926  0.7768  0.5284 -0.0495
  966MOL0     C30313   3.684  10.246   1.939 -0.3351  0.2554 -0.4845
  966MOL0     C30314   3.639  10.288   2.080 -0.4006 -0.0237 -0.7033
  966MOL0     C30315   3.484  10.255   2.095 -0.8105  0.1595 -0.4761
  966MOL0     C30316   3.445  10.255   2.249  0.4058  0.0558 -0.2197
  966MOL0     C30317   3.297  10.286   2.269 -0.4454  0.4225  0.2156
  966MOL0     C30318   3.258  10.423   2.204  0.0325  0.4573  0.1077
  966MOL0     C30319   3.123  10.472   2.246  0.2548  0.7501 -0.2616
  966MOL0    Cl30320   3.084  10.646   2.216  0.1739  0.3273 -0.1119
  966MOL0     C30321   4.099  10.466   2.009  0.6303  0.2020 -0.6085
  966MOL0     C30322   4.243  10.471   2.024  0.3102  0.4650 -0.3195
  966MOL0     O30323   4.532  10.501   1.858 -0.3001 -0.2586  0.4126
  966MOL0     C30324   4.714  10.602   2.053 -0.8063  0.2071 -0.2076
  966MOL0     C30325   4.828  10.635   2.127 -0.5355  0.0388 -0.6530
  966MOL0     N30326   5.565  10.686   2.267  0.5158 -0.6820  0.4990
  966MOL0     N30327   5.684  10.637   2.282 -0.1934  0.2787 -0.5046
  966MOL0     C30328   6.484   9.906   2.581  0.3145  0.3796  0.3890
  966MOL0     C30329   6.599   9.928   2.661  0.3838 -0.6212 -0.7824
  966MOL0     C30330   6.866  10.111   2.991 -0.5216 -0.1985 -0.1814
  966MOL0     C30331   6.900  10.214   3.074 -0.9923 -0.2126  0.8629
  966MOL0     C30332   7.028  10.224   3.122  0.0784  0.0175  0.0576
  966MOL0     C30333   7.125  10.128   3.103 -0.9009 -0.9156 -0.0281
  966MOL0     O30334   7.246  10.143   3.169 -0.1980 -0.1050  0.0036
  966MOL0     C30335   7.323  10.024   3.204  0.2709 -0.4002 -0.2354
  966MOL0     C30336   7.461  10.022   3.149  0.1152 -0.4218  0.6172
  966MOL0     C30337   7.459  10.005   3.000  0.4294 -0.6208 -0.4212
  966MOL0     C30338   7.594   9.971   2.940  0.3993 -1.2156  0.7540
  966MOL0     C30339   7.581   9.942   2.799  0.2385 -1.1473 -0.1734
  966MOL0     C30340   7.563   9.913   2.691  0.4830  0.0327 -0.6343
  966MOL0     C30341   7.087  10.019   3.028  0.0005  0.3378  0.2765
  966MOL0     C30342   6.962  10.010   2.981  0.1601 -0.0444  0.1008
  966MOL0     H30343   6.452  10.101   2.918  1.8094 -0.5259  0.8663
  966MOL0     H30344   6.257  10.037   2.798 -0.3433  0.4840 -0.1906
  966MOL0     H30345   6.298   9.901   2.371 -1.0936  0.4795  0.3191
  966MOL0     H30346   6.276   9.741   2.444  1.8592  0.4249 -1.3143
  966MOL0     H30347   6.129   9.771   2.299  1.3537 -0.4574  0.7784
  966MOL0     H30348   6.026   9.782   2.442 -0.3786  0.2437  2.1371
  966MOL0     H30349   6.078  10.048   2.419 -1.8006 -2.4819  2.8823
  966MOL0     H30350   6.103  10.012   2.252  2.1124 -1.0416  0.2626
  966MOL0     H30351   5.883   9.906   2.225  1.3513 -0.1249  0.1396
  966MOL0     H30352   5.847   9.929   2.399  0.5213 -1.7596  0.7053
  966MOL0     H30353   5.897  10.155   2.195  3.9445 -2.8269  0.0002
  966MOL0     H30354   5.743  10.086   2.254 -0.4490 -0.6697  1.4846
  966MOL0     H30355   5.813  10.142   2.497 -1.2562 -0.9901 -1.0461
  966MOL0     H30356   5.937  10.228   2.427 -0.6718  1.6136  0.3534
  966MOL0     H30357   5.637  10.279   2.375 -0.0347 -0.6732 -2.0885
  966MOL0     H30358   5.739  10.377   2.483 -1.5196  0.4704  0.1976
  966MOL0     H30359   5.780  10.351   2.182  0.2345 -1.8068  1.8030
  966MOL0     H30360   5.868  10.462   2.288 -0.6325  1.6415 -0.0340
  966MOL0     H30361   5.508  10.380   2.183  1.4142 -0.9261 -0.5990
  966MOL0     H30362   5.313  10.648   2.109  1.9177  2.4911  1.4269
  966MOL0     H30363   5.265  10.526   2.230 -1.8020  1.0607 -0.5505
  966MOL0     H30364   5.219  10.794   2.208  0.0558 -0.8320 -0.0017
  966MOL0     H30365   5.342  10.791   2.333  0.3825 -1.3455  1.5410
  966MOL0     H30366   5.160  10.792   2.476 -2.3221  0.9561 -1.4041
  966MOL0     H30367   5.190  10.625   2.471  1.6684 -1.1700 -0.8110
  966MOL0     H30368   5.008  10.772   2.282 -0.4107 -0.1361 -0.3373
  966MOL0     H30369   4.954  10.670   2.417 -0.8304  3.6041 -0.4553
  966MOL0     H30370   4.958  10.331   2.158  0.1527  0.0295  2.5391
  966MOL0     H30371   4.828  10.160   2.044  1.0558  0.0840  2.1072
  966MOL0     H30372   4.705  10.191   2.164  0.6074 -1.0847 -0.0495
  966MOL0     H30373   4.663  10.192   1.988  2.7649  0.4763 -2.9162
  966MOL0     H30374   4.322  10.156   1.933  2.7760  2.0945 -2.1433
  966MOL0     H30375   4.089  10.149   1.885 -1.9738 -0.9929  2.4536
  966MOL0     H30376   3.868  10.174   1.828  0.7621 -0.8987  0.5481
  966MOL0     H30377   3.874  10.146   2.004 -1.6592 -0.0311  0.4798
  966MOL0     H30378   3.653  10.318   1.862 -1.2702  0.0788 -0.2941
  966MOL0     H30379   3.637  10.148   1.926  2.9169 -1.9013  2.3759
  966MOL0     H30380   3.647  10.396   2.073  0.5502 -0.1685 -2.6638
  966MOL0     H30381   3.706  10.249   2.157 -0.1529  1.4096 -0.1655
  966MOL0     H30382   3.428  10.322   2.030 -2.5802 -2.3828 -1.7492
  966MOL0     H30383   3.469  10.154   2.056 -1.0286 -0.5866  1.4038
  966MOL0     H30384   3.500  10.323   2.316 -0.8264 -1.0112  1.9988
  966MOL0     H30385   3.452  10.150   2.280  1.2387  0.7592  2.2041
  966MOL0     H30386   3.230  10.209   2.230  0.5799 -0.0797 -0.6100
  966MOL0     H30387   3.278  10.288   2.376  0.0358 -1.0135  0.3552
  966MOL0     H30388   3.256  10.420   2.095  0.8193  0.9136  0.0746
  966MOL0     H30389   3.327  10.501   2.239  1.3527 -0.2835 -0.7663
  966MOL0     H30390   3.099  10.447   2.350  0.3097  0.6948 -0.2624
  966MOL0     H30391   3.047  10.416   2.192  2.4307 -1.5416 -1.1126
  966MOL0     H30392   4.051  10.559   2.036  2.6501  0.7800  1.2672
  966MOL0     H30393   4.277  10.562   2.074  1.5809 -0.4374  0.5156
  966MOL0     H30394   4.638  10.675   2.028 -0.8011  0.8711  1.5687
  966MOL0     H30395   4.845  10.740   2.148  2.9947  0.0039 -2.5363
  966MOL0     H30396   6.503   9.857   2.486 -3.3745  1.9206 -1.3444
  966MOL0     H30397   6.695   9.889   2.629 -0.5574 -3.2377 -0.7323
  966MOL0     H30398   6.820  10.288   3.072 -1.3424 -0.5301 -2.2594
  966MOL0     H30399   7.054  10.305   3.189 -0.9198 -0.5846  1.2148
  966MOL0     H30400   7.330  10.022   3.314  1.5022  0.9716 -0.2465
  966MOL0     H30401   7.269   9.931   3.184 -1.6218 -0.1189  2.7756
  966MOL0     H30402   7.506   9.929   3.187 -1.2022 -0.7942  1.3056
  966MOL0     H30403   7.514  10.112   3.180 -2.6220  1.5070  0.0105
  966MOL0     H30404   7.424  10.100   2.957 -1.0834 -1.1710 -0.4780
  966MOL0     H30405   7.387   9.928   2.970 -0.9788  0.6185 -0.3454
  966MOL0     H30406   7.633   9.877   2.980 -0.2210 -2.1636 -0.7409
  966MOL0     H30407   7.661  10.055   2.959 -1.6889  1.0056 -1.0366
  966MOL0     H30408   7.545   9.887   2.589 -0.1706  0.0523 -0.5231
  966MOL0     H30409   7.148   9.934   3.001  1.5720  1.5931 -0.2488
  966MOL0     H30410   6.930   9.915   2.938  0.0280  0.0642 -0.0430
  967MOL0     O30411   2.369   6.426   6.760 -0.2681 -0.2994 -0.1563
  967MOL0     C30412   2.423   6.534   6.751  0.0303 -0.0676  0.4608
  967MOL0     O30413   2.364   6.656   6.737  0.2439  0.2046  0.5638
  967MOL0     C30414   2.221   6.658   6.723  0.4731 -0.2395 -0.2906
  967MOL0     C30415   2.159   6.592   6.620 -0.0789 -0.8424 -0.1073
  967MOL0     C30416   2.019   6.590   6.618  0.1930 -1.0812  0.1102
  967MOL0     C30417   1.938   6.644   6.722 -0.9450  0.3473 -0.6496
  967MOL0     O30418   1.807   6.652   6.715 -0.0143  0.4759  0.4000
  967MOL0     C30419   1.737   6.749   6.798 -0.6364 -0.1679  0.4058
  967MOL0     C30420   1.587   6.738   6.771 -0.2479  0.6203 -0.3170
  967MOL0     C30421   1.508   6.846   6.846 -0.4244 -1.4930  0.2217
  967MOL0     C30422   1.496   6.848   7.000 -0.2483  0.1971 -0.2221
  967MOL0     C30423   1.403   6.738   7.057 -0.3809 -0.0944  0.1965
  967MOL0     C30424   1.250   6.756   7.015  0.7123 -0.7095  0.3819
  967MOL0     C30425   1.191   6.619   7.005  0.2511 -0.1750  0.2402
  967MOL0     C30426   1.223   6.548   6.871 -0.5994 -0.1737 -0.1431
  967MOL0     N30427   1.137   6.435   6.837  0.1000 -0.0268 -0.1161
  967MOL0     C30428   0.999   6.430   6.815  0.4672 -0.8934  0.1178
  967MOL0     C30429   0.962   6.301   6.787 -0.0367  0.6607  0.3106
  967MOL0     C30430   0.829   6.252   6.753  0.0447  0.4748 -0.7975
  967MOL0     C30431   0.743   6.225   6.878  0.4105  0.1644 -0.6813
  967MOL0     C30432   0.630   6.120   6.850 -0.1545 -0.1892  0.0864
  967MOL0     C30433   0.555   6.074   6.969  0.0564 -0.2639  0.1470
  967MOL0     O30434   0.483   5.955   6.941 -0.4476  0.5745  0.8497
  967MOL0     C30435   0.351   5.956   6.893  0.0340 -0.2783  0.8154
  967MOL0     C30436   0.298   5.835   6.863 -0.2077  0.8722 -0.2385
  967MOL0     C30437   0.165   5.814   6.818  0.3463  0.5343 -0.1140
  967MOL0     C30438   0.107   5.672   6.810 -0.7071 -0.0465 -0.0375
  967MOL0     C30439   0.089   5.935   6.786  0.8364 -0.0647 -0.1887
  967MOL0     C30440  -0.049   5.930   6.724 -0.1789  0.1024 -0.9178
  967MOL0     O30441  -0.070   6.043   6.640  0.4469  0.5701  0.0686
  967MOL0     C30442  -0.182   6.038   6.561 -0.5534  0.1557  1.1409
  967MOL0     C30443  -0.166   6.020   6.423  0.3206 -0.4748  0.4385
  967MOL0     C30444  -0.277   5.993   6.337 -0.1351 -0.3009 -0.7376
  967MOL0     C30445  -0.412   6.012   6.390 -0.1338  0.5188 -0.2619
  967MOL0     O30446  -0.526   5.996   6.322 -0.4971 -0.1754 -0.5492
  967MOL0     C30447  -0.525   5.934   6.196 -0.1872 -0.1563 -0.6973
  967MOL0     C30448  -0.650   5.864   6.163 -0.5882  0.0314 -0.5510
  967MOL0     C30449  -0.681   5.758   6.270  0.1946  0.1854  0.0314
  967MOL0     C30450  -0.813   5.698   6.216 -0.7454  0.5948  0.1072
  967MOL0     C30451  -0.878   5.603   6.319 -0.2494  0.8345  0.2166
  967MOL0     C30452  -0.924   5.678   6.440 -0.6527  0.8211 -1.1743
  967MOL0     C30453  -0.978   5.575   6.550 -0.8855  0.5892 -0.2141
  967MOL0     C30454  -1.033   5.635   6.680 -1.0480 -0.2592 -0.1699
  967MOL0    Cl30455  -1.174   5.724   6.632  0.1311  0.4400  0.1592
  967MOL0     C30456  -0.430   6.032   6.525  0.1873  0.4681  0.2431
  967MOL0     C30457  -0.316   6.045   6.606 -0.4039 -0.1677  0.9040
  967MOL0     O30458  -0.128   5.846   6.758 -0.0744  0.2429  0.3465
  967MOL0     C30459   0.141   6.060   6.816 -0.2155 -0.3574 -0.7409
  967MOL0     C30460   0.268   6.068   6.876  1.1534  0.1248  1.2435
  967MOL0     N30461   1.083   6.226   6.790  0.2027 -0.0897 -0.1391
  967MOL0     N30462   1.177   6.305   6.830  0.0890 -0.1907  0.6862
  967MOL0     C30463   2.011   6.708   6.826 -0.0617 -0.5968 -0.4281
  967MOL0     C30464   2.145   6.722   6.824 -0.3626  0.3044  0.0432
  967MOL0     C30465   2.565   6.521   6.780  0.0412 -0.0141  0.6503
  967MOL0     C30466   2.629   6.414   6.843 -0.9089  0.2577 -0.5600
  967MOL0     C30467   2.767   6.409   6.869 -0.2864 -0.0388  0.8461
  967MOL0     C30468   2.843   6.523   6.843  0.4962 -0.4814 -0.3147
  967MOL0     O30469   2.974   6.513   6.865 -1.0375 -0.5565 -0.0042
  967MOL0     C30470   3.047   6.636   6.873 -0.7933 -0.7466 -1.0902
  967MOL0     C30471   3.187   6.613   6.927 -0.0288  0.0687  0.1958
  967MOL0     C30472   3.195   6.538   7.057  0.6300 -0.2280 -0.9829
  967MOL0     C30473   3.347   6.533   7.108 -0.0197  0.8247 -0.3755
  967MOL0     C30474   3.351   6.491   7.249  0.4600 -0.2266 -1.0587
  967MOL0     C30475   3.351   6.467   7.365 -0.5065 -0.4116 -0.2640
  967MOL0     C30476   2.784   6.631   6.778  0.1865 -0.1194  0.0124
  967MOL0     C30477   2.646   6.631   6.743  0.6606  0.1637 -0.5481
  967MOL0     H30478   2.215   6.543   6.541 -1.0000  0.7040 -1.7989
  967MOL0     H30479   1.957   6.552   6.538 -2.5235 -1.0827  2.0596
  967MOL0     H30480   1.745   6.730   6.905 -1.2476 -0.2717  0.4397
  967MOL0     H30481   1.770   6.848   6.765  0.8904 -1.2263 -1.4614
  967MOL0     H30482   1.573   6.746   6.663 -0.4542  1.5484 -0.2294
  967MOL0     H30483   1.544   6.643   6.803  3.2062 -1.6340 -1.7689
  967MOL0     H30484   1.557   6.940   6.819 -3.3699  0.3725  0.8569
  967MOL0     H30485   1.411   6.859   6.798 -0.6282 -2.4033  0.3830
  967MOL0     H30486   1.597   6.828   7.038 -0.4737 -2.0511 -0.6330
  967MOL0     H30487   1.457   6.945   7.032 -0.5654 -0.0047 -0.0007
  967MOL0     H30488   1.432   6.642   7.014  3.0716  0.7194  0.4252
  967MOL0     H30489   1.412   6.728   7.166  0.0150 -0.1938  0.1544
  967MOL0     H30490   1.202   6.823   7.088  0.1232  0.8516 -1.3361
  967MOL0     H30491   1.232   6.800   6.917  0.1461 -0.2282  0.6902
  967MOL0     H30492   1.217   6.554   7.089 -0.6948 -2.7736 -1.3379
  967MOL0     H30493   1.082   6.623   7.006  0.2609  0.0756  0.5590
  967MOL0     H30494   1.326   6.510   6.871  0.3189  2.0425 -2.2092
  967MOL0     H30495   1.225   6.622   6.791 -1.2712 -0.2682 -0.2542
  967MOL0     H30496   0.938   6.519   6.807  1.3150 -0.4606 -3.0478
  967MOL0     H30497   0.773   6.319   6.687 -1.5503 -1.0498 -1.0676
  967MOL0     H30498   0.842   6.157   6.700 -1.4919 -0.0862 -0.2279
  967MOL0     H30499   0.707   6.324   6.910  1.5279  0.4231 -0.1822
  967MOL0     H30500   0.803   6.186   6.960 -2.2794  0.1510  1.4432
  967MOL0     H30501   0.677   6.037   6.797  0.8731  0.4416 -0.0058
  967MOL0     H30502   0.560   6.163   6.777  2.3925  0.7447 -1.9641
  967MOL0     H30503   0.488   6.146   7.018 -0.8135 -0.9128 -0.0554
  967MOL0     H30504   0.627   6.048   7.047  2.3096  0.2896 -1.6725
  967MOL0     H30505   0.354   5.747   6.893  1.6813  0.6678 -3.7859
  967MOL0     H30506   0.036   5.650   6.890 -1.3619  2.5574  0.2112
  967MOL0     H30507   0.058   5.658   6.713 -1.9274 -0.8875  0.6712
  967MOL0     H30508   0.189   5.600   6.821  0.1559  1.0129  0.6971
  967MOL0     H30509  -0.062   6.018   6.391 -0.0447 -4.8665 -1.1867
  967MOL0     H30510  -0.257   5.969   6.233 -2.9398  3.2518 -2.3306
  967MOL0     H30511  -0.506   6.007   6.117  2.7101  0.5145  0.4608
  967MOL0     H30512  -0.445   5.860   6.183  1.7503  1.6247  0.4729
  967MOL0     H30513  -0.732   5.933   6.142  1.3385  1.5536 -3.7034
  967MOL0     H30514  -0.638   5.813   6.067 -1.5260 -1.3863  0.0337
  967MOL0     H30515  -0.686   5.802   6.370  0.5954 -2.6385  1.3962
  967MOL0     H30516  -0.607   5.679   6.257 -0.6311 -0.8570  1.3344
  967MOL0     H30517  -0.895   5.770   6.204 -1.5526  0.0553  1.9691
  967MOL0     H30518  -0.798   5.636   6.127  1.8856  1.2873 -0.0112
  967MOL0     H30519  -0.801   5.530   6.344 -0.3516  0.3578 -0.8104
  967MOL0     H30520  -0.959   5.546   6.273  1.9715 -1.5277 -1.0273
  967MOL0     H30521  -0.838   5.733   6.479 -0.5657 -1.3038  2.0343
  967MOL0     H30522  -0.999   5.751   6.409 -1.9201 -0.4818 -1.2760
  967MOL0     H30523  -0.890   5.513   6.571 -1.4524 -0.2676 -0.3154
  967MOL0     H30524  -1.058   5.518   6.501 -0.7143  0.5284 -0.4204
  967MOL0     H30525  -0.963   5.705   6.727  1.6378 -2.6239 -0.4238
  967MOL0     H30526  -1.065   5.556   6.749 -0.8554  1.4712  2.0550
  967MOL0     H30527  -0.534   6.042   6.555 -0.8203  2.0261 -3.2075
  967MOL0     H30528  -0.331   6.060   6.713  1.1062  0.2651  1.0710
  967MOL0     H30529   0.083   6.152   6.815 -0.3125 -0.4110 -0.2624
  967MOL0     H30530   0.313   6.161   6.907  1.7588 -0.2306  1.4479
  967MOL0     H30531   1.960   6.750   6.912  0.1726 -2.2303  0.5512
  967MOL0     H30532   2.200   6.777   6.900 -2.1050  2.8862 -0.3989
  967MOL0     H30533   2.574   6.328   6.879 -0.5442  1.0857  2.2654
  967MOL0     H30534   2.822   6.325   6.910  5.2620  1.1051 -3.1848
  967MOL0     H30535   3.054   6.674   6.771 -1.0555 -1.1479 -1.2596
  967MOL0     H30536   3.002   6.706   6.943 -3.0162 -3.1566  0.0607
  967MOL0     H30537   3.228   6.710   6.956  3.8639 -1.6680  1.1901
  967MOL0     H30538   3.241   6.565   6.845  1.1687  0.8282  0.5282
  967MOL0     H30539   3.161   6.434   7.055 -1.6585  0.3814  1.4574
  967MOL0     H30540   3.136   6.582   7.138 -0.5380 -2.5614 -0.4656
  967MOL0     H30541   3.396   6.627   7.082  1.1576  0.3619  0.1325
  967MOL0     H30542   3.397   6.454   7.052 -0.5007  0.4399 -0.2658
  967MOL0     H30543   3.338   6.451   7.470 -1.2107  1.9334  0.0838
  967MOL0     H30544   2.853   6.711   6.752  2.1301 -1.5963  0.4130
  967MOL0     H30545   2.604   6.713   6.686  1.5117  0.3508 -0.9286
  968MOL0     O30546   4.761   5.257   9.876 -0.5752  0.4757  0.4143
  968MOL0     C30547   4.832   5.351   9.905  0.1744  0.0757  0.0411
  968MOL0     O30548   4.799   5.480   9.926  0.1760 -1.0511  0.8998
  968MOL0     C30549   4.670   5.524   9.905 -0.0457 -0.1522 -0.4072
  968MOL0     C30550   4.611   5.612   9.994 -0.4430  0.6374 -0.8499
  968MOL0     C30551   4.480   5.648   9.990 -0.3845 -0.0803 -0.9580
  968MOL0     C30552   4.400   5.589   9.890 -0.0496 -0.3529  1.0799
  968MOL0     O30553   4.264   5.622   9.889  0.1435 -0.0564  0.0240
  968MOL0     C30554   4.166   5.567   9.789 -0.1345  0.0772 -0.0361
  968MOL0     C30555   4.033   5.640   9.805  0.5482  0.3810 -0.1710
  968MOL0     C30556   3.967   5.597   9.932  0.3911  0.7146 -0.2057
  968MOL0     C30557   3.823   5.635   9.924 -0.4999 -0.3596 -0.7556
  968MOL0     C30558   3.752   5.604  10.055  0.4469  0.9720 -0.4167
  968MOL0     C30559   3.614   5.660  10.031  0.2296 -0.1996  0.5633
  968MOL0     C30560   3.541   5.618  10.162 -0.7497  0.1072  0.6083
  968MOL0     C30561   3.399   5.678  10.164  0.3008  0.2846 -0.4567
  968MOL0     N30562   3.372   5.723  10.297  0.3712 -0.3252 -0.3900
  968MOL0     C30563   3.306   5.650  10.398 -0.0991  0.0538 -1.0234
  968MOL0     C30564   3.299   5.725  10.511 -0.6231  0.0285  0.9004
  968MOL0     C30565   3.232   5.681  10.642 -0.9529  0.5226  0.5023
  968MOL0     C30566   3.094   5.744  10.644 -0.3634  0.5042  0.0261
  968MOL0     C30567   3.110   5.869  10.731  0.3217  0.1099 -0.6401
  968MOL0     C30568   2.967   5.919  10.771  0.0492  0.5067  0.2648
  968MOL0     O30569   2.924   5.842  10.890 -1.1600 -0.2258  0.0542
  968MOL0     C30570   2.819   5.886  10.959  0.0462  0.3527 -0.1147
  968MOL0     C30571   2.811   5.844  11.091 -0.3563 -0.1030 -0.8959
  968MOL0     C30572   2.710   5.897  11.169  0.2545 -0.2685 -0.5352
  968MOL0     C30573   2.718   5.847  11.311 -0.5504 -0.2464 -0.1865
  968MOL0     C30574   2.613   5.979  11.118 -0.1185  0.5042 -0.2879
  968MOL0     C30575   2.497   6.041  11.194 -0.7647  0.1987 -0.6401
  968MOL0     O30576   2.422   6.137  11.126  0.2723  0.0083 -0.2716
  968MOL0     C30577   2.298   6.170  11.170  0.6203 -0.0343  0.0313
  968MOL0     C30578   2.254   6.293  11.128  0.4497 -0.2713 -0.9240
  968MOL0     C30579   2.136   6.348  11.176  0.2389 -1.2394  0.0218
  968MOL0     C30580   2.047   6.270  11.251 -0.2571  0.2568 -0.4142
  968MOL0     O30581   1.928   6.324  11.297  0.0198 -0.5198 -0.3339
  968MOL0     C30582   1.861   6.273  11.415 -0.3298  0.0815 -0.1468
  968MOL0     C30583   1.731   6.205  11.372 -0.4983  0.6257 -0.5800
  968MOL0     C30584   1.605   6.267  11.439  0.1560 -0.4295  0.0900
  968MOL0     C30585   1.603   6.221  11.589  0.1640  0.7993  0.1542
  968MOL0     C30586   1.508   6.293  11.685 -0.1054 -0.0923 -0.0517
  968MOL0     C30587   1.364   6.304  11.637 -0.4054  0.2475 -0.1770
  968MOL0     C30588   1.287   6.187  11.704  0.4773 -0.7893  0.2639
  968MOL0     C30589   1.141   6.188  11.658  0.4818 -0.7141 -0.0860
  968MOL0    Cl30590   1.057   6.339  11.718 -0.1526  0.1878  0.3184
  968MOL0     C30591   2.086   6.139  11.285 -0.6214  0.3673  0.1620
  968MOL0     C30592   2.212   6.093  11.247  0.1347  0.7929  0.6260
  968MOL0     O30593   2.481   6.009  11.313  0.3516 -0.4389 -0.4123
  968MOL0     C30594   2.616   6.012  10.984 -0.2090  1.1806 -0.1712
  968MOL0     C30595   2.717   5.962  10.898  0.5979 -0.3667 -0.3960
  968MOL0     N30596   3.364   5.844  10.481 -0.0372 -0.2417 -0.1961
  968MOL0     N30597   3.416   5.838  10.356 -0.0871  0.1436 -0.2608
  968MOL0     C30598   4.461   5.500   9.798 -0.5886  0.2827 -0.2255
  968MOL0     C30599   4.598   5.484   9.795  0.2128 -0.2415 -0.1063
  968MOL0     C30600   4.975   5.320   9.934 -0.7765 -0.0012 -0.5906
  968MOL0     C30601   5.047   5.401  10.035 -0.3733  0.5469  0.4106
  968MOL0     C30602   5.179   5.373  10.074  0.5319  0.9734 -0.6366
  968MOL0     C30603   5.245   5.260  10.020 -0.6823  0.7347  0.8562
  968MOL0     O30604   5.372   5.215  10.049 -0.1014  0.3419  0.3393
  968MOL0     C30605   5.451   5.284  10.146 -0.4140 -0.0370  0.3332
  968MOL0     C30606   5.592   5.217  10.155 -0.1171  0.8439 -0.8612
  968MOL0     C30607   5.647   5.206  10.018 -0.3370 -1.1904 -0.5370
  968MOL0     C30608   5.795   5.204  10.022 -0.1458 -0.1786  0.6891
  968MOL0     C30609   5.837   5.177   9.889 -0.3475 -0.6045  0.2838
  968MOL0     C30610   5.879   5.143   9.785 -0.1529 -0.4553  0.2757
  968MOL0     C30611   5.171   5.185   9.918 -0.6479  0.6561 -0.0700
  968MOL0     C30612   5.047   5.213   9.875 -0.1562 -0.6566 -0.3160
  968MOL0     H30613   4.662   5.634  10.087  0.0227 -0.2893 -0.8714
  968MOL0     H30614   4.429   5.716  10.058 -0.7661  2.7737 -3.8017
  968MOL0     H30615   4.203   5.587   9.688  1.4163  3.5605  1.0902
  968MOL0     H30616   4.153   5.459   9.805 -2.9412  0.2875 -0.5136
  968MOL0     H30617   4.054   5.747   9.806  0.1033  0.5537 -2.7916
  968MOL0     H30618   3.974   5.618   9.715  0.6310  1.3404 -0.4674
  968MOL0     H30619   3.976   5.488   9.938  0.1652  0.6171 -1.4170
  968MOL0     H30620   4.017   5.637  10.020  3.2754 -1.1344 -0.8899
  968MOL0     H30621   3.820   5.742   9.899 -0.0306 -0.3325 -0.7055
  968MOL0     H30622   3.776   5.585   9.839 -0.1048 -0.3085 -1.0069
  968MOL0     H30623   3.740   5.496  10.067  1.1197  1.0443  1.1985
  968MOL0     H30624   3.800   5.653  10.140  1.3902  1.8879 -1.4409
  968MOL0     H30625   3.618   5.769  10.023  0.1576 -0.1526  1.1126
  968MOL0     H30626   3.558   5.626   9.943  0.2518  0.0503  0.4516
  968MOL0     H30627   3.521   5.512  10.148 -3.0390  0.7995 -2.6896
  968MOL0     H30628   3.601   5.641  10.250 -1.0405 -1.1298  1.1510
  968MOL0     H30629   3.338   5.593  10.132  0.3225 -0.4194  1.2723
  968MOL0     H30630   3.381   5.759  10.093 -0.7870  0.3880 -0.0729
  968MOL0     H30631   3.260   5.552  10.388 -1.2827 -0.0560  3.5622
  968MOL0     H30632   3.227   5.572  10.631  1.2196  0.3522  0.5978
  968MOL0     H30633   3.292   5.686  10.733  1.7660 -2.2597 -0.9044
  968MOL0     H30634   3.013   5.682  10.684  0.1096 -0.0155  0.2075
  968MOL0     H30635   3.067   5.770  10.541  0.1748 -0.3373 -0.3401
  968MOL0     H30636   3.161   5.954  10.685  2.0313 -0.5725 -0.0983
  968MOL0     H30637   3.155   5.832  10.823  0.9042  1.5276 -0.3452
  968MOL0     H30638   2.899   5.906  10.686  1.9283 -3.2402 -0.8544
  968MOL0     H30639   2.975   6.024  10.803 -0.9338  1.7483 -3.1467
  968MOL0     H30640   2.884   5.775  11.132 -1.0279  0.5430  1.5512
  968MOL0     H30641   2.628   5.798  11.350 -0.3296  0.2278  0.9764
  968MOL0     H30642   2.798   5.778  11.340 -1.5066 -0.5896  1.8588
  968MOL0     H30643   2.732   5.929  11.382  0.2377 -0.7289  0.2278
  968MOL0     H30644   2.316   6.358  11.067 -0.2970 -1.7462 -3.3612
  968MOL0     H30645   2.108   6.448  11.145 -0.5929 -1.9929 -1.7432
  968MOL0     H30646   1.934   6.212  11.468  0.3402 -0.8081 -1.9972
  968MOL0     H30647   1.842   6.361  11.476  1.7841  0.8781 -0.5720
  968MOL0     H30648   1.717   6.194  11.264  0.6913  0.1286 -0.7013
  968MOL0     H30649   1.733   6.102  11.409 -1.7666  0.7431 -0.1580
  968MOL0     H30650   1.524   6.223  11.379  2.4548  1.7852 -5.3227
  968MOL0     H30651   1.610   6.376  11.427  0.5444 -0.5653 -1.1074
  968MOL0     H30652   1.578   6.115  11.595  0.4947  0.4352 -3.0437
  968MOL0     H30653   1.703   6.236  11.630 -0.3976  0.0259  1.8815
  968MOL0     H30654   1.546   6.393  11.705  0.7025 -0.4128  0.0531
  968MOL0     H30655   1.498   6.242  11.782  0.0677  0.5888  0.3312
  968MOL0     H30656   1.314   6.391  11.680  0.0585  0.7644 -0.6788
  968MOL0     H30657   1.351   6.294  11.529 -2.3652  2.6243 -0.2431
  968MOL0     H30658   1.301   6.177  11.812  1.7429 -0.9633  0.1019
  968MOL0     H30659   1.337   6.095  11.675  0.5359 -0.5344 -0.4585
  968MOL0     H30660   1.088   6.104  11.705 -7.7274  3.0263 -0.9693
  968MOL0     H30661   1.119   6.183  11.551  0.4199  5.9929 -0.7860
  968MOL0     H30662   2.012   6.074  11.331 -0.8323  0.2885 -0.2880
  968MOL0     H30663   2.232   5.989  11.273 -3.7955 -0.2300  0.2547
  968MOL0     H30664   2.538   6.078  10.947 -1.6659 -0.9331 -1.0412
  968MOL0     H30665   2.717   5.980  10.790 -1.0383 -4.9072 -1.3684
  968MOL0     H30666   4.407   5.480   9.706  0.4443 -0.3600 -0.7065
  968MOL0     H30667   4.638   5.426   9.712  0.5971  0.3532 -0.3394
  968MOL0     H30668   4.999   5.483  10.088 -2.3011 -1.0134  1.1919
  968MOL0     H30669   5.232   5.439  10.142  1.0133 -0.3421  0.3197
  968MOL0     H30670   5.467   5.386  10.112 -4.6573  0.3803 -0.9484
  968MOL0     H30671   5.402   5.291  10.243 -1.7103  1.2711 -0.3821
  968MOL0     H30672   5.594   5.119  10.204 -0.1592  1.0232 -0.5026
  968MOL0     H30673   5.649   5.295  10.206 -1.8898  1.5412  0.1535
  968MOL0     H30674   5.607   5.279   9.948  3.0889 -1.9116 -3.5095
  968MOL0     H30675   5.606   5.113   9.977  1.2507 -1.5406 -1.4016
  968MOL0     H30676   5.825   5.131  10.098  1.1315 -0.0692  0.3088
  968MOL0     H30677   5.831   5.304  10.047  2.0095 -0.8562  0.4713
  968MOL0     H30678   5.936   5.119   9.698 -1.6507 -1.6769 -0.4190
  968MOL0     H30679   5.219   5.101   9.868 -2.0421  1.5403 -3.1393
  968MOL0     H30680   5.003   5.158   9.793  2.4988 -0.5516 -1.9438
  969MOL0     O30681   1.515   5.527  10.093 -0.8119 -0.0578  0.2991
  969MOL0     C30682   1.527   5.458  10.200  0.1919  0.0954  0.0192
  969MOL0     O30683   1.650   5.411  10.242 -0.3681  0.2530 -0.2126
  969MOL0     C30684   1.762   5.449  10.163  0.3812 -0.3304  0.0847
  969MOL0     C30685   1.848   5.546  10.222 -0.2096  0.9939 -0.0465
  969MOL0     C30686   1.968   5.589  10.157  0.5435  0.3527 -0.5695
  969MOL0     C30687   1.997   5.529  10.039  0.8596  0.3122 -0.4077
  969MOL0     O30688   2.104   5.579   9.975 -0.4175 -0.2871  0.4087
  969MOL0     C30689   2.077   5.629   9.839  0.4750  0.3970  0.3889
  969MOL0     C30690   2.205   5.691   9.783 -0.3315  1.0860 -0.2918
  969MOL0     C30691   2.317   5.592   9.747  0.7163 -0.1236 -0.2562
  969MOL0     C30692   2.438   5.659   9.687  0.2545  0.5899  0.5188
  969MOL0     C30693   2.530   5.550   9.630 -0.0485  0.1342 -0.9745
  969MOL0     C30694   2.666   5.607   9.589  0.2762 -0.5546  0.4689
  969MOL0     C30695   2.719   5.531   9.465  0.1305 -0.1890 -0.4854
  969MOL0     C30696   2.852   5.582   9.423  0.3216 -0.2985  0.2376
  969MOL0     N30697   2.839   5.705   9.353  0.5718 -0.5767 -0.4462
  969MOL0     C30698   2.865   5.838   9.398  0.6222  0.5985  0.0217
  969MOL0     C30699   2.865   5.908   9.285 -0.2642  0.5793  0.4653
  969MOL0     C30700   2.910   6.047   9.260  0.0442  0.5621 -0.5642
  969MOL0     C30701   2.829   6.117   9.159 -0.2902 -0.1865  0.1118
  969MOL0     C30702   2.682   6.142   9.186 -0.1426 -0.8564 -0.0484
  969MOL0     C30703   2.595   6.027   9.225 -0.0815  0.3745 -0.0482
  969MOL0     O30704   2.461   6.077   9.250  0.4812  0.1796  0.1354
  969MOL0     C30705   2.357   5.994   9.294 -0.2139 -0.1230  0.7696
  969MOL0     C30706   2.368   5.850   9.311  0.0683 -0.0318  0.0079
  969MOL0     C30707   2.258   5.773   9.343 -0.1178 -0.3742 -0.2874
  969MOL0     C30708   2.272   5.625   9.361  0.3012  0.2685 -0.2854
  969MOL0     C30709   2.134   5.841   9.358 -0.4551  0.5635  0.0093
  969MOL0     C30710   2.004   5.780   9.396 -0.8742  0.3043  1.0476
  969MOL0     O30711   1.900   5.862   9.442 -0.3155 -0.6318 -0.6753
  969MOL0     C30712   1.788   5.806   9.492  1.2589 -0.0297  0.1985
  969MOL0     C30713   1.766   5.765   9.631  0.6202  0.2703  0.2608
  969MOL0     C30714   1.634   5.736   9.664 -0.3096 -1.3692  0.1116
  969MOL0     C30715   1.524   5.729   9.575 -0.0617  0.7179 -1.5502
  969MOL0     O30716   1.401   5.686   9.622  0.2940  0.9413 -0.0680
  969MOL0     C30717   1.356   5.701   9.761 -0.0820  0.2790 -0.4244
  969MOL0     C30718   1.218   5.651   9.771  0.4807  0.5411 -0.9930
  969MOL0     C30719   1.163   5.628   9.914  0.2824 -0.5277  0.0879
  969MOL0     C30720   1.023   5.557   9.909 -0.3643 -0.5324  0.5647
  969MOL0     C30721   0.971   5.553  10.054  0.1822  0.0121  0.5419
  969MOL0     C30722   0.843   5.469  10.066 -0.4695  0.2020 -0.4595
  969MOL0     C30723   0.791   5.457  10.212  0.3494  0.2519  0.0726
  969MOL0     C30724   0.664   5.380  10.228 -1.1093  0.5508 -0.2375
  969MOL0    Cl30725   0.527   5.441  10.141 -0.4562  0.2147 -0.3062
  969MOL0     C30726   1.550   5.754   9.443 -0.5382  0.3825 -0.2293
  969MOL0     C30727   1.679   5.797   9.401  0.0932 -0.0702 -0.1453
  969MOL0     O30728   2.002   5.660   9.401  0.3384  0.5646 -0.0163
  969MOL0     C30729   2.126   5.982   9.341 -0.6718 -0.1318  0.0039
  969MOL0     C30730   2.240   6.062   9.314 -0.8823 -0.6395  0.7607
  969MOL0     N30731   2.827   5.822   9.188  0.4843 -0.3247 -0.5981
  969MOL0     N30732   2.816   5.703   9.223 -0.4032 -0.3772  0.0170
  969MOL0     C30733   1.918   5.425   9.977  0.2720 -0.7238 -0.0739
  969MOL0     C30734   1.798   5.388  10.040 -0.7960 -0.7298  0.1457
  969MOL0     C30735   1.408   5.419  10.271  0.0864  0.3054  0.2952
  969MOL0     C30736   1.293   5.507  10.267  0.4260  0.5658  0.6078
  969MOL0     C30737   1.183   5.456  10.331 -0.6721 -0.7185 -0.3643
  969MOL0     C30738   1.172   5.330  10.387  0.5701  0.0393  0.0416
  969MOL0     O30739   1.046   5.299  10.422 -0.3639  0.5513  0.2177
  969MOL0     C30740   1.035   5.195  10.522  0.6749 -0.4176  0.2571
  969MOL0     C30741   0.894   5.205  10.587 -0.8569 -0.5788 -0.1630
  969MOL0     C30742   0.782   5.156  10.506 -0.0472 -0.1365  0.1574
  969MOL0     C30743   0.656   5.155  10.592  0.0833  0.6098 -0.1378
  969MOL0     C30744   0.543   5.093  10.515  0.1168 -0.9569 -1.2058
  969MOL0     C30745   0.462   5.057  10.432  0.6170  0.0528 -0.2721
  969MOL0     C30746   1.290   5.247  10.397 -0.1199 -0.4585  0.1870
  969MOL0     C30747   1.413   5.296  10.350 -0.0135  0.3375  0.4179
  969MOL0     H30748   1.826   5.590  10.319 -0.1540  0.2133  0.3307
  969MOL0     H30749   2.035   5.670  10.184  1.3345  0.9166 -3.8189
  969MOL0     H30750   2.049   5.552   9.767  0.5234  0.3871  0.3813
  969MOL0     H30751   1.996   5.702   9.847 -0.5500 -0.5697 -0.7019
  969MOL0     H30752   2.195   5.743   9.687 -1.0365  0.5392 -0.5181
  969MOL0     H30753   2.254   5.763   9.850  1.7531  0.4096 -0.9872
  969MOL0     H30754   2.337   5.530   9.835 -1.1043  0.3722  0.5520
  969MOL0     H30755   2.277   5.525   9.671  2.5551  0.6234 -1.9780
  969MOL0     H30756   2.405   5.729   9.610 -2.4710 -0.4825  0.6222
  969MOL0     H30757   2.486   5.719   9.766 -2.6091 -0.2006  3.0193
  969MOL0     H30758   2.538   5.471   9.705 -0.8000  0.6082 -0.3893
  969MOL0     H30759   2.494   5.501   9.539  4.0022  0.9207 -3.2648
  969MOL0     H30760   2.658   5.712   9.559  0.8204 -0.6500 -0.0111
  969MOL0     H30761   2.729   5.611   9.679 -1.4992  1.0842  1.7356
  969MOL0     H30762   2.722   5.426   9.495  0.5747 -0.2595 -0.7747
  969MOL0     H30763   2.645   5.533   9.385 -2.1202 -4.5698  1.1554
  969MOL0     H30764   2.905   5.506   9.365  1.6726 -0.6939  1.9321
  969MOL0     H30765   2.920   5.590   9.508  2.0742  1.9775 -1.2513
  969MOL0     H30766   2.893   5.885   9.492  0.4111  1.6327 -0.4207
  969MOL0     H30767   2.908   6.107   9.352  1.6855 -0.8422  0.4619
  969MOL0     H30768   3.009   6.048   9.213 -1.5720  0.7070 -4.2748
  969MOL0     H30769   2.856   6.068   9.065 -0.0907 -1.7373  0.9499
  969MOL0     H30770   2.882   6.213   9.147  0.8632 -0.7007  0.8831
  969MOL0     H30771   2.642   6.178   9.091  2.3687  0.5031 -0.7003
  969MOL0     H30772   2.678   6.215   9.268 -0.4602 -0.0921 -0.7288
  969MOL0     H30773   2.626   5.990   9.323  0.0212  0.3743 -0.0806
  969MOL0     H30774   2.609   5.948   9.150  1.4164 -0.2925  0.8858
  969MOL0     H30775   2.471   5.817   9.305  0.4348  1.2959 -2.6678
  969MOL0     H30776   2.372   5.587   9.339  0.0531 -1.4129  1.1787
  969MOL0     H30777   2.255   5.598   9.466  0.7404  0.9552 -0.0288
  969MOL0     H30778   2.200   5.577   9.294 -0.1190 -0.7579  0.8592
  969MOL0     H30779   1.843   5.754   9.706  4.1042 -0.1495 -3.1143
  969MOL0     H30780   1.617   5.698   9.764  1.7485 -0.7020  0.7740
  969MOL0     H30781   1.428   5.649   9.825  1.9752  2.9107 -0.4305
  969MOL0     H30782   1.361   5.808   9.783  3.1301  0.5709 -2.0084
  969MOL0     H30783   1.147   5.714   9.718 -1.2840 -0.6627 -0.1841
  969MOL0     H30784   1.217   5.555   9.718  2.0690 -0.3995  0.5644
  969MOL0     H30785   1.147   5.730   9.950 -4.3816 -1.2675  0.7745
  969MOL0     H30786   1.235   5.569   9.971 -2.5627 -2.8435  1.5840
  969MOL0     H30787   0.952   5.617   9.851  2.4423  1.4997 -0.9956
  969MOL0     H30788   1.033   5.461   9.858 -1.3641 -0.1730 -0.3424
  969MOL0     H30789   0.946   5.649  10.100 -0.0587  0.7458 -1.0385
  969MOL0     H30790   1.049   5.506  10.115 -0.3733  0.6902  1.8169
  969MOL0     H30791   0.765   5.496   9.994 -0.6113 -1.0916 -0.8261
  969MOL0     H30792   0.875   5.370  10.030  1.1343 -0.2672  1.9948
  969MOL0     H30793   0.769   5.559  10.246 -2.0706 -1.7978  6.1841
  969MOL0     H30794   0.866   5.407  10.273 -1.1475 -1.6618  0.4468
  969MOL0     H30795   0.637   5.380  10.334 -0.2458 -0.9342  0.0129
  969MOL0     H30796   0.683   5.273  10.219  0.4419  0.4608  2.8159
  969MOL0     H30797   1.480   5.732   9.362 -1.6351 -1.5987  1.1640
  969MOL0     H30798   1.699   5.817   9.296  0.0558  1.8254  0.1797
  969MOL0     H30799   2.029   6.031   9.342  1.3071  4.2339  1.9998
  969MOL0     H30800   2.223   6.170   9.310  2.3056  0.0798  2.9862
  969MOL0     H30801   1.936   5.377   9.882 -4.2891 -0.0957 -1.5247
  969MOL0     H30802   1.743   5.314   9.983 -1.4608 -0.6023  0.5983
  969MOL0     H30803   1.293   5.608  10.227  1.5816  1.7888  3.4388
  969MOL0     H30804   1.090   5.512  10.330  0.3978  1.1438 -0.3901
  969MOL0     H30805   1.047   5.094  10.481 -1.4249 -0.0820 -1.3781
  969MOL0     H30806   1.110   5.213  10.599 -0.4793  2.1448  0.8736
  969MOL0     H30807   0.877   5.310  10.612  0.8774  0.0337 -1.3975
  969MOL0     H30808   0.892   5.141  10.676  1.9183  0.0066  0.3964
  969MOL0     H30809   0.811   5.056  10.471 -2.0995 -0.3048 -1.2065
  969MOL0     H30810   0.780   5.211  10.411 -1.4984 -0.9913 -0.3455
  969MOL0     H30811   0.630   5.260  10.610 -3.5487  0.1564 -1.8772
  969MOL0     H30812   0.679   5.116  10.692  1.5750  1.9843  0.0971
  969MOL0     H30813   0.409   5.011  10.351  3.2184 -2.2191 -0.8052
  969MOL0     H30814   1.277   5.148  10.437 -2.0735 -0.7447 -1.0227
  969MOL0     H30815   1.504   5.236  10.350 -0.8961 -1.1296 -1.8906
  970MOL0     O30816   0.160   7.194   5.387  0.4214  0.5386 -0.4881
  970MOL0     C30817   0.246   7.272   5.428  0.9638 -0.1495  0.0834
  970MOL0     O30818   0.212   7.393   5.484  0.1080 -0.9732 -0.3163
  970MOL0     C30819   0.080   7.442   5.473 -0.5845  0.7500 -0.4059
  970MOL0     C30820  -0.012   7.409   5.368 -0.1161  1.1451  0.3645
  970MOL0     C30821  -0.141   7.461   5.362 -0.1753 -0.0304 -0.8515
  970MOL0     C30822  -0.189   7.534   5.470 -0.3526 -0.1049 -0.4311
  970MOL0     O30823  -0.331   7.556   5.481 -0.0777  0.1798 -0.1602
  970MOL0     C30824  -0.384   7.490   5.598 -0.5752  0.7613  0.5460
  970MOL0     C30825  -0.531   7.460   5.578 -0.2727 -1.2061 -0.7577
  970MOL0     C30826  -0.611   7.435   5.706 -0.4023 -0.1169  1.0945
  970MOL0     C30827  -0.575   7.298   5.772 -0.3258 -0.7142  0.4138
  970MOL0     C30828  -0.666   7.288   5.893 -1.1140  0.1024 -0.5821
  970MOL0     C30829  -0.681   7.150   5.964  0.0506 -0.1065 -0.3324
  970MOL0     C30830  -0.701   7.024   5.867  0.6052 -1.1935 -0.5754
  970MOL0     C30831  -0.824   7.048   5.770 -0.0274  1.0167 -0.6302
  970MOL0     N30832  -0.953   7.087   5.824 -0.4294 -0.0704  0.2717
  970MOL0     C30833  -1.012   7.020   5.922  0.2166 -0.3153 -0.3987
  970MOL0     C30834  -1.105   7.107   5.956  0.3341 -0.1376 -0.3229
  970MOL0     C30835  -1.206   7.093   6.067  0.3126  0.1953  1.0285
  970MOL0     C30836  -1.329   7.032   6.003 -0.1418 -0.2302 -0.0528
  970MOL0     C30837  -1.449   7.081   6.086  0.1223  0.4354  0.0568
  970MOL0     C30838  -1.577   7.020   6.034 -0.2615 -0.8275 -0.0531
  970MOL0     O30839  -1.670   7.045   6.138  0.2646 -0.2887  0.5289
  970MOL0     C30840  -1.801   7.018   6.131  0.3466  0.2234 -0.1140
  970MOL0     C30841  -1.891   7.053   6.234  0.2662 -0.0393  0.2196
  970MOL0     C30842  -2.031   7.018   6.230 -0.2889 -0.7692  0.4401
  970MOL0     C30843  -2.116   7.057   6.348 -1.2815  0.0844  0.4188
  970MOL0     C30844  -2.086   6.958   6.116  0.5959 -0.4676 -0.1363
  970MOL0     C30845  -2.225   6.909   6.102  0.2633 -0.7249 -0.0167
  970MOL0     O30846  -2.259   6.854   5.981  0.4590  0.2036 -0.2714
  970MOL0     C30847  -2.383   6.814   5.966  0.2624  0.0823  0.4556
  970MOL0     C30848  -2.484   6.911   5.952 -0.5375 -0.3034  0.8193
  970MOL0     C30849  -2.618   6.876   5.940 -0.5132 -0.3102  0.4326
  970MOL0     C30850  -2.649   6.745   5.926 -0.6725 -0.0299 -0.2405
  970MOL0     O30851  -2.773   6.697   5.910  0.0101 -0.3917  0.3049
  970MOL0     C30852  -2.877   6.795   5.887 -0.4124 -0.3278  0.2267
  970MOL0     C30853  -3.010   6.735   5.848  0.2523  0.7856  0.2834
  970MOL0     C30854  -3.067   6.657   5.966 -0.5758 -0.0056  0.3717
  970MOL0     C30855  -3.222   6.624   5.959 -0.6186  0.2456  0.2890
  970MOL0     C30856  -3.251   6.538   6.076 -0.8038 -0.4588 -0.3153
  970MOL0     C30857  -3.399   6.501   6.083  0.5774  0.2857  0.2547
  970MOL0     C30858  -3.441   6.410   6.200  0.1950 -1.0522  0.6824
  970MOL0     C30859  -3.582   6.385   6.206  0.6049  0.2047 -0.1669
  970MOL0    Cl30860  -3.688   6.525   6.195 -0.2522  0.2535  0.1571
  970MOL0     C30861  -2.552   6.647   5.943 -0.2448 -0.4630 -0.1357
  970MOL0     C30862  -2.417   6.679   5.965 -0.1756  0.7165 -0.6316
  970MOL0     O30863  -2.307   6.929   6.191 -0.2562 -0.5168 -0.5427
  970MOL0     C30864  -2.000   6.919   6.015 -0.7928 -0.2112 -0.0600
  970MOL0     C30865  -1.859   6.952   6.022 -0.3313 -0.3029  0.1634
  970MOL0     N30866  -1.128   7.206   5.857  0.1788  0.2559  0.2651
  970MOL0     N30867  -1.026   7.196   5.781 -0.0705 -0.7784  0.5137
  970MOL0     C30868  -0.102   7.560   5.581 -0.4347  0.2894  0.0963
  970MOL0     C30869   0.034   7.523   5.576  0.3286  1.0532 -0.0062
  970MOL0     C30870   0.383   7.231   5.404 -0.7453 -0.5062  0.0627
  970MOL0     C30871   0.421   7.126   5.320  0.3108  0.8201 -0.0958
  970MOL0     C30872   0.552   7.070   5.310 -0.4867 -0.0960 -0.6774
  970MOL0     C30873   0.659   7.134   5.379 -0.9636  0.4961  0.6189
  970MOL0     O30874   0.786   7.079   5.357  1.0445 -0.3132 -0.4759
  970MOL0     C30875   0.900   7.138   5.416 -0.0433 -0.6502  0.0368
  970MOL0     C30876   1.047   7.089   5.389 -0.2627 -0.0554  0.1706
  970MOL0     C30877   1.081   6.940   5.413  0.3556 -0.1583 -0.0575
  970MOL0     C30878   1.084   6.906   5.559 -0.1069 -0.0419  0.3765
  970MOL0     C30879   0.949   6.888   5.615  0.0594  0.1323 -0.3666
  970MOL0     C30880   0.842   6.861   5.662 -0.0602 -0.5259 -0.6565
  970MOL0     C30881   0.627   7.244   5.468 -0.8386  0.3991 -0.2561
  970MOL0     C30882   0.497   7.292   5.473 -0.6525 -0.1560  0.9998
  970MOL0     H30883   0.014   7.352   5.279 -0.9570  0.5499  0.4854
  970MOL0     H30884  -0.207   7.441   5.279 -0.1474 -1.1214 -0.6278
  970MOL0     H30885  -0.336   7.392   5.596  1.8964  1.8914 -1.1559
  970MOL0     H30886  -0.367   7.540   5.693 -2.9849 -0.7333  1.8584
  970MOL0     H30887  -0.567   7.555   5.538  3.5850  0.2498 -1.1668
  970MOL0     H30888  -0.550   7.382   5.504 -0.8395 -2.0961  0.3021
  970MOL0     H30889  -0.602   7.524   5.769 -0.8849  1.6409 -1.1974
  970MOL0     H30890  -0.716   7.435   5.675 -0.1010  1.6803 -0.0586
  970MOL0     H30891  -0.606   7.221   5.700 -2.2281  0.0577  0.3673
  970MOL0     H30892  -0.476   7.274   5.812 -0.2715  1.1707  1.4772
  970MOL0     H30893  -0.633   7.358   5.970 -1.4447 -1.4141  0.9971
  970MOL0     H30894  -0.769   7.320   5.875 -0.2497  3.4091 -0.3395
  970MOL0     H30895  -0.593   7.127   6.025  0.4049 -2.2558 -1.5356
  970MOL0     H30896  -0.767   7.163   6.030 -1.6640 -2.9580 -1.8051
  970MOL0     H30897  -0.616   7.000   5.803  3.0794  1.1375  1.5728
  970MOL0     H30898  -0.726   6.938   5.930  3.2473 -1.5345  0.1430
  970MOL0     H30899  -0.837   6.957   5.711  4.4316  0.6686 -1.4863
  970MOL0     H30900  -0.794   7.131   5.704  0.7610  1.8293  0.6959
  970MOL0     H30901  -0.976   6.935   5.980 -2.0159 -2.7449 -2.3054
  970MOL0     H30902  -1.177   7.045   6.161 -1.7348 -0.3416  1.4466
  970MOL0     H30903  -1.226   7.197   6.096  1.2024  0.5219  0.5245
  970MOL0     H30904  -1.314   6.924   6.005  0.6368 -0.1419 -0.6385
  970MOL0     H30905  -1.349   7.067   5.901 -0.5599  0.1727  0.1650
  970MOL0     H30906  -1.466   7.188   6.066 -0.7306  0.2743 -0.1154
  970MOL0     H30907  -1.432   7.072   6.194  1.6947  2.1599  0.0091
  970MOL0     H30908  -1.556   6.914   6.019 -2.5127 -1.1566 -1.3700
  970MOL0     H30909  -1.611   7.054   5.936  0.2530  0.7670  0.2940
  970MOL0     H30910  -1.857   7.103   6.324 -2.0165 -1.0382  1.7262
  970MOL0     H30911  -2.056   7.111   6.422 -1.9073  1.2930  0.0697
  970MOL0     H30912  -2.201   7.119   6.315 -1.3238 -0.5100 -0.6346
  970MOL0     H30913  -2.160   6.975   6.406 -1.5414 -0.5076 -0.5986
  970MOL0     H30914  -2.452   7.015   5.952  0.9356 -0.7371  1.2388
  970MOL0     H30915  -2.685   6.962   5.942 -2.8411 -1.8293 -3.4466
  970MOL0     H30916  -2.896   6.850   5.979  3.6562  1.5326  0.1417
  970MOL0     H30917  -2.848   6.859   5.803 -3.4325 -0.9095 -1.4406
  970MOL0     H30918  -3.087   6.808   5.820  0.4254  1.4095  1.3712
  970MOL0     H30919  -2.982   6.670   5.765  0.6100 -1.3435  1.9827
  970MOL0     H30920  -3.053   6.716   6.057  2.3399  1.1827 -0.7411
  970MOL0     H30921  -3.006   6.567   5.977  0.2325  0.7261  2.3669
  970MOL0     H30922  -3.272   6.721   5.957 -1.2706 -0.0846 -0.6141
  970MOL0     H30923  -3.251   6.584   5.861 -0.5945  3.4432 -1.1472
  970MOL0     H30924  -3.220   6.602   6.159  1.4729 -0.6373 -0.9345
  970MOL0     H30925  -3.194   6.445   6.074 -0.1453 -0.0531 -1.8241
  970MOL0     H30926  -3.465   6.587   6.074 -0.6178 -0.6973 -0.8071
  970MOL0     H30927  -3.409   6.442   5.991 -1.9728  0.9797  0.0016
  970MOL0     H30928  -3.416   6.459   6.294 -0.1936  0.9785 -0.2179
  970MOL0     H30929  -3.386   6.316   6.188  0.1788 -1.0493  0.5809
  970MOL0     H30930  -3.606   6.339   6.303  1.1268  1.1555  0.4215
  970MOL0     H30931  -3.620   6.324   6.123 -1.5302  0.7362  0.3617
  970MOL0     H30932  -2.585   6.544   5.931 -0.2202 -0.2532 -2.7066
  970MOL0     H30933  -2.343   6.602   5.983 -0.1403  1.0335  0.6498
  970MOL0     H30934  -2.026   6.851   5.934 -1.2942  0.3287 -0.3625
  970MOL0     H30935  -1.804   6.905   5.941 -0.6990 -0.6364  0.1015
  970MOL0     H30936  -0.142   7.610   5.668 -1.4273 -0.2033 -0.0668
  970MOL0     H30937   0.102   7.533   5.659  0.2311 -0.3357  0.2526
  970MOL0     H30938   0.334   7.082   5.272  1.6520 -2.5011  0.2726
  970MOL0     H30939   0.550   6.990   5.236 -1.8194 -0.9492  0.2411
  970MOL0     H30940   0.900   7.244   5.391 -2.0409 -0.9372 -1.3443
  970MOL0     H30941   0.892   7.152   5.524 -1.1037 -1.1642  0.0332
  970MOL0     H30942   1.112   7.160   5.441  0.9600  0.4059 -1.8879
  970MOL0     H30943   1.056   7.116   5.283 -0.1450 -2.2709 -0.4191
  970MOL0     H30944   1.178   6.920   5.365  0.7124  1.1000  0.0842
  970MOL0     H30945   1.009   6.879   5.357  1.9734 -2.8547  0.6109
  970MOL0     H30946   1.139   6.986   5.608 -0.5618 -0.1186  1.0181
  970MOL0     H30947   1.134   6.810   5.576  2.8186  0.7909 -2.4864
  970MOL0     H30948   0.747   6.851   5.709 -1.0241  2.9951 -1.5523
  970MOL0     H30949   0.710   7.289   5.522 -0.7133  0.0424 -0.1498
  970MOL0     H30950   0.476   7.375   5.539  1.2471  0.8042  0.4715
  971MOL0     O30951   2.724   1.789   0.573 -0.3907  0.0160 -0.1190
  971MOL0     C30952   2.717   1.704   0.479  0.6237 -0.4118  0.3419
  971MOL0     O30953   2.805   1.687   0.373 -0.2359 -0.3614 -0.4515
  971MOL0     C30954   2.934   1.734   0.398  0.0852 -0.1677  0.4895
  971MOL0     C30955   3.006   1.672   0.502 -0.1738 -0.0344  0.5073
  971MOL0     C30956   3.143   1.693   0.530 -0.4098  0.4727  0.4231
  971MOL0     C30957   3.213   1.785   0.445  0.4086  0.8013 -0.4203
  971MOL0     O30958   3.342   1.819   0.479 -0.2082 -0.1738  0.1659
  971MOL0     C30959   3.436   1.713   0.458 -0.0946  0.5068 -0.8595
  971MOL0     C30960   3.558   1.740   0.549  1.3309  0.6620 -0.2889
  971MOL0     C30961   3.532   1.716   0.702 -0.0470 -0.1193  0.2792
  971MOL0     C30962   3.529   1.570   0.747 -0.0522  0.2351  0.6288
  971MOL0     C30963   3.447   1.552   0.871  0.4363  0.2237  0.1403
  971MOL0     C30964   3.461   1.405   0.916 -0.4200 -0.9848 -0.2092
  971MOL0     C30965   3.344   1.363   1.007  0.4342 -0.2966  0.4023
  971MOL0     C30966   3.225   1.311   0.925 -0.0750  0.6678  0.1735
  971MOL0     N30967   3.134   1.422   0.897 -0.2003  0.6563 -0.4481
  971MOL0     C30968   3.036   1.454   0.985  0.4044 -0.4173  0.2371
  971MOL0     C30969   2.955   1.524   0.904 -0.3664 -0.1873  0.0567
  971MOL0     C30970   2.843   1.606   0.963  0.4801  0.1348 -0.6572
  971MOL0     C30971   2.835   1.745   0.898  0.1881 -0.3239  0.0876
  971MOL0     C30972   2.704   1.818   0.932 -0.2250 -0.7951 -0.4508
  971MOL0     C30973   2.717   1.970   0.886  0.0447  0.9441  0.3434
  971MOL0     O30974   2.616   2.040   0.958 -0.1488 -0.7786  0.2752
  971MOL0     C30975   2.482   2.028   0.910 -0.6724 -0.6775  0.4336
  971MOL0     C30976   2.436   1.952   0.801  0.1212  0.0508  0.6394
  971MOL0     C30977   2.304   1.942   0.770  0.7389  0.1733 -0.4755
  971MOL0     C30978   2.267   1.860   0.646  0.2056 -0.2487 -0.7160
  971MOL0     C30979   2.207   2.012   0.850  0.5004  0.2840  0.2021
  971MOL0     C30980   2.061   2.009   0.817  0.1520 -0.5266  0.1321
  971MOL0     O30981   1.993   2.121   0.831 -0.1043  0.5352 -0.4678
  971MOL0     C30982   1.892   2.149   0.744 -0.1080 -0.2800 -0.0630
  971MOL0     C30983   1.786   2.218   0.800  0.4335  0.7467  0.1485
  971MOL0     C30984   1.681   2.261   0.714  0.3398  0.8514  0.1298
  971MOL0     C30985   1.690   2.241   0.575  0.0941  0.0936 -0.2608
  971MOL0     O30986   1.590   2.285   0.496 -0.7888  0.6092 -0.1405
  971MOL0     C30987   1.537   2.415   0.511 -0.4393 -0.0142 -0.2087
  971MOL0     C30988   1.473   2.448   0.383 -0.0334 -0.8145  0.1013
  971MOL0     C30989   1.565   2.452   0.260 -0.9172  0.2304 -0.1050
  971MOL0     C30990   1.468   2.427   0.144 -1.0757 -1.0744  1.1646
  971MOL0     C30991   1.533   2.456   0.009 -0.4599 -1.0659  0.1252
  971MOL0     C30992   1.451   2.397  -0.103  0.2397 -0.2319  0.1509
  971MOL0     C30993   1.502   2.450  -0.240  0.4064  0.2878 -0.0984
  971MOL0     C30994   1.400   2.411  -0.350 -0.8461 -0.2019  0.0817
  971MOL0    Cl30995   1.459   2.443  -0.528 -0.2270  0.0133 -0.2775
  971MOL0     C30996   1.793   2.165   0.523  0.4321 -0.4323 -0.3465
  971MOL0     C30997   1.889   2.120   0.610 -0.1075  1.0158 -0.4455
  971MOL0     O30998   2.014   1.901   0.777 -0.6513  0.0733 -0.2895
  971MOL0     C30999   2.250   2.091   0.966 -0.0830 -0.4102  0.2446
  971MOL0     C31000   2.388   2.095   0.992 -0.3533  0.9110  0.3019
  971MOL0     N31001   2.983   1.508   0.771  0.3096 -0.0684  0.0133
  971MOL0     N31002   3.095   1.446   0.767 -0.2137 -0.6643 -0.4419
  971MOL0     C31003   3.147   1.848   0.340  0.5923 -0.5159  0.3818
  971MOL0     C31004   3.005   1.829   0.319  0.0855 -0.6681 -0.8111
  971MOL0     C31005   2.594   1.624   0.469 -0.5869 -0.0386  0.6290
  971MOL0     C31006   2.528   1.628   0.348 -0.2146  0.2899  0.0067
  971MOL0     C31007   2.417   1.552   0.318  0.0638  0.8421  0.2618
  971MOL0     C31008   2.373   1.458   0.419 -0.0308 -0.1968  0.3199
  971MOL0     O31009   2.259   1.386   0.400 -0.0367  0.8664  0.1804
  971MOL0     C31010   2.134   1.452   0.424 -0.0975  0.6569  0.0627
  971MOL0     C31011   2.035   1.360   0.472  0.3677 -0.3425 -0.2390
  971MOL0     C31012   1.891   1.402   0.450  0.2394 -0.2138 -1.0650
  971MOL0     C31013   1.798   1.326   0.542 -0.3246 -0.2179  0.4726
  971MOL0     C31014   1.654   1.361   0.536  0.2639  0.3745  1.3372
  971MOL0     C31015   1.536   1.387   0.532  0.8592 -0.1777  0.0705
  971MOL0     C31016   2.437   1.453   0.538 -0.1165  0.1436  0.7250
  971MOL0     C31017   2.538   1.549   0.569  0.5495  0.2104 -0.5200
  971MOL0     H31018   2.952   1.598   0.560  2.0014 -2.4263 -0.3247
  971MOL0     H31019   3.190   1.653   0.620 -0.7615 -1.1641 -0.0875
  971MOL0     H31020   3.395   1.617   0.487 -1.3222  0.9434 -1.0863
  971MOL0     H31021   3.465   1.715   0.352 -1.5956 -1.7702 -1.3716
  971MOL0     H31022   3.637   1.679   0.506  0.9137 -0.5752  0.6396
  971MOL0     H31023   3.591   1.843   0.533 -2.6987  2.1081 -0.6114
  971MOL0     H31024   3.604   1.777   0.757  0.6000  0.4008 -1.0751
  971MOL0     H31025   3.435   1.760   0.726 -1.1469 -0.1901 -3.3713
  971MOL0     H31026   3.494   1.507   0.664 -1.9321  0.0673  1.4962
  971MOL0     H31027   3.634   1.542   0.760  0.6762  2.8739  1.0669
  971MOL0     H31028   3.479   1.621   0.949  3.0960 -1.5935  0.8173
  971MOL0     H31029   3.341   1.573   0.855  0.7299  1.3669 -0.3854
  971MOL0     H31030   3.459   1.335   0.832  1.8160 -1.6456  0.2395
  971MOL0     H31031   3.564   1.394   0.949  0.4401  0.0712 -2.3483
  971MOL0     H31032   3.372   1.282   1.074 -1.4491 -0.7297  0.7298
  971MOL0     H31033   3.305   1.443   1.070  0.2259  0.4115 -0.5887
  971MOL0     H31034   3.180   1.231   0.984  2.9547  0.3716  2.2977
  971MOL0     H31035   3.257   1.263   0.833  1.7951  1.2298  0.4925
  971MOL0     H31036   3.027   1.453   1.093 -1.6528  1.2326  0.1397
  971MOL0     H31037   2.746   1.560   0.983  0.2656  1.1209  0.7597
  971MOL0     H31038   2.876   1.620   1.067 -1.8833 -2.4769  0.5808
  971MOL0     H31039   2.851   1.746   0.790  0.5855  1.4613  0.1321
  971MOL0     H31040   2.919   1.801   0.940  1.7095 -2.5174  0.1356
  971MOL0     H31041   2.686   1.821   1.039 -2.4005  2.7310 -0.7622
  971MOL0     H31042   2.613   1.772   0.892 -1.6191  0.9095  0.6277
  971MOL0     H31043   2.712   1.981   0.778  5.4161  1.9636 -0.0873
  971MOL0     H31044   2.820   1.994   0.916  0.1215 -2.2745  3.3452
  971MOL0     H31045   2.492   1.878   0.745 -1.5971 -0.3524 -0.6477
  971MOL0     H31046   2.361   1.845   0.592  0.7846  1.8835 -0.3762
  971MOL0     H31047   2.237   1.756   0.664  4.0056 -1.3139  0.3680
  971MOL0     H31048   2.194   1.905   0.578  0.3263 -1.2137 -1.5114
  971MOL0     H31049   1.772   2.240   0.905 -1.6420 -0.1613  0.1056
  971MOL0     H31050   1.591   2.307   0.751 -0.5099 -0.9980  0.4841
  971MOL0     H31051   1.464   2.411   0.593 -0.2335 -2.8754 -0.0688
  971MOL0     H31052   1.618   2.486   0.528  1.2692 -1.5198 -1.7216
  971MOL0     H31053   1.393   2.376   0.364 -0.1505 -0.6209 -0.1532
  971MOL0     H31054   1.425   2.545   0.396 -0.2769 -1.1891  2.4419
  971MOL0     H31055   1.649   2.381   0.267 -1.8696 -0.7309  3.1043
  971MOL0     H31056   1.612   2.551   0.257  1.7937 -0.9769 -1.0702
  971MOL0     H31057   1.434   2.322   0.145  2.7356 -2.4595  0.6992
  971MOL0     H31058   1.372   2.479   0.154 -0.2410  0.7293  0.2589
  971MOL0     H31059   1.632   2.410  -0.002  0.6621  1.3626 -0.5871
  971MOL0     H31060   1.557   2.562   0.002 -3.1606 -0.5130 -3.0926
  971MOL0     H31061   1.466   2.289  -0.108 -1.0842 -0.3726 -2.0730
  971MOL0     H31062   1.344   2.416  -0.085  0.2827  0.6073 -0.3915
  971MOL0     H31063   1.594   2.392  -0.253 -0.7625 -2.2338  1.7566
  971MOL0     H31064   1.524   2.557  -0.247 -4.2339  1.6430  2.0591
  971MOL0     H31065   1.304   2.461  -0.336 -0.8978 -0.5078  0.9179
  971MOL0     H31066   1.375   2.305  -0.340 -1.8689  0.1038  0.9868
  971MOL0     H31067   1.807   2.161   0.416  1.0362 -0.1279 -0.2791
  971MOL0     H31068   1.974   2.071   0.562 -1.9577  0.7080 -3.7117
  971MOL0     H31069   2.175   2.136   1.031 -2.0900 -0.9298 -1.5703
  971MOL0     H31070   2.420   2.158   1.075  0.0774 -0.0943  0.9176
  971MOL0     H31071   3.205   1.921   0.286 -0.3850 -0.9540 -1.3303
  971MOL0     H31072   2.961   1.869   0.228 -2.9962  0.3966  1.0010
  971MOL0     H31073   2.563   1.696   0.270  2.8227  0.4855  1.3632
  971MOL0     H31074   2.369   1.555   0.221  0.5617  3.0003  0.0246
  971MOL0     H31075   2.150   1.535   0.493  0.9409 -0.3929  1.1295
  971MOL0     H31076   2.099   1.494   0.329 -0.3525  0.8043  0.2202
  971MOL0     H31077   2.048   1.341   0.579 -1.3384  0.3061  0.1271
  971MOL0     H31078   2.056   1.268   0.416 -0.6858  0.9475 -2.8893
  971MOL0     H31079   1.863   1.391   0.345 -0.6731  0.7362 -0.9390
  971MOL0     H31080   1.882   1.510   0.470 -1.0053 -0.2627 -1.2642
  971MOL0     H31081   1.838   1.343   0.642  1.6336  0.5299 -0.3782
  971MOL0     H31082   1.790   1.219   0.520 -3.7030  0.0817 -0.2198
  971MOL0     H31083   1.432   1.412   0.538  0.1849 -2.5378 -0.7734
  971MOL0     H31084   2.387   1.372   0.590 -1.9066 -0.6143 -1.9692
  971MOL0     H31085   2.590   1.534   0.663  3.9710  2.0052 -1.9510
  972MOL0     O31086   8.908   5.874   9.783 -0.4049  0.5519  0.6465
  972MOL0     C31087   8.889   5.770   9.854  0.4791  0.2927  0.2236
  972MOL0     O31088   8.773   5.736   9.914  0.4594  0.4358  0.7631
  972MOL0     C31089   8.664   5.818   9.888  0.0818 -0.5710  0.4605
  972MOL0     C31090   8.634   5.920   9.979 -0.2383 -0.4919  0.4568
  972MOL0     C31091   8.522   6.002   9.965 -0.7372 -0.0121 -0.2144
  972MOL0     C31092   8.426   5.981   9.868 -1.0274  0.5750 -0.1898
  972MOL0     O31093   8.320   6.058   9.845  0.0680  0.4013  0.3010
  972MOL0     C31094   8.299   6.174   9.930 -0.8524  0.5077  0.2302
  972MOL0     C31095   8.198   6.268   9.877  0.0658  0.0002  0.8386
  972MOL0     C31096   8.060   6.203   9.848  0.8980 -0.2050 -0.3791
  972MOL0     C31097   7.993   6.254   9.715  0.0656  0.7170 -0.4504
  972MOL0     C31098   7.950   6.394   9.714 -0.3687  0.0687  0.0065
  972MOL0     C31099   7.880   6.415   9.579  0.4087  0.6791 -0.1599
  972MOL0     C31100   7.814   6.557   9.555 -0.1986  0.0693  0.4782
  972MOL0     C31101   7.734   6.618   9.674 -0.9556 -0.4263  0.3960
  972MOL0     N31102   7.605   6.557   9.713  0.0505  1.2825 -0.8001
  972MOL0     C31103   7.561   6.426   9.698 -0.9847 -0.3683  0.9403
  972MOL0     C31104   7.437   6.417   9.764 -0.5483 -0.0779  0.2151
  972MOL0     C31105   7.361   6.292   9.784  0.6275  0.2940  0.4695
  972MOL0     C31106   7.330   6.262   9.930  0.0488  0.3779  0.1964
  972MOL0     C31107   7.448   6.253  10.024  0.3157 -0.0023  0.9250
  972MOL0     C31108   7.414   6.265  10.169 -0.6758 -0.5159  0.1264
  972MOL0     O31109   7.375   6.408  10.180 -0.0999 -0.6534  0.3817
  972MOL0     C31110   7.294   6.440  10.289 -0.2740 -0.3889 -0.7346
  972MOL0     C31111   7.265   6.356  10.401 -0.1151 -0.7083  0.5937
  972MOL0     C31112   7.197   6.408  10.515  0.3445 -0.6393 -0.6192
  972MOL0     C31113   7.175   6.307  10.626 -0.4221 -0.3896  0.0520
  972MOL0     C31114   7.156   6.545  10.517  0.0440 -0.2114 -0.7670
  972MOL0     C31115   7.068   6.598  10.635  0.0073 -0.8610 -0.6943
  972MOL0     O31116   7.018   6.726  10.610 -0.3028 -0.2595 -0.1720
  972MOL0     C31117   6.960   6.821  10.690 -0.2990 -0.8639 -1.2699
  972MOL0     C31118   6.922   6.948  10.639  0.2958 -0.3750 -0.5979
  972MOL0     C31119   6.879   7.048  10.728  0.4591  0.5939 -0.0564
  972MOL0     C31120   6.854   7.033  10.860  0.0243 -0.4667  0.1220
  972MOL0     O31121   6.816   7.136  10.938 -0.1732  0.0338  0.2036
  972MOL0     C31122   6.736   7.239  10.882  0.5877 -0.1477  0.2653
  972MOL0     C31123   6.642   7.295  10.994  0.4494  0.6594  0.9334
  972MOL0     C31124   6.552   7.406  10.945  0.0094 -0.6341  0.2713
  972MOL0     C31125   6.416   7.352  10.926  0.0772 -0.2989 -0.0123
  972MOL0     C31126   6.342   7.352  11.050 -0.0672 -0.3411 -0.1513
  972MOL0     C31127   6.201   7.313  11.031 -0.3102  0.4332  0.1640
  972MOL0     C31128   6.111   7.342  11.154 -0.0147  1.1973  0.3852
  972MOL0     C31129   5.967   7.335  11.119  0.8094 -0.1364 -0.0301
  972MOL0    Cl31130   5.927   7.470  11.030  0.1394 -0.2469  0.1393
  972MOL0     C31131   6.890   6.903  10.913 -0.5545  0.2021 -0.4515
  972MOL0     C31132   6.942   6.804  10.829 -0.2576  0.4436  0.1996
  972MOL0     O31133   7.055   6.530  10.736 -0.1010 -0.4760  0.6973
  972MOL0     C31134   7.192   6.623  10.409  0.7352  0.9462  0.2991
  972MOL0     C31135   7.251   6.574  10.293  0.0571  0.4511  1.0213
  972MOL0     N31136   7.405   6.542   9.811 -0.4777 -0.2829  0.0587
  972MOL0     N31137   7.504   6.619   9.777 -0.9103 -0.0308 -1.0164
  972MOL0     C31138   8.442   5.863   9.784 -0.2586  0.2564  0.8990
  972MOL0     C31139   8.564   5.788   9.800  0.1539  0.9774  0.0134
  972MOL0     C31140   9.007   5.681   9.881 -0.1386  0.7309  0.0044
  972MOL0     C31141   9.131   5.706   9.822  0.6833 -0.6305  0.5264
  972MOL0     C31142   9.240   5.618   9.856 -0.7158  0.5429 -0.2610
  972MOL0     C31143   9.224   5.513   9.949 -0.2116 -0.0164  0.4619
  972MOL0     O31144   9.324   5.430  10.001  0.2607 -0.8330 -0.0483
  972MOL0     C31145   9.455   5.450   9.942  0.5422  0.3556  0.1316
  972MOL0     C31146   9.546   5.367  10.022 -0.8992  0.8418 -0.1189
  972MOL0     C31147   9.668   5.314   9.939  0.4770  0.1450  0.1041
  972MOL0     C31148   9.795   5.299  10.022 -0.4371  1.1116 -0.9828
  972MOL0     C31149   9.913   5.258   9.941  0.3918  0.2027  0.6003
  972MOL0     C31150  10.013   5.228   9.879  0.6069 -0.1699  0.3032
  972MOL0     C31151   9.097   5.493   9.995 -0.6954  0.3071 -0.4207
  972MOL0     C31152   8.990   5.571   9.964  0.1936 -0.2638  0.6591
  972MOL0     H31153   8.700   5.954  10.058  1.5440  0.0874 -1.2119
  972MOL0     H31154   8.514   6.084  10.036  1.6463  1.0982 -1.1319
  972MOL0     H31155   8.268   6.146  10.031  0.0338  1.4695  0.7801
  972MOL0     H31156   8.392   6.230   9.941 -1.0368  1.2661 -1.7397
  972MOL0     H31157   8.188   6.351   9.947  1.4469  0.6981  0.2488
  972MOL0     H31158   8.243   6.313   9.788 -0.4024 -1.4335 -0.1566
  972MOL0     H31159   8.060   6.094   9.838 -3.9807 -0.2600 -2.3651
  972MOL0     H31160   7.996   6.236   9.930  2.4775 -0.4453  1.0242
  972MOL0     H31161   8.069   6.242   9.637  0.2677  1.2382 -0.3415
  972MOL0     H31162   7.912   6.185   9.690 -0.8449  1.0503  1.3918
  972MOL0     H31163   7.885   6.412   9.800  2.2433 -1.7777  2.5265
  972MOL0     H31164   8.032   6.467   9.716 -2.0778  2.0801  0.1715
  972MOL0     H31165   7.958   6.393   9.505  0.2159 -0.4843 -0.0444
  972MOL0     H31166   7.799   6.342   9.566  1.7524 -1.1938  1.4263
  972MOL0     H31167   7.895   6.628   9.541  0.3818 -0.7161 -0.2959
  972MOL0     H31168   7.752   6.547   9.465 -0.1827 -2.3938  0.6556
  972MOL0     H31169   7.721   6.725   9.655  0.1162 -0.5015 -0.9299
  972MOL0     H31170   7.795   6.617   9.765  0.3318  0.2001 -0.4255
  972MOL0     H31171   7.614   6.346   9.648 -0.1030  0.7417  0.0459
  972MOL0     H31172   7.275   6.315   9.722  1.7638  2.7704 -0.2899
  972MOL0     H31173   7.418   6.208   9.742  0.2770  0.1610  0.2546
  972MOL0     H31174   7.287   6.161   9.931  3.1426 -1.0693 -0.0807
  972MOL0     H31175   7.260   6.338   9.963 -0.6585 -0.5319  0.8413
  972MOL0     H31176   7.523   6.326   9.993  1.7483 -2.3075 -1.5555
  972MOL0     H31177   7.496   6.157  10.001 -0.5956 -0.4326  0.7718
  972MOL0     H31178   7.512   6.254  10.217  1.0695  1.5181 -2.6893
  972MOL0     H31179   7.334   6.197  10.200 -0.3062 -0.9368  0.1708
  972MOL0     H31180   7.291   6.251  10.394 -0.9356 -0.8560 -0.5168
  972MOL0     H31181   7.187   6.347  10.728  4.2765  0.4683 -0.6196
  972MOL0     H31182   7.083   6.253  10.603 -0.3326  0.6872 -3.4162
  972MOL0     H31183   7.255   6.232  10.628 -1.4507 -1.5049  0.8501
  972MOL0     H31184   6.938   6.977  10.535 -1.8973  0.5559 -0.7283
  972MOL0     H31185   6.867   7.148  10.687 -1.8163 -0.1957 -1.5407
  972MOL0     H31186   6.799   7.320  10.844 -1.6152  1.2106 -0.7258
  972MOL0     H31187   6.675   7.196  10.802 -0.1513  0.7807  0.3036
  972MOL0     H31188   6.582   7.214  11.036 -1.5079  1.8193  0.4523
  972MOL0     H31189   6.707   7.323  11.078  1.4609  2.2077 -0.2991
  972MOL0     H31190   6.583   7.456  10.854  3.2810 -1.1706  0.9799
  972MOL0     H31191   6.557   7.483  11.023  2.2253 -2.5170  2.1758
  972MOL0     H31192   6.359   7.409  10.852 -0.6378  1.4713  1.8137
  972MOL0     H31193   6.428   7.251  10.885 -0.5791 -1.0959  1.7020
  972MOL0     H31194   6.348   7.452  11.093  0.5877 -0.6184  0.4130
  972MOL0     H31195   6.391   7.285  11.122  0.4860 -0.6688 -0.8267
  972MOL0     H31196   6.155   7.356  10.941 -3.5761 -1.4137  0.7797
  972MOL0     H31197   6.190   7.207  11.004 -2.2554  0.9110 -1.1163
  972MOL0     H31198   6.118   7.443  11.196  0.2104  1.0647  0.6693
  972MOL0     H31199   6.134   7.275  11.238  1.8054  0.7135 -0.4552
  972MOL0     H31200   5.915   7.333  11.216  2.8818 -0.0697  1.1397
  972MOL0     H31201   5.946   7.237  11.076 -0.0184  0.7510 -1.7267
  972MOL0     H31202   6.881   6.890  11.020  0.4919 -1.3714 -0.5279
  972MOL0     H31203   6.970   6.715  10.885 -1.0691 -1.1594 -1.8153
  972MOL0     H31204   7.167   6.728  10.415 -1.0698  0.5374  0.5886
  972MOL0     H31205   7.268   6.639  10.207  0.1961 -1.2131 -0.2769
  972MOL0     H31206   8.368   5.836   9.710  0.7336 -2.7583  0.8779
  972MOL0     H31207   8.573   5.697   9.741 -1.2829  0.4540  0.5364
  972MOL0     H31208   9.142   5.792   9.756  0.4728 -0.3086  0.9022
  972MOL0     H31209   9.340   5.636   9.819  0.1725 -3.3286 -0.1290
  972MOL0     H31210   9.446   5.420   9.837  0.2198 -1.1610  0.5729
  972MOL0     H31211   9.503   5.549   9.944  3.5155 -0.9811  1.0319
  972MOL0     H31212   9.488   5.285  10.066  0.8195  0.7100  2.0675
  972MOL0     H31213   9.589   5.426  10.103  2.1110 -0.3365 -0.7126
  972MOL0     H31214   9.685   5.391   9.864 -0.3441 -1.8395 -2.2368
  972MOL0     H31215   9.650   5.215   9.896 -0.7787 -0.0809  1.1005
  972MOL0     H31216   9.774   5.222  10.098 -1.8569  1.5141 -0.9449
  972MOL0     H31217   9.816   5.395  10.071  2.3181  0.4520 -0.6807
  972MOL0     H31218  10.111   5.212   9.838  0.9689  2.1947  0.0757
  972MOL0     H31219   9.076   5.407  10.059  1.8118  1.2829  1.8769
  972MOL0     H31220   8.898   5.541  10.014 -1.1755  1.9687 -0.3817
  973MOL0     O31221   3.562   2.929   2.834 -0.3095  0.5038  0.3967
  973MOL0     C31222   3.620   2.894   2.938 -0.2101 -0.1158 -0.8978
  973MOL0     O31223   3.561   2.858   3.058 -0.4239 -0.1017  0.4369
  973MOL0     C31224   3.428   2.845   3.071  0.0450  0.2729  0.9667
  973MOL0     C31225   3.381   2.714   3.058 -0.4636  0.7968  0.6855
  973MOL0     C31226   3.254   2.683   3.098  0.8634 -0.4132  0.0144
  973MOL0     C31227   3.161   2.797   3.122  0.4656 -0.4797 -0.5447
  973MOL0     O31228   3.036   2.772   3.163  0.5132  0.6822  0.3746
  973MOL0     C31229   2.935   2.874   3.181  0.6325 -0.3437 -0.2454
  973MOL0     C31230   2.803   2.805   3.224 -0.6073  0.4364 -0.3550
  973MOL0     C31231   2.712   2.926   3.253 -0.3946  1.0674  0.5665
  973MOL0     C31232   2.565   2.890   3.264  0.0999 -0.2855  0.8712
  973MOL0     C31233   2.475   3.009   3.265 -0.0636 -0.4824  0.4715
  973MOL0     C31234   2.332   2.969   3.299 -0.2383 -0.0796 -0.4525
  973MOL0     C31235   2.227   3.073   3.247 -0.4220  0.2164  0.0365
  973MOL0     C31236   2.122   2.991   3.161  0.2634  0.4974 -0.3343
  973MOL0     N31237   2.048   3.093   3.089  0.7057 -0.6195  0.2843
  973MOL0     C31238   2.094   3.174   2.980  0.8195  0.4985 -0.4106
  973MOL0     C31239   1.980   3.232   2.932  0.7886  0.1013  0.4362
  973MOL0     C31240   1.959   3.301   2.796  0.2382 -0.2415 -0.1888
  973MOL0     C31241   1.818   3.354   2.769 -0.6166 -0.5799 -0.2678
  973MOL0     C31242   1.708   3.251   2.744 -0.5175 -0.3009 -0.9924
  973MOL0     C31243   1.580   3.321   2.699 -0.2821  0.5046 -0.5920
  973MOL0     O31244   1.489   3.225   2.639  0.0623 -0.6376 -0.3937
  973MOL0     C31245   1.365   3.275   2.606 -0.3876 -0.4523 -0.4758
  973MOL0     C31246   1.276   3.187   2.553  0.4309 -0.7299 -1.0110
  973MOL0     C31247   1.152   3.236   2.503  0.1777  0.0181 -0.6406
  973MOL0     C31248   1.039   3.127   2.483 -0.1191 -1.0206  0.1296
  973MOL0     C31249   1.122   3.375   2.500 -0.0595  1.1222  0.0097
  973MOL0     C31250   0.998   3.428   2.445  0.0211 -0.2702  0.3450
  973MOL0     O31251   0.919   3.515   2.522  0.2463  0.2261  0.2849
  973MOL0     C31252   0.799   3.543   2.469  0.1175  0.7184  0.3437
  973MOL0     C31253   0.787   3.653   2.389  0.6149  0.0864  0.1182
  973MOL0     C31254   0.658   3.690   2.342  0.2282  0.1269  0.9485
  973MOL0     C31255   0.539   3.620   2.378  0.2045 -0.1621 -0.7017
  973MOL0     O31256   0.418   3.647   2.319 -0.3676  0.4064 -0.2371
  973MOL0     C31257   0.320   3.696   2.416 -0.0473 -0.0060 -0.4131
  973MOL0     C31258   0.184   3.623   2.398 -0.4016  0.2157  0.2542
  973MOL0     C31259   0.113   3.669   2.270  0.8431  0.0294  0.3940
  973MOL0     C31260  -0.015   3.595   2.267  0.4150  0.9847 -0.2435
  973MOL0     C31261  -0.092   3.629   2.135  0.3111  0.5562 -0.3896
  973MOL0     C31262  -0.230   3.575   2.126  0.3005 -0.5544 -0.3170
  973MOL0     C31263  -0.307   3.629   2.005 -0.2928 -0.0508  0.0588
  973MOL0     C31264  -0.425   3.539   1.970  0.1044 -0.8655 -0.2238
  973MOL0    Cl31265  -0.542   3.527   2.107  0.0217  0.4666 -0.5239
  973MOL0     C31266   0.559   3.513   2.466  0.6497 -0.5270 -0.2664
  973MOL0     C31267   0.687   3.469   2.512  1.0501 -0.6883  0.4717
  973MOL0     O31268   0.975   3.394   2.327  0.3415  1.0225  0.0009
  973MOL0     C31269   1.219   3.455   2.549  0.2861 -0.6098 -0.1853
  973MOL0     C31270   1.331   3.412   2.612  0.2201 -0.4136 -0.7580
  973MOL0     N31271   1.874   3.185   3.007  0.0966  0.1793  0.1387
  973MOL0     N31272   1.913   3.109   3.100  0.2043  0.1147 -0.1556
  973MOL0     C31273   3.209   2.926   3.114  0.3578  0.0921 -0.2183
  973MOL0     C31274   3.342   2.951   3.091 -1.0112  0.2592  0.5081
  973MOL0     C31275   3.763   2.919   2.944 -0.1734  0.1979  0.3760
  973MOL0     C31276   3.832   2.929   3.063 -0.1043  0.1916  0.0223
  973MOL0     C31277   3.960   2.977   3.066 -0.3077  0.2358 -0.2363
  973MOL0     C31278   4.038   3.004   2.946  0.0028 -0.7268  0.6447
  973MOL0     O31279   4.174   3.044   2.953  0.2534 -0.4759  0.2312
  973MOL0     C31280   4.271   2.964   2.872 -0.2622 -0.1513  0.4144
  973MOL0     C31281   4.406   2.995   2.928  0.7966 -0.3732 -0.1715
  973MOL0     C31282   4.505   2.921   2.852 -0.0236  0.7131 -0.2895
  973MOL0     C31283   4.639   2.960   2.883  0.1810 -0.0454  0.0858
  973MOL0     C31284   4.742   2.877   2.824 -0.9147 -0.2174  0.2905
  973MOL0     C31285   4.822   2.810   2.760 -0.9966 -0.4333  0.9318
  973MOL0     C31286   3.976   2.985   2.823  0.4757  0.8986 -0.4309
  973MOL0     C31287   3.837   2.939   2.825  0.9067 -0.8598 -0.8921
  973MOL0     H31288   3.451   2.640   3.021  0.2000  1.0458  1.4212
  973MOL0     H31289   3.212   2.583   3.101 -2.1355  0.7783  0.8769
  973MOL0     H31290   2.948   2.950   3.258 -3.8177  0.9636 -0.4801
  973MOL0     H31291   2.913   2.920   3.084  0.6062 -0.3089 -0.2224
  973MOL0     H31292   2.759   2.731   3.157  0.3663  0.1094 -0.6528
  973MOL0     H31293   2.817   2.750   3.317 -1.4137 -2.6393 -1.9416
  973MOL0     H31294   2.737   2.976   3.347 -0.6522 -1.7803  2.2893
  973MOL0     H31295   2.723   2.994   3.169  1.9940 -0.3415 -0.3546
  973MOL0     H31296   2.540   2.815   3.188 -1.0100 -0.1447  1.0780
  973MOL0     H31297   2.545   2.828   3.351 -0.6287 -0.9678  0.2274
  973MOL0     H31298   2.512   3.078   3.341 -2.6470  0.3301  1.0838
  973MOL0     H31299   2.484   3.067   3.172  0.8868 -1.2111  0.0923
  973MOL0     H31300   2.320   2.868   3.260  1.3944  0.2677 -1.9677
  973MOL0     H31301   2.322   2.960   3.407  2.5790 -1.8981 -0.2417
  973MOL0     H31302   2.171   3.112   3.332 -1.3782 -0.1753 -0.4009
  973MOL0     H31303   2.282   3.152   3.194  1.2265  0.6888  2.2920
  973MOL0     H31304   2.046   2.935   3.216 -1.5386  0.6843 -2.4943
  973MOL0     H31305   2.169   2.917   3.096 -0.6028 -2.5535  2.2793
  973MOL0     H31306   2.195   3.176   2.941  0.8679 -0.5911 -0.3649
  973MOL0     H31307   2.023   3.390   2.793 -1.2565  0.9365  1.0496
  973MOL0     H31308   1.983   3.235   2.712 -2.5827 -0.6246 -0.7859
  973MOL0     H31309   1.834   3.418   2.682  0.9110 -0.0811  0.3604
  973MOL0     H31310   1.783   3.418   2.850 -0.4614 -0.7418 -0.0721
  973MOL0     H31311   1.678   3.191   2.831 -1.3987  0.5052 -0.7187
  973MOL0     H31312   1.746   3.189   2.663  0.8612  0.6225 -1.0966
  973MOL0     H31313   1.613   3.403   2.635  0.9031  0.9952  0.6124
  973MOL0     H31314   1.528   3.351   2.790  0.0777 -2.1318  0.5674
  973MOL0     H31315   1.297   3.081   2.544 -4.5245 -2.1341  0.7861
  973MOL0     H31316   0.955   3.153   2.549  1.8931  1.4629  1.9256
  973MOL0     H31317   1.007   3.112   2.380 -2.3389 -0.8023  0.7248
  973MOL0     H31318   1.069   3.024   2.506 -2.6368 -2.3656 -1.9947
  973MOL0     H31319   0.876   3.710   2.365  0.7269 -0.3155 -0.4371
  973MOL0     H31320   0.656   3.779   2.279  2.9146 -0.1519  0.3426
  973MOL0     H31321   0.349   3.674   2.519  0.2092 -1.2534 -0.7343
  973MOL0     H31322   0.305   3.803   2.397  2.2864  0.3872 -0.2731
  973MOL0     H31323   0.201   3.515   2.386 -0.6429  0.2230 -0.1656
  973MOL0     H31324   0.116   3.634   2.483  0.1430  0.0855  0.7164
  973MOL0     H31325   0.172   3.640   2.182  0.9995 -2.3806  1.2003
  973MOL0     H31326   0.109   3.778   2.278  1.7084  0.2497 -1.5366
  973MOL0     H31327   0.000   3.487   2.269  3.4368  1.3179 -0.9634
  973MOL0     H31328  -0.079   3.618   2.353 -0.3801 -0.1781 -0.4898
  973MOL0     H31329  -0.044   3.593   2.044 -2.2697  2.1257 -2.5159
  973MOL0     H31330  -0.095   3.738   2.123 -1.5519  0.7695  1.4496
  973MOL0     H31331  -0.232   3.467   2.112 -2.9622 -0.3941 -2.3133
  973MOL0     H31332  -0.284   3.602   2.217 -1.1744  1.1351 -1.6058
  973MOL0     H31333  -0.250   3.636   1.912 -0.8468 -0.4762 -0.3193
  973MOL0     H31334  -0.336   3.731   2.031  0.1060 -0.2686  1.4690
  973MOL0     H31335  -0.396   3.436   1.947  1.3590 -0.4056 -0.7494
  973MOL0     H31336  -0.477   3.581   1.883 -2.2652 -1.1552  0.9712
  973MOL0     H31337   0.479   3.451   2.507  0.4399  1.3180  2.3624
  973MOL0     H31338   0.697   3.379   2.571 -0.1915  0.0698  1.9043
  973MOL0     H31339   1.198   3.561   2.548  2.3180 -0.1555  0.5262
  973MOL0     H31340   1.393   3.491   2.653  1.5830 -1.2649 -1.0839
  973MOL0     H31341   3.146   3.009   3.147 -0.3243 -0.9228  1.1281
  973MOL0     H31342   3.382   3.049   3.112  0.8416 -0.7012  1.6947
  973MOL0     H31343   3.780   2.906   3.156 -0.7451  0.0794 -0.3575
  973MOL0     H31344   4.010   2.994   3.161  0.3932 -0.9425 -0.3723
  973MOL0     H31345   4.246   2.859   2.887 -2.6279  0.1808 -0.7125
  973MOL0     H31346   4.263   2.985   2.765  0.1279 -3.6599 -0.4169
  973MOL0     H31347   4.404   2.965   3.034  2.9581 -0.0561  0.0040
  973MOL0     H31348   4.424   3.103   2.927 -1.7988  0.2374  2.5652
  973MOL0     H31349   4.489   2.923   2.744 -2.3315 -0.1878 -0.0168
  973MOL0     H31350   4.500   2.817   2.884  1.9445  0.5821 -0.2995
  973MOL0     H31351   4.658   2.958   2.991 -0.9642  0.3223  0.3023
  973MOL0     H31352   4.648   3.064   2.851 -1.1492 -0.5807 -2.2519
  973MOL0     H31353   4.886   2.745   2.703 -1.6214 -0.5472  0.3473
  973MOL0     H31354   4.024   2.988   2.726  0.0520 -1.7864 -0.7999
  973MOL0     H31355   3.796   2.922   2.726 -0.4904 -0.6852 -0.3733
  974MOL0     O31356   4.678   3.852   9.555  0.4671 -0.2666 -0.2109
  974MOL0     C31357   4.642   3.944   9.630  0.7216 -0.2967  0.6177
  974MOL0     O31358   4.722   4.032   9.695  0.0086  0.2609 -0.4127
  974MOL0     C31359   4.858   4.020   9.665  0.4098 -0.1138 -0.1864
  974MOL0     C31360   4.938   3.905   9.657  0.6117 -0.1913 -0.0058
  974MOL0     C31361   5.070   3.914   9.619 -0.0749 -0.5813 -0.4748
  974MOL0     C31362   5.134   4.043   9.615  0.0895  0.0071  0.3223
  974MOL0     O31363   5.266   4.064   9.581 -0.2674 -0.1084  0.1927
  974MOL0     C31364   5.339   3.941   9.554 -0.5094 -0.2751  0.7188
  974MOL0     C31365   5.481   3.963   9.495  0.1476 -0.4900 -0.2758
  974MOL0     C31366   5.471   4.026   9.359  0.2662  1.2220  0.2818
  974MOL0     C31367   5.609   4.005   9.292  0.4826 -0.5625  0.3595
  974MOL0     C31368   5.666   3.863   9.262  0.2452  0.5522 -0.8152
  974MOL0     C31369   5.782   3.870   9.160 -0.0902 -0.0325  0.0735
  974MOL0     C31370   5.845   3.732   9.118  0.8578 -0.5960  0.1987
  974MOL0     C31371   5.776   3.673   8.998 -0.2231  0.2444  0.4447
  974MOL0     N31372   5.817   3.528   8.974  0.0676  0.1595 -0.3328
  974MOL0     C31373   5.927   3.463   9.036  1.1786 -0.1829  0.6078
  974MOL0     C31374   5.928   3.341   8.982  0.2493 -0.2751  0.2256
  974MOL0     C31375   6.020   3.235   9.015 -0.7934 -0.1139  0.6667
  974MOL0     C31376   5.967   3.132   9.115 -0.1075 -0.7025 -0.4240
  974MOL0     C31377   6.064   3.020   9.133 -0.3673 -0.0486 -0.1462
  974MOL0     C31378   5.999   2.916   9.230  0.0645  0.0617  0.0821
  974MOL0     O31379   5.896   2.839   9.173 -0.1432 -0.0904  0.2941
  974MOL0     C31380   5.829   2.747   9.238  1.0074  0.8400  0.3904
  974MOL0     C31381   5.700   2.702   9.207  0.3723 -0.1928 -0.1341
  974MOL0     C31382   5.630   2.608   9.289 -0.3384 -0.0105  0.4020
  974MOL0     C31383   5.486   2.576   9.262  0.3291 -0.2264 -0.0991
  974MOL0     C31384   5.691   2.559   9.405  0.1229 -1.0560  0.6818
  974MOL0     C31385   5.627   2.475   9.502  0.7231 -0.2893 -0.9519
  974MOL0     O31386   5.647   2.502   9.634 -0.4454 -0.5411  0.2906
  974MOL0     C31387   5.565   2.431   9.716  0.3778 -0.5392  1.0309
  974MOL0     C31388   5.618   2.329   9.801 -0.2872 -0.3737 -0.5481
  974MOL0     C31389   5.537   2.259   9.886  0.0972 -0.0016  0.1230
  974MOL0     C31390   5.397   2.288   9.897 -0.5122 -0.7646 -0.5759
  974MOL0     O31391   5.315   2.223   9.978 -1.1094 -0.0713 -0.1841
  974MOL0     C31392   5.333   2.085  10.017 -0.1796 -0.2021 -0.3219
  974MOL0     C31393   5.197   2.043  10.070  0.3044 -0.2808  0.2457
  974MOL0     C31394   5.158   2.139  10.186  0.0364  0.2221 -0.3547
  974MOL0     C31395   5.067   2.076  10.294 -0.0717  0.0506 -0.1146
  974MOL0     C31396   5.020   2.185  10.392 -0.9902 -0.5344 -0.9832
  974MOL0     C31397   4.933   2.124  10.499 -0.4282  0.2227 -0.1998
  974MOL0     C31398   4.905   2.213  10.620  0.1668 -0.7412 -0.8220
  974MOL0     C31399   4.790   2.314  10.584 -0.0438  0.1223 -0.6500
  974MOL0    Cl31400   4.741   2.422  10.726 -0.4448  0.5132 -0.4833
  974MOL0     C31401   5.351   2.391   9.818 -0.2602 -0.2155  0.2821
  974MOL0     C31402   5.428   2.461   9.721 -0.4960  0.3169 -0.6533
  974MOL0     O31403   5.558   2.385   9.453 -0.3218  0.9840  0.0239
  974MOL0     C31404   5.819   2.598   9.431 -0.1527 -0.2138 -0.0249
  974MOL0     C31405   5.886   2.691   9.349 -0.2763 -0.4541  0.3243
  974MOL0     N31406   5.837   3.339   8.884 -0.8422  0.7153  0.5958
  974MOL0     N31407   5.769   3.445   8.884  0.4915 -1.8362  0.5474
  974MOL0     C31408   5.058   4.153   9.638  0.2484  0.7463 -0.2650
  974MOL0     C31409   4.925   4.140   9.654  0.7512  0.1164  0.1865
  974MOL0     C31410   4.493   3.971   9.637 -0.2171  0.2524 -0.3662
  974MOL0     C31411   4.406   3.868   9.594  0.9480 -0.0787 -0.1314
  974MOL0     C31412   4.267   3.892   9.582  1.0309  0.8317 -0.1902
  974MOL0     C31413   4.211   4.021   9.611 -0.5431 -0.3785  0.2790
  974MOL0     O31414   4.080   4.032   9.601 -0.3623  0.3182 -0.4876
  974MOL0     C31415   4.006   4.127   9.676 -1.0202  0.2923  0.6161
  974MOL0     C31416   3.856   4.128   9.645  0.3402 -0.0000  0.4650
  974MOL0     C31417   3.774   4.007   9.684  0.6728  0.4934 -0.2829
  974MOL0     C31418   3.630   4.027   9.633  0.0324  0.0896  0.0776
  974MOL0     C31419   3.555   4.126   9.712  0.8783 -0.3525  0.5200
  974MOL0     C31420   3.502   4.218   9.768 -0.2344  0.2938  0.9079
  974MOL0     C31421   4.299   4.117   9.659 -0.3442 -0.2361 -0.8802
  974MOL0     C31422   4.443   4.096   9.670  0.5841 -0.1241 -0.1624
  974MOL0     H31423   4.883   3.813   9.674 -2.5221  1.4955 -0.2742
  974MOL0     H31424   5.124   3.821   9.600  0.7318 -0.0159 -1.0446
  974MOL0     H31425   5.342   3.886   9.648 -2.2769 -0.6691  0.5808
  974MOL0     H31426   5.290   3.873   9.483 -0.2964 -0.1511  0.4478
  974MOL0     H31427   5.544   4.029   9.554  0.6058  0.0411 -1.3215
  974MOL0     H31428   5.540   3.872   9.492 -0.9741 -1.2315 -0.4705
  974MOL0     H31429   5.390   3.976   9.306 -0.6668 -0.0514  2.7439
  974MOL0     H31430   5.457   4.133   9.378  1.4562  1.2645  1.0350
  974MOL0     H31431   5.605   4.062   9.199  1.6562 -2.6779 -1.0603
  974MOL0     H31432   5.691   4.056   9.344 -0.0869  0.0250  0.6882
  974MOL0     H31433   5.709   3.827   9.356 -1.2228 -0.7919 -0.6243
  974MOL0     H31434   5.588   3.795   9.229  2.2599 -1.5154 -1.6055
  974MOL0     H31435   5.746   3.919   9.069  1.1446  0.9542  0.0974
  974MOL0     H31436   5.862   3.934   9.198  1.0611 -1.4353  0.1204
  974MOL0     H31437   5.948   3.748   9.086  0.5620  0.8347 -0.1238
  974MOL0     H31438   5.852   3.669   9.207 -2.4943  0.2398  1.1931
  974MOL0     H31439   5.801   3.729   8.907  0.3752 -1.1694 -0.2811
  974MOL0     H31440   5.670   3.683   9.022  0.3188  1.6543  2.4639
  974MOL0     H31441   5.989   3.490   9.120  0.6159  2.2592  0.2950
  974MOL0     H31442   6.041   3.182   8.922  0.2201 -0.6386  1.1764
  974MOL0     H31443   6.111   3.289   9.042 -0.4904 -0.5607  0.5471
  974MOL0     H31444   5.872   3.092   9.078 -0.5779 -0.3392  0.3497
  974MOL0     H31445   5.954   3.183   9.211 -0.0738 -1.7152  0.1433
  974MOL0     H31446   6.157   3.058   9.176 -0.3514  0.5328 -0.6705
  974MOL0     H31447   6.089   2.961   9.045  1.5655 -0.9849  0.9781
  974MOL0     H31448   5.975   2.962   9.327  0.6869 -2.0935  1.3245
  974MOL0     H31449   6.081   2.845   9.242  0.2397  0.1421 -0.5954
  974MOL0     H31450   5.650   2.749   9.122  0.9477 -1.4082 -1.1722
  974MOL0     H31451   5.436   2.647   9.195 -0.3001 -1.9660 -1.5654
  974MOL0     H31452   5.470   2.476   9.221 -0.6382  0.1715 -0.7421
  974MOL0     H31453   5.437   2.600   9.357 -0.0017 -0.2788 -0.2539
  974MOL0     H31454   5.726   2.319   9.799 -0.3541 -1.1330 -2.3737
  974MOL0     H31455   5.575   2.181   9.952  0.1642  0.9670  1.2721
  974MOL0     H31456   5.356   2.027   9.927 -0.3967  0.1685 -0.6175
  974MOL0     H31457   5.403   2.069  10.100 -3.0706 -0.7216  2.2029
  974MOL0     H31458   5.123   2.060   9.992 -1.1960  1.5545  1.9651
  974MOL0     H31459   5.185   1.939  10.103 -2.3071 -0.7157 -1.7406
  974MOL0     H31460   5.118   2.230  10.140  0.4761 -0.3733 -2.0001
  974MOL0     H31461   5.255   2.162  10.232  0.1055  1.0344 -0.8884
  974MOL0     H31462   4.980   2.027  10.248  0.4026 -1.7833  0.8451
  974MOL0     H31463   5.117   1.992  10.343  1.6585  1.5826  0.8657
  974MOL0     H31464   4.966   2.260  10.334 -0.6828  1.3787  1.0806
  974MOL0     H31465   5.110   2.225  10.439 -0.4468 -0.7353 -1.8427
  974MOL0     H31466   4.845   2.089  10.444 -0.8121  1.8634 -0.6878
  974MOL0     H31467   4.982   2.035  10.539 -3.6225 -0.4973  2.5301
  974MOL0     H31468   4.995   2.264  10.657 -1.2303  0.0192  1.7846
  974MOL0     H31469   4.867   2.149  10.700 -2.1075  0.1259 -1.1537
  974MOL0     H31470   4.704   2.252  10.558 -0.2490 -0.8007  1.8742
  974MOL0     H31471   4.829   2.364  10.495  4.8481 -0.9469  0.5537
  974MOL0     H31472   5.245   2.414   9.828  0.0684  1.3992  0.2038
  974MOL0     H31473   5.382   2.525   9.647 -1.5927 -2.3786 -2.4924
  974MOL0     H31474   5.872   2.555   9.515  1.1752  0.8479 -0.2886
  974MOL0     H31475   5.985   2.720   9.383  0.1520  0.6467 -1.6951
  974MOL0     H31476   5.103   4.252   9.632 -0.0301  0.8183 -1.4392
  974MOL0     H31477   4.863   4.228   9.668 -2.8832 -1.9299 -1.3008
  974MOL0     H31478   4.428   3.767   9.559  1.1778 -0.6609  1.5805
  974MOL0     H31479   4.198   3.812   9.559  1.6024 -1.2383  4.2129
  974MOL0     H31480   4.021   4.115   9.784 -1.5719  4.3787  1.3055
  974MOL0     H31481   4.047   4.226   9.654 -0.2146 -0.3784 -1.0181
  974MOL0     H31482   3.836   4.138   9.538  0.6318  0.2041  0.4293
  974MOL0     H31483   3.818   4.216   9.698 -0.0779  2.6681 -3.7982
  974MOL0     H31484   3.772   4.001   9.793  1.2544 -0.8573 -0.3316
  974MOL0     H31485   3.811   3.916   9.637 -0.2889  0.1167 -0.3237
  974MOL0     H31486   3.579   3.931   9.642 -1.4605  0.9406  1.0167
  974MOL0     H31487   3.632   4.051   9.526  2.2910  0.7463  0.2132
  974MOL0     H31488   3.449   4.296   9.819 -0.3560  0.0111  1.2137
  974MOL0     H31489   4.257   4.217   9.672  0.0931  0.0981 -1.9767
  974MOL0     H31490   4.493   4.185   9.707 -1.3411 -0.0596  2.6349
  975MOL0     O31491   3.019   0.732   6.025  0.7886  1.4558  0.3185
  975MOL0     C31492   2.979   0.845   6.011  0.0908  0.2477  0.0523
  975MOL0     O31493   3.047   0.960   6.056 -0.3091  0.3301 -0.2784
  975MOL0     C31494   3.165   0.935   6.126  0.1633  1.2131  0.0860
  975MOL0     C31495   3.154   0.898   6.263  0.0128 -0.2785 -0.1707
  975MOL0     C31496   3.274   0.895   6.330 -0.7603  0.2724 -0.4606
  975MOL0     C31497   3.403   0.916   6.274  0.0487  0.1839  0.1298
  975MOL0     O31498   3.510   0.913   6.356 -0.0014 -0.0995  0.2023
  975MOL0     C31499   3.614   0.830   6.299  0.1663  0.1093  0.4989
  975MOL0     C31500   3.710   0.791   6.414 -0.6651 -0.1421  0.0463
  975MOL0     C31501   3.770   0.912   6.492  0.1589 -0.2049  0.2992
  975MOL0     C31502   3.812   0.879   6.632 -0.9218 -0.0894  0.1936
  975MOL0     C31503   3.835   1.000   6.712  0.7914 -0.3246 -0.1661
  975MOL0     C31504   3.977   1.064   6.698  0.0883 -0.2442 -0.4728
  975MOL0     C31505   4.077   0.976   6.788  0.6047 -0.0673 -0.2587
  975MOL0     C31506   4.198   1.056   6.828 -0.1079 -0.8326 -0.7782
  975MOL0     N31507   4.292   1.061   6.715 -0.3710  0.6773 -0.4647
  975MOL0     C31508   4.411   0.994   6.700  0.4905  0.2564 -0.3224
  975MOL0     C31509   4.452   1.024   6.582 -0.7150 -0.0771  0.6651
  975MOL0     C31510   4.576   0.978   6.509  0.3674  0.2392 -0.4369
  975MOL0     C31511   4.691   0.975   6.618  0.2252 -0.4703 -0.3098
  975MOL0     C31512   4.823   1.001   6.544 -0.1269 -0.4491 -0.2572
  975MOL0     C31513   4.942   0.961   6.627 -0.2640  0.4198 -0.5351
  975MOL0     O31514   5.049   0.942   6.533  0.6504 -0.3534 -0.2286
  975MOL0     C31515   5.158   1.021   6.548 -1.1021 -0.7256 -0.1822
  975MOL0     C31516   5.174   1.137   6.481  0.3084 -0.0117 -0.0249
  975MOL0     C31517   5.295   1.211   6.483  1.3083  0.2558 -0.0088
  975MOL0     C31518   5.285   1.340   6.403  0.0816  0.9722  1.5024
  975MOL0     C31519   5.411   1.166   6.553 -0.7738 -0.0803  0.1271
  975MOL0     C31520   5.538   1.239   6.554 -0.7055 -0.0456 -0.1231
  975MOL0     O31521   5.655   1.170   6.558  0.0139 -0.3515 -0.6782
  975MOL0     C31522   5.757   1.222   6.637  0.0958 -0.0697 -0.6117
  975MOL0     C31523   5.881   1.159   6.623 -0.3648 -0.0880 -1.0178
  975MOL0     C31524   5.982   1.172   6.716  0.0112 -0.5676  0.7119
  975MOL0     C31525   5.966   1.261   6.824  0.7167  0.5876 -0.1540
  975MOL0     O31526   6.053   1.306   6.910 -0.0435  0.3426  0.2486
  975MOL0     C31527   6.193   1.303   6.886  0.0722 -0.2950 -0.4122
  975MOL0     C31528   6.270   1.274   7.023  1.1822 -0.0756  0.4876
  975MOL0     C31529   6.421   1.287   7.005  0.0141  0.3897  0.5160
  975MOL0     C31530   6.489   1.272   7.134 -0.1474 -1.0324  0.7320
  975MOL0     C31531   6.643   1.271   7.109 -0.0827  0.3917  0.0471
  975MOL0     C31532   6.721   1.259   7.236  0.4301  0.2554  0.2505
  975MOL0     C31533   6.698   1.384   7.325 -0.1356 -0.4651  0.2559
  975MOL0     C31534   6.797   1.389   7.440 -0.4370  0.1809  0.2125
  975MOL0    Cl31535   6.952   1.485   7.389  0.4113  0.1559  0.3275
  975MOL0     C31536   5.840   1.321   6.850  0.4484  0.5122  0.0237
  975MOL0     C31537   5.730   1.299   6.752  0.4427  0.0917  0.2687
  975MOL0     O31538   5.532   1.363   6.550 -0.0072 -0.0121 -0.1602
  975MOL0     C31539   5.394   1.051   6.640 -0.6982  0.0580  0.7066
  975MOL0     C31540   5.267   0.986   6.634  0.0302  0.8825  0.5803
  975MOL0     N31541   4.365   1.111   6.523 -0.0174  0.0037  0.9733
  975MOL0     N31542   4.268   1.133   6.606  0.1343  0.0581  0.5850
  975MOL0     C31543   3.408   0.937   6.131  0.1148  0.1959  0.4099
  975MOL0     C31544   3.288   0.945   6.061  0.6373 -0.8948  0.2023
  975MOL0     C31545   2.845   0.878   5.957  0.4905 -0.6461  0.8254
  975MOL0     C31546   2.792   1.009   5.961 -0.1578 -0.1343 -0.0185
  975MOL0     C31547   2.664   1.030   5.898  0.0971  0.3954 -0.6932
  975MOL0     C31548   2.584   0.926   5.848  0.1149  0.3401  0.1676
  975MOL0     O31549   2.462   0.945   5.789 -0.5100  0.0912 -0.3569
  975MOL0     C31550   2.368   1.027   5.866 -0.4291 -0.8115  0.1473
  975MOL0     C31551   2.231   1.045   5.804 -0.3304 -0.1005  0.4018
  975MOL0     C31552   2.234   1.103   5.670 -0.3712  0.8153  0.5303
  975MOL0     C31553   2.090   1.136   5.625 -0.5719  0.2410  0.7745
  975MOL0     C31554   2.088   1.160   5.477 -0.3110  0.6182 -0.4155
  975MOL0     C31555   2.088   1.177   5.358 -0.0575 -0.3714  0.0159
  975MOL0     C31556   2.644   0.802   5.841 -0.1993  0.6047 -0.6260
  975MOL0     C31557   2.763   0.777   5.898  0.5130 -0.7000 -0.2211
  975MOL0     H31558   3.063   0.875   6.318  1.1297  0.8036  2.3051
  975MOL0     H31559   3.283   0.869   6.435  1.1996 -0.0710 -0.6792
  975MOL0     H31560   3.563   0.736   6.276  0.3019 -0.1581  1.2463
  975MOL0     H31561   3.665   0.869   6.210  1.1449  0.5246  1.2198
  975MOL0     H31562   3.653   0.726   6.481 -4.4772  2.9815  0.2007
  975MOL0     H31563   3.792   0.729   6.378  0.0862  0.1201  1.2641
  975MOL0     H31564   3.857   0.949   6.438  0.9857 -2.9235 -0.3852
  975MOL0     H31565   3.689   0.985   6.492 -1.2840 -1.7238  1.1661
  975MOL0     H31566   3.736   0.822   6.687  0.4810 -2.9779 -0.6567
  975MOL0     H31567   3.900   0.815   6.619  0.1584  1.8084 -2.8306
  975MOL0     H31568   3.761   1.081   6.701 -1.5001 -1.8128  2.8362
  975MOL0     H31569   3.821   0.983   6.819  0.3244  3.3213  0.4900
  975MOL0     H31570   4.004   1.075   6.593 -2.7532 -0.0209 -1.2561
  975MOL0     H31571   3.968   1.169   6.730  0.9970 -0.1726 -0.4364
  975MOL0     H31572   4.031   0.929   6.875 -0.7912  2.2874  0.3489
  975MOL0     H31573   4.113   0.889   6.731  0.5040 -0.1084 -0.2586
  975MOL0     H31574   4.245   1.013   6.917 -3.1768 -0.9403  0.9061
  975MOL0     H31575   4.170   1.155   6.865  1.6433 -0.7781  0.5209
  975MOL0     H31576   4.454   0.927   6.774  2.4950 -0.8687 -2.3634
  975MOL0     H31577   4.570   0.877   6.466  0.9208  0.0533 -0.0940
  975MOL0     H31578   4.589   1.041   6.420  1.3039 -1.3586 -1.4919
  975MOL0     H31579   4.705   0.883   6.676  0.3810  0.0766  0.5429
  975MOL0     H31580   4.665   1.046   6.697 -0.5668 -0.2331 -0.7750
  975MOL0     H31581   4.817   1.106   6.515 -2.8481 -0.4588 -0.0613
  975MOL0     H31582   4.828   0.937   6.454  2.6679 -0.0734 -0.4308
  975MOL0     H31583   4.928   0.869   6.683 -0.8608  0.3106 -0.8562
  975MOL0     H31584   4.969   1.047   6.689  2.0691  0.3768 -1.4009
  975MOL0     H31585   5.083   1.158   6.426  0.7091 -1.5722 -1.3574
  975MOL0     H31586   5.381   1.356   6.352  0.1802 -1.3065  0.8800
  975MOL0     H31587   5.216   1.332   6.319  0.5187  1.1982  1.1188
  975MOL0     H31588   5.261   1.422   6.471 -1.7052  1.7156  0.0543
  975MOL0     H31589   5.906   1.097   6.538  3.5264 -1.6335  0.9804
  975MOL0     H31590   6.074   1.124   6.684 -0.8111 -1.6174 -0.1443
  975MOL0     H31591   6.222   1.229   6.811  3.3130  2.0542 -1.7089
  975MOL0     H31592   6.205   1.404   6.846  0.0280  0.3350  1.0707
  975MOL0     H31593   6.232   1.340   7.101  0.4427  1.1669 -0.8792
  975MOL0     H31594   6.237   1.176   7.059  1.7858 -0.4433  0.0811
  975MOL0     H31595   6.444   1.386   6.965 -0.9447  0.8390  1.0544
  975MOL0     H31596   6.454   1.222   6.924 -0.2575  1.8531 -0.8210
  975MOL0     H31597   6.465   1.357   7.198  2.1229  0.0047  0.3235
  975MOL0     H31598   6.468   1.179   7.186  2.0260 -1.9529  0.0830
  975MOL0     H31599   6.675   1.362   7.056 -0.0263  0.0404 -0.5288
  975MOL0     H31600   6.662   1.182   7.048 -2.5405  0.5913 -1.1085
  975MOL0     H31601   6.690   1.168   7.289 -1.4810  1.3935  1.2113
  975MOL0     H31602   6.827   1.250   7.213  0.4347 -1.8255  0.8626
  975MOL0     H31603   6.601   1.370   7.372  0.0821  1.3468  1.3626
  975MOL0     H31604   6.691   1.482   7.276 -1.3640  0.5823  2.4123
  975MOL0     H31605   6.812   1.289   7.481  1.7482 -1.2967 -3.6453
  975MOL0     H31606   6.743   1.445   7.516  0.2297  0.0970  0.7598
  975MOL0     H31607   5.820   1.371   6.944  1.9266  1.3152 -0.0540
  975MOL0     H31608   5.634   1.337   6.786  0.0757 -1.0735  0.5748
  975MOL0     H31609   5.475   1.025   6.707 -0.1567 -1.5144 -0.4942
  975MOL0     H31610   5.257   0.888   6.681  1.0084  0.3871 -0.2173
  975MOL0     H31611   3.501   0.950   6.077 -0.0305  1.7499  0.4880
  975MOL0     H31612   3.285   0.975   5.957  1.7333 -2.8757 -0.4482
  975MOL0     H31613   2.842   1.092   6.010 -1.6311  1.3314 -0.8707
  975MOL0     H31614   2.616   1.127   5.895 -1.1650 -0.2407 -1.8435
  975MOL0     H31615   2.369   0.998   5.971  1.6112 -1.6014 -0.0468
  975MOL0     H31616   2.404   1.129   5.855 -2.9049 -0.0047 -1.4924
  975MOL0     H31617   2.167   1.112   5.861 -0.3125  0.7672 -0.5630
  975MOL0     H31618   2.178   0.950   5.799 -1.0858  0.3484 -0.1486
  975MOL0     H31619   2.262   1.024   5.600 -3.3905  1.0077 -1.0348
  975MOL0     H31620   2.302   1.188   5.668  0.8630 -0.1596 -0.2672
  975MOL0     H31621   2.074   1.232   5.677 -0.6317  1.8833 -2.0587
  975MOL0     H31622   2.015   1.058   5.641  1.3062 -2.8128 -3.4979
  975MOL0     H31623   2.084   1.195   5.252  0.9881  0.0087  0.0226
  975MOL0     H31624   2.599   0.723   5.780 -0.9160  1.1403 -0.8026
  975MOL0     H31625   2.786   0.672   5.910 -0.1113 -0.6617  1.5580
  976MOL0     O31626   7.160   5.129   9.372 -0.7879  0.4382  0.2423
  976MOL0     C31627   7.213   5.088   9.267  0.6190  0.0603 -0.9724
  976MOL0     O31628   7.154   5.040   9.151  0.1252  0.2652  0.0555
  976MOL0     C31629   7.017   5.016   9.145  0.3633 -0.1882 -0.7728
  976MOL0     C31630   6.980   4.949   9.028 -0.8460  0.6775 -0.4816
  976MOL0     C31631   6.846   4.903   9.012 -0.2220 -0.1547 -0.3000
  976MOL0     C31632   6.750   4.927   9.105 -0.3797 -0.2430 -0.3528
  976MOL0     O31633   6.617   4.895   9.101 -0.0267  0.2382 -0.0955
  976MOL0     C31634   6.570   4.838   8.979 -0.1590 -0.0099 -0.8968
  976MOL0     C31635   6.417   4.837   8.989 -0.7753 -0.1462 -0.0067
  976MOL0     C31636   6.372   4.718   9.068 -0.4024  0.2262  0.6585
  976MOL0     C31637   6.214   4.735   9.097  0.1202 -0.4192 -0.2367
  976MOL0     C31638   6.156   4.655   9.216  0.1218  0.2687  0.4414
  976MOL0     C31639   6.223   4.675   9.351  0.4724 -0.1993 -0.2486
  976MOL0     C31640   6.135   4.604   9.460  0.0763  0.3527  0.4802
  976MOL0     C31641   6.145   4.446   9.455 -0.2375 -0.2034 -0.9612
  976MOL0     N31642   6.020   4.386   9.503  0.4197 -0.0079  0.2974
  976MOL0     C31643   5.983   4.367   9.638 -0.2013  0.1963 -0.4480
  976MOL0     C31644   5.849   4.322   9.632  0.3209  0.7128 -0.5041
  976MOL0     C31645   5.756   4.276   9.749  0.0320 -0.0102  0.4145
  976MOL0     C31646   5.670   4.395   9.783 -0.7803  0.1060  0.1118
  976MOL0     C31647   5.522   4.360   9.737 -0.2676  0.5397 -0.5744
  976MOL0     C31648   5.425   4.272   9.828  0.2888  0.1495  0.4809
  976MOL0     O31649   5.421   4.320   9.963  0.1350  0.0202  0.4181
  976MOL0     C31650   5.347   4.245  10.046  0.4353  0.6173 -0.1695
  976MOL0     C31651   5.242   4.159  10.010 -0.3977 -0.2711  0.9968
  976MOL0     C31652   5.165   4.096  10.109  0.2235 -0.3965 -0.9452
  976MOL0     C31653   5.063   3.998  10.062 -0.8664  0.1231 -0.8306
  976MOL0     C31654   5.177   4.139  10.246 -0.4663  0.0129  0.8554
  976MOL0     C31655   5.077   4.089  10.350  0.1287 -0.0286  0.4368
  976MOL0     O31656   5.125   4.107  10.474  0.2797 -0.3622 -0.2954
  976MOL0     C31657   5.037   4.057  10.572  0.0750 -0.3808 -0.1776
  976MOL0     C31658   5.028   3.918  10.588 -0.3756  0.1644  0.0156
  976MOL0     C31659   4.948   3.873  10.689 -0.5887  0.4763  0.3932
  976MOL0     C31660   4.888   3.956  10.784 -0.5980  0.3941  0.1214
  976MOL0     O31661   4.828   3.907  10.898  0.0269  1.1120 -0.5230
  976MOL0     C31662   4.863   3.952  11.028  0.5789 -0.1635 -0.7393
  976MOL0     C31663   4.775   3.876  11.131  0.3886  0.4110  0.6553
  976MOL0     C31664   4.764   3.726  11.111  0.8719 -0.3390  0.4957
  976MOL0     C31665   4.688   3.656  11.219 -0.2926 -0.0197 -0.2543
  976MOL0     C31666   4.770   3.640  11.342  0.0883 -0.7081  0.0403
  976MOL0     C31667   4.862   3.520  11.342  0.3250  0.0201 -0.6733
  976MOL0     C31668   4.931   3.490  11.475  0.3920 -0.5710 -0.1646
  976MOL0     C31669   5.034   3.378  11.460 -0.2810  0.7103  0.5136
  976MOL0    Cl31670   4.959   3.233  11.400  0.3622  0.0829 -0.8528
  976MOL0     C31671   4.896   4.097  10.763 -0.2894 -0.0938  0.3104
  976MOL0     C31672   4.980   4.147  10.671  0.9188  0.6383 -0.0513
  976MOL0     O31673   4.969   4.035  10.329 -0.2517 -0.1771  0.2205
  976MOL0     C31674   5.289   4.222  10.272  0.7834 -0.1032  0.0861
  976MOL0     C31675   5.368   4.276  10.177 -0.8741 -0.3761  0.7118
  976MOL0     N31676   5.810   4.326   9.498  0.1503  0.5870 -0.2263
  976MOL0     N31677   5.913   4.358   9.429 -0.4433 -0.1382  0.7348
  976MOL0     C31678   6.793   4.994   9.217 -0.2154  0.0291  0.1503
  976MOL0     C31679   6.921   5.040   9.239 -0.7444  0.4032  0.1126
  976MOL0     C31680   7.360   5.101   9.261 -0.4218 -1.1368  0.9440
  976MOL0     C31681   7.438   5.142   9.371 -0.1618  0.2180  0.0749
  976MOL0     C31682   7.576   5.163   9.366  0.2811  0.8748 -0.2598
  976MOL0     C31683   7.634   5.169   9.238 -0.2620  0.6670  0.4879
  976MOL0     O31684   7.768   5.215   9.218  0.8102  0.1731 -0.0653
  976MOL0     C31685   7.871   5.172   9.305  0.5711 -0.0813 -0.0801
  976MOL0     C31686   7.889   5.018   9.327  0.2723 -0.6193 -0.5200
  976MOL0     C31687   8.008   4.973   9.414 -0.3820 -1.0759 -0.5021
  976MOL0     C31688   8.138   5.016   9.347  0.2198 -0.1477  0.0423
  976MOL0     C31689   8.254   4.961   9.413  0.3229  0.1327  0.1546
  976MOL0     C31690   8.357   4.910   9.452  0.2095 -0.0963 -0.7598
  976MOL0     C31691   7.565   5.124   9.130 -0.5208 -0.2905  0.4237
  976MOL0     C31692   7.432   5.089   9.141  0.1455  0.0101  0.4394
  976MOL0     H31693   7.064   4.940   8.960 -0.2659  1.9566  0.0175
  976MOL0     H31694   6.813   4.860   8.918  1.3092  0.6488 -1.2541
  976MOL0     H31695   6.607   4.883   8.887  1.0431 -0.1593 -0.4930
  976MOL0     H31696   6.605   4.734   8.981  2.4060  0.7645  2.1952
  976MOL0     H31697   6.385   4.934   9.029  1.4295  0.7673 -0.2980
  976MOL0     H31698   6.386   4.832   8.884 -0.4102 -2.6113 -0.0432
  976MOL0     H31699   6.391   4.633   9.002  0.5049  0.2182  0.9244
  976MOL0     H31700   6.432   4.700   9.158  0.8472 -0.5125 -0.2993
  976MOL0     H31701   6.191   4.840   9.120 -3.5063 -0.8964 -1.0674
  976MOL0     H31702   6.155   4.721   9.006 -0.9114 -0.6329  0.4419
  976MOL0     H31703   6.049   4.676   9.223 -0.4792 -1.6096 -1.9506
  976MOL0     H31704   6.165   4.549   9.192 -2.0817 -0.7344  3.4078
  976MOL0     H31705   6.325   4.638   9.339 -0.3688 -2.0885 -2.4792
  976MOL0     H31706   6.234   4.779   9.382  1.5205 -0.0585 -1.0392
  976MOL0     H31707   6.175   4.645   9.553  0.4066 -1.7554  1.3138
  976MOL0     H31708   6.031   4.639   9.456  0.4326  1.9538  3.0954
  976MOL0     H31709   6.236   4.414   9.508  0.5088  2.6776 -0.3551
  976MOL0     H31710   6.156   4.404   9.355  2.2527 -0.2619 -0.7244
  976MOL0     H31711   6.033   4.378   9.734 -0.7544  4.5023 -0.4783
  976MOL0     H31712   5.709   4.185   9.709 -0.2847  0.4874 -0.3753
  976MOL0     H31713   5.812   4.249   9.839 -1.1304 -1.1717  0.8379
  976MOL0     H31714   5.693   4.482   9.721 -3.3212 -0.3539 -1.6213
  976MOL0     H31715   5.682   4.425   9.887  1.0680 -1.7721  0.5208
  976MOL0     H31716   5.522   4.311   9.639 -0.1273  2.3300 -1.5203
  976MOL0     H31717   5.473   4.457   9.723 -0.6195 -0.0754 -5.9891
  976MOL0     H31718   5.465   4.170   9.827  0.1485  0.0768  1.3353
  976MOL0     H31719   5.324   4.279   9.787 -0.4048 -3.0488  1.3877
  976MOL0     H31720   5.227   4.133   9.905 -0.1127  2.1664  0.2807
  976MOL0     H31721   5.095   3.975   9.960  1.1142  2.8699 -0.9387
  976MOL0     H31722   5.073   3.904  10.118  0.3607 -0.9197 -2.6636
  976MOL0     H31723   4.962   4.038  10.053 -0.5919  1.9038  2.4067
  976MOL0     H31724   5.074   3.858  10.510  1.4236  1.0163  0.3663
  976MOL0     H31725   4.945   3.767  10.709 -2.2359  0.5627  0.6721
  976MOL0     H31726   4.965   3.921  11.053 -0.3672 -1.6428  1.6390
  976MOL0     H31727   4.840   4.057  11.049  2.1992 -0.2414  1.8264
  976MOL0     H31728   4.805   3.899  11.234  0.7796  0.3782  0.5498
  976MOL0     H31729   4.672   3.912  11.135  0.4310  0.5422  0.5770
  976MOL0     H31730   4.868   3.691  11.112  1.3441  0.9499 -0.7980
  976MOL0     H31731   4.722   3.709  11.012 -0.1524 -0.5953  0.9583
  976MOL0     H31732   4.604   3.723  11.238  0.9460  1.3613  0.5204
  976MOL0     H31733   4.663   3.558  11.176 -1.3147  0.2075 -0.2023
  976MOL0     H31734   4.696   3.637  11.422 -0.6114 -1.4238 -0.6063
  976MOL0     H31735   4.831   3.729  11.362  0.0130 -1.1532  2.5507
  976MOL0     H31736   4.815   3.430  11.301  2.2508  0.7168 -5.0328
  976MOL0     H31737   4.942   3.543  11.271  0.1238  0.7747 -0.6656
  976MOL0     H31738   4.863   3.459  11.554 -0.0736 -1.7798 -1.0121
  976MOL0     H31739   4.990   3.575  11.511 -1.4472  1.1180 -0.9421
  976MOL0     H31740   5.080   3.356  11.557  1.7052 -1.6701 -0.8454
  976MOL0     H31741   5.111   3.396  11.384  1.3596 -2.8447  1.1315
  976MOL0     H31742   4.844   4.159  10.835  0.9918  2.9320 -1.1922
  976MOL0     H31743   5.009   4.251  10.674  2.0318  0.3409 -0.1847
  976MOL0     H31744   5.299   4.251  10.376 -4.6396 -1.5204  1.2760
  976MOL0     H31745   5.446   4.339  10.218 -0.3540 -0.6437  0.1424
  976MOL0     H31746   6.714   5.019   9.286 -0.7236 -4.6270  1.6405
  976MOL0     H31747   6.938   5.104   9.325  2.9245  2.5593 -1.9476
  976MOL0     H31748   7.369   5.142   9.455 -1.9971  1.1834 -1.3675
  976MOL0     H31749   7.619   5.197   9.459 -0.9236  0.4073  0.4891
  976MOL0     H31750   7.964   5.212   9.264 -0.9953  1.5068 -2.3967
  976MOL0     H31751   7.853   5.213   9.405  1.1275 -1.3527  0.5604
  976MOL0     H31752   7.902   4.973   9.229  2.1294 -0.7282 -0.2582
  976MOL0     H31753   7.797   4.972   9.364 -1.1936  0.8680 -2.1597
  976MOL0     H31754   8.002   4.865   9.429 -0.4819 -0.6628  3.3376
  976MOL0     H31755   7.998   5.013   9.515 -2.8459 -2.8722  0.0661
  976MOL0     H31756   8.143   5.125   9.342  3.5302 -0.2463 -1.4846
  976MOL0     H31757   8.132   4.974   9.246  0.2157  0.1728 -0.0895
  976MOL0     H31758   8.444   4.869   9.499  0.7581  2.2057  0.3504
  976MOL0     H31759   7.603   5.108   9.029 -0.9409 -0.4587  0.2896
  976MOL0     H31760   7.385   5.042   9.056  0.8921 -2.0408  1.1106
  977MOL0     O31761  10.577  11.127   0.243 -0.1808 -0.2634 -0.2625
  977MOL0     C31762  10.573  11.155   0.361  0.7523  0.3231  0.7115
  977MOL0     O31763  10.477  11.238   0.415  1.3991 -0.0418  0.4534
  977MOL0     C31764  10.389  11.303   0.321 -0.6320  1.1880 -1.7655
  977MOL0     C31765  10.259  11.261   0.300 -0.3478  1.3203 -1.1203
  977MOL0     C31766  10.180  11.320   0.204 -0.2951 -0.0564  0.8399
  977MOL0     C31767  10.243  11.420   0.117  0.4955  0.8395  0.9085
  977MOL0     O31768  10.157  11.466   0.014  0.3400 -0.1639 -0.0532
  977MOL0     C31769  10.173  11.588  -0.069 -0.0700 -0.6154 -0.3148
  977MOL0     C31770  10.037  11.651  -0.100  0.5572 -0.9177  0.0197
  977MOL0     C31771  10.050  11.741  -0.224  0.0808  0.5328 -0.4780
  977MOL0     C31772   9.920  11.820  -0.259 -0.3319  0.1144  0.3762
  977MOL0     C31773   9.964  11.917  -0.370 -0.5641 -0.5913 -0.0108
  977MOL0     C31774   9.839  11.995  -0.412 -0.4532 -1.1658  0.0267
  977MOL0     C31775   9.774  12.098  -0.318  0.2954  0.7238 -0.0107
  977MOL0     C31776   9.638  12.146  -0.372  0.3349 -0.0780  0.0674
  977MOL0     N31777   9.649  12.230  -0.486  0.0732 -0.2421  0.4507
  977MOL0     C31778   9.691  12.363  -0.482 -0.1691  0.2527 -0.0856
  977MOL0     C31779   9.667  12.429  -0.604 -0.2393 -0.3753 -0.3243
  977MOL0     C31780   9.697  12.568  -0.634  0.2573 -0.4567  0.3018
  977MOL0     C31781   9.591  12.666  -0.585 -0.2285 -0.4796 -0.3600
  977MOL0     C31782   9.643  12.804  -0.572  0.2525  0.7315 -0.2193
  977MOL0     C31783   9.533  12.910  -0.529  0.5258  0.3963  0.8869
  977MOL0     O31784   9.443  12.849  -0.431 -0.1239  0.3251  0.0262
  977MOL0     C31785   9.355  12.925  -0.359  0.2379  0.1466 -0.5514
  977MOL0     C31786   9.319  13.055  -0.406 -0.7294  0.9763 -0.2840
  977MOL0     C31787   9.222  13.126  -0.338 -0.6830 -0.9160 -0.3515
  977MOL0     C31788   9.196  13.261  -0.403 -0.5674  0.9937 -1.1172
  977MOL0     C31789   9.147  13.075  -0.230  1.0297  0.2795 -0.3877
  977MOL0     C31790   9.034  13.145  -0.164  0.2362 -0.8134 -0.1686
  977MOL0     O31791   8.943  13.068  -0.099  0.0834 -0.2372  0.1615
  977MOL0     C31792   8.854  13.138  -0.018  0.9389  0.6074 -0.1676
  977MOL0     C31793   8.719  13.110  -0.032 -0.4546 -0.2983 -0.0223
  977MOL0     C31794   8.634  13.181   0.052 -0.6312  0.2315 -0.9830
  977MOL0     C31795   8.674  13.276   0.139 -0.9909  0.7482  0.1201
  977MOL0     O31796   8.578  13.326   0.212 -0.6496 -0.5261 -0.3373
  977MOL0     C31797   8.616  13.412   0.325  0.6012  0.5666 -0.1985
  977MOL0     C31798   8.481  13.468   0.390  0.1172 -0.1135  0.0147
  977MOL0     C31799   8.384  13.353   0.430  0.1640 -0.1049 -0.2413
  977MOL0     C31800   8.270  13.338   0.332  0.2916  0.5091  0.7412
  977MOL0     C31801   8.178  13.225   0.382 -0.2320 -0.7974 -0.0335
  977MOL0     C31802   8.052  13.195   0.299 -0.1910 -0.5566 -0.9630
  977MOL0     C31803   7.952  13.311   0.300 -0.4066  0.0550 -0.0680
  977MOL0     C31804   7.817  13.288   0.232 -0.1812  0.6090  1.2288
  977MOL0    Cl31805   7.730  13.163   0.320 -0.0392 -0.1447 -0.5612
  977MOL0     C31806   8.815  13.310   0.153  0.0702  0.5169 -0.0149
  977MOL0     C31807   8.900  13.237   0.069  0.0554 -0.1521  0.0945
  977MOL0     O31808   9.035  13.270  -0.167 -0.2198 -0.5839 -0.0821
  977MOL0     C31809   9.181  12.945  -0.190 -0.0544  0.1801 -0.7852
  977MOL0     C31810   9.284  12.869  -0.253  1.0073 -0.7901  0.6051
  977MOL0     N31811   9.610  12.328  -0.681  0.3605  0.0756  0.5038
  977MOL0     N31812   9.598  12.216  -0.613 -0.0182  0.2801 -0.2159
  977MOL0     C31813  10.373  11.455   0.133  0.0245  0.4741  0.1114
  977MOL0     C31814  10.439  11.397   0.247 -1.5473 -0.9564 -0.7220
  977MOL0     C31815  10.678  11.115   0.445 -0.4995 -0.6103 -0.3417
  977MOL0     C31816  10.675  11.139   0.590  0.6844 -0.9631  1.2290
  977MOL0     C31817  10.771  11.092   0.687  0.7892 -0.1139  1.0074
  977MOL0     C31818  10.875  11.019   0.635 -0.3371 -0.0823  0.7503
  977MOL0     O31819  10.975  10.974   0.723 -0.1805 -0.6528  0.2606
  977MOL0     C31820  11.116  11.003   0.678  0.4680 -0.4462  0.1462
  977MOL0     C31821  11.138  11.147   0.658  0.5859  0.3526 -0.7346
  977MOL0     C31822  11.276  11.202   0.699  0.3382  0.2992  0.0006
  977MOL0     C31823  11.385  11.146   0.608  0.0297  0.0788  0.2743
  977MOL0     C31824  11.499  11.238   0.634 -0.5346  0.4314  0.5585
  977MOL0     C31825  11.583  11.318   0.662  0.0777  0.3355 -0.5107
  977MOL0     C31826  10.873  10.985   0.497 -1.0126 -0.6193 -0.0175
  977MOL0     C31827  10.778  11.028   0.405  0.3022 -0.4005  0.5915
  977MOL0     H31828  10.223  11.175   0.356 -0.5730  1.0815 -1.6268
  977MOL0     H31829  10.079  11.294   0.175  0.8887 -0.8426 -3.0543
  977MOL0     H31830  10.239  11.657  -0.015 -2.6503  0.0756  2.1787
  977MOL0     H31831  10.213  11.576  -0.170  0.4541  1.7857 -0.4510
  977MOL0     H31832   9.961  11.577  -0.123 -0.8551  0.7674 -0.9756
  977MOL0     H31833  10.012  11.703  -0.007 -1.9940 -2.8672  0.5398
  977MOL0     H31834  10.127  11.814  -0.200 -1.0201  0.6696  3.2695
  977MOL0     H31835  10.085  11.681  -0.308  2.1605 -3.2443  2.7864
  977MOL0     H31836   9.844  11.755  -0.303  1.1682 -0.5205 -1.4556
  977MOL0     H31837   9.885  11.876  -0.172 -1.5597  0.0240 -0.0449
  977MOL0     H31838  10.044  11.983  -0.335 -0.6954 -0.3498 -0.1687
  977MOL0     H31839  10.010  11.866  -0.456 -0.9082  0.2915 -0.7359
  977MOL0     H31840   9.858  12.046  -0.507 -1.7543  1.2252  0.9447
  977MOL0     H31841   9.767  11.918  -0.440  0.4431 -1.6548 -1.0019
  977MOL0     H31842   9.757  12.045  -0.224  0.9058  0.3927 -0.0876
  977MOL0     H31843   9.841  12.185  -0.316  1.1099  0.2532 -2.4544
  977MOL0     H31844   9.573  12.189  -0.295  1.8882  0.4096  1.1598
  977MOL0     H31845   9.588  12.057  -0.411  0.2935  0.1035 -0.2997
  977MOL0     H31846   9.731  12.408  -0.391 -2.0101 -0.7188  1.2523
  977MOL0     H31847   9.793  12.588  -0.585  0.0087 -0.4319  0.7843
  977MOL0     H31848   9.718  12.572  -0.741 -1.9540 -1.4251 -0.2260
  977MOL0     H31849   9.563  12.638  -0.483 -0.6269  0.7867 -0.0992
  977MOL0     H31850   9.511  12.671  -0.659  0.3517  1.3210 -0.9128
  977MOL0     H31851   9.682  12.833  -0.671 -1.9785  0.1804 -1.3141
  977MOL0     H31852   9.731  12.805  -0.506  1.4786 -0.0471 -1.7615
  977MOL0     H31853   9.470  12.926  -0.616  2.0701 -2.2055 -0.8780
  977MOL0     H31854   9.563  13.009  -0.495 -2.9257  1.7780  0.2446
  977MOL0     H31855   9.352  13.097  -0.501 -1.0552 -0.1344 -0.9096
  977MOL0     H31856   9.278  13.282  -0.471  0.6169 -0.9818 -0.3813
  977MOL0     H31857   9.094  13.279  -0.439 -1.8712  0.2297  1.8532
  977MOL0     H31858   9.204  13.341  -0.328  2.6619 -0.2832  0.0921
  977MOL0     H31859   8.684  13.046  -0.113 -0.5484  0.5143 -0.6415
  977MOL0     H31860   8.525  13.181   0.043 -0.8140  1.3571  0.8398
  977MOL0     H31861   8.667  13.362   0.408 -0.1381  0.2754  0.0930
  977MOL0     H31862   8.679  13.499   0.302 -0.0077  0.8927 -0.6722
  977MOL0     H31863   8.515  13.525   0.477  2.7913 -1.2016 -0.2202
  977MOL0     H31864   8.431  13.538   0.322  0.8296 -1.6378 -2.1739
  977MOL0     H31865   8.345  13.378   0.529 -0.6466  0.9161 -0.7984
  977MOL0     H31866   8.436  13.257   0.441 -1.8450 -1.6362 -2.8044
  977MOL0     H31867   8.215  13.432   0.325  0.4395  0.4951 -1.0171
  977MOL0     H31868   8.299  13.315   0.229  1.4649  0.8929  0.9655
  977MOL0     H31869   8.157  13.250   0.486  0.3160 -0.1001 -0.0830
  977MOL0     H31870   8.230  13.130   0.391 -1.7594 -1.5399  1.6493
  977MOL0     H31871   8.082  13.176   0.195 -0.7293  3.4430 -2.0212
  977MOL0     H31872   7.995  13.112   0.342 -0.9558  0.2155 -0.4646
  977MOL0     H31873   8.002  13.389   0.241  2.5140 -2.1268 -0.7340
  977MOL0     H31874   7.930  13.341   0.403  0.0495  0.9212 -0.2072
  977MOL0     H31875   7.831  13.247   0.131  3.5545  2.6515  0.7386
  977MOL0     H31876   7.751  13.374   0.228  2.5380  2.7938 -0.2333
  977MOL0     H31877   8.843  13.372   0.238 -0.4073  1.2441 -0.3826
  977MOL0     H31878   9.006  13.245   0.089  0.2787 -1.2592 -0.6057
  977MOL0     H31879   9.129  12.899  -0.106 -1.8298  1.3106 -1.2234
  977MOL0     H31880   9.297  12.769  -0.214 -0.3246 -1.1350  0.1953
  977MOL0     H31881  10.423  11.533   0.078 -0.8820  1.9349  1.2715
  977MOL0     H31882  10.533  11.446   0.270 -0.5866 -3.1005  0.1801
  977MOL0     H31883  10.585  11.187   0.627  0.2091 -2.0005  1.4381
  977MOL0     H31884  10.754  11.098   0.794  0.5382  1.4363  0.8985
  977MOL0     H31885  11.181  10.965   0.758  0.0658  1.1346  1.2566
  977MOL0     H31886  11.139  10.957   0.581 -0.1089  3.1860 -1.8706
  977MOL0     H31887  11.061  11.204   0.711  0.4858  0.0566 -0.5581
  977MOL0     H31888  11.121  11.176   0.554 -1.8108 -2.3518 -1.2569
  977MOL0     H31889  11.296  11.190   0.806  0.9466 -0.6297 -0.2071
  977MOL0     H31890  11.269  11.311   0.697 -0.4699  0.4800  3.9218
  977MOL0     H31891  11.367  11.156   0.501  2.8552  2.9836 -0.0961
  977MOL0     H31892  11.412  11.041   0.627  0.8536  0.2046 -0.1365
  977MOL0     H31893  11.666  11.384   0.673  0.4821  0.4184 -3.3665
  977MOL0     H31894  10.956  10.929   0.453  1.6815  2.3066  0.9665
  977MOL0     H31895  10.779  11.002   0.300  1.8337  1.0234  0.1997
  978MOL0     O31896   8.563   1.804  10.461  0.2118 -0.1188  0.7396
  978MOL0     C31897   8.595   1.690  10.426  0.7302  0.4622 -0.2035
  978MOL0     O31898   8.558   1.579  10.491 -0.1262  0.2248 -0.3722
  978MOL0     C31899   8.460   1.581  10.589 -0.8289 -0.2293 -0.0787
  978MOL0     C31900   8.481   1.496  10.696  0.0226  0.0820  0.4505
  978MOL0     C31901   8.387   1.465  10.792  0.2596  0.2646 -0.5678
  978MOL0     C31902   8.264   1.525  10.785 -0.0173 -0.5812 -0.4033
  978MOL0     O31903   8.168   1.486  10.878 -0.2686  0.0590 -0.5781
  978MOL0     C31904   8.032   1.496  10.843 -0.1821  0.5519 -0.2676
  978MOL0     C31905   7.959   1.399  10.935  0.4214 -0.3938  0.3973
  978MOL0     C31906   7.816   1.387  10.886  0.6291 -0.4551 -0.3954
  978MOL0     C31907   7.722   1.487  10.972 -0.7708 -0.3828 -0.7965
  978MOL0     C31908   7.573   1.461  10.938 -0.4113  0.4029 -0.0964
  978MOL0     C31909   7.471   1.540  11.022 -0.1036 -0.0025  0.4622
  978MOL0     C31910   7.512   1.684  11.057  0.3531  0.0503  0.1078
  978MOL0     C31911   7.404   1.762  11.127 -0.2959  0.3053 -0.7774
  978MOL0     N31912   7.295   1.797  11.040 -0.6269  0.4151 -0.3308
  978MOL0     C31913   7.159   1.796  11.069  0.5783 -0.4269 -1.0323
  978MOL0     C31914   7.090   1.846  10.965  0.3461 -0.0229 -0.5895
  978MOL0     C31915   6.949   1.871  10.943  0.7163  0.1572 -0.1228
  978MOL0     C31916   6.876   1.743  10.946  0.6223  0.1015  0.1401
  978MOL0     C31917   6.722   1.763  10.925 -0.4913  0.0685 -0.0677
  978MOL0     C31918   6.670   1.876  11.017  0.7901  0.1956 -0.2884
  978MOL0     O31919   6.677   1.853  11.165  0.7808 -0.1529 -0.2691
  978MOL0     C31920   6.569   1.787  11.223 -0.2100  0.0178  0.0287
  978MOL0     C31921   6.561   1.792  11.358 -0.2382  0.8976  0.0066
  978MOL0     C31922   6.455   1.742  11.430  0.3871  0.0035  0.2940
  978MOL0     C31923   6.457   1.766  11.575 -0.0547 -0.4539 -0.5607
  978MOL0     C31924   6.347   1.687  11.352  0.0112 -0.1696 -0.1875
  978MOL0     C31925   6.214   1.636  11.406  0.4281 -0.2151  0.1470
  978MOL0     O31926   6.106   1.635  11.317 -0.3326  0.0863  0.9152
  978MOL0     C31927   5.975   1.617  11.353  0.3758 -0.3557 -0.6895
  978MOL0     C31928   5.925   1.668  11.476 -0.1510  0.3661  0.0161
  978MOL0     C31929   5.791   1.662  11.511 -0.0362  0.0112 -1.0768
  978MOL0     C31930   5.700   1.598  11.433  1.1122  0.3716 -0.4432
  978MOL0     O31931   5.566   1.625  11.461  0.4568  0.1188  0.8754
  978MOL0     C31932   5.471   1.605  11.352  0.1972  0.8202  0.1921
  978MOL0     C31933   5.334   1.676  11.378  0.4392  0.5537 -0.5638
  978MOL0     C31934   5.348   1.823  11.342  0.7466  0.5946 -0.2479
  978MOL0     C31935   5.238   1.906  11.408  0.3085 -0.7994  0.1044
  978MOL0     C31936   5.262   2.057  11.408 -0.1953  0.2610 -0.0158
  978MOL0     C31937   5.244   2.116  11.273  0.0696  0.1365 -0.4329
  978MOL0     C31938   5.262   2.268  11.294  0.5405  0.5541  0.1488
  978MOL0     C31939   5.265   2.351  11.160 -0.1831 -0.1736  0.0223
  978MOL0    Cl31940   5.135   2.299  11.050  0.0409 -0.2418  0.0295
  978MOL0     C31941   5.750   1.547  11.309  0.6110 -0.1334 -0.5318
  978MOL0     C31942   5.880   1.559  11.271 -0.1382  0.0493  0.3845
  978MOL0     O31943   6.203   1.606  11.521 -0.5185 -0.4467 -0.8449
  978MOL0     C31944   6.356   1.677  11.218  0.2621 -0.1145  0.6066
  978MOL0     C31945   6.468   1.723  11.144  0.4762  0.2275  0.1835
  978MOL0     N31946   7.188   1.872  10.873 -0.0700  0.2723  0.4335
  978MOL0     N31947   7.308   1.845  10.915  0.7920  0.4291 -0.0946
  978MOL0     C31948   8.242   1.620  10.687 -0.3180 -0.3497  0.0430
  978MOL0     C31949   8.335   1.645  10.585  0.3686  0.2711 -0.0423
  978MOL0     C31950   8.693   1.675  10.320  0.2680 -0.2716 -0.3427
  978MOL0     C31951   8.740   1.777  10.244  0.2901 -1.0511 -0.4864
  978MOL0     C31952   8.833   1.771  10.151  0.0152 -1.0179 -0.4567
  978MOL0     C31953   8.884   1.648  10.121 -0.0728 -0.1814  0.9460
  978MOL0     O31954   8.995   1.626  10.036 -0.0135 -0.4973  0.2749
  978MOL0     C31955   9.080   1.734  10.009 -0.3947 -0.2735 -0.1566
  978MOL0     C31956   9.207   1.696   9.930 -0.3562  0.3484 -0.1188
  978MOL0     C31957   9.295   1.601  10.000 -0.2789 -0.1152 -0.2343
  978MOL0     C31958   9.372   1.667  10.115  0.3522 -0.3293 -0.3237
  978MOL0     C31959   9.487   1.579  10.138 -0.4772  0.0283 -0.4216
  978MOL0     C31960   9.583   1.507  10.167 -0.2896  0.1918  0.4167
  978MOL0     C31961   8.821   1.532  10.175  0.3833 -0.4713  0.4722
  978MOL0     C31962   8.719   1.543  10.274  0.2370 -0.3283 -0.1228
  978MOL0     H31963   8.580   1.450  10.692  0.3397  0.7034  0.9267
  978MOL0     H31964   8.403   1.397  10.875  0.6246  2.7785  1.5416
  978MOL0     H31965   7.992   1.596  10.862 -0.6048 -0.0579  2.3519
  978MOL0     H31966   8.006   1.472  10.739  0.3571  2.4436 -0.8949
  978MOL0     H31967   8.010   1.303  10.929 -1.0674 -1.2846  1.3647
  978MOL0     H31968   7.960   1.440  11.036 -0.0880  1.4239 -0.2885
  978MOL0     H31969   7.802   1.402  10.779  0.2755  1.0614 -0.1675
  978MOL0     H31970   7.784   1.286  10.915  0.9542 -0.5056 -0.2106
  978MOL0     H31971   7.739   1.476  11.080 -2.7098  0.9903 -0.2813
  978MOL0     H31972   7.740   1.592  10.948 -2.2669  0.4346  1.3335
  978MOL0     H31973   7.561   1.487  10.832 -0.9748 -0.9190 -0.3826
  978MOL0     H31974   7.548   1.354  10.942 -1.1350  0.5455 -0.6299
  978MOL0     H31975   7.380   1.544  10.961 -0.1617 -0.1069  0.5393
  978MOL0     H31976   7.448   1.484  11.113 -2.0813  2.1046  1.3535
  978MOL0     H31977   7.589   1.673  11.135  3.2003 -1.2379 -2.6242
  978MOL0     H31978   7.545   1.750  10.977  0.1639  2.8276  2.1888
  978MOL0     H31979   7.455   1.850  11.168  0.2802 -0.5979  0.5542
  978MOL0     H31980   7.367   1.708  11.215  1.0441  0.9761  0.2529
  978MOL0     H31981   7.112   1.773  11.165  2.8723  2.8959  1.1101
  978MOL0     H31982   6.909   1.922  11.031 -0.9910 -1.3447  0.0259
  978MOL0     H31983   6.924   1.934  10.857 -1.7065  1.9267  1.7292
  978MOL0     H31984   6.892   1.693  11.041  0.4590 -3.7865 -1.6880
  978MOL0     H31985   6.914   1.677  10.868  1.4430  1.3961 -0.5946
  978MOL0     H31986   6.682   1.666  10.957  1.5273 -1.1631 -1.0530
  978MOL0     H31987   6.689   1.769  10.820  0.7800  1.4796 -0.4160
  978MOL0     H31988   6.568   1.897  10.984  1.5110  1.0312 -2.1606
  978MOL0     H31989   6.724   1.970  10.999 -0.5478  0.9990 -0.2247
  978MOL0     H31990   6.627   1.858  11.413  0.5593 -0.5648  0.8888
  978MOL0     H31991   6.359   1.757  11.623 -0.4968  0.5364 -1.2345
  978MOL0     H31992   6.525   1.691  11.615 -0.1558 -0.0271  0.4523
  978MOL0     H31993   6.483   1.871  11.594  0.3121 -0.3861 -1.3941
  978MOL0     H31994   5.992   1.731  11.534  1.5799 -0.7496 -0.6982
  978MOL0     H31995   5.763   1.713  11.603 -0.0108 -0.9578 -0.5164
  978MOL0     H31996   5.507   1.634  11.252  1.4253 -1.3447 -0.0529
  978MOL0     H31997   5.448   1.498  11.350  1.3416  0.5647  0.2736
  978MOL0     H31998   5.251   1.633  11.321  0.5005 -1.0394  0.4898
  978MOL0     H31999   5.308   1.666  11.484  1.3189 -0.0809 -0.4026
  978MOL0     H32000   5.341   1.829  11.233  0.5962 -2.2628 -0.4890
  978MOL0     H32001   5.452   1.852  11.359  1.3251 -1.0631 -0.7627
  978MOL0     H32002   5.144   1.883  11.357 -0.1272 -4.3390  2.2083
  978MOL0     H32003   5.219   1.875  11.511 -0.3424  2.5043  1.1096
  978MOL0     H32004   5.360   2.091  11.442 -0.2117  0.3107 -0.0174
  978MOL0     H32005   5.187   2.097  11.477  1.3552  2.7525  0.3666
  978MOL0     H32006   5.319   2.082  11.200  0.1100 -2.4024  0.6988
  978MOL0     H32007   5.152   2.087  11.221  0.4181 -3.1984  0.5600
  978MOL0     H32008   5.357   2.275  11.348  0.5190 -2.5061  0.7978
  978MOL0     H32009   5.182   2.318  11.350  0.6833  0.2088  0.6640
  978MOL0     H32010   5.361   2.329  11.113 -0.5904 -0.4633 -0.6861
  978MOL0     H32011   5.258   2.460  11.174 -2.3040 -0.1943 -0.4418
  978MOL0     H32012   5.686   1.488  11.243  0.1909  1.1712 -1.3272
  978MOL0     H32013   5.919   1.525  11.176  0.0777  0.8608  0.1743
  978MOL0     H32014   6.268   1.649  11.161 -0.0997 -2.2046  2.0658
  978MOL0     H32015   6.467   1.717  11.035 -4.0516  2.9213 -0.1812
  978MOL0     H32016   8.150   1.678  10.691 -1.4079 -2.0389  0.8610
  978MOL0     H32017   8.323   1.715  10.503 -0.1854  0.3198  0.0757
  978MOL0     H32018   8.704   1.876  10.268  4.0548  0.4968 -0.5231
  978MOL0     H32019   8.879   1.862  10.114  0.3071 -0.7261  0.5897
  978MOL0     H32020   9.029   1.812   9.952  0.9864 -0.7814 -2.1973
  978MOL0     H32021   9.107   1.772  10.108 -2.4781 -1.1119  0.7888
  978MOL0     H32022   9.269   1.781   9.903 -0.2109 -0.3286 -2.0456
  978MOL0     H32023   9.175   1.651   9.836  3.8746 -0.4451 -1.3889
  978MOL0     H32024   9.360   1.549   9.928  0.7360 -0.6346  1.0227
  978MOL0     H32025   9.237   1.521  10.046  1.3280 -2.1610 -1.5488
  978MOL0     H32026   9.317   1.662  10.209  1.8984 -2.5892  0.5398
  978MOL0     H32027   9.399   1.771  10.091 -0.3110 -0.4197 -1.5995
  978MOL0     H32028   9.664   1.441  10.190 -0.7551 -0.8387 -0.7712
  978MOL0     H32029   8.858   1.434  10.149  0.1684 -0.0111 -1.7037
  978MOL0     H32030   8.659   1.457  10.302 -0.9704  0.2865 -0.7727
  979MOL0     O32031   4.143   7.385   0.242 -0.3215  0.3960  0.1309
  979MOL0     C32032   4.181   7.352   0.127 -0.6406 -0.1576 -0.6582
  979MOL0     O32033   4.116   7.280   0.034 -0.6390 -0.7607 -0.9933
  979MOL0     C32034   4.003   7.210   0.052  0.9543  0.4830 -0.1333
  979MOL0     C32035   3.996   7.109   0.149  0.4710 -0.4083  0.1463
  979MOL0     C32036   3.871   7.048   0.178 -0.5067 -0.6912 -0.1928
  979MOL0     C32037   3.758   7.085   0.112 -0.0765  0.0842  0.4359
  979MOL0     O32038   3.647   7.007   0.141  0.5355 -0.0628  0.2834
  979MOL0     C32039   3.523   7.036   0.069  0.0356  0.4658 -0.4562
  979MOL0     C32040   3.410   6.940   0.118 -0.1953 -0.0245  0.0964
  979MOL0     C32041   3.269   6.943   0.045 -0.4730  0.7279  0.3729
  979MOL0     C32042   3.225   7.085   0.030  0.1257 -0.2634  0.3404
  979MOL0     C32043   3.077   7.116   0.027  0.6998  0.2111  0.2299
  979MOL0     C32044   3.010   7.100   0.164 -0.1243  0.1125  0.0177
  979MOL0     C32045   2.855   7.107   0.163  0.7332  0.2275 -0.0523
  979MOL0     C32046   2.789   6.990   0.091 -0.1267  0.0121 -0.1707
  979MOL0     N32047   2.649   6.977   0.135 -0.5358  0.0242  0.9042
  979MOL0     C32048   2.541   7.007   0.057 -0.5276  0.1823  0.2392
  979MOL0     C32049   2.432   6.983   0.133 -0.2717  0.1454 -0.0786
  979MOL0     C32050   2.298   6.989   0.082 -0.4418  0.7463 -0.2857
  979MOL0     C32051   2.211   7.073   0.179  0.7650  0.2307  0.6371
  979MOL0     C32052   2.063   7.092   0.139  0.3262 -0.0303 -0.3257
  979MOL0     C32053   1.978   7.147   0.254 -0.2689  0.0825 -0.2758
  979MOL0     O32054   1.861   7.197   0.189  0.9471 -0.1706 -0.7397
  979MOL0     C32055   1.777   7.277   0.262  0.0499 -0.2366  0.3301
  979MOL0     C32056   1.767   7.299   0.401 -0.0451  0.3285  0.3361
  979MOL0     C32057   1.686   7.406   0.457 -0.2318  0.4876 -0.3207
  979MOL0     C32058   1.695   7.437   0.610  0.6159  0.1806 -0.2713
  979MOL0     C32059   1.605   7.481   0.365 -0.4390 -0.3157  0.8742
  979MOL0     C32060   1.512   7.583   0.405 -0.3828 -0.4570 -0.6975
  979MOL0     O32061   1.503   7.692   0.323 -0.3232  0.0966  0.1983
  979MOL0     C32062   1.434   7.807   0.357  0.8501  0.2364 -0.4772
  979MOL0     C32063   1.436   7.861   0.484 -0.0694  0.3688  0.0301
  979MOL0     C32064   1.360   7.985   0.500 -0.4104 -0.1967  0.1701
  979MOL0     C32065   1.302   8.055   0.397  0.4931  0.0623 -0.0847
  979MOL0     O32066   1.228   8.168   0.398  0.1017  0.0625  0.2936
  979MOL0     C32067   1.180   8.214   0.528 -0.2379 -0.2369  0.0986
  979MOL0     C32068   1.064   8.319   0.511 -0.4890  0.7274 -0.3876
  979MOL0     C32069   1.127   8.457   0.487  0.3993 -0.0087  0.0076
  979MOL0     C32070   1.054   8.577   0.570 -0.5031  0.5688  0.0021
  979MOL0     C32071   0.905   8.580   0.538  0.5411 -0.4060 -0.7332
  979MOL0     C32072   0.836   8.693   0.620  0.9500 -0.0293  0.0155
  979MOL0     C32073   0.683   8.668   0.622 -1.1098  1.1096  0.3912
  979MOL0     C32074   0.627   8.795   0.654  0.3249 -0.6541 -0.1090
  979MOL0    Cl32075   0.448   8.797   0.614 -0.0800  0.5042 -0.1695
  979MOL0     C32076   1.314   7.997   0.270  0.3011 -0.1178  0.0472
  979MOL0     C32077   1.365   7.872   0.252 -0.2107  0.1978  0.4555
  979MOL0     O32078   1.450   7.567   0.512 -0.4366  0.9407  0.7012
  979MOL0     C32079   1.620   7.455   0.231 -0.2954 -0.1574  0.2317
  979MOL0     C32080   1.706   7.363   0.179  0.7580 -0.3992  0.6025
  979MOL0     N32081   2.480   6.931   0.257 -0.4534 -0.5950  0.6014
  979MOL0     N32082   2.608   6.912   0.246 -0.1076  0.4132 -0.2142
  979MOL0     C32083   3.764   7.169  -0.002 -0.1532 -0.1410 -0.0058
  979MOL0     C32084   3.882   7.237  -0.020 -0.1930  0.5025  0.2278
  979MOL0     C32085   4.319   7.400   0.096 -0.4607  0.1979  0.2325
  979MOL0     C32086   4.379   7.355  -0.027 -0.0190  0.8655  0.2584
  979MOL0     C32087   4.510   7.388  -0.060  0.5156 -0.2773  0.8391
  979MOL0     C32088   4.586   7.466   0.026 -0.1641 -0.0298 -0.6038
  979MOL0     O32089   4.718   7.498   0.006  0.0129  0.2720  0.0136
  979MOL0     C32090   4.798   7.418  -0.081 -0.3406 -0.1408  0.0989
  979MOL0     C32091   4.946   7.476  -0.071 -0.3253  0.0880 -0.4236
  979MOL0     C32092   5.012   7.494   0.066  0.8105  0.1836 -0.7694
  979MOL0     C32093   5.151   7.557   0.081  0.1684  0.2944  0.1899
  979MOL0     C32094   5.156   7.685  -0.000 -0.1978  0.5267 -0.1886
  979MOL0     C32095   5.160   7.793  -0.048 -0.2516 -0.2069  0.8770
  979MOL0     C32096   4.527   7.514   0.145 -0.3563  0.7734  0.1325
  979MOL0     C32097   4.400   7.474   0.183  0.8628  0.1896  0.1874
  979MOL0     H32098   4.082   7.076   0.207 -0.9554 -3.4025  0.8040
  979MOL0     H32099   3.854   6.982   0.263 -0.4688  0.2600  0.5824
  979MOL0     H32100   3.482   7.135   0.091  1.2526  0.9524 -0.2579
  979MOL0     H32101   3.529   7.021  -0.039  0.2306 -0.0992 -0.3676
  979MOL0     H32102   3.451   6.839   0.116  1.9651  0.8038 -0.4190
  979MOL0     H32103   3.387   6.952   0.224 -2.0082 -2.2920  0.0370
  979MOL0     H32104   3.276   6.890  -0.050  0.6656 -1.4640  1.6178
  979MOL0     H32105   3.196   6.887   0.104  1.7760 -1.6044  1.0825
  979MOL0     H32106   3.256   7.140   0.120 -1.1587  2.3305 -0.6871
  979MOL0     H32107   3.269   7.124  -0.062  1.1555 -1.8045  0.1456
  979MOL0     H32108   3.064   7.220  -0.003 -1.8082  0.1776  1.0009
  979MOL0     H32109   3.025   7.050  -0.044  0.6665  2.2832 -1.7833
  979MOL0     H32110   3.043   7.005   0.207  0.6404 -0.6849 -2.1866
  979MOL0     H32111   3.025   7.186   0.231 -0.7977 -1.1669  1.8911
  979MOL0     H32112   2.818   7.105   0.266 -0.3820  2.3382 -0.3618
  979MOL0     H32113   2.823   7.201   0.118  0.6331  0.4791  0.5278
  979MOL0     H32114   2.856   6.909   0.123  1.7006  1.7631  0.6908
  979MOL0     H32115   2.794   7.001  -0.017  0.5464 -1.1408 -0.2782
  979MOL0     H32116   2.531   7.044  -0.045  0.1811  2.5347  0.9504
  979MOL0     H32117   2.298   7.010  -0.026  3.8989 -0.9139 -0.8016
  979MOL0     H32118   2.272   6.883   0.088  0.1793  0.6213  0.4085
  979MOL0     H32119   2.255   7.174   0.184 -1.6918  1.5006 -1.0892
  979MOL0     H32120   2.212   7.035   0.281 -3.7291 -0.2248  0.7126
  979MOL0     H32121   2.023   6.993   0.115 -1.5810  0.5506  0.2327
  979MOL0     H32122   2.063   7.155   0.050 -2.5142 -0.2763 -0.6002
  979MOL0     H32123   2.044   7.214   0.308 -0.7362  0.0026  0.4006
  979MOL0     H32124   1.950   7.070   0.326  1.5722 -0.9017 -0.5618
  979MOL0     H32125   1.837   7.247   0.465  1.4019  1.8239  0.0202
  979MOL0     H32126   1.660   7.536   0.640 -1.5504 -0.7969  0.6213
  979MOL0     H32127   1.633   7.363   0.661 -0.6478  1.4206  0.0430
  979MOL0     H32128   1.798   7.416   0.640 -0.7635 -3.4341  2.6885
  979MOL0     H32129   1.485   7.810   0.565  1.1137 -1.0724 -1.5264
  979MOL0     H32130   1.345   8.016   0.602 -3.1077  1.9342 -0.7696
  979MOL0     H32131   1.135   8.127   0.576 -1.0431  0.2210  0.1924
  979MOL0     H32132   1.264   8.263   0.578 -0.1896  1.3262 -1.4187
  979MOL0     H32133   1.022   8.296   0.413  1.8875  1.0061 -1.5564
  979MOL0     H32134   0.988   8.315   0.589  0.3199  1.3109  0.4605
  979MOL0     H32135   1.106   8.472   0.381 -2.0931 -1.6698  0.1905
  979MOL0     H32136   1.235   8.461   0.504  0.5779  3.7992 -1.0267
  979MOL0     H32137   1.085   8.561   0.674 -0.3700  3.8708  0.5971
  979MOL0     H32138   1.101   8.669   0.535  1.0088 -1.0221 -2.3550
  979MOL0     H32139   0.857   8.493   0.583 -0.1423 -1.4728 -3.3568
  979MOL0     H32140   0.883   8.587   0.431 -1.6734 -1.5605 -0.4038
  979MOL0     H32141   0.871   8.676   0.723  0.6764 -0.1269  0.0941
  979MOL0     H32142   0.859   8.796   0.592 -1.1424  0.5642  0.2975
  979MOL0     H32143   0.663   8.585   0.690  0.7462  0.5703  0.3218
  979MOL0     H32144   0.654   8.646   0.519  3.1584 -1.4481 -0.5025
  979MOL0     H32145   0.664   8.880   0.597 -2.4542 -0.1442 -1.3328
  979MOL0     H32146   0.641   8.806   0.762 -1.9763 -2.5891  0.4762
  979MOL0     H32147   1.272   8.055   0.188  0.5930 -0.4080 -0.3118
  979MOL0     H32148   1.385   7.843   0.149  0.3894  0.7151  0.4213
  979MOL0     H32149   1.553   7.504   0.161 -0.1673 -0.5202 -0.1451
  979MOL0     H32150   1.705   7.368   0.071  1.8012  0.8447  0.6256
  979MOL0     H32151   3.682   7.192  -0.069 -0.0531 -1.4255 -0.6058
  979MOL0     H32152   3.887   7.316  -0.094  1.8051 -0.8103 -1.1603
  979MOL0     H32153   4.330   7.290  -0.098  2.1539 -0.3389 -0.2544
  979MOL0     H32154   4.542   7.351  -0.156 -2.7435  0.0733 -0.5094
  979MOL0     H32155   4.793   7.314  -0.046 -1.5606  0.1396  0.8141
  979MOL0     H32156   4.763   7.431  -0.183  1.1362  1.0628 -0.2952
  979MOL0     H32157   4.953   7.565  -0.133 -1.2181  1.4783  1.3801
  979MOL0     H32158   5.009   7.410  -0.131 -1.0063 -0.2721 -0.7558
  979MOL0     H32159   5.012   7.393   0.107  0.2337 -0.0228 -1.2688
  979MOL0     H32160   4.951   7.558   0.131  2.0065  0.9406 -0.3603
  979MOL0     H32161   5.224   7.485   0.044  2.9939  1.4659  2.9897
  979MOL0     H32162   5.183   7.574   0.184  0.2471 -1.3210  0.4625
  979MOL0     H32163   5.152   7.889  -0.094 -1.6983 -0.8094 -0.2172
  979MOL0     H32164   4.579   7.578   0.215  2.4448  0.1016 -1.2102
  979MOL0     H32165   4.372   7.492   0.286 -1.1240 -1.7408  0.0370
  980MOL0     O32166   6.915   7.330   0.310 -1.0078 -0.7403  0.1832
  980MOL0     C32167   6.830   7.392   0.250  0.4143  0.3037  0.0731
  980MOL0     O32168   6.737   7.340   0.162  0.0518 -0.2252  0.1263
  980MOL0     C32169   6.731   7.202   0.156  0.2718 -0.2542  0.5498
  980MOL0     C32170   6.770   7.132   0.044 -0.7108  0.2102 -0.1439
  980MOL0     C32171   6.776   6.991   0.043  0.8968  0.4704  0.4581
  980MOL0     C32172   6.724   6.915   0.147  0.0966 -0.4105 -0.2352
  980MOL0     O32173   6.716   6.782   0.150  0.5210  0.4163 -0.2389
  980MOL0     C32174   6.658   6.709   0.043  0.3413  0.0840 -0.1214
  980MOL0     C32175   6.645   6.560   0.094 -0.5266 -0.2093 -0.1963
  980MOL0     C32176   6.524   6.536   0.180  0.0211 -0.1311 -0.5222
  980MOL0     C32177   6.399   6.514   0.089  0.4369  0.3400 -0.3123
  980MOL0     C32178   6.278   6.513   0.183 -0.0006 -0.2203  0.3906
  980MOL0     C32179   6.226   6.653   0.235 -0.3460  0.6690  0.1786
  980MOL0     C32180   6.101   6.652   0.332  0.2455 -0.1177 -0.1685
  980MOL0     C32181   6.047   6.792   0.355 -0.0669  0.0123 -0.5185
  980MOL0     N32182   5.934   6.782   0.446  0.1873 -0.2483 -0.2462
  980MOL0     C32183   5.915   6.722   0.564  0.5809  0.1407  0.0487
  980MOL0     C32184   5.782   6.734   0.587  1.2059  0.4247  0.9756
  980MOL0     C32185   5.711   6.660   0.702 -0.0182 -0.1085  0.6765
  980MOL0     C32186   5.566   6.699   0.725 -1.2217 -0.3671  0.3303
  980MOL0     C32187   5.468   6.648   0.610  0.2254 -0.2670  0.0274
  980MOL0     C32188   5.335   6.705   0.637  1.1781 -0.4473  0.1173
  980MOL0     O32189   5.244   6.671   0.537  0.4950  0.4922 -0.4108
  980MOL0     C32190   5.113   6.720   0.539 -0.5276  0.6801  0.5054
  980MOL0     C32191   5.026   6.666   0.440  0.5678 -0.0315 -0.3391
  980MOL0     C32192   4.894   6.703   0.425  0.3031 -0.6869 -0.5054
  980MOL0     C32193   4.829   6.618   0.314 -0.4078 -1.0455  0.3575
  980MOL0     C32194   4.840   6.786   0.529  0.3208  0.2464  1.3038
  980MOL0     C32195   4.697   6.824   0.528 -0.2189 -0.1838 -0.1295
  980MOL0     O32196   4.653   6.900   0.634 -0.4911  0.3050  0.2646
  980MOL0     C32197   4.519   6.900   0.664 -0.1899 -0.4441 -0.2287
  980MOL0     C32198   4.432   6.782   0.662 -0.5626 -0.7101 -0.4226
  980MOL0     C32199   4.303   6.773   0.719 -0.4093 -0.1968 -0.8173
  980MOL0     C32200   4.247   6.886   0.775 -0.4873  0.6083  0.4784
  980MOL0     O32201   4.121   6.888   0.833  0.4480  0.2718  0.7785
  980MOL0     C32202   4.047   6.769   0.857 -0.3237 -0.2215  0.0031
  980MOL0     C32203   3.914   6.789   0.919  0.2884  0.2380 -0.6941
  980MOL0     C32204   3.844   6.665   0.965 -0.0526 -0.3505  0.4932
  980MOL0     C32205   3.695   6.678   1.000  0.3391  0.7981  0.1998
  980MOL0     C32206   3.620   6.553   1.018 -0.1533  0.6137 -0.6488
  980MOL0     C32207   3.683   6.454   1.116  0.1045 -0.6372  0.5089
  980MOL0     C32208   3.620   6.311   1.097 -0.0118 -0.8811  0.3520
  980MOL0     C32209   3.501   6.292   1.191 -1.3701  0.2444  0.4654
  980MOL0    Cl32210   3.454   6.116   1.177  0.1343 -0.6386  0.3284
  980MOL0     C32211   4.322   7.010   0.768  0.5050  0.3998 -0.8922
  980MOL0     C32212   4.459   7.019   0.724 -0.2378 -0.0630 -0.5556
  980MOL0     O32213   4.629   6.782   0.434 -0.1337 -0.4073 -1.0610
  980MOL0     C32214   4.929   6.841   0.631 -1.2515 -0.2971  0.3417
  980MOL0     C32215   5.067   6.816   0.630  0.3320 -0.3550  0.5300
  980MOL0     N32216   5.729   6.828   0.495 -0.2996  0.1590 -0.6026
  980MOL0     N32217   5.819   6.846   0.410  0.2944  0.4519  0.3618
  980MOL0     C32218   6.683   6.987   0.259  0.3907 -0.3676 -0.7597
  980MOL0     C32219   6.682   7.130   0.266 -0.0527  1.1365 -0.8705
  980MOL0     C32220   6.812   7.531   0.272  0.1274 -0.2995 -1.0546
  980MOL0     C32221   6.685   7.596   0.257  0.7791  0.1512  0.5515
  980MOL0     C32222   6.672   7.737   0.275 -0.3425  0.1871 -0.5406
  980MOL0     C32223   6.788   7.803   0.316  0.7231 -0.0324  0.9909
  980MOL0     O32224   6.790   7.937   0.338 -0.4039  0.1755  0.1444
  980MOL0     C32225   6.671   8.002   0.371  0.8583 -0.3455 -0.2336
  980MOL0     C32226   6.701   8.151   0.381  0.1318 -0.2236 -0.0255
  980MOL0     C32227   6.577   8.241   0.406 -0.1887  0.1005  0.3728
  980MOL0     C32228   6.514   8.235   0.541  0.7075  0.6247 -1.4857
  980MOL0     C32229   6.395   8.324   0.548  0.1161 -0.1039 -0.0906
  980MOL0     C32230   6.292   8.391   0.563 -0.0169  0.1954  0.2504
  980MOL0     C32231   6.912   7.746   0.317  0.1105  0.7032 -0.0352
  980MOL0     C32232   6.928   7.606   0.296 -0.4489 -0.3266 -0.3304
  980MOL0     H32233   6.806   7.179  -0.046 -0.2082  0.1541  0.0225
  980MOL0     H32234   6.812   6.946  -0.049  0.4977  0.4074  0.3294
  980MOL0     H32235   6.565   6.753   0.006  0.5564  0.9083  0.2916
  980MOL0     H32236   6.722   6.709  -0.046 -1.1928 -3.8771 -1.4227
  980MOL0     H32237   6.647   6.487   0.012  1.4813 -0.6667  0.2026
  980MOL0     H32238   6.728   6.532   0.160 -2.1685 -2.0821  1.2017
  980MOL0     H32239   6.538   6.449   0.244  2.2081 -0.8875 -1.9097
  980MOL0     H32240   6.510   6.621   0.247  1.9000 -1.3348  1.5411
  980MOL0     H32241   6.380   6.593   0.016 -1.0486  0.7098  0.4256
  980MOL0     H32242   6.405   6.425   0.026 -2.2857 -0.4430  0.3721
  980MOL0     H32243   6.191   6.475   0.129 -1.4565  2.4594  0.6825
  980MOL0     H32244   6.293   6.448   0.270 -1.2402  0.1676  0.9200
  980MOL0     H32245   6.308   6.702   0.288 -0.5878  2.1972 -0.7945
  980MOL0     H32246   6.204   6.715   0.147 -0.9633 -1.1001 -0.9695
  980MOL0     H32247   6.029   6.592   0.276  0.5412  0.2636 -0.9857
  980MOL0     H32248   6.121   6.614   0.432 -0.9445  1.0934  0.5608
  980MOL0     H32249   6.023   6.841   0.260 -2.4481  1.1618  0.5663
  980MOL0     H32250   6.125   6.851   0.403  0.9629  0.7482 -2.9295
  980MOL0     H32251   5.980   6.667   0.631  0.0071 -1.5190 -0.6987
  980MOL0     H32252   5.715   6.553   0.682 -0.0586 -0.0302  0.2404
  980MOL0     H32253   5.769   6.680   0.793  0.9910 -0.1733  0.0636
  980MOL0     H32254   5.548   6.805   0.745 -1.7706 -0.6708  1.5169
  980MOL0     H32255   5.526   6.646   0.812 -1.0811  0.4908  0.9235
  980MOL0     H32256   5.473   6.539   0.611 -0.8989 -0.3437  1.5497
  980MOL0     H32257   5.508   6.679   0.513 -0.7125 -1.1754 -0.6765
  980MOL0     H32258   5.340   6.814   0.630  1.5052 -0.5545 -2.1401
  980MOL0     H32259   5.300   6.666   0.733 -2.4616  1.1737 -0.3868
  980MOL0     H32260   5.067   6.586   0.379  0.5471  0.3120 -0.8078
  980MOL0     H32261   4.857   6.664   0.219  2.4794  1.6380  2.3249
  980MOL0     H32262   4.875   6.519   0.323 -2.4355 -2.0529  0.2197
  980MOL0     H32263   4.721   6.607   0.320 -0.7772  1.2761 -0.9560
  980MOL0     H32264   4.488   6.695   0.629  1.6064 -0.9971  3.4348
  980MOL0     H32265   4.247   6.681   0.705 -0.6579  0.4239 -5.3051
  980MOL0     H32266   4.039   6.727   0.757 -0.4626  1.4903 -0.7365
  980MOL0     H32267   4.102   6.703   0.925  0.2566 -1.2113 -1.3975
  980MOL0     H32268   3.934   6.857   1.002  1.0870 -0.3783 -0.3712
  980MOL0     H32269   3.856   6.827   0.834 -2.0402 -1.5563 -0.0139
  980MOL0     H32270   3.902   6.635   1.053  0.3773 -0.7872  0.0641
  980MOL0     H32271   3.866   6.587   0.892 -0.4892 -0.8926  0.9374
  980MOL0     H32272   3.690   6.746   1.085  0.2733  0.3244  0.5813
  980MOL0     H32273   3.634   6.717   0.917 -1.2909 -0.3407  0.8127
  980MOL0     H32274   3.623   6.511   0.917 -2.6845  0.4300 -0.7086
  980MOL0     H32275   3.516   6.566   1.050 -0.7657 -0.8541 -1.9351
  980MOL0     H32276   3.789   6.452   1.092 -0.1689  0.0080 -0.8177
  980MOL0     H32277   3.663   6.500   1.213  0.7871  0.6788  0.0413
  980MOL0     H32278   3.688   6.228   1.114  2.3752  0.3823 -2.2676
  980MOL0     H32279   3.579   6.290   0.998 -1.7374 -1.2661  1.1144
  980MOL0     H32280   3.427   6.362   1.150 -1.5818 -0.2678 -0.0519
  980MOL0     H32281   3.528   6.318   1.294  2.7735 -0.7479 -0.2226
  980MOL0     H32282   4.269   7.100   0.794 -1.3594 -0.9499  0.2103
  980MOL0     H32283   4.512   7.114   0.724  0.8598 -0.5902 -3.1860
  980MOL0     H32284   4.892   6.918   0.698 -0.3762  0.5545 -0.1385
  980MOL0     H32285   5.132   6.857   0.706  1.5511 -1.2662  0.0032
  980MOL0     H32286   6.659   6.940   0.354  1.7414  0.7282  0.1681
  980MOL0     H32287   6.659   7.170   0.364  1.8163 -2.1716  1.1118
  980MOL0     H32288   6.590   7.544   0.249 -0.4949  2.3916  0.1012
  980MOL0     H32289   6.571   7.775   0.263 -0.1968  0.0360 -2.7809
  980MOL0     H32290   6.590   7.990   0.299  1.0736  1.2468 -0.7851
  980MOL0     H32291   6.626   7.962   0.463  0.1596  0.6714 -0.1222
  980MOL0     H32292   6.749   8.171   0.284 -1.3195 -1.3417 -1.0219
  980MOL0     H32293   6.776   8.174   0.457 -0.0853 -3.0062  1.1322
  980MOL0     H32294   6.504   8.222   0.327 -0.7871 -1.8484  1.3483
  980MOL0     H32295   6.615   8.342   0.385 -0.1179  0.0523  0.2715
  980MOL0     H32296   6.588   8.262   0.617 -0.5862  1.8126 -0.5925
  980MOL0     H32297   6.473   8.134   0.552 -0.6059  1.1843 -0.9504
  980MOL0     H32298   6.207   8.454   0.582  0.7555  1.0594  0.9042
  980MOL0     H32299   6.998   7.811   0.335  0.4051  0.4395 -0.4851
  980MOL0     H32300   7.026   7.559   0.304 -0.1731  0.0403 -1.3609
  981MOL0     O32301   8.956   7.550   5.212 -0.1476  0.0015  0.3444
  981MOL0     C32302   9.012   7.444   5.214 -1.6120  0.1203 -0.3317
  981MOL0     O32303   8.973   7.323   5.267  0.2217  0.0514  0.2112
  981MOL0     C32304   8.849   7.296   5.318  0.5586  0.0908 -0.4445
  981MOL0     C32305   8.842   7.185   5.396  0.1265 -0.8535  0.0144
  981MOL0     C32306   8.718   7.133   5.437  0.4243 -0.1974  0.2990
  981MOL0     C32307   8.593   7.199   5.407 -0.6395  0.2531 -0.2195
  981MOL0     O32308   8.469   7.160   5.446  0.1598  0.1809 -1.0349
  981MOL0     C32309   8.448   7.050   5.538 -0.2941  0.1261 -0.7615
  981MOL0     C32310   8.306   7.056   5.599  0.1438  0.2501  0.1993
  981MOL0     C32311   8.204   7.117   5.516  1.1844  0.1327  1.0715
  981MOL0     C32312   8.067   7.124   5.593 -0.1802  0.3257 -0.0550
  981MOL0     C32313   7.946   7.191   5.506 -0.1388  0.0746  0.1289
  981MOL0     C32314   7.814   7.198   5.583  0.1235 -0.0989 -0.1700
  981MOL0     C32315   7.742   7.063   5.585 -0.6029 -0.5332  0.6382
  981MOL0     C32316   7.595   7.077   5.613 -0.1552 -0.0739  0.1250
  981MOL0     N32317   7.514   7.100   5.492 -0.0707 -0.9142 -0.0177
  981MOL0     C32318   7.443   6.991   5.433 -0.8378 -0.0239 -0.4282
  981MOL0     C32319   7.385   7.048   5.326 -0.4347  0.7043  0.6232
  981MOL0     C32320   7.299   6.966   5.230 -0.7832  0.1556 -0.0033
  981MOL0     C32321   7.148   6.978   5.262 -0.5004  0.3364  0.6180
  981MOL0     C32322   7.106   7.122   5.261 -0.5477 -0.1115 -1.0306
  981MOL0     C32323   6.962   7.146   5.288  0.5624  0.1349  0.0785
  981MOL0     O32324   6.901   7.039   5.372  0.3075 -0.5915 -0.1318
  981MOL0     C32325   6.766   7.055   5.405  0.3324 -0.4878 -0.9135
  981MOL0     C32326   6.708   6.939   5.458  0.6254 -0.9614  0.0457
  981MOL0     C32327   6.572   6.926   5.478 -0.0089  0.3374 -0.2010
  981MOL0     C32328   6.521   6.791   5.528  0.4687  0.1718 -0.4848
  981MOL0     C32329   6.488   7.031   5.431  0.9705  0.2816 -0.0890
  981MOL0     C32330   6.344   7.029   5.450 -0.2352 -0.5235  0.4580
  981MOL0     O32331   6.267   7.072   5.351 -0.2326 -0.0971  0.4181
  981MOL0     C32332   6.131   7.042   5.351  0.0806  1.0035 -0.2234
  981MOL0     C32333   6.081   6.914   5.376 -0.4002  0.9945  0.0333
  981MOL0     C32334   5.950   6.890   5.397 -0.3285 -0.3244  0.3294
  981MOL0     C32335   5.849   6.992   5.388 -0.0750  0.3426 -0.0052
  981MOL0     O32336   5.720   6.946   5.387 -0.5278 -0.0460  0.2426
  981MOL0     C32337   5.619   7.030   5.328 -0.3326  0.1192 -0.0832
  981MOL0     C32338   5.479   6.978   5.344 -0.0211 -0.5945  0.1622
  981MOL0     C32339   5.443   6.967   5.498  0.5535 -0.3285 -0.1799
  981MOL0     C32340   5.295   6.965   5.504  0.4237  0.3690 -0.1850
  981MOL0     C32341   5.241   6.913   5.644  0.3053  0.2098  0.1800
  981MOL0     C32342   5.089   6.929   5.638 -0.9699 -0.0348 -0.0301
  981MOL0     C32343   5.032   6.912   5.778 -0.4650 -0.1566 -0.3264
  981MOL0     C32344   4.873   6.912   5.783  0.2442 -0.4710  0.6483
  981MOL0    Cl32345   4.831   6.882   5.953  0.5690 -0.0998 -0.0649
  981MOL0     C32346   5.897   7.118   5.350 -1.0927  0.1984  0.2477
  981MOL0     C32347   6.038   7.148   5.337 -0.3823  0.1670 -0.4579
  981MOL0     O32348   6.296   6.988   5.556 -0.0322 -0.6264  0.7620
  981MOL0     C32349   6.544   7.148   5.388  0.1250  0.9332  0.4755
  981MOL0     C32350   6.683   7.160   5.367  0.3308  0.6762 -0.3975
  981MOL0     N32351   7.429   7.183   5.314 -0.2479 -0.7924 -0.0915
  981MOL0     N32352   7.501   7.208   5.413  0.5500 -0.1046 -0.0415
  981MOL0     C32353   8.603   7.309   5.328  0.5406 -0.3017 -0.1910
  981MOL0     C32354   8.728   7.367   5.288  0.0471 -0.0933  0.3396
  981MOL0     C32355   9.150   7.463   5.185  0.0276  0.5477 -0.6446
  981MOL0     C32356   9.201   7.589   5.131  0.3985 -0.7108  0.3630
  981MOL0     C32357   9.329   7.606   5.093 -0.1257 -0.4441  0.2765
  981MOL0     C32358   9.414   7.500   5.087 -0.2778  0.7259 -0.3018
  981MOL0     O32359   9.545   7.513   5.055 -0.2632  0.1063 -0.1918
  981MOL0     C32360   9.581   7.525   4.914 -0.2487 -0.7648  0.1448
  981MOL0     C32361   9.716   7.465   4.882  0.2678  0.0411 -0.5184
  981MOL0     C32362   9.815   7.493   5.000 -0.5661  0.7373  0.7307
  981MOL0     C32363   9.956   7.445   4.949  0.7816 -0.3575  0.4558
  981MOL0     C32364  10.052   7.440   5.061 -0.0809  0.6458 -0.5007
  981MOL0     C32365  10.133   7.436   5.156  0.2433  0.0473  0.2178
  981MOL0     C32366   9.374   7.375   5.135  0.4500 -0.8092 -0.4046
  981MOL0     C32367   9.243   7.354   5.184 -0.0003 -0.7555  0.7531
  981MOL0     H32368   8.935   7.142   5.433  1.4411  2.9662  1.7302
  981MOL0     H32369   8.709   7.056   5.514 -1.3887  2.4445  2.9675
  981MOL0     H32370   8.459   6.953   5.489  0.2826 -0.9136  1.3052
  981MOL0     H32371   8.520   7.042   5.620 -1.2138  2.5475  0.4036
  981MOL0     H32372   8.266   6.957   5.625 -0.9398  0.6317  0.0017
  981MOL0     H32373   8.315   7.109   5.694 -0.4842 -1.7157  1.4197
  981MOL0     H32374   8.223   7.215   5.472 -1.8733  0.2370 -0.2549
  981MOL0     H32375   8.185   7.054   5.429  2.0157  0.3851  0.7022
  981MOL0     H32376   8.041   7.028   5.638 -2.0629  1.1797  0.7873
  981MOL0     H32377   8.083   7.204   5.666  2.0156 -2.3613  2.6822
  981MOL0     H32378   7.990   7.289   5.487  0.4269 -0.1524  0.2518
  981MOL0     H32379   7.932   7.150   5.406  0.2471  0.0012  0.1005
  981MOL0     H32380   7.823   7.244   5.682  1.8870 -1.8978  0.5865
  981MOL0     H32381   7.743   7.262   5.529  0.4118 -1.5111 -2.3529
  981MOL0     H32382   7.761   7.018   5.487  3.6292 -0.4251  1.2201
  981MOL0     H32383   7.786   6.997   5.659  0.1790  0.5952  1.2082
  981MOL0     H32384   7.574   7.161   5.680 -1.2093  1.3107 -1.8457
  981MOL0     H32385   7.562   6.989   5.669 -0.3005 -1.1700 -1.6131
  981MOL0     H32386   7.444   6.889   5.468  0.1934  0.3535  0.7137
  981MOL0     H32387   7.311   7.000   5.127 -2.0380 -0.0963 -0.2593
  981MOL0     H32388   7.329   6.861   5.231  1.5934  0.7646 -1.3396
  981MOL0     H32389   7.125   6.925   5.356  3.2931 -1.0051  0.9366
  981MOL0     H32390   7.105   6.922   5.179 -0.1263  0.6482  0.2126
  981MOL0     H32391   7.125   7.166   5.163  3.8042  1.4009  0.2780
  981MOL0     H32392   7.160   7.180   5.336 -0.4204  1.5459 -2.3283
  981MOL0     H32393   6.905   7.134   5.196 -0.8077 -0.7805  1.0128
  981MOL0     H32394   6.951   7.248   5.325  2.2098  1.0091 -1.6431
  981MOL0     H32395   6.769   6.850   5.466  2.9438  0.3371 -2.0395
  981MOL0     H32396   6.467   6.742   5.447 -0.5876 -0.2380  0.4329
  981MOL0     H32397   6.601   6.722   5.555 -0.5295 -0.6765  0.3908
  981MOL0     H32398   6.455   6.810   5.614 -1.6106 -1.9344 -1.5042
  981MOL0     H32399   6.146   6.828   5.390 -1.2780  0.1684 -0.8196
  981MOL0     H32400   5.941   6.783   5.412  0.1045 -0.5245 -0.7186
  981MOL0     H32401   5.627   7.130   5.371  0.0879 -0.4409  1.1763
  981MOL0     H32402   5.643   7.048   5.223 -0.4638  4.6569  0.4521
  981MOL0     H32403   5.416   7.053   5.295  1.0038  0.7254  0.7755
  981MOL0     H32404   5.473   6.879   5.298  0.3407  0.0772 -1.3869
  981MOL0     H32405   5.491   7.054   5.542  1.2019  0.4740 -2.3369
  981MOL0     H32406   5.492   6.880   5.543  3.2611  0.1846 -1.8798
  981MOL0     H32407   5.245   7.052   5.460 -0.2354  1.1091  1.8967
  981MOL0     H32408   5.274   6.883   5.435  1.4437  0.4551 -0.5980
  981MOL0     H32409   5.285   6.969   5.726  0.1264  1.1080 -0.3300
  981MOL0     H32410   5.270   6.808   5.658  0.0290 -0.2573 -2.2818
  981MOL0     H32411   5.067   7.031   5.606 -1.4471 -0.3222 -0.6442
  981MOL0     H32412   5.034   6.863   5.570  1.2773  1.4193 -3.5414
  981MOL0     H32413   5.068   6.995   5.840 -1.8346  0.3708 -0.1989
  981MOL0     H32414   5.072   6.819   5.818  0.3483  0.4383  0.2554
  981MOL0     H32415   4.823   6.839   5.719  0.7416 -0.3813  0.1503
  981MOL0     H32416   4.836   7.013   5.762  0.5808 -0.3533  0.6236
  981MOL0     H32417   5.829   7.201   5.333  0.0755  0.8954 -1.2192
  981MOL0     H32418   6.064   7.248   5.306 -1.7262  0.2255 -1.4710
  981MOL0     H32419   6.478   7.232   5.374 -0.9842 -0.3719 -3.3862
  981MOL0     H32420   6.729   7.248   5.323 -2.0156  1.5323 -1.3412
  981MOL0     H32421   8.519   7.356   5.277  1.2660  0.7150 -0.5012
  981MOL0     H32422   8.727   7.459   5.229  2.1312 -0.5808 -0.5252
  981MOL0     H32423   9.137   7.675   5.114 -0.3180 -0.9052  1.9406
  981MOL0     H32424   9.365   7.702   5.056  0.1475 -0.5101  0.3668
  981MOL0     H32425   9.507   7.476   4.849  0.5653  0.7246 -2.0286
  981MOL0     H32426   9.599   7.631   4.893  2.1917 -0.9209  1.1237
  981MOL0     H32427   9.751   7.514   4.790 -0.7024  2.1993  0.1973
  981MOL0     H32428   9.701   7.358   4.865  0.7723 -0.5632  2.3700
  981MOL0     H32429   9.779   7.442   5.090  2.8553  0.9222  2.3949
  981MOL0     H32430   9.815   7.601   5.015 -1.5318  0.9767 -0.8139
  981MOL0     H32431   9.985   7.513   4.868 -1.7050 -0.8288 -0.9474
  981MOL0     H32432   9.940   7.344   4.910 -0.4096  0.0825 -0.2850
  981MOL0     H32433  10.202   7.448   5.237 -0.3970  0.1305  0.7464
  981MOL0     H32434   9.440   7.288   5.128  0.9763 -0.3204 -2.1022
  981MOL0     H32435   9.226   7.248   5.201 -0.8585 -0.7114  0.1766
  982MOL0     O32436   9.660   5.139   7.203  0.3354 -0.1558  0.5296
  982MOL0     C32437   9.581   5.224   7.159 -0.2491 -1.3716 -0.3007
  982MOL0     O32438   9.616   5.335   7.088 -0.1176 -0.0739  0.0819
  982MOL0     C32439   9.746   5.357   7.050  0.2198  0.1833  0.3046
  982MOL0     C32440   9.766   5.412   6.925 -0.3131  1.0555 -0.9183
  982MOL0     C32441   9.901   5.435   6.891 -0.4080 -0.2613 -1.1358
  982MOL0     C32442  10.018   5.410   6.971 -0.2463 -0.7589  1.1718
  982MOL0     O32443  10.141   5.432   6.916 -0.1137  0.3723  0.1072
  982MOL0     C32444  10.259   5.396   6.994 -0.3355  0.0071  0.5039
  982MOL0     C32445  10.385   5.432   6.919  0.8977  0.2575 -0.7610
  982MOL0     C32446  10.513   5.414   7.004  0.4428  0.1975  0.0868
  982MOL0     C32447  10.627   5.490   6.928  1.5527  0.3882 -0.0122
  982MOL0     C32448  10.755   5.507   7.011 -0.3167  0.5419  0.0882
  982MOL0     C32449  10.879   5.525   6.930 -0.2732 -0.1627 -0.1741
  982MOL0     C32450  11.012   5.541   7.003  0.4879 -0.5027  0.0010
  982MOL0     C32451  11.053   5.413   7.066 -1.2348  0.4151  0.3269
  982MOL0     N32452  11.179   5.436   7.144  0.1705  0.3530  0.5310
  982MOL0     C32453  11.190   5.454   7.279  0.6132  0.4472  0.9710
  982MOL0     C32454  11.320   5.439   7.304 -0.0773 -0.1187 -0.3044
  982MOL0     C32455  11.391   5.451   7.432 -0.6339 -0.2411  0.2191
  982MOL0     C32456  11.321   5.389   7.552 -1.1115  0.1892 -0.2144
  982MOL0     C32457  11.330   5.234   7.552  0.2473 -1.2268  0.1861
  982MOL0     C32458  11.205   5.167   7.601  0.6459 -1.0689 -0.1127
  982MOL0     O32459  11.110   5.158   7.494 -0.1221 -0.2989 -0.1114
  982MOL0     C32460  10.992   5.113   7.528 -0.8740 -0.8593  0.8103
  982MOL0     C32461  10.949   4.987   7.497 -0.2338  1.0531  0.7212
  982MOL0     C32462  10.826   4.940   7.532  0.5486  0.0302  0.3733
  982MOL0     C32463  10.792   4.802   7.472 -0.3390 -0.0724 -0.2183
  982MOL0     C32464  10.731   5.022   7.610  0.6593  0.1595  0.0185
  982MOL0     C32465  10.608   4.962   7.676  0.0485 -0.1002 -0.1654
  982MOL0     O32466  10.503   5.053   7.685  0.3338 -1.0101  0.4162
  982MOL0     C32467  10.378   5.007   7.727  0.1951  0.4326  0.3159
  982MOL0     C32468  10.368   4.958   7.857 -0.2281 -0.7464  0.0085
  982MOL0     C32469  10.240   4.910   7.899  0.3320 -0.9901 -0.3202
  982MOL0     C32470  10.125   4.907   7.817  0.5514  0.2886 -1.1009
  982MOL0     O32471  10.005   4.860   7.862  0.7371  0.9026  0.0214
  982MOL0     C32472   9.891   4.952   7.825 -0.5493  0.4467  0.3526
  982MOL0     C32473   9.763   4.924   7.918  0.1251  0.3984 -0.3400
  982MOL0     C32474   9.686   4.789   7.898 -0.1022 -0.2036  0.5288
  982MOL0     C32475   9.579   4.774   8.010 -0.3125  0.6324 -0.3235
  982MOL0     C32476   9.467   4.674   7.976 -0.4578  0.6790  0.4660
  982MOL0     C32477   9.345   4.697   8.070 -0.3686  0.0369 -0.3598
  982MOL0     C32478   9.209   4.686   8.002  0.7819 -0.4319  0.7105
  982MOL0     C32479   9.090   4.724   8.091 -0.0902 -0.2907  0.4293
  982MOL0    Cl32480   9.054   4.619   8.233 -0.3817  0.2962 -0.0856
  982MOL0     C32481  10.149   4.954   7.688 -0.0874  0.0621  0.1291
  982MOL0     C32482  10.275   4.996   7.642  0.2728  0.1616 -0.4332
  982MOL0     O32483  10.603   4.843   7.709  0.6563 -0.1914  0.1997
  982MOL0     C32484  10.777   5.153   7.643  0.7925  0.6663 -1.0574
  982MOL0     C32485  10.907   5.202   7.599  1.3130  0.6098 -0.0181
  982MOL0     N32486  11.382   5.437   7.183 -0.7577 -0.2360 -0.7679
  982MOL0     N32487  11.304   5.441   7.090 -1.2517 -0.4867 -0.0806
  982MOL0     C32488   9.982   5.351   7.089 -0.0376  0.1136 -0.1982
  982MOL0     C32489   9.853   5.332   7.131  0.4549 -0.1385  0.8827
  982MOL0     C32490   9.438   5.203   7.171  0.6077  0.5012  0.5476
  982MOL0     C32491   9.339   5.293   7.124  1.0151  0.3728  0.7012
  982MOL0     C32492   9.195   5.268   7.134 -0.4591  0.0924  0.0346
  982MOL0     C32493   9.152   5.153   7.191  0.0423  0.2585  0.2239
  982MOL0     O32494   9.020   5.115   7.211  0.9405  0.1610 -0.0433
  982MOL0     C32495   8.902   5.188   7.154  0.5365 -0.1046 -0.5767
  982MOL0     C32496   8.852   5.123   7.028 -0.5947  0.8062 -0.3901
  982MOL0     C32497   8.750   5.190   6.946 -0.7741  0.0382  0.2234
  982MOL0     C32498   8.611   5.192   7.007  0.5120  0.6666 -0.5468
  982MOL0     C32499   8.511   5.273   6.934 -0.5030  0.1864 -0.4906
  982MOL0     C32500   8.418   5.326   6.887 -0.0021 -0.4478 -0.6822
  982MOL0     C32501   9.252   5.063   7.242 -0.1513  1.1610 -0.0040
  982MOL0     C32502   9.394   5.087   7.226  0.2898  0.2197 -0.8637
  982MOL0     H32503   9.681   5.448   6.869 -2.5714 -3.7143 -0.9916
  982MOL0     H32504   9.929   5.489   6.801  0.4501  0.4772 -0.4393
  982MOL0     H32505  10.274   5.452   7.087  1.4536  1.0216 -0.3505
  982MOL0     H32506  10.250   5.288   7.012 -0.9374  0.1328  1.0188
  982MOL0     H32507  10.394   5.374   6.827 -1.3091 -3.3377  1.0773
  982MOL0     H32508  10.364   5.536   6.890 -2.5165  0.8846  3.0587
  982MOL0     H32509  10.486   5.473   7.091  2.8392  1.0068  0.3388
  982MOL0     H32510  10.545   5.315   7.036  1.4377  0.2690 -0.6232
  982MOL0     H32511  10.656   5.438   6.836  0.9995  0.1801 -0.0681
  982MOL0     H32512  10.591   5.586   6.890 -2.1371 -1.6139 -2.0922
  982MOL0     H32513  10.740   5.588   7.082  2.2262 -1.0784  2.7100
  982MOL0     H32514  10.767   5.415   7.070  2.5795  2.8339  3.4717
  982MOL0     H32515  10.884   5.438   6.864 -1.3700 -0.2871 -0.1030
  982MOL0     H32516  10.857   5.611   6.866  0.8996 -0.0963 -0.5121
  982MOL0     H32517  11.085   5.569   6.926 -1.4614 -0.8086 -2.0654
  982MOL0     H32518  11.002   5.620   7.077  1.7420  0.2305 -0.5874
  982MOL0     H32519  11.078   5.340   6.989  1.1625  0.3456  1.0698
  982MOL0     H32520  10.979   5.374   7.136 -1.6360  2.0950  0.9037
  982MOL0     H32521  11.109   5.481   7.347 -0.7007  2.6739 -1.3127
  982MOL0     H32522  11.489   5.406   7.413 -1.4838 -2.3254  0.4661
  982MOL0     H32523  11.404   5.559   7.441 -0.7142 -0.0602 -1.4460
  982MOL0     H32524  11.215   5.418   7.551 -1.0086  0.5631 -0.3711
  982MOL0     H32525  11.368   5.423   7.644 -1.0680 -1.2186  0.3022
  982MOL0     H32526  11.409   5.199   7.619 -0.0721 -1.1978  0.5822
  982MOL0     H32527  11.348   5.208   7.447  0.1325  2.3484 -0.8770
  982MOL0     H32528  11.164   5.215   7.690  2.5409 -4.4774  2.8695
  982MOL0     H32529  11.228   5.067   7.639  1.3535 -0.7538  0.3152
  982MOL0     H32530  11.003   4.924   7.427 -3.3835 -1.8895  0.6853
  982MOL0     H32531  10.685   4.780   7.484  0.0423 -1.2760  1.3571
  982MOL0     H32532  10.833   4.805   7.371  2.8051  0.7275  0.9855
  982MOL0     H32533  10.840   4.723   7.530 -0.1113  2.3399  3.2524
  982MOL0     H32534  10.455   4.951   7.922  0.7517 -0.5687 -1.2319
  982MOL0     H32535  10.226   4.877   8.002 -2.8736  1.2822  0.1062
  982MOL0     H32536   9.921   5.053   7.853 -1.2482  0.2643  1.8333
  982MOL0     H32537   9.848   4.939   7.725 -2.4329 -2.2936  1.4086
  982MOL0     H32538   9.788   4.926   8.024 -0.5980 -0.9733 -0.1178
  982MOL0     H32539   9.686   4.999   7.896 -1.4140 -1.0455 -0.0834
  982MOL0     H32540   9.745   4.699   7.918 -0.7541 -0.6665  0.4084
  982MOL0     H32541   9.651   4.784   7.795  1.8747  2.6910 -0.4100
  982MOL0     H32542   9.627   4.740   8.102  1.8246  1.2174 -1.1541
  982MOL0     H32543   9.527   4.867   8.038  0.2393  0.2104  2.3010
  982MOL0     H32544   9.495   4.569   7.987 -3.9764 -0.5311 -0.7089
  982MOL0     H32545   9.445   4.689   7.870 -0.7305 -1.6510  0.1348
  982MOL0     H32546   9.364   4.622   8.148  2.2842  0.7744 -0.1927
  982MOL0     H32547   9.351   4.794   8.121  0.4201  0.5253 -1.3660
  982MOL0     H32548   9.194   4.590   7.952 -0.6612  0.3525 -0.4556
  982MOL0     H32549   9.203   4.754   7.916  0.3800 -1.2284  0.0995
  982MOL0     H32550   8.999   4.730   8.030  0.9583  2.1711 -1.0216
  982MOL0     H32551   9.106   4.820   8.140 -2.3558 -0.3740  1.4382
  982MOL0     H32552  10.060   4.955   7.626 -1.9506 -1.4410  2.5615
  982MOL0     H32553  10.287   5.027   7.539 -0.1811 -0.5212 -0.6979
  982MOL0     H32554  10.709   5.216   7.699 -1.4110 -1.8981 -0.6389
  982MOL0     H32555  10.935   5.301   7.632  1.3038  0.8444 -0.6959
  982MOL0     H32556  10.059   5.319   7.157  0.3334  1.8599  0.2494
  982MOL0     H32557   9.838   5.305   7.235  2.5136  0.8618  1.5041
  982MOL0     H32558   9.364   5.390   7.082  1.1480  0.5480  1.1758
  982MOL0     H32559   9.124   5.346   7.108 -2.2221 -1.7808 -1.0423
  982MOL0     H32560   8.817   5.186   7.222  0.0812 -2.5813 -1.1443
  982MOL0     H32561   8.922   5.295   7.138 -1.9891  0.2061 -2.0607
  982MOL0     H32562   8.815   5.022   7.048  1.3755  0.4615  1.9421
  982MOL0     H32563   8.939   5.115   6.963  1.4164  1.1980  2.1070
  982MOL0     H32564   8.741   5.141   6.849 -3.4970  3.1374 -1.3015
  982MOL0     H32565   8.776   5.295   6.933 -3.3927  0.6368 -0.8875
  982MOL0     H32566   8.622   5.243   7.103  2.8847  0.4064 -0.6211
  982MOL0     H32567   8.569   5.092   7.022  0.1031  0.6541 -1.7010
  982MOL0     H32568   8.327   5.372   6.854 -1.6502 -0.9872  2.6698
  982MOL0     H32569   9.223   4.974   7.297  2.3312 -0.2227 -0.8115
  982MOL0     H32570   9.456   5.010   7.270 -1.1374  1.0948  3.0850
  983MOL0     O32571   1.666   7.571   2.874  0.7522  0.0547 -0.3546
  983MOL0     C32572   1.725   7.559   2.768  0.1005 -0.2349  0.1330
  983MOL0     O32573   1.686   7.476   2.662 -0.4373 -0.4536  0.0150
  983MOL0     C32574   1.558   7.432   2.676 -0.2559  0.1156  0.3479
  983MOL0     C32575   1.528   7.311   2.752  0.1559  0.3801  0.4678
  983MOL0     C32576   1.403   7.249   2.752 -0.0705 -0.2132 -0.2000
  983MOL0     C32577   1.304   7.296   2.666  0.5096  0.9532  0.4489
  983MOL0     O32578   1.177   7.238   2.658  0.3091 -0.6105 -0.0011
  983MOL0     C32579   1.079   7.270   2.550 -0.3695 -0.0755 -1.1126
  983MOL0     C32580   0.953   7.183   2.573 -0.3540 -0.3585 -0.1473
  983MOL0     C32581   0.888   7.211   2.703 -0.5122  0.1011  0.5239
  983MOL0     C32582   0.752   7.140   2.724 -0.5550  0.9738 -0.1402
  983MOL0     C32583   0.761   6.994   2.771  0.2164  1.0273 -0.6586
  983MOL0     C32584   0.632   6.935   2.817  0.1170 -0.5987  0.6196
  983MOL0     C32585   0.655   6.793   2.864  0.2211  0.1264 -0.0249
  983MOL0     C32586   0.552   6.701   2.825 -0.0189  0.0037  0.3612
  983MOL0     N32587   0.440   6.717   2.924 -0.2237  0.0539  0.4160
  983MOL0     C32588   0.446   6.667   3.051 -0.1436  0.2226 -0.2443
  983MOL0     C32589   0.320   6.696   3.103 -0.2790  0.3350  0.0075
  983MOL0     C32590   0.284   6.661   3.253  0.1321 -0.9280  0.3934
  983MOL0     C32591   0.132   6.686   3.277  0.0344  0.2367  0.6773
  983MOL0     C32592   0.120   6.658   3.424  0.3380 -0.2980  0.2391
  983MOL0     C32593  -0.023   6.665   3.484 -0.6182  0.9271  0.0184
  983MOL0     O32594  -0.102   6.563   3.410  0.0516 -0.0678 -0.2839
  983MOL0     C32595  -0.241   6.554   3.428 -0.1610 -0.8032 -0.8930
  983MOL0     C32596  -0.305   6.609   3.541 -0.0238  0.3098  1.0030
  983MOL0     C32597  -0.445   6.592   3.552  0.6941  0.7239 -0.1980
  983MOL0     C32598  -0.511   6.656   3.676  0.1839  0.2584  0.3275
  983MOL0     C32599  -0.522   6.524   3.448 -0.8745 -0.6349  0.1817
  983MOL0     C32600  -0.677   6.501   3.454 -0.4674 -0.2672  0.0599
  983MOL0     O32601  -0.731   6.428   3.353  0.0079  0.1629  0.9266
  983MOL0     C32602  -0.855   6.368   3.359 -0.0062  0.3238  0.0581
  983MOL0     C32603  -0.976   6.436   3.330  0.6455  0.6680 -0.1041
  983MOL0     C32604  -1.095   6.361   3.310 -1.0540 -0.5488  1.1263
  983MOL0     C32605  -1.105   6.220   3.324  0.2333  0.1110  0.4869
  983MOL0     O32606  -1.223   6.157   3.296  0.5583 -0.1248 -0.2197
  983MOL0     C32607  -1.285   6.092   3.402 -1.4103 -0.0826 -0.0106
  983MOL0     C32608  -1.392   5.992   3.346  0.1833 -0.9767 -0.5409
  983MOL0     C32609  -1.517   6.077   3.302  0.3960  0.1322  0.0813
  983MOL0     C32610  -1.625   6.070   3.413  0.4501 -0.7608 -0.4409
  983MOL0     C32611  -1.679   6.216   3.436  1.0994  0.1720 -0.2278
  983MOL0     C32612  -1.808   6.217   3.529  0.0519  0.2441  0.3657
  983MOL0     C32613  -1.931   6.145   3.470 -0.3609  0.0987  0.0772
  983MOL0     C32614  -2.057   6.170   3.552  0.2281 -0.9279  0.0924
  983MOL0    Cl32615  -2.107   6.334   3.526  0.0732 -0.2410  0.2113
  983MOL0     C32616  -0.983   6.153   3.351 -0.1232 -0.1588 -0.1729
  983MOL0     C32617  -0.867   6.222   3.382 -0.3321  0.0146 -0.2991
  983MOL0     O32618  -0.740   6.530   3.559  0.5372 -0.1184 -0.2281
  983MOL0     C32619  -0.448   6.471   3.339  0.5669  0.2442  0.9022
  983MOL0     C32620  -0.309   6.486   3.332  0.6566 -0.2664  0.0922
  983MOL0     N32621   0.248   6.765   3.006 -0.1611 -0.5793 -0.0292
  983MOL0     N32622   0.323   6.786   2.904  0.0674 -0.1906 -0.6109
  983MOL0     C32623   1.335   7.417   2.588 -0.2513  0.4178 -0.4587
  983MOL0     C32624   1.457   7.490   2.595  0.7308  0.3867  0.0526
  983MOL0     C32625   1.847   7.639   2.747 -0.2697 -0.5724  0.0414
  983MOL0     C32626   1.896   7.663   2.619  0.3688  0.0865 -0.8513
  983MOL0     C32627   2.012   7.739   2.599  0.0664 -0.1365 -0.2492
  983MOL0     C32628   2.093   7.769   2.710  0.4002  0.0338 -0.4525
  983MOL0     O32629   2.208   7.835   2.683 -0.1380  1.0480  0.2085
  983MOL0     C32630   2.309   7.835   2.788  0.2070 -0.5417  0.4758
  983MOL0     C32631   2.445   7.844   2.742  0.4876 -0.6511 -0.8777
  983MOL0     C32632   2.538   7.822   2.864 -0.1026 -0.3163  0.6737
  983MOL0     C32633   2.663   7.909   2.835  0.0457 -0.6436  0.1701
  983MOL0     C32634   2.733   7.877   2.713  0.1722 -0.4258  0.8314
  983MOL0     C32635   2.795   7.854   2.608  0.0150  0.4568  0.2304
  983MOL0     C32636   2.040   7.754   2.836  0.0871 -1.1054 -0.5364
  983MOL0     C32637   1.920   7.690   2.856 -1.0281  0.2775  0.3282
  983MOL0     H32638   1.599   7.271   2.824 -2.1365 -1.3500  1.9262
  983MOL0     H32639   1.372   7.167   2.816 -0.7010  0.6816  0.6710
  983MOL0     H32640   1.045   7.374   2.548 -1.3041 -0.2199  1.9380
  983MOL0     H32641   1.125   7.246   2.454  1.9146  0.3405 -0.1834
  983MOL0     H32642   0.884   7.199   2.490 -2.2983 -0.5232  1.3612
  983MOL0     H32643   0.982   7.078   2.573  2.4024  0.2760  1.5912
  983MOL0     H32644   0.959   7.180   2.780  0.4269  2.0068  0.4876
  983MOL0     H32645   0.879   7.320   2.708 -2.7681  0.4864 -4.7840
  983MOL0     H32646   0.689   7.192   2.796 -3.0264  0.6542 -1.9591
  983MOL0     H32647   0.703   7.145   2.627 -2.3532  0.6756  0.7204
  983MOL0     H32648   0.797   6.929   2.690 -0.0135 -0.7077  0.5881
  983MOL0     H32649   0.833   6.996   2.853 -0.1302  0.1071 -0.3248
  983MOL0     H32650   0.594   6.991   2.904  3.4389 -1.4605  2.8298
  983MOL0     H32651   0.563   6.944   2.733  2.7794  4.8960 -1.4754
  983MOL0     H32652   0.740   6.758   2.806  0.4240 -0.0831  0.3947
  983MOL0     H32653   0.684   6.784   2.969 -0.3989  1.4148  0.2809
  983MOL0     H32654   0.583   6.597   2.836 -2.2014 -0.6094  1.1038
  983MOL0     H32655   0.513   6.717   2.724 -2.6217 -1.4108  1.0734
  983MOL0     H32656   0.532   6.631   3.106  0.6191  1.4943 -0.5508
  983MOL0     H32657   0.309   6.557   3.278  0.8361 -0.8366  0.1021
  983MOL0     H32658   0.347   6.727   3.312  0.0147 -1.0081  0.6080
  983MOL0     H32659   0.067   6.626   3.213  0.9833  3.3387 -3.6452
  983MOL0     H32660   0.112   6.793   3.265  0.9329  0.4032  0.5781
  983MOL0     H32661   0.173   6.733   3.483 -3.9624  2.3400  1.1538
  983MOL0     H32662   0.165   6.561   3.446  1.2222 -0.2420 -1.2316
  983MOL0     H32663  -0.054   6.766   3.455  0.6246  0.8316 -1.8462
  983MOL0     H32664  -0.043   6.638   3.588  0.0314  0.1401 -0.0504
  983MOL0     H32665  -0.252   6.660   3.620  3.4039 -0.6378 -0.4624
  983MOL0     H32666  -0.451   6.733   3.725 -0.2071 -0.1938  1.5394
  983MOL0     H32667  -0.601   6.705   3.636 -1.5293 -2.0897  1.0862
  983MOL0     H32668  -0.539   6.598   3.764  2.4821 -1.1432  0.2179
  983MOL0     H32669  -0.984   6.543   3.312 -4.9991  1.0079  2.3826
  983MOL0     H32670  -1.183   6.417   3.279 -2.2773 -3.4282 -1.0668
  983MOL0     H32671  -1.211   6.036   3.460  0.2954  2.3302  0.3071
  983MOL0     H32672  -1.324   6.176   3.462  2.7051  1.2719  1.0981
  983MOL0     H32673  -1.356   5.931   3.263  1.1065 -3.4068  1.5252
  983MOL0     H32674  -1.418   5.916   3.421 -1.4388 -1.3895 -1.4829
  983MOL0     H32675  -1.569   6.025   3.221 -0.0261 -0.2603  0.5958
  983MOL0     H32676  -1.490   6.173   3.256 -0.8503  0.5691  0.2229
  983MOL0     H32677  -1.701   6.001   3.376  1.2904 -1.6478 -0.5443
  983MOL0     H32678  -1.590   6.036   3.511 -1.0106  0.5797  0.5923
  983MOL0     H32679  -1.715   6.257   3.341 -0.6945  1.8217  1.0881
  983MOL0     H32680  -1.599   6.273   3.482  0.9384  0.4371 -0.2744
  983MOL0     H32681  -1.778   6.163   3.620  1.8927 -2.8877 -1.8898
  983MOL0     H32682  -1.840   6.320   3.547  0.7450  1.0055 -2.3179
  983MOL0     H32683  -1.927   6.038   3.451 -0.9402 -0.0846  0.9153
  983MOL0     H32684  -1.949   6.177   3.367  1.2541 -2.2221 -1.0091
  983MOL0     H32685  -2.043   6.141   3.657  1.3250  0.2990  0.3199
  983MOL0     H32686  -2.133   6.106   3.507  0.7119 -1.3086 -0.1807
  983MOL0     H32687  -0.979   6.046   3.338 -1.1536 -0.1517 -0.6311
  983MOL0     H32688  -0.775   6.169   3.399  0.3670  0.5002 -2.2808
  983MOL0     H32689  -0.503   6.412   3.267  1.7578  0.0197  0.1394
  983MOL0     H32690  -0.260   6.438   3.248 -1.0595  1.2350 -1.8882
  983MOL0     H32691   1.259   7.467   2.529  0.1117  2.8705  0.9709
  983MOL0     H32692   1.479   7.580   2.539  1.7269 -1.2078 -2.2610
  983MOL0     H32693   1.829   7.642   2.536 -1.8218  3.9251 -0.2642
  983MOL0     H32694   2.052   7.764   2.501  0.8562  0.0536  0.1147
  983MOL0     H32695   2.283   7.910   2.863  3.0990 -1.2935  2.4102
  983MOL0     H32696   2.303   7.740   2.844 -0.4886 -1.1349 -0.5734
  983MOL0     H32697   2.466   7.941   2.695 -1.0576  0.0485 -0.1703
  983MOL0     H32698   2.461   7.771   2.662  2.4076 -0.7034 -0.4929
  983MOL0     H32699   2.554   7.714   2.860 -0.5893 -0.3833  0.4554
  983MOL0     H32700   2.488   7.852   2.957  1.4864  1.6516  0.9512
  983MOL0     H32701   2.731   7.898   2.920  0.2335  2.4894  0.5415
  983MOL0     H32702   2.626   8.012   2.839  1.0742 -0.1828 -1.4398
  983MOL0     H32703   2.856   7.837   2.522 -0.8371  0.4714 -0.3957
  983MOL0     H32704   2.082   7.792   2.929 -0.9492 -0.1936 -0.4176
  983MOL0     H32705   1.898   7.673   2.961 -0.2992 -2.2882  0.1462
  984MOL0     O32706   1.549   4.696   3.392  0.2585  0.3239 -0.2422
  984MOL0     C32707   1.578   4.752   3.498  0.7921 -0.8482 -0.6919
  984MOL0     O32708   1.492   4.797   3.597 -0.1373  0.6002  0.2593
  984MOL0     C32709   1.353   4.775   3.597 -1.3201 -0.9366 -0.9582
  984MOL0     C32710   1.271   4.764   3.485 -0.4084  0.4793  0.8436
  984MOL0     C32711   1.129   4.741   3.489 -0.0820  0.7579 -0.7739
  984MOL0     C32712   1.063   4.723   3.612 -0.3619 -0.9469  0.1524
  984MOL0     O32713   0.927   4.694   3.639  0.1327  0.4372 -0.2126
  984MOL0     C32714   0.841   4.669   3.526  0.1403  0.0522  1.0470
  984MOL0     C32715   0.693   4.687   3.559  0.2808 -0.5513 -0.2022
  984MOL0     C32716   0.651   4.560   3.629  0.3733  1.0467 -0.4273
  984MOL0     C32717   0.504   4.564   3.671  0.0580  0.2450 -0.4196
  984MOL0     C32718   0.419   4.523   3.542  0.6631 -0.4667 -0.0880
  984MOL0     C32719   0.271   4.522   3.556  0.2073 -0.3297 -0.2302
  984MOL0     C32720   0.214   4.429   3.668  0.4325 -0.8769  0.9727
  984MOL0     C32721   0.067   4.449   3.708  0.4102 -0.0116 -0.0675
  984MOL0     N32722  -0.020   4.457   3.592  0.2703 -0.1032 -0.0719
  984MOL0     C32723  -0.058   4.342   3.524 -0.1986 -0.1320  0.1219
  984MOL0     C32724  -0.156   4.381   3.445 -0.2390  0.5253 -0.4016
  984MOL0     C32725  -0.217   4.286   3.345  0.6228  0.4908 -0.5422
  984MOL0     C32726  -0.303   4.177   3.412 -0.8221  0.1201  0.1045
  984MOL0     C32727  -0.333   4.069   3.310  0.0221  0.3648 -0.5032
  984MOL0     C32728  -0.405   3.936   3.363  0.3990 -0.3865  0.6393
  984MOL0     O32729  -0.541   3.957   3.408  0.4877  0.1618  0.4081
  984MOL0     C32730  -0.640   3.919   3.315 -0.6403 -0.6335 -0.7457
  984MOL0     C32731  -0.647   3.792   3.265  0.1468  0.0076  0.3872
  984MOL0     C32732  -0.759   3.760   3.187 -0.7051  0.7060  1.0023
  984MOL0     C32733  -0.777   3.610   3.154 -0.4150 -1.1334 -0.4021
  984MOL0     C32734  -0.869   3.859   3.159 -1.1378  0.0254 -0.7572
  984MOL0     C32735  -0.983   3.827   3.081 -0.0520 -0.0169  0.8067
  984MOL0     O32736  -1.098   3.906   3.102  0.4771  0.0497  0.2178
  984MOL0     C32737  -1.210   3.871   3.032 -0.4211  0.1523 -0.1284
  984MOL0     C32738  -1.321   3.803   3.096 -0.2200  0.7143  0.1608
  984MOL0     C32739  -1.436   3.778   3.019  0.5727  0.2882  0.1477
  984MOL0     C32740  -1.437   3.793   2.881  0.2263  0.0901  0.6268
  984MOL0     O32741  -1.550   3.751   2.815 -0.0240  0.1273 -0.2366
  984MOL0     C32742  -1.662   3.837   2.822 -0.8589 -0.3121  0.6922
  984MOL0     C32743  -1.775   3.770   2.752  0.0465 -0.0151 -0.2317
  984MOL0     C32744  -1.791   3.798   2.600  0.1674 -0.0003  0.3250
  984MOL0     C32745  -1.924   3.736   2.543  0.2970  0.6507 -0.2488
  984MOL0     C32746  -1.938   3.758   2.394 -0.0402 -0.8289  0.3866
  984MOL0     C32747  -2.058   3.684   2.327 -0.2354  0.5218  0.9079
  984MOL0     C32748  -2.051   3.705   2.174  0.3383  0.2026 -0.0619
  984MOL0     C32749  -2.135   3.595   2.103 -0.0391 -1.0795 -0.1491
  984MOL0    Cl32750  -2.299   3.615   2.146  0.1577  0.1764 -0.1075
  984MOL0     C32751  -1.316   3.840   2.820  0.3969  0.2071  0.0735
  984MOL0     C32752  -1.215   3.884   2.894 -0.4597  0.1489 -0.1814
  984MOL0     O32753  -0.972   3.724   3.009  0.6306 -0.9968  0.3752
  984MOL0     C32754  -0.855   3.990   3.221 -0.0389  0.6943 -0.3321
  984MOL0     C32755  -0.743   4.018   3.297 -0.0517 -0.1153  0.1484
  984MOL0     N32756  -0.179   4.516   3.461 -0.2169 -0.7583 -0.4629
  984MOL0     N32757  -0.095   4.563   3.550 -0.2146  0.8176 -0.0781
  984MOL0     C32758   1.146   4.746   3.726 -0.4593  0.5561  0.5058
  984MOL0     C32759   1.280   4.780   3.717  0.0863 -0.5412 -0.6713
  984MOL0     C32760   1.715   4.789   3.511 -0.0210 -0.0142 -0.9434
  984MOL0     C32761   1.759   4.856   3.634 -0.2430  0.2024  0.5847
  984MOL0     C32762   1.888   4.908   3.637 -0.1445  0.7410 -0.2732
  984MOL0     C32763   1.984   4.888   3.532  0.7676 -0.0638 -0.1519
  984MOL0     O32764   2.103   4.960   3.524  0.4011 -0.4715  0.0301
  984MOL0     C32765   2.172   5.012   3.639 -0.7913 -0.6431 -0.6022
  984MOL0     C32766   2.221   4.900   3.727 -0.2487  0.1344 -0.7308
  984MOL0     C32767   2.324   4.800   3.656 -0.1671 -0.4226  0.5776
  984MOL0     C32768   2.466   4.872   3.647  0.3008 -0.0415  0.0991
  984MOL0     C32769   2.574   4.772   3.667 -0.4185  0.0635  1.0728
  984MOL0     C32770   2.661   4.689   3.673 -0.5053 -0.0291  0.2442
  984MOL0     C32771   1.939   4.822   3.417 -0.3106  0.0191  0.1513
  984MOL0     C32772   1.810   4.765   3.409  0.9381 -0.8478  0.3112
  984MOL0     H32773   1.299   4.796   3.385 -1.7140  3.7252  1.3659
  984MOL0     H32774   1.072   4.745   3.397  1.9794 -0.7717 -2.2283
  984MOL0     H32775   0.863   4.750   3.456  1.5849 -0.5232  0.7799
  984MOL0     H32776   0.874   4.577   3.476  0.5139 -0.7692  2.7249
  984MOL0     H32777   0.681   4.774   3.624  0.8749  0.0221 -0.8409
  984MOL0     H32778   0.623   4.694   3.475 -1.2992 -1.0876  1.0154
  984MOL0     H32779   0.668   4.472   3.565 -2.0600  1.5824 -1.9726
  984MOL0     H32780   0.701   4.538   3.724 -3.1643 -3.4704  0.7481
  984MOL0     H32781   0.492   4.494   3.754 -1.1812  0.3802 -0.4613
  984MOL0     H32782   0.468   4.662   3.702 -2.8428  0.4182 -3.6560
  984MOL0     H32783   0.449   4.582   3.455 -0.9188 -1.6409 -1.5080
  984MOL0     H32784   0.440   4.418   3.521  1.6262 -0.4182  0.5900
  984MOL0     H32785   0.237   4.626   3.552 -0.2603 -0.4053  1.4112
  984MOL0     H32786   0.244   4.488   3.455  1.7745  1.5102 -1.3656
  984MOL0     H32787   0.231   4.326   3.635  1.2618 -0.9030  1.4470
  984MOL0     H32788   0.271   4.437   3.761  0.4889 -0.4640  0.9055
  984MOL0     H32789   0.056   4.539   3.770 -1.3170 -0.4655  0.3479
  984MOL0     H32790   0.034   4.367   3.773 -1.9905 -0.3047 -1.5390
  984MOL0     H32791  -0.014   4.243   3.523 -2.1944 -1.2484 -4.7774
  984MOL0     H32792  -0.279   4.343   3.275 -0.4559 -0.6372 -0.5512
  984MOL0     H32793  -0.139   4.241   3.283  0.3215 -0.7428 -0.0660
  984MOL0     H32794  -0.394   4.216   3.458 -2.1048 -0.9908 -1.4007
  984MOL0     H32795  -0.240   4.121   3.482 -1.3941 -3.0858 -1.7514
  984MOL0     H32796  -0.237   4.034   3.271  1.7013  1.5911  2.2317
  984MOL0     H32797  -0.393   4.107   3.227 -1.5420  0.4552  0.6146
  984MOL0     H32798  -0.352   3.910   3.455 -0.5700 -0.8202  1.0856
  984MOL0     H32799  -0.395   3.863   3.283  1.5527  0.0722  0.3488
  984MOL0     H32800  -0.579   3.712   3.294 -2.3512 -2.3882  0.0640
  984MOL0     H32801  -0.757   3.598   3.048 -1.3875 -0.6646 -0.6498
  984MOL0     H32802  -0.695   3.560   3.205  0.7832 -0.1406 -1.3135
  984MOL0     H32803  -0.874   3.573   3.188 -0.2895  0.7673  2.3875
  984MOL0     H32804  -1.326   3.775   3.200  0.0240  1.0065  0.2525
  984MOL0     H32805  -1.519   3.722   3.060  1.6087 -0.9913  0.5937
  984MOL0     H32806  -1.680   3.845   2.930  1.9684 -1.2546  1.3216
  984MOL0     H32807  -1.640   3.934   2.775 -1.2784 -0.1654  0.7952
  984MOL0     H32808  -1.763   3.662   2.761  1.0096  0.1709  0.8554
  984MOL0     H32809  -1.869   3.800   2.799  0.3848 -0.8121  0.9945
  984MOL0     H32810  -1.703   3.752   2.552 -0.7094 -0.7273 -0.6201
  984MOL0     H32811  -1.785   3.904   2.577  0.9947  0.2608  1.6279
  984MOL0     H32812  -1.923   3.629   2.566 -2.7808  0.5487 -0.1627
  984MOL0     H32813  -2.009   3.780   2.595  0.7950  0.2444  0.9573
  984MOL0     H32814  -1.850   3.719   2.343 -0.6623 -0.5510 -0.9335
  984MOL0     H32815  -1.945   3.867   2.387  3.3988 -0.4184  1.5767
  984MOL0     H32816  -2.055   3.577   2.345  0.4574  0.4292  0.3240
  984MOL0     H32817  -2.153   3.727   2.359 -0.0041  2.5886 -0.9189
  984MOL0     H32818  -1.947   3.687   2.149  0.5578  2.0946 -0.7140
  984MOL0     H32819  -2.083   3.807   2.150 -2.3534 -1.2190 -3.4932
  984MOL0     H32820  -2.100   3.493   2.125  0.5207 -1.0376 -0.8082
  984MOL0     H32821  -2.133   3.606   1.994 -2.1947  0.4206 -0.0739
  984MOL0     H32822  -1.320   3.849   2.712 -0.8103  3.4246  0.2802
  984MOL0     H32823  -1.134   3.937   2.843 -1.0503  0.9707 -0.2879
  984MOL0     H32824  -0.930   4.069   3.214 -0.9672  0.2715  3.1739
  984MOL0     H32825  -0.730   4.113   3.349  0.4830 -1.2357  2.1766
  984MOL0     H32826   1.101   4.740   3.824  2.3971 -2.7776  1.8140
  984MOL0     H32827   1.341   4.797   3.805  0.4281  2.5535 -1.3672
  984MOL0     H32828   1.690   4.881   3.714  0.2931  0.5636  0.9430
  984MOL0     H32829   1.910   4.978   3.718 -1.9646  0.8218  0.1926
  984MOL0     H32830   2.268   5.055   3.608 -1.1682  0.1744 -0.6624
  984MOL0     H32831   2.106   5.075   3.700  0.8904  1.1569 -0.5612
  984MOL0     H32832   2.130   4.841   3.737 -0.7287  0.8220 -0.9696
  984MOL0     H32833   2.254   4.924   3.828  1.8410 -0.9344 -1.0943
  984MOL0     H32834   2.287   4.786   3.554 -3.8385  0.2646  1.6902
  984MOL0     H32835   2.341   4.710   3.715  0.0721 -0.2492  0.7781
  984MOL0     H32836   2.479   4.944   3.728 -0.1316 -0.7022  0.7614
  984MOL0     H32837   2.476   4.920   3.549 -1.5628 -0.6120 -0.4220
  984MOL0     H32838   2.736   4.612   3.672 -0.9769 -0.4801 -0.4784
  984MOL0     H32839   2.007   4.827   3.332  0.6809  2.0054  1.0010
  984MOL0     H32840   1.771   4.723   3.317 -2.3898 -1.9910  2.0828
  985MOL0     O32841   0.232   2.247   5.700 -0.6850 -0.4477  0.3644
  985MOL0     C32842   0.308   2.148   5.703  0.3103 -0.2002  0.2399
  985MOL0     O32843   0.270   2.027   5.701 -0.4071  0.5459 -0.3822
  985MOL0     C32844   0.141   1.999   5.694  0.5869 -0.0924  1.0432
  985MOL0     C32845   0.058   2.041   5.590  1.0304  0.0107 -0.6344
  985MOL0     C32846  -0.075   2.005   5.586  0.5398  0.8704  0.6685
  985MOL0     C32847  -0.133   1.928   5.693  0.5956 -0.4688  0.0781
  985MOL0     O32848  -0.263   1.887   5.692  0.6858  0.0629 -0.6773
  985MOL0     C32849  -0.291   1.763   5.634  0.0201  0.0281 -0.0705
  985MOL0     C32850  -0.443   1.752   5.581  0.3493 -0.7679 -0.1412
  985MOL0     C32851  -0.539   1.719   5.692  0.2303  0.7254 -0.7756
  985MOL0     C32852  -0.686   1.755   5.637  0.0675 -0.5052  0.1982
  985MOL0     C32853  -0.788   1.718   5.751 -0.5519 -0.2734 -0.2186
  985MOL0     C32854  -0.924   1.769   5.718  0.1286  0.7266 -0.6726
  985MOL0     C32855  -1.031   1.702   5.809 -0.6370  0.0510 -0.5354
  985MOL0     C32856  -1.137   1.620   5.738 -0.3013  0.4201  0.3533
  985MOL0     N32857  -1.057   1.497   5.695  0.6704 -0.3394  0.6719
  985MOL0     C32858  -1.052   1.437   5.572  0.2424 -0.1049 -0.1561
  985MOL0     C32859  -1.019   1.308   5.593 -0.6795 -0.3757 -0.7306
  985MOL0     C32860  -1.002   1.202   5.494 -0.3864 -0.0261  0.1308
  985MOL0     C32861  -1.135   1.138   5.443  0.3261 -0.2764  0.0147
  985MOL0     C32862  -1.180   1.011   5.523  0.0476 -0.0044 -0.2030
  985MOL0     C32863  -1.084   0.888   5.505 -0.2630  0.0485  0.3059
  985MOL0     O32864  -1.073   0.854   5.363  0.0771 -0.6695 -0.5672
  985MOL0     C32865  -1.190   0.815   5.301  0.0167  0.0706  0.3193
  985MOL0     C32866  -1.240   0.883   5.188  0.5020 -0.3982  0.1962
  985MOL0     C32867  -1.369   0.875   5.135  0.0540  0.2456 -0.2393
  985MOL0     C32868  -1.401   0.937   5.010  1.0477 -0.6133  0.2640
  985MOL0     C32869  -1.454   0.783   5.207  0.3119  0.0121  0.4205
  985MOL0     C32870  -1.604   0.766   5.175 -0.5607  0.0721  0.0881
  985MOL0     O32871  -1.652   0.847   5.080  0.1402 -0.7756  0.2445
  985MOL0     C32872  -1.783   0.845   5.025  0.3923  0.0841  0.3645
  985MOL0     C32873  -1.782   0.922   4.907 -0.0616 -0.1235  1.1690
  985MOL0     C32874  -1.902   0.941   4.834  0.3534 -0.3258  0.0659
  985MOL0     C32875  -2.028   0.896   4.890  0.3790  0.1266 -0.2223
  985MOL0     O32876  -2.152   0.929   4.850 -0.3122  0.1602 -0.9521
  985MOL0     C32877  -2.166   0.934   4.708 -0.3780 -0.3606  0.5960
  985MOL0     C32878  -2.315   0.937   4.669  0.8586  0.4690  0.7172
  985MOL0     C32879  -2.330   0.943   4.511  0.6091 -0.2340 -0.0676
  985MOL0     C32880  -2.483   0.957   4.476  0.0971  0.8666 -0.8592
  985MOL0     C32881  -2.536   1.095   4.497 -0.5366  0.7908 -0.3502
  985MOL0     C32882  -2.678   1.095   4.443  0.7896 -0.3207  0.2260
  985MOL0     C32883  -2.728   1.240   4.423 -0.4631 -0.0876  0.5029
  985MOL0     C32884  -2.870   1.233   4.368 -0.4203 -0.8169 -0.5455
  985MOL0    Cl32885  -2.977   1.143   4.475  0.0994  0.0931  0.0256
  985MOL0     C32886  -2.020   0.826   5.008  0.3780  0.5387  0.1819
  985MOL0     C32887  -1.898   0.792   5.074 -0.8220  0.6746  0.4431
  985MOL0     O32888  -1.654   0.675   5.240 -0.5464  0.1895 -0.6390
  985MOL0     C32889  -1.405   0.716   5.320 -0.2130  0.2093 -0.1618
  985MOL0     C32890  -1.274   0.726   5.361 -0.7095 -0.6450  0.7596
  985MOL0     N32891  -0.996   1.284   5.728  0.7076  0.7832 -0.4489
  985MOL0     N32892  -1.025   1.399   5.781 -0.2924  0.3243  0.5058
  985MOL0     C32893  -0.046   1.900   5.804 -0.1318  0.0581 -0.5091
  985MOL0     C32894   0.095   1.923   5.797  0.3815  0.2510 -0.4489
  985MOL0     C32895   0.456   2.166   5.725  0.0575 -0.9632  0.4914
  985MOL0     C32896   0.554   2.058   5.728  0.4495 -0.6821 -1.3796
  985MOL0     C32897   0.688   2.082   5.744  0.2902 -0.2396 -0.1336
  985MOL0     C32898   0.741   2.214   5.751 -0.3138  0.3393 -0.5537
  985MOL0     O32899   0.871   2.239   5.760 -0.2466  0.4766 -0.1319
  985MOL0     C32900   0.959   2.158   5.843 -0.3315 -0.4880 -0.7647
  985MOL0     C32901   1.102   2.192   5.813  0.3905  0.6377  0.5020
  985MOL0     C32902   1.149   2.148   5.674  0.4850  0.7250 -0.1919
  985MOL0     C32903   1.297   2.129   5.661 -0.4939  0.1551 -0.4166
  985MOL0     C32904   1.377   2.237   5.613  0.1531 -1.2608 -0.6651
  985MOL0     C32905   1.438   2.338   5.564  0.2646 -0.4000  0.6031
  985MOL0     C32906   0.644   2.318   5.735  0.0135  0.9704  0.2604
  985MOL0     C32907   0.505   2.293   5.732  0.2136 -0.3723  0.5647
  985MOL0     H32908   0.096   2.096   5.504 -0.8038  0.1129 -1.4255
  985MOL0     H32909  -0.143   2.038   5.508 -0.9455  0.3079  1.6685
  985MOL0     H32910  -0.221   1.743   5.553 -0.5088  0.7965 -0.7339
  985MOL0     H32911  -0.284   1.690   5.715 -0.1688  0.3114  0.2026
  985MOL0     H32912  -0.481   1.847   5.544 -3.4504 -3.0037 -2.6501
  985MOL0     H32913  -0.439   1.680   5.498  1.1432 -1.8283  0.7722
  985MOL0     H32914  -0.534   1.616   5.729 -3.0708  0.7284 -0.0087
  985MOL0     H32915  -0.518   1.778   5.782  3.9634 -1.7368  0.2287
  985MOL0     H32916  -0.694   1.864   5.637  1.1217 -0.2337  4.2574
  985MOL0     H32917  -0.714   1.707   5.543 -2.3053  2.8277 -0.9593
  985MOL0     H32918  -0.789   1.609   5.761 -0.9404 -0.1343  1.5118
  985MOL0     H32919  -0.749   1.763   5.842 -0.9308  0.2033 -0.2871
  985MOL0     H32920  -0.926   1.877   5.731  0.8958  0.6759 -0.0879
  985MOL0     H32921  -0.952   1.750   5.614  0.2512  1.6910 -0.8885
  985MOL0     H32922  -0.983   1.641   5.886 -0.8579  1.5517  0.8320
  985MOL0     H32923  -1.080   1.779   5.870  2.9454 -1.5476  5.1374
  985MOL0     H32924  -1.171   1.669   5.646 -4.5668  0.6703  1.8520
  985MOL0     H32925  -1.218   1.598   5.808  0.9928 -0.0450  1.7661
  985MOL0     H32926  -1.068   1.471   5.470 -1.3473 -1.1396 -0.2867
  985MOL0     H32927  -0.939   1.242   5.414  2.8611  0.3767  2.6946
  985MOL0     H32928  -0.941   1.125   5.541 -1.1077  2.0386  5.1103
  985MOL0     H32929  -1.119   1.113   5.337 -0.4800  2.8547 -0.9460
  985MOL0     H32930  -1.220   1.205   5.434  0.3785 -0.2846 -0.5805
  985MOL0     H32931  -1.285   0.994   5.497  0.0144 -1.9522  1.0212
  985MOL0     H32932  -1.177   1.040   5.628  0.0984  1.6113 -0.6336
  985MOL0     H32933  -1.135   0.807   5.557 -0.1934  0.4888  1.0766
  985MOL0     H32934  -0.986   0.898   5.554 -0.4597 -0.2545  0.7678
  985MOL0     H32935  -1.177   0.953   5.133  1.5659 -1.9985 -0.7217
  985MOL0     H32936  -1.319   0.991   4.961 -0.8999 -0.4960 -3.1361
  985MOL0     H32937  -1.431   0.868   4.931  2.2166  0.6643 -1.3957
  985MOL0     H32938  -1.485   1.007   5.016  0.5353 -1.2385  0.4935
  985MOL0     H32939  -1.683   0.949   4.873 -1.0838 -0.0185 -2.1588
  985MOL0     H32940  -1.904   1.004   4.746  3.0883 -1.6143 -1.0527
  985MOL0     H32941  -2.120   1.022   4.660  1.6259 -2.6307 -1.9545
  985MOL0     H32942  -2.112   0.853   4.659 -0.4414  0.4986 -0.9406
  985MOL0     H32943  -2.376   0.853   4.705  0.6043  0.9571  1.4365
  985MOL0     H32944  -2.357   1.026   4.716 -0.4297  0.9418 -1.1943
  985MOL0     H32945  -2.284   0.857   4.463  2.7346  0.1922  1.0872
  985MOL0     H32946  -2.280   1.037   4.485 -0.3661 -0.2910 -2.3472
  985MOL0     H32947  -2.501   0.927   4.372 -1.0251  0.3542 -0.5372
  985MOL0     H32948  -2.536   0.886   4.541  0.3497 -0.5506 -2.1322
  985MOL0     H32949  -2.482   1.174   4.445 -2.1179  2.6249  0.6468
  985MOL0     H32950  -2.531   1.124   4.603  0.4511  2.5806 -0.8424
  985MOL0     H32951  -2.682   1.048   4.344  1.9571 -1.5182  0.7094
  985MOL0     H32952  -2.736   1.042   4.519 -1.3827  1.6485  0.0361
  985MOL0     H32953  -2.661   1.284   4.349  0.2952 -3.3116 -0.9060
  985MOL0     H32954  -2.720   1.307   4.509 -0.7371  1.0993 -0.3667
  985MOL0     H32955  -2.857   1.191   4.268  2.6425 -0.3823 -0.4200
  985MOL0     H32956  -2.902   1.337   4.357  1.0398 -0.5895 -3.3209
  985MOL0     H32957  -2.113   0.805   5.060  1.1863 -1.2885  0.9416
  985MOL0     H32958  -1.897   0.731   5.164  0.2434 -0.7168 -0.4773
  985MOL0     H32959  -1.473   0.660   5.384  2.3489  0.4380  3.0170
  985MOL0     H32960  -1.244   0.664   5.444 -2.4266 -0.7016  1.3810
  985MOL0     H32961  -0.064   1.846   5.896 -0.4830 -0.9058 -1.1193
  985MOL0     H32962   0.158   1.902   5.882 -1.6861  0.8134  1.3019
  985MOL0     H32963   0.534   1.953   5.714 -1.2756 -0.3068 -1.9643
  985MOL0     H32964   0.753   1.995   5.741  1.7611  0.8455 -1.3481
  985MOL0     H32965   0.939   2.181   5.948  3.1009 -0.1801 -0.0615
  985MOL0     H32966   0.942   2.051   5.825 -0.3063 -0.3249 -1.8126
  985MOL0     H32967   1.167   2.155   5.892  1.0826  1.1614  0.1884
  985MOL0     H32968   1.114   2.301   5.820  0.1965  0.6911  0.0716
  985MOL0     H32969   1.097   2.204   5.595 -2.6512 -0.0077  1.1892
  985MOL0     H32970   1.112   2.046   5.662  3.2230 -0.3193 -0.3541
  985MOL0     H32971   1.298   2.063   5.573 -0.2593 -0.9782  0.4083
  985MOL0     H32972   1.335   2.087   5.755 -2.5032 -1.2217 -0.1552
  985MOL0     H32973   1.500   2.420   5.534 -0.0099 -0.5674 -0.4777
  985MOL0     H32974   0.679   2.421   5.730 -1.8493  1.5650 -3.5058
  985MOL0     H32975   0.446   2.384   5.726 -0.6890 -1.0247 -2.3253
  986MOL0     O32976   4.971   5.801   5.315 -0.0900 -0.2840  0.1745
  986MOL0     C32977   4.955   5.860   5.211 -0.3355 -0.7406  0.1016
  986MOL0     O32978   4.868   5.960   5.182  0.6295 -0.3022 -0.3155
  986MOL0     C32979   4.779   6.003   5.274  0.2601  0.3474 -0.2421
  986MOL0     C32980   4.816   6.066   5.388  0.3626  0.1730  0.5187
  986MOL0     C32981   4.714   6.110   5.475  0.3228  0.4717 -0.2510
  986MOL0     C32982   4.580   6.103   5.446  0.4411  0.3041 -0.2907
  986MOL0     O32983   4.486   6.142   5.534 -0.8232 -0.2201 -0.5411
  986MOL0     C32984   4.346   6.157   5.497  0.0548  0.3795 -0.1966
  986MOL0     C32985   4.267   6.223   5.609 -0.2332 -0.4414  0.3435
  986MOL0     C32986   4.113   6.226   5.570  0.0792 -0.3106 -0.4784
  986MOL0     C32987   4.054   6.365   5.608 -0.1440  0.3126 -0.1273
  986MOL0     C32988   3.908   6.383   5.565  0.2240 -0.3138  0.5082
  986MOL0     C32989   3.821   6.273   5.620  0.7063  0.3948  0.3625
  986MOL0     C32990   3.671   6.308   5.597  0.4050  0.6692 -0.4779
  986MOL0     C32991   3.594   6.178   5.628  1.3088  0.6010  0.1877
  986MOL0     N32992   3.458   6.208   5.651 -0.2886  0.2671 -0.8805
  986MOL0     C32993   3.366   6.246   5.556 -0.2973 -0.5370 -0.4238
  986MOL0     C32994   3.252   6.273   5.620  0.1657  0.2079  0.4873
  986MOL0     C32995   3.130   6.348   5.568  0.8456  0.0471 -0.4785
  986MOL0     C32996   3.034   6.244   5.497 -0.5951  0.0253  0.0387
  986MOL0     C32997   2.916   6.318   5.447 -0.2285  1.1528 -0.9442
  986MOL0     C32998   2.798   6.227   5.390 -0.5151 -0.8530 -0.2588
  986MOL0     O32999   2.849   6.171   5.272  0.7786 -0.3888  0.3252
  986MOL0     C33000   2.759   6.120   5.184  0.3890 -0.6096 -0.0502
  986MOL0     C33001   2.781   6.115   5.045 -0.1451  0.2164 -0.7026
  986MOL0     C33002   2.685   6.073   4.949 -0.1584  0.5445  0.3129
  986MOL0     C33003   2.741   6.073   4.810  0.5829  0.0449  0.8996
  986MOL0     C33004   2.561   6.015   4.995 -0.1115  1.1591  0.2538
  986MOL0     C33005   2.451   5.973   4.911 -0.2930 -0.2808  0.3062
  986MOL0     O33006   2.340   5.932   4.973 -0.1930  0.0481  0.6398
  986MOL0     C33007   2.240   5.871   4.914 -0.4983  0.2778 -0.1327
  986MOL0     C33008   2.250   5.738   4.872 -0.1119  0.2206  0.5374
  986MOL0     C33009   2.125   5.678   4.827 -0.0067  0.0029 -0.5307
  986MOL0     C33010   2.000   5.739   4.838 -0.4808  0.3801 -1.0341
  986MOL0     O33011   1.876   5.687   4.811 -0.0391  0.5219 -0.8402
  986MOL0     C33012   1.874   5.555   4.740  0.4535 -0.5416 -0.2445
  986MOL0     C33013   1.733   5.498   4.748  0.1410  0.0003  0.4675
  986MOL0     C33014   1.639   5.585   4.668 -0.3711 -0.4142  0.4961
  986MOL0     C33015   1.499   5.520   4.663  0.2134 -0.1728  0.4808
  986MOL0     C33016   1.412   5.500   4.791 -0.7213 -1.2142  0.5520
  986MOL0     C33017   1.281   5.417   4.773  0.4633  0.2564  0.3846
  986MOL0     C33018   1.182   5.494   4.680 -1.5243  0.7255  0.3144
  986MOL0     C33019   1.048   5.423   4.667  0.1747 -0.2261 -0.0870
  986MOL0    Cl33020   0.984   5.418   4.829 -0.7997 -0.4408  0.1855
  986MOL0     C33021   2.001   5.873   4.876  0.4024 -0.1422 -0.1015
  986MOL0     C33022   2.113   5.934   4.918 -0.5343 -0.5310 -0.3882
  986MOL0     O33023   2.452   6.001   4.787 -0.3321  0.2431  0.1833
  986MOL0     C33024   2.544   6.014   5.135 -0.0445 -0.5553  0.8960
  986MOL0     C33025   2.636   6.061   5.227 -0.6243 -0.0831  0.7233
  986MOL0     N33026   3.277   6.242   5.752 -0.0005  0.3707  0.1196
  986MOL0     N33027   3.394   6.192   5.768 -0.2700 -0.0514  0.0000
  986MOL0     C33028   4.550   6.045   5.313  0.7411 -1.0492 -0.0148
  986MOL0     C33029   4.642   5.985   5.238 -0.9255 -0.2549  0.0560
  986MOL0     C33030   5.036   5.822   5.093 -0.5807 -0.3997  0.6673
  986MOL0     C33031   5.019   5.883   4.965 -0.6576  0.8860  0.1565
  986MOL0     C33032   5.115   5.863   4.867 -0.6439 -0.6054  0.1764
  986MOL0     C33033   5.224   5.779   4.884 -0.0209 -0.6222 -0.3732
  986MOL0     O33034   5.317   5.745   4.783  0.1272  0.5238 -0.6545
  986MOL0     C33035   5.348   5.852   4.695  0.4369 -0.0765  1.3593
  986MOL0     C33036   5.479   5.823   4.615 -0.0066 -0.7487 -0.6387
  986MOL0     C33037   5.524   5.927   4.519  0.1721  0.2382  0.5719
  986MOL0     C33038   5.592   5.872   4.397 -0.3083 -0.9512  0.8122
  986MOL0     C33039   5.698   5.777   4.424  0.3303  0.4682  0.3095
  986MOL0     C33040   5.791   5.700   4.449  0.3843  0.4091  0.7355
  986MOL0     C33041   5.244   5.717   5.003 -0.0903 -0.0899 -0.3645
  986MOL0     C33042   5.155   5.736   5.111  0.3595 -1.0056  0.9964
  986MOL0     H33043   4.919   6.077   5.419  0.5753  1.8475 -0.6402
  986MOL0     H33044   4.738   6.156   5.571  3.0039 -3.1111  1.0150
  986MOL0     H33045   4.330   6.223   5.412  0.3238 -0.8261 -1.2008
  986MOL0     H33046   4.304   6.057   5.485  0.4781  0.2471 -0.5912
  986MOL0     H33047   4.289   6.150   5.687  1.0883 -0.7723 -0.3053
  986MOL0     H33048   4.316   6.315   5.640  0.8891 -0.9420  0.1067
  986MOL0     H33049   4.093   6.218   5.463 -2.4446 -1.0885 -0.0130
  986MOL0     H33050   4.059   6.147   5.623  0.5489 -0.1510  0.2461
  986MOL0     H33051   4.063   6.381   5.716  1.7764  0.7655 -0.3054
  986MOL0     H33052   4.115   6.441   5.557 -0.8031 -0.7931 -2.7413
  986MOL0     H33053   3.873   6.482   5.596  1.0932  0.3929 -0.6833
  986MOL0     H33054   3.898   6.375   5.456  0.0769  0.6581  0.4371
  986MOL0     H33055   3.833   6.181   5.563 -0.8613 -0.3668  1.1957
  986MOL0     H33056   3.840   6.252   5.725  2.1902 -1.3980 -0.2246
  986MOL0     H33057   3.632   6.387   5.662 -2.3389  0.1894 -1.4166
  986MOL0     H33058   3.647   6.333   5.493  1.5576 -0.2150 -0.9814
  986MOL0     H33059   3.633   6.118   5.711 -1.9495 -3.2013 -0.7200
  986MOL0     H33060   3.607   6.117   5.539  1.8347  1.0164 -0.0250
  986MOL0     H33061   3.392   6.260   5.452 -0.9550 -1.8891 -0.7820
  986MOL0     H33062   3.088   6.408   5.649  1.6480  0.2836 -0.2235
  986MOL0     H33063   3.161   6.416   5.487 -0.0351 -0.7074 -1.4806
  986MOL0     H33064   2.998   6.174   5.572  0.1041 -0.3739  0.0118
  986MOL0     H33065   3.088   6.197   5.415  0.9891  0.9460  0.5104
  986MOL0     H33066   2.945   6.389   5.368 -3.7774  1.7366 -1.8939
  986MOL0     H33067   2.881   6.379   5.531  1.7356  1.2635 -0.1409
  986MOL0     H33068   2.715   6.292   5.363 -1.1012 -1.8669 -0.9356
  986MOL0     H33069   2.763   6.164   5.472 -3.0827  1.0374  0.2092
  986MOL0     H33070   2.885   6.129   5.019  0.2088 -1.2852 -0.1917
  986MOL0     H33071   2.705   6.161   4.755  0.1409 -0.2782  0.6657
  986MOL0     H33072   2.850   6.073   4.807  0.6842 -3.1994 -2.2006
  986MOL0     H33073   2.714   5.973   4.774 -0.7151  1.0351 -1.0439
  986MOL0     H33074   2.349   5.696   4.861  0.3786  1.5504 -0.2448
  986MOL0     H33075   2.134   5.579   4.785  1.7046 -1.4262  2.8714
  986MOL0     H33076   1.907   5.568   4.637  0.2551 -2.2790 -0.5511
  986MOL0     H33077   1.930   5.472   4.784  0.9689 -2.0087 -3.4266
  986MOL0     H33078   1.741   5.400   4.700  0.5207 -0.1461  0.8163
  986MOL0     H33079   1.705   5.489   4.853 -2.3228  0.7656 -0.0605
  986MOL0     H33080   1.681   5.595   4.567  3.5478  1.2906  2.1108
  986MOL0     H33081   1.634   5.680   4.721  0.1452 -0.9920  1.6147
  986MOL0     H33082   1.443   5.583   4.594 -0.8199  0.2660  1.6765
  986MOL0     H33083   1.522   5.422   4.621  2.2252 -0.1452  1.3786
  986MOL0     H33084   1.386   5.600   4.829  3.1834  0.1294  0.1932
  986MOL0     H33085   1.479   5.456   4.865  1.9869 -0.4383 -1.2759
  986MOL0     H33086   1.312   5.327   4.720  1.3427 -0.4693  2.0728
  986MOL0     H33087   1.240   5.388   4.870  3.7183  1.4752  2.2823
  986MOL0     H33088   1.231   5.498   4.583  0.9152  0.2901  1.4378
  986MOL0     H33089   1.162   5.595   4.716 -1.5266  1.7941 -2.4811
  986MOL0     H33090   1.045   5.319   4.631  0.6106 -1.2682  2.6613
  986MOL0     H33091   0.994   5.479   4.590 -0.7281 -1.4659 -0.3839
  986MOL0     H33092   1.910   5.932   4.873 -0.0410 -0.7712  0.5306
  986MOL0     H33093   2.107   6.037   4.951 -0.1610  0.4430 -3.1288
  986MOL0     H33094   2.447   5.992   5.178 -1.3068 -0.7600 -1.8723
  986MOL0     H33095   2.611   6.054   5.332 -1.1371  2.3703  0.8272
  986MOL0     H33096   4.446   6.045   5.281 -0.7183  5.7707  2.8166
  986MOL0     H33097   4.618   5.953   5.137  0.0729  4.5822 -2.0041
  986MOL0     H33098   4.931   5.936   4.932 -0.3376 -0.4345 -3.2631
  986MOL0     H33099   5.088   5.909   4.772 -0.6174  0.8971  0.8775
  986MOL0     H33100   5.267   5.847   4.621  1.5314 -1.6044  0.2097
  986MOL0     H33101   5.344   5.953   4.738 -0.0204  1.2092 -1.4766
  986MOL0     H33102   5.463   5.721   4.578  1.4080 -1.0192 -0.5685
  986MOL0     H33103   5.560   5.820   4.688 -0.2905 -0.5301 -0.3142
  986MOL0     H33104   5.586   5.997   4.577  1.9438 -0.2189 -0.6960
  986MOL0     H33105   5.433   5.980   4.488 -1.1388 -0.9491  2.2396
  986MOL0     H33106   5.631   5.950   4.331 -2.3242 -1.2483 -0.8247
  986MOL0     H33107   5.519   5.818   4.337  0.9912  0.5670 -2.3701
  986MOL0     H33108   5.871   5.634   4.479  1.2749  2.0091  2.0687
  986MOL0     H33109   5.330   5.653   5.020 -2.2289 -3.1679 -0.2025
  986MOL0     H33110   5.177   5.690   5.207 -0.7978  1.3316  2.4640
  987MOL0     O33111  10.095   0.783   0.469 -0.7091 -0.3961  0.7169
  987MOL0     C33112  10.146   0.863   0.550  0.0432  0.4608  0.4069
  987MOL0     O33113  10.112   0.868   0.689  0.1263  0.3634  0.0107
  987MOL0     C33114  10.019   0.769   0.729  0.3208 -0.4534 -0.1742
  987MOL0     C33115  10.060   0.638   0.749 -0.3185  0.2359 -0.2701
  987MOL0     C33116   9.964   0.544   0.783 -0.3383 -0.3643  0.3954
  987MOL0     C33117   9.829   0.587   0.816  0.2782 -0.2016  0.6821
  987MOL0     O33118   9.729   0.504   0.847  0.1425 -0.3697 -0.4855
  987MOL0     C33119   9.764   0.424   0.958 -0.2489  0.1263 -0.0170
  987MOL0     C33120   9.640   0.386   1.029 -0.1381  0.0576 -0.7272
  987MOL0     C33121   9.557   0.508   1.068  1.4793  0.2843 -0.1579
  987MOL0     C33122   9.461   0.470   1.179 -0.2402 -0.6034 -0.1134
  987MOL0     C33123   9.360   0.365   1.140  0.4444 -0.6195  0.1087
  987MOL0     C33124   9.247   0.347   1.234  0.0392 -0.8823 -0.5338
  987MOL0     C33125   9.146   0.235   1.199 -0.2164 -0.3116 -0.4204
  987MOL0     C33126   9.061   0.199   1.319 -0.0778  0.1395 -0.0023
  987MOL0     N33127   9.003   0.062   1.314  0.3260  0.2109  0.1703
  987MOL0     C33128   8.900   0.035   1.224  0.8910 -0.3659 -0.4318
  987MOL0     C33129   8.871  -0.099   1.249  0.6830  0.9964 -0.0145
  987MOL0     C33130   8.766  -0.177   1.178  0.3784  0.3474  0.3663
  987MOL0     C33131   8.832  -0.235   1.051  0.1113  0.0480  0.1691
  987MOL0     C33132   8.740  -0.300   0.946  0.2851 -0.0233 -0.8594
  987MOL0     C33133   8.608  -0.355   1.012  0.0615 -0.4102  0.3716
  987MOL0     O33134   8.538  -0.433   0.910  0.0990 -0.1617 -0.1141
  987MOL0     C33135   8.431  -0.516   0.947 -0.5412  0.8495 -0.4030
  987MOL0     C33136   8.383  -0.601   0.842  0.1912  0.3666 -0.2576
  987MOL0     C33137   8.272  -0.682   0.866  0.2811 -0.1635 -0.4751
  987MOL0     C33138   8.218  -0.760   0.743 -0.7886 -0.8672 -0.0640
  987MOL0     C33139   8.213  -0.695   0.991  0.7412  0.0410 -0.1064
  987MOL0     C33140   8.091  -0.770   1.022  0.2450 -0.8896 -0.1132
  987MOL0     O33141   8.009  -0.717   1.119 -0.1232 -0.0195  0.0115
  987MOL0     C33142   7.889  -0.770   1.167  0.0707 -0.8965  0.5456
  987MOL0     C33143   7.853  -0.907   1.195 -0.2547 -0.3517 -0.1151
  987MOL0     C33144   7.734  -0.942   1.263 -0.5051 -0.7231 -0.1991
  987MOL0     C33145   7.643  -0.841   1.304  0.2815 -0.6429 -0.6354
  987MOL0     O33146   7.524  -0.861   1.372 -0.2055 -0.5840 -0.3453
  987MOL0     C33147   7.500  -0.990   1.426 -0.0001  0.6815  0.0804
  987MOL0     C33148   7.389  -0.986   1.536  0.0609 -0.0248  0.2038
  987MOL0     C33149   7.329  -1.119   1.582 -0.5035 -0.0292 -0.0042
  987MOL0     C33150   7.230  -1.118   1.695  0.9924  0.8725 -0.5475
  987MOL0     C33151   7.193  -1.266   1.733 -0.0375  0.0781 -0.0381
  987MOL0     C33152   7.059  -1.319   1.680  0.3571  0.2380 -0.0610
  987MOL0     C33153   7.024  -1.453   1.752 -0.1774  1.0297  1.1432
  987MOL0     C33154   6.884  -1.496   1.719 -0.3396 -0.1693  0.1354
  987MOL0    Cl33155   6.843  -1.644   1.814  0.1967  0.6715  0.6525
  987MOL0     C33156   7.672  -0.706   1.263  0.9885 -0.3272  0.4032
  987MOL0     C33157   7.791  -0.669   1.201  0.3184 -0.5753  0.1591
  987MOL0     O33158   8.063  -0.870   0.964 -0.4170 -0.0964  0.3889
  987MOL0     C33159   8.265  -0.617   1.092  0.0991 -0.2782 -0.5844
  987MOL0     C33160   8.372  -0.534   1.077 -0.1968 -0.1061 -0.2789
  987MOL0     N33161   8.945  -0.145   1.366 -0.8682 -0.1088  0.7874
  987MOL0     N33162   9.029  -0.046   1.393 -0.5727 -0.0448 -0.1520
  987MOL0     C33163   9.792   0.718   0.810  0.0037  1.1262 -0.3322
  987MOL0     C33164   9.890   0.805   0.774 -0.5566 -0.2419 -0.1793
  987MOL0     C33165  10.262   0.942   0.504 -0.0317 -0.1009  0.6638
  987MOL0     C33166  10.314   0.923   0.375  0.2797  0.1573  0.2152
  987MOL0     C33167  10.429   0.995   0.334  0.4038  0.2122  0.3378
  987MOL0     C33168  10.492   1.073   0.428 -0.0281  0.3123 -0.4686
  987MOL0     O33169  10.613   1.144   0.410  0.2124  0.8280 -0.9203
  987MOL0     C33170  10.657   1.167   0.278  0.0513 -0.5852 -0.5987
  987MOL0     C33171  10.785   1.255   0.287 -0.7889  0.3736  0.4046
  987MOL0     C33172  10.837   1.298   0.147 -0.2335 -0.2335  0.2909
  987MOL0     C33173  10.991   1.321   0.135 -0.7142  0.4814 -0.2532
  987MOL0     C33174  11.039   1.423   0.233 -0.0104 -0.4903 -0.2261
  987MOL0     C33175  11.090   1.504   0.307 -0.2765  0.2301 -0.8159
  987MOL0     C33176  10.454   1.084   0.562  0.8835  0.1243 -1.4376
  987MOL0     C33177  10.327   1.021   0.595 -0.3937  0.6067  0.4631
  987MOL0     H33178  10.164   0.608   0.743  0.2559  2.1588 -0.8520
  987MOL0     H33179   9.983   0.438   0.791 -1.0547 -0.5128  0.1621
  987MOL0     H33180   9.813   0.331   0.929  0.7597  0.2224  1.3140
  987MOL0     H33181   9.821   0.485   1.028 -0.6294  0.1430  0.2807
  987MOL0     H33182   9.580   0.345   0.947  0.5090  1.5578 -2.0191
  987MOL0     H33183   9.659   0.311   1.106 -1.0099  0.7838  0.2308
  987MOL0     H33184   9.633   0.581   1.098  3.5927 -1.9600  0.2449
  987MOL0     H33185   9.501   0.550   0.984  2.7097 -0.3186 -1.3237
  987MOL0     H33186   9.513   0.435   1.269 -0.2215 -1.2578 -0.3748
  987MOL0     H33187   9.418   0.564   1.217 -1.0590 -0.7602 -0.6203
  987MOL0     H33188   9.315   0.389   1.043  2.7240 -5.3629 -2.4558
  987MOL0     H33189   9.411   0.272   1.113 -0.0054 -0.7357 -0.3640
  987MOL0     H33190   9.289   0.326   1.333 -0.0065 -2.3334 -0.8033
  987MOL0     H33191   9.187   0.437   1.248 -0.9141 -1.5804 -0.0889
  987MOL0     H33192   9.077   0.253   1.116  1.4217  3.5964 -1.1822
  987MOL0     H33193   9.217   0.154   1.183 -0.5780 -0.9811  1.1602
  987MOL0     H33194   8.971   0.261   1.330 -0.6736 -0.4808 -1.2499
  987MOL0     H33195   9.124   0.202   1.409  0.8117 -2.6307 -0.4543
  987MOL0     H33196   8.851   0.095   1.148 -0.1178 -0.4968  0.0957
  987MOL0     H33197   8.736  -0.258   1.246  2.0000 -0.6065 -0.0183
  987MOL0     H33198   8.683  -0.111   1.153  1.2732  2.2222  2.0255
  987MOL0     H33199   8.886  -0.319   1.096 -2.0527 -1.9941 -0.8169
  987MOL0     H33200   8.895  -0.164   0.997  1.3052 -0.9825  0.1755
  987MOL0     H33201   8.791  -0.373   0.883  1.2872  0.3875 -0.5514
  987MOL0     H33202   8.703  -0.222   0.878  0.2950  0.8581  0.1219
  987MOL0     H33203   8.556  -0.271   1.059  2.0055  0.4261  1.1419
  987MOL0     H33204   8.639  -0.425   1.091 -0.7939 -1.6210 -0.3435
  987MOL0     H33205   8.432  -0.599   0.746  1.3687  2.7976  0.3212
  987MOL0     H33206   8.112  -0.787   0.748 -0.8682 -0.8522 -1.3048
  987MOL0     H33207   8.221  -0.689   0.660  1.2559 -0.2266  0.5005
  987MOL0     H33208   8.280  -0.847   0.720 -0.9919 -1.1524  0.4435
  987MOL0     H33209   7.930  -0.983   1.183 -0.4276 -0.6299  0.4996
  987MOL0     H33210   7.714  -1.044   1.295  0.1932 -0.2986  1.7717
  987MOL0     H33211   7.465  -1.057   1.347 -0.1609  2.6720 -1.6066
  987MOL0     H33212   7.590  -1.036   1.468  1.2208  1.6672 -1.3760
  987MOL0     H33213   7.429  -0.936   1.624  1.2750 -0.1518 -0.2483
  987MOL0     H33214   7.311  -0.916   1.505  0.9042  0.1000 -1.8278
  987MOL0     H33215   7.416  -1.181   1.605 -0.6355 -0.3706 -0.4122
  987MOL0     H33216   7.284  -1.167   1.494 -0.5973  1.4726 -0.8033
  987MOL0     H33217   7.271  -1.067   1.782  0.5869 -1.2798  0.9651
  987MOL0     H33218   7.136  -1.067   1.672 -0.4910 -0.6206  1.8245
  987MOL0     H33219   7.181  -1.262   1.841 -3.0058  1.8564 -0.3242
  987MOL0     H33220   7.271  -1.332   1.694  0.9923  0.9786  0.4675
  987MOL0     H33221   6.983  -1.243   1.700 -1.1528 -1.2698  0.2317
  987MOL0     H33222   7.068  -1.346   1.574 -1.0399  0.2923 -0.2193
  987MOL0     H33223   7.034  -1.438   1.860  0.9897 -0.8920  1.3320
  987MOL0     H33224   7.094  -1.531   1.721 -3.2522 -0.8150 -1.8277
  987MOL0     H33225   6.875  -1.516   1.611  2.4152  0.1828 -0.2106
  987MOL0     H33226   6.808  -1.421   1.741 -0.5803 -0.2844 -0.2795
  987MOL0     H33227   7.595  -0.639   1.299 -0.4759  0.2746 -3.3495
  987MOL0     H33228   7.805  -0.565   1.173 -0.3081 -0.6792 -0.5917
  987MOL0     H33229   8.219  -0.635   1.189  0.8574  1.1545  0.0696
  987MOL0     H33230   8.390  -0.484   1.171 -2.7898 -1.3539  0.9804
  987MOL0     H33231   9.690   0.748   0.833 -0.3312 -1.0732  1.4861
  987MOL0     H33232   9.887   0.914   0.777  1.4550 -0.0907 -1.8545
  987MOL0     H33233  10.266   0.859   0.301  0.8627  0.8711 -0.8033
  987MOL0     H33234  10.482   0.964   0.245  0.5740 -0.4458  0.6600
  987MOL0     H33235  10.691   1.075   0.230 -1.8645 -2.8725  2.0933
  987MOL0     H33236  10.580   1.221   0.223  0.5607  0.4084 -0.3486
  987MOL0     H33237  10.870   1.199   0.328 -1.3517 -1.0056 -0.2667
  987MOL0     H33238  10.779   1.338   0.359  1.5344 -2.1198  3.8219
  987MOL0     H33239  10.783   1.390   0.120  0.2453  1.3431  4.0919
  987MOL0     H33240  10.805   1.218   0.080  0.9451 -1.9856  1.7240
  987MOL0     H33241  11.012   1.361   0.036  0.1894  0.5756 -0.0277
  987MOL0     H33242  11.037   1.225   0.160 -1.0672  0.0414 -1.2589
  987MOL0     H33243  11.152   1.567   0.368  1.5647  0.3066 -2.6659
  987MOL0     H33244  10.515   1.126   0.642 -0.4772 -0.3483 -0.1154
  987MOL0     H33245  10.292   1.030   0.697 -1.8095 -2.3681  0.3260
  988MOL0     O33246   8.138   3.427   4.721  0.9306 -0.1880 -0.5132
  988MOL0     C33247   8.195   3.391   4.619  0.1120 -0.7590 -0.2410
  988MOL0     O33248   8.153   3.416   4.491  0.1706 -0.0816 -1.1840
  988MOL0     C33249   8.042   3.495   4.472 -0.4534 -0.6177 -0.1735
  988MOL0     C33250   7.944   3.450   4.380 -0.0019 -0.8513 -0.5705
  988MOL0     C33251   7.829   3.533   4.363 -0.1795  1.2593 -0.4908
  988MOL0     C33252   7.790   3.632   4.442 -0.5205 -0.2631 -0.6975
  988MOL0     O33253   7.662   3.669   4.435  0.3046 -1.0053 -0.1317
  988MOL0     C33254   7.601   3.728   4.552 -0.4098 -0.7550 -0.2067
  988MOL0     C33255   7.454   3.693   4.547  1.0738 -0.3075  0.3869
  988MOL0     C33256   7.376   3.788   4.453  0.4799 -0.1105 -0.4260
  988MOL0     C33257   7.228   3.787   4.487  0.5537  0.7970 -0.0190
  988MOL0     C33258   7.148   3.804   4.362  0.0430  0.5572  0.4121
  988MOL0     C33259   6.994   3.808   4.380 -0.5289 -0.4779  0.0338
  988MOL0     C33260   6.913   3.853   4.258  0.8568 -0.2429 -0.5771
  988MOL0     C33261   6.764   3.872   4.298 -0.2069  0.2384 -0.0236
  988MOL0     N33262   6.689   3.973   4.217  0.3566  0.0722 -0.7067
  988MOL0     C33263   6.616   3.954   4.108 -0.2324 -0.0801 -0.3682
  988MOL0     C33264   6.572   4.072   4.078  0.1464  0.4535 -0.2414
  988MOL0     C33265   6.479   4.109   3.970 -0.0359 -0.4968  0.0201
  988MOL0     C33266   6.333   4.132   4.022  0.2753 -0.7733 -0.4355
  988MOL0     C33267   6.280   3.994   4.067 -0.0145  0.3291  0.0927
  988MOL0     C33268   6.141   4.018   4.144 -0.5631 -1.1589 -0.9456
  988MOL0     O33269   6.168   4.088   4.262  0.2855  0.4963  0.4658
  988MOL0     C33270   6.058   4.155   4.315  0.3061  0.0633  0.1553
  988MOL0     C33271   6.022   4.277   4.270 -0.1184 -0.4928 -0.6165
  988MOL0     C33272   5.901   4.340   4.312  0.0206  0.0683 -0.1173
  988MOL0     C33273   5.873   4.477   4.257 -0.2059 -0.1607 -0.1389
  988MOL0     C33274   5.811   4.271   4.404  0.6797 -0.1751  0.1699
  988MOL0     C33275   5.685   4.335   4.461  0.2258 -0.6058 -0.3279
  988MOL0     O33276   5.646   4.277   4.576  0.3824  0.0198  0.5627
  988MOL0     C33277   5.521   4.315   4.635  0.4551  0.6864  0.3166
  988MOL0     C33278   5.512   4.364   4.762 -0.0770 -0.7605  0.6052
  988MOL0     C33279   5.388   4.388   4.823  0.1729 -0.2504 -0.5078
  988MOL0     C33280   5.271   4.379   4.749  0.0257  0.3978 -0.2016
  988MOL0     O33281   5.144   4.408   4.790 -0.0336  0.7111  0.3238
  988MOL0     C33282   5.119   4.427   4.936  0.1233  0.7356 -0.1346
  988MOL0     C33283   4.981   4.474   4.985  0.3879  0.0552 -0.0543
  988MOL0     C33284   4.854   4.374   4.975 -1.0791  0.1549  0.1115
  988MOL0     C33285   4.812   4.343   4.830  0.2912 -0.4013 -0.8303
  988MOL0     C33286   4.725   4.223   4.811 -0.2885  0.1227  0.4842
  988MOL0     C33287   4.582   4.244   4.856 -0.0385 -0.0708  0.3935
  988MOL0     C33288   4.474   4.143   4.804 -0.1806 -0.8943  0.9140
  988MOL0     C33289   4.484   3.998   4.863 -0.0405  0.1193  0.0835
  988MOL0    Cl33290   4.409   4.004   5.018 -0.1353 -0.5564 -0.3039
  988MOL0     C33291   5.284   4.329   4.618  0.8046 -0.0164 -0.3885
  988MOL0     C33292   5.410   4.300   4.553 -0.3483 -0.8520 -0.4325
  988MOL0     O33293   5.627   4.430   4.411 -0.4994 -0.4068  0.4262
  988MOL0     C33294   5.856   4.155   4.454  0.0660 -0.2869 -0.0046
  988MOL0     C33295   5.974   4.091   4.410 -0.5258 -0.2930 -0.6255
  988MOL0     N33296   6.627   4.162   4.167  0.5900 -0.2041  0.0160
  988MOL0     N33297   6.693   4.102   4.255  0.4842  0.6049 -0.6039
  988MOL0     C33298   7.890   3.673   4.532  0.1120 -0.4275  0.3123
  988MOL0     C33299   8.015   3.606   4.545  0.5039 -0.6269  0.2460
  988MOL0     C33300   8.312   3.300   4.634 -0.0813 -0.0239  0.2961
  988MOL0     C33301   8.361   3.274   4.763 -0.3685 -0.3377  0.3649
  988MOL0     C33302   8.473   3.193   4.776  1.0114 -0.9627  0.2344
  988MOL0     C33303   8.533   3.129   4.662 -0.5538 -0.1702  0.3328
  988MOL0     O33304   8.636   3.044   4.666 -0.0747  0.4324  1.0835
  988MOL0     C33305   8.698   2.992   4.790  0.3133 -0.2823  0.4874
  988MOL0     C33306   8.831   2.922   4.773 -0.0862  0.1186 -0.0714
  988MOL0     C33307   8.864   2.825   4.882 -0.3352  0.3535  0.3931
  988MOL0     C33308   9.010   2.774   4.880  0.0398 -0.1181 -0.4750
  988MOL0     C33309   9.048   2.681   4.986 -1.2650 -0.6457  0.0075
  988MOL0     C33310   9.077   2.604   5.076  0.1073 -1.1081  0.3805
  988MOL0     C33311   8.475   3.160   4.536 -0.7823 -0.3297 -1.1213
  988MOL0     C33312   8.368   3.243   4.522  0.1881  0.3053  0.1265
  988MOL0     H33313   7.968   3.355   4.332 -0.1816 -1.1512 -0.0776
  988MOL0     H33314   7.760   3.498   4.287 -1.6123 -0.5828  1.5324
  988MOL0     H33315   7.648   3.705   4.648 -0.0016  0.4610 -0.0954
  988MOL0     H33316   7.616   3.836   4.539 -0.8785 -0.6146  0.3974
  988MOL0     H33317   7.441   3.587   4.525  1.5289 -0.9892  3.0629
  988MOL0     H33318   7.414   3.713   4.647  3.2886 -1.7498  1.6491
  988MOL0     H33319   7.409   3.892   4.459  4.7218 -1.3801  2.2050
  988MOL0     H33320   7.395   3.755   4.351  1.9007 -0.6906  0.0061
  988MOL0     H33321   7.199   3.694   4.537  1.4980  0.8292  0.6171
  988MOL0     H33322   7.212   3.871   4.555 -2.7340 -0.3061  0.7620
  988MOL0     H33323   7.171   3.898   4.310  0.0021  0.3567  0.0322
  988MOL0     H33324   7.172   3.726   4.289 -1.2120  0.6501 -0.1157
  988MOL0     H33325   6.958   3.715   4.426  2.1319 -0.1085  3.2974
  988MOL0     H33326   6.971   3.886   4.452  1.4931  1.2678 -1.0922
  988MOL0     H33327   6.940   3.952   4.219 -1.9456  0.2246 -1.5383
  988MOL0     H33328   6.919   3.784   4.174 -0.8299  0.0479 -0.9741
  988MOL0     H33329   6.769   3.894   4.406  0.0081  2.5840 -0.4438
  988MOL0     H33330   6.724   3.773   4.276  0.8012  0.4852 -3.5846
  988MOL0     H33331   6.600   3.860   4.056 -2.2293 -2.1133  3.4874
  988MOL0     H33332   6.510   4.196   3.911  2.0660 -1.6500 -0.6514
  988MOL0     H33333   6.474   4.035   3.889  1.6123  0.2041 -0.7631
  988MOL0     H33334   6.265   4.179   3.949  0.6182 -0.7430 -0.7381
  988MOL0     H33335   6.343   4.200   4.106 -1.0746  0.9898 -1.6069
  988MOL0     H33336   6.345   3.945   4.140 -0.6899 -0.9453 -0.1350
  988MOL0     H33337   6.268   3.932   3.977  1.9678 -0.6212  0.4268
  988MOL0     H33338   6.095   3.922   4.170 -0.8682 -0.5900  0.7557
  988MOL0     H33339   6.080   4.081   4.079  1.0264  1.4969 -0.0480
  988MOL0     H33340   6.079   4.332   4.196  1.4832  0.0617  0.9582
  988MOL0     H33341   5.772   4.485   4.216 -0.9089  0.9356  1.7029
  988MOL0     H33342   5.870   4.546   4.342  2.4642 -0.9765  0.7344
  988MOL0     H33343   5.950   4.521   4.193 -1.4888  3.3335  0.5254
  988MOL0     H33344   5.603   4.370   4.821 -0.0641 -0.9021  0.5992
  988MOL0     H33345   5.388   4.429   4.924 -1.3397  0.0482 -0.5974
  988MOL0     H33346   5.150   4.334   4.984  0.0265  0.0866 -1.2842
  988MOL0     H33347   5.188   4.507   4.964 -2.2215  3.8316 -2.5340
  988MOL0     H33348   4.980   4.493   5.092 -1.1243  0.8609 -0.1907
  988MOL0     H33349   4.953   4.561   4.925  0.3345 -0.3270 -0.5935
  988MOL0     H33350   4.764   4.413   5.025 -1.6184  1.1396 -1.5489
  988MOL0     H33351   4.880   4.279   5.023  0.0220  0.5044  0.2463
  988MOL0     H33352   4.761   4.434   4.797  1.7083  1.1404  1.0526
  988MOL0     H33353   4.902   4.319   4.772  3.3117 -0.2520  3.3608
  988MOL0     H33354   4.775   4.136   4.854  2.3276  0.1561 -2.1535
  988MOL0     H33355   4.728   4.203   4.703 -1.1572  0.7810  0.3261
  988MOL0     H33356   4.582   4.255   4.965  2.4887 -0.8676  0.5501
  988MOL0     H33357   4.553   4.341   4.815  2.1865  1.3081  1.8524
  988MOL0     H33358   4.499   4.139   4.698  0.0761  0.8944  0.8879
  988MOL0     H33359   4.371   4.179   4.810 -0.3495 -0.7095 -1.8118
  988MOL0     H33360   4.586   3.960   4.870 -0.5040 -1.2131 -0.1614
  988MOL0     H33361   4.430   3.927   4.800  0.6071 -1.2921  1.0545
  988MOL0     H33362   5.191   4.340   4.563  1.2890  0.7061 -1.0883
  988MOL0     H33363   5.424   4.260   4.453  0.6912 -2.0912  0.1774
  988MOL0     H33364   5.806   4.105   4.537  0.9682  1.2131  1.5165
  988MOL0     H33365   5.998   3.995   4.453  0.6252  1.3062  2.6601
  988MOL0     H33366   7.870   3.752   4.603 -1.1388 -0.4526  0.0150
  988MOL0     H33367   8.080   3.646   4.621  1.4609 -0.8558 -0.4339
  988MOL0     H33368   8.322   3.321   4.853  1.6137  1.4133  0.3997
  988MOL0     H33369   8.517   3.177   4.874  0.9229  0.3338  0.5139
  988MOL0     H33370   8.711   3.080   4.854 -1.1938  1.5016 -1.5017
  988MOL0     H33371   8.622   2.935   4.845  0.5698 -0.4103  0.7113
  988MOL0     H33372   8.906   3.001   4.764 -1.6239  1.3588 -4.5416
  988MOL0     H33373   8.836   2.864   4.680  1.3887  0.4920 -0.2456
  988MOL0     H33374   8.800   2.737   4.878 -1.8440  1.4103  0.5681
  988MOL0     H33375   8.842   2.869   4.980  2.2929 -1.8068  2.0722
  988MOL0     H33376   9.069   2.866   4.887 -3.2056  2.0231  0.6290
  988MOL0     H33377   9.041   2.723   4.788 -0.6759 -0.8586 -0.3208
  988MOL0     H33378   9.092   2.524   5.146  2.3195 -0.8541  0.2747
  988MOL0     H33379   8.529   3.106   4.458  0.9789 -0.4645  0.1252
  988MOL0     H33380   8.322   3.251   4.424  0.8926  0.7980 -0.1639
  989MOL0     O33381   9.984   5.976   9.697 -0.0464 -0.0656 -0.9142
  989MOL0     C33382  10.003   6.025   9.586 -0.3725 -0.7492 -0.9647
  989MOL0     O33383   9.904   6.076   9.498 -0.2557 -0.3347 -0.0542
  989MOL0     C33384   9.774   6.056   9.514  0.9679 -0.6621  0.6184
  989MOL0     C33385   9.691   6.050   9.393 -0.0341  0.1774 -1.1484
  989MOL0     C33386   9.555   6.017   9.411  0.1143 -1.0416  0.0909
  989MOL0     C33387   9.497   5.980   9.534  0.4967 -0.5481  0.6387
  989MOL0     O33388   9.360   5.953   9.540  0.6546 -0.0993 -0.0050
  989MOL0     C33389   9.281   5.961   9.422 -0.1476 -0.6449  0.1517
  989MOL0     C33390   9.137   5.931   9.451 -0.4866  0.4601  0.6410
  989MOL0     C33391   9.075   6.021   9.551  0.0224  0.1038  0.5007
  989MOL0     C33392   9.077   6.163   9.501  0.5102  0.2788  0.4582
  989MOL0     C33393   9.003   6.265   9.592 -0.3017  0.1413 -0.7442
  989MOL0     C33394   9.030   6.412   9.548  0.2458 -0.0829 -0.1980
  989MOL0     C33395   8.946   6.490   9.649  0.0688 -0.9724  0.2382
  989MOL0     C33396   8.927   6.636   9.612  0.7049  0.7299 -0.2590
  989MOL0     N33397   8.886   6.645   9.473  0.9309  0.4244  0.0719
  989MOL0     C33398   8.759   6.614   9.425 -0.1204  0.5341 -0.9650
  989MOL0     C33399   8.763   6.658   9.298  0.6977  0.0022 -0.1294
  989MOL0     C33400   8.653   6.652   9.199  0.5168 -0.3118 -0.3915
  989MOL0     C33401   8.623   6.514   9.146 -0.2899 -0.5914  0.6701
  989MOL0     C33402   8.508   6.519   9.047 -0.4940  0.0316  0.8895
  989MOL0     C33403   8.448   6.382   9.034  0.6115  1.1491 -0.2525
  989MOL0     O33404   8.329   6.375   8.951  0.0420 -0.3173 -0.5850
  989MOL0     C33405   8.265   6.258   8.945 -0.1762 -0.3364  0.1260
  989MOL0     C33406   8.140   6.245   8.887  0.3043  0.6519 -0.0518
  989MOL0     C33407   8.074   6.124   8.867  0.1980 -0.2270  0.4180
  989MOL0     C33408   7.947   6.137   8.792  0.5086  0.0672 -0.2299
  989MOL0     C33409   8.135   6.001   8.912 -0.0445  0.4581  0.0179
  989MOL0     C33410   8.064   5.867   8.926  0.6738 -0.2421  1.3501
  989MOL0     O33411   8.149   5.773   8.983 -0.3281  0.0678  0.2181
  989MOL0     C33412   8.110   5.641   8.983 -0.0740 -0.1499  0.6799
  989MOL0     C33413   8.201   5.555   8.924 -0.3269  0.3722 -0.3274
  989MOL0     C33414   8.170   5.415   8.914  0.7611  0.4222  0.2172
  989MOL0     C33415   8.048   5.367   8.965  0.5160  0.4283  1.0529
  989MOL0     O33416   8.027   5.234   8.959  0.1254 -0.0791  0.0832
  989MOL0     C33417   7.900   5.186   8.923  0.6930  0.3391  0.6317
  989MOL0     C33418   7.911   5.111   8.805 -0.3320  0.5403  0.2277
  989MOL0     C33419   7.926   5.186   8.676  0.1052  0.3803  0.6092
  989MOL0     C33420   8.049   5.140   8.600  0.5053  0.5365  0.2153
  989MOL0     C33421   8.068   5.219   8.471  0.2353  0.3990  1.1167
  989MOL0     C33422   8.182   5.173   8.372 -0.9341 -0.2099  0.1029
  989MOL0     C33423   8.154   5.037   8.305  0.6154 -0.3033  0.0417
  989MOL0     C33424   8.270   4.994   8.219 -0.3269  0.6166  0.6348
  989MOL0    Cl33425   8.433   5.031   8.284 -0.2004  0.1088 -0.3073
  989MOL0     C33426   7.956   5.455   9.029 -0.4149 -0.4408  0.0008
  989MOL0     C33427   7.991   5.590   9.038 -0.2936 -0.2390  0.5540
  989MOL0     O33428   7.953   5.848   8.894  0.2460  0.1908  0.7275
  989MOL0     C33429   8.254   6.017   8.980  0.1647  0.3987  0.8431
  989MOL0     C33430   8.325   6.135   8.991  0.0058 -0.6759  1.3999
  989MOL0     N33431   8.878   6.717   9.267 -0.5955 -0.4351 -0.3423
  989MOL0     N33432   8.954   6.709   9.376  0.7061 -0.3358 -0.1360
  989MOL0     C33433   9.581   5.989   9.645  0.2462  0.6602 -0.9896
  989MOL0     C33434   9.712   6.019   9.633 -0.3418 -0.0853  0.5666
  989MOL0     C33435  10.143   6.035   9.552 -0.8171 -0.5185 -0.2043
  989MOL0     C33436  10.174   6.115   9.435  0.0916  0.8339 -0.1460
  989MOL0     C33437  10.308   6.131   9.400 -0.5869 -0.5973  0.0953
  989MOL0     C33438  10.411   6.091   9.486  0.0594  0.3419 -0.2770
  989MOL0     O33439  10.547   6.108   9.469  0.1136  0.3614 -0.4738
  989MOL0     C33440  10.594   6.216   9.389 -0.0888  0.2485 -0.2582
  989MOL0     C33441  10.737   6.222   9.429  0.4647  0.0453 -0.5471
  989MOL0     C33442  10.819   6.138   9.317 -0.3925  0.0443  0.8211
  989MOL0     C33443  10.965   6.101   9.361  0.1220 -0.4269  0.1943
  989MOL0     C33444  11.027   6.226   9.394 -0.5946 -0.2832 -0.3386
  989MOL0     C33445  11.085   6.324   9.435  0.4607  0.1126 -0.6487
  989MOL0     C33446  10.377   6.022   9.605 -0.1830  0.3431  0.2929
  989MOL0     C33447  10.244   5.997   9.635 -0.1975  0.3494 -0.3922
  989MOL0     H33448   9.742   6.072   9.299 -0.3516  1.1066 -1.1115
  989MOL0     H33449   9.501   6.026   9.317  2.3903 -0.4273 -1.2260
  989MOL0     H33450   9.288   6.062   9.379 -1.7950 -0.9285 -0.8810
  989MOL0     H33451   9.320   5.888   9.351  0.3197 -0.7807  0.5427
  989MOL0     H33452   9.077   5.938   9.360 -1.0848 -0.9778  0.9149
  989MOL0     H33453   9.135   5.826   9.478  2.6220  0.7090  2.2469
  989MOL0     H33454   8.970   5.991   9.548  0.2272 -0.5713 -0.4796
  989MOL0     H33455   9.119   6.006   9.650 -0.9222 -1.0868  0.7690
  989MOL0     H33456   9.180   6.198   9.497  0.5804 -0.0116 -0.2859
  989MOL0     H33457   9.036   6.175   9.401  0.3660  0.2645  0.5147
  989MOL0     H33458   8.900   6.228   9.585  0.6232 -3.1458  0.9069
  989MOL0     H33459   9.044   6.254   9.693  0.2655 -1.2826 -1.1135
  989MOL0     H33460   9.136   6.440   9.557 -0.1912  1.0252  2.3595
  989MOL0     H33461   9.002   6.426   9.444 -1.1653 -3.4616 -0.4069
  989MOL0     H33462   8.843   6.453   9.646 -0.4935  0.5730 -0.3749
  989MOL0     H33463   8.977   6.487   9.754 -0.3348  3.6523  0.6949
  989MOL0     H33464   9.025   6.682   9.626  0.9706 -0.1134  0.8163
  989MOL0     H33465   8.850   6.683   9.674  1.8373  1.1593  0.8635
  989MOL0     H33466   8.684   6.552   9.475 -1.3677  2.0200 -0.9158
  989MOL0     H33467   8.562   6.685   9.249  1.6562 -2.0244  3.1534
  989MOL0     H33468   8.665   6.726   9.120 -4.2770  1.2300  0.0129
  989MOL0     H33469   8.594   6.464   9.240  2.0480 -1.4355  1.0030
  989MOL0     H33470   8.713   6.469   9.104 -0.9092 -3.5694  2.2352
  989MOL0     H33471   8.538   6.551   8.946 -0.6490  3.7693  1.8872
  989MOL0     H33472   8.438   6.598   9.075  1.2612  1.8716  0.3711
  989MOL0     H33473   8.431   6.341   9.134  3.8082  2.1738  0.8093
  989MOL0     H33474   8.516   6.309   8.990  0.1699 -0.1900  1.1890
  989MOL0     H33475   8.097   6.337   8.849 -1.2648  0.0779  0.2714
  989MOL0     H33476   7.943   6.212   8.713 -1.5741  0.3404  0.0928
  989MOL0     H33477   7.908   6.044   8.749  1.1250 -1.0054  1.4141
  989MOL0     H33478   7.864   6.158   8.861  0.1337 -3.1924  0.5115
  989MOL0     H33479   8.296   5.576   8.877  0.7969 -0.0990  1.6175
  989MOL0     H33480   8.247   5.349   8.874  1.3907  0.1092  1.8627
  989MOL0     H33481   7.847   5.134   9.003 -2.7105 -0.7129 -2.0367
  989MOL0     H33482   7.832   5.268   8.898 -0.5807 -0.2374  2.0284
  989MOL0     H33483   7.998   5.045   8.811 -0.9168 -0.8304 -3.6176
  989MOL0     H33484   7.837   5.034   8.782  1.9218 -0.7757 -3.5117
  989MOL0     H33485   7.935   5.292   8.703  0.0781  0.5584 -0.0753
  989MOL0     H33486   7.831   5.184   8.623  0.7838  3.4618 -0.9510
  989MOL0     H33487   8.141   5.166   8.652  1.5024 -0.2452 -1.1018
  989MOL0     H33488   8.054   5.033   8.579 -1.4871  0.3704  0.3382
  989MOL0     H33489   8.075   5.324   8.499  1.3166 -0.1178  2.9511
  989MOL0     H33490   7.974   5.199   8.418  1.3146  0.7604 -1.0729
  989MOL0     H33491   8.177   5.254   8.299 -3.4655  0.1126  0.5335
  989MOL0     H33492   8.278   5.172   8.425 -0.1363  0.8704 -1.2461
  989MOL0     H33493   8.067   5.062   8.244  0.2036 -0.5883  0.4996
  989MOL0     H33494   8.111   4.964   8.375  0.3111 -1.7709 -1.5941
  989MOL0     H33495   8.262   5.060   8.132 -1.3819  1.2993  1.2179
  989MOL0     H33496   8.251   4.892   8.185 -0.2285  1.0880 -0.9214
  989MOL0     H33497   7.855   5.424   9.051 -0.8322  0.8691 -0.0044
  989MOL0     H33498   7.916   5.662   9.068  0.3551  0.7668 -0.1819
  989MOL0     H33499   8.299   5.933   9.032  0.5412 -1.0343 -1.6101
  989MOL0     H33500   8.413   6.127   9.054  1.2652 -3.7607 -0.5120
  989MOL0     H33501   9.525   5.969   9.736 -2.6976 -1.2244 -3.0162
  989MOL0     H33502   9.766   6.037   9.725 -0.5636  0.0648  0.6690
  989MOL0     H33503  10.095   6.139   9.364 -1.3192  1.3361  1.5484
  989MOL0     H33504  10.335   6.168   9.302 -0.4094 -0.4830  0.1868
  989MOL0     H33505  10.565   6.197   9.285 -1.1310  1.4925 -0.2191
  989MOL0     H33506  10.544   6.311   9.411 -0.2653  0.0135  0.3883
  989MOL0     H33507  10.752   6.173   9.526  0.0769  1.0711  0.0421
  989MOL0     H33508  10.775   6.324   9.439  0.5256 -0.1109  1.1774
  989MOL0     H33509  10.816   6.197   9.226  3.5232 -0.9262 -0.1471
  989MOL0     H33510  10.766   6.046   9.292  0.0778 -0.2340  0.8292
  989MOL0     H33511  11.007   6.047   9.275 -1.6333  1.5056 -2.0026
  989MOL0     H33512  10.970   6.031   9.445  2.3810 -0.8457 -0.2213
  989MOL0     H33513  11.140   6.399   9.489  0.7272 -0.9234  0.5492
  989MOL0     H33514  10.450   5.986   9.677  2.2151  3.2312 -0.4876
  989MOL0     H33515  10.220   5.954   9.732  0.8827  3.6011  1.4659
  990MOL0     O33516   2.392   2.557  10.936 -0.5951 -0.4442  0.9496
  990MOL0     C33517   2.417   2.463  11.004 -0.4019  0.6746  0.0729
  990MOL0     O33518   2.335   2.409  11.095 -0.5396  0.2874  0.2116
  990MOL0     C33519   2.225   2.489  11.131 -0.9313  0.6053  0.0266
  990MOL0     C33520   2.232   2.554  11.248  0.5539 -0.0599 -0.4081
  990MOL0     C33521   2.130   2.648  11.277  0.2091  0.2882 -0.3850
  990MOL0     C33522   2.022   2.674  11.195 -0.5952  0.8729 -0.1834
  990MOL0     O33523   1.941   2.775  11.231  0.1859 -0.1031  0.4392
  990MOL0     C33524   1.805   2.730  11.264 -0.6832 -0.4572 -0.3758
  990MOL0     C33525   1.767   2.792  11.395  0.0984  0.1574 -0.0602
  990MOL0     C33526   1.721   2.936  11.375  0.0941 -1.0873  0.0780
  990MOL0     C33527   1.623   2.986  11.482 -0.2611 -0.0890 -0.3977
  990MOL0     C33528   1.566   3.118  11.430  0.7495  0.0949 -1.1718
  990MOL0     C33529   1.489   3.187  11.537  0.4078 -0.2919 -0.4031
  990MOL0     C33530   1.377   3.113  11.596  0.1108  1.2249 -0.7415
  990MOL0     C33531   1.269   3.209  11.650  0.3438 -0.5427 -0.2523
  990MOL0     N33532   1.135   3.225  11.586 -0.3218 -0.1047 -0.0965
  990MOL0     C33533   1.048   3.117  11.564  0.7127 -0.5375 -0.0987
  990MOL0     C33534   0.935   3.171  11.521  1.2721 -0.0080 -0.3519
  990MOL0     C33535   0.800   3.100  11.502  0.1155 -0.5643  0.4732
  990MOL0     C33536   0.782   3.076  11.357 -0.1551 -0.3820  0.3490
  990MOL0     C33537   0.652   3.131  11.298  0.6068 -1.2122  0.9462
  990MOL0     C33538   0.649   3.289  11.286 -1.4233  0.3435  0.2131
  990MOL0     O33539   0.560   3.355  11.376  0.4492  0.1394  0.1902
  990MOL0     C33540   0.436   3.397  11.334  0.9439 -0.3576  0.3240
  990MOL0     C33541   0.345   3.408  11.436  0.0672  0.4672 -0.5653
  990MOL0     C33542   0.214   3.464  11.401 -0.6381  0.0356 -0.8591
  990MOL0     C33543   0.123   3.476  11.515 -0.0344 -0.4278 -0.8276
  990MOL0     C33544   0.174   3.491  11.262 -0.8916 -0.0268  0.2264
  990MOL0     C33545   0.036   3.528  11.217  0.8476 -0.6699 -0.4238
  990MOL0     O33546   0.030   3.631  11.127  0.1956  0.0883  0.0921
  990MOL0     C33547  -0.080   3.673  11.056  0.1761 -0.2601 -0.1848
  990MOL0     C33548  -0.057   3.793  10.980  0.1851  0.1936  0.4209
  990MOL0     C33549  -0.167   3.854  10.918  0.3841 -0.0694 -0.7022
  990MOL0     C33550  -0.295   3.789  10.902  0.3451 -0.5515  0.2856
  990MOL0     O33551  -0.392   3.860  10.838  0.2868 -0.7838  0.3965
  990MOL0     C33552  -0.517   3.806  10.826  1.0245 -0.0627 -0.3017
  990MOL0     C33553  -0.617   3.910  10.773  0.1356 -0.2233  0.2470
  990MOL0     C33554  -0.593   3.946  10.620 -0.2869  0.2800  0.4580
  990MOL0     C33555  -0.606   3.833  10.526  0.1315 -0.2207  0.7634
  990MOL0     C33556  -0.601   3.876  10.368 -0.4544  0.2100 -0.0657
  990MOL0     C33557  -0.468   3.955  10.336 -0.3271  0.9173 -0.0478
  990MOL0     C33558  -0.464   3.973  10.180  0.9795  0.3787 -0.6833
  990MOL0     C33559  -0.563   4.080  10.137  0.5192 -0.7665  0.1871
  990MOL0    Cl33560  -0.715   3.988  10.108 -0.2381  0.0951  0.4832
  990MOL0     C33561  -0.309   3.658  10.962  0.2514 -0.7310 -0.5088
  990MOL0     C33562  -0.207   3.609  11.045  0.0427 -0.6412  0.3148
  990MOL0     O33563  -0.059   3.466  11.269 -0.1452 -0.1546  0.5941
  990MOL0     C33564   0.275   3.489  11.171  0.0353 -0.1263  0.4861
  990MOL0     C33565   0.404   3.444  11.209  0.2669  0.3683  0.4021
  990MOL0     N33566   0.943   3.306  11.510  0.0531  0.0464 -0.0819
  990MOL0     N33567   1.060   3.340  11.553  0.3805  0.5910  0.0110
  990MOL0     C33568   2.015   2.608  11.079 -0.4570 -0.1095 -0.7300
  990MOL0     C33569   2.113   2.506  11.045  0.3997 -0.1120  0.4126
  990MOL0     C33570   2.565   2.431  10.992  1.0397  0.3430  0.2783
  990MOL0     C33571   2.645   2.463  10.881 -0.7764 -0.0909  0.1277
  990MOL0     C33572   2.777   2.429  10.873 -0.1893 -0.1997  0.1898
  990MOL0     C33573   2.845   2.365  10.985 -0.2600 -0.6861  1.3643
  990MOL0     O33574   2.983   2.348  10.990  0.4952  0.6896  0.1770
  990MOL0     C33575   3.056   2.462  10.943  0.5915 -0.3740  0.2958
  990MOL0     C33576   3.178   2.429  10.863 -0.3045  0.1088 -0.3770
  990MOL0     C33577   3.153   2.364  10.727 -0.0002 -0.4769  0.0318
  990MOL0     C33578   3.187   2.451  10.605  0.9760  0.1231  0.3446
  990MOL0     C33579   3.082   2.551  10.590 -0.6021  0.3445  0.1626
  990MOL0     C33580   2.993   2.629  10.587  0.6003  0.5844  0.4254
  990MOL0     C33581   2.760   2.332  11.088  0.0420  0.6259  0.0464
  990MOL0     C33582   2.628   2.357  11.097  0.4445 -0.2780 -0.4961
  990MOL0     H33583   2.309   2.530  11.321  1.0054  1.0756 -0.4842
  990MOL0     H33584   2.128   2.707  11.368 -0.3239 -1.0879  0.5217
  990MOL0     H33585   1.739   2.752  11.180  2.4016 -1.7546 -3.3842
  990MOL0     H33586   1.803   2.621  11.267 -2.4568 -0.4667 -0.9449
  990MOL0     H33587   1.674   2.744  11.425  0.5858  0.4353  2.0630
  990MOL0     H33588   1.841   2.782  11.475  1.5430  1.7502 -1.1013
  990MOL0     H33589   1.812   2.998  11.376 -1.0391  0.6452  0.3713
  990MOL0     H33590   1.679   2.931  11.274 -0.5172 -2.7718  0.3933
  990MOL0     H33591   1.546   2.910  11.498 -0.7657  0.5406  0.2198
  990MOL0     H33592   1.673   2.998  11.579 -2.6592 -2.4300  1.2632
  990MOL0     H33593   1.654   3.176  11.402  0.0163  2.0984  0.3671
  990MOL0     H33594   1.507   3.107  11.339  0.8237 -1.4590 -1.0488
  990MOL0     H33595   1.554   3.213  11.622  0.7035 -2.3276  0.0478
  990MOL0     H33596   1.458   3.279  11.487  1.7122 -0.1134 -0.9392
  990MOL0     H33597   1.320   3.050  11.527 -1.8848  1.9525  0.1651
  990MOL0     H33598   1.421   3.047  11.672 -0.4911 -1.5920 -2.6402
  990MOL0     H33599   1.294   3.312  11.675 -0.1443 -0.5982  0.4636
  990MOL0     H33600   1.242   3.175  11.750 -0.4580 -2.2197 -1.0001
  990MOL0     H33601   1.073   3.014  11.586  1.0855 -0.3381  0.4278
  990MOL0     H33602   0.802   3.005  11.555  1.6263  0.6138  2.7289
  990MOL0     H33603   0.721   3.158  11.551  0.3916  0.3407 -0.1300
  990MOL0     H33604   0.778   2.967  11.345  2.1042 -0.4132 -0.6778
  990MOL0     H33605   0.865   3.109  11.294 -0.6350  1.9934  0.8900
  990MOL0     H33606   0.569   3.099  11.362 -0.6445 -0.0959 -0.0437
  990MOL0     H33607   0.641   3.097  11.194 -1.5617  0.2356  0.6314
  990MOL0     H33608   0.642   3.317  11.181  2.2208  0.1515 -0.2070
  990MOL0     H33609   0.745   3.327  11.321 -1.9965 -0.1785  2.5427
  990MOL0     H33610   0.368   3.382  11.539 -2.2086  1.4204  0.2729
  990MOL0     H33611   0.166   3.465  11.615  1.1750  0.9718 -1.1470
  990MOL0     H33612   0.072   3.573  11.518 -0.0877 -0.4729  0.6293
  990MOL0     H33613   0.046   3.400  11.502  0.0016 -1.0647  1.9715
  990MOL0     H33614   0.042   3.837  10.987 -0.7296  2.2278  1.6802
  990MOL0     H33615  -0.155   3.947  10.864 -0.5169 -0.0830 -0.9398
  990MOL0     H33616  -0.530   3.713  10.769  0.1475  0.5479 -1.1203
  990MOL0     H33617  -0.545   3.780  10.929  1.3704  0.6297 -0.0245
  990MOL0     H33618  -0.718   3.869  10.783 -0.7617  2.3490  3.9489
  990MOL0     H33619  -0.607   3.999  10.836 -1.1190 -1.1498  1.8215
  990MOL0     H33620  -0.498   3.998  10.608  0.4095 -0.6849  1.5805
  990MOL0     H33621  -0.668   4.023  10.599 -0.8975 -0.0804  1.2285
  990MOL0     H33622  -0.538   3.748  10.539  0.7684 -0.3881 -2.7769
  990MOL0     H33623  -0.709   3.805  10.554  0.2837 -1.5739  0.0736
  990MOL0     H33624  -0.677   3.954  10.366  0.1927  0.8344 -0.5289
  990MOL0     H33625  -0.625   3.790  10.305  0.0273  1.2738 -1.7403
  990MOL0     H33626  -0.477   4.052  10.386 -3.2739  0.6595  0.0463
  990MOL0     H33627  -0.387   3.887  10.366 -1.0255 -0.6459 -1.5331
  990MOL0     H33628  -0.467   3.881  10.121  1.4706  1.0447 -1.7693
  990MOL0     H33629  -0.361   4.006  10.160  0.2041  2.9637 -0.8086
  990MOL0     H33630  -0.538   4.135  10.046 -2.1988 -1.7494 -1.2717
  990MOL0     H33631  -0.590   4.152  10.215  1.1640  2.1056 -2.0350
  990MOL0     H33632  -0.403   3.605  10.956 -1.7070  1.6156  3.9910
  990MOL0     H33633  -0.219   3.508  11.084 -1.5983  0.0520  1.7831
  990MOL0     H33634   0.238   3.528  11.077 -2.4254  3.1000  2.5565
  990MOL0     H33635   0.488   3.439  11.140  0.4435 -0.8481  0.6728
  990MOL0     H33636   1.937   2.626  11.006 -1.0752 -0.7666 -0.2446
  990MOL0     H33637   2.100   2.441  10.959  2.9993 -3.7167  2.4725
  990MOL0     H33638   2.601   2.510  10.793  0.2007 -0.6439 -0.6804
  990MOL0     H33639   2.819   2.444  10.774  0.9810  0.2519  0.7230
  990MOL0     H33640   2.998   2.519  10.870 -1.6936 -2.9686 -0.0856
  990MOL0     H33641   3.094   2.524  11.025 -1.0284 -2.0227  2.4102
  990MOL0     H33642   3.243   2.358  10.915  1.0536  1.0606 -0.7045
  990MOL0     H33643   3.229   2.525  10.849  0.2672  0.2230  1.9937
  990MOL0     H33644   3.045   2.345  10.726  0.0538 -0.7901 -0.2725
  990MOL0     H33645   3.200   2.267  10.707 -0.2568 -0.4227 -0.8950
  990MOL0     H33646   3.185   2.392  10.512  1.3447  0.4523  0.1246
  990MOL0     H33647   3.291   2.484  10.610  0.6111  1.1346  1.6344
  990MOL0     H33648   2.912   2.699  10.577 -1.8492 -2.1886 -0.4791
  990MOL0     H33649   2.811   2.279  11.167 -1.0422 -0.0411  0.3143
  990MOL0     H33650   2.582   2.330  11.191  3.1720  3.4205  2.1977
  991MOL0     O33651   7.005   3.852   3.568 -0.8816  0.1405  0.5255
  991MOL0     C33652   7.001   3.905   3.679  0.1740 -0.2195  0.8401
  991MOL0     O33653   6.913   3.995   3.722 -0.2323 -0.3995 -0.7687
  991MOL0     C33654   6.830   4.064   3.631  0.3132  0.4802 -1.0759
  991MOL0     C33655   6.858   4.098   3.497 -0.3226  0.3736  0.5407
  991MOL0     C33656   6.761   4.153   3.416 -0.3202 -0.9003  0.5725
  991MOL0     C33657   6.642   4.198   3.476  0.2120 -0.0975  1.1336
  991MOL0     O33658   6.545   4.274   3.414  0.0560 -0.4042  0.4871
  991MOL0     C33659   6.573   4.340   3.288  0.2698 -0.0046 -0.4874
  991MOL0     C33660   6.451   4.418   3.234  1.2425  0.1859 -1.1298
  991MOL0     C33661   6.469   4.439   3.091 -0.6719  0.4317  0.4297
  991MOL0     C33662   6.371   4.545   3.040  0.0695 -0.4140  0.7436
  991MOL0     C33663   6.378   4.559   2.888 -0.5092  0.3755  0.0681
  991MOL0     C33664   6.335   4.692   2.841 -0.2548 -0.4404  0.2833
  991MOL0     C33665   6.335   4.696   2.691 -0.4440 -0.7594  0.8160
  991MOL0     C33666   6.237   4.605   2.624 -0.9761 -0.1161  0.2771
  991MOL0     N33667   6.096   4.627   2.664  0.5247 -0.3560 -0.4897
  991MOL0     C33668   6.036   4.746   2.658  0.4817 -0.4758 -0.1257
  991MOL0     C33669   5.934   4.746   2.740  0.5177  0.1002 -0.2196
  991MOL0     C33670   5.848   4.858   2.788 -0.1706  0.2257  0.2049
  991MOL0     C33671   5.934   4.929   2.901 -0.4884  0.4955  0.9244
  991MOL0     C33672   5.861   5.037   2.982  0.1680 -0.2624 -0.0976
  991MOL0     C33673   5.763   4.995   3.088  0.4420 -0.1886  0.2652
  991MOL0     O33674   5.824   4.937   3.205  0.0728 -0.5084 -0.3259
  991MOL0     C33675   5.769   4.927   3.325  0.4977  0.5463 -0.6506
  991MOL0     C33676   5.826   4.836   3.415 -0.8476  0.1088  0.1150
  991MOL0     C33677   5.779   4.814   3.548  0.0739  0.3620  0.9403
  991MOL0     C33678   5.854   4.708   3.625  0.3291 -0.4955  0.4082
  991MOL0     C33679   5.664   4.881   3.594 -0.2777  0.5292  0.4628
  991MOL0     C33680   5.610   4.879   3.733  0.3702  0.7215  0.1361
  991MOL0     O33681   5.687   4.847   3.842 -0.0286 -0.3518  0.6474
  991MOL0     C33682   5.638   4.868   3.968  0.9063  0.3467  0.9437
  991MOL0     C33683   5.544   4.969   4.012  0.1045  0.2062  0.2137
  991MOL0     C33684   5.515   4.976   4.146  0.5999 -0.7881  0.2483
  991MOL0     C33685   5.552   4.874   4.233 -0.7227 -0.5089 -0.1133
  991MOL0     O33686   5.519   4.889   4.365 -0.3386  0.4511  0.0692
  991MOL0     C33687   5.450   4.782   4.436 -1.5458  0.7510  0.0882
  991MOL0     C33688   5.293   4.805   4.414  0.5208  0.0239 -0.1692
  991MOL0     C33689   5.213   4.677   4.462 -1.0178 -0.4159 -0.2436
  991MOL0     C33690   5.056   4.687   4.445  0.0020  0.1811  0.6552
  991MOL0     C33691   4.991   4.578   4.530  0.8108  0.8150  0.3656
  991MOL0     C33692   4.830   4.600   4.533  0.6813  0.4310  0.1968
  991MOL0     C33693   4.768   4.595   4.389 -0.0776 -0.3572  0.0598
  991MOL0     C33694   4.616   4.562   4.397 -0.1562 -0.1765 -0.0056
  991MOL0    Cl33695   4.593   4.410   4.497  0.1049 -0.0750 -0.1799
  991MOL0     C33696   5.638   4.776   4.193 -0.1655  0.3426  0.5571
  991MOL0     C33697   5.681   4.773   4.059 -0.4850  0.3570 -0.5785
  991MOL0     O33698   5.487   4.904   3.738 -0.1249 -0.1816  0.5073
  991MOL0     C33699   5.599   4.958   3.495 -0.0004  0.2421  0.4072
  991MOL0     C33700   5.651   4.985   3.369  0.3850 -1.2637  0.3288
  991MOL0     N33701   5.929   4.613   2.785  0.0286 -0.8352  0.1597
  991MOL0     N33702   6.017   4.544   2.727  0.2157  0.6045 -0.1434
  991MOL0     C33703   6.609   4.160   3.601 -0.7114  0.4193  0.0810
  991MOL0     C33704   6.703   4.093   3.679  0.6130 -0.0746 -0.7586
  991MOL0     C33705   7.096   3.862   3.789 -1.4739  1.0525  0.0452
  991MOL0     C33706   7.206   3.781   3.757 -0.5635  0.4425 -0.1401
  991MOL0     C33707   7.302   3.754   3.851  1.1763  0.5979 -0.9752
  991MOL0     C33708   7.291   3.800   3.981 -0.0941  0.7408 -0.9947
  991MOL0     O33709   7.387   3.770   4.075  0.4074 -0.4974 -0.0633
  991MOL0     C33710   7.516   3.721   4.035  0.4299  0.3375  0.5381
  991MOL0     C33711   7.508   3.572   4.013 -0.1689 -0.1946 -0.0582
  991MOL0     C33712   7.488   3.498   4.146 -0.8167  0.4271  0.3024
  991MOL0     C33713   7.486   3.342   4.129 -0.5973 -0.2803 -0.1266
  991MOL0     C33714   7.614   3.293   4.080 -0.8322  0.4869 -0.5802
  991MOL0     C33715   7.723   3.254   4.032  0.3528  0.1073 -0.1114
  991MOL0     C33716   7.175   3.874   4.018  0.8776  0.9105  0.5170
  991MOL0     C33717   7.074   3.896   3.928  0.8502 -0.0827 -0.0838
  991MOL0     H33718   6.951   4.081   3.443 -1.7227  2.0061 -2.6603
  991MOL0     H33719   6.806   4.180   3.321  1.7873 -3.4463  0.7415
  991MOL0     H33720   6.666   4.395   3.301  1.6802 -2.6703  1.6067
  991MOL0     H33721   6.601   4.257   3.223 -0.4388 -0.1476 -0.6168
  991MOL0     H33722   6.375   4.340   3.239  2.3237 -1.0333 -2.8268
  991MOL0     H33723   6.434   4.507   3.296 -1.9766 -0.8010 -0.3905
  991MOL0     H33724   6.571   4.476   3.080 -0.5133  0.0773  0.6706
  991MOL0     H33725   6.463   4.348   3.031 -1.3948  1.1667 -0.6343
  991MOL0     H33726   6.265   4.530   3.061  0.2600  1.5113  3.8235
  991MOL0     H33727   6.391   4.640   3.091 -0.2235  0.4867 -0.7567
  991MOL0     H33728   6.483   4.554   2.859 -0.0052  2.3971  1.3344
  991MOL0     H33729   6.328   4.480   2.832 -1.1176  1.7022 -1.3062
  991MOL0     H33730   6.233   4.713   2.874 -0.1466  2.0998 -0.7101
  991MOL0     H33731   6.396   4.776   2.878 -0.8028  0.5037 -0.8891
  991MOL0     H33732   6.325   4.799   2.654 -1.0361 -1.7775 -2.1735
  991MOL0     H33733   6.430   4.664   2.648 -1.0106  0.5570 -1.6753
  991MOL0     H33734   6.260   4.498   2.633  3.1360  0.8001  3.3829
  991MOL0     H33735   6.237   4.626   2.516  1.1171  0.8063  0.4162
  991MOL0     H33736   6.057   4.832   2.595  1.2876 -2.5964 -2.9614
  991MOL0     H33737   5.826   4.924   2.704 -0.1272 -0.5528 -0.4310
  991MOL0     H33738   5.758   4.816   2.834  1.2746 -0.3127  2.6845
  991MOL0     H33739   6.035   4.954   2.865  0.3586 -3.0207  0.4119
  991MOL0     H33740   5.968   4.850   2.969 -1.4777  0.2022  1.0946
  991MOL0     H33741   5.832   5.117   2.914  0.7509  0.1010  0.0751
  991MOL0     H33742   5.936   5.094   3.037 -1.7720  0.3735  2.0717
  991MOL0     H33743   5.694   4.921   3.046  0.6090 -0.9701  1.3295
  991MOL0     H33744   5.714   5.090   3.111  3.1362  0.8842  2.1424
  991MOL0     H33745   5.922   4.787   3.400 -2.2018 -2.4100 -1.0533
  991MOL0     H33746   5.949   4.685   3.576 -0.0082  0.9054 -0.9569
  991MOL0     H33747   5.895   4.757   3.714 -1.3702  1.7763  0.0246
  991MOL0     H33748   5.792   4.620   3.644 -0.2820 -0.1944 -0.1620
  991MOL0     H33749   5.512   5.047   3.944  0.4671  0.9014  0.8274
  991MOL0     H33750   5.449   5.048   4.192  2.0493 -1.5731  3.8727
  991MOL0     H33751   5.477   4.686   4.391 -2.1230  0.3843  0.5103
  991MOL0     H33752   5.465   4.783   4.544  1.6732  0.1798 -0.2570
  991MOL0     H33753   5.262   4.885   4.482 -0.1466  0.2223 -0.6942
  991MOL0     H33754   5.268   4.845   4.315  1.0128  0.5231 -0.0949
  991MOL0     H33755   5.247   4.660   4.565  4.1468  2.2594 -1.1711
  991MOL0     H33756   5.242   4.590   4.403  2.5106 -1.0656  2.1209
  991MOL0     H33757   5.023   4.781   4.489  3.5353  0.9997  1.9487
  991MOL0     H33758   5.029   4.680   4.339 -2.0537  0.6439  1.1214
  991MOL0     H33759   5.028   4.580   4.633 -1.5057 -2.0983  1.4121
  991MOL0     H33760   5.017   4.479   4.491  0.6228  1.4200 -1.3933
  991MOL0     H33761   4.788   4.518   4.592 -1.4232  2.7553  2.1520
  991MOL0     H33762   4.793   4.691   4.581 -1.3899 -0.7826  1.0418
  991MOL0     H33763   4.826   4.530   4.324  0.1408  0.9742 -1.1089
  991MOL0     H33764   4.777   4.694   4.345  3.7227 -0.8890 -0.6173
  991MOL0     H33765   4.586   4.552   4.292 -0.4997 -2.0985  0.2284
  991MOL0     H33766   4.556   4.642   4.441 -2.6663 -2.1263  0.3472
  991MOL0     H33767   5.658   4.698   4.266 -0.9121  1.7250  2.3156
  991MOL0     H33768   5.745   4.689   4.032 -0.9578  0.3745 -1.8358
  991MOL0     H33769   5.510   5.015   3.521 -1.6404 -1.6532 -0.8246
  991MOL0     H33770   5.596   5.051   3.302  0.2179  1.6332  3.0551
  991MOL0     H33771   6.514   4.190   3.645 -0.6907  0.5285  0.0520
  991MOL0     H33772   6.674   4.074   3.781  0.6446  3.7259  0.1013
  991MOL0     H33773   7.227   3.738   3.659  4.2847 -1.4022  1.4429
  991MOL0     H33774   7.390   3.697   3.822  0.6299 -0.2044 -1.0891
  991MOL0     H33775   7.556   3.780   3.952  1.1902  1.1593  1.4543
  991MOL0     H33776   7.581   3.739   4.122 -0.2155 -1.9383  1.5708
  991MOL0     H33777   7.597   3.548   3.955 -0.0863 -0.4048  0.1545
  991MOL0     H33778   7.428   3.545   3.943  0.2434 -2.9223  0.4233
  991MOL0     H33779   7.391   3.523   4.189 -1.6880  0.1974 -1.4294
  991MOL0     H33780   7.568   3.529   4.214 -0.5049  1.7581 -0.6251
  991MOL0     H33781   7.408   3.317   4.056  2.0657 -1.8685 -2.6582
  991MOL0     H33782   7.475   3.294   4.226 -0.2826 -0.8518 -0.3671
  991MOL0     H33783   7.815   3.225   3.985  0.1903  0.5587 -0.7037
  991MOL0     H33784   7.164   3.930   4.111  0.3180  2.8850 -0.6847
  991MOL0     H33785   6.986   3.950   3.964  0.0475 -0.5183 -1.3046
  992MOL0     O33786   0.879   6.237   4.882 -0.8705 -0.3357 -1.0379
  992MOL0     C33787   0.940   6.265   4.782 -0.2655  0.1260  0.3931
  992MOL0     O33788   0.885   6.267   4.649  0.6840 -0.3015 -0.5799
  992MOL0     C33789   0.752   6.244   4.624  0.5773 -0.0149  0.2623
  992MOL0     C33790   0.674   6.136   4.670  0.5720 -0.5264  0.3733
  992MOL0     C33791   0.536   6.128   4.631  0.1952 -0.2245  0.0938
  992MOL0     C33792   0.477   6.229   4.555 -0.3548 -0.2408 -0.3767
  992MOL0     O33793   0.343   6.216   4.540  0.4726  0.1835 -0.0311
  992MOL0     C33794   0.264   6.332   4.512 -0.3204 -0.2800 -0.3855
  992MOL0     C33795   0.134   6.280   4.440 -0.2724 -0.4009  0.3678
  992MOL0     C33796   0.034   6.213   4.534 -0.0250  0.4406 -0.0276
  992MOL0     C33797  -0.062   6.132   4.450  0.7029  0.3210  0.0767
  992MOL0     C33798  -0.190   6.095   4.523  0.2160 -0.1237  0.0153
  992MOL0     C33799  -0.251   5.966   4.470  0.3858 -0.1362  0.1140
  992MOL0     C33800  -0.382   5.949   4.543 -0.3898 -0.1752  0.4514
  992MOL0     C33801  -0.452   5.809   4.516  0.4770 -0.6222 -0.3003
  992MOL0     N33802  -0.563   5.791   4.614 -0.2013  0.1945  0.7741
  992MOL0     C33803  -0.690   5.853   4.603  0.0809  0.5331  0.6467
  992MOL0     C33804  -0.760   5.797   4.700  0.4658 -0.2551  0.0102
  992MOL0     C33805  -0.905   5.819   4.704  0.3750  0.2280 -0.5217
  992MOL0     C33806  -0.969   5.702   4.636  0.0169 -1.0817 -0.4512
  992MOL0     C33807  -1.120   5.730   4.612 -0.0602  0.5925  0.2101
  992MOL0     C33808  -1.207   5.715   4.740 -0.0886 -0.2569 -0.4169
  992MOL0     O33809  -1.215   5.578   4.785  0.0897  0.5253 -0.3264
  992MOL0     C33810  -1.304   5.499   4.724 -0.2079  0.1600  0.4758
  992MOL0     C33811  -1.293   5.362   4.753  0.1530  0.3388 -0.7894
  992MOL0     C33812  -1.391   5.267   4.719 -0.2523 -0.4541 -0.1132
  992MOL0     C33813  -1.373   5.117   4.748  0.4943 -0.4925  0.5416
  992MOL0     C33814  -1.496   5.306   4.642 -0.8773 -0.8316  0.1106
  992MOL0     C33815  -1.593   5.210   4.583  0.3689  0.0089 -0.1553
  992MOL0     O33816  -1.622   5.227   4.457  0.3281  0.0280  0.1922
  992MOL0     C33817  -1.723   5.155   4.404 -0.7740  0.1252 -0.0805
  992MOL0     C33818  -1.707   5.018   4.370  0.2529  0.0119  0.2257
  992MOL0     C33819  -1.818   4.951   4.309  0.1943 -0.3071  0.1438
  992MOL0     C33820  -1.936   5.022   4.268 -0.6339  0.5686 -0.4871
  992MOL0     O33821  -2.043   4.961   4.210 -0.3531  0.7093  0.2319
  992MOL0     C33822  -2.057   4.819   4.209  0.3831  0.6942 -1.2298
  992MOL0     C33823  -2.187   4.769   4.154 -0.0568 -0.3729  0.1611
  992MOL0     C33824  -2.213   4.813   4.010 -0.6187 -0.9058 -0.1720
  992MOL0     C33825  -2.340   4.762   3.948 -0.1469 -0.4150  0.3788
  992MOL0     C33826  -2.363   4.830   3.815 -0.4519  0.5941  0.2210
  992MOL0     C33827  -2.492   4.768   3.745 -0.1538 -0.2696 -0.4300
  992MOL0     C33828  -2.457   4.652   3.659  0.9089  0.4060  0.6534
  992MOL0     C33829  -2.578   4.592   3.587 -0.6467  0.5524  0.1414
  992MOL0    Cl33830  -2.650   4.700   3.477  0.3704  0.2614 -0.1163
  992MOL0     C33831  -1.938   5.156   4.297 -0.1047 -0.0018 -1.5557
  992MOL0     C33832  -1.839   5.225   4.370  0.1415 -0.0253 -0.0231
  992MOL0     O33833  -1.662   5.143   4.665  0.5477 -0.4671  0.6480
  992MOL0     C33834  -1.497   5.441   4.599  0.9681  0.6095  0.1297
  992MOL0     C33835  -1.412   5.537   4.636  0.0924 -0.6504  0.0580
  992MOL0     N33836  -0.684   5.707   4.774 -0.5210 -0.6384  0.0865
  992MOL0     N33837  -0.568   5.698   4.718 -0.1808 -1.0902  0.5365
  992MOL0     C33838   0.555   6.325   4.506 -0.0039 -0.0213  0.2308
  992MOL0     C33839   0.693   6.336   4.539  0.2953  0.0884  0.7626
  992MOL0     C33840   1.076   6.311   4.792 -0.0833  0.3490 -0.2391
  992MOL0     C33841   1.157   6.333   4.681  0.3898 -0.6248  0.3410
  992MOL0     C33842   1.284   6.383   4.693 -0.2268  0.7883  0.7378
  992MOL0     C33843   1.348   6.401   4.816  0.4204 -0.5255 -0.2006
  992MOL0     O33844   1.487   6.446   4.825  0.0021 -0.0751  0.4177
  992MOL0     C33845   1.583   6.376   4.741 -0.2342 -0.0925 -0.9793
  992MOL0     C33846   1.705   6.379   4.825  0.1886  0.2261 -0.2559
  992MOL0     C33847   1.825   6.317   4.760  0.1717  0.6679  0.4231
  992MOL0     C33848   1.942   6.301   4.860  0.3517 -0.3097 -0.5750
  992MOL0     C33849   2.063   6.294   4.786 -1.1541  0.5618 -0.1816
  992MOL0     C33850   2.176   6.280   4.729  0.5882  0.5977 -0.1824
  992MOL0     C33851   1.272   6.374   4.931 -0.0447 -0.2188  0.0590
  992MOL0     C33852   1.137   6.330   4.926 -0.5008 -0.1354 -0.1365
  992MOL0     H33853   0.713   6.067   4.744 -2.4235  0.1824  2.7962
  992MOL0     H33854   0.481   6.045   4.675 -1.6471  1.6373  1.4901
  992MOL0     H33855   0.244   6.400   4.595 -3.4435  1.7373 -2.5744
  992MOL0     H33856   0.313   6.399   4.441  0.1639 -1.6914 -1.4322
  992MOL0     H33857   0.085   6.357   4.380  0.1281  0.1341  0.7205
  992MOL0     H33858   0.168   6.206   4.367  2.6836 -0.4303  1.6226
  992MOL0     H33859   0.083   6.142   4.603  0.6152  0.9584  0.0641
  992MOL0     H33860  -0.018   6.283   4.599 -0.1847 -0.7418  1.1672
  992MOL0     H33861  -0.088   6.178   4.354 -1.5033 -3.6081 -1.4672
  992MOL0     H33862  -0.016   6.044   4.405 -2.4106 -1.0235 -0.7251
  992MOL0     H33863  -0.176   6.087   4.631 -0.5873 -2.0286  0.0184
  992MOL0     H33864  -0.262   6.176   4.508  1.1838  0.4556 -1.7128
  992MOL0     H33865  -0.262   5.976   4.362  1.8698 -2.4587 -0.3246
  992MOL0     H33866  -0.188   5.878   4.482 -0.3171 -0.6572  0.0341
  992MOL0     H33867  -0.362   5.963   4.650  3.6902 -1.3583  0.0052
  992MOL0     H33868  -0.448   6.030   4.510  1.7592  0.6559 -2.1045
  992MOL0     H33869  -0.388   5.724   4.538 -1.5653 -1.7439  1.7742
  992MOL0     H33870  -0.493   5.798   4.416 -3.2865  0.0722  0.9948
  992MOL0     H33871  -0.727   5.917   4.524  0.8072  1.3020  0.9184
  992MOL0     H33872  -0.936   5.814   4.809 -0.4151  0.3718 -0.7406
  992MOL0     H33873  -0.939   5.920   4.678  0.2644  1.2873  3.1362
  992MOL0     H33874  -0.958   5.616   4.703  1.0337 -0.2174  0.5312
  992MOL0     H33875  -0.917   5.669   4.546  0.3309 -0.9811 -0.3099
  992MOL0     H33876  -1.156   5.657   4.539 -1.1980  1.2679  0.0784
  992MOL0     H33877  -1.140   5.827   4.567  0.1180  1.1115  1.2032
  992MOL0     H33878  -1.310   5.750   4.724  0.4182  1.5279  0.0453
  992MOL0     H33879  -1.165   5.762   4.829  0.6451 -2.2755  0.3733
  992MOL0     H33880  -1.203   5.329   4.804  0.4407  0.7237 -1.0305
  992MOL0     H33881  -1.349   5.064   4.656 -1.9124  2.7558 -2.2052
  992MOL0     H33882  -1.293   5.117   4.823  2.3011 -1.5694 -1.2657
  992MOL0     H33883  -1.465   5.072   4.787  1.3651 -1.5194  1.5042
  992MOL0     H33884  -1.618   4.969   4.408  1.3448  1.1220 -0.8166
  992MOL0     H33885  -1.817   4.844   4.290 -4.9728 -0.5740  0.0964
  992MOL0     H33886  -1.969   4.795   4.147  0.3452  0.5193 -1.2160
  992MOL0     H33887  -2.061   4.782   4.311 -0.9497  2.1203 -0.7295
  992MOL0     H33888  -2.185   4.660   4.159  1.8916 -0.4582 -1.2585
  992MOL0     H33889  -2.267   4.807   4.218 -0.4294 -0.0063 -0.5162
  992MOL0     H33890  -2.131   4.770   3.951  0.8194 -2.1778  2.5535
  992MOL0     H33891  -2.202   4.922   4.009  0.1274 -0.9259  1.6049
  992MOL0     H33892  -2.330   4.654   3.930  0.8603 -0.3558  0.5246
  992MOL0     H33893  -2.431   4.790   4.001 -0.3537  0.7418 -0.5401
  992MOL0     H33894  -2.273   4.821   3.754 -0.8439 -1.6020 -0.0906
  992MOL0     H33895  -2.388   4.937   3.824 -1.6733  0.4301 -0.8123
  992MOL0     H33896  -2.563   4.741   3.823  0.9086 -0.4033  0.5129
  992MOL0     H33897  -2.537   4.842   3.677  0.1743  0.6811  0.3560
  992MOL0     H33898  -2.415   4.568   3.715 -0.6578 -0.8975 -0.0128
  992MOL0     H33899  -2.396   4.686   3.575  0.3795  1.8059  0.8139
  992MOL0     H33900  -2.657   4.557   3.655  0.8751  0.2756  1.8334
  992MOL0     H33901  -2.541   4.506   3.531 -0.4170  0.4470  0.4555
  992MOL0     H33902  -2.027   5.211   4.270 -1.1156 -1.6629 -1.6883
  992MOL0     H33903  -1.844   5.331   4.393  1.9011  0.0046  0.3754
  992MOL0     H33904  -1.583   5.463   4.537 -0.8878 -0.9381  1.9780
  992MOL0     H33905  -1.444   5.634   4.599  1.0221 -0.1643  0.4980
  992MOL0     H33906   0.526   6.383   4.419  0.5242  0.8312  0.6079
  992MOL0     H33907   0.752   6.423   4.513  0.7987 -0.0385  1.4664
  992MOL0     H33908   1.126   6.315   4.578 -0.0172  2.1613 -0.1014
  992MOL0     H33909   1.344   6.400   4.605  1.8367  0.3648  1.9734
  992MOL0     H33910   1.552   6.272   4.723 -1.9783  0.4231 -1.2019
  992MOL0     H33911   1.602   6.433   4.650 -0.1995 -2.1914 -2.3391
  992MOL0     H33912   1.686   6.333   4.922 -0.6394  0.9444 -0.0710
  992MOL0     H33913   1.732   6.483   4.845  2.5534 -0.5421  0.8657
  992MOL0     H33914   1.855   6.379   4.675 -1.8920  0.6593 -0.3727
  992MOL0     H33915   1.799   6.217   4.723  1.9491  0.7633 -1.2946
  992MOL0     H33916   1.924   6.215   4.924  3.2342  1.0714  2.3915
  992MOL0     H33917   1.948   6.387   4.927 -0.5166 -0.8071  0.1505
  992MOL0     H33918   2.268   6.270   4.676  0.0315 -0.1001 -1.0373
  992MOL0     H33919   1.314   6.399   5.028 -0.9543  2.1863 -0.1018
  992MOL0     H33920   1.084   6.321   5.020 -1.9754  0.9245 -0.8303
  993MOL0     O33921   5.740   7.116   1.880  0.1033  0.3777 -0.4607
  993MOL0     C33922   5.832   7.127   1.797  0.5274  0.7314  0.2062
  993MOL0     O33923   5.817   7.128   1.662  0.1437  0.2553  0.5657
  993MOL0     C33924   5.688   7.128   1.609  0.6533 -0.3063  0.3086
  993MOL0     C33925   5.590   7.039   1.647  0.4841 -0.0919 -0.1564
  993MOL0     C33926   5.449   7.040   1.607 -0.5976  0.6172 -0.2391
  993MOL0     C33927   5.417   7.142   1.514  0.8826 -0.1894  0.0879
  993MOL0     O33928   5.282   7.151   1.476  0.0956  0.0318 -0.7514
  993MOL0     C33929   5.233   7.270   1.418  0.1003  0.6793 -0.5057
  993MOL0     C33930   5.181   7.372   1.527 -0.2525  0.5880  0.8418
  993MOL0     C33931   5.067   7.308   1.608 -0.4628 -1.2436  0.1839
  993MOL0     C33932   4.996   7.422   1.689 -0.3726  0.1329 -0.3208
  993MOL0     C33933   4.867   7.363   1.737  0.4266  0.6086 -0.0690
  993MOL0     C33934   4.807   7.457   1.837  0.2512  0.1272  0.3858
  993MOL0     C33935   4.656   7.457   1.858 -0.1635  0.2901  0.0430
  993MOL0     C33936   4.608   7.562   1.961  0.7571 -0.3122  0.9982
  993MOL0     N33937   4.461   7.559   1.980 -0.9620 -0.7582  0.2509
  993MOL0     C33938   4.375   7.629   1.896  0.3442 -0.5594  0.4693
  993MOL0     C33939   4.258   7.585   1.938 -0.0078  0.2984  0.4592
  993MOL0     C33940   4.119   7.611   1.894  0.3996 -0.9202 -0.1392
  993MOL0     C33941   4.072   7.519   1.779  0.7386  0.2539  0.8136
  993MOL0     C33942   4.013   7.592   1.658  0.4924 -0.4675 -0.9019
  993MOL0     C33943   3.867   7.606   1.675 -0.4579 -0.0336  0.0715
  993MOL0     O33944   3.811   7.689   1.776  0.1098  0.7798 -0.7125
  993MOL0     C33945   3.789   7.820   1.752 -0.0324 -0.0494  0.9040
  993MOL0     C33946   3.847   7.916   1.833  0.7054 -0.1740 -0.1953
  993MOL0     C33947   3.815   8.057   1.832  0.1382  0.3693 -0.1155
  993MOL0     C33948   3.892   8.148   1.921 -0.1439  0.1420 -0.3117
  993MOL0     C33949   3.714   8.094   1.740 -0.1864  1.1193  0.3078
  993MOL0     C33950   3.677   8.231   1.728  0.4565 -0.4627  0.8536
  993MOL0     O33951   3.546   8.256   1.716 -0.0661 -0.0204  0.1639
  993MOL0     C33952   3.511   8.388   1.737 -0.0508 -0.5407  0.2771
  993MOL0     C33953   3.407   8.444   1.663 -0.0522  0.0911 -0.1404
  993MOL0     C33954   3.372   8.576   1.685 -0.4240 -1.4674  0.2416
  993MOL0     C33955   3.433   8.657   1.778 -0.4332 -0.9315  0.3192
  993MOL0     O33956   3.390   8.787   1.772  0.2127  0.6586  0.0235
  993MOL0     C33957   3.421   8.880   1.874  0.3764  0.4659  0.5077
  993MOL0     C33958   3.337   9.010   1.868 -0.3987 -0.4273  0.5404
  993MOL0     C33959   3.413   9.117   1.939 -0.5443 -0.1552 -0.1243
  993MOL0     C33960   3.507   9.200   1.857  0.4376 -0.6854 -0.0498
  993MOL0     C33961   3.533   9.333   1.925 -0.3284 -0.0868  0.0082
  993MOL0     C33962   3.615   9.429   1.833 -0.4245  0.0836  0.7310
  993MOL0     C33963   3.684   9.543   1.913  0.8876 -0.0308  0.4823
  993MOL0     C33964   3.793   9.500   2.009  0.2710 -0.2174  0.0547
  993MOL0    Cl33965   3.737   9.486   2.183  0.1871 -0.1239  0.4435
  993MOL0     C33966   3.533   8.602   1.857  0.6011  0.6968 -0.0654
  993MOL0     C33967   3.570   8.470   1.840  0.0894  0.1220  0.0271
  993MOL0     O33968   3.771   8.310   1.712  0.0809  0.0542 -0.2266
  993MOL0     C33969   3.657   7.998   1.652  0.5321 -0.1088  0.2402
  993MOL0     C33970   3.699   7.864   1.651  0.4812  0.0270 -0.1760
  993MOL0     N33971   4.281   7.479   2.029 -0.2438 -0.7991  0.1148
  993MOL0     N33972   4.404   7.462   2.059 -0.4606  0.2862  0.1463
  993MOL0     C33973   5.519   7.233   1.472 -0.9013  0.1169  0.7332
  993MOL0     C33974   5.652   7.221   1.513 -0.1666 -0.5282 -0.1223
  993MOL0     C33975   5.965   7.132   1.853  0.0131  0.8425 -0.6782
  993MOL0     C33976   5.987   7.111   1.991 -0.7601  0.0543 -0.3726
  993MOL0     C33977   6.118   7.106   2.044  0.2256 -0.4940  0.2150
  993MOL0     C33978   6.228   7.135   1.960 -0.2881  0.0666  0.6876
  993MOL0     O33979   6.358   7.139   2.009  0.0313 -0.4612  0.6431
  993MOL0     C33980   6.394   7.035   2.102  0.0842 -0.0742 -0.2900
  993MOL0     C33981   6.548   7.021   2.102  0.2912 -0.1011 -0.1080
  993MOL0     C33982   6.575   6.894   2.178  0.1279 -0.6836 -0.1729
  993MOL0     C33983   6.721   6.843   2.163 -0.1500  0.4985  0.6755
  993MOL0     C33984   6.823   6.941   2.206  0.0186  0.3621  0.0952
  993MOL0     C33985   6.908   7.018   2.242  0.9774  0.0791 -0.0767
  993MOL0     C33986   6.199   7.152   1.825 -0.3532 -0.4337 -0.3746
  993MOL0     C33987   6.071   7.149   1.772 -0.2421 -0.5748  0.1626
  993MOL0     H33988   5.613   6.965   1.724  0.7224  1.2175  1.0730
  993MOL0     H33989   5.370   6.979   1.649 -0.1056  0.9706  1.2445
  993MOL0     H33990   5.299   7.329   1.353  1.9108  1.3882  1.8675
  993MOL0     H33991   5.150   7.245   1.351 -1.2010  0.2399  1.1956
  993MOL0     H33992   5.269   7.393   1.588 -0.3567 -0.5041  1.3796
  993MOL0     H33993   5.148   7.462   1.474 -1.6333  0.6550  1.7754
  993MOL0     H33994   4.989   7.262   1.546 -1.2993  0.1495  0.1577
  993MOL0     H33995   5.104   7.226   1.670 -2.1159 -1.0488  1.4940
  993MOL0     H33996   5.063   7.433   1.775 -1.5046 -2.0451  0.9219
  993MOL0     H33997   4.986   7.507   1.621  0.5427  0.4854 -0.0335
  993MOL0     H33998   4.803   7.345   1.650  2.7603  1.7903 -2.1425
  993MOL0     H33999   4.899   7.268   1.781  1.1587 -0.5152 -2.8246
  993MOL0     H34000   4.859   7.453   1.933  0.3832  0.5620  0.3349
  993MOL0     H34001   4.838   7.556   1.802 -0.3699  0.5354  0.9440
  993MOL0     H34002   4.601   7.471   1.765 -2.2630 -1.0498  1.0004
  993MOL0     H34003   4.633   7.352   1.876  0.8549 -0.2067 -1.4304
  993MOL0     H34004   4.644   7.663   1.941 -2.6945  0.9397  0.4322
  993MOL0     H34005   4.647   7.523   2.055 -1.0032 -1.1226  1.4361
  993MOL0     H34006   4.406   7.698   1.818  3.3433 -0.5942  1.5090
  993MOL0     H34007   4.053   7.610   1.981  0.3174  0.7935 -0.1437
  993MOL0     H34008   4.111   7.714   1.858  1.0808 -1.2459 -1.2840
  993MOL0     H34009   4.011   7.433   1.810 -0.2167  1.1793  1.5375
  993MOL0     H34010   4.157   7.469   1.730 -0.4798  0.8027 -2.1036
  993MOL0     H34011   4.025   7.528   1.569 -0.4388 -2.2496  0.1912
  993MOL0     H34012   4.062   7.688   1.641 -0.6513  0.2289 -0.3564
  993MOL0     H34013   3.814   7.510   1.672 -0.6236  0.0478  0.3282
  993MOL0     H34014   3.828   7.654   1.584 -1.7742  0.2629  0.7609
  993MOL0     H34015   3.914   7.875   1.909 -1.2126 -0.8089  1.2345
  993MOL0     H34016   3.957   8.206   1.856  0.0225  2.7134  1.9549
  993MOL0     H34017   3.822   8.216   1.971 -2.1699 -1.5726 -0.6840
  993MOL0     H34018   3.945   8.086   1.994 -2.1514 -1.7453 -0.3466
  993MOL0     H34019   3.363   8.387   1.581  0.0356  3.2453 -2.5456
  993MOL0     H34020   3.310   8.628   1.612  0.5733  0.5117  0.7392
  993MOL0     H34021   3.407   8.848   1.978  1.7974  1.7201  1.1362
  993MOL0     H34022   3.526   8.911   1.867  0.8218 -1.2066 -0.6797
  993MOL0     H34023   3.317   9.042   1.765 -1.1083  1.5150  1.2331
  993MOL0     H34024   3.237   8.995   1.911 -0.8438  1.7402  0.3718
  993MOL0     H34025   3.474   9.077   2.021  1.1611  1.8554 -0.3310
  993MOL0     H34026   3.338   9.181   1.986 -0.1892  1.1021 -1.2235
  993MOL0     H34027   3.596   9.143   1.830  0.9758  0.6604 -1.2186
  993MOL0     H34028   3.448   9.215   1.766 -2.9098 -0.1358  2.0100
  993MOL0     H34029   3.582   9.308   2.020  0.8270 -0.4426 -0.6675
  993MOL0     H34030   3.450   9.398   1.957  0.8481  1.9554 -0.8926
  993MOL0     H34031   3.697   9.385   1.775 -0.5934 -0.0838  0.6173
  993MOL0     H34032   3.547   9.472   1.759 -0.3520  1.6151  1.5276
  993MOL0     H34033   3.614   9.614   1.956 -1.2573 -0.0649 -2.6175
  993MOL0     H34034   3.729   9.601   1.832  0.0032 -1.1520 -0.8601
  993MOL0     H34035   3.878   9.569   2.006 -1.4463  1.9703 -1.5582
  993MOL0     H34036   3.824   9.401   1.974 -1.0649 -0.0015 -1.8286
  993MOL0     H34037   3.588   8.671   1.920  1.8389 -1.2786  1.1305
  993MOL0     H34038   3.658   8.430   1.891  1.4288  2.4667 -0.2959
  993MOL0     H34039   3.597   8.026   1.566  3.2814  2.2882 -1.0408
  993MOL0     H34040   3.644   7.795   1.587 -0.0660  0.5841 -0.3280
  993MOL0     H34041   5.495   7.305   1.394  1.1772  1.0886  0.9130
  993MOL0     H34042   5.718   7.299   1.477  0.3324 -0.1845  1.4368
  993MOL0     H34043   5.906   7.091   2.061  1.0013  0.7416  1.9642
  993MOL0     H34044   6.122   7.090   2.152 -0.8775 -3.0771 -0.0486
  993MOL0     H34045   6.360   7.060   2.203  0.5269 -2.0900  0.4007
  993MOL0     H34046   6.351   6.940   2.071  0.1891  0.0471 -0.8076
  993MOL0     H34047   6.600   7.103   2.152  1.1027 -0.4739 -0.3243
  993MOL0     H34048   6.584   7.015   1.999  0.0281  2.9155 -0.4459
  993MOL0     H34049   6.515   6.807   2.149  2.1712 -2.2093 -0.0997
  993MOL0     H34050   6.559   6.914   2.285 -0.0057 -0.2492 -0.2729
  993MOL0     H34051   6.745   6.817   2.060  0.5381  2.1349  0.4022
  993MOL0     H34052   6.723   6.746   2.214  1.4895  1.0062  1.6509
  993MOL0     H34053   6.999   7.070   2.268  0.6749  1.3195 -1.3528
  993MOL0     H34054   6.280   7.179   1.759  0.0484 -0.8748 -0.0670
  993MOL0     H34055   6.063   7.155   1.664  1.3527 -2.1019 -0.0962
  994MOL0     O34056  10.317   5.727   2.658  0.4816 -1.3895  0.5315
  994MOL0     C34057  10.352   5.611   2.650  0.3976  0.8899  0.3151
  994MOL0     O34058  10.272   5.498   2.672  0.2556  0.4064  0.1682
  994MOL0     C34059  10.135   5.508   2.665  0.7119  0.0175  0.3614
  994MOL0     C34060  10.057   5.440   2.763 -0.3291  0.4679  0.0095
  994MOL0     C34061   9.917   5.442   2.751  1.0567  0.1975  0.5761
  994MOL0     C34062   9.856   5.501   2.640 -0.8360  0.3673 -0.3500
  994MOL0     O34063   9.719   5.501   2.638 -0.1561  0.2331 -0.3213
  994MOL0     C34064   9.647   5.611   2.584 -0.2005 -0.2061  0.8529
  994MOL0     C34065   9.552   5.555   2.466 -0.7548  0.3418 -0.1110
  994MOL0     C34066   9.471   5.662   2.394 -0.1632 -0.1514  0.1794
  994MOL0     C34067   9.374   5.596   2.297  0.3068  0.6103 -0.0182
  994MOL0     C34068   9.293   5.703   2.224  0.5161 -0.8314 -0.1102
  994MOL0     C34069   9.170   5.626   2.155  0.0195 -0.2167 -0.3654
  994MOL0     C34070   9.114   5.730   2.058 -0.2900 -1.1960  0.2846
  994MOL0     C34071   8.984   5.688   1.997  0.9559  0.1944 -0.0115
  994MOL0     N34072   8.888   5.686   2.102 -0.7164 -1.0219  0.5862
  994MOL0     C34073   8.837   5.585   2.172 -0.9203  0.6904  0.2654
  994MOL0     C34074   8.762   5.648   2.269  0.4213  0.8332  0.1991
  994MOL0     C34075   8.682   5.570   2.374  0.2337  0.7989 -0.5609
  994MOL0     C34076   8.577   5.478   2.300 -0.3480 -0.2457  0.5589
  994MOL0     C34077   8.467   5.450   2.402  0.2822  0.6822 -0.4698
  994MOL0     C34078   8.367   5.371   2.337 -0.2454  0.0732  0.4305
  994MOL0     O34079   8.271   5.329   2.433 -0.2342  0.0611 -0.0659
  994MOL0     C34080   8.152   5.277   2.397 -0.2515  0.3544  0.5908
  994MOL0     C34081   8.049   5.241   2.485  0.4492  0.2498  0.0312
  994MOL0     C34082   7.924   5.183   2.450 -0.2016  0.2401 -1.0250
  994MOL0     C34083   7.837   5.151   2.569  0.1379 -1.2719 -0.2897
  994MOL0     C34084   7.897   5.152   2.314 -0.7062  0.3908 -0.8116
  994MOL0     C34085   7.770   5.081   2.270 -0.4785  0.1487  0.0099
  994MOL0     O34086   7.746   5.070   2.134  0.2890  0.8134  0.1100
  994MOL0     C34087   7.633   5.005   2.078  0.0507  0.1935  0.6634
  994MOL0     C34088   7.604   4.876   2.121 -0.3516  0.2478 -0.0542
  994MOL0     C34089   7.513   4.797   2.048 -0.1673 -0.3311  0.2593
  994MOL0     C34090   7.458   4.846   1.929  0.4224 -0.4705 -0.0037
  994MOL0     O34091   7.385   4.751   1.856 -0.1723  0.0811  0.6048
  994MOL0     C34092   7.270   4.796   1.781 -0.2584  0.4035  0.8321
  994MOL0     C34093   7.168   4.846   1.878  0.2514 -0.4778 -0.5335
  994MOL0     C34094   7.099   4.729   1.951  0.0043 -0.9623  0.8998
  994MOL0     C34095   6.987   4.770   2.052  0.4104 -0.0860 -0.6881
  994MOL0     C34096   6.959   4.644   2.139 -0.3406 -0.3819  0.5236
  994MOL0     C34097   6.842   4.678   2.237  0.2495 -0.4798 -0.1449
  994MOL0     C34098   6.813   4.562   2.339 -0.1651  0.1707 -0.0688
  994MOL0     C34099   6.688   4.585   2.420 -0.4940 -0.0108  0.3527
  994MOL0    Cl34100   6.664   4.485   2.569  0.2585  0.0643  0.2877
  994MOL0     C34101   7.482   4.980   1.893  0.1874  0.5887 -0.0559
  994MOL0     C34102   7.572   5.057   1.965 -0.5800  0.4361  0.0017
  994MOL0     O34103   7.701   5.036   2.361  0.1304 -0.3884  0.1398
  994MOL0     C34104   7.998   5.187   2.222 -0.0236 -0.8638  1.2782
  994MOL0     C34105   8.120   5.240   2.266 -0.6733 -0.4997 -0.6929
  994MOL0     N34106   8.771   5.783   2.262  0.3866 -0.6053 -0.2949
  994MOL0     N34107   8.841   5.806   2.154  0.6826  1.1558  0.2480
  994MOL0     C34108   9.933   5.568   2.538  0.0654 -0.2427  0.4630
  994MOL0     C34109  10.069   5.568   2.554 -0.5082 -0.1941 -0.5546
  994MOL0     C34110  10.485   5.576   2.599 -0.1576 -0.1235  0.3790
  994MOL0     C34111  10.561   5.677   2.552 -0.2101  0.3521  0.7866
  994MOL0     C34112  10.685   5.650   2.496  0.3640  0.1367 -0.2432
  994MOL0     C34113  10.747   5.523   2.494  0.1230  0.2899  0.5702
  994MOL0     O34114  10.868   5.507   2.436 -0.0246  0.3545 -0.2199
  994MOL0     C34115  10.966   5.426   2.499  0.2644  0.6173 -0.7402
  994MOL0     C34116  11.096   5.459   2.431 -0.7348  0.6794 -0.4434
  994MOL0     C34117  11.205   5.384   2.510 -0.0128  0.2738 -0.4339
  994MOL0     C34118  11.341   5.452   2.496 -0.4850  0.0790 -0.2568
  994MOL0     C34119  11.438   5.406   2.602 -0.0149 -0.2743  0.8149
  994MOL0     C34120  11.514   5.371   2.683 -0.4470 -0.2998 -0.4576
  994MOL0     C34121  10.663   5.418   2.542 -0.1588  0.6228  0.3725
  994MOL0     C34122  10.537   5.443   2.595  0.6805  0.3883  0.4313
  994MOL0     H34123  10.103   5.392   2.849  2.7092 -0.5042 -2.0032
  994MOL0     H34124   9.852   5.408   2.832 -1.1100  0.4452 -0.9621
  994MOL0     H34125   9.597   5.654   2.671 -0.7084  1.3905 -0.1887
  994MOL0     H34126   9.707   5.684   2.529 -1.7696 -1.5138 -2.9705
  994MOL0     H34127   9.612   5.507   2.389 -2.3158 -1.0979 -0.4866
  994MOL0     H34128   9.483   5.478   2.501  0.1706 -0.8428 -0.8343
  994MOL0     H34129   9.415   5.730   2.458  0.1908 -1.2021  1.6732
  994MOL0     H34130   9.549   5.718   2.341 -1.8246  2.3318  0.1895
  994MOL0     H34131   9.431   5.526   2.236  0.5476  2.1780 -1.6860
  994MOL0     H34132   9.306   5.529   2.349 -1.1629  1.2512 -1.0708
  994MOL0     H34133   9.258   5.790   2.280 -0.9043 -0.4924 -1.4405
  994MOL0     H34134   9.358   5.748   2.148 -1.1607  0.0040 -1.1338
  994MOL0     H34135   9.200   5.531   2.110 -0.1323 -0.5693  0.2597
  994MOL0     H34136   9.095   5.600   2.231 -0.9027  2.7427 -0.1447
  994MOL0     H34137   9.101   5.830   2.099  0.5123 -0.0003 -2.1554
  994MOL0     H34138   9.188   5.743   1.978  0.5111 -0.1788  1.1631
  994MOL0     H34139   8.982   5.586   1.955 -0.9284  0.5402 -0.8523
  994MOL0     H34140   8.951   5.756   1.919 -0.1967 -1.4101 -0.9947
  994MOL0     H34141   8.853   5.482   2.144 -1.2962  1.0795 -1.5139
  994MOL0     H34142   8.759   5.518   2.431  1.3912  2.0981 -0.8903
  994MOL0     H34143   8.633   5.641   2.442  0.8295 -0.1202  0.8674
  994MOL0     H34144   8.624   5.386   2.263 -0.8805  0.1219 -1.1012
  994MOL0     H34145   8.535   5.527   2.212 -0.2634  1.0906  1.2468
  994MOL0     H34146   8.421   5.536   2.451 -3.1350 -2.0035  1.5338
  994MOL0     H34147   8.501   5.395   2.491 -0.3075 -0.5521 -0.9853
  994MOL0     H34148   8.417   5.287   2.287 -0.5581  0.0318  0.1848
  994MOL0     H34149   8.309   5.432   2.266 -1.8818 -1.9812 -0.0984
  994MOL0     H34150   8.067   5.256   2.590 -1.4403 -3.2361  1.0133
  994MOL0     H34151   7.861   5.207   2.660 -1.2251 -0.6111 -0.3140
  994MOL0     H34152   7.733   5.178   2.547  0.7489 -0.4479 -2.3861
  994MOL0     H34153   7.837   5.044   2.591 -3.9558 -1.7566 -1.7094
  994MOL0     H34154   7.655   4.825   2.202  1.9585  3.0565  0.4100
  994MOL0     H34155   7.503   4.693   2.079  1.5723 -0.8395 -0.7074
  994MOL0     H34156   7.301   4.871   1.707 -0.3550  0.1733  0.5589
  994MOL0     H34157   7.235   4.709   1.725 -0.4642  1.9483 -1.6026
  994MOL0     H34158   7.209   4.921   1.947 -0.4781  0.2408 -0.8669
  994MOL0     H34159   7.088   4.898   1.825 -1.7033 -1.6183  1.1476
  994MOL0     H34160   7.180   4.671   1.995  1.2379 -0.9261 -1.2064
  994MOL0     H34161   7.062   4.660   1.875 -0.3042 -1.6654  1.6652
  994MOL0     H34162   7.018   4.854   2.115  0.0138 -0.6642  0.3126
  994MOL0     H34163   6.897   4.796   1.996 -0.9392  0.2549  1.5101
  994MOL0     H34164   7.051   4.630   2.197  0.4612  1.2418 -0.2857
  994MOL0     H34165   6.930   4.558   2.079  2.2271 -0.4837 -0.6685
  994MOL0     H34166   6.871   4.765   2.297  0.2039  0.2571 -1.1680
  994MOL0     H34167   6.749   4.694   2.182 -0.7601 -1.3990  1.2339
  994MOL0     H34168   6.891   4.555   2.416 -1.1839 -2.0500  0.8454
  994MOL0     H34169   6.800   4.469   2.284  0.6527 -1.8066  2.8710
  994MOL0     H34170   6.602   4.579   2.353 -0.8892 -0.0302  0.8499
  994MOL0     H34171   6.696   4.686   2.460 -0.8748  0.3006 -0.3452
  994MOL0     H34172   7.465   5.024   1.795  2.7831  2.5999  0.2961
  994MOL0     H34173   7.604   5.150   1.918  2.5221 -0.7827 -0.5418
  994MOL0     H34174   7.992   5.152   2.119  1.5276 -0.1523  0.9064
  994MOL0     H34175   8.192   5.252   2.186  1.9624 -1.7559  1.3195
  994MOL0     H34176   9.882   5.624   2.460  0.9645  0.5641  0.4348
  994MOL0     H34177  10.121   5.613   2.470  0.3912 -0.8632 -0.3652
  994MOL0     H34178  10.519   5.777   2.548 -2.1569 -0.4583  0.0823
  994MOL0     H34179  10.748   5.729   2.456  0.6639 -0.7994 -1.7084
  994MOL0     H34180  10.971   5.456   2.604 -2.2580  0.7566 -0.5883
  994MOL0     H34181  10.945   5.319   2.486 -1.3014  0.6876  0.7828
  994MOL0     H34182  11.107   5.568   2.436 -0.1085  0.7269 -2.0557
  994MOL0     H34183  11.087   5.414   2.331 -1.0673 -0.9347  0.2856
  994MOL0     H34184  11.226   5.278   2.494  3.2560  0.8410 -0.4487
  994MOL0     H34185  11.181   5.385   2.617 -0.9682  1.9205 -0.6413
  994MOL0     H34186  11.330   5.560   2.506  0.4992  0.1564  0.0215
  994MOL0     H34187  11.376   5.425   2.396  1.7432  2.2557 -0.1511
  994MOL0     H34188  11.583   5.337   2.756 -2.8157 -0.4883  1.8457
  994MOL0     H34189  10.685   5.313   2.555  0.5981  0.8178  0.7373
  994MOL0     H34190  10.474   5.359   2.623 -0.2869  0.3458 -1.6639
  995MOL0     O34191   8.420   2.232   3.010 -0.2165  0.4556  0.4929
  995MOL0     C34192   8.462   2.215   2.892 -0.6595  0.1432  0.1716
  995MOL0     O34193   8.388   2.193   2.777  0.1072 -0.7520 -0.6532
  995MOL0     C34194   8.255   2.193   2.781 -0.4444 -0.3578  0.0384
  995MOL0     C34195   8.202   2.161   2.657  0.6125 -0.0920 -0.2323
  995MOL0     C34196   8.062   2.165   2.634 -0.6606  0.2470  0.1042
  995MOL0     C34197   7.975   2.215   2.733 -0.2152  0.1142 -0.2866
  995MOL0     O34198   7.846   2.226   2.704  0.5468 -1.2091 -0.2912
  995MOL0     C34199   7.754   2.293   2.790  1.3304 -0.0430  0.0189
  995MOL0     C34200   7.626   2.341   2.721 -0.5318  0.6996 -0.4515
  995MOL0     C34201   7.516   2.231   2.732  0.1400  0.4509  0.3383
  995MOL0     C34202   7.380   2.287   2.684 -0.1034 -0.3460  0.1938
  995MOL0     C34203   7.282   2.182   2.643  0.4595  0.5704 -0.0708
  995MOL0     C34204   7.154   2.252   2.593  0.1676 -0.0077  0.4823
  995MOL0     C34205   7.046   2.156   2.574 -0.6498  0.5791  0.2056
  995MOL0     C34206   6.921   2.228   2.521 -0.9146  0.0187  0.1663
  995MOL0     N34207   6.814   2.133   2.485 -0.1679 -0.0182 -0.2490
  995MOL0     C34208   6.746   2.044   2.574 -0.1855  0.0528  0.9118
  995MOL0     C34209   6.640   2.004   2.501  0.3291  0.0638  1.0152
  995MOL0     C34210   6.524   1.913   2.543  0.4729  0.3815 -0.1531
  995MOL0     C34211   6.415   1.996   2.612 -0.0390  0.3927  0.6608
  995MOL0     C34212   6.287   1.907   2.607 -0.6050  0.2074 -0.2218
  995MOL0     C34213   6.180   1.950   2.708  0.8681  1.1066  0.9342
  995MOL0     O34214   6.054   1.889   2.668 -0.2936 -0.1637 -0.2580
  995MOL0     C34215   5.947   1.937   2.727  0.9330  0.1168  0.0538
  995MOL0     C34216   5.824   1.889   2.672 -0.2141  0.4012 -0.0848
  995MOL0     C34217   5.697   1.920   2.737 -0.4666  0.0431  0.5051
  995MOL0     C34218   5.578   1.876   2.665 -0.1738 -0.2136  0.1220
  995MOL0     C34219   5.694   2.009   2.848 -0.5115 -0.5046  0.4068
  995MOL0     C34220   5.574   2.065   2.918 -1.4073 -0.0377 -0.0344
  995MOL0     O34221   5.460   2.001   2.887  0.5309  0.5081  0.3220
  995MOL0     C34222   5.330   2.037   2.939 -0.3966  0.4344 -0.0455
  995MOL0     C34223   5.236   1.935   2.927  0.3516  0.9998 -0.6732
  995MOL0     C34224   5.105   1.955   2.963 -0.1534  0.7206 -0.6983
  995MOL0     C34225   5.057   2.073   3.026  0.0046  0.8378  0.2212
  995MOL0     O34226   4.925   2.099   3.056 -0.0370 -0.2235  0.7682
  995MOL0     C34227   4.881   2.203   3.141 -0.0788  0.3354  0.1649
  995MOL0     C34228   4.758   2.142   3.214 -0.6906  0.2596  0.8305
  995MOL0     C34229   4.631   2.148   3.115 -0.4023  0.2786 -0.7038
  995MOL0     C34230   4.520   2.067   3.181  0.3173  0.2369  0.3198
  995MOL0     C34231   4.393   2.086   3.107 -1.0867 -0.3174 -0.9178
  995MOL0     C34232   4.271   2.021   3.182 -0.1683 -0.2444  0.2446
  995MOL0     C34233   4.136   2.068   3.114 -0.4704  0.9010 -0.5558
  995MOL0     C34234   4.030   2.035   3.218  0.0765 -0.4688 -0.6718
  995MOL0    Cl34235   3.982   1.864   3.204 -0.2679 -0.1453 -0.4243
  995MOL0     C34236   5.153   2.170   3.037 -0.1228  0.3157 -0.0577
  995MOL0     C34237   5.285   2.156   3.004 -0.5744 -0.0372  0.3647
  995MOL0     O34238   5.587   2.164   2.986 -0.4476  0.2014  0.2634
  995MOL0     C34239   5.820   2.065   2.891  0.4825 -0.7794  0.4601
  995MOL0     C34240   5.937   2.028   2.832  0.5752  0.3718 -0.2782
  995MOL0     N34241   6.646   2.054   2.379  0.7532  0.3945  0.3027
  995MOL0     N34242   6.752   2.121   2.369 -0.4596  0.0173 -0.4464
  995MOL0     C34243   8.027   2.235   2.864 -0.1478 -1.0548 -0.0097
  995MOL0     C34244   8.169   2.227   2.886  0.4775  0.7299 -0.3564
  995MOL0     C34245   8.610   2.197   2.878 -0.4611  0.4574  0.2056
  995MOL0     C34246   8.653   2.127   2.768  0.5942  0.1539  1.1029
  995MOL0     C34247   8.787   2.111   2.747  0.6559  0.3233  0.1211
  995MOL0     C34248   8.880   2.175   2.826  0.2242 -0.3341  0.6693
  995MOL0     O34249   9.015   2.143   2.816 -0.3150 -0.0584  0.3031
  995MOL0     C34250   9.114   2.247   2.799  0.5132  0.1556  0.2256
  995MOL0     C34251   9.151   2.267   2.650  0.3053 -0.6871 -0.3489
  995MOL0     C34252   9.267   2.168   2.621  0.3123 -0.6153  0.1055
  995MOL0     C34253   9.279   2.141   2.471  0.6639 -0.2179  0.5726
  995MOL0     C34254   9.367   2.026   2.452 -0.3252  0.5219  0.5088
  995MOL0     C34255   9.431   1.927   2.463  0.0845  0.3953 -0.1314
  995MOL0     C34256   8.836   2.247   2.945 -0.2052  0.0069  0.7529
  995MOL0     C34257   8.702   2.261   2.959 -0.3481 -0.3417  0.7560
  995MOL0     H34258   8.267   2.134   2.575 -0.2079  1.3155 -1.3971
  995MOL0     H34259   8.022   2.140   2.536  0.0408  1.1541 -0.4332
  995MOL0     H34260   7.722   2.224   2.869  1.1687 -2.8050 -2.3202
  995MOL0     H34261   7.797   2.369   2.856  3.8327 -0.4706 -0.9983
  995MOL0     H34262   7.587   2.429   2.772  0.3980  0.9275 -0.1262
  995MOL0     H34263   7.648   2.361   2.615 -1.5082  3.7734 -0.1734
  995MOL0     H34264   7.537   2.146   2.667 -2.3309  0.4432 -0.5612
  995MOL0     H34265   7.505   2.190   2.833 -2.9639  0.3601  0.0826
  995MOL0     H34266   7.341   2.336   2.774  1.6484 -0.9911  1.3723
  995MOL0     H34267   7.399   2.360   2.606 -0.9559  0.5902  0.8421
  995MOL0     H34268   7.311   2.120   2.557 -0.8970  0.8278 -0.7482
  995MOL0     H34269   7.258   2.119   2.729 -0.4673 -1.0596 -1.4571
  995MOL0     H34270   7.122   2.327   2.666  1.5198  2.8383 -1.6110
  995MOL0     H34271   7.179   2.298   2.496 -1.9878 -1.3784 -0.8027
  995MOL0     H34272   7.069   2.077   2.502 -2.6192 -0.4888  0.6740
  995MOL0     H34273   7.033   2.111   2.673  1.1103 -1.0489 -0.2664
  995MOL0     H34274   6.947   2.279   2.428  1.0138 -1.2519 -0.0454
  995MOL0     H34275   6.898   2.294   2.605  1.4006 -0.1484  1.0127
  995MOL0     H34276   6.769   2.017   2.676  0.3791  1.7459  1.2644
  995MOL0     H34277   6.485   1.865   2.452 -1.5883 -2.4395  2.0380
  995MOL0     H34278   6.568   1.838   2.609  1.2885 -0.1797 -1.3014
  995MOL0     H34279   6.386   2.087   2.558  0.6750  1.0612  1.3808
  995MOL0     H34280   6.445   2.031   2.711 -0.0785  1.3021  0.3641
  995MOL0     H34281   6.306   1.800   2.622 -0.4265  0.4671  1.6477
  995MOL0     H34282   6.247   1.917   2.506 -1.3127 -2.7052 -0.3330
  995MOL0     H34283   6.179   2.059   2.720  1.1857  0.9388  2.8442
  995MOL0     H34284   6.215   1.915   2.806  4.7580  0.1681 -0.6055
  995MOL0     H34285   5.832   1.827   2.584 -0.5169 -0.0872  0.2225
  995MOL0     H34286   5.514   1.812   2.727 -1.7417  0.2887 -0.8954
  995MOL0     H34287   5.531   1.972   2.641 -1.9350 -1.4184 -1.6616
  995MOL0     H34288   5.600   1.826   2.569 -2.4799 -0.1410 -0.5057
  995MOL0     H34289   5.282   1.844   2.890  0.4544  1.3716 -1.4751
  995MOL0     H34290   5.029   1.880   2.941 -0.7275  1.2006 -0.3639
  995MOL0     H34291   4.952   2.246   3.212 -0.8453  1.6272  0.1833
  995MOL0     H34292   4.854   2.292   3.084  0.8781  1.2466  1.0830
  995MOL0     H34293   4.785   2.038   3.236 -0.8419 -0.2488 -1.1536
  995MOL0     H34294   4.738   2.197   3.306  1.1635 -1.9284  2.6474
  995MOL0     H34295   4.655   2.101   3.020 -2.3154  1.4015 -1.8045
  995MOL0     H34296   4.595   2.251   3.109 -0.8348  0.3480  1.9771
  995MOL0     H34297   4.541   1.960   3.180  0.7773  0.3280 -0.1114
  995MOL0     H34298   4.499   2.092   3.286 -1.7144  0.1687 -0.0306
  995MOL0     H34299   4.409   2.056   3.003  2.3370 -3.7599  0.3499
  995MOL0     H34300   4.366   2.192   3.110  2.1476  0.6061 -1.2630
  995MOL0     H34301   4.276   1.912   3.170 -0.1327 -0.0917 -1.3347
  995MOL0     H34302   4.267   2.049   3.288 -1.7193 -0.9807  0.4057
  995MOL0     H34303   4.110   2.025   3.018 -2.0137  0.5769 -0.0231
  995MOL0     H34304   4.124   2.175   3.092 -1.8088  0.6407 -1.1618
  995MOL0     H34305   3.947   2.103   3.199 -0.5070 -0.7937  0.6411
  995MOL0     H34306   4.061   2.057   3.320  0.4579  3.8670 -1.5505
  995MOL0     H34307   5.117   2.259   3.087 -1.9188 -1.2125  1.5116
  995MOL0     H34308   5.358   2.235   3.014  1.1505 -1.4208 -0.6945
  995MOL0     H34309   5.820   2.151   2.957  0.3264 -0.4111 -0.0133
  995MOL0     H34310   6.027   2.084   2.857  0.8140 -0.8568  1.7671
  995MOL0     H34311   7.971   2.286   2.942 -0.2521  4.1273 -2.9899
  995MOL0     H34312   8.205   2.233   2.988  0.8161 -4.5396  0.1037
  995MOL0     H34313   8.578   2.083   2.702 -0.0152  2.8102 -0.1023
  995MOL0     H34314   8.825   2.062   2.659  0.9390 -0.6955  0.7935
  995MOL0     H34315   9.069   2.340   2.834  0.6901 -0.4863  2.2778
  995MOL0     H34316   9.201   2.230   2.862  0.4481  0.8963  0.5262
  995MOL0     H34317   9.176   2.373   2.640 -0.6610 -0.4141 -0.0002
  995MOL0     H34318   9.066   2.244   2.585  0.1441 -2.6566  0.4861
  995MOL0     H34319   9.245   2.078   2.679 -0.3787 -0.8380 -0.4931
  995MOL0     H34320   9.366   2.204   2.650  1.5501 -1.8845 -2.2759
  995MOL0     H34321   9.315   2.231   2.419 -4.3206  1.8852  0.1770
  995MOL0     H34322   9.176   2.120   2.442  1.2141 -0.6426 -1.1876
  995MOL0     H34323   9.477   1.831   2.474 -3.2382 -1.3653 -0.4834
  995MOL0     H34324   8.909   2.287   3.015  1.6295 -0.9876 -0.5160
  995MOL0     H34325   8.674   2.316   3.048  1.0232  2.3290 -0.3324
  996MOL0     O34326   8.672  10.954   4.353  0.0391 -0.4094  0.0421
  996MOL0     C34327   8.614  10.944   4.241 -0.7704  0.7354 -0.0666
  996MOL0     O34328   8.486  10.961   4.217  0.3245 -0.1457 -0.0309
  996MOL0     C34329   8.394  10.959   4.314 -0.3195  0.1883 -0.0092
  996MOL0     C34330   8.400  10.904   4.450  0.5019 -0.0606 -0.1526
  996MOL0     C34331   8.286  10.903   4.530 -0.0724  0.3826  0.0295
  996MOL0     C34332   8.168  10.965   4.488  0.4273  0.2220  0.7130
  996MOL0     O34333   8.054  10.981   4.555  0.6359 -0.0996 -0.4300
  996MOL0     C34334   8.070  11.005   4.694  0.1168  0.0312  0.2922
  996MOL0     C34335   7.955  11.067   4.762  0.3631  0.3466  0.3359
  996MOL0     C34336   7.820  11.001   4.730 -0.1114  0.3662 -0.0997
  996MOL0     C34337   7.827  10.851   4.775 -0.1350 -0.3307  0.4769
  996MOL0     C34338   7.695  10.788   4.799  0.2719 -0.5241 -0.7511
  996MOL0     C34339   7.596  10.798   4.685 -0.1321 -0.2115  0.4501
  996MOL0     C34340   7.476  10.704   4.704 -0.7588 -0.3385 -0.1129
  996MOL0     C34341   7.369  10.759   4.803 -1.0102 -0.1553  0.0254
  996MOL0     N34342   7.262  10.661   4.835  0.3916  0.2780 -0.2598
  996MOL0     C34343   7.144  10.683   4.909 -0.4214 -0.0875 -0.3637
  996MOL0     C34344   7.073  10.572   4.905 -0.9043  0.4482  0.7605
  996MOL0     C34345   6.951  10.546   4.980 -0.4468  0.1442  0.7508
  996MOL0     C34346   6.838  10.545   4.880 -0.1391 -0.2342 -0.0976
  996MOL0     C34347   6.714  10.490   4.955 -0.4890 -0.2264  0.2530
  996MOL0     C34348   6.581  10.502   4.880 -0.5446 -0.2106  0.2345
  996MOL0     O34349   6.482  10.471   4.979 -0.5225  0.2582 -0.4528
  996MOL0     C34350   6.360  10.495   4.930  0.6914 -0.7864 -0.3626
  996MOL0     C34351   6.308  10.558   4.812  0.0716 -0.4827  0.1307
  996MOL0     C34352   6.171  10.593   4.787 -0.6930  0.4764  0.3199
  996MOL0     C34353   6.139  10.653   4.651 -0.5746  0.4280  0.4950
  996MOL0     C34354   6.080  10.576   4.893 -0.4482  0.4493  0.2352
  996MOL0     C34355   5.939  10.616   4.895  0.7614  0.4310 -0.0287
  996MOL0     O34356   5.876  10.597   5.014  0.2337 -0.1160 -0.1505
  996MOL0     C34357   5.749  10.657   5.038 -0.0172 -0.0579 -0.2710
  996MOL0     C34358   5.631  10.589   4.992 -0.0139  0.9719 -0.0335
  996MOL0     C34359   5.505  10.641   5.028  0.7252 -0.2675 -0.0442
  996MOL0     C34360   5.490  10.756   5.100 -0.2591  0.2461 -0.1780
  996MOL0     O34361   5.366  10.790   5.126  0.2108 -0.2128 -0.0431
  996MOL0     C34362   5.332  10.913   5.190 -1.3432 -0.0114 -0.5283
  996MOL0     C34363   5.182  10.955   5.181 -0.7667  0.2263  0.4060
  996MOL0     C34364   5.084  10.843   5.209 -0.3752 -0.0083  0.6452
  996MOL0     C34365   4.966  10.897   5.294  0.0439 -0.3766  0.1728
  996MOL0     C34366   4.858  10.791   5.306 -0.4462 -0.1604 -0.0723
  996MOL0     C34367   4.718  10.864   5.290 -0.0832 -0.2216 -0.0389
  996MOL0     C34368   4.602  10.768   5.318 -0.5366 -0.0713  0.3411
  996MOL0     C34369   4.591  10.635   5.236  0.4136 -0.7640 -0.2641
  996MOL0    Cl34370   4.428  10.575   5.285  0.3592 -0.1452 -0.2712
  996MOL0     C34371   5.611  10.818   5.150  0.3735 -0.1251  0.0968
  996MOL0     C34372   5.735  10.767   5.123 -0.1834  0.7460 -0.4529
  996MOL0     O34373   5.889  10.667   4.795 -0.1909  0.0628 -0.2943
  996MOL0     C34374   6.128  10.517   5.003 -0.5672  0.2462  0.1331
  996MOL0     C34375   6.261  10.483   5.029 -0.5933 -0.6793  0.0958
  996MOL0     N34376   7.146  10.485   4.820 -0.2453 -0.3013 -0.1899
  996MOL0     N34377   7.255  10.538   4.777 -0.3133 -0.2080 -1.1121
  996MOL0     C34378   8.157  11.017   4.359 -0.2737  0.3920  0.1831
  996MOL0     C34379   8.270  11.019   4.276  0.5454  0.7893  0.5684
  996MOL0     C34380   8.706  10.938   4.125 -0.1910  0.3607  0.7145
  996MOL0     C34381   8.847  10.906   4.145 -0.0042 -0.0728 -0.1226
  996MOL0     C34382   8.937  10.903   4.033 -0.1484 -0.2899 -0.5630
  996MOL0     C34383   8.896  10.934   3.896  0.3743  0.5786  0.0388
  996MOL0     O34384   8.989  10.928   3.794  0.3182 -0.3299  0.0310
  996MOL0     C34385   8.956  10.960   3.660  0.3391 -0.0356 -1.0869
  996MOL0     C34386   9.086  10.985   3.584 -0.2050 -0.5384  0.7319
  996MOL0     C34387   9.168  11.106   3.631  0.2253  0.6474  0.1163
  996MOL0     C34388   9.286  11.113   3.525  0.2919 -0.5807 -0.5452
  996MOL0     C34389   9.395  11.012   3.509  0.3759 -0.1549 -0.2590
  996MOL0     C34390   9.471  10.923   3.485 -0.5406 -0.2170 -0.8107
  996MOL0     C34391   8.755  10.966   3.882 -0.4756  0.2953 -0.0806
  996MOL0     C34392   8.665  10.971   3.994 -0.4788  0.5366  0.2748
  996MOL0     H34393   8.483  10.848   4.492  0.0150  1.1937  2.7096
  996MOL0     H34394   8.297  10.861   4.629 -1.9726 -0.7884 -0.2046
  996MOL0     H34395   8.089  10.907   4.740  0.9118  0.3949  0.7588
  996MOL0     H34396   8.156  11.069   4.715 -0.0112 -0.4255  2.4757
  996MOL0     H34397   7.963  11.069   4.872 -0.6330 -0.3679  0.4310
  996MOL0     H34398   7.954  11.169   4.722 -0.1082 -0.3877 -1.5917
  996MOL0     H34399   7.736  11.055   4.774  0.1501 -0.0133  0.8984
  996MOL0     H34400   7.802  11.010   4.623  1.8173  0.3650 -0.4602
  996MOL0     H34401   7.867  10.790   4.693 -0.6244 -0.4811  0.3482
  996MOL0     H34402   7.891  10.830   4.862  2.9646 -4.2204 -2.3322
  996MOL0     H34403   7.703  10.684   4.833 -1.1585 -1.0837 -2.0226
  996MOL0     H34404   7.657  10.844   4.885  2.2325 -2.7382  1.7434
  996MOL0     H34405   7.569  10.902   4.666 -0.5982 -0.2945  0.6528
  996MOL0     H34406   7.659  10.764   4.602 -0.9674 -0.3220 -0.1437
  996MOL0     H34407   7.430  10.683   4.607 -0.7621  1.2835 -0.4993
  996MOL0     H34408   7.520  10.611   4.741  0.2149 -1.4394 -3.6550
  996MOL0     H34409   7.322  10.848   4.760 -0.2670 -0.5745 -1.7226
  996MOL0     H34410   7.420  10.780   4.897 -3.0842 -0.0622  1.1981
  996MOL0     H34411   7.135  10.768   4.976 -0.4376 -1.2542  1.1720
  996MOL0     H34412   6.950  10.446   5.025 -2.6703  0.1691  0.8805
  996MOL0     H34413   6.927  10.620   5.057 -2.7976 -1.2820  1.5023
  996MOL0     H34414   6.869  10.473   4.804  1.0784 -0.4206  0.5560
  996MOL0     H34415   6.824  10.639   4.826  4.7927  0.3713 -0.7316
  996MOL0     H34416   6.706  10.543   5.051  0.3211 -0.5522  0.5110
  996MOL0     H34417   6.714  10.383   4.978 -2.4389 -0.1020  1.0759
  996MOL0     H34418   6.599  10.433   4.798 -1.0659  0.1893 -0.2195
  996MOL0     H34419   6.573  10.606   4.847  0.6920 -0.8956 -2.4486
  996MOL0     H34420   6.382  10.564   4.733 -0.5164 -0.2330 -0.4064
  996MOL0     H34421   6.106  10.756   4.667  1.2938  1.1000  0.1814
  996MOL0     H34422   6.224  10.660   4.582 -1.0424 -0.5421 -0.2166
  996MOL0     H34423   6.063  10.588   4.607  0.3882 -1.1665  1.0951
  996MOL0     H34424   5.622  10.502   4.928 -2.0323  0.5894  0.6984
  996MOL0     H34425   5.417  10.580   5.009 -1.0491  3.0216 -3.6211
  996MOL0     H34426   5.355  10.901   5.296 -0.7227 -0.6600 -0.7301
  996MOL0     H34427   5.386  10.994   5.139 -3.2388  2.5925  1.3558
  996MOL0     H34428   5.167  11.034   5.256 -0.0292 -1.0372  1.9618
  996MOL0     H34429   5.173  10.994   5.080  3.2059  0.3131 -0.0913
  996MOL0     H34430   5.125  10.767   5.277  1.2585  0.7031  0.4823
  996MOL0     H34431   5.055  10.794   5.116  1.7811  0.3401 -0.2605
  996MOL0     H34432   4.989  10.939   5.392 -0.8209  0.1962  0.1436
  996MOL0     H34433   4.916  10.978   5.239  0.5575 -1.1020 -1.4313
  996MOL0     H34434   4.867  10.752   5.408 -1.7512  0.4168  0.2910
  996MOL0     H34435   4.872  10.711   5.233 -0.7314  0.0585 -0.3673
  996MOL0     H34436   4.704  10.950   5.356 -2.3995 -1.0616  0.6582
  996MOL0     H34437   4.719  10.912   5.192 -0.3467  1.4189  0.7358
  996MOL0     H34438   4.517  10.833   5.294 -0.1677  0.5519  0.6759
  996MOL0     H34439   4.601  10.753   5.426  0.8530  3.6302  1.0188
  996MOL0     H34440   4.660  10.556   5.267  0.9747 -0.6286 -1.1373
  996MOL0     H34441   4.611  10.658   5.131  1.2056  0.8755  0.2077
  996MOL0     H34442   5.617  10.900   5.221  0.0661  1.0100 -1.1353
  996MOL0     H34443   5.823  10.811   5.166  1.3583 -3.0843  0.7272
  996MOL0     H34444   6.060  10.488   5.082 -1.5355  2.3096  0.1041
  996MOL0     H34445   6.290  10.444   5.126 -0.7304 -0.6149  0.1618
  996MOL0     H34446   8.061  11.063   4.337 -0.5579  0.3005  1.2101
  996MOL0     H34447   8.267  11.054   4.174  3.1461 -1.0362 -0.2509
  996MOL0     H34448   8.885  10.895   4.246 -3.4051  2.5564  1.6570
  996MOL0     H34449   9.043  10.899   4.058  0.0592  0.0713 -1.3430
  996MOL0     H34450   8.890  10.882   3.620 -1.6427 -0.5854  2.7758
  996MOL0     H34451   8.895  11.051   3.661 -1.9880 -1.2474  4.5166
  996MOL0     H34452   9.060  11.005   3.480 -1.6057 -0.2542  1.1081
  996MOL0     H34453   9.157  10.902   3.588 -1.0353 -1.2520  1.2834
  996MOL0     H34454   9.212  11.084   3.729 -0.9603 -2.1564  0.1083
  996MOL0     H34455   9.106  11.196   3.633  0.9046  1.1545 -0.9498
  996MOL0     H34456   9.342  11.204   3.545 -1.5165  0.4236  0.2100
  996MOL0     H34457   9.245  11.117   3.423  1.2693 -1.5346 -0.9965
  996MOL0     H34458   9.547  10.847   3.489 -1.7417 -1.4347  2.3354
  996MOL0     H34459   8.718  10.990   3.783 -4.1294  1.4624  1.4258
  996MOL0     H34460   8.563  11.000   3.973 -0.5653  0.3867  0.4918
  997MOL0     O34461   7.371  11.032   8.203 -0.3922 -0.6769 -0.1964
  997MOL0     C34462   7.429  10.938   8.267  0.1940 -0.0705 -0.8809
  997MOL0     O34463   7.366  10.824   8.306  0.2526 -0.3814 -0.4959
  997MOL0     C34464   7.243  10.800   8.257  0.2955 -0.0517  0.4694
  997MOL0     C34465   7.236  10.674   8.194  0.2300  0.5113  0.8564
  997MOL0     C34466   7.116  10.633   8.151 -0.1449 -0.3632 -0.4154
  997MOL0     C34467   6.995  10.706   8.179  0.0354  0.2162  0.1211
  997MOL0     O34468   6.869  10.654   8.153  0.6281 -0.2870  0.9978
  997MOL0     C34469   6.767  10.753   8.123 -0.0180  0.3079 -0.6699
  997MOL0     C34470   6.658  10.674   8.045 -0.5226 -0.3827  0.3812
  997MOL0     C34471   6.702  10.663   7.903 -0.3042  0.2775 -0.4447
  997MOL0     C34472   6.603  10.596   7.810  0.1729 -0.5164 -0.2869
  997MOL0     C34473   6.652  10.570   7.664  0.1430 -0.1462 -0.6126
  997MOL0     C34474   6.557  10.484   7.581 -0.3897  0.5781  0.6119
  997MOL0     C34475   6.415  10.540   7.555  0.0691  0.5961 -0.2857
  997MOL0     C34476   6.412  10.663   7.465 -0.4328  0.6388  0.2163
  997MOL0     N34477   6.280  10.676   7.407  0.0284  0.6879 -0.6216
  997MOL0     C34478   6.174  10.672   7.493 -0.2766 -0.7353  0.5912
  997MOL0     C34479   6.070  10.676   7.411  0.4077  0.4517  0.3904
  997MOL0     C34480   5.938  10.641   7.462  0.3383 -0.5616  0.9000
  997MOL0     C34481   5.879  10.756   7.531  0.0104 -0.2106 -0.7404
  997MOL0     C34482   5.726  10.720   7.574  0.4474 -0.3296  0.1837
  997MOL0     C34483   5.680  10.814   7.692 -0.2160 -0.0213  0.2334
  997MOL0     O34484   5.537  10.817   7.706 -0.4168 -0.3517 -0.4014
  997MOL0     C34485   5.487  10.895   7.808 -0.5781  1.0417  0.0251
  997MOL0     C34486   5.350  10.887   7.832 -0.6476  0.0819  0.0165
  997MOL0     C34487   5.286  10.958   7.941  0.2287 -0.7306  0.1987
  997MOL0     C34488   5.138  10.949   7.934 -1.3028 -0.7857  0.0609
  997MOL0     C34489   5.364  11.060   8.008 -0.6387 -0.2402  0.6623
  997MOL0     C34490   5.298  11.162   8.101 -0.1571  0.8573 -0.3684
  997MOL0     O34491   5.359  11.275   8.121 -0.0093 -0.1497 -0.8803
  997MOL0     C34492   5.298  11.372   8.200 -0.5083 -0.8084  0.4075
  997MOL0     C34493   5.385  11.420   8.293  0.2381  0.5281  0.2978
  997MOL0     C34494   5.335  11.518   8.387 -0.5659 -0.4101  0.1694
  997MOL0     C34495   5.207  11.568   8.374 -0.1141 -0.6052  0.3667
  997MOL0     O34496   5.158  11.680   8.434  0.1629  0.1746 -0.7618
  997MOL0     C34497   5.157  11.667   8.579  0.2615  0.3301  0.3265
  997MOL0     C34498   5.126  11.808   8.630 -0.4824 -0.4861 -0.6382
  997MOL0     C34499   4.983  11.833   8.638  0.4689  0.2943 -0.9350
  997MOL0     C34500   4.942  11.982   8.632 -0.8221 -0.7641 -0.2835
  997MOL0     C34501   4.963  12.064   8.766  0.4024  0.1583 -0.1701
  997MOL0     C34502   4.895  12.202   8.768  0.6478 -0.3620  0.2542
  997MOL0     C34503   4.751  12.198   8.727 -0.4696  0.9251  0.6648
  997MOL0     C34504   4.668  12.327   8.749  0.9940 -0.0225  0.4134
  997MOL0    Cl34505   4.651  12.366   8.922 -0.3184 -0.2347  0.1938
  997MOL0     C34506   5.127  11.519   8.276  0.1494 -0.1333  0.5175
  997MOL0     C34507   5.173  11.422   8.188 -0.4776 -0.3779 -0.5163
  997MOL0     O34508   5.190  11.130   8.151 -0.4010 -0.0318  0.4426
  997MOL0     C34509   5.501  11.072   7.984  0.5967  0.0916 -0.6731
  997MOL0     C34510   5.555  10.986   7.884 -0.1306 -0.4117  0.1986
  997MOL0     N34511   6.109  10.681   7.279  0.2037  0.0116  1.1521
  997MOL0     N34512   6.235  10.687   7.276 -0.0102  0.6954 -0.6719
  997MOL0     C34513   7.012  10.829   8.245 -0.3609  0.4120  0.0792
  997MOL0     C34514   7.141  10.875   8.282 -0.1880 -0.1279  0.3038
  997MOL0     C34515   7.565  10.956   8.328 -0.3342  0.8066 -0.4066
  997MOL0     C34516   7.594  10.891   8.448 -0.3579  0.6642  0.3293
  997MOL0     C34517   7.714  10.904   8.515 -0.4157  0.5193  0.3326
  997MOL0     C34518   7.812  10.978   8.460  0.1766  0.0523 -0.1520
  997MOL0     O34519   7.924  10.980   8.537 -0.1618 -0.0860  1.1355
  997MOL0     C34520   8.001  11.100   8.534  0.0352 -0.2685 -0.0576
  997MOL0     C34521   8.121  11.097   8.622 -0.1893  0.3099 -0.6436
  997MOL0     C34522   8.101  11.028   8.761  0.0944 -0.4009  0.4975
  997MOL0     C34523   8.039  11.117   8.868  0.1867  0.7118 -0.1347
  997MOL0     C34524   7.891  11.114   8.866 -0.0396 -0.1076 -0.2969
  997MOL0     C34525   7.768  11.132   8.868  0.4389 -0.9086 -0.9511
  997MOL0     C34526   7.790  11.049   8.338 -0.2828  0.1770  1.0070
  997MOL0     C34527   7.659  11.040   8.276  0.2913 -0.1239  0.6156
  997MOL0     H34528   7.322  10.609   8.185 -1.6814 -2.1746  0.9393
  997MOL0     H34529   7.104  10.537   8.101  3.2671 -0.7054 -0.7592
  997MOL0     H34530   6.723  10.800   8.212 -0.8938 -0.5268 -0.6509
  997MOL0     H34531   6.812  10.824   8.052  0.0727 -1.7965 -2.8404
  997MOL0     H34532   6.628  10.576   8.085 -1.5207  0.0466  0.7083
  997MOL0     H34533   6.571  10.737   8.064 -0.1442  0.1955  0.2232
  997MOL0     H34534   6.721  10.762   7.861  0.1747  1.0691  1.5428
  997MOL0     H34535   6.796  10.611   7.882 -1.9166 -2.2930 -1.9285
  997MOL0     H34536   6.567  10.508   7.864  0.8084  0.7021  2.2596
  997MOL0     H34537   6.518  10.665   7.805 -0.1535 -0.8902  0.0883
  997MOL0     H34538   6.659  10.668   7.615  3.4838 -1.1518 -2.4866
  997MOL0     H34539   6.753  10.531   7.680 -0.4694 -1.1972  0.9579
  997MOL0     H34540   6.608  10.473   7.485  0.7755  0.4651  1.2232
  997MOL0     H34541   6.540  10.387   7.627 -2.3791  0.8506  0.5401
  997MOL0     H34542   6.359  10.459   7.507  0.6169 -1.0233  1.6626
  997MOL0     H34543   6.359  10.563   7.646 -0.4810  1.0307 -0.7246
  997MOL0     H34544   6.492  10.663   7.389  1.7473  2.9117  2.3135
  997MOL0     H34545   6.424  10.752   7.527  0.4650  0.0788  0.8658
  997MOL0     H34546   6.170  10.668   7.601 -2.8135  1.8030  0.7213
  997MOL0     H34547   5.877  10.599   7.381 -0.9327 -0.3145  1.6990
  997MOL0     H34548   5.934  10.562   7.537 -2.6294  1.7074  3.4138
  997MOL0     H34549   5.873  10.841   7.463 -2.6620  0.9289  0.7307
  997MOL0     H34550   5.942  10.764   7.620  1.0337  1.4524 -1.5719
  997MOL0     H34551   5.720  10.616   7.607  0.3029 -0.6739 -0.8651
  997MOL0     H34552   5.662  10.724   7.485  1.1625 -0.4891 -0.3483
  997MOL0     H34553   5.722  10.914   7.684 -0.0534 -0.1490 -0.5253
  997MOL0     H34554   5.709  10.786   7.794  1.3576  2.9251  0.7004
  997MOL0     H34555   5.298  10.828   7.757 -1.9516 -0.5547  1.3669
  997MOL0     H34556   5.100  10.904   8.026  0.6984  1.2477  2.0181
  997MOL0     H34557   5.105  11.053   7.925 -2.1446 -1.0008  0.5697
  997MOL0     H34558   5.097  10.897   7.847  0.3480 -0.8144 -0.7365
  997MOL0     H34559   5.488  11.393   8.311 -0.6846 -1.4216  3.5077
  997MOL0     H34560   5.409  11.553   8.458  1.3370 -1.3022 -1.2544
  997MOL0     H34561   5.086  11.594   8.619  1.4849  0.2530  2.4917
  997MOL0     H34562   5.252  11.622   8.609 -1.0196 -3.4119 -0.6707
  997MOL0     H34563   5.175  11.813   8.728 -1.3298 -1.2237 -0.1715
  997MOL0     H34564   5.170  11.884   8.565 -1.4068  2.1566  1.5989
  997MOL0     H34565   4.930  11.792   8.724 -2.4918  1.0275 -2.2839
  997MOL0     H34566   4.930  11.795   8.550  0.3265  2.9754 -2.1239
  997MOL0     H34567   4.972  12.035   8.542 -2.4511 -2.2720 -1.7723
  997MOL0     H34568   4.833  11.982   8.628 -0.8178  0.1752 -0.5364
  997MOL0     H34569   5.068  12.076   8.793  0.0503 -2.1678  2.7572
  997MOL0     H34570   4.921  12.013   8.853  1.1315 -1.2390 -0.6057
  997MOL0     H34571   4.912  12.256   8.862 -0.3556  2.6733 -1.1945
  997MOL0     H34572   4.936  12.259   8.684  1.1795  0.9168  1.3516
  997MOL0     H34573   4.717  12.116   8.792  2.0789  0.2894  1.3232
  997MOL0     H34574   4.741  12.167   8.623 -0.2786 -0.5116  1.0514
  997MOL0     H34575   4.566  12.296   8.723  1.9203 -1.2145 -2.2142
  997MOL0     H34576   4.698  12.412   8.687 -0.2506 -1.2474 -2.0257
  997MOL0     H34577   5.028  11.563   8.275 -1.6843 -3.9080  0.6836
  997MOL0     H34578   5.113  11.384   8.106 -1.6236  1.1846 -0.4475
  997MOL0     H34579   5.559  11.151   8.031 -1.0013  0.3812  0.9231
  997MOL0     H34580   5.661  11.002   7.869  0.3650 -0.8978  2.7459
  997MOL0     H34581   6.929  10.892   8.275  1.1019  2.7100 -0.3639
  997MOL0     H34582   7.148  10.966   8.341  3.9501  0.3975 -0.6770
  997MOL0     H34583   7.526  10.828   8.504 -2.4620  2.6242  0.1158
  997MOL0     H34584   7.725  10.851   8.610  2.4312  1.1641  0.4628
  997MOL0     H34585   8.021  11.128   8.430 -0.8615 -1.1380 -0.4723
  997MOL0     H34586   7.935  11.176   8.576 -0.1888  0.0083 -0.8865
  997MOL0     H34587   8.161  11.198   8.630  2.0767 -0.6299  0.8539
  997MOL0     H34588   8.194  11.042   8.563 -0.0371  0.0888 -0.2600
  997MOL0     H34589   8.196  10.987   8.796 -0.7456 -0.2227  3.2386
  997MOL0     H34590   8.030  10.945   8.752  0.5624 -0.6369 -1.3580
  997MOL0     H34591   8.077  11.219   8.870  1.6900  0.1733  1.2026
  997MOL0     H34592   8.071  11.075   8.964  0.4954  2.7778  0.7189
  997MOL0     H34593   7.664  11.157   8.863  0.7456  0.5895 -0.5997
  997MOL0     H34594   7.871  11.105   8.294  0.7519 -0.7760  1.6315
  997MOL0     H34595   7.659  11.083   8.176 -0.0711 -2.5648 -0.5124
  998MOL0     O34596   7.402   3.694   2.246  0.3439 -0.0353 -0.2523
  998MOL0     C34597   7.425   3.745   2.354  0.1320  0.3011 -0.1083
  998MOL0     O34598   7.337   3.779   2.449 -0.2016  0.5987 -0.1151
  998MOL0     C34599   7.209   3.738   2.457 -0.2883  0.6226 -0.7331
  998MOL0     C34600   7.141   3.756   2.585 -0.3257 -0.1568  0.7307
  998MOL0     C34601   7.010   3.720   2.602  0.1200  0.6992 -0.3631
  998MOL0     C34602   6.929   3.672   2.502  0.3717  0.3493  0.8127
  998MOL0     O34603   6.793   3.642   2.507 -0.3768  0.0598  0.2482
  998MOL0     C34604   6.717   3.674   2.617  0.0237 -0.9979 -0.4519
  998MOL0     C34605   6.564   3.652   2.597  0.0282  1.0288 -0.6275
  998MOL0     C34606   6.476   3.710   2.714  0.0754  0.6513 -0.2292
  998MOL0     C34607   6.325   3.708   2.683 -0.7744 -0.3218 -0.5889
  998MOL0     C34608   6.281   3.556   2.673 -0.0193 -0.2384  0.0109
  998MOL0     C34609   6.131   3.538   2.679 -0.3703  0.0392  0.7918
  998MOL0     C34610   6.063   3.593   2.814 -0.0813 -0.0196 -0.0138
  998MOL0     C34611   5.984   3.725   2.801  0.1398  0.4137  0.5049
  998MOL0     N34612   5.857   3.708   2.732  0.2608  0.1835  0.1469
  998MOL0     C34613   5.749   3.789   2.731 -0.1151  1.1125  0.6676
  998MOL0     C34614   5.659   3.737   2.638  0.7546  1.2115 -0.8936
  998MOL0     C34615   5.526   3.789   2.616 -0.2909  0.1420 -0.1843
  998MOL0     C34616   5.534   3.932   2.557 -0.3077  0.6628 -0.1043
  998MOL0     C34617   5.389   3.973   2.511 -0.5476  0.5664 -1.4997
  998MOL0     C34618   5.375   4.101   2.438 -0.0644 -0.2633 -0.1361
  998MOL0     O34619   5.245   4.167   2.433 -0.1101  0.1450 -0.2995
  998MOL0     C34620   5.166   4.207   2.536 -0.5009  0.0825  0.3619
  998MOL0     C34621   5.201   4.211   2.672 -0.2182 -0.6426 -0.4708
  998MOL0     C34622   5.112   4.259   2.768 -0.0703 -0.9690 -0.5718
  998MOL0     C34623   5.167   4.263   2.914 -0.2483  0.7977 -0.1921
  998MOL0     C34624   4.980   4.290   2.734 -0.4861 -0.2465  0.3443
  998MOL0     C34625   4.872   4.301   2.824 -0.3087 -0.2130  0.1521
  998MOL0     O34626   4.749   4.331   2.768 -0.7281  0.1045  0.1841
  998MOL0     C34627   4.641   4.324   2.849  0.7828  0.4010  0.3382
  998MOL0     C34628   4.601   4.213   2.930 -0.0893  0.7494 -1.0823
  998MOL0     C34629   4.478   4.220   3.003 -0.2595  0.8474 -0.0321
  998MOL0     C34630   4.396   4.321   2.996 -0.6878  0.7435 -0.1509
  998MOL0     O34631   4.282   4.317   3.065  0.5500  0.5201 -0.3059
  998MOL0     C34632   4.173   4.387   3.011 -1.0024  0.5897 -0.0154
  998MOL0     C34633   4.048   4.359   3.090  0.2568  0.8049  0.4300
  998MOL0     C34634   3.925   4.417   3.024  0.8342 -0.0966 -0.0746
  998MOL0     C34635   3.797   4.342   3.075 -0.0006 -0.4760 -0.2924
  998MOL0     C34636   3.668   4.419   3.026 -0.1749  0.4378  1.1863
  998MOL0     C34637   3.541   4.342   3.073  0.4030  0.6605  0.4976
  998MOL0     C34638   3.424   4.442   3.070 -0.5625  0.7053  0.5291
  998MOL0     C34639   3.302   4.394   3.145  0.5460 -0.4564 -0.7329
  998MOL0    Cl34640   3.190   4.536   3.137  0.2048 -0.1411  0.3772
  998MOL0     C34641   4.435   4.428   2.914  0.6313  0.7563  1.1293
  998MOL0     C34642   4.551   4.430   2.837 -0.7098 -0.5126  0.2539
  998MOL0     O34643   4.890   4.263   2.937  0.6828  0.6260  0.0408
  998MOL0     C34644   4.944   4.292   2.598 -0.3921  0.1751  0.2212
  998MOL0     C34645   5.035   4.250   2.503  0.2762  0.6126  0.1236
  998MOL0     N34646   5.704   3.616   2.590  0.0108 -0.3188  0.6488
  998MOL0     N34647   5.828   3.613   2.638 -0.1909  0.1819 -0.0010
  998MOL0     C34648   6.985   3.669   2.374 -0.3928  0.8858 -0.0067
  998MOL0     C34649   7.125   3.704   2.349 -0.7074 -0.1133  0.1029
  998MOL0     C34650   7.561   3.817   2.365 -0.2595  0.0867  0.1572
  998MOL0     C34651   7.662   3.815   2.267 -0.1054 -0.0453  0.1585
  998MOL0     C34652   7.780   3.884   2.282 -0.4117 -0.6461 -0.1706
  998MOL0     C34653   7.811   3.949   2.402  0.2714 -0.3072  0.6331
  998MOL0     O34654   7.939   4.001   2.419 -0.2756  0.4791 -0.7447
  998MOL0     C34655   7.983   4.105   2.323 -0.0711 -0.0104  0.2085
  998MOL0     C34656   8.139   4.104   2.307 -0.3281 -0.3106 -0.7707
  998MOL0     C34657   8.181   4.235   2.238  0.5542  0.6712  0.2759
  998MOL0     C34658   8.130   4.369   2.306  0.0711  0.1661 -0.3059
  998MOL0     C34659   8.210   4.485   2.270 -0.8219  0.2091 -0.2298
  998MOL0     C34660   8.301   4.567   2.241  0.1296 -0.0108 -0.1736
  998MOL0     C34661   7.722   3.939   2.502  0.6734  0.4399 -0.7737
  998MOL0     C34662   7.598   3.869   2.483  0.6046 -0.4877 -0.6503
  998MOL0     H34663   7.206   3.780   2.669  0.2236  1.2426 -0.0605
  998MOL0     H34664   6.977   3.725   2.706  2.1848  2.4160  0.3012
  998MOL0     H34665   6.746   3.622   2.709  0.9378  1.6057  0.8294
  998MOL0     H34666   6.720   3.781   2.635  1.0721 -0.9604 -0.7845
  998MOL0     H34667   6.532   3.689   2.499  0.2432 -0.3546 -1.2408
  998MOL0     H34668   6.538   3.546   2.591  0.1512  0.8592  1.2780
  998MOL0     H34669   6.494   3.662   2.811  0.5996 -1.3902 -1.2753
  998MOL0     H34670   6.494   3.818   2.715  0.5350  0.5779  0.7546
  998MOL0     H34671   6.260   3.758   2.755 -0.0161 -1.5187  0.9985
  998MOL0     H34672   6.301   3.759   2.589 -0.1554 -0.4493 -0.8213
  998MOL0     H34673   6.316   3.514   2.578  1.0321  1.1906 -0.2737
  998MOL0     H34674   6.334   3.505   2.753  0.0504  0.0462  0.1475
  998MOL0     H34675   6.088   3.592   2.594 -1.9733  2.1735  2.8346
  998MOL0     H34676   6.116   3.432   2.657  0.1022  0.3295 -1.1083
  998MOL0     H34677   5.997   3.518   2.860  0.2515  0.9261  2.1518
  998MOL0     H34678   6.137   3.607   2.893 -0.5883 -0.8085  0.6168
  998MOL0     H34679   6.050   3.799   2.754 -1.0986 -0.0122 -2.0508
  998MOL0     H34680   5.957   3.757   2.902 -2.2776  0.2705 -0.0525
  998MOL0     H34681   5.746   3.892   2.767 -1.1834  2.8873 -3.8472
  998MOL0     H34682   5.474   3.726   2.543  0.0115  0.8134 -0.9881
  998MOL0     H34683   5.471   3.796   2.711 -2.5294  1.8589 -1.5010
  998MOL0     H34684   5.611   3.926   2.480  1.1985 -1.4362  1.4484
  998MOL0     H34685   5.563   4.005   2.634  3.8512 -1.0559  0.1793
  998MOL0     H34686   5.329   3.974   2.603 -0.8230  0.9508 -1.6803
  998MOL0     H34687   5.350   3.893   2.448 -1.6404 -0.1844  0.0448
  998MOL0     H34688   5.414   4.078   2.338  1.9375 -0.7718  0.7234
  998MOL0     H34689   5.446   4.178   2.467  0.2386 -0.2009 -0.9988
  998MOL0     H34690   5.300   4.183   2.705 -1.2233 -2.6306  1.0970
  998MOL0     H34691   5.145   4.165   2.958  0.9416  1.0066  0.9581
  998MOL0     H34692   5.274   4.280   2.923  0.0574 -1.7910  3.1359
  998MOL0     H34693   5.119   4.340   2.976 -3.1248 -1.9217  1.2726
  998MOL0     H34694   4.656   4.120   2.926  0.0416  0.8495 -1.6916
  998MOL0     H34695   4.453   4.148   3.080  2.6338  2.3810  2.5302
  998MOL0     H34696   4.184   4.495   3.017  0.0761  0.6755 -2.2548
  998MOL0     H34697   4.155   4.348   2.910  0.9018  1.7796 -0.8827
  998MOL0     H34698   4.043   4.250   3.085  1.4449  0.7862 -2.1446
  998MOL0     H34699   4.062   4.392   3.193  3.0687 -0.5203  0.5620
  998MOL0     H34700   3.929   4.400   2.916  1.1224 -3.9512  0.4057
  998MOL0     H34701   3.902   4.521   3.049 -2.7618 -1.2387  2.0531
  998MOL0     H34702   3.797   4.243   3.029 -1.6390 -0.2995 -0.7432
  998MOL0     H34703   3.806   4.338   3.184  0.4111  0.4117 -0.2847
  998MOL0     H34704   3.675   4.423   2.916  0.9618 -1.8062  1.1137
  998MOL0     H34705   3.665   4.523   3.061  0.1704  1.8229 -2.4343
  998MOL0     H34706   3.516   4.247   3.024  2.9541  0.1628  0.0082
  998MOL0     H34707   3.566   4.309   3.175 -0.5217 -0.4973  0.3641
  998MOL0     H34708   3.408   4.474   2.966 -1.0644 -1.5199 -0.1353
  998MOL0     H34709   3.455   4.529   3.129 -0.5801 -0.3562  2.1366
  998MOL0     H34710   3.326   4.379   3.251  0.5176  2.7915 -0.1809
  998MOL0     H34711   3.261   4.300   3.107 -1.2447 -0.7941  1.7707
  998MOL0     H34712   4.374   4.517   2.901  0.5691  0.6401  0.5900
  998MOL0     H34713   4.572   4.513   2.769 -1.2259 -0.7699 -0.2220
  998MOL0     H34714   4.847   4.321   2.560  0.2003  0.1319 -1.4016
  998MOL0     H34715   4.987   4.241   2.405  0.1433 -2.0699  0.3425
  998MOL0     H34716   6.938   3.629   2.285  0.7641 -1.7327  0.4456
  998MOL0     H34717   7.163   3.700   2.248 -0.9480  0.6456 -0.0245
  998MOL0     H34718   7.648   3.780   2.166  1.6009  1.0830 -0.5231
  998MOL0     H34719   7.847   3.887   2.197 -0.4138  1.1455 -0.1473
  998MOL0     H34720   7.945   4.095   2.221  0.7932  1.0734 -0.2450
  998MOL0     H34721   7.950   4.200   2.365  1.2460  0.8136 -0.5528
  998MOL0     H34722   8.169   4.020   2.243 -0.3302  1.3868 -3.1512
  998MOL0     H34723   8.188   4.093   2.404  1.8354 -0.2672 -1.8039
  998MOL0     H34724   8.140   4.230   2.137 -1.6956 -1.3139  1.1743
  998MOL0     H34725   8.290   4.239   2.234  0.4801  1.9698 -1.8010
  998MOL0     H34726   8.153   4.349   2.412 -0.3464 -0.4429 -0.3269
  998MOL0     H34727   8.025   4.391   2.286 -0.6992 -2.2310  0.7294
  998MOL0     H34728   8.361   4.645   2.198 -0.0036 -0.5282 -1.3320
  998MOL0     H34729   7.750   3.973   2.601  0.3402 -0.3272 -0.4091
  998MOL0     H34730   7.524   3.864   2.562 -0.7727 -2.7750 -1.9938
  999MOL0     O34731   5.059   5.111   6.243  0.5193  0.7892 -0.7289
  999MOL0     C34732   5.179   5.079   6.250 -1.4156  0.6144 -0.5601
  999MOL0     O34733   5.231   4.948   6.259  0.5389  0.4149 -0.5560
  999MOL0     C34734   5.147   4.856   6.208  0.9659  0.1424  0.1254
  999MOL0     C34735   5.104   4.858   6.071  0.4171 -0.2055 -0.0087
  999MOL0     C34736   5.007   4.767   6.021  0.0253  0.0057 -0.9134
  999MOL0     C34737   4.955   4.671   6.101 -0.4155  0.3996 -0.0738
  999MOL0     O34738   4.872   4.580   6.040  0.5615  0.5014  0.1636
  999MOL0     C34739   4.722   4.601   6.064  0.1904 -0.2625  0.7877
  999MOL0     C34740   4.669   4.516   6.180  0.1262  0.1344  0.3345
  999MOL0     C34741   4.526   4.486   6.144 -0.6584  0.0019  1.3198
  999MOL0     C34742   4.469   4.404   6.250  0.5920 -0.4643  0.6749
  999MOL0     C34743   4.330   4.374   6.228  0.2170  0.4803  0.5717
  999MOL0     C34744   4.260   4.322   6.343  0.7685  0.1448  0.3531
  999MOL0     C34745   4.103   4.323   6.337 -0.0521 -1.0386  0.0566
  999MOL0     C34746   4.051   4.253   6.212  0.0019 -0.4962  0.4506
  999MOL0     N34747   3.912   4.206   6.222  0.5381  0.3269 -0.2189
  999MOL0     C34748   3.866   4.081   6.263 -0.3970 -0.1148  0.1705
  999MOL0     C34749   3.735   4.093   6.263  0.3376  0.5922 -0.0930
  999MOL0     C34750   3.633   3.990   6.293 -0.6803  0.5939 -0.1953
  999MOL0     C34751   3.530   4.051   6.388  0.5923 -1.1365  0.1357
  999MOL0     C34752   3.453   3.938   6.462  0.2979 -0.0256 -0.5787
  999MOL0     C34753   3.313   3.978   6.534  0.3405  0.4700  0.5595
  999MOL0     O34754   3.215   4.024   6.440 -0.5235  0.9200  0.0234
  999MOL0     C34755   3.091   4.060   6.489  0.0085 -0.1068  0.3181
  999MOL0     C34756   3.028   4.019   6.606 -0.6811  0.3243  0.2170
  999MOL0     C34757   2.895   4.058   6.648 -0.5314 -0.5811 -0.6335
  999MOL0     C34758   2.858   4.013   6.788  0.1182 -0.1758  0.3821
  999MOL0     C34759   2.819   4.137   6.560 -0.5743  0.3615  0.4802
  999MOL0     C34760   2.683   4.183   6.595 -0.4284 -0.4207 -0.9861
  999MOL0     O34761   2.625   4.125   6.697 -0.4730  0.6420 -1.0760
  999MOL0     C34762   2.498   4.153   6.736  0.2987 -0.6167  0.3307
  999MOL0     C34763   2.383   4.173   6.656 -1.0349  0.5094 -0.3876
  999MOL0     C34764   2.260   4.208   6.705  0.0881 -0.5157 -0.5629
  999MOL0     C34765   2.246   4.205   6.851  0.4090 -0.5781 -0.0033
  999MOL0     O34766   2.127   4.231   6.918 -0.6448 -0.1674  0.0550
  999MOL0     C34767   2.067   4.348   6.870 -0.4950 -0.2759 -0.2848
  999MOL0     C34768   1.944   4.382   6.961  0.1389 -0.3383  0.4166
  999MOL0     C34769   1.906   4.528   6.931  0.5075  0.1943 -0.9693
  999MOL0     C34770   1.787   4.554   7.029 -0.0914 -0.0500 -0.0786
  999MOL0     C34771   1.738   4.706   7.024  0.4534  0.0779 -0.2466
  999MOL0     C34772   1.593   4.716   7.085  0.6367  0.3679  0.8468
  999MOL0     C34773   1.544   4.858   7.104  0.0327  0.1332 -0.1587
  999MOL0     C34774   1.443   4.857   7.222  0.4478  0.4264  0.2914
  999MOL0    Cl34775   1.297   4.773   7.196  0.0713  0.0413  0.1696
  999MOL0     C34776   2.355   4.189   6.938  0.6965 -0.2560 -0.4741
  999MOL0     C34777   2.477   4.158   6.880 -0.3725  0.0450  0.0731
  999MOL0     O34778   2.633   4.270   6.533  0.2796  0.1326  0.1003
  999MOL0     C34779   2.886   4.185   6.444  0.0006 -0.1094  0.5780
  999MOL0     C34780   3.015   4.147   6.411  0.0408  0.1898  1.3595
  999MOL0     N34781   3.702   4.213   6.209 -0.1230  0.3230 -0.3056
  999MOL0     N34782   3.809   4.284   6.190 -0.9189  0.2270 -0.1966
  999MOL0     C34783   4.996   4.665   6.232 -0.7037 -0.1596 -1.1348
  999MOL0     C34784   5.097   4.745   6.283  0.0164 -0.7806  0.9617
  999MOL0     C34785   5.277   5.191   6.282  0.3165 -0.6125 -0.2560
  999MOL0     C34786   5.230   5.318   6.325 -0.1866 -0.9715  0.1737
  999MOL0     C34787   5.314   5.414   6.369  0.2299  0.0040 -0.5237
  999MOL0     C34788   5.447   5.415   6.347  0.4277  0.7864  0.2080
  999MOL0     O34789   5.511   5.533   6.379 -0.2015  0.5589 -0.6989
  999MOL0     C34790   5.649   5.538   6.350 -0.8320 -0.4155  0.2993
  999MOL0     C34791   5.712   5.655   6.431 -0.3200  0.8577 -0.3094
  999MOL0     C34792   5.867   5.640   6.455  0.2815  0.8394 -0.2998
  999MOL0     C34793   5.946   5.741   6.549  0.0429  0.8455 -0.5191
  999MOL0     C34794   5.945   5.880   6.503 -1.0775  0.0157 -0.3051
  999MOL0     C34795   5.946   5.995   6.450  0.8007  0.5360  0.2324
  999MOL0     C34796   5.503   5.286   6.310 -0.5342 -0.3336 -0.0400
  999MOL0     C34797   5.417   5.179   6.275  0.7304 -1.1075 -0.1165
  999MOL0     H34798   5.145   4.935   6.006  0.2428  0.5249  0.7326
  999MOL0     H34799   4.987   4.771   5.914  0.3186 -0.0362 -0.9712
  999MOL0     H34800   4.710   4.708   6.087 -0.3778 -0.4578  1.4213
  999MOL0     H34801   4.676   4.570   5.970 -1.3322 -2.1175  2.0730
  999MOL0     H34802   4.730   4.429   6.204 -1.5187 -1.2456 -0.2775
  999MOL0     H34803   4.657   4.586   6.263 -2.1322  0.4917 -0.2015
  999MOL0     H34804   4.464   4.575   6.128 -2.1958 -1.5390 -2.5384
  999MOL0     H34805   4.521   4.431   6.050  1.2701  0.3958  0.9301
  999MOL0     H34806   4.527   4.313   6.269  1.7436  0.2330  0.6106
  999MOL0     H34807   4.487   4.464   6.339  1.0109  0.2703  0.1064
  999MOL0     H34808   4.274   4.464   6.201  0.1810  0.5277  0.8074
  999MOL0     H34809   4.327   4.309   6.140  2.4914  1.3134 -0.2079
  999MOL0     H34810   4.295   4.218   6.350  0.5325  0.1696  3.0162
  999MOL0     H34811   4.282   4.375   6.436 -0.7349 -1.6021  1.7897
  999MOL0     H34812   4.077   4.260   6.423  2.1752 -1.7611  0.2717
  999MOL0     H34813   4.061   4.423   6.353  0.1766 -0.4971 -2.3417
  999MOL0     H34814   4.119   4.172   6.185  0.4264  0.1306 -0.4550
  999MOL0     H34815   4.070   4.324   6.130 -0.7209 -1.5296 -0.6499
  999MOL0     H34816   3.919   3.994   6.301 -1.1715 -0.7078 -0.0887
  999MOL0     H34817   3.598   3.944   6.200  1.9411  1.8009 -1.9102
  999MOL0     H34818   3.682   3.914   6.354  1.1390  0.1713 -2.0719
  999MOL0     H34819   3.466   4.130   6.349  1.4947 -0.1373  0.6183
  999MOL0     H34820   3.585   4.107   6.464 -0.5787  1.2197 -0.6570
  999MOL0     H34821   3.521   3.885   6.529  1.3151  1.8198 -0.1080
  999MOL0     H34822   3.412   3.871   6.385 -1.6593 -0.0615  0.4219
  999MOL0     H34823   3.336   4.062   6.600  1.2272 -0.8412  1.9949
  999MOL0     H34824   3.274   3.888   6.583  0.4247 -0.8153 -1.6130
  999MOL0     H34825   3.076   3.955   6.679 -4.5911 -0.7436  2.1139
  999MOL0     H34826   2.800   4.088   6.841 -0.0057 -0.5100  0.7264
  999MOL0     H34827   2.799   3.921   6.781 -0.7787  0.4276 -0.1458
  999MOL0     H34828   2.943   3.985   6.851  1.9451  0.3810 -1.7024
  999MOL0     H34829   2.394   4.160   6.548  1.2744 -2.1916  0.0620
  999MOL0     H34830   2.177   4.219   6.636 -1.3248 -0.5693  1.0543
  999MOL0     H34831   2.139   4.430   6.860 -0.5941 -0.2141 -0.5119
  999MOL0     H34832   2.039   4.334   6.765  1.1356 -1.1213 -0.6445
  999MOL0     H34833   1.859   4.315   6.945 -0.1354 -0.4939  2.2749
  999MOL0     H34834   1.978   4.375   7.065 -0.8672  0.0551  0.7737
  999MOL0     H34835   1.864   4.540   6.831 -1.3118  1.4310 -0.0969
  999MOL0     H34836   1.986   4.600   6.952  0.7814 -1.0086  3.0405
  999MOL0     H34837   1.700   4.498   6.993  1.2381  0.4227 -4.5677
  999MOL0     H34838   1.822   4.529   7.130  0.8156 -0.7323 -0.5457
  999MOL0     H34839   1.734   4.729   6.917  1.5058 -3.6265 -1.2492
  999MOL0     H34840   1.812   4.766   7.078  0.3363 -0.1666  0.1953
  999MOL0     H34841   1.528   4.675   7.007  1.5243  1.0284 -0.2667
  999MOL0     H34842   1.582   4.662   7.179  1.9774  0.1097  0.8794
  999MOL0     H34843   1.508   4.890   7.005  0.6798 -1.4457 -0.9340
  999MOL0     H34844   1.623   4.924   7.140 -0.2829 -0.4762  1.7228
  999MOL0     H34845   1.410   4.961   7.234 -2.0610 -0.3928  1.0984
  999MOL0     H34846   1.499   4.822   7.309  2.4725  0.5456 -0.9055
  999MOL0     H34847   2.344   4.213   7.043  1.4754  0.5856 -0.5754
  999MOL0     H34848   2.566   4.139   6.939  0.5581  2.8172 -0.2891
  999MOL0     H34849   2.838   4.255   6.377 -1.2058 -1.8504 -0.4389
  999MOL0     H34850   3.054   4.172   6.313 -0.2765  0.1738  1.2265
  999MOL0     H34851   4.960   4.581   6.290  0.1775 -1.2456 -2.1249
  999MOL0     H34852   5.139   4.735   6.383  3.5383 -0.1538 -0.3309
  999MOL0     H34853   5.126   5.347   6.327 -0.1553 -0.4759 -2.2489
  999MOL0     H34854   5.276   5.505   6.414  1.2750 -0.6925  1.9312
  999MOL0     H34855   5.696   5.451   6.396  5.8221  2.3274 -0.2371
  999MOL0     H34856   5.664   5.547   6.242 -0.2822  1.7676  0.4926
  999MOL0     H34857   5.663   5.648   6.529 -2.6258 -2.8491 -1.5651
  999MOL0     H34858   5.695   5.753   6.385 -1.2296  0.6134 -0.5036
  999MOL0     H34859   5.917   5.632   6.359 -1.1263  0.7718 -1.0521
  999MOL0     H34860   5.878   5.536   6.489  0.4971  0.7771 -0.5601
  999MOL0     H34861   6.042   5.701   6.582 -1.2456 -1.8775  0.2659
  999MOL0     H34862   5.887   5.750   6.641 -0.4540  1.7669 -0.9108
  999MOL0     H34863   5.927   6.094   6.413  0.2813  0.2869 -0.1923
  999MOL0     H34864   5.609   5.264   6.306 -0.5738 -1.0880  2.0691
  999MOL0     H34865   5.452   5.079   6.250 -0.7801 -1.6728 -0.0720
 1000MOL0     O34866   7.656   0.718   0.445 -0.6924  0.5313 -0.5908
 1000MOL0     C34867   7.626   0.715   0.325 -0.2643  0.9233 -0.8115
 1000MOL0     O34868   7.509   0.660   0.283  0.8830 -0.4247  0.3481
 1000MOL0     C34869   7.415   0.618   0.370  0.0319  0.5138 -0.2813
 1000MOL0     C34870   7.445   0.512   0.455  0.1497  0.0769 -0.0594
 1000MOL0     C34871   7.340   0.462   0.536  0.4457  0.4858 -0.0735
 1000MOL0     C34872   7.210   0.511   0.533  0.1864 -0.6463 -0.9865
 1000MOL0     O34873   7.115   0.448   0.614 -0.4920 -0.0693  0.0858
 1000MOL0     C34874   7.002   0.520   0.630  0.2916  0.1607  0.3897
 1000MOL0     C34875   6.910   0.455   0.736  0.4729 -0.0281  0.0213
 1000MOL0     C34876   6.773   0.531   0.760  0.2948  0.5213 -0.0854
 1000MOL0     C34877   6.657   0.474   0.846 -0.7237  0.3345 -0.7600
 1000MOL0     C34878   6.696   0.438   0.991  1.1300  0.4196  0.0153
 1000MOL0     C34879   6.594   0.352   1.066  0.6897  0.2043  0.1635
 1000MOL0     C34880   6.644   0.343   1.203  0.1627 -0.3166  0.2844
 1000MOL0     C34881   6.536   0.286   1.297 -0.0882 -0.3159 -0.4107
 1000MOL0     N34882   6.486   0.155   1.253 -0.1424 -0.5522  1.0584
 1000MOL0     C34883   6.366   0.128   1.198 -0.6469 -0.6670  0.0514
 1000MOL0     C34884   6.355  -0.004   1.177 -0.2402  0.3185  0.5717
 1000MOL0     C34885   6.239  -0.075   1.111 -0.4400 -0.5406  0.1639
 1000MOL0     C34886   6.108   0.012   1.109  0.1880  0.1975 -0.0656
 1000MOL0     C34887   5.990  -0.062   1.040 -0.9161  0.2271  0.2284
 1000MOL0     C34888   5.878   0.037   1.002  0.5072  0.4669 -0.1139
 1000MOL0     O34889   5.788  -0.049   0.926  0.4430 -0.8294 -0.3154
 1000MOL0     C34890   5.651  -0.017   0.929 -0.1623  0.4349  0.5517
 1000MOL0     C34891   5.570  -0.014   0.818  0.3792  0.4741 -0.2217
 1000MOL0     C34892   5.430   0.022   0.827 -0.1298 -0.4573 -1.0150
 1000MOL0     C34893   5.351   0.012   0.704  0.2816  0.2303 -0.6757
 1000MOL0     C34894   5.374   0.045   0.961 -0.0470 -0.2540 -0.2385
 1000MOL0     C34895   5.233   0.083   0.985  0.9057  0.0874 -1.3062
 1000MOL0     O34896   5.184   0.059   1.110 -0.0754  0.0853 -0.0167
 1000MOL0     C34897   5.049   0.083   1.129 -0.0107 -0.6899  0.9050
 1000MOL0     C34898   4.947   0.029   1.055  0.8551 -0.1696 -0.6067
 1000MOL0     C34899   4.816   0.055   1.092  0.2077  0.4763 -0.4159
 1000MOL0     C34900   4.783   0.140   1.198 -0.2029 -0.3075  0.0554
 1000MOL0     O34901   4.650   0.163   1.214 -1.2440  0.6539 -0.2845
 1000MOL0     C34902   4.601   0.252   1.318  0.7514  0.9807 -0.9032
 1000MOL0     C34903   4.446   0.244   1.328 -0.0994 -0.6102 -0.2231
 1000MOL0     C34904   4.398   0.105   1.367 -0.1455  0.4361  0.6621
 1000MOL0     C34905   4.248   0.115   1.387  0.1373 -0.0327  0.1457
 1000MOL0     C34906   4.198  -0.024   1.422  0.9505  0.9644  0.2447
 1000MOL0     C34907   4.036  -0.019   1.436 -0.8663  0.2951  0.2104
 1000MOL0     C34908   3.971  -0.151   1.480 -0.2432  0.4343  1.2136
 1000MOL0     C34909   3.820  -0.146   1.437 -0.2016 -0.0967 -0.2045
 1000MOL0    Cl34910   3.707  -0.220   1.550  0.1079 -0.1169 -0.0676
 1000MOL0     C34911   4.892   0.196   1.276 -0.0546  0.1816  1.7269
 1000MOL0     C34912   5.023   0.166   1.235  0.9573 -0.0965  0.2031
 1000MOL0     O34913   5.165   0.127   0.892  0.3493  0.6627  0.0840
 1000MOL0     C34914   5.459   0.030   1.072 -0.3062  0.6895  0.1365
 1000MOL0     C34915   5.592   0.001   1.051  0.4308 -0.1983  0.4214
 1000MOL0     N34916   6.474  -0.060   1.213 -0.4078 -0.5714 -0.0195
 1000MOL0     N34917   6.559   0.037   1.243  0.3268  0.0794  0.3283
 1000MOL0     C34918   7.181   0.617   0.445 -0.5438 -0.5872  0.4786
 1000MOL0     C34919   7.279   0.658   0.352 -0.6166  0.2891 -0.5773
 1000MOL0     C34920   7.737   0.747   0.225  0.3974  0.5211 -0.1765
 1000MOL0     C34921   7.851   0.817   0.262  0.4033 -0.7763  0.0219
 1000MOL0     C34922   7.950   0.845   0.164 -0.0426  0.0463  0.8521
 1000MOL0     C34923   7.924   0.806   0.027  0.1386 -0.1085 -0.4801
 1000MOL0     O34924   8.010   0.820  -0.084 -0.2305 -0.0468 -0.3564
 1000MOL0     C34925   8.101   0.930  -0.090 -0.6374 -0.1914 -0.0932
 1000MOL0     C34926   8.247   0.870  -0.083  0.0653 -0.4527 -0.3173
 1000MOL0     C34927   8.346   0.981  -0.061 -0.0284  0.1553 -0.3535
 1000MOL0     C34928   8.480   0.919  -0.041 -0.1609  0.0625  0.1556
 1000MOL0     C34929   8.572   1.027  -0.030  0.1514  0.7066 -0.1139
 1000MOL0     C34930   8.635   1.130  -0.001  1.4628  0.3325  0.0471
 1000MOL0     C34931   7.806   0.738   0.002 -0.2879  0.5617 -0.2205
 1000MOL0     C34932   7.713   0.704   0.096 -0.0883  0.2151 -0.4086
 1000MOL0     H34933   7.541   0.460   0.449 -0.5696 -1.1822 -1.5601
 1000MOL0     H34934   7.352   0.378   0.603  0.2545  0.5038 -0.0156
 1000MOL0     H34935   7.033   0.617   0.672 -0.8890 -0.0196  1.7611
 1000MOL0     H34936   6.950   0.527   0.534  3.3908 -0.6740 -1.5135
 1000MOL0     H34937   6.886   0.353   0.703  1.9538  0.1732 -1.8381
 1000MOL0     H34938   6.969   0.452   0.828  0.9552 -1.9734 -0.2871
 1000MOL0     H34939   6.800   0.623   0.813  2.4569 -0.8006  1.2404
 1000MOL0     H34940   6.733   0.547   0.660  1.3909 -1.5677 -0.9238
 1000MOL0     H34941   6.581   0.552   0.843 -0.5194  0.5154 -1.5366
 1000MOL0     H34942   6.615   0.380   0.808  1.0761 -1.4981  1.4283
 1000MOL0     H34943   6.794   0.391   0.986  0.8385 -0.1565 -0.3895
 1000MOL0     H34944   6.720   0.526   1.052  2.4571 -0.2081  0.4359
 1000MOL0     H34945   6.490   0.385   1.076  0.8665  1.8357 -2.5400
 1000MOL0     H34946   6.595   0.253   1.021 -0.0827  0.2917 -0.0752
 1000MOL0     H34947   6.738   0.288   1.198  2.6031  3.5162 -0.9144
 1000MOL0     H34948   6.674   0.441   1.242  0.6862 -0.1248 -0.5635
 1000MOL0     H34949   6.455   0.359   1.297  0.2073  0.0292 -1.2691
 1000MOL0     H34950   6.587   0.270   1.393 -1.2250  0.9853  0.4483
 1000MOL0     H34951   6.284   0.197   1.184  0.5867  0.7458 -0.3918
 1000MOL0     H34952   6.265  -0.109   1.011  0.6275  2.0608 -0.5149
 1000MOL0     H34953   6.222  -0.170   1.163  2.2549 -2.3222 -1.9408
 1000MOL0     H34954   6.131   0.108   1.062  0.6398  2.0378  3.5498
 1000MOL0     H34955   6.076   0.036   1.211  1.2131 -0.1291  0.3409
 1000MOL0     H34956   5.944  -0.144   1.096 -2.3906  0.0763 -1.1349
 1000MOL0     H34957   6.035  -0.105   0.950  0.6565 -1.2546  1.6464
 1000MOL0     H34958   5.924   0.120   0.947  0.1216  0.0760 -1.0395
 1000MOL0     H34959   5.832   0.070   1.096  1.1103  0.3068  0.2422
 1000MOL0     H34960   5.615  -0.033   0.722 -2.6010 -0.8598 -1.4942
 1000MOL0     H34961   5.294  -0.082   0.703 -1.3269  1.1651 -1.2971
 1000MOL0     H34962   5.283   0.096   0.689 -1.7644 -0.9693  1.2096
 1000MOL0     H34963   5.414   0.006   0.615  0.4972 -1.0399 -0.4550
 1000MOL0     H34964   4.966  -0.036   0.970  2.0648 -2.7453  1.4887
 1000MOL0     H34965   4.732   0.001   1.050  0.2783 -0.2243  0.3245
 1000MOL0     H34966   4.649   0.229   1.414  2.9252 -0.1438 -2.1950
 1000MOL0     H34967   4.628   0.358   1.314 -2.7174  2.1198  0.8898
 1000MOL0     H34968   4.406   0.325   1.390 -1.4641 -2.1038  0.9363
 1000MOL0     H34969   4.416   0.266   1.225 -0.1975  0.2739 -0.0205
 1000MOL0     H34970   4.464   0.068   1.446  1.0613  1.0857 -0.0259
 1000MOL0     H34971   4.409   0.033   1.286 -2.8679 -0.5705  1.0727
 1000MOL0     H34972   4.230   0.177   1.476  2.2190  0.8296  0.0191
 1000MOL0     H34973   4.197   0.153   1.298 -3.7207 -0.8437  1.8017
 1000MOL0     H34974   4.233  -0.064   1.517 -0.5193  0.1933  0.4841
 1000MOL0     H34975   4.218  -0.090   1.337 -2.0704 -2.4406  1.8754
 1000MOL0     H34976   4.007   0.053   1.514  1.2069 -0.4926  1.8044
 1000MOL0     H34977   3.994   0.030   1.348  0.6205  2.6304  0.6820
 1000MOL0     H34978   3.977  -0.153   1.590  1.0327 -1.4565  1.1661
 1000MOL0     H34979   4.025  -0.237   1.440 -1.1437  0.7020 -0.7029
 1000MOL0     H34980   3.816  -0.205   1.345  1.0706 -1.4432  0.5643
 1000MOL0     H34981   3.791  -0.042   1.419  2.4831  1.0132  1.3058
 1000MOL0     H34982   4.875   0.267   1.356  2.0770  2.1924  0.5535
 1000MOL0     H34983   5.105   0.213   1.289 -0.1390  0.1740  1.7025
 1000MOL0     H34984   5.420   0.042   1.172  0.9178  0.8459  0.6152
 1000MOL0     H34985   5.657  -0.034   1.131  0.0353 -2.3543 -0.1381
 1000MOL0     H34986   7.085   0.667   0.452 -0.0924  0.5590 -0.8221
 1000MOL0     H34987   7.253   0.739   0.286  0.3337  1.3099  0.2613
 1000MOL0     H34988   7.859   0.843   0.367 -1.1587 -0.5410  0.1171
 1000MOL0     H34989   8.043   0.897   0.185  1.1348 -0.8186 -1.7640
 1000MOL0     H34990   8.078   0.980  -0.184 -2.4369 -0.5611  0.1257
 1000MOL0     H34991   8.089   1.004  -0.011  0.8665 -0.0954  0.0837
 1000MOL0     H34992   8.271   0.816  -0.175  1.7592 -2.1217  1.0274
 1000MOL0     H34993   8.252   0.800   0.001  1.8826 -1.0790 -0.9057
 1000MOL0     H34994   8.307   1.036   0.025  1.8044 -0.1268  0.7169
 1000MOL0     H34995   8.347   1.053  -0.143  0.2818  0.0529 -0.4410
 1000MOL0     H34996   8.503   0.851  -0.123 -3.6619 -0.1017 -0.8161
 1000MOL0     H34997   8.485   0.874   0.059  1.3640  2.3256  1.2112
 1000MOL0     H34998   8.696   1.212   0.029  0.0042  1.1116  1.0136
 1000MOL0     H34999   7.784   0.707  -0.100 -1.1721  0.3292  0.0348
 1000MOL0     H35000   7.626   0.646   0.069 -0.4185 -0.6016  2.1617
 1001MOL0     O35001   2.754   8.869   1.687  0.2616 -0.5028  0.1410
 1001MOL0     C35002   2.853   8.868   1.765 -0.2420  0.5026  0.9064
 1001MOL0     O35003   2.894   8.971   1.842 -0.0729  0.3667  0.0183
 1001MOL0     C35004   2.845   9.099   1.822 -0.0756 -1.0577 -0.1387
 1001MOL0     C35005   2.937   9.193   1.884  0.0057  0.6124  0.3834
 1001MOL0     C35006   2.909   9.330   1.888 -0.2752 -0.2755  0.4294
 1001MOL0     C35007   2.801   9.380   1.820  1.3101 -0.0448 -0.8067
 1001MOL0     O35008   2.782   9.513   1.818 -0.1652  0.7667 -0.8906
 1001MOL0     C35009   2.655   9.561   1.771  0.2253 -0.5911  0.0845
 1001MOL0     C35010   2.634   9.710   1.788 -0.9678  0.1103  0.1785
 1001MOL0     C35011   2.698   9.783   1.664 -0.0955 -0.8602 -1.4468
 1001MOL0     C35012   2.665   9.942   1.672  0.3125  0.6042  0.2531
 1001MOL0     C35013   2.738  10.019   1.558  0.5013  0.2452  0.6369
 1001MOL0     C35014   2.661  10.025   1.427 -0.4873  0.2197  0.0647
 1001MOL0     C35015   2.747  10.108   1.333  0.2469 -1.0390  0.3218
 1001MOL0     C35016   2.689  10.113   1.198  0.3595  0.4634 -0.8444
 1001MOL0     N35017   2.553  10.161   1.171  0.2807 -0.3226  0.2408
 1001MOL0     C35018   2.529  10.274   1.094  0.2220 -0.0893  0.9627
 1001MOL0     C35019   2.391  10.283   1.103 -0.3091  0.7299 -0.4832
 1001MOL0     C35020   2.322  10.414   1.052  0.0868  0.1461  1.2964
 1001MOL0     C35021   2.172  10.434   1.084 -0.0205  0.0213  0.0601
 1001MOL0     C35022   2.091  10.330   0.994  0.1892 -0.5742  0.4484
 1001MOL0     C35023   1.940  10.325   1.031 -0.4147  0.3198 -0.1580
 1001MOL0     O35024   1.890  10.458   1.022  0.3013  0.4277  0.0590
 1001MOL0     C35025   1.756  10.480   1.050 -0.0050 -0.6307 -0.1974
 1001MOL0     C35026   1.726  10.614   1.078 -0.0699  0.6862 -0.4120
 1001MOL0     C35027   1.596  10.653   1.107  0.5279  0.4529 -0.5823
 1001MOL0     C35028   1.588  10.805   1.137  0.5025  0.3161  0.3513
 1001MOL0     C35029   1.495  10.568   1.114  0.5157  0.3387  0.3012
 1001MOL0     C35030   1.347  10.607   1.135 -0.7494 -1.0145  0.3449
 1001MOL0     O35031   1.270  10.501   1.138  0.2516 -0.2598 -0.1025
 1001MOL0     C35032   1.133  10.521   1.141  0.3818  0.0587  0.0446
 1001MOL0     C35033   1.057  10.611   1.214 -0.2235 -0.7434 -0.3846
 1001MOL0     C35034   0.921  10.622   1.211 -0.0384 -0.0584 -0.1775
 1001MOL0     C35035   0.841  10.543   1.131 -0.1438 -0.2574  0.2921
 1001MOL0     O35036   0.702  10.557   1.136 -0.8567 -0.1038  0.4356
 1001MOL0     C35037   0.631  10.507   1.018 -0.1774  0.0550  0.7395
 1001MOL0     C35038   0.649  10.603   0.904 -0.3117 -0.3571  0.1193
 1001MOL0     C35039   0.545  10.718   0.895  0.1922  0.3485  1.3025
 1001MOL0     C35040   0.387  10.691   0.900  0.0310  0.2752  0.3134
 1001MOL0     C35041   0.311  10.828   0.886  0.4290  0.1750 -0.5518
 1001MOL0     C35042   0.170  10.828   0.967 -0.9114  0.2711  0.5504
 1001MOL0     C35043   0.115  10.964   0.989 -0.1326 -0.0151 -0.4022
 1001MOL0     C35044  -0.005  10.957   1.081  0.2373  0.3161 -0.6203
 1001MOL0    Cl35045  -0.147  10.870   1.019 -0.0844  0.4537 -0.0424
 1001MOL0     C35046   0.911  10.438   1.061  0.4106 -0.1478 -0.3397
 1001MOL0     C35047   1.055  10.425   1.069 -0.2752  0.0955 -0.6585
 1001MOL0     O35048   1.308  10.723   1.157 -0.3454 -0.9161  0.5252
 1001MOL0     C35049   1.522  10.427   1.094  0.4343 -0.3627 -0.1338
 1001MOL0     C35050   1.658  10.387   1.081  0.0982 -0.6097  0.7266
 1001MOL0     N35051   2.343  10.180   1.189 -0.1308 -0.6276  0.1449
 1001MOL0     N35052   2.446  10.110   1.221  0.5936  1.2517  0.3164
 1001MOL0     C35053   2.706   9.287   1.770 -0.4042 -0.8010  0.4393
 1001MOL0     C35054   2.725   9.149   1.774  0.2911  0.7897  0.3945
 1001MOL0     C35055   2.935   8.745   1.783 -0.0105 -0.1997 -0.3643
 1001MOL0     C35056   3.045   8.741   1.869 -0.9571 -0.2652  0.6567
 1001MOL0     C35057   3.121   8.623   1.883 -0.3355 -0.0379  1.1095
 1001MOL0     C35058   3.078   8.506   1.814  0.1711 -0.0828  0.2064
 1001MOL0     O35059   3.136   8.379   1.825  0.1929  0.0852 -0.4576
 1001MOL0     C35060   3.238   8.350   1.919 -0.3203  0.0711  0.1575
 1001MOL0     C35061   3.171   8.350   2.060  0.2719 -0.4668 -0.3549
 1001MOL0     C35062   3.088   8.222   2.078  0.0868 -0.5576 -1.4830
 1001MOL0     C35063   3.060   8.206   2.230  0.3906 -0.0760  0.2014
 1001MOL0     C35064   3.000   8.079   2.264  0.3456  0.3913 -0.1903
 1001MOL0     C35065   2.956   7.967   2.278 -0.2755  0.1987  0.4724
 1001MOL0     C35066   2.970   8.508   1.735 -0.0935 -0.5127  0.1209
 1001MOL0     C35067   2.900   8.628   1.718  0.6043 -0.0776 -1.2129
 1001MOL0     H35068   3.029   9.153   1.926  0.9485  0.5395 -1.6025
 1001MOL0     H35069   2.965   9.400   1.949  0.2231 -1.9106  1.9240
 1001MOL0     H35070   2.638   9.527   1.668 -1.5858 -1.9784  0.7801
 1001MOL0     H35071   2.585   9.505   1.833 -1.0058  1.1813  0.3528
 1001MOL0     H35072   2.530   9.744   1.793 -0.7443  0.7879  0.4522
 1001MOL0     H35073   2.691   9.741   1.876 -0.5833 -0.5950  0.1828
 1001MOL0     H35074   2.806   9.766   1.672  0.0507  0.6695  1.0592
 1001MOL0     H35075   2.669   9.738   1.568 -0.9078  1.0819 -2.1576
 1001MOL0     H35076   2.558   9.961   1.664  0.2236 -0.2516 -0.8295
 1001MOL0     H35077   2.711   9.978   1.764  0.0878  1.2890  0.1058
 1001MOL0     H35078   2.750  10.120   1.599 -1.0049  0.1169  1.4547
 1001MOL0     H35079   2.836   9.977   1.532  0.6563  1.7738 -1.5029
 1001MOL0     H35080   2.650   9.923   1.389 -2.3477  1.2021 -2.3110
 1001MOL0     H35081   2.560  10.068   1.429 -1.5373 -2.1248  0.6447
 1001MOL0     H35082   2.750  10.211   1.371  3.1353 -1.8348  2.5677
 1001MOL0     H35083   2.853  10.080   1.325  0.4659 -0.6356  1.5915
 1001MOL0     H35084   2.691  10.007   1.171 -2.4222  0.6454 -2.0606
 1001MOL0     H35085   2.750  10.176   1.134  0.2141  3.7264  1.9561
 1001MOL0     H35086   2.597  10.335   1.036 -1.9535  2.9807  1.4264
 1001MOL0     H35087   2.379  10.497   1.096 -0.6992  0.2222  2.1998
 1001MOL0     H35088   2.339  10.422   0.944  1.0676 -0.2283  1.4038
 1001MOL0     H35089   2.149  10.538   1.056  2.3177  0.4112 -0.6034
 1001MOL0     H35090   2.149  10.409   1.188 -4.5987  0.0509 -0.7467
 1001MOL0     H35091   2.135  10.232   1.011 -0.3106 -0.7611  0.6873
 1001MOL0     H35092   2.110  10.347   0.888 -2.1131 -1.1786 -0.1011
 1001MOL0     H35093   1.944  10.287   1.133 -0.3585 -0.7910 -0.5625
 1001MOL0     H35094   1.884  10.250   0.975 -2.0709  1.4071 -0.0488
 1001MOL0     H35095   1.802  10.689   1.066  2.3488 -1.7700 -1.5742
 1001MOL0     H35096   1.528  10.828   1.225 -4.8080 -2.2156 -2.1399
 1001MOL0     H35097   1.688  10.846   1.150 -0.4590  2.4108  1.7031
 1001MOL0     H35098   1.552  10.861   1.050  1.2304 -1.6138 -1.2865
 1001MOL0     H35099   1.106  10.676   1.286 -0.2812 -0.1765 -0.8467
 1001MOL0     H35100   0.866  10.692   1.272 -1.4575 -1.9639  0.8394
 1001MOL0     H35101   0.658  10.405   0.988  0.3765  0.5501 -0.5335
 1001MOL0     H35102   0.524  10.519   1.038 -0.8326  2.1528 -2.9379
 1001MOL0     H35103   0.745  10.655   0.898  0.4229 -1.7882 -1.3292
 1001MOL0     H35104   0.638  10.547   0.810 -1.6921 -0.2386  0.1770
 1001MOL0     H35105   0.562  10.777   0.805  0.3234 -0.4731  0.7810
 1001MOL0     H35106   0.571  10.796   0.966  0.3230 -0.9422  2.7310
 1001MOL0     H35107   0.351  10.625   0.821 -0.5177  0.7339  0.1764
 1001MOL0     H35108   0.367  10.651   1.000  3.0534 -1.2366  0.4320
 1001MOL0     H35109   0.284  10.855   0.783 -0.2536  1.5998 -0.0224
 1001MOL0     H35110   0.374  10.907   0.927  1.5319  0.0226 -1.8770
 1001MOL0     H35111   0.095  10.777   0.906  0.0742 -0.1237 -0.3806
 1001MOL0     H35112   0.182  10.770   1.058  2.6853 -1.1882 -0.6483
 1001MOL0     H35113   0.106  11.023   0.898 -0.8268  0.4394 -0.0488
 1001MOL0     H35114   0.196  11.017   1.041 -0.2380  0.4213 -0.6790
 1001MOL0     H35115  -0.050  11.050   1.116 -0.6115 -0.8934  1.7713
 1001MOL0     H35116   0.010  10.899   1.173  1.4689 -0.8353 -1.5232
 1001MOL0     H35117   0.866  10.362   0.998  1.0259 -2.4275  1.8113
 1001MOL0     H35118   1.109  10.340   1.029  2.4866  0.9613  0.9980
 1001MOL0     H35119   1.453  10.350   1.124 -0.8409  0.7010 -0.2191
 1001MOL0     H35120   1.688  10.283   1.086  1.0103 -0.6795 -3.3068
 1001MOL0     H35121   2.615   9.327   1.726 -1.2989 -1.5416  1.5391
 1001MOL0     H35122   2.638   9.086   1.766 -0.1152  1.3353  0.4492
 1001MOL0     H35123   3.063   8.836   1.920 -1.9047 -0.4285  1.3401
 1001MOL0     H35124   3.205   8.624   1.953  0.6555 -0.0419 -0.0377
 1001MOL0     H35125   3.283   8.253   1.894 -2.3892 -0.4550 -1.9166
 1001MOL0     H35126   3.313   8.428   1.931  0.0234 -0.6314  3.2199
 1001MOL0     H35127   3.101   8.428   2.091 -0.8313 -1.5882  0.0398
 1001MOL0     H35128   3.252   8.365   2.132  0.4396  3.0962 -1.1106
 1001MOL0     H35129   3.151   8.137   2.050  1.2962  0.4641 -1.9444
 1001MOL0     H35130   2.999   8.226   2.015 -0.3863  0.5681 -0.7772
 1001MOL0     H35131   2.995   8.290   2.259 -0.5382  0.4674 -3.0414
 1001MOL0     H35132   3.162   8.207   2.272  0.3107 -1.1578  0.4535
 1001MOL0     H35133   2.914   7.869   2.287  0.2708 -0.1520 -0.5979
 1001MOL0     H35134   2.940   8.413   1.691  1.9731 -1.5368  0.7668
 1001MOL0     H35135   2.809   8.630   1.659  1.4800  1.3439 -2.5943
 1002MOL0     O35136   4.395   8.518   1.043  0.2260  0.1959  0.3617
 1002MOL0     C35137   4.444   8.429   1.114 -0.5431 -0.2728  0.2766
 1002MOL0     O35138   4.400   8.391   1.237 -1.0452 -0.2051 -0.1165
 1002MOL0     C35139   4.288   8.451   1.285 -0.8346 -0.7836 -0.4502
 1002MOL0     C35140   4.167   8.440   1.208 -0.6978 -0.1115  0.1960
 1002MOL0     C35141   4.040   8.494   1.252 -0.0682  0.1877  0.2240
 1002MOL0     C35142   4.034   8.566   1.376 -1.3758  0.4874  0.7963
 1002MOL0     O35143   3.932   8.631   1.432  0.0029 -0.1265 -0.5647
 1002MOL0     C35144   3.825   8.673   1.343 -0.6187  0.0836  0.4725
 1002MOL0     C35145   3.717   8.738   1.431  0.7320  0.3493 -0.4681
 1002MOL0     C35146   3.600   8.798   1.357  0.3902  0.1415  0.0539
 1002MOL0     C35147   3.499   8.854   1.459  0.0447 -0.3794  0.1959
 1002MOL0     C35148   3.360   8.853   1.403  0.4634 -0.5534  0.2507
 1002MOL0     C35149   3.241   8.910   1.500 -1.2113 -0.7833  0.7201
 1002MOL0     C35150   3.105   8.924   1.428 -0.3769  0.2104 -0.1273
 1002MOL0     C35151   3.071   9.062   1.387 -0.1430 -0.6024  0.2149
 1002MOL0     N35152   2.942   9.063   1.316  0.0319 -0.2784  1.1636
 1002MOL0     C35153   2.819   9.010   1.359 -0.2723  0.8446  0.2236
 1002MOL0     C35154   2.734   9.020   1.254 -0.3712 -0.0985  0.3857
 1002MOL0     C35155   2.589   8.979   1.239 -0.4100 -0.3409  0.1898
 1002MOL0     C35156   2.495   9.083   1.305  0.5166  0.4813 -0.3697
 1002MOL0     C35157   2.531   9.125   1.448 -0.0613  0.3419  0.6228
 1002MOL0     C35158   2.405   9.189   1.516  0.0641  0.1619  0.2152
 1002MOL0     O35159   2.317   9.086   1.564 -0.1826  0.0568  0.1931
 1002MOL0     C35160   2.196   9.118   1.626 -0.0755 -0.7980 -0.5025
 1002MOL0     C35161   2.122   9.019   1.688 -0.2029 -0.5114  0.1101
 1002MOL0     C35162   2.004   9.047   1.755  0.3985 -0.1416  0.1791
 1002MOL0     C35163   1.954   8.941   1.845  0.1385 -0.0714 -0.2247
 1002MOL0     C35164   1.929   9.168   1.735  0.4419  0.0915  0.4457
 1002MOL0     C35165   1.792   9.198   1.780  0.0132 -0.2983 -0.0204
 1002MOL0     O35166   1.777   9.329   1.825 -0.0433 -0.2663  0.2640
 1002MOL0     C35167   1.655   9.366   1.884 -0.7698  0.8816 -0.1171
 1002MOL0     C35168   1.582   9.469   1.829 -0.0732 -0.2230 -0.4859
 1002MOL0     C35169   1.483   9.533   1.897 -0.4199 -0.2651 -0.3601
 1002MOL0     C35170   1.434   9.485   2.023 -0.8497  0.4549 -0.1178
 1002MOL0     O35171   1.328   9.538   2.081  0.2611 -0.1670  0.0503
 1002MOL0     C35172   1.230   9.447   2.130 -0.7536 -0.1633 -0.1536
 1002MOL0     C35173   1.102   9.529   2.147  0.7356 -0.2215 -0.9227
 1002MOL0     C35174   1.115   9.606   2.278 -0.2438 -1.0990 -0.5220
 1002MOL0     C35175   1.003   9.716   2.294  0.4173  0.2931  0.4909
 1002MOL0     C35176   0.868   9.662   2.357 -0.2502  0.0190 -0.2578
 1002MOL0     C35177   0.771   9.778   2.392  0.1027 -0.5827  0.0333
 1002MOL0     C35178   0.636   9.723   2.445  0.6416 -0.2671 -0.4258
 1002MOL0     C35179   0.636   9.622   2.562  0.1474 -0.8464 -0.1800
 1002MOL0    Cl35180   0.477   9.565   2.628  0.1839  0.1714  0.6974
 1002MOL0     C35181   1.498   9.366   2.062 -0.1174  0.5735  0.1524
 1002MOL0     C35182   1.605   9.306   2.001 -0.3383  0.0858 -0.5569
 1002MOL0     O35183   1.699   9.119   1.762  0.4013  0.3972 -0.9438
 1002MOL0     C35184   1.999   9.268   1.657 -0.0304 -0.1816 -0.2467
 1002MOL0     C35185   2.133   9.245   1.612 -0.1391  0.3428 -0.7765
 1002MOL0     N35186   2.810   9.067   1.149 -0.0363 -0.0434 -0.2834
 1002MOL0     N35187   2.927   9.103   1.186 -0.8890  0.6443 -0.7405
 1002MOL0     C35188   4.151   8.569   1.459  0.0891  0.1068  0.2969
 1002MOL0     C35189   4.275   8.522   1.410 -0.1532 -0.0979  0.3706
 1002MOL0     C35190   4.534   8.329   1.052  0.1619  0.4591  0.4861
 1002MOL0     C35191   4.627   8.257   1.123  0.5053  0.0513 -0.4515
 1002MOL0     C35192   4.712   8.167   1.059  0.1860  0.5642 -0.0806
 1002MOL0     C35193   4.722   8.150   0.922  0.3026 -0.2527 -0.6320
 1002MOL0     O35194   4.814   8.067   0.865  1.2246 -0.6316 -0.5890
 1002MOL0     C35195   4.817   8.041   0.726  0.3392  0.7272  0.4589
 1002MOL0     C35196   4.905   7.920   0.706 -0.6814  1.2687 -0.3779
 1002MOL0     C35197   4.834   7.793   0.764 -1.1106  0.2545 -0.3181
 1002MOL0     C35198   4.922   7.665   0.731 -0.3526  0.1417 -0.4485
 1002MOL0     C35199   5.032   7.661   0.826  0.1797 -0.6179 -0.0213
 1002MOL0     C35200   5.120   7.658   0.911 -0.7221  0.4316 -0.7250
 1002MOL0     C35201   4.635   8.235   0.850  0.5091 -0.4725  0.5948
 1002MOL0     C35202   4.540   8.319   0.911  0.1872 -0.9511 -0.4377
 1002MOL0     H35203   4.184   8.403   1.108  0.3969  0.2991  0.2195
 1002MOL0     H35204   3.961   8.481   1.179  1.2507  2.8476 -1.8932
 1002MOL0     H35205   3.856   8.742   1.264  0.1877 -0.9856 -0.1726
 1002MOL0     H35206   3.795   8.581   1.291  1.0188 -0.1554 -0.1049
 1002MOL0     H35207   3.680   8.662   1.501  1.6071  0.3194 -0.0181
 1002MOL0     H35208   3.764   8.814   1.494 -1.1251  0.2438  1.1503
 1002MOL0     H35209   3.633   8.867   1.278  0.9914 -0.1191  0.0746
 1002MOL0     H35210   3.546   8.717   1.308 -0.6886  0.1565  1.1730
 1002MOL0     H35211   3.506   8.810   1.558  0.2536  1.7270  1.1759
 1002MOL0     H35212   3.518   8.961   1.470 -0.3863  0.0391 -2.3918
 1002MOL0     H35213   3.362   8.924   1.320 -1.2472  1.9580  2.1965
 1002MOL0     H35214   3.329   8.756   1.365  1.3834 -1.1579  1.0105
 1002MOL0     H35215   3.226   8.840   1.583 -0.9919 -0.8495  0.7017
 1002MOL0     H35216   3.274   9.007   1.538  1.7348 -1.9152  1.2341
 1002MOL0     H35217   3.099   8.860   1.339 -0.2429  1.5908 -1.1690
 1002MOL0     H35218   3.027   8.894   1.498 -0.8135 -2.0087 -1.4605
 1002MOL0     H35219   3.153   9.100   1.325 -1.9390  3.8631  0.2191
 1002MOL0     H35220   3.081   9.130   1.472 -0.6169 -0.2639 -0.0022
 1002MOL0     H35221   2.800   8.961   1.454  2.1338 -0.4221  0.1340
 1002MOL0     H35222   2.571   8.965   1.133 -0.3429 -0.6718  0.2234
 1002MOL0     H35223   2.571   8.887   1.296  0.2479  1.1634  3.0414
 1002MOL0     H35224   2.394   9.041   1.301 -0.3822  2.5024 -0.0652
 1002MOL0     H35225   2.493   9.168   1.236 -3.1184 -0.3904 -1.5996
 1002MOL0     H35226   2.607   9.204   1.453  1.0964 -0.8185  2.8621
 1002MOL0     H35227   2.569   9.045   1.512  1.2252 -0.6977 -1.3713
 1002MOL0     H35228   2.360   9.245   1.434 -0.7300  0.1357  0.6309
 1002MOL0     H35229   2.432   9.260   1.594 -1.8096  0.7842  0.3454
 1002MOL0     H35230   2.171   8.925   1.713  0.6825 -0.6073 -1.8092
 1002MOL0     H35231   1.845   8.933   1.850  0.1243  0.5273  0.7728
 1002MOL0     H35232   1.986   8.840   1.818 -0.9332 -0.5882  0.3725
 1002MOL0     H35233   1.984   8.947   1.950  3.5216 -0.3355 -1.0609
 1002MOL0     H35234   1.634   9.503   1.740  3.9193  2.0943  2.3771
 1002MOL0     H35235   1.423   9.615   1.861 -0.4474 -0.5930 -1.0636
 1002MOL0     H35236   1.208   9.368   2.058 -1.5069  0.1392 -0.2661
 1002MOL0     H35237   1.251   9.409   2.230 -2.1572 -0.1897  0.1517
 1002MOL0     H35238   1.099   9.594   2.059  2.9450  1.7084  0.3032
 1002MOL0     H35239   1.015   9.466   2.162  2.1338 -1.9279  0.4897
 1002MOL0     H35240   1.220   9.637   2.276  0.1005 -2.2712 -1.5087
 1002MOL0     H35241   1.110   9.533   2.359 -0.0772 -0.7233 -0.1657
 1002MOL0     H35242   1.044   9.790   2.364  0.7449  0.8219 -0.2549
 1002MOL0     H35243   0.987   9.764   2.197 -0.7229 -1.5434 -0.2769
 1002MOL0     H35244   0.891   9.617   2.454  0.4365  1.7537  0.4403
 1002MOL0     H35245   0.838   9.573   2.301 -0.5830 -0.7608  1.1193
 1002MOL0     H35246   0.813   9.843   2.469  1.0824  2.7893 -3.0605
 1002MOL0     H35247   0.744   9.836   2.303 -0.7481 -2.9330 -1.3387
 1002MOL0     H35248   0.581   9.682   2.360 -1.7682  0.8291  0.5123
 1002MOL0     H35249   0.580   9.809   2.481  0.3401 -0.6650  0.0740
 1002MOL0     H35250   0.698   9.659   2.644 -0.7937 -0.9397  0.5943
 1002MOL0     H35251   0.678   9.535   2.511 -0.7215 -0.0478 -2.3742
 1002MOL0     H35252   1.470   9.320   2.156 -1.5297 -1.0953 -1.0109
 1002MOL0     H35253   1.666   9.224   2.039 -2.6617 -2.0845 -1.2654
 1002MOL0     H35254   1.942   9.355   1.624 -2.2105 -1.5463 -0.3306
 1002MOL0     H35255   2.190   9.323   1.563  1.1192  0.1662  0.3331
 1002MOL0     H35256   4.147   8.625   1.552  2.9806  1.9486 -0.5542
 1002MOL0     H35257   4.366   8.540   1.466 -0.3280  0.4570  0.4814
 1002MOL0     H35258   4.635   8.264   1.231  0.7850 -0.6364 -0.4258
 1002MOL0     H35259   4.781   8.103   1.113 -0.6815 -3.0273 -2.8745
 1002MOL0     H35260   4.718   8.008   0.692  1.1566 -0.8707 -0.4485
 1002MOL0     H35261   4.848   8.128   0.668 -1.6727  0.1718 -1.5957
 1002MOL0     H35262   5.000   7.935   0.759  1.3184 -3.4559 -2.0972
 1002MOL0     H35263   4.928   7.909   0.600  1.1424 -1.0369  0.1737
 1002MOL0     H35264   4.737   7.777   0.717 -0.4347  3.0958 -2.9236
 1002MOL0     H35265   4.823   7.802   0.873 -1.7236 -0.7467 -0.2889
 1002MOL0     H35266   4.971   7.677   0.634  0.0417  1.6204 -0.0953
 1002MOL0     H35267   4.871   7.568   0.729  0.7808 -0.4686 -2.1776
 1002MOL0     H35268   5.192   7.646   0.989 -0.6450  1.2108 -0.6717
 1002MOL0     H35269   4.640   8.236   0.742 -1.1229 -2.3949  0.4233
 1002MOL0     H35270   4.478   8.377   0.844  2.3466  1.5215 -0.4591
 1003MOL0     O35271   6.089   8.790   0.720 -0.0023  0.1878  0.1390
 1003MOL0     C35272   6.161   8.862   0.785 -0.0638 -0.1939  0.1542
 1003MOL0     O35273   6.122   8.960   0.870  0.0190 -0.1506 -0.4858
 1003MOL0     C35274   5.998   9.015   0.860 -0.1200 -0.0296  0.2663
 1003MOL0     C35275   5.980   9.155   0.865 -0.1968  0.6713 -0.2349
 1003MOL0     C35276   5.858   9.205   0.849 -0.2118 -0.2168  1.4712
 1003MOL0     C35277   5.742   9.129   0.817 -0.4049 -0.0773 -0.5638
 1003MOL0     O35278   5.620   9.180   0.797  0.5192 -0.1815 -0.5659
 1003MOL0     C35279   5.614   9.319   0.772 -0.8942  0.4539 -0.3952
 1003MOL0     C35280   5.474   9.353   0.718  0.1515 -0.0708  0.0316
 1003MOL0     C35281   5.475   9.488   0.643  0.4080 -0.6669  0.3551
 1003MOL0     C35282   5.334   9.484   0.569 -0.9076 -0.2297 -0.3900
 1003MOL0     C35283   5.268   9.618   0.558  0.1049 -0.9887  0.8169
 1003MOL0     C35284   5.356   9.732   0.490 -0.1880 -0.0694  1.1914
 1003MOL0     C35285   5.433   9.691   0.360  0.4293  0.7780  0.5546
 1003MOL0     C35286   5.325   9.686   0.248  0.0522  0.6712  0.5971
 1003MOL0     N35287   5.392   9.640   0.123  0.4328  0.2865  0.5074
 1003MOL0     C35288   5.518   9.576   0.107  0.0952 -0.2302 -0.6713
 1003MOL0     C35289   5.534   9.579  -0.029 -0.1893  0.7699  0.3414
 1003MOL0     C35290   5.644   9.530  -0.124 -0.8621 -0.3229  0.1606
 1003MOL0     C35291   5.670   9.375  -0.133  1.4002 -0.0335  0.1323
 1003MOL0     C35292   5.537   9.290  -0.144 -0.3056 -0.0874 -1.0631
 1003MOL0     C35293   5.433   9.344  -0.253  0.1153 -0.3496 -1.3701
 1003MOL0     O35294   5.320   9.257  -0.269 -0.3556 -0.0461 -0.3697
 1003MOL0     C35295   5.215   9.239  -0.187  0.0314  0.6039 -0.5379
 1003MOL0     C35296   5.126   9.145  -0.218  0.8958  0.8923 -0.2398
 1003MOL0     C35297   5.012   9.116  -0.131 -0.4264  0.9816 -0.4087
 1003MOL0     C35298   4.921   9.002  -0.180 -0.1133  0.0515  0.2999
 1003MOL0     C35299   4.994   9.188  -0.010  0.4451 -0.7711 -0.9349
 1003MOL0     C35300   4.874   9.176   0.087 -0.0912  0.7023  0.4884
 1003MOL0     O35301   4.779   9.084   0.066 -0.3958 -0.1596 -0.0448
 1003MOL0     C35302   4.656   9.111   0.114  0.0924  0.5335 -0.1040
 1003MOL0     C35303   4.616   9.052   0.238  0.6725 -0.3557  0.0192
 1003MOL0     C35304   4.485   9.079   0.291  0.4960 -0.4572 -0.4543
 1003MOL0     C35305   4.405   9.171   0.220  0.3051 -0.2265 -0.1171
 1003MOL0     O35306   4.286   9.191   0.272 -0.0109  0.1474 -0.4303
 1003MOL0     C35307   4.228   9.317   0.259  0.2622  0.2982 -0.5483
 1003MOL0     C35308   4.137   9.333   0.385 -1.1311  0.2773 -0.1014
 1003MOL0     C35309   4.022   9.239   0.387  0.0854  0.1707 -0.9356
 1003MOL0     C35310   3.915   9.259   0.277  0.2838 -0.2010  0.0583
 1003MOL0     C35311   3.791   9.163   0.307  0.1235 -0.2690  0.5479
 1003MOL0     C35312   3.696   9.160   0.191  0.0571  0.3371  0.5400
 1003MOL0     C35313   3.548   9.109   0.215  0.5675 -0.6090 -0.0471
 1003MOL0     C35314   3.477   9.091   0.089  0.0542 -0.0769  0.1997
 1003MOL0    Cl35315   3.304   9.046   0.109 -0.0231  0.1558  0.5764
 1003MOL0     C35316   4.441   9.209   0.089  1.0332  0.3732 -0.0611
 1003MOL0     C35317   4.564   9.181   0.039 -0.4983  0.1324 -0.2753
 1003MOL0     O35318   4.873   9.247   0.184  0.1030  0.1268  0.3350
 1003MOL0     C35319   5.096   9.276   0.022  0.8004 -1.2465  0.4844
 1003MOL0     C35320   5.203   9.308  -0.061  0.2318 -0.0822 -0.4595
 1003MOL0     N35321   5.424   9.639  -0.089  0.1125 -0.0174  0.4913
 1003MOL0     N35322   5.343   9.677  -0.002  0.2251  0.5362  0.2698
 1003MOL0     C35323   5.754   8.990   0.809 -0.4816 -0.0721 -0.3141
 1003MOL0     C35324   5.877   8.937   0.841 -0.3599  0.5263  0.0511
 1003MOL0     C35325   6.307   8.825   0.781  0.2835  1.4764 -1.0299
 1003MOL0     C35326   6.399   8.906   0.850 -0.9240 -0.1280  0.3171
 1003MOL0     C35327   6.534   8.858   0.860  0.2309 -0.0283  0.3755
 1003MOL0     C35328   6.587   8.764   0.775  0.5488  0.1683  0.6572
 1003MOL0     O35329   6.716   8.725   0.763 -0.2260  0.2283 -0.1168
 1003MOL0     C35330   6.812   8.784   0.849  0.6467 -1.0478  0.7891
 1003MOL0     C35331   6.959   8.737   0.821 -0.9138 -0.1710 -0.4597
 1003MOL0     C35332   7.040   8.775   0.950 -0.3312  0.1728  0.2734
 1003MOL0     C35333   7.188   8.729   0.939 -0.6276 -0.2428 -0.2700
 1003MOL0     C35334   7.250   8.800   0.819 -0.1565 -0.8882 -0.2759
 1003MOL0     C35335   7.291   8.859   0.724  0.1018  0.0176 -0.2918
 1003MOL0     C35336   6.494   8.699   0.696 -0.9491 -0.0884  0.3418
 1003MOL0     C35337   6.354   8.722   0.691  0.7661 -0.2925  0.0834
 1003MOL0     H35338   6.067   9.216   0.884  0.8628 -0.9199  0.1693
 1003MOL0     H35339   5.849   9.313   0.850 -1.1325 -0.2453 -0.0603
 1003MOL0     H35340   5.636   9.385   0.857  2.6506  0.4324 -1.1376
 1003MOL0     H35341   5.692   9.332   0.696  0.3226 -0.5094  0.6387
 1003MOL0     H35342   5.429   9.272   0.660 -0.6746 -0.0710  0.6484
 1003MOL0     H35343   5.409   9.364   0.806  2.4656  1.5736  1.6565
 1003MOL0     H35344   5.461   9.573   0.710 -0.1910  1.5129 -2.3555
 1003MOL0     H35345   5.564   9.502   0.580 -0.4692 -3.0716 -1.5887
 1003MOL0     H35346   5.355   9.444   0.470  0.6117 -1.6823  0.4579
 1003MOL0     H35347   5.267   9.409   0.613  2.6161 -1.4308  3.6766
 1003MOL0     H35348   5.179   9.605   0.496  0.5413  1.4435 -0.4656
 1003MOL0     H35349   5.235   9.655   0.656 -1.4370 -0.9632  0.3168
 1003MOL0     H35350   5.291   9.820   0.480 -1.1854 -1.0648 -2.3715
 1003MOL0     H35351   5.430   9.775   0.559  0.0345 -0.4611  1.2013
 1003MOL0     H35352   5.500   9.773   0.332  1.0562  0.8163  2.0702
 1003MOL0     H35353   5.489   9.600   0.385 -2.4511 -0.3708  3.6985
 1003MOL0     H35354   5.287   9.788   0.236  1.9643  1.1481 -2.6382
 1003MOL0     H35355   5.244   9.619   0.277  1.0163 -1.0097 -0.4464
 1003MOL0     H35356   5.591   9.552   0.184  0.2685 -2.9888 -1.5878
 1003MOL0     H35357   5.612   9.559  -0.225 -2.4951  0.8472  0.9590
 1003MOL0     H35358   5.732   9.591  -0.105 -0.4628  0.1688 -2.8087
 1003MOL0     H35359   5.730   9.348  -0.047 -1.4019 -2.3447  1.5476
 1003MOL0     H35360   5.723   9.364  -0.228 -0.3538 -0.3250 -0.8612
 1003MOL0     H35361   5.490   9.285  -0.046 -0.8079  0.6193 -1.2615
 1003MOL0     H35362   5.560   9.187  -0.170  2.9439  0.5121 -1.0635
 1003MOL0     H35363   5.493   9.360  -0.343  2.5810  2.0095  0.4958
 1003MOL0     H35364   5.389   9.442  -0.232 -0.6330 -0.7068 -1.2501
 1003MOL0     H35365   5.141   9.090  -0.310  0.7603  0.5046 -0.0335
 1003MOL0     H35366   4.825   9.041  -0.216  0.6364 -0.8987 -3.0541
 1003MOL0     H35367   4.967   8.955  -0.268  0.6304  1.4905 -0.1216
 1003MOL0     H35368   4.899   8.924  -0.106 -0.7179  0.3124  0.3987
 1003MOL0     H35369   4.678   8.979   0.288 -1.8117 -1.5223  1.6306
 1003MOL0     H35370   4.436   9.030   0.374 -0.5507  0.6280 -0.4126
 1003MOL0     H35371   4.298   9.401   0.265 -0.0765  0.4942  0.9311
 1003MOL0     H35372   4.164   9.321   0.170 -1.1941  5.5099  0.4078
 1003MOL0     H35373   4.187   9.330   0.482 -3.1061  2.7293  1.1090
 1003MOL0     H35374   4.099   9.435   0.377 -0.0090  0.9711  2.4153
 1003MOL0     H35375   3.975   9.245   0.486 -1.2842 -0.3182 -1.5256
 1003MOL0     H35376   4.057   9.136   0.393 -1.5562 -0.3243  1.4505
 1003MOL0     H35377   3.882   9.363   0.285 -0.7423 -0.3355 -1.9161
 1003MOL0     H35378   3.954   9.229   0.179 -1.8016 -0.4683 -0.7331
 1003MOL0     H35379   3.730   9.193   0.393 -3.7067 -0.2966 -1.8828
 1003MOL0     H35380   3.825   9.062   0.329 -0.9401 -0.8293 -0.2750
 1003MOL0     H35381   3.678   9.264   0.162 -0.8924 -0.0301 -0.2419
 1003MOL0     H35382   3.755   9.108   0.115  1.1269  0.2693  1.3881
 1003MOL0     H35383   3.494   9.183   0.275  2.7619  3.0399 -2.2053
 1003MOL0     H35384   3.543   9.015   0.271  1.6879  0.5815  2.1699
 1003MOL0     H35385   3.526   9.017   0.026 -0.2502  1.4324 -1.9070
 1003MOL0     H35386   3.480   9.182   0.029 -1.7881  1.3295  2.0822
 1003MOL0     H35387   4.368   9.259   0.027  1.0896 -1.8607 -2.0717
 1003MOL0     H35388   4.589   9.213  -0.061 -0.2895 -0.5518 -0.4456
 1003MOL0     H35389   5.095   9.327   0.118  0.8077 -0.1595 -0.0754
 1003MOL0     H35390   5.270   9.390  -0.039 -1.0185  0.5718  1.1677
 1003MOL0     H35391   5.672   8.930   0.772 -0.1850  1.8879 -4.7059
 1003MOL0     H35392   5.889   8.830   0.838 -0.0828  0.5598 -2.4360
 1003MOL0     H35393   6.360   8.988   0.910  1.6732  1.7848 -0.4252
 1003MOL0     H35394   6.596   8.906   0.935  0.2429 -1.7072  1.5009
 1003MOL0     H35395   6.810   8.893   0.852  3.1625 -0.8077 -1.8024
 1003MOL0     H35396   6.784   8.753   0.949 -0.2064  2.2182  1.6872
 1003MOL0     H35397   6.996   8.786   0.730 -1.5122 -0.4501 -0.8529
 1003MOL0     H35398   6.962   8.628   0.815 -0.5195 -0.2981  1.5292
 1003MOL0     H35399   6.992   8.727   1.036 -2.9641 -1.8386 -2.1390
 1003MOL0     H35400   7.037   8.884   0.959 -0.6184  0.2291 -0.4478
 1003MOL0     H35401   7.193   8.623   0.913 -0.9383  0.1627 -2.1433
 1003MOL0     H35402   7.245   8.757   1.028 -1.2982  2.6577 -0.6552
 1003MOL0     H35403   7.330   8.913   0.639  2.1342 -0.4067  0.3241
 1003MOL0     H35404   6.524   8.624   0.623  0.8127  2.4040 -1.6584
 1003MOL0     H35405   6.287   8.665   0.627 -2.4508  1.4958  1.6003
 1004MOL0     O35406   2.115   9.048   3.919 -0.1654  0.2484  0.1244
 1004MOL0     C35407   2.132   8.943   3.989 -0.1225 -0.1372 -0.2140
 1004MOL0     O35408   2.037   8.873   4.046  0.1060  0.2271 -0.2141
 1004MOL0     C35409   1.911   8.923   4.036  0.0809  0.3429 -1.3290
 1004MOL0     C35410   1.841   8.919   3.921  0.0998 -0.6980  0.3224
 1004MOL0     C35411   1.710   8.966   3.915  0.6862 -0.1960 -0.4487
 1004MOL0     C35412   1.644   9.012   4.035 -0.0822  0.2393  0.2098
 1004MOL0     O35413   1.506   9.043   4.048 -0.2076 -0.1382 -0.0751
 1004MOL0     C35414   1.411   8.964   3.974  0.1342 -0.1270  0.4032
 1004MOL0     C35415   1.278   9.033   3.974  1.0505  0.5824 -0.2693
 1004MOL0     C35416   1.162   8.951   3.914 -0.7668  0.0382  0.2535
 1004MOL0     C35417   1.115   9.007   3.777 -0.2904  0.2422 -0.6992
 1004MOL0     C35418   0.994   8.940   3.710  0.4128 -0.1934  0.1906
 1004MOL0     C35419   0.869   8.975   3.789  0.4193  0.7363 -0.7486
 1004MOL0     C35420   0.747   8.913   3.716  0.5506  0.2904 -0.1507
 1004MOL0     C35421   0.615   8.931   3.790 -0.6038  0.7232 -0.1252
 1004MOL0     N35422   0.493   8.915   3.702 -0.0401  0.0751  0.0385
 1004MOL0     C35423   0.439   9.020   3.634  0.5913 -0.2058  0.5223
 1004MOL0     C35424   0.340   8.961   3.555 -1.0075 -0.8492  0.3320
 1004MOL0     C35425   0.252   9.034   3.450  0.2454 -0.8258 -0.1498
 1004MOL0     C35426   0.330   9.105   3.331 -0.6600  1.6571  0.1376
 1004MOL0     C35427   0.421   9.018   3.250  0.0829  0.2375  0.8892
 1004MOL0     C35428   0.344   8.917   3.160 -0.1414  0.8699 -0.2161
 1004MOL0     O35429   0.331   8.790   3.228 -0.8012 -0.2934  0.2766
 1004MOL0     C35430   0.219   8.715   3.198  0.0370  0.4564 -0.4890
 1004MOL0     C35431   0.164   8.661   3.315 -0.8278  0.7437  0.5404
 1004MOL0     C35432   0.044   8.583   3.311 -0.4643  0.8663  0.0615
 1004MOL0     C35433  -0.019   8.542   3.442  0.5249  0.8230 -0.7345
 1004MOL0     C35434  -0.022   8.559   3.187  0.6885 -0.5852  0.5359
 1004MOL0     C35435  -0.151   8.487   3.169 -0.2058  0.5692 -0.7557
 1004MOL0     O35436  -0.176   8.422   3.050 -1.1283 -0.9109  0.6501
 1004MOL0     C35437  -0.296   8.353   3.024 -0.1080  0.2666  0.1209
 1004MOL0     C35438  -0.363   8.278   3.120  0.4981  0.9391  0.0718
 1004MOL0     C35439  -0.499   8.234   3.091  0.1164 -0.6705  0.3423
 1004MOL0     C35440  -0.561   8.250   2.959  0.4097  0.0935 -0.2418
 1004MOL0     O35441  -0.680   8.192   2.912  0.3375 -0.0141 -0.6838
 1004MOL0     C35442  -0.790   8.193   3.006  0.0577  0.2843  0.4486
 1004MOL0     C35443  -0.898   8.104   2.943  1.2817  0.0898 -0.1119
 1004MOL0     C35444  -1.016   8.059   3.034  0.0579 -0.4675 -0.0736
 1004MOL0     C35445  -0.999   7.908   3.065  0.4666 -0.3454 -0.7104
 1004MOL0     C35446  -1.086   7.867   3.188  0.6010  0.7051  0.5392
 1004MOL0     C35447  -1.237   7.909   3.173  0.4360  0.2750  0.1300
 1004MOL0     C35448  -1.326   7.873   3.296  0.2828  0.0224  0.1900
 1004MOL0     C35449  -1.459   7.950   3.283  0.1703  0.2647  0.8599
 1004MOL0    Cl35450  -1.574   7.877   3.407 -0.3316  0.2505  0.3793
 1004MOL0     C35451  -0.489   8.330   2.872 -0.7529 -0.0870  0.3109
 1004MOL0     C35452  -0.356   8.371   2.896 -0.8646  0.1557  0.0572
 1004MOL0     O35453  -0.234   8.504   3.255  0.3980 -0.4400 -0.4081
 1004MOL0     C35454   0.036   8.610   3.072 -0.1635 -0.0322  0.3793
 1004MOL0     C35455   0.154   8.691   3.082  0.1914 -0.2494  0.4855
 1004MOL0     N35456   0.341   8.826   3.587  0.4523  0.0473 -0.5645
 1004MOL0     N35457   0.433   8.807   3.669  0.1463  0.3934  0.7096
 1004MOL0     C35458   1.713   9.004   4.160 -0.4428 -1.4221 -0.0543
 1004MOL0     C35459   1.848   8.962   4.157 -0.2364 -0.5247 -0.4572
 1004MOL0     C35460   2.276   8.884   4.010  0.2291 -0.3785  0.0610
 1004MOL0     C35461   2.303   8.793   4.109  1.2032 -0.9606 -0.3308
 1004MOL0     C35462   2.426   8.751   4.144  0.3322  1.2387 -0.2518
 1004MOL0     C35463   2.539   8.787   4.062  0.2366 -0.8612  0.1485
 1004MOL0     O35464   2.666   8.735   4.074  0.0058 -0.0529  0.2755
 1004MOL0     C35465   2.728   8.687   3.954 -1.1619  0.5464  0.0965
 1004MOL0     C35466   2.859   8.612   3.997  0.1914  0.7448 -0.4870
 1004MOL0     C35467   2.933   8.542   3.891 -0.4032 -0.7362  0.4491
 1004MOL0     C35468   3.073   8.587   3.869 -0.0727 -0.3403  0.3512
 1004MOL0     C35469   3.092   8.720   3.820  0.1231 -0.4514  0.2051
 1004MOL0     C35470   3.113   8.834   3.798 -0.8702 -0.0817  0.1028
 1004MOL0     C35471   2.517   8.881   3.955  0.3933  0.5191  0.0109
 1004MOL0     C35472   2.386   8.933   3.935  0.3297  0.2034  0.0608
 1004MOL0     H35473   1.896   8.899   3.830  0.0689  2.9016 -0.6129
 1004MOL0     H35474   1.655   8.980   3.823 -0.0424  0.7065  0.1069
 1004MOL0     H35475   1.435   8.943   3.869 -0.7621  2.1959 -0.3339
 1004MOL0     H35476   1.412   8.863   4.016 -0.4745 -0.7966 -1.0944
 1004MOL0     H35477   1.257   9.046   4.081 -0.5161 -1.5258 -0.2612
 1004MOL0     H35478   1.285   9.129   3.923  1.6811  1.8749  2.0808
 1004MOL0     H35479   1.194   8.849   3.893 -0.1636  0.5716 -1.5735
 1004MOL0     H35480   1.075   8.945   3.981 -1.2851 -1.2630 -0.5114
 1004MOL0     H35481   1.084   9.108   3.804 -0.3607 -0.7948  3.7619
 1004MOL0     H35482   1.205   9.016   3.715  2.5125  1.6780  3.1999
 1004MOL0     H35483   0.976   8.964   3.605 -1.5451 -3.4584 -0.3574
 1004MOL0     H35484   1.013   8.832   3.704  3.0242  0.2751 -1.9024
 1004MOL0     H35485   0.873   8.939   3.892  0.0008  0.2275 -0.9043
 1004MOL0     H35486   0.861   9.084   3.792  2.5173  0.9702  3.0973
 1004MOL0     H35487   0.740   8.950   3.613  0.2678 -0.5520 -0.4403
 1004MOL0     H35488   0.760   8.805   3.714  2.2123  0.4353  1.0770
 1004MOL0     H35489   0.617   9.032   3.830  3.0199  0.5363  0.5223
 1004MOL0     H35490   0.615   8.867   3.879  0.3432 -0.3107 -0.8307
 1004MOL0     H35491   0.481   9.121   3.633 -0.6541  0.3296 -0.3703
 1004MOL0     H35492   0.179   8.965   3.406 -3.3464  1.0589  2.3828
 1004MOL0     H35493   0.191   9.101   3.510 -0.8018 -1.4629 -0.4762
 1004MOL0     H35494   0.380   9.196   3.367 -0.2483  0.4818  2.7714
 1004MOL0     H35495   0.253   9.145   3.264  0.1607 -1.1813 -2.7540
 1004MOL0     H35496   0.498   8.962   3.303  0.0772  0.6648  1.3461
 1004MOL0     H35497   0.484   9.087   3.194 -1.8210  2.2892  1.1216
 1004MOL0     H35498   0.387   8.910   3.060 -0.0128 -0.2789 -0.0988
 1004MOL0     H35499   0.240   8.946   3.144 -1.2386 -2.2204  0.4626
 1004MOL0     H35500   0.219   8.681   3.407 -1.8403 -0.6926  1.5036
 1004MOL0     H35501  -0.071   8.448   3.421 -2.2483  2.4579 -1.7454
 1004MOL0     H35502   0.060   8.526   3.516  0.1219 -3.4998 -0.9911
 1004MOL0     H35503  -0.084   8.615   3.491  1.2463  1.1386 -0.2335
 1004MOL0     H35504  -0.327   8.261   3.221  0.1863 -2.3711 -0.2702
 1004MOL0     H35505  -0.542   8.176   3.171 -0.3823 -0.4840  0.2152
 1004MOL0     H35506  -0.762   8.155   3.105  0.3552  1.9395  1.0336
 1004MOL0     H35507  -0.827   8.293   3.032  0.5068  0.4732  0.3580
 1004MOL0     H35508  -0.950   8.159   2.864 -0.3271 -0.8872  0.2225
 1004MOL0     H35509  -0.862   8.014   2.892 -1.8163 -1.3895  0.0436
 1004MOL0     H35510  -1.110   8.066   2.978 -1.3014 -5.0380  1.1585
 1004MOL0     H35511  -1.018   8.127   3.119  3.6607  3.3300 -2.6473
 1004MOL0     H35512  -1.023   7.838   2.985  0.8910 -0.9051 -0.3560
 1004MOL0     H35513  -0.897   7.889   3.099  1.0361  0.9501 -1.6301
 1004MOL0     H35514  -1.051   7.932   3.269 -1.9676  2.0846  0.6561
 1004MOL0     H35515  -1.081   7.759   3.204 -0.6020  0.2731 -1.6705
 1004MOL0     H35516  -1.240   8.017   3.160  1.7877  0.4152  0.7650
 1004MOL0     H35517  -1.291   7.858   3.093  1.2817 -1.9334  0.8740
 1004MOL0     H35518  -1.286   7.909   3.391 -1.4085 -0.2231  1.0468
 1004MOL0     H35519  -1.338   7.764   3.302 -0.2457  0.1270  1.2669
 1004MOL0     H35520  -1.495   7.950   3.180 -1.3132  1.3073  1.3334
 1004MOL0     H35521  -1.439   8.055   3.305  1.0726  0.9774 -2.7746
 1004MOL0     H35522  -0.520   8.345   2.769  1.6830  1.7931 -0.2463
 1004MOL0     H35523  -0.299   8.423   2.820  0.1931  0.7207  1.1998
 1004MOL0     H35524   0.007   8.585   2.971  0.3480 -1.1446  0.4882
 1004MOL0     H35525   0.201   8.735   2.994  0.2914 -3.0435 -0.9467
 1004MOL0     H35526   1.665   9.048   4.247  0.1554  2.3836 -1.4545
 1004MOL0     H35527   1.917   8.962   4.241 -0.1037  0.6521 -0.5434
 1004MOL0     H35528   2.221   8.763   4.173  1.4390  1.6907  1.3638
 1004MOL0     H35529   2.441   8.688   4.231 -0.3950  3.3797  1.5078
 1004MOL0     H35530   2.663   8.623   3.893  1.0626 -1.1967 -0.5869
 1004MOL0     H35531   2.756   8.775   3.895  1.1893  0.6646  1.2642
 1004MOL0     H35532   2.823   8.543   4.074 -1.2119  0.0568 -1.7137
 1004MOL0     H35533   2.923   8.681   4.052  0.1125 -0.9273  1.8612
 1004MOL0     H35534   2.876   8.545   3.797 -1.4361  0.4367  1.0764
 1004MOL0     H35535   2.932   8.440   3.929 -3.0646 -1.2237 -0.6818
 1004MOL0     H35536   3.118   8.518   3.798  2.7158  0.6412  1.0471
 1004MOL0     H35537   3.130   8.577   3.962 -1.1586 -1.4926  0.9332
 1004MOL0     H35538   3.152   8.933   3.792  1.7339 -1.1031 -3.2412
 1004MOL0     H35539   2.591   8.925   3.890  0.0397 -2.6003 -2.7832
 1004MOL0     H35540   2.372   9.014   3.864  0.6213  1.8924  1.8247
 1005MOL0     O35541   6.849  11.060   6.769  0.8797  0.2389 -0.9234
 1005MOL0     C35542   6.908  11.140   6.690  0.0974 -0.8737  0.2301
 1005MOL0     O35543   6.877  11.277   6.666 -0.3698  0.3357 -0.3804
 1005MOL0     C35544   6.768  11.333   6.728  0.2459 -0.3309  0.1705
 1005MOL0     C35545   6.665  11.276   6.807 -0.2825  1.0518  0.3449
 1005MOL0     C35546   6.566  11.351   6.867 -0.3603  0.0745 -0.3381
 1005MOL0     C35547   6.569  11.488   6.858  0.4830  0.0745 -0.1379
 1005MOL0     O35548   6.480  11.566   6.918  0.4718 -0.1395 -0.2336
 1005MOL0     C35549   6.391  11.510   7.017  0.2430  0.2162  0.8775
 1005MOL0     C35550   6.297  11.628   7.064 -0.0555  0.3566 -0.4153
 1005MOL0     C35551   6.198  11.575   7.168 -1.2031  0.6774  0.1970
 1005MOL0     C35552   6.115  11.695   7.210  0.1316  0.6438 -0.3513
 1005MOL0     C35553   6.007  11.668   7.319  0.5088 -0.1667  0.2036
 1005MOL0     C35554   5.904  11.564   7.291 -0.5157 -0.0025  0.1861
 1005MOL0     C35555   5.784  11.552   7.386  0.1284  0.5270  0.2086
 1005MOL0     C35556   5.709  11.689   7.402 -0.2643  0.5365  0.1212
 1005MOL0     N35557   5.670  11.745   7.274 -0.1899 -0.4548  0.3461
 1005MOL0     C35558   5.578  11.686   7.186  0.2094 -0.0603 -0.2885
 1005MOL0     C35559   5.581  11.763   7.074  0.9819 -0.8941 -0.3475
 1005MOL0     C35560   5.502  11.736   6.951  0.9650 -0.3060  0.5068
 1005MOL0     C35561   5.357  11.780   6.967  0.9499 -0.1550 -0.2224
 1005MOL0     C35562   5.297  11.841   6.840 -0.4690  0.8137  0.7320
 1005MOL0     C35563   5.173  11.924   6.875  0.3014 -0.1465  0.3880
 1005MOL0     O35564   5.071  11.843   6.937 -0.4490  0.1905 -0.3588
 1005MOL0     C35565   4.946  11.892   6.942  0.4092 -0.2675  0.5439
 1005MOL0     C35566   4.913  12.026   6.963 -0.2967 -0.5857 -0.3507
 1005MOL0     C35567   4.776  12.063   6.975  0.0117 -0.6337  0.0286
 1005MOL0     C35568   4.757  12.215   6.994 -0.2716 -0.3767 -0.0742
 1005MOL0     C35569   4.670  11.979   6.953  0.0422  0.1074 -0.2181
 1005MOL0     C35570   4.530  12.022   6.960 -0.0299  0.3053  0.1731
 1005MOL0     O35571   4.440  11.917   6.927 -0.0300  0.0431 -0.3996
 1005MOL0     C35572   4.301  11.938   6.936  0.0655 -0.1801 -0.3775
 1005MOL0     C35573   4.226  11.876   6.843  0.4838  0.7944 -0.0729
 1005MOL0     C35574   4.087  11.873   6.858  0.4303 -0.0557  0.2443
 1005MOL0     C35575   4.020  11.937   6.973  0.0140  0.4810  0.0927
 1005MOL0     O35576   3.874  11.926   6.983 -1.1961  0.4624 -0.2277
 1005MOL0     C35577   3.800  12.016   7.052 -0.2921 -0.5329 -0.5373
 1005MOL0     C35578   3.654  11.979   7.037  0.7509  0.7087  0.3044
 1005MOL0     C35579   3.562  12.086   7.108  0.1658  0.1984 -0.4087
 1005MOL0     C35580   3.412  12.072   7.076  0.0175 -0.0274 -0.1086
 1005MOL0     C35581   3.338  12.201   7.101 -0.0447 -0.1989 -0.6063
 1005MOL0     C35582   3.317  12.222   7.243 -0.1770 -0.2726 -0.4010
 1005MOL0     C35583   3.195  12.147   7.296 -0.0595  0.5783 -0.2081
 1005MOL0     C35584   3.180  12.184   7.447 -0.1063 -0.4859 -0.4880
 1005MOL0    Cl35585   3.017  12.125   7.513 -0.0655 -0.1020  0.0113
 1005MOL0     C35586   4.097  12.002   7.059  0.5747 -0.7642  0.0339
 1005MOL0     C35587   4.241  12.005   7.047  0.1364  0.5911  0.0066
 1005MOL0     O35588   4.493  12.136   6.995 -0.5362  0.5086  0.4636
 1005MOL0     C35589   4.701  11.844   6.934  0.0410  0.4378 -0.2067
 1005MOL0     C35590   4.835  11.806   6.926  0.5767  0.3137 -0.2270
 1005MOL0     N35591   5.679  11.862   7.088  0.3217 -0.5106  0.4150
 1005MOL0     N35592   5.730  11.846   7.208 -0.9756 -1.0163 -0.3417
 1005MOL0     C35593   6.667  11.551   6.776 -0.4563 -0.2243 -0.1168
 1005MOL0     C35594   6.758  11.471   6.705  0.5911 -0.3194  0.3250
 1005MOL0     C35595   7.031  11.092   6.628 -0.4465  0.3286 -0.1064
 1005MOL0     C35596   7.110  10.997   6.676  0.2478  0.4777  0.4604
 1005MOL0     C35597   7.220  10.950   6.599  0.1164 -0.2630  0.3681
 1005MOL0     C35598   7.246  10.997   6.470  0.4486  0.4465  0.0572
 1005MOL0     O35599   7.327  10.938   6.379  0.2739  0.8905  0.2111
 1005MOL0     C35600   7.388  10.805   6.411  0.5956 -0.5135 -0.1261
 1005MOL0     C35601   7.466  10.749   6.293  0.2482 -0.3976 -0.1715
 1005MOL0     C35602   7.575  10.845   6.243  0.5690 -0.2586 -0.0154
 1005MOL0     C35603   7.689  10.772   6.160  0.8250 -0.0088  0.6064
 1005MOL0     C35604   7.788  10.868   6.098 -0.4194  0.2063 -0.4031
 1005MOL0     C35605   7.877  10.942   6.072 -0.1100  0.5338  0.8439
 1005MOL0     C35606   7.161  11.099   6.419  0.6497  0.7928 -0.0082
 1005MOL0     C35607   7.051  11.140   6.499 -0.2703  0.4370  0.9967
 1005MOL0     H35608   6.647  11.169   6.815  0.7904  0.5723 -2.4424
 1005MOL0     H35609   6.484  11.300   6.917  1.5152 -2.4983  0.3246
 1005MOL0     H35610   6.324  11.432   6.981 -0.5867 -0.2416  3.2205
 1005MOL0     H35611   6.439  11.460   7.102 -0.0970 -2.3402 -0.3221
 1005MOL0     H35612   6.353  11.711   7.107  1.1388  0.0594 -1.3372
 1005MOL0     H35613   6.247  11.667   6.976 -0.5807  1.0062  0.1629
 1005MOL0     H35614   6.142  11.495   7.119  0.0197  0.0596 -0.2566
 1005MOL0     H35615   6.246  11.525   7.253 -0.3389 -0.4866 -0.9157
 1005MOL0     H35616   6.179  11.768   7.261  2.1823 -0.2019 -1.6055
 1005MOL0     H35617   6.059  11.737   7.126  1.9268  0.9688 -1.4339
 1005MOL0     H35618   6.048  11.641   7.417 -2.2586  2.3245  2.2012
 1005MOL0     H35619   5.963  11.766   7.334  1.4223  0.5512 -1.4435
 1005MOL0     H35620   5.865  11.570   7.188 -0.5624 -2.6629 -0.0059
 1005MOL0     H35621   5.957  11.469   7.287 -0.9401 -0.2048 -1.7181
 1005MOL0     H35622   5.715  11.478   7.345 -0.6819  0.5054  1.5654
 1005MOL0     H35623   5.812  11.521   7.486 -2.0695 -1.6521  0.2215
 1005MOL0     H35624   5.768  11.765   7.455 -0.4881  1.0901 -0.4159
 1005MOL0     H35625   5.627  11.659   7.467  0.6108  1.7488  1.8596
 1005MOL0     H35626   5.508  11.605   7.204 -2.8984  2.4338 -0.1380
 1005MOL0     H35627   5.559  11.786   6.871 -0.0661 -1.3050 -0.9012
 1005MOL0     H35628   5.514  11.630   6.929  1.1768 -0.1110 -0.3792
 1005MOL0     H35629   5.362  11.850   7.051  0.9230  0.6826 -0.9065
 1005MOL0     H35630   5.293  11.695   6.994  1.1785  0.3831  2.2981
 1005MOL0     H35631   5.272  11.764   6.766  1.1083 -0.1563  1.1579
 1005MOL0     H35632   5.370  11.908   6.793 -2.1391  0.3730 -2.8344
 1005MOL0     H35633   5.139  11.972   6.782 -1.4648 -1.0781  0.5319
 1005MOL0     H35634   5.210  11.996   6.949 -0.6389  2.5226 -1.5743
 1005MOL0     H35635   4.989  12.101   6.981 -0.3367 -0.8935  1.2095
 1005MOL0     H35636   4.850  12.267   7.020  0.0222 -1.0468  0.2575
 1005MOL0     H35637   4.722  12.262   6.902  2.0107  4.0811  1.0675
 1005MOL0     H35638   4.687  12.230   7.077 -1.7020  0.7447 -1.4344
 1005MOL0     H35639   4.266  11.824   6.756  0.9368 -2.6618  2.0264
 1005MOL0     H35640   4.028  11.821   6.784 -1.8822 -0.1707  2.0543
 1005MOL0     H35641   3.818  12.023   7.160 -6.0908  2.0562  0.6722
 1005MOL0     H35642   3.809  12.117   7.010 -1.2931  0.1018  0.6900
 1005MOL0     H35643   3.620  11.984   6.933  0.3369  2.0357  0.4747
 1005MOL0     H35644   3.635  11.878   7.072  2.7604 -0.1970 -1.0027
 1005MOL0     H35645   3.602  12.182   7.075  1.2145  0.1460  0.6572
 1005MOL0     H35646   3.574  12.079   7.216 -0.1951  2.3393 -0.1797
 1005MOL0     H35647   3.402  12.058   6.968  2.0797 -2.3075 -0.0814
 1005MOL0     H35648   3.357  12.000   7.137 -1.8727  0.2357 -1.3928
 1005MOL0     H35649   3.239  12.193   7.054  0.2765 -3.4246 -1.0094
 1005MOL0     H35650   3.394  12.288   7.065 -1.0272  0.4788 -0.5334
 1005MOL0     H35651   3.401  12.182   7.300 -1.1105 -0.1081  1.1546
 1005MOL0     H35652   3.330  12.326   7.273  2.7283 -0.8083  0.5021
 1005MOL0     H35653   3.212  12.041   7.281  0.2262  0.5705  0.1428
 1005MOL0     H35654   3.104  12.176   7.243  0.1949  0.2544 -0.8227
 1005MOL0     H35655   3.209  12.285   7.476 -1.4057  0.1193 -1.1939
 1005MOL0     H35656   3.248  12.114   7.496 -1.8060 -0.6508  1.7490
 1005MOL0     H35657   4.052  12.046   7.147  2.2708 -0.6524  0.8702
 1005MOL0     H35658   4.295  12.052   7.128  1.6757 -1.2584  0.1418
 1005MOL0     H35659   4.620  11.773   6.923  1.3336 -0.7014 -5.1786
 1005MOL0     H35660   4.848  11.701   6.903 -0.6965 -0.1644  1.0638
 1005MOL0     H35661   6.678  11.658   6.770  0.4556 -0.3675 -1.2264
 1005MOL0     H35662   6.826  11.529   6.643  2.6898 -2.6458  0.2856
 1005MOL0     H35663   7.093  10.956   6.775 -0.9055 -0.2086 -0.0006
 1005MOL0     H35664   7.273  10.867   6.644  1.3296 -0.9021 -2.0542
 1005MOL0     H35665   7.464  10.801   6.490  1.6620 -1.7641 -1.1750
 1005MOL0     H35666   7.310  10.735   6.441  1.8013 -1.8566  0.0309
 1005MOL0     H35667   7.391  10.736   6.214  1.7085  1.0110 -1.8757
 1005MOL0     H35668   7.508  10.653   6.323  2.3500  1.1945  2.4106
 1005MOL0     H35669   7.629  10.900   6.321 -0.3175  3.2456 -1.6445
 1005MOL0     H35670   7.533  10.925   6.180  0.2174  0.2033  0.7872
 1005MOL0     H35671   7.630  10.706   6.096 -1.3857  4.0131 -1.9572
 1005MOL0     H35672   7.745  10.710   6.231 -1.0469 -1.0488  1.2539
 1005MOL0     H35673   7.956  11.001   6.031 -1.2682  2.7531  1.6697
 1005MOL0     H35674   7.156  11.114   6.312  1.7454 -3.6941 -0.9301
 1005MOL0     H35675   6.980  11.205   6.448 -1.8914 -1.7060  0.4071
 1006MOL0     O35676   5.939   6.685   3.640  0.2841 -0.5652 -0.4518
 1006MOL0     C35677   6.015   6.784   3.653 -0.4199  0.7343 -0.7340
 1006MOL0     O35678   5.981   6.915   3.681  0.5585 -0.1472  0.4017
 1006MOL0     C35679   5.846   6.931   3.715 -0.2688 -0.4874  0.1361
 1006MOL0     C35680   5.750   6.945   3.612  0.1736 -0.4128 -0.7502
 1006MOL0     C35681   5.613   6.973   3.639 -0.5028 -0.3796  0.7106
 1006MOL0     C35682   5.561   6.966   3.771 -0.4573 -0.0892  0.7680
 1006MOL0     O35683   5.426   6.973   3.798  0.1358  0.3091  0.3758
 1006MOL0     C35684   5.401   7.083   3.882  1.2345  0.5623  0.0292
 1006MOL0     C35685   5.306   7.181   3.808  0.4467 -0.0983 -0.1276
 1006MOL0     C35686   5.363   7.222   3.666  0.7879 -0.8677 -0.8374
 1006MOL0     C35687   5.264   7.330   3.607  0.2324 -0.1128 -0.4882
 1006MOL0     C35688   5.278   7.368   3.454  0.5201  0.4230  0.7003
 1006MOL0     C35689   5.217   7.500   3.418 -0.2259  0.4305 -0.1042
 1006MOL0     C35690   5.062   7.507   3.425 -0.2248 -0.1253 -0.8742
 1006MOL0     C35691   4.989   7.461   3.291 -0.2301  0.1135  0.0478
 1006MOL0     N35692   4.848   7.494   3.284 -0.6124 -0.1415  0.4380
 1006MOL0     C35693   4.753   7.463   3.384 -0.1553 -0.0019  0.1217
 1006MOL0     C35694   4.653   7.546   3.366 -0.6608  0.3428  0.3251
 1006MOL0     C35695   4.524   7.544   3.437  0.0661  0.9290  0.4473
 1006MOL0     C35696   4.413   7.526   3.327  0.2950  1.2752 -0.0007
 1006MOL0     C35697   4.380   7.376   3.328  0.4147 -0.1456 -0.6545
 1006MOL0     C35698   4.317   7.343   3.194 -0.7881  1.3082  0.3372
 1006MOL0     O35699   4.304   7.201   3.159  0.2380 -0.0376  0.2907
 1006MOL0     C35700   4.227   7.136   3.257 -0.2934  0.0714  0.2739
 1006MOL0     C35701   4.290   7.029   3.316 -0.0812  0.2680 -0.2657
 1006MOL0     C35702   4.224   6.949   3.408  0.6790 -0.1363 -0.0888
 1006MOL0     C35703   4.298   6.824   3.456 -0.2425 -0.6480  0.0885
 1006MOL0     C35704   4.091   6.981   3.446  0.0176 -0.5203  0.2215
 1006MOL0     C35705   4.005   6.902   3.544  0.5926  0.1804  0.2259
 1006MOL0     O35706   3.875   6.951   3.573  0.5512  0.2838 -0.1412
 1006MOL0     C35707   3.798   6.893   3.675 -0.5688 -0.2665  0.5858
 1006MOL0     C35708   3.694   6.810   3.635 -0.0641 -0.2757  0.8417
 1006MOL0     C35709   3.599   6.769   3.726  0.0817  0.4990 -0.4513
 1006MOL0     C35710   3.603   6.812   3.856  0.3857 -0.0346 -0.0346
 1006MOL0     O35711   3.509   6.776   3.938 -0.5025  0.5647  0.0011
 1006MOL0     C35712   3.473   6.861   4.048 -0.3374 -0.1571 -0.0801
 1006MOL0     C35713   3.348   6.937   4.031  0.2238  0.3739 -0.6202
 1006MOL0     C35714   3.332   7.034   4.157 -0.0325  0.6279  0.1409
 1006MOL0     C35715   3.204   7.115   4.129 -0.2491  0.7527 -0.5889
 1006MOL0     C35716   3.252   7.242   4.057  0.4477  0.0245 -0.4564
 1006MOL0     C35717   3.137   7.342   4.013 -0.6403  0.3484 -0.0916
 1006MOL0     C35718   3.028   7.358   4.124 -1.6533 -0.6769 -0.8182
 1006MOL0     C35719   2.937   7.487   4.110 -0.1743  0.1101  0.2638
 1006MOL0    Cl35720   3.056   7.619   4.091  0.2181  0.6100 -0.0517
 1006MOL0     C35721   3.719   6.887   3.903  0.2152 -0.2751  0.2085
 1006MOL0     C35722   3.821   6.926   3.812 -0.2617  0.5723  0.0316
 1006MOL0     O35723   4.047   6.790   3.589 -0.1964  0.1243 -0.5549
 1006MOL0     C35724   4.032   7.099   3.389 -0.9075  0.0285  0.6019
 1006MOL0     C35725   4.098   7.166   3.288 -0.7942 -0.2318  0.0775
 1006MOL0     N35726   4.683   7.638   3.265 -0.6144 -0.4972 -0.5667
 1006MOL0     N35727   4.796   7.597   3.213 -0.0968  0.1400 -0.1366
 1006MOL0     C35728   5.658   6.941   3.876  0.1118 -0.7703 -0.2191
 1006MOL0     C35729   5.800   6.926   3.850  0.2173  0.2598 -0.0789
 1006MOL0     C35730   6.163   6.756   3.645  0.2432  0.0812 -0.1608
 1006MOL0     C35731   6.253   6.864   3.637 -0.3437 -0.0958  0.0364
 1006MOL0     C35732   6.391   6.846   3.634 -0.3317  0.3422  0.0827
 1006MOL0     C35733   6.449   6.723   3.632 -0.6784  0.2787 -0.0372
 1006MOL0     O35734   6.581   6.715   3.640  0.6657 -0.7411 -0.2070
 1006MOL0     C35735   6.655   6.597   3.619  0.4701  0.2038  0.2004
 1006MOL0     C35736   6.767   6.620   3.519  0.2512 -1.5212  0.0753
 1006MOL0     C35737   6.876   6.716   3.579 -0.0697 -0.0178  0.4022
 1006MOL0     C35738   6.987   6.747   3.474 -0.0804 -0.0776  0.2329
 1006MOL0     C35739   7.089   6.643   3.453 -0.4149 -0.8393  0.0941
 1006MOL0     C35740   7.167   6.553   3.445  1.1065 -0.1340  0.5727
 1006MOL0     C35741   6.366   6.606   3.629  0.3723  0.0899 -0.2194
 1006MOL0     C35742   6.231   6.635   3.642 -0.1229  1.0527 -0.3214
 1006MOL0     H35743   5.775   6.946   3.506 -0.1119 -0.7949 -0.8243
 1006MOL0     H35744   5.554   7.013   3.557  1.5791  2.6305  0.5372
 1006MOL0     H35745   5.344   7.044   3.967  2.2650 -1.4619 -0.1584
 1006MOL0     H35746   5.487   7.136   3.922  1.2406 -0.2921  1.2133
 1006MOL0     H35747   5.210   7.131   3.789 -0.1227  0.7476  0.4539
 1006MOL0     H35748   5.301   7.271   3.869  2.4478 -0.3820  0.5404
 1006MOL0     H35749   5.467   7.256   3.671  1.4047 -2.8066  0.3737
 1006MOL0     H35750   5.361   7.134   3.601 -0.9223 -1.0078 -0.6287
 1006MOL0     H35751   5.166   7.298   3.643  0.3769  0.4740  0.4918
 1006MOL0     H35752   5.286   7.424   3.659 -0.0908 -0.2225 -0.1514
 1006MOL0     H35753   5.384   7.368   3.428  0.4532  2.7187  0.1736
 1006MOL0     H35754   5.231   7.288   3.396 -0.1689  0.5333  1.0939
 1006MOL0     H35755   5.250   7.573   3.493  2.3637 -1.7177  1.0155
 1006MOL0     H35756   5.256   7.525   3.319  0.4182 -0.9393 -0.2257
 1006MOL0     H35757   5.022   7.444   3.505  2.1765 -1.6061 -0.7761
 1006MOL0     H35758   5.037   7.610   3.452 -2.0209 -0.3640 -1.4710
 1006MOL0     H35759   5.005   7.353   3.280  1.3099  0.4216 -1.1235
 1006MOL0     H35760   5.036   7.511   3.206 -0.5130 -0.4019 -0.4218
 1006MOL0     H35761   4.755   7.387   3.461  0.1868 -0.3875 -0.2607
 1006MOL0     H35762   4.523   7.459   3.506 -2.7021  0.1236 -0.4559
 1006MOL0     H35763   4.508   7.639   3.488  0.5466  0.1019  2.2348
 1006MOL0     H35764   4.435   7.563   3.226 -0.9504 -0.9694 -1.1799
 1006MOL0     H35765   4.321   7.576   3.359  0.1306  1.3754 -0.6033
 1006MOL0     H35766   4.303   7.367   3.406 -1.7661  2.0560 -2.3760
 1006MOL0     H35767   4.461   7.309   3.357 -1.2447 -1.2213  1.8756
 1006MOL0     H35768   4.392   7.377   3.122  0.5048 -0.8751  0.5691
 1006MOL0     H35769   4.229   7.400   3.163 -0.8085  0.8091 -0.5546
 1006MOL0     H35770   4.390   6.998   3.288 -0.4216 -1.6762  0.4877
 1006MOL0     H35771   4.250   6.736   3.411 -2.2386  0.1392  0.5852
 1006MOL0     H35772   4.404   6.829   3.427  0.1316  1.8073  1.6304
 1006MOL0     H35773   4.302   6.828   3.565 -0.2347  0.5729  0.0569
 1006MOL0     H35774   3.674   6.773   3.535 -1.3939  1.0773  0.5700
 1006MOL0     H35775   3.523   6.699   3.691  1.9758 -1.1159 -1.5686
 1006MOL0     H35776   3.455   6.799   4.136 -1.6767 -0.6056 -0.6556
 1006MOL0     H35777   3.551   6.935   4.069  1.1682 -1.7856  0.2889
 1006MOL0     H35778   3.356   6.999   3.941 -0.0980  1.4857  0.1024
 1006MOL0     H35779   3.264   6.867   4.021 -0.2478  0.6452  1.1677
 1006MOL0     H35780   3.413   7.102   4.183  1.3830 -0.6494 -0.7357
 1006MOL0     H35781   3.316   6.962   4.237 -2.3003 -0.8796 -1.5282
 1006MOL0     H35782   3.126   7.063   4.073 -0.4920  0.7590 -0.2623
 1006MOL0     H35783   3.147   7.144   4.218 -1.1287 -2.3242 -0.0176
 1006MOL0     H35784   3.310   7.215   3.968  0.7785  0.5135 -0.3952
 1006MOL0     H35785   3.319   7.302   4.120 -0.7784  2.0574 -0.9905
 1006MOL0     H35786   3.194   7.433   3.992 -1.5076  0.4405 -2.4513
 1006MOL0     H35787   3.090   7.303   3.921 -0.9035  0.3143  0.0571
 1006MOL0     H35788   3.076   7.376   4.220  2.4332  1.5559 -2.9977
 1006MOL0     H35789   2.970   7.266   4.138 -0.7517 -1.5841 -2.6426
 1006MOL0     H35790   2.867   7.508   4.191 -1.0570  1.0041 -0.7043
 1006MOL0     H35791   2.876   7.475   4.019 -1.5913  1.5778  0.9799
 1006MOL0     H35792   3.743   6.899   4.008  0.2794 -2.6658  0.5073
 1006MOL0     H35793   3.909   6.981   3.842  0.1258  0.8345 -1.4827
 1006MOL0     H35794   3.926   7.121   3.399 -0.9831  0.6255 -1.1418
 1006MOL0     H35795   4.051   7.250   3.238 -0.3181 -1.3562 -2.3969
 1006MOL0     H35796   5.620   6.946   3.977 -2.6172  0.7718 -1.2428
 1006MOL0     H35797   5.869   6.915   3.933 -1.7971 -1.7888  1.4260
 1006MOL0     H35798   6.218   6.966   3.645 -3.1366 -1.0876  2.4109
 1006MOL0     H35799   6.454   6.934   3.636 -1.4917  1.1748  1.0398
 1006MOL0     H35800   6.699   6.572   3.717 -1.1159  0.1125  0.9116
 1006MOL0     H35801   6.598   6.514   3.577 -0.7274  2.3932 -2.7874
 1006MOL0     H35802   6.725   6.659   3.426 -0.9973 -2.0026  0.4123
 1006MOL0     H35803   6.812   6.527   3.483  1.5957 -0.6254 -0.6743
 1006MOL0     H35804   6.911   6.674   3.674 -1.3238  0.0214  0.8977
 1006MOL0     H35805   6.829   6.812   3.605 -0.5484  0.2581 -1.3832
 1006MOL0     H35806   7.032   6.839   3.513 -0.0349 -0.6177  1.4871
 1006MOL0     H35807   6.943   6.767   3.375 -1.9546  0.5967  1.1631
 1006MOL0     H35808   7.227   6.464   3.446  0.9204 -0.2514  1.7200
 1006MOL0     H35809   6.400   6.507   3.658 -1.0369  0.3532  2.6866
 1006MOL0     H35810   6.166   6.548   3.647 -0.9463  1.6993  0.5633
 1007MOL0     O35811   8.674   2.449   3.963 -0.2417  0.3186  0.3847
 1007MOL0     C35812   8.759   2.529   3.922  0.0491  0.1563  0.6477
 1007MOL0     O35813   8.735   2.655   3.870 -0.1506 -0.1589 -0.0097
 1007MOL0     C35814   8.607   2.672   3.835 -0.1506 -0.2563  0.3873
 1007MOL0     C35815   8.559   2.609   3.721 -0.3032  0.2581  0.0995
 1007MOL0     C35816   8.423   2.628   3.686 -0.6274  0.4784 -0.0114
 1007MOL0     C35817   8.339   2.705   3.759 -0.0981 -0.8770  0.3886
 1007MOL0     O35818   8.220   2.731   3.693 -0.1593 -0.2547 -0.9907
 1007MOL0     C35819   8.131   2.832   3.740  0.6312  0.2921  0.3797
 1007MOL0     C35820   8.006   2.825   3.655  0.5210  0.2420 -0.0347
 1007MOL0     C35821   7.912   2.933   3.701  0.2375 -0.8813  0.5111
 1007MOL0     C35822   7.774   2.921   3.638 -0.2936  0.6586  0.0217
 1007MOL0     C35823   7.665   3.000   3.706 -0.3410  0.2697  0.3246
 1007MOL0     C35824   7.678   3.154   3.686  1.0099 -0.3345  0.5865
 1007MOL0     C35825   7.640   3.203   3.543  0.2604  0.5123  0.3721
 1007MOL0     C35826   7.676   3.355   3.524  0.2447 -1.0505 -0.2007
 1007MOL0     N35827   7.543   3.428   3.536  0.2226 -0.2348 -0.2775
 1007MOL0     C35828   7.428   3.421   3.451 -0.2501 -0.1645  0.5666
 1007MOL0     C35829   7.329   3.490   3.513 -0.2435 -0.0547 -0.0074
 1007MOL0     C35830   7.186   3.518   3.473  0.1694  0.0117  0.1214
 1007MOL0     C35831   7.100   3.400   3.534 -0.0327 -0.7114 -0.5558
 1007MOL0     C35832   6.948   3.397   3.498 -0.5657 -0.1550  0.2095
 1007MOL0     C35833   6.861   3.526   3.513 -0.3726  0.5801 -0.0137
 1007MOL0     O35834   6.730   3.504   3.467  0.1654 -0.5107 -0.9842
 1007MOL0     C35835   6.626   3.587   3.501  0.3632 -0.6991  0.3182
 1007MOL0     C35836   6.492   3.542   3.484 -0.2241  1.3180  1.4217
 1007MOL0     C35837   6.379   3.602   3.534 -0.6684 -0.3222  0.3869
 1007MOL0     C35838   6.240   3.543   3.499 -0.0690  0.2643 -0.5415
 1007MOL0     C35839   6.392   3.729   3.599  0.2030  0.4053  0.1839
 1007MOL0     C35840   6.273   3.809   3.642  0.6082 -0.8142 -0.0445
 1007MOL0     O35841   6.158   3.748   3.670  0.0629 -0.2162  0.3843
 1007MOL0     C35842   6.046   3.794   3.734 -0.1895  0.6078  0.2253
 1007MOL0     C35843   5.967   3.687   3.788 -0.3440  0.5470  0.0631
 1007MOL0     C35844   5.862   3.706   3.875  0.1382  0.7784  0.4147
 1007MOL0     C35845   5.835   3.830   3.916  0.6798 -0.7340 -0.2652
 1007MOL0     O35846   5.718   3.850   3.986  0.0255 -0.3541 -0.3775
 1007MOL0     C35847   5.723   3.912   4.114 -0.5228  0.1908 -0.2148
 1007MOL0     C35848   5.577   3.915   4.160 -1.0494  0.0252 -0.4554
 1007MOL0     C35849   5.562   4.002   4.285  0.3541 -0.7097 -0.3976
 1007MOL0     C35850   5.439   3.961   4.370 -1.5752  0.3534  0.9560
 1007MOL0     C35851   5.307   4.027   4.318  0.8705 -0.0453 -0.0115
 1007MOL0     C35852   5.195   4.013   4.412 -0.1827  0.5266  0.0836
 1007MOL0     C35853   5.054   4.043   4.336 -0.6289  0.1692 -0.2813
 1007MOL0     C35854   4.979   4.173   4.388  0.2945  0.2972  0.2417
 1007MOL0    Cl35855   4.963   4.149   4.570  0.1678 -0.1964 -0.3406
 1007MOL0     C35856   5.908   3.939   3.861 -0.7176  0.3593 -0.2803
 1007MOL0     C35857   6.016   3.925   3.778  0.0313  0.7196  1.0610
 1007MOL0     O35858   6.289   3.929   3.651  0.0283 -0.3313 -0.7412
 1007MOL0     C35859   6.522   3.779   3.615  0.2221 -0.7607 -0.1661
 1007MOL0     C35860   6.639   3.710   3.568  0.4490 -0.7763 -0.4923
 1007MOL0     N35861   7.381   3.515   3.639 -0.5246  0.0774 -0.4323
 1007MOL0     N35862   7.506   3.489   3.647  0.5194  1.1109 -0.7062
 1007MOL0     C35863   8.398   2.769   3.871  0.0245  0.6425  0.4769
 1007MOL0     C35864   8.524   2.751   3.912 -0.1549 -0.2346  0.1816
 1007MOL0     C35865   8.900   2.492   3.927 -0.1050  0.3072 -0.5629
 1007MOL0     C35866   9.000   2.595   3.929  0.3764  0.2540 -0.0283
 1007MOL0     C35867   9.135   2.561   3.942 -0.1640 -0.0621  0.6634
 1007MOL0     C35868   9.175   2.427   3.963 -0.2272  0.0849  0.4722
 1007MOL0     O35869   9.304   2.393   3.984 -0.2267 -0.3881 -0.5928
 1007MOL0     C35870   9.401   2.506   3.989 -0.1299 -1.1378 -0.6453
 1007MOL0     C35871   9.541   2.461   4.014 -0.0807 -1.0242 -0.9531
 1007MOL0     C35872   9.621   2.412   3.896  0.0588 -0.7480  0.2961
 1007MOL0     C35873   9.681   2.524   3.813 -0.1402  0.3177 -0.8688
 1007MOL0     C35874   9.780   2.600   3.899 -0.8807  0.5094  0.4086
 1007MOL0     C35875   9.849   2.651   3.986  0.5501 -0.4966  0.5104
 1007MOL0     C35876   9.078   2.323   3.957  0.6011  0.5119  0.1550
 1007MOL0     C35877   8.939   2.354   3.946 -0.0361 -1.2666  0.9744
 1007MOL0     H35878   8.619   2.527   3.683  1.9519  1.8958 -0.0509
 1007MOL0     H35879   8.391   2.596   3.587  1.9522 -1.2636 -0.3772
 1007MOL0     H35880   8.094   2.808   3.841 -0.2602  0.9583  0.2239
 1007MOL0     H35881   8.189   2.924   3.734  2.8081 -1.0432 -0.3044
 1007MOL0     H35882   8.038   2.848   3.553  1.3483  1.4992  0.4808
 1007MOL0     H35883   7.953   2.730   3.661  1.7907 -0.3849  1.9187
 1007MOL0     H35884   7.902   2.924   3.810 -1.4726 -0.4518  0.4148
 1007MOL0     H35885   7.962   3.029   3.684  2.0752 -1.1548  3.6170
 1007MOL0     H35886   7.773   2.949   3.533 -0.0798 -0.9925 -0.4551
 1007MOL0     H35887   7.737   2.818   3.645  0.7801  0.3456  1.8201
 1007MOL0     H35888   7.568   2.969   3.666 -1.1137  1.8430  0.8688
 1007MOL0     H35889   7.670   2.978   3.813  0.3399  2.3841  0.7698
 1007MOL0     H35890   7.602   3.206   3.745  2.2730  4.2205 -1.3076
 1007MOL0     H35891   7.778   3.190   3.711  0.4459  2.0178 -0.3129
 1007MOL0     H35892   7.700   3.145   3.473 -0.3846  0.2696  0.0127
 1007MOL0     H35893   7.535   3.183   3.521  0.3743  1.8615 -1.6073
 1007MOL0     H35894   7.715   3.375   3.424 -2.0428  0.6209 -0.8351
 1007MOL0     H35895   7.742   3.388   3.606  0.4387 -0.1473 -0.7032
 1007MOL0     H35896   7.437   3.371   3.355  1.3716 -1.2333  1.2294
 1007MOL0     H35897   7.160   3.613   3.521 -0.3888 -0.0090 -0.1369
 1007MOL0     H35898   7.169   3.536   3.367  3.5961 -2.7697 -1.1112
 1007MOL0     H35899   7.114   3.391   3.643  1.7859 -3.9710 -0.9080
 1007MOL0     H35900   7.133   3.303   3.495 -0.1271 -1.0127  0.0890
 1007MOL0     H35901   6.898   3.323   3.560  1.7567 -2.8099 -0.8729
 1007MOL0     H35902   6.946   3.370   3.392 -0.5446 -0.7343  0.3535
 1007MOL0     H35903   6.911   3.609   3.461 -1.1655  0.6889 -0.6200
 1007MOL0     H35904   6.853   3.555   3.618  1.2770  2.7040 -0.4130
 1007MOL0     H35905   6.474   3.442   3.447 -2.2450  1.2966  2.3791
 1007MOL0     H35906   6.184   3.518   3.590  0.8779 -0.0577 -0.0318
 1007MOL0     H35907   6.180   3.614   3.441 -1.8551 -0.3404  0.4724
 1007MOL0     H35908   6.231   3.448   3.446  4.0904 -1.2552  1.0871
 1007MOL0     H35909   5.993   3.585   3.759  3.7233  0.8786  1.8851
 1007MOL0     H35910   5.805   3.616   3.895  0.5044  0.2624 -0.7542
 1007MOL0     H35911   5.782   3.852   4.184 -2.3129 -2.1378 -0.5836
 1007MOL0     H35912   5.752   4.017   4.116 -3.2645  1.0265  0.4162
 1007MOL0     H35913   5.520   3.958   4.077 -0.3176  1.8811 -0.0420
 1007MOL0     H35914   5.539   3.814   4.174 -0.9938 -0.6539 -4.1434
 1007MOL0     H35915   5.570   4.107   4.254  1.5274  0.0377  2.2337
 1007MOL0     H35916   5.641   3.988   4.358 -1.0209  1.4022  1.6201
 1007MOL0     H35917   5.429   3.853   4.387  3.9795 -1.2151 -3.0692
 1007MOL0     H35918   5.461   4.008   4.466  1.3874  2.0929 -0.4332
 1007MOL0     H35919   5.277   3.977   4.225 -2.8804  0.3499  0.8320
 1007MOL0     H35920   5.321   4.134   4.303  0.2330  0.1797  0.9582
 1007MOL0     H35921   5.189   3.909   4.445 -0.2143  1.0936  1.9936
 1007MOL0     H35922   5.218   4.067   4.505  0.6545 -2.5535  1.7786
 1007MOL0     H35923   4.991   3.958   4.362 -1.5951  0.9942  0.1006
 1007MOL0     H35924   5.079   4.043   4.229 -0.9761 -0.6797 -0.3667
 1007MOL0     H35925   4.877   4.178   4.349  0.4915  1.7013 -0.1440
 1007MOL0     H35926   5.037   4.262   4.365  1.2464 -0.6313 -1.0423
 1007MOL0     H35927   5.880   4.041   3.883  0.0988  0.4149  0.5331
 1007MOL0     H35928   6.083   4.005   3.747 -2.2981  2.0398 -1.0458
 1007MOL0     H35929   6.531   3.872   3.670  3.5931 -1.9693  1.5902
 1007MOL0     H35930   6.738   3.751   3.589 -0.0063 -1.6163  4.5563
 1007MOL0     H35931   8.340   2.827   3.943 -0.6974  0.8196 -0.2310
 1007MOL0     H35932   8.556   2.804   4.001  0.8392  0.3686 -0.5095
 1007MOL0     H35933   8.986   2.703   3.939  0.5897  0.2280  0.6261
 1007MOL0     H35934   9.199   2.648   3.955 -0.3458  0.2953 -0.6841
 1007MOL0     H35935   9.391   2.576   3.906 -0.3730  3.2868  2.7436
 1007MOL0     H35936   9.375   2.563   4.079 -1.5718 -0.1547 -1.6555
 1007MOL0     H35937   9.529   2.381   4.087  0.4445 -0.1369  0.1407
 1007MOL0     H35938   9.604   2.541   4.054 -0.3876 -1.9070  1.4370
 1007MOL0     H35939   9.556   2.349   3.835  0.0856 -0.7434  0.2628
 1007MOL0     H35940   9.707   2.354   3.930  0.4943 -0.3849 -0.1680
 1007MOL0     H35941   9.603   2.594   3.781 -0.6067  2.1692  3.5899
 1007MOL0     H35942   9.718   2.490   3.716 -2.7494 -1.7711 -1.2171
 1007MOL0     H35943   9.908   2.686   4.068 -1.0840 -1.0102  1.9677
 1007MOL0     H35944   9.108   2.220   3.970 -1.3369  0.1131  2.1249
 1007MOL0     H35945   8.867   2.273   3.957  0.1745 -1.6971 -0.6531
 1008MOL0     O35946   7.977   3.681   1.382 -0.4942  0.0670  0.0979
 1008MOL0     C35947   8.010   3.707   1.497 -0.6887 -0.3854 -0.2827
 1008MOL0     O35948   7.960   3.653   1.607 -0.4358 -0.3111  0.1028
 1008MOL0     C35949   7.876   3.544   1.573 -0.6140  0.0357  0.1127
 1008MOL0     C35950   7.752   3.548   1.500 -0.3365 -0.4666  0.5285
 1008MOL0     C35951   7.673   3.433   1.481 -0.2177  0.4338 -0.6955
 1008MOL0     C35952   7.702   3.308   1.516  0.1522  0.0990 -0.7872
 1008MOL0     O35953   7.605   3.209   1.502  0.5736 -0.2198 -0.0503
 1008MOL0     C35954   7.640   3.072   1.549  0.0550 -0.0863  0.6327
 1008MOL0     C35955   7.563   2.968   1.477  0.0138  0.3601 -0.1105
 1008MOL0     C35956   7.409   2.985   1.492  0.3338  0.0402  0.1072
 1008MOL0     C35957   7.377   2.981   1.643  0.3481 -0.4931 -0.6543
 1008MOL0     C35958   7.224   2.959   1.677 -0.7141 -0.4839  0.2289
 1008MOL0     C35959   7.180   2.818   1.631  0.2002  0.3239  0.8075
 1008MOL0     C35960   7.045   2.798   1.692 -0.6588 -0.4433  0.5396
 1008MOL0     C35961   6.994   2.666   1.635 -0.1906  0.3465 -1.0125
 1008MOL0     N35962   6.844   2.686   1.659  0.7029 -0.2587  0.8632
 1008MOL0     C35963   6.781   2.696   1.777 -0.0664  0.7021 -0.8033
 1008MOL0     C35964   6.658   2.738   1.748  0.3804  0.2193  0.4168
 1008MOL0     C35965   6.547   2.743   1.844 -0.7642  0.0145  0.2837
 1008MOL0     C35966   6.527   2.869   1.920  0.2563 -0.3824  0.2188
 1008MOL0     C35967   6.489   2.988   1.811  0.2973  0.0207 -0.4584
 1008MOL0     C35968   6.337   3.005   1.819  0.1378 -0.2470  0.2197
 1008MOL0     O35969   6.266   2.902   1.761  0.5990 -0.3954  0.3650
 1008MOL0     C35970   6.130   2.928   1.729  0.0431  0.6598  0.9143
 1008MOL0     C35971   6.075   2.849   1.630 -0.2834  0.9728 -0.9391
 1008MOL0     C35972   5.934   2.857   1.603 -0.9633 -0.4484  0.2146
 1008MOL0     C35973   5.876   2.783   1.483  0.1129  0.7149  0.0342
 1008MOL0     C35974   5.848   2.949   1.675  0.0093 -0.0275  0.6960
 1008MOL0     C35975   5.708   2.956   1.671  0.1769  0.4224 -0.6174
 1008MOL0     O35976   5.645   3.071   1.694 -0.0466 -0.0266 -0.2537
 1008MOL0     C35977   5.517   3.068   1.747  0.2235 -0.1506  0.5899
 1008MOL0     C35978   5.418   3.148   1.703 -0.7184 -0.2221  0.6172
 1008MOL0     C35979   5.294   3.155   1.766  0.1492 -0.4226 -0.5276
 1008MOL0     C35980   5.267   3.085   1.885 -0.4814 -0.6655  0.9698
 1008MOL0     O35981   5.147   3.084   1.947  0.5172  0.1793  0.3052
 1008MOL0     C35982   5.061   3.206   1.935  0.0208 -0.0607 -0.4866
 1008MOL0     C35983   4.915   3.174   2.001  0.5700  0.4018 -0.3962
 1008MOL0     C35984   4.898   3.231   2.141 -0.2070 -0.2327 -0.1644
 1008MOL0     C35985   4.752   3.193   2.187 -0.2689  0.2367 -0.7089
 1008MOL0     C35986   4.720   3.221   2.338 -0.2366 -0.4322 -0.2419
 1008MOL0     C35987   4.701   3.367   2.373  0.0179 -0.8597 -0.5429
 1008MOL0     C35988   4.691   3.391   2.526 -0.1520  0.7838 -0.8894
 1008MOL0     C35989   4.698   3.541   2.556  0.1662 -0.1706  0.4274
 1008MOL0    Cl35990   4.562   3.629   2.483 -0.5591 -0.0160  0.3403
 1008MOL0     C35991   5.371   3.009   1.936  0.2478  0.8129  0.2694
 1008MOL0     C35992   5.490   2.987   1.858 -0.6418 -0.0027 -0.3534
 1008MOL0     O35993   5.646   2.853   1.648 -0.6211 -0.3287  0.2117
 1008MOL0     C35994   5.918   3.033   1.770 -0.9481 -0.8416  0.2284
 1008MOL0     C35995   6.056   3.021   1.796 -0.2985 -0.9788  0.8258
 1008MOL0     N35996   6.641   2.754   1.608 -0.6078  0.2431 -0.2233
 1008MOL0     N35997   6.757   2.715   1.556  1.0530  0.3263 -0.0994
 1008MOL0     C35998   7.813   3.301   1.602 -0.0153  0.1920  0.3908
 1008MOL0     C35999   7.891   3.417   1.633 -0.3899 -0.1022 -0.8491
 1008MOL0     C36000   8.139   3.790   1.511  0.6811  0.2271  0.1832
 1008MOL0     C36001   8.211   3.786   1.628 -0.2081 -0.0205  0.3880
 1008MOL0     C36002   8.333   3.851   1.640 -0.1829 -0.1780  0.1479
 1008MOL0     C36003   8.391   3.920   1.531  0.2580 -0.5904 -0.4874
 1008MOL0     O36004   8.506   3.992   1.547 -0.1231  0.2361 -0.2647
 1008MOL0     C36005   8.540   4.101   1.459  0.4312  0.1426  0.1388
 1008MOL0     C36006   8.659   4.185   1.512  0.4792  0.5198 -0.4342
 1008MOL0     C36007   8.728   4.253   1.399  0.7148 -0.3453 -0.8081
 1008MOL0     C36008   8.846   4.349   1.446  0.1832  0.5645  0.0851
 1008MOL0     C36009   8.952   4.275   1.510  0.5771  0.7810  0.5839
 1008MOL0     C36010   9.042   4.195   1.551  0.1301 -0.2524  0.4217
 1008MOL0     C36011   8.312   3.931   1.416  0.1483 -0.3674 -0.1730
 1008MOL0     C36012   8.191   3.864   1.406  0.1937  0.4104  0.6734
 1008MOL0     H36013   7.719   3.642   1.457 -1.5770  0.6008  3.5553
 1008MOL0     H36014   7.578   3.442   1.428  0.0840  0.6684 -1.2074
 1008MOL0     H36015   7.748   3.061   1.531 -0.1062 -1.1493  0.2787
 1008MOL0     H36016   7.627   3.071   1.658 -0.5270 -0.1806  0.5649
 1008MOL0     H36017   7.588   2.968   1.371 -0.0231  0.7720 -0.1187
 1008MOL0     H36018   7.590   2.869   1.517 -1.7293  0.4183  1.3419
 1008MOL0     H36019   7.383   3.080   1.445  3.4378  1.3151  0.7607
 1008MOL0     H36020   7.356   2.905   1.438 -1.0344 -0.3608  1.9308
 1008MOL0     H36021   7.438   2.905   1.694 -3.2568 -4.0325 -1.1222
 1008MOL0     H36022   7.402   3.080   1.682 -1.5479 -1.4417  3.5981
 1008MOL0     H36023   7.209   2.953   1.785 -2.7839 -0.1729  0.0031
 1008MOL0     H36024   7.153   3.033   1.638 -0.3738  1.2332  2.6880
 1008MOL0     H36025   7.174   2.812   1.522  4.6206  1.8833  0.2940
 1008MOL0     H36026   7.254   2.743   1.661  0.1235  0.2278  0.7597
 1008MOL0     H36027   7.049   2.787   1.801 -1.2997 -1.6136  0.4576
 1008MOL0     H36028   6.977   2.878   1.661 -0.8431 -0.5162  0.7543
 1008MOL0     H36029   7.038   2.581   1.687  2.3966  1.9440 -0.4229
 1008MOL0     H36030   7.005   2.659   1.526 -0.9903  1.9430 -1.2321
 1008MOL0     H36031   6.810   2.665   1.877  3.0254  1.4819 -1.3344
 1008MOL0     H36032   6.455   2.722   1.788  1.3771 -0.5129 -3.3586
 1008MOL0     H36033   6.566   2.665   1.917  1.4986 -1.5355 -1.8040
 1008MOL0     H36034   6.630   2.892   1.950  0.7593 -1.9266 -0.2347
 1008MOL0     H36035   6.454   2.850   1.999  0.4192  1.0559  0.7565
 1008MOL0     H36036   6.514   2.974   1.706  0.9121  0.3264 -0.3542
 1008MOL0     H36037   6.546   3.075   1.845  0.8838 -1.2459  2.0987
 1008MOL0     H36038   6.311   3.091   1.757 -0.0254 -1.5555 -1.6054
 1008MOL0     H36039   6.305   3.018   1.922  0.0513  0.2288  0.1343
 1008MOL0     H36040   6.131   2.774   1.575 -0.7083  0.9329 -1.3226
 1008MOL0     H36041   5.811   2.844   1.419  2.1566  1.6625 -1.2533
 1008MOL0     H36042   5.948   2.733   1.417 -0.0008  0.2836  0.2299
 1008MOL0     H36043   5.826   2.697   1.529  1.2743  0.5189  0.9710
 1008MOL0     H36044   5.437   3.222   1.625 -0.8247  0.4359  1.2040
 1008MOL0     H36045   5.218   3.212   1.715  1.6283 -0.0782 -2.4879
 1008MOL0     H36046   5.097   3.294   1.990  2.3464 -2.3263  1.9099
 1008MOL0     H36047   5.044   3.241   1.832 -0.3086 -0.8875 -0.7172
 1008MOL0     H36048   4.832   3.207   1.938  0.3493 -0.6962 -0.7069
 1008MOL0     H36049   4.909   3.065   2.011 -0.1955  0.6012  1.8210
 1008MOL0     H36050   4.904   3.339   2.121 -1.7526 -0.4935 -2.3319
 1008MOL0     H36051   4.982   3.204   2.206  0.0712  1.3257  0.1761
 1008MOL0     H36052   4.681   3.254   2.131 -0.3810  0.6673 -0.1158
 1008MOL0     H36053   4.734   3.086   2.179 -0.0706  0.2929 -2.1398
 1008MOL0     H36054   4.802   3.179   2.397 -3.0580 -3.3437  2.0215
 1008MOL0     H36055   4.624   3.175   2.362  0.5659 -1.7666  0.5612
 1008MOL0     H36056   4.792   3.415   2.337  1.0997 -3.1881 -1.1070
 1008MOL0     H36057   4.615   3.416   2.326 -1.1719 -2.1954  0.1443
 1008MOL0     H36058   4.770   3.330   2.572 -1.0580 -0.9969 -1.5635
 1008MOL0     H36059   4.599   3.341   2.558  0.1988 -0.1629 -1.3103
 1008MOL0     H36060   4.793   3.572   2.514 -1.1470  0.9458 -1.9079
 1008MOL0     H36061   4.697   3.550   2.665  0.1804 -3.3696  0.8121
 1008MOL0     H36062   5.355   2.957   2.030  5.1185 -1.9742 -0.0908
 1008MOL0     H36063   5.573   2.925   1.890 -0.4960  0.5275  0.3392
 1008MOL0     H36064   5.854   3.100   1.827 -1.6214  0.7755 -2.2804
 1008MOL0     H36065   6.088   3.074   1.885 -1.2979  1.1142  0.0087
 1008MOL0     H36066   7.839   3.213   1.660  1.2665 -0.8233 -1.6151
 1008MOL0     H36067   7.979   3.405   1.695 -1.3767 -1.5940  0.3641
 1008MOL0     H36068   8.174   3.729   1.712 -3.0654  1.7537  0.4584
 1008MOL0     H36069   8.387   3.856   1.734  0.5597  0.0174 -0.2808
 1008MOL0     H36070   8.556   4.065   1.357 -0.5378 -1.8463  0.6448
 1008MOL0     H36071   8.453   4.168   1.460  1.0844  1.2174 -3.1223
 1008MOL0     H36072   8.729   4.117   1.561  0.1750 -0.9420 -1.9354
 1008MOL0     H36073   8.629   4.260   1.586  2.1770  1.8720 -1.0437
 1008MOL0     H36074   8.648   4.313   1.356 -0.5400 -2.0750 -0.9591
 1008MOL0     H36075   8.755   4.182   1.321 -0.7356 -0.7126 -1.0012
 1008MOL0     H36076   8.802   4.424   1.513  0.8639  1.2703 -0.2441
 1008MOL0     H36077   8.886   4.394   1.355 -1.8626 -2.2584 -2.4071
 1008MOL0     H36078   9.119   4.134   1.592  0.3783 -0.1218  0.1572
 1008MOL0     H36079   8.351   3.991   1.335 -1.8306  0.4016 -0.6327
 1008MOL0     H36080   8.136   3.879   1.314  1.2915  0.2286 -0.0223
 1009MOL0     O36081   3.456   1.063  10.927  0.1069 -0.1718  0.0763
 1009MOL0     C36082   3.538   1.147  10.890 -0.7656 -0.9042  0.6501
 1009MOL0     O36083   3.509   1.278  10.863  0.2188 -0.0741 -0.0559
 1009MOL0     C36084   3.372   1.297  10.858 -0.8060  0.8679 -0.1872
 1009MOL0     C36085   3.314   1.389  10.952  0.5639 -0.2055  0.8977
 1009MOL0     C36086   3.175   1.421  10.950  0.6750 -0.5342  0.1929
 1009MOL0     C36087   3.095   1.359  10.860  0.3690  1.3080 -0.0557
 1009MOL0     O36088   2.962   1.385  10.872  0.4772  0.4365 -0.9383
 1009MOL0     C36089   2.856   1.332  10.784 -0.2137 -0.1460  0.5002
 1009MOL0     C36090   2.719   1.395  10.806  0.5121 -0.2843  0.4887
 1009MOL0     C36091   2.626   1.373  10.677 -0.1292 -0.6147 -0.1304
 1009MOL0     C36092   2.502   1.475  10.690  0.9102 -0.0102 -0.1308
 1009MOL0     C36093   2.408   1.451  10.571 -0.6623 -0.0326 -0.7943
 1009MOL0     C36094   2.295   1.556  10.575 -0.4812  0.4022 -0.8680
 1009MOL0     C36095   2.193   1.550  10.462  1.0234 -0.3557  0.1373
 1009MOL0     C36096   2.113   1.422  10.479 -0.1077  0.1216 -0.0947
 1009MOL0     N36097   2.045   1.415  10.604  0.0546  0.1293 -0.2848
 1009MOL0     C36098   1.937   1.501  10.627 -0.1822 -0.4079 -0.2952
 1009MOL0     C36099   1.876   1.453  10.741  0.1165  0.2977 -0.2028
 1009MOL0     C36100   1.747   1.513  10.796  0.2544  0.9449  0.5074
 1009MOL0     C36101   1.663   1.408  10.864  0.3559 -0.1664  0.6826
 1009MOL0     C36102   1.528   1.469  10.911  0.2664  0.1081 -0.1786
 1009MOL0     C36103   1.475   1.396  11.034 -0.1626 -0.1524  0.5343
 1009MOL0     O36104   1.335   1.423  11.072  0.0576 -0.3653 -0.8052
 1009MOL0     C36105   1.225   1.398  10.990 -0.7278  0.1259 -0.6540
 1009MOL0     C36106   1.238   1.321  10.873  0.0888  0.4630 -0.4080
 1009MOL0     C36107   1.128   1.290  10.780 -0.1166 -0.0431 -0.5983
 1009MOL0     C36108   1.164   1.217  10.654 -0.4346  0.1855  0.2008
 1009MOL0     C36109   0.999   1.325  10.828 -0.7022  0.2140  0.5070
 1009MOL0     C36110   0.878   1.315  10.749 -0.5566  0.3447  0.5175
 1009MOL0     O36111   0.872   1.209  10.661  0.4329 -0.6871 -0.5285
 1009MOL0     C36112   0.767   1.215  10.575  0.2084  1.1469 -0.2739
 1009MOL0     C36113   0.676   1.111  10.592  0.0285 -0.6578  0.2004
 1009MOL0     C36114   0.568   1.102  10.503 -0.5753 -1.1844 -0.2898
 1009MOL0     C36115   0.539   1.195  10.408  0.3839 -0.2551 -0.8281
 1009MOL0     O36116   0.414   1.176  10.340  0.2860  0.0135 -0.4826
 1009MOL0     C36117   0.383   1.274  10.245  0.2858 -0.0591  0.3354
 1009MOL0     C36118   0.241   1.274  10.204 -0.1096 -0.2473  0.1717
 1009MOL0     C36119   0.223   1.299  10.055  0.3684  0.4168 -0.0244
 1009MOL0     C36120   0.081   1.253  10.022  0.4029 -0.7322  0.0746
 1009MOL0     C36121   0.081   1.104   9.985  0.0585  0.1938  0.0823
 1009MOL0     C36122  -0.048   1.050   9.934 -0.7118 -0.2728  0.5066
 1009MOL0     C36123  -0.156   1.043  10.042  0.7210  0.0147  0.2947
 1009MOL0     C36124  -0.137   0.936  10.156  0.1448  0.5192 -0.6269
 1009MOL0    Cl36125  -0.062   0.785  10.103  0.5686 -0.0569  0.0370
 1009MOL0     C36126   0.639   1.293  10.385 -0.2633  0.4464 -0.1062
 1009MOL0     C36127   0.753   1.301  10.468 -0.4322 -0.6155  0.3142
 1009MOL0     O36128   0.786   1.395  10.770 -0.3409  0.5510  0.5387
 1009MOL0     C36129   0.990   1.397  10.954 -0.1262  0.5010  0.8463
 1009MOL0     C36130   1.100   1.438  11.029 -0.5245  0.1576 -0.2136
 1009MOL0     N36131   1.959   1.348  10.785  0.3003 -0.8314 -0.1862
 1009MOL0     N36132   2.056   1.325  10.704 -0.0370 -0.2538 -0.0150
 1009MOL0     C36133   3.151   1.268  10.767  0.0648  0.0381 -0.4963
 1009MOL0     C36134   3.283   1.243  10.766 -1.3131 -1.1717  0.3351
 1009MOL0     C36135   3.670   1.100  10.856 -0.6067  0.6880  0.3936
 1009MOL0     C36136   3.702   0.968  10.879 -0.1520 -0.0416  0.1329
 1009MOL0     C36137   3.821   0.919  10.845 -0.4601 -0.0389  0.4877
 1009MOL0     C36138   3.930   1.003  10.826  0.7989  0.3390  0.0072
 1009MOL0     O36139   4.061   0.968  10.837  0.1465 -0.6885  0.1783
 1009MOL0     C36140   4.095   0.840  10.880  0.3581  0.0993  0.7625
 1009MOL0     C36141   4.231   0.814  10.837 -0.5502  0.3939 -0.1792
 1009MOL0     C36142   4.288   0.673  10.867  0.2486 -0.4987 -0.0040
 1009MOL0     C36143   4.322   0.594  10.746  0.1674  0.4997 -0.8026
 1009MOL0     C36144   4.320   0.445  10.770 -0.1850  0.0244 -0.0222
 1009MOL0     C36145   4.352   0.323  10.781 -0.3761 -0.5292  0.6113
 1009MOL0     C36146   3.904   1.136  10.802 -0.0281 -0.1196 -0.1522
 1009MOL0     C36147   3.772   1.187  10.820 -0.0811  0.7990 -0.0659
 1009MOL0     H36148   3.376   1.423  11.035  0.4762 -1.0294  1.3080
 1009MOL0     H36149   3.120   1.494  11.009 -0.9080 -0.5224 -1.2246
 1009MOL0     H36150   2.898   1.359  10.687  1.0358  0.1678  1.1144
 1009MOL0     H36151   2.846   1.223  10.782 -2.5183  0.0256 -0.4895
 1009MOL0     H36152   2.678   1.351  10.897  0.4607 -2.7298 -0.6239
 1009MOL0     H36153   2.730   1.502  10.824  0.4654 -0.3400  0.8557
 1009MOL0     H36154   2.684   1.382  10.584  2.3705  1.8075  1.5029
 1009MOL0     H36155   2.579   1.274  10.679  1.2399 -1.2663  1.5490
 1009MOL0     H36156   2.451   1.465  10.786 -1.1967  2.2188 -0.9166
 1009MOL0     H36157   2.535   1.579  10.698  0.3595  0.1588 -0.0410
 1009MOL0     H36158   2.462   1.476  10.479  0.8645  0.1532  0.1215
 1009MOL0     H36159   2.374   1.347  10.568 -2.1699  0.4521 -1.4882
 1009MOL0     H36160   2.249   1.563  10.674 -0.3121  0.8953 -0.8192
 1009MOL0     H36161   2.337   1.657  10.567 -0.4960  0.3359 -1.7986
 1009MOL0     H36162   2.133   1.641  10.470  1.5373  0.1072 -1.0285
 1009MOL0     H36163   2.240   1.563  10.364  0.2623  1.7788 -0.0011
 1009MOL0     H36164   2.171   1.331  10.460 -2.0798 -0.9566 -1.4150
 1009MOL0     H36165   2.046   1.418  10.392  0.5845 -2.3795 -0.5967
 1009MOL0     H36166   1.915   1.596  10.579  4.1497  1.6022  1.1964
 1009MOL0     H36167   1.758   1.599  10.862  1.2057  0.7987  0.5451
 1009MOL0     H36168   1.691   1.559  10.714  0.9694 -1.2473 -1.3004
 1009MOL0     H36169   1.719   1.361  10.945  0.0529 -0.5592  0.6653
 1009MOL0     H36170   1.635   1.322  10.802 -1.3465  0.0571  1.1005
 1009MOL0     H36171   1.456   1.467  10.829  0.5082 -0.0441 -0.3876
 1009MOL0     H36172   1.528   1.575  10.939 -0.0635 -0.3633  1.7917
 1009MOL0     H36173   1.529   1.437  11.119 -0.0580 -0.3827  0.5781
 1009MOL0     H36174   1.511   1.293  11.041 -1.2708 -0.6031 -0.0541
 1009MOL0     H36175   1.340   1.294  10.852  0.1783  1.0535 -0.7565
 1009MOL0     H36176   1.107   1.265  10.575  0.4711  0.1894 -0.4690
 1009MOL0     H36177   1.270   1.235  10.633 -0.6848  4.5472  1.6409
 1009MOL0     H36178   1.141   1.111  10.668 -1.8686  0.6766  1.8646
 1009MOL0     H36179   0.690   1.037  10.671 -1.4730 -2.4946 -1.1724
 1009MOL0     H36180   0.500   1.022  10.529 -1.5883  0.2255  1.6368
 1009MOL0     H36181   0.418   1.369  10.287  3.1567 -1.0896  0.4596
 1009MOL0     H36182   0.440   1.264  10.152  0.8454  4.0965  0.0197
 1009MOL0     H36183   0.204   1.174  10.227  0.6058 -0.0324  2.5138
 1009MOL0     H36184   0.190   1.351  10.263  0.1517  0.3998 -0.4370
 1009MOL0     H36185   0.299   1.258   9.988 -0.6133  0.3357 -1.1183
 1009MOL0     H36186   0.231   1.406  10.033 -1.2127  0.8833  1.4521
 1009MOL0     H36187   0.009   1.267  10.103 -1.9809  0.1642 -2.0761
 1009MOL0     H36188   0.043   1.295   9.928  0.7344 -0.9977 -0.1773
 1009MOL0     H36189   0.111   1.042  10.070 -0.4627 -1.9402 -1.2133
 1009MOL0     H36190   0.159   1.081   9.912  2.3753  0.0469  2.4266
 1009MOL0     H36191  -0.088   1.104   9.848 -1.6138  1.1983  1.7846
 1009MOL0     H36192  -0.035   0.944   9.912 -3.9400 -1.5992  3.8503
 1009MOL0     H36193  -0.250   1.019   9.990 -0.3471  5.4926 -0.9561
 1009MOL0     H36194  -0.172   1.133  10.102 -1.5628 -1.8407  2.7082
 1009MOL0     H36195  -0.235   0.915  10.200  0.9436  2.2736  2.2900
 1009MOL0     H36196  -0.084   0.986  10.238 -2.1561 -0.0669  1.3142
 1009MOL0     H36197   0.622   1.363  10.305 -0.7420  1.0320  0.5006
 1009MOL0     H36198   0.835   1.367  10.439  1.0508 -1.8112  1.5578
 1009MOL0     H36199   0.894   1.436  10.986  0.5389  2.6227  0.4116
 1009MOL0     H36200   1.078   1.511  11.107 -2.9746  1.1488 -1.7201
 1009MOL0     H36201   3.085   1.236  10.686 -1.6405  1.4156  0.2883
 1009MOL0     H36202   3.323   1.173  10.694  1.8839  0.5356  0.2523
 1009MOL0     H36203   3.635   0.888  10.910 -0.4268  0.7953  1.8366
 1009MOL0     H36204   3.841   0.813  10.852 -0.7347 -0.2527 -1.3780
 1009MOL0     H36205   4.087   0.802  10.982 -1.8633 -5.7545 -1.1514
 1009MOL0     H36206   4.029   0.763  10.838 -0.3957  1.4289 -0.5643
 1009MOL0     H36207   4.294   0.893  10.881  0.7615  0.3712 -1.8929
 1009MOL0     H36208   4.231   0.830  10.729  0.7758 -0.3690 -0.3109
 1009MOL0     H36209   4.214   0.620  10.928 -0.8906 -0.2232 -1.1105
 1009MOL0     H36210   4.376   0.670  10.932 -0.8812 -0.8093  1.5647
 1009MOL0     H36211   4.425   0.622  10.723  0.3050  1.2355  0.5918
 1009MOL0     H36212   4.247   0.613  10.668 -0.2364 -0.0094 -0.5447
 1009MOL0     H36213   4.376   0.220  10.797 -1.0646 -0.9785 -0.9726
 1009MOL0     H36214   3.991   1.198  10.782 -0.3283  1.5163  2.9443
 1009MOL0     H36215   3.760   1.294  10.832  4.3428  1.3829  0.7665
 1010MOL0     O36216   6.443   0.692   0.169  0.1187  0.5648  0.1279
 1010MOL0     C36217   6.472   0.570   0.191  0.5876 -0.6310  0.3947
 1010MOL0     O36218   6.377   0.477   0.240  0.4033 -0.0680  0.7587
 1010MOL0     C36219   6.252   0.502   0.268  0.5423 -0.3980 -0.5629
 1010MOL0     C36220   6.202   0.436   0.382  0.1773  0.2971  0.0521
 1010MOL0     C36221   6.067   0.459   0.424 -0.6917 -0.0938  0.0012
 1010MOL0     C36222   5.984   0.555   0.358 -0.2280  0.0338  0.3065
 1010MOL0     O36223   5.852   0.576   0.394 -0.3582  0.5183 -0.0964
 1010MOL0     C36224   5.780   0.697   0.353  0.1262  0.5125  0.3209
 1010MOL0     C36225   5.646   0.707   0.415 -0.9620 -0.1647 -1.0732
 1010MOL0     C36226   5.564   0.818   0.357 -0.5262  0.3644  0.9275
 1010MOL0     C36227   5.457   0.869   0.457 -0.2718  0.4926  0.5410
 1010MOL0     C36228   5.351   0.957   0.382 -0.0158  0.7079  0.5199
 1010MOL0     C36229   5.225   0.994   0.470 -0.1127 -0.4983  0.4724
 1010MOL0     C36230   5.107   1.063   0.392  0.2814 -0.2468  0.7623
 1010MOL0     C36231   5.151   1.195   0.332 -0.2289  0.2907  0.3843
 1010MOL0     N36232   5.046   1.265   0.247  0.5299  0.0690 -0.2365
 1010MOL0     C36233   4.928   1.321   0.293  0.0727 -0.0418  0.2234
 1010MOL0     C36234   4.869   1.386   0.188  0.0728  0.4037 -1.5794
 1010MOL0     C36235   4.749   1.469   0.197  0.0078  0.5103  0.0384
 1010MOL0     C36236   4.643   1.418   0.307 -0.0408  0.3562 -0.2133
 1010MOL0     C36237   4.514   1.495   0.317 -0.7022  0.6067 -0.4811
 1010MOL0     C36238   4.421   1.440   0.424 -0.5272 -0.6162  0.4966
 1010MOL0     O36239   4.313   1.535   0.432  0.3298  0.4049 -0.4982
 1010MOL0     C36240   4.191   1.509   0.368 -0.1563  1.0407 -0.4600
 1010MOL0     C36241   4.186   1.455   0.236  0.5346  0.3301 -0.4359
 1010MOL0     C36242   4.069   1.448   0.162 -0.5567 -0.4139  0.0064
 1010MOL0     C36243   4.068   1.354   0.043 -0.6325  0.6280 -0.1200
 1010MOL0     C36244   3.954   1.498   0.223  0.8643 -0.1653  0.3325
 1010MOL0     C36245   3.821   1.497   0.157  0.1618  1.2759  0.4380
 1010MOL0     O36246   3.710   1.496   0.241 -0.7662 -0.0209  0.1582
 1010MOL0     C36247   3.591   1.496   0.176 -0.1769  0.1071  0.3608
 1010MOL0     C36248   3.551   1.585   0.075  0.6306 -1.4438  0.0590
 1010MOL0     C36249   3.414   1.605   0.044 -0.5580  0.3211  1.0943
 1010MOL0     C36250   3.310   1.531   0.104  0.0010  0.2146  1.0898
 1010MOL0     O36251   3.180   1.537   0.073  0.1763 -0.0100 -0.2628
 1010MOL0     C36252   3.126   1.652  -0.009  0.7911  0.0801 -1.4002
 1010MOL0     C36253   2.974   1.675   0.003  0.7468 -0.0990 -0.4759
 1010MOL0     C36254   2.903   1.549  -0.062 -0.1924 -0.2071  0.0317
 1010MOL0     C36255   2.746   1.546  -0.036  0.1445 -0.2367  0.1012
 1010MOL0     C36256   2.685   1.415  -0.094  0.2863 -0.5240 -0.7301
 1010MOL0     C36257   2.533   1.413  -0.100 -0.5702 -0.0785  0.2304
 1010MOL0     C36258   2.461   1.508  -0.193  0.4468 -0.6112  0.5081
 1010MOL0     C36259   2.321   1.459  -0.238 -0.2292  0.3608 -0.7177
 1010MOL0    Cl36260   2.215   1.573  -0.318  0.0626  0.1736  0.1739
 1010MOL0     C36261   3.349   1.430   0.198  0.3654  0.7329  0.3246
 1010MOL0     C36262   3.487   1.411   0.228  0.5054  0.0357  0.4249
 1010MOL0     O36263   3.813   1.495   0.031  0.4114 -0.5497 -0.2224
 1010MOL0     C36264   3.960   1.554   0.357  0.1179  0.4900  0.2213
 1010MOL0     C36265   4.083   1.565   0.424  0.7976  0.2320  0.6085
 1010MOL0     N36266   4.959   1.367   0.078  0.2046 -1.2281  0.2347
 1010MOL0     N36267   5.055   1.284   0.111  0.0239 -0.1831 -0.1279
 1010MOL0     C36268   6.036   0.617   0.242  0.0485  0.1498 -0.4064
 1010MOL0     C36269   6.165   0.592   0.202  0.4164 -0.0090 -1.0076
 1010MOL0     C36270   6.615   0.531   0.197 -0.1194 -0.3678 -0.0508
 1010MOL0     C36271   6.638   0.393   0.210 -0.4416  0.1474  0.5802
 1010MOL0     C36272   6.771   0.348   0.213 -0.4876 -0.0511 -1.0871
 1010MOL0     C36273   6.878   0.441   0.228  0.2706 -0.8642 -0.6125
 1010MOL0     O36274   7.005   0.404   0.262 -0.1128 -0.2544  0.2857
 1010MOL0     C36275   7.035   0.261   0.277  0.7177 -0.2964 -0.8841
 1010MOL0     C36276   6.974   0.193   0.396 -0.2557 -0.4902  0.3074
 1010MOL0     C36277   6.989   0.038   0.388  0.4617  0.1962  0.3142
 1010MOL0     C36278   7.072  -0.036   0.487 -0.7480 -0.6241  0.6329
 1010MOL0     C36279   7.209   0.020   0.470  0.1429  0.3118 -0.6102
 1010MOL0     C36280   7.316   0.070   0.442  0.3229  0.0688 -0.7851
 1010MOL0     C36281   6.851   0.574   0.214 -0.8774 -0.1363  0.2489
 1010MOL0     C36282   6.722   0.628   0.197  0.5418 -0.1279  0.3280
 1010MOL0     H36283   6.262   0.357   0.426 -1.4874 -0.5711  0.8906
 1010MOL0     H36284   6.017   0.405   0.503 -1.9938  0.5746 -0.3202
 1010MOL0     H36285   5.836   0.787   0.378  0.8673  0.7732 -2.0221
 1010MOL0     H36286   5.757   0.705   0.246  0.1049  1.6727  0.4004
 1010MOL0     H36287   5.597   0.611   0.396 -2.0992 -0.0160  0.8587
 1010MOL0     H36288   5.655   0.725   0.522 -0.1867 -1.5089 -0.8889
 1010MOL0     H36289   5.621   0.908   0.334 -2.1377  0.8277 -1.6717
 1010MOL0     H36290   5.512   0.768   0.275  0.5692 -0.6138  0.8081
 1010MOL0     H36291   5.405   0.783   0.500  1.0940  0.0110  1.2862
 1010MOL0     H36292   5.509   0.919   0.539  1.7509  0.9188 -0.8953
 1010MOL0     H36293   5.400   1.049   0.348  1.4064  0.3761  1.5853
 1010MOL0     H36294   5.323   0.907   0.289  1.7611 -2.5675  1.6104
 1010MOL0     H36295   5.189   0.901   0.515 -0.7088  0.6846  2.5794
 1010MOL0     H36296   5.245   1.061   0.555  0.2799  1.8088 -1.3423
 1010MOL0     H36297   5.073   0.985   0.324  0.0810  1.4356 -1.1743
 1010MOL0     H36298   5.022   1.090   0.455 -3.0505  0.7704 -3.6745
 1010MOL0     H36299   5.234   1.172   0.264 -0.6647  1.2888 -0.5098
 1010MOL0     H36300   5.185   1.272   0.402  0.3047 -0.3621  0.8653
 1010MOL0     H36301   4.885   1.319   0.393  0.8084 -0.6308  0.5390
 1010MOL0     H36302   4.770   1.571   0.228  2.5738  0.9785 -2.8310
 1010MOL0     H36303   4.701   1.476   0.099 -1.7953  2.3803  0.9782
 1010MOL0     H36304   4.693   1.415   0.405 -1.2260  2.5603  0.5137
 1010MOL0     H36305   4.612   1.313   0.297  0.4104 -0.3647  4.1609
 1010MOL0     H36306   4.472   1.496   0.216  0.4559 -0.1766 -0.9951
 1010MOL0     H36307   4.543   1.598   0.337 -1.2833  0.3928  1.7450
 1010MOL0     H36308   4.462   1.423   0.525 -1.7356 -3.5030  0.5913
 1010MOL0     H36309   4.380   1.340   0.405  1.0957 -1.5048  1.3348
 1010MOL0     H36310   4.275   1.404   0.199  2.6612  2.0939  1.8563
 1010MOL0     H36311   4.030   1.257   0.077  0.1958 -0.3945 -1.9325
 1010MOL0     H36312   4.004   1.389  -0.039 -4.5630 -0.2811  2.2899
 1010MOL0     H36313   4.168   1.347  -0.001 -0.9177  1.5816 -0.9601
 1010MOL0     H36314   3.627   1.647   0.028 -0.8025 -0.3391 -0.8903
 1010MOL0     H36315   3.398   1.677  -0.036  2.6806 -1.8310 -1.7894
 1010MOL0     H36316   3.175   1.736   0.040  1.6537 -1.3926  0.3827
 1010MOL0     H36317   3.159   1.646  -0.113  2.7126  0.6123 -0.8642
 1010MOL0     H36318   2.947   1.687   0.108  1.4328 -0.5759 -0.2349
 1010MOL0     H36319   2.941   1.769  -0.042  1.8923  1.5591  1.9259
 1010MOL0     H36320   2.956   1.463  -0.019 -0.4194  0.5194  1.8441
 1010MOL0     H36321   2.922   1.533  -0.169  2.5847 -3.6734  0.8422
 1010MOL0     H36322   2.736   1.549   0.073  3.2063 -1.6051  0.5118
 1010MOL0     H36323   2.700   1.636  -0.078  0.1204 -0.3371 -0.0897
 1010MOL0     H36324   2.714   1.328  -0.033  0.1060 -0.1288 -0.0702
 1010MOL0     H36325   2.728   1.391  -0.192 -1.4744  2.0832 -2.2610
 1010MOL0     H36326   2.505   1.313  -0.137  1.8549 -0.8708  0.3568
 1010MOL0     H36327   2.488   1.428  -0.001 -2.8868  0.5637 -0.8636
 1010MOL0     H36328   2.506   1.533  -0.289 -3.1175  0.4100 -1.0954
 1010MOL0     H36329   2.445   1.597  -0.131 -0.8053  0.4454 -1.2456
 1010MOL0     H36330   2.266   1.431  -0.147 -1.4004  2.8390 -0.5754
 1010MOL0     H36331   2.333   1.374  -0.306  1.7799 -0.0918  0.1449
 1010MOL0     H36332   3.279   1.357   0.236  1.1255  0.5000  1.3148
 1010MOL0     H36333   3.503   1.340   0.308  0.4119 -1.9148 -1.1961
 1010MOL0     H36334   3.876   1.585   0.418 -0.2035 -0.2275  0.1504
 1010MOL0     H36335   4.094   1.621   0.517  0.3016  0.4405  0.5448
 1010MOL0     H36336   5.978   0.689   0.185  1.6053  0.1046 -2.1722
 1010MOL0     H36337   6.196   0.642   0.110  2.5450 -1.9867 -1.4541
 1010MOL0     H36338   6.560   0.321   0.231 -0.8869  0.6084  0.5316
 1010MOL0     H36339   6.781   0.240   0.225 -2.7253 -0.2572 -0.6782
 1010MOL0     H36340   7.004   0.212   0.184 -1.2037  3.4229 -2.4518
 1010MOL0     H36341   7.142   0.256   0.298 -0.0054 -0.5466  3.5340
 1010MOL0     H36342   6.870   0.225   0.394 -0.2543 -0.5082 -0.2259
 1010MOL0     H36343   7.015   0.240   0.487  1.2573  1.4800 -1.2753
 1010MOL0     H36344   7.031   0.018   0.289  3.2075  0.7351  1.2987
 1010MOL0     H36345   6.886   0.004   0.405  0.2584  0.5758 -0.1414
 1010MOL0     H36346   7.077  -0.143   0.469  1.3704 -0.9151  2.4229
 1010MOL0     H36347   7.050  -0.002   0.589  0.1373  2.5986 -0.1255
 1010MOL0     H36348   7.406   0.127   0.428 -0.8188  2.4605  0.8383
 1010MOL0     H36349   6.942   0.632   0.214  0.3615 -1.9844 -0.8417
 1010MOL0     H36350   6.704   0.735   0.197 -2.7979 -0.5586 -1.2188
 1011MOL0     O36351  10.110   8.213   9.407 -0.0727 -0.0338 -0.4007
 1011MOL0     C36352  10.207   8.235   9.340  0.0099 -0.2337 -0.5575
 1011MOL0     O36353  10.206   8.253   9.203  0.0975  1.2328 -0.5491
 1011MOL0     C36354  10.094   8.239   9.129 -0.6630  0.0330  0.2219
 1011MOL0     C36355   9.961   8.293   9.149  0.2366 -0.1063  0.5937
 1011MOL0     C36356   9.866   8.306   9.047  0.1219 -1.3361  0.4749
 1011MOL0     C36357   9.897   8.252   8.923 -0.3133  0.3683 -0.7152
 1011MOL0     O36358   9.810   8.225   8.824  0.0199 -0.6592 -0.2926
 1011MOL0     C36359   9.717   8.334   8.791  0.2643  0.5358  0.4609
 1011MOL0     C36360   9.651   8.289   8.655  0.3544  0.3517 -0.8976
 1011MOL0     C36361   9.518   8.353   8.634  0.7063 -0.8059  0.4141
 1011MOL0     C36362   9.528   8.502   8.600 -0.3044  0.3862 -0.1245
 1011MOL0     C36363   9.395   8.572   8.627  0.4622 -0.2398  0.5577
 1011MOL0     C36364   9.288   8.547   8.523  0.0975 -0.0684 -0.2563
 1011MOL0     C36365   9.159   8.633   8.543 -0.2401  0.1306 -0.2199
 1011MOL0     C36366   9.173   8.762   8.471 -0.4807 -0.5338 -0.3232
 1011MOL0     N36367   9.055   8.845   8.496 -0.0049  0.3064 -0.4828
 1011MOL0     C36368   8.920   8.810   8.506 -0.2886 -0.1144  0.3558
 1011MOL0     C36369   8.861   8.933   8.506 -0.1230  0.3239  0.2386
 1011MOL0     C36370   8.716   8.947   8.487  0.8841  0.3313 -0.0852
 1011MOL0     C36371   8.656   8.898   8.620 -0.0460 -0.2583 -0.0176
 1011MOL0     C36372   8.519   8.970   8.634  1.2058 -0.4360 -1.4944
 1011MOL0     C36373   8.434   8.918   8.755  0.1755 -0.5302  0.0920
 1011MOL0     O36374   8.380   8.790   8.707 -0.3850 -0.0233 -0.1460
 1011MOL0     C36375   8.242   8.774   8.689 -0.1390  1.1039  0.0504
 1011MOL0     C36376   8.217   8.655   8.633 -0.3790  0.3572 -0.1068
 1011MOL0     C36377   8.088   8.609   8.609 -0.3981 -0.3988 -0.2734
 1011MOL0     C36378   8.081   8.466   8.550  0.1857 -0.5465 -0.1480
 1011MOL0     C36379   7.982   8.696   8.635  0.2736  0.5793  0.1903
 1011MOL0     C36380   7.836   8.663   8.612  0.3379 -0.2610  0.4281
 1011MOL0     O36381   7.794   8.538   8.649 -0.0677 -0.3530  0.3228
 1011MOL0     C36382   7.661   8.514   8.656  0.1380  0.0502  0.2072
 1011MOL0     C36383   7.619   8.385   8.615 -0.0623  0.1342  0.0848
 1011MOL0     C36384   7.481   8.346   8.613 -1.5862 -0.0387 -0.5328
 1011MOL0     C36385   7.381   8.435   8.656  0.0043 -0.1095 -0.9715
 1011MOL0     O36386   7.250   8.399   8.673 -0.1798 -0.3919 -0.5148
 1011MOL0     C36387   7.209   8.277   8.623  0.2433  0.5151  0.1043
 1011MOL0     C36388   7.050   8.280   8.633 -0.4420  0.5824  0.4294
 1011MOL0     C36389   6.994   8.191   8.752  0.0226 -1.2082  0.1234
 1011MOL0     C36390   7.053   8.251   8.881 -0.0320 -0.6148 -0.4917
 1011MOL0     C36391   7.017   8.165   9.002  0.9501 -0.0565  0.5201
 1011MOL0     C36392   6.873   8.179   9.040  0.7900  0.5267 -0.2315
 1011MOL0     C36393   6.843   8.082   9.157 -0.1335 -0.0272 -0.2432
 1011MOL0     C36394   6.695   8.034   9.163 -0.2944  0.6389  0.8722
 1011MOL0    Cl36395   6.580   8.169   9.193  0.0516 -0.3808  0.3572
 1011MOL0     C36396   7.421   8.562   8.698  0.0871  0.0863 -0.4604
 1011MOL0     C36397   7.556   8.602   8.703  0.4367  0.3044  0.0978
 1011MOL0     O36398   7.762   8.754   8.575 -0.9296  0.3004  0.8231
 1011MOL0     C36399   8.016   8.822   8.684  0.4090 -0.0879 -0.0269
 1011MOL0     C36400   8.141   8.858   8.717 -0.0978 -0.4521 -0.2926
 1011MOL0     N36401   8.953   9.034   8.509  0.1792 -0.4873 -0.4718
 1011MOL0     N36402   9.069   8.980   8.517 -0.0269 -0.4222  0.1894
 1011MOL0     C36403  10.015   8.177   8.914  0.2078  0.7208  0.8558
 1011MOL0     C36404  10.113   8.175   9.005 -0.3362 -0.1583  0.6838
 1011MOL0     C36405  10.338   8.233   9.411 -0.1617 -0.4694  0.1214
 1011MOL0     C36406  10.348   8.197   9.550  0.1690 -0.2978  0.0689
 1011MOL0     C36407  10.471   8.189   9.607  0.2566  0.3114 -0.3242
 1011MOL0     C36408  10.587   8.226   9.543 -0.4121 -0.5166 -0.3324
 1011MOL0     O36409  10.719   8.235   9.604  1.2438  0.0016  0.0953
 1011MOL0     C36410  10.734   8.192   9.737 -0.6561 -0.3504  1.4283
 1011MOL0     C36411  10.887   8.200   9.764  0.4256  0.4151 -1.0063
 1011MOL0     C36412  10.970   8.101   9.689  0.6490 -0.7777 -0.3044
 1011MOL0     C36413  11.118   8.088   9.748  0.3285 -0.6036  0.1498
 1011MOL0     C36414  11.137   7.970   9.844  0.2365 -0.2740 -0.5572
 1011MOL0     C36415  11.140   7.878   9.922 -0.2627  0.0697  0.0952
 1011MOL0     C36416  10.574   8.252   9.412  0.3667  0.4915 -0.1287
 1011MOL0     C36417  10.456   8.259   9.338 -0.0051  0.1027  0.3931
 1011MOL0     H36418   9.922   8.321   9.246  0.4839 -1.8517  1.2436
 1011MOL0     H36419   9.780   8.368   9.072 -0.2693 -0.8503 -1.9031
 1011MOL0     H36420   9.645   8.340   8.873 -0.3504  0.8548 -0.0970
 1011MOL0     H36421   9.768   8.431   8.786  1.6446  0.0183  2.9319
 1011MOL0     H36422   9.714   8.324   8.573  1.9314 -0.3269 -0.0259
 1011MOL0     H36423   9.649   8.180   8.646  2.3271  0.3179 -1.4285
 1011MOL0     H36424   9.476   8.295   8.552  0.2308  0.7567 -0.4880
 1011MOL0     H36425   9.465   8.341   8.729 -1.0751 -2.6844 -0.7628
 1011MOL0     H36426   9.614   8.548   8.650  0.6916 -1.6931  0.1911
 1011MOL0     H36427   9.550   8.512   8.494  1.5271 -0.6607  0.1116
 1011MOL0     H36428   9.357   8.541   8.725  0.1901  1.4587  1.0227
 1011MOL0     H36429   9.421   8.677   8.640 -2.9577  0.6693  1.1999
 1011MOL0     H36430   9.336   8.549   8.425  0.4066 -1.1883 -0.1422
 1011MOL0     H36431   9.265   8.441   8.537 -1.3114  0.4368  1.7829
 1011MOL0     H36432   9.073   8.576   8.509  0.3144 -0.6826 -0.2874
 1011MOL0     H36433   9.147   8.665   8.647  1.2366  0.5486 -0.1489
 1011MOL0     H36434   9.188   8.740   8.365 -0.8847  0.3255 -0.5648
 1011MOL0     H36435   9.264   8.806   8.512 -0.6804 -0.3614 -0.0568
 1011MOL0     H36436   8.872   8.713   8.513  0.4379 -0.5527 -0.5004
 1011MOL0     H36437   8.685   9.051   8.473 -0.7606 -0.0245  0.6803
 1011MOL0     H36438   8.676   8.887   8.404  1.6978 -1.7743  0.9783
 1011MOL0     H36439   8.727   8.911   8.703  1.7626 -1.6647 -1.2688
 1011MOL0     H36440   8.628   8.793   8.614 -0.8802  0.0490 -2.2386
 1011MOL0     H36441   8.464   8.973   8.539  1.5751 -1.3737 -1.7490
 1011MOL0     H36442   8.541   9.076   8.652 -2.2821  0.2303 -0.3716
 1011MOL0     H36443   8.354   8.984   8.790  1.0380  0.1084  0.9189
 1011MOL0     H36444   8.486   8.910   8.851 -1.2505 -0.8429  0.8758
 1011MOL0     H36445   8.312   8.605   8.618 -0.4903 -0.7777  2.4761
 1011MOL0     H36446   8.178   8.441   8.506 -1.2161  0.3876 -4.1635
 1011MOL0     H36447   8.050   8.391   8.624  0.6021 -0.6393 -0.0636
 1011MOL0     H36448   8.001   8.459   8.476 -0.0051  2.5445 -0.3529
 1011MOL0     H36449   7.701   8.328   8.573 -1.7086 -0.9405 -1.8262
 1011MOL0     H36450   7.460   8.245   8.579 -0.4371 -0.0760 -1.1561
 1011MOL0     H36451   7.243   8.253   8.522  0.0205  0.8469 -0.0512
 1011MOL0     H36452   7.239   8.194   8.688 -0.8889 -1.0350 -1.2792
 1011MOL0     H36453   7.004   8.379   8.639  0.4044  0.9570  1.1469
 1011MOL0     H36454   7.010   8.241   8.540 -0.1435  1.2662  0.0034
 1011MOL0     H36455   7.008   8.083   8.749 -2.4943 -1.6095  1.0257
 1011MOL0     H36456   6.886   8.208   8.759  0.4760  2.2879  0.7186
 1011MOL0     H36457   7.160   8.273   8.870 -0.3453  0.6422 -1.2359
 1011MOL0     H36458   7.008   8.350   8.891 -3.5884 -2.0499 -1.0120
 1011MOL0     H36459   7.088   8.197   9.079  1.0873  0.0664  0.3454
 1011MOL0     H36460   7.039   8.061   8.977  0.9985 -0.7378  3.1486
 1011MOL0     H36461   6.850   8.284   9.059 -0.9557 -0.0435  1.2183
 1011MOL0     H36462   6.807   8.143   8.961  0.4064  0.7431 -0.0158
 1011MOL0     H36463   6.876   8.120   9.254  0.4942 -0.4947 -0.2713
 1011MOL0     H36464   6.893   7.986   9.141 -1.7581 -1.0079  0.2745
 1011MOL0     H36465   6.681   7.962   9.244 -2.6181  0.0018 -0.0064
 1011MOL0     H36466   6.671   7.991   9.065  2.9189  1.6178 -0.4948
 1011MOL0     H36467   7.346   8.632   8.734 -0.6061  0.4902 -2.5732
 1011MOL0     H36468   7.584   8.703   8.732 -0.5122  1.6923 -3.3713
 1011MOL0     H36469   7.929   8.885   8.703  0.2487 -0.3016 -0.0445
 1011MOL0     H36470   8.152   8.960   8.754 -2.4392 -0.5989  1.0264
 1011MOL0     H36471  10.030   8.125   8.820  0.5393  1.7246  0.3493
 1011MOL0     H36472  10.209   8.128   8.991 -0.2210 -0.0793  1.2092
 1011MOL0     H36473  10.252   8.183   9.599 -1.0477  0.9963 -1.8265
 1011MOL0     H36474  10.470   8.161   9.712  0.5617 -0.9709 -0.6538
 1011MOL0     H36475  10.678   8.268   9.791  0.2696  2.0590 -0.7796
 1011MOL0     H36476  10.689   8.093   9.745  2.2512 -1.9586 -0.3289
 1011MOL0     H36477  10.887   8.181   9.871  0.4401  2.1578 -0.6770
 1011MOL0     H36478  10.924   8.302   9.754 -2.2191  1.4528 -0.9927
 1011MOL0     H36479  10.974   8.143   9.588  2.5441 -0.5533 -0.1628
 1011MOL0     H36480  10.919   8.004   9.684 -0.2277 -0.3295 -0.2005
 1011MOL0     H36481  11.145   8.174   9.809 -0.3472  2.8933 -3.9753
 1011MOL0     H36482  11.181   8.078   9.659 -0.8071  3.0986 -1.2767
 1011MOL0     H36483  11.147   7.787   9.979 -1.3936 -0.8822 -1.2208
 1011MOL0     H36484  10.670   8.264   9.361  0.1444 -1.2910 -1.0644
 1011MOL0     H36485  10.463   8.290   9.234  3.2023  3.4877  1.4026
 1012MOL0     O36486   8.268   9.968   1.626 -0.4766 -0.2972 -0.5498
 1012MOL0     C36487   8.367   9.918   1.676 -0.2481 -0.5321 -0.2228
 1012MOL0     O36488   8.370   9.803   1.753 -0.1131 -1.0759 -0.1743
 1012MOL0     C36489   8.250   9.741   1.759 -0.1097  0.0310  0.0867
 1012MOL0     C36490   8.197   9.717   1.889  0.0878  0.3872  0.1866
 1012MOL0     C36491   8.083   9.639   1.907  0.6090 -0.2773 -0.4394
 1012MOL0     C36492   8.003   9.599   1.801 -0.3720  0.3774 -0.3491
 1012MOL0     O36493   7.890   9.527   1.832 -0.0459 -0.0015  0.1203
 1012MOL0     C36494   7.797   9.510   1.728 -0.1836 -0.3245  0.8693
 1012MOL0     C36495   7.662   9.429   1.758  0.2470  0.3273  0.5703
 1012MOL0     C36496   7.675   9.280   1.795 -0.7072  0.2781 -0.0493
 1012MOL0     C36497   7.531   9.216   1.833  0.0543  0.6236 -0.6724
 1012MOL0     C36498   7.549   9.074   1.878  0.1624  0.8512 -0.0945
 1012MOL0     C36499   7.415   9.012   1.900 -0.0786  0.7768  0.0594
 1012MOL0     C36500   7.408   8.870   1.973  0.1295 -0.3591 -0.2779
 1012MOL0     C36501   7.406   8.890   2.125 -0.7736 -0.0578 -0.6002
 1012MOL0     N36502   7.277   8.920   2.184 -0.7333 -0.9149  0.0371
 1012MOL0     C36503   7.178   8.831   2.204  0.5073  0.5928 -0.1998
 1012MOL0     C36504   7.070   8.904   2.253  0.0665  0.5756 -0.2534
 1012MOL0     C36505   6.937   8.834   2.287  0.7218  0.1573  0.2161
 1012MOL0     C36506   6.824   8.940   2.271 -0.2597  0.0475 -0.2199
 1012MOL0     C36507   6.689   8.884   2.321 -0.0576 -0.1426  0.9893
 1012MOL0     C36508   6.571   8.979   2.311 -0.5234 -0.6094  0.2367
 1012MOL0     O36509   6.517   9.004   2.178  0.1537  0.2476  0.1261
 1012MOL0     C36510   6.390   9.045   2.178  0.3066 -0.6835 -0.1639
 1012MOL0     C36511   6.339   9.076   2.059 -0.2855 -0.1747  0.5977
 1012MOL0     C36512   6.214   9.130   2.033 -0.5125  1.0148  0.2364
 1012MOL0     C36513   6.176   9.167   1.894  0.6008 -0.1722  0.1128
 1012MOL0     C36514   6.132   9.146   2.139  0.7141 -0.1571 -0.5990
 1012MOL0     C36515   6.008   9.222   2.124 -0.6633 -0.1843 -0.0074
 1012MOL0     O36516   6.017   9.351   2.088 -0.3873 -0.3591 -0.8089
 1012MOL0     C36517   5.901   9.429   2.100  0.0225 -0.0627  0.4254
 1012MOL0     C36518   5.860   9.479   2.218 -0.5854  0.1557 -0.3880
 1012MOL0     C36519   5.751   9.562   2.233  0.1550 -0.2615  0.4411
 1012MOL0     C36520   5.672   9.586   2.123 -0.6487  0.1614 -0.2622
 1012MOL0     O36521   5.568   9.668   2.115 -0.3631 -1.0494  0.8178
 1012MOL0     C36522   5.489   9.684   2.235  0.7336 -0.0620  0.2545
 1012MOL0     C36523   5.353   9.735   2.193 -0.2251 -0.9620  0.5959
 1012MOL0     C36524   5.289   9.639   2.097 -0.3394 -0.4255 -0.3324
 1012MOL0     C36525   5.254   9.499   2.149 -0.3233 -0.3389 -0.8554
 1012MOL0     C36526   5.136   9.512   2.259 -0.3513 -0.4798  0.0166
 1012MOL0     C36527   4.991   9.515   2.208 -0.3741 -0.5226  0.0307
 1012MOL0     C36528   4.956   9.387   2.144  0.1241  0.2438 -0.5370
 1012MOL0     C36529   4.807   9.385   2.123 -0.0237  0.0884 -0.4221
 1012MOL0    Cl36530   4.769   9.510   1.992 -0.2962  0.2832  0.3345
 1012MOL0     C36531   5.716   9.539   1.997  0.1534  0.4308 -0.4339
 1012MOL0     C36532   5.833   9.468   1.982 -0.2039  0.0942 -0.3116
 1012MOL0     O36533   5.912   9.166   2.175  0.0036 -0.0879 -0.2291
 1012MOL0     C36534   6.173   9.125   2.270 -0.0669  0.8065 -0.0867
 1012MOL0     C36535   6.305   9.075   2.285  0.9039 -0.0096 -0.5786
 1012MOL0     N36536   7.111   9.035   2.271 -0.0582 -0.1542 -0.7823
 1012MOL0     N36537   7.236   9.037   2.242 -0.0818 -0.2360  0.4715
 1012MOL0     C36538   8.050   9.635   1.674  0.2284  0.5183  0.2852
 1012MOL0     C36539   8.167   9.706   1.647 -0.1993  0.3316 -0.3172
 1012MOL0     C36540   8.494   9.983   1.655 -0.3726 -0.1759 -0.1524
 1012MOL0     C36541   8.618   9.932   1.714 -0.3061  0.4424  0.1448
 1012MOL0     C36542   8.740   9.994   1.688 -0.6790 -1.2224  0.5157
 1012MOL0     C36543   8.753  10.096   1.600 -0.4472 -0.4171 -1.0391
 1012MOL0     O36544   8.881  10.135   1.570  0.9625 -0.5329  0.1858
 1012MOL0     C36545   8.896  10.274   1.524 -0.0724  0.0017 -0.0118
 1012MOL0     C36546   9.037  10.335   1.554  0.7745 -0.4688  0.1618
 1012MOL0     C36547   9.156  10.243   1.537  0.2278 -0.4381  0.3507
 1012MOL0     C36548   9.183  10.245   1.387 -0.0865  0.0289  0.5112
 1012MOL0     C36549   9.326  10.228   1.360 -0.3196  0.6307 -0.4018
 1012MOL0     C36550   9.440  10.221   1.321 -0.3636 -0.7600 -0.9767
 1012MOL0     C36551   8.636  10.154   1.554 -0.5029 -0.8129 -0.8065
 1012MOL0     C36552   8.508  10.100   1.577 -0.5140 -0.0042  0.0696
 1012MOL0     H36553   8.253   9.746   1.978  1.3180 -0.9146 -0.1362
 1012MOL0     H36554   8.048   9.610   2.005  0.3833  0.8613 -0.1705
 1012MOL0     H36555   7.786   9.611   1.688  1.2196 -1.1121 -1.7351
 1012MOL0     H36556   7.842   9.452   1.647  2.9476  1.1584  1.3942
 1012MOL0     H36557   7.606   9.473   1.841 -0.4920  0.1076  0.2022
 1012MOL0     H36558   7.598   9.444   1.670 -1.9176 -0.5723  1.9230
 1012MOL0     H36559   7.706   9.211   1.717  1.0676  0.0012  0.8454
 1012MOL0     H36560   7.745   9.278   1.880  0.7698  0.7238 -1.2188
 1012MOL0     H36561   7.500   9.263   1.927 -2.7058 -0.8115 -0.7723
 1012MOL0     H36562   7.464   9.242   1.751  1.2592  0.4259 -1.7572
 1012MOL0     H36563   7.605   9.019   1.802 -1.6656 -3.0639  1.1350
 1012MOL0     H36564   7.605   9.062   1.972 -0.9543  0.7948  0.5763
 1012MOL0     H36565   7.358   9.080   1.965  0.6599  1.7556 -0.3046
 1012MOL0     H36566   7.381   9.005   1.797  1.7274 -3.3423 -0.4429
 1012MOL0     H36567   7.315   8.819   1.947 -0.6226  1.9389 -2.5217
 1012MOL0     H36568   7.493   8.809   1.942 -0.0593  0.9833 -3.8682
 1012MOL0     H36569   7.483   8.965   2.149  1.3774 -1.8944 -1.4529
 1012MOL0     H36570   7.441   8.796   2.167  2.9113  0.8277 -1.3527
 1012MOL0     H36571   7.197   8.724   2.200  3.2591  1.0301 -3.4633
 1012MOL0     H36572   6.915   8.751   2.220  1.4163 -1.4454  1.9043
 1012MOL0     H36573   6.938   8.789   2.387  1.5665  2.4690  1.3290
 1012MOL0     H36574   6.823   8.977   2.168 -0.9649 -0.4237 -0.3903
 1012MOL0     H36575   6.843   9.024   2.338 -0.1950  0.0866 -0.2863
 1012MOL0     H36576   6.690   8.844   2.423 -0.7220 -0.6453  0.8040
 1012MOL0     H36577   6.666   8.802   2.253  1.2164  1.2237 -1.2240
 1012MOL0     H36578   6.601   9.079   2.344  1.4424 -0.1725 -2.5781
 1012MOL0     H36579   6.496   8.935   2.379 -0.9114 -0.1831  0.0885
 1012MOL0     H36580   6.405   9.061   1.974 -1.4366 -0.1643 -0.3186
 1012MOL0     H36581   6.088   9.109   1.863  1.7907 -2.5133  0.8276
 1012MOL0     H36582   6.166   9.275   1.885 -0.8041 -0.2220  0.7743
 1012MOL0     H36583   6.259   9.141   1.827  0.3324 -0.5130 -0.0873
 1012MOL0     H36584   5.917   9.444   2.304  1.9753  1.1170 -1.5815
 1012MOL0     H36585   5.730   9.613   2.326  3.6262 -1.3028  1.9575
 1012MOL0     H36586   5.482   9.588   2.287  1.5783 -1.1147 -1.4881
 1012MOL0     H36587   5.534   9.755   2.305  0.0342  0.9358 -0.2917
 1012MOL0     H36588   5.295   9.762   2.282 -4.0930 -0.6262 -1.8073
 1012MOL0     H36589   5.368   9.828   2.137 -0.8133  0.1025  2.1213
 1012MOL0     H36590   5.351   9.629   2.008  0.4725  1.0353  0.0458
 1012MOL0     H36591   5.197   9.688   2.062  0.1473  1.0927  0.4039
 1012MOL0     H36592   5.237   9.427   2.069 -1.8323 -2.3295  1.1304
 1012MOL0     H36593   5.340   9.461   2.203 -1.7731  0.8987  2.6216
 1012MOL0     H36594   5.152   9.608   2.308  1.8589  0.1293 -1.7262
 1012MOL0     H36595   5.151   9.430   2.330  1.0821 -0.4071 -0.1667
 1012MOL0     H36596   4.920   9.525   2.291 -0.0951  0.0869  0.1972
 1012MOL0     H36597   4.987   9.609   2.152  0.0227  0.0364  0.9219
 1012MOL0     H36598   4.968   9.299   2.208 -0.7582  1.3293  1.2199
 1012MOL0     H36599   5.020   9.365   2.059 -0.6993 -0.1372 -1.0701
 1012MOL0     H36600   4.753   9.388   2.218  0.5849 -1.9639  0.0245
 1012MOL0     H36601   4.789   9.288   2.075 -2.2713  1.1556 -1.9444
 1012MOL0     H36602   5.661   9.566   1.908  2.4033 -1.4466 -2.5528
 1012MOL0     H36603   5.872   9.442   1.884  0.2002  1.7966 -0.6328
 1012MOL0     H36604   6.121   9.163   2.357 -1.7688 -0.8484 -0.3138
 1012MOL0     H36605   6.342   9.051   2.384  0.9833 -0.8383 -0.8028
 1012MOL0     H36606   7.997   9.605   1.584 -2.2333  0.7499  1.5768
 1012MOL0     H36607   8.191   9.741   1.547  3.1313 -1.7560 -0.3916
 1012MOL0     H36608   8.618   9.856   1.792  0.3599 -1.1434 -1.3349
 1012MOL0     H36609   8.833   9.963   1.734 -0.8615 -1.3745  0.7834
 1012MOL0     H36610   8.891  10.289   1.416 -0.7278  1.3110  0.1878
 1012MOL0     H36611   8.824  10.347   1.563 -0.9206 -1.0557  0.4811
 1012MOL0     H36612   9.031  10.373   1.656  1.2657 -0.4471  0.1862
 1012MOL0     H36613   9.051  10.422   1.490  0.5776  0.9759  2.0039
 1012MOL0     H36614   9.148  10.144   1.583 -0.5036  0.6110  2.6356
 1012MOL0     H36615   9.243  10.294   1.581  2.1574 -2.3273 -1.0639
 1012MOL0     H36616   9.158  10.338   1.336  2.2960  1.3715  1.6222
 1012MOL0     H36617   9.139  10.157   1.338  2.3170 -0.2936 -1.2428
 1012MOL0     H36618   9.545  10.215   1.302 -0.3275 -3.2244 -0.3086
 1012MOL0     H36619   8.646  10.230   1.477 -0.0945 -1.4723 -1.4215
 1012MOL0     H36620   8.421  10.123   1.517  1.7567  2.8611 -2.4747
 1013MOL0     O36621   1.286   5.342   3.238 -0.0595 -0.3161 -0.1272
 1013MOL0     C36622   1.331   5.245   3.298 -0.6334 -0.2920  0.7389
 1013MOL0     O36623   1.263   5.140   3.345 -0.1450  0.4503  0.1330
 1013MOL0     C36624   1.126   5.147   3.346  0.2621 -0.0553 -0.0642
 1013MOL0     C36625   1.049   5.241   3.423 -0.0833 -0.1695 -0.4692
 1013MOL0     C36626   0.916   5.210   3.454 -0.0794  0.2349  0.3664
 1013MOL0     C36627   0.853   5.088   3.415  0.6346 -0.2119  1.0267
 1013MOL0     O36628   0.722   5.056   3.443  0.5369 -0.1842  0.7979
 1013MOL0     C36629   0.652   5.132   3.532 -0.3674 -0.1255 -0.5365
 1013MOL0     C36630   0.525   5.053   3.552 -0.3192 -0.0698  0.1683
 1013MOL0     C36631   0.461   4.991   3.423  0.3350 -0.5122  0.1924
 1013MOL0     C36632   0.320   4.953   3.469 -0.4748 -0.2013 -0.4431
 1013MOL0     C36633   0.231   4.921   3.346  0.2584  0.4445  0.3424
 1013MOL0     C36634   0.086   4.878   3.371  0.3985 -0.1251  0.4657
 1013MOL0     C36635   0.018   4.956   3.481  1.2410 -0.0681  0.0498
 1013MOL0     C36636  -0.139   4.914   3.494 -0.7017 -0.3377 -0.9886
 1013MOL0     N36637  -0.206   4.943   3.366 -0.1452  0.2538  0.9636
 1013MOL0     C36638  -0.243   4.838   3.279 -0.5841 -0.5781 -0.2384
 1013MOL0     C36639  -0.323   4.890   3.179  0.3149  0.0533  0.0036
 1013MOL0     C36640  -0.401   4.819   3.069  0.8107  0.4943  0.3790
 1013MOL0     C36641  -0.554   4.834   3.070  0.9148 -0.7748 -0.4100
 1013MOL0     C36642  -0.611   4.782   2.938 -0.2535  0.5365  0.5323
 1013MOL0     C36643  -0.756   4.803   2.934 -0.1961  0.2794 -0.2885
 1013MOL0     O36644  -0.799   4.717   2.834 -0.2322 -0.2200 -0.1417
 1013MOL0     C36645  -0.932   4.712   2.794  0.3492  0.2302 -0.6391
 1013MOL0     C36646  -0.960   4.641   2.679 -0.1580 -0.3748 -0.1184
 1013MOL0     C36647  -1.089   4.620   2.635 -0.2906 -0.1245 -0.5799
 1013MOL0     C36648  -1.104   4.532   2.520  0.4666 -0.3959 -0.2294
 1013MOL0     C36649  -1.195   4.690   2.705 -0.5254  0.3972  0.7381
 1013MOL0     C36650  -1.342   4.670   2.681  0.2836  0.2575  1.0524
 1013MOL0     O36651  -1.426   4.738   2.774 -0.3850 -0.4077  0.1606
 1013MOL0     C36652  -1.550   4.693   2.772 -0.4552  0.1611 -0.4513
 1013MOL0     C36653  -1.570   4.563   2.818  0.0140  0.7494  0.3934
 1013MOL0     C36654  -1.696   4.505   2.799  0.3014  0.1686  0.1034
 1013MOL0     C36655  -1.797   4.586   2.749  0.8041  0.8034  0.2395
 1013MOL0     O36656  -1.913   4.529   2.700 -0.2880 -0.7142 -0.5092
 1013MOL0     C36657  -1.959   4.420   2.775  0.3781  0.8071  0.3890
 1013MOL0     C36658  -2.119   4.404   2.760 -0.2208 -0.3094  1.0084
 1013MOL0     C36659  -2.157   4.404   2.612 -0.1536  0.4264  0.3459
 1013MOL0     C36660  -2.307   4.423   2.586  0.2826  0.1614 -0.5824
 1013MOL0     C36661  -2.344   4.363   2.449 -0.4596 -0.8595 -0.0969
 1013MOL0     C36662  -2.487   4.390   2.425 -0.1850 -0.3451 -0.4909
 1013MOL0     C36663  -2.535   4.330   2.294 -0.5589  0.1322 -0.1404
 1013MOL0     C36664  -2.687   4.350   2.280 -0.0818 -0.2492  0.4560
 1013MOL0    Cl36665  -2.771   4.257   2.404 -0.6260 -0.2133  0.5569
 1013MOL0     C36666  -1.774   4.715   2.709 -0.6974 -0.6908  0.2218
 1013MOL0     C36667  -1.652   4.777   2.728 -0.2398  0.1906  0.1929
 1013MOL0     O36668  -1.383   4.611   2.578 -0.1174 -0.2266 -0.1402
 1013MOL0     C36669  -1.164   4.760   2.814 -0.4453 -0.3561  0.0154
 1013MOL0     C36670  -1.035   4.780   2.855 -0.2157  0.0595 -0.4833
 1013MOL0     N36671  -0.323   5.028   3.200  0.1301 -0.0470 -0.7313
 1013MOL0     N36672  -0.260   5.058   3.318 -0.7580  0.3670  0.2128
 1013MOL0     C36673   0.930   4.994   3.340  0.0179 -0.5232  0.2511
 1013MOL0     C36674   1.063   5.023   3.308  0.1096  0.3729  0.6307
 1013MOL0     C36675   1.477   5.253   3.328 -0.1519 -0.0325 -0.3126
 1013MOL0     C36676   1.545   5.141   3.377 -0.4944  0.0141  1.0251
 1013MOL0     C36677   1.677   5.144   3.397 -0.6165  0.4047 -0.3476
 1013MOL0     C36678   1.752   5.267   3.385  0.2668  0.1845  0.3925
 1013MOL0     O36679   1.888   5.271   3.404  0.7637  0.7117  0.3267
 1013MOL0     C36680   1.922   5.269   3.534 -0.6211 -0.6586 -1.4975
 1013MOL0     C36681   2.012   5.386   3.560 -1.3693  0.2181  0.3185
 1013MOL0     C36682   2.150   5.380   3.483  0.3050  0.4657 -0.4364
 1013MOL0     C36683   2.238   5.513   3.484  0.2865 -0.2947 -0.3391
 1013MOL0     C36684   2.215   5.593   3.606  0.2759  0.1081  0.3126
 1013MOL0     C36685   2.190   5.655   3.703 -0.0552 -0.3446  0.4252
 1013MOL0     C36686   1.686   5.384   3.351 -0.1061  0.1867  0.8049
 1013MOL0     C36687   1.551   5.369   3.310  0.0215  0.1540 -0.4121
 1013MOL0     H36688   1.096   5.335   3.450 -2.0555  1.1269 -1.3215
 1013MOL0     H36689   0.872   5.285   3.520  1.5910  2.1092 -0.5332
 1013MOL0     H36690   0.712   5.147   3.621  0.2698 -0.7322 -0.8570
 1013MOL0     H36691   0.626   5.228   3.485  4.6460  1.6773 -0.1779
 1013MOL0     H36692   0.547   4.967   3.617  0.8203  0.5018  0.5590
 1013MOL0     H36693   0.463   5.124   3.609 -1.0567 -1.0419  0.6192
 1013MOL0     H36694   0.471   5.055   3.335  2.9585 -1.4454 -0.2768
 1013MOL0     H36695   0.519   4.904   3.390  0.8368 -0.2499  0.3703
 1013MOL0     H36696   0.331   4.871   3.541 -1.3547 -0.6924 -0.8473
 1013MOL0     H36697   0.289   5.045   3.519  0.7041 -0.0594  0.0546
 1013MOL0     H36698   0.226   5.011   3.284 -2.6339 -0.0871 -0.3259
 1013MOL0     H36699   0.283   4.836   3.302 -2.6395  0.2866 -3.2793
 1013MOL0     H36700   0.032   4.894   3.278 -2.4209  0.6794  2.1030
 1013MOL0     H36701   0.078   4.771   3.394  1.4395  0.1009  2.1417
 1013MOL0     H36702   0.062   4.939   3.580  1.6712  0.6398 -0.0186
 1013MOL0     H36703   0.028   5.064   3.476  0.2383  0.1218  1.4866
 1013MOL0     H36704  -0.188   4.964   3.578 -0.2086  1.0494 -1.4875
 1013MOL0     H36705  -0.139   4.808   3.520  0.1939 -0.3985 -1.1927
 1013MOL0     H36706  -0.216   4.733   3.292  1.2297  0.0682  1.8568
 1013MOL0     H36707  -0.362   4.849   2.972 -1.0145 -2.4206 -1.4183
 1013MOL0     H36708  -0.392   4.712   3.091 -2.5236  0.1174  0.4709
 1013MOL0     H36709  -0.571   4.941   3.086  0.7518 -0.5445 -1.9755
 1013MOL0     H36710  -0.602   4.776   3.150 -1.4530 -0.4242 -1.5013
 1013MOL0     H36711  -0.579   4.678   2.925  1.6748  1.2108 -0.5028
 1013MOL0     H36712  -0.577   4.850   2.859  0.6236 -1.3033 -0.7420
 1013MOL0     H36713  -0.790   4.903   2.904  0.9139  1.1417  1.1814
 1013MOL0     H36714  -0.801   4.781   3.031  2.6275  1.3635  1.4106
 1013MOL0     H36715  -0.868   4.600   2.639 -0.4164 -2.0650  0.8990
 1013MOL0     H36716  -1.174   4.452   2.543  0.4586 -0.7907 -1.5127
 1013MOL0     H36717  -1.153   4.591   2.442  0.3035  0.4429  0.4914
 1013MOL0     H36718  -1.007   4.494   2.488  0.0139 -2.0751  0.2995
 1013MOL0     H36719  -1.488   4.500   2.852  0.6498  1.3535  0.0172
 1013MOL0     H36720  -1.716   4.399   2.809  0.8148  0.0217 -0.3393
 1013MOL0     H36721  -1.920   4.326   2.733 -3.2389 -0.4237 -0.5791
 1013MOL0     H36722  -1.938   4.424   2.882 -0.1381  0.2290  0.5191
 1013MOL0     H36723  -2.159   4.317   2.813  1.6117 -0.2639  2.6239
 1013MOL0     H36724  -2.167   4.486   2.815  0.2663  1.4462 -1.0603
 1013MOL0     H36725  -2.110   4.312   2.576 -0.4481  0.4539 -0.1235
 1013MOL0     H36726  -2.110   4.482   2.551 -0.6558 -0.9619 -1.9434
 1013MOL0     H36727  -2.364   4.368   2.662  0.0102 -1.9047 -2.2055
 1013MOL0     H36728  -2.332   4.529   2.591 -1.2154 -0.1595 -0.8509
 1013MOL0     H36729  -2.317   4.257   2.454  0.6985 -0.5194  1.6943
 1013MOL0     H36730  -2.282   4.409   2.371  0.5089 -0.4139  0.9117
 1013MOL0     H36731  -2.543   4.355   2.513 -0.7775 -1.0461 -1.1346
 1013MOL0     H36732  -2.504   4.498   2.416  2.0736  0.2760  1.6113
 1013MOL0     H36733  -2.513   4.223   2.307  0.9833  0.3558 -0.7801
 1013MOL0     H36734  -2.490   4.378   2.206  1.8486  0.6070  1.2659
 1013MOL0     H36735  -2.729   4.320   2.184  0.0915 -2.3061  0.9717
 1013MOL0     H36736  -2.705   4.457   2.295 -0.0037 -0.1482 -0.1372
 1013MOL0     H36737  -1.852   4.768   2.654  0.9390 -2.7326 -4.5562
 1013MOL0     H36738  -1.621   4.876   2.697  1.5180 -0.8499 -1.5965
 1013MOL0     H36739  -1.238   4.802   2.881 -0.9657 -1.6140  0.2526
 1013MOL0     H36740  -1.023   4.830   2.951  2.1665  2.4019 -1.8602
 1013MOL0     H36741   0.879   4.908   3.298  0.4883  0.5008 -2.6617
 1013MOL0     H36742   1.120   4.943   3.261 -3.6071  0.1737 -4.5014
 1013MOL0     H36743   1.494   5.047   3.391 -1.0806  0.0233 -0.7325
 1013MOL0     H36744   1.735   5.056   3.421  1.2342  1.4796 -0.6907
 1013MOL0     H36745   1.836   5.275   3.601  0.6523 -0.1559  0.1408
 1013MOL0     H36746   1.980   5.180   3.557 -0.1931  0.1513  0.8276
 1013MOL0     H36747   2.036   5.390   3.667  1.1741  1.0313 -0.1989
 1013MOL0     H36748   1.951   5.475   3.541 -4.2014 -1.7231 -0.2828
 1013MOL0     H36749   2.121   5.356   3.380  0.8606  0.0203 -0.4907
 1013MOL0     H36750   2.209   5.295   3.518 -2.0808 -0.4859  1.6036
 1013MOL0     H36751   2.205   5.585   3.409  0.1139  1.3632  1.2333
 1013MOL0     H36752   2.342   5.493   3.459 -0.4334 -2.3605 -1.9369
 1013MOL0     H36753   2.150   5.709   3.786  0.7477 -4.2579  3.6649
 1013MOL0     H36754   1.740   5.477   3.363 -0.8231  0.6705  0.3309
 1013MOL0     H36755   1.497   5.461   3.288  0.6225  1.1052  1.8664
 1014MOL0     O36756   9.236  10.948   0.410 -0.6281 -0.1310  0.0681
 1014MOL0     C36757   9.292  11.004   0.504  0.5729 -0.6868 -0.3905
 1014MOL0     O36758   9.225  11.071   0.597  0.7455 -0.2589 -0.2499
 1014MOL0     C36759   9.085  11.083   0.600  0.2006 -0.2617  0.8450
 1014MOL0     C36760   9.033  11.176   0.693  1.4573  0.1365  1.1791
 1014MOL0     C36761   8.893  11.209   0.697 -0.4168 -0.2740  0.2762
 1014MOL0     C36762   8.799  11.135   0.617  0.2758 -0.1144  0.2943
 1014MOL0     O36763   8.660  11.167   0.630 -0.1710  0.0804  0.2449
 1014MOL0     C36764   8.575  11.068   0.576  0.8549  0.5892  0.1426
 1014MOL0     C36765   8.435  11.105   0.630 -0.0572 -0.3216  0.3872
 1014MOL0     C36766   8.325  11.011   0.588  0.7624  0.1458  1.3587
 1014MOL0     C36767   8.183  11.039   0.655  0.3322 -0.5245  0.6160
 1014MOL0     C36768   8.100  10.915   0.648 -0.6327  0.4412 -0.2543
 1014MOL0     C36769   7.988  10.927   0.751 -0.5741  0.2561 -0.1343
 1014MOL0     C36770   7.900  10.807   0.725 -0.2052 -0.4122  0.1736
 1014MOL0     C36771   7.769  10.822   0.812  0.0263  0.3450  0.9320
 1014MOL0     N36772   7.669  10.722   0.764 -0.5497 -0.5207 -0.5296
 1014MOL0     C36773   7.610  10.626   0.845  1.1119  0.1692  0.8027
 1014MOL0     C36774   7.519  10.567   0.763  0.0645 -1.3852  0.0922
 1014MOL0     C36775   7.426  10.453   0.787  1.0644 -0.9032 -0.5030
 1014MOL0     C36776   7.280  10.498   0.793  0.2154 -0.4333  0.8385
 1014MOL0     C36777   7.192  10.389   0.849 -0.5464  0.4694 -0.0191
 1014MOL0     C36778   7.041  10.423   0.846  0.8447  0.7374 -0.0996
 1014MOL0     O36779   6.974  10.332   0.933  0.1634 -0.1302  0.1212
 1014MOL0     C36780   6.835  10.332   0.946 -0.0073 -0.7488 -0.1424
 1014MOL0     C36781   6.783  10.272   1.055 -0.2142 -0.0205  1.1305
 1014MOL0     C36782   6.648  10.251   1.067  0.4758  0.8984 -0.1317
 1014MOL0     C36783   6.599  10.158   1.177 -1.0940  0.3103  0.7338
 1014MOL0     C36784   6.559  10.313   0.977 -0.0072  1.2803 -0.3500
 1014MOL0     C36785   6.406  10.302   0.983  0.1084 -0.8253 -0.1086
 1014MOL0     O36786   6.351  10.343   0.865 -0.2732  0.2319 -0.0171
 1014MOL0     C36787   6.225  10.317   0.837  0.0694 -0.1704  0.4486
 1014MOL0     C36788   6.178  10.190   0.838 -0.0180  0.5333  0.0645
 1014MOL0     C36789   6.036  10.161   0.821  0.0036  0.0090  1.0398
 1014MOL0     C36790   5.942  10.258   0.807 -0.1877 -0.3183 -0.4765
 1014MOL0     O36791   5.807  10.226   0.798  0.0983 -0.0940 -0.0091
 1014MOL0     C36792   5.717  10.321   0.848 -0.3563 -0.2938 -0.4607
 1014MOL0     C36793   5.573  10.279   0.880  0.1786  0.8510  0.3163
 1014MOL0     C36794   5.510  10.392   0.952  1.0176 -0.0353  0.1591
 1014MOL0     C36795   5.367  10.349   1.006 -0.0506  0.0436  0.0128
 1014MOL0     C36796   5.326  10.421   1.134 -0.5112  0.1525 -0.9642
 1014MOL0     C36797   5.181  10.392   1.166  0.7053  0.2381  0.2469
 1014MOL0     C36798   5.093  10.474   1.076 -1.2787  0.6826  0.4800
 1014MOL0     C36799   4.955  10.461   1.121 -0.9186  0.1044 -0.0510
 1014MOL0    Cl36800   4.854  10.551   1.001 -0.3410 -0.4287  0.1664
 1014MOL0     C36801   5.997  10.393   0.812  0.7997  0.0794 -0.7433
 1014MOL0     C36802   6.128  10.422   0.826 -0.3524 -0.0785 -0.0902
 1014MOL0     O36803   6.343  10.265   1.083 -0.2407  0.0348  0.2757
 1014MOL0     C36804   6.616  10.398   0.875 -0.6795  0.3213  0.0640
 1014MOL0     C36805   6.756  10.405   0.858  0.1614  0.1211  0.5625
 1014MOL0     N36806   7.529  10.626   0.637 -0.2715  0.6393 -0.1479
 1014MOL0     N36807   7.623  10.715   0.641  0.0813  0.0544 -0.7416
 1014MOL0     C36808   8.845  11.042   0.534  0.6365  0.5967 -0.1261
 1014MOL0     C36809   8.986  11.019   0.521 -0.0784 -0.3868 -0.0399
 1014MOL0     C36810   9.446  10.974   0.522 -1.0733 -0.1854 -0.3313
 1014MOL0     C36811   9.513  11.043   0.625  0.8050  0.0748 -0.1026
 1014MOL0     C36812   9.644  11.013   0.647  0.1870  0.2296  0.6824
 1014MOL0     C36813   9.717  10.936   0.558  0.6094  0.8879  0.5365
 1014MOL0     O36814   9.853  10.914   0.567 -0.5470 -0.7321  0.1030
 1014MOL0     C36815   9.924  11.022   0.627 -0.4310  0.1910 -0.9815
 1014MOL0     C36816  10.071  11.033   0.571  0.7378  0.3591  1.0648
 1014MOL0     C36817  10.144  10.898   0.576  0.4338  0.1344 -0.4504
 1014MOL0     C36818  10.291  10.920   0.537  0.8676 -0.3713  0.7475
 1014MOL0     C36819  10.351  10.789   0.551 -1.1715 -0.6104  0.0909
 1014MOL0     C36820  10.413  10.681   0.561  0.6536 -0.4281  0.5115
 1014MOL0     C36821   9.654  10.882   0.444 -0.3113  0.4522 -0.2927
 1014MOL0     C36822   9.516  10.891   0.428  0.9512  0.2868 -0.3652
 1014MOL0     H36823   9.101  11.218   0.766  2.0042  1.1584  0.0995
 1014MOL0     H36824   8.860  11.278   0.774  1.6634 -0.1245  1.0883
 1014MOL0     H36825   8.587  11.064   0.468  0.2131  2.2120 -0.0181
 1014MOL0     H36826   8.597  10.968   0.613  2.3667  0.1348 -1.8721
 1014MOL0     H36827   8.438  11.101   0.739 -2.5103  1.7693  0.6309
 1014MOL0     H36828   8.419  11.209   0.600  1.5221 -0.6291 -1.7365
 1014MOL0     H36829   8.326  11.027   0.480 -1.0895 -1.7821  0.9839
 1014MOL0     H36830   8.346  10.909   0.622 -2.7905 -1.4495 -0.6724
 1014MOL0     H36831   8.195  11.079   0.756 -0.8529  2.4267 -0.3153
 1014MOL0     H36832   8.143  11.123   0.598 -3.1990 -2.6898 -0.4312
 1014MOL0     H36833   8.061  10.912   0.546  0.0886 -2.5004 -0.5218
 1014MOL0     H36834   8.163  10.828   0.663  0.1810  0.7821 -1.4796
 1014MOL0     H36835   8.039  10.914   0.847  1.5665 -3.9801 -1.5944
 1014MOL0     H36836   7.930  11.020   0.751  1.5755  1.7670  2.6096
 1014MOL0     H36837   7.872  10.799   0.620  0.0757 -1.0308  0.1412
 1014MOL0     H36838   7.962  10.717   0.738  1.9271  0.6707 -1.7862
 1014MOL0     H36839   7.717  10.917   0.795 -0.4800  0.2831  2.0424
 1014MOL0     H36840   7.806  10.795   0.911 -1.7004  0.5525  1.6747
 1014MOL0     H36841   7.633  10.611   0.950 -0.9732 -0.3018  1.2254
 1014MOL0     H36842   7.431  10.381   0.705 -1.1979 -1.8606  0.1210
 1014MOL0     H36843   7.445  10.412   0.887 -2.1551  3.3808  2.2405
 1014MOL0     H36844   7.248  10.533   0.695  1.0527 -0.9383  0.3783
 1014MOL0     H36845   7.263  10.584   0.859 -1.1887  1.0130 -1.3020
 1014MOL0     H36846   7.224  10.365   0.951 -2.5204 -2.7960 -0.0065
 1014MOL0     H36847   7.212  10.297   0.793 -1.6314 -0.4530  1.0550
 1014MOL0     H36848   7.001  10.416   0.745 -1.8896 -0.8518  0.9665
 1014MOL0     H36849   7.015  10.521   0.888 -0.3819  0.3973 -0.0040
 1014MOL0     H36850   6.845  10.220   1.128 -2.4928 -4.0768  0.4978
 1014MOL0     H36851   6.515  10.098   1.140 -0.7530  1.3201 -1.9162
 1014MOL0     H36852   6.679  10.084   1.185  1.0244  2.5635  2.2112
 1014MOL0     H36853   6.584  10.216   1.269  1.6083  1.7238  0.4121
 1014MOL0     H36854   6.246  10.106   0.847 -0.5346 -0.1172 -1.7597
 1014MOL0     H36855   5.993  10.062   0.816 -0.9311  0.3752  1.5507
 1014MOL0     H36856   5.741  10.370   0.943 -0.7084 -1.4638  0.2551
 1014MOL0     H36857   5.723  10.399   0.771  2.3550  0.9978  0.9107
 1014MOL0     H36858   5.516  10.245   0.792 -0.7087 -1.0339  1.5604
 1014MOL0     H36859   5.569  10.196   0.950 -1.1988 -0.1351 -0.8629
 1014MOL0     H36860   5.510  10.479   0.885 -0.7204 -1.0986 -1.3354
 1014MOL0     H36861   5.567  10.426   1.038 -0.2742  1.3258  0.5179
 1014MOL0     H36862   5.301  10.347   0.919  2.0426 -3.3919 -1.6790
 1014MOL0     H36863   5.378  10.246   1.041  0.3064  0.4080  1.0247
 1014MOL0     H36864   5.352  10.527   1.125  1.6358 -0.3176 -0.6865
 1014MOL0     H36865   5.383  10.378   1.217  1.2068  2.0997 -1.0528
 1014MOL0     H36866   5.153  10.287   1.168 -2.3752  0.9121  3.6115
 1014MOL0     H36867   5.167  10.415   1.272 -3.1872 -4.3556  1.0427
 1014MOL0     H36868   5.087  10.436   0.973 -1.3811  2.9693 -0.4179
 1014MOL0     H36869   5.123  10.579   1.073  1.0865  0.0797  0.8441
 1014MOL0     H36870   4.946  10.518   1.214  1.2619  1.4535 -0.6005
 1014MOL0     H36871   4.919  10.358   1.130  0.9082 -0.6232 -0.6628
 1014MOL0     H36872   5.920  10.470   0.811 -0.0296 -0.6994  0.7664
 1014MOL0     H36873   6.151  10.528   0.839 -2.0472  0.4287 -0.8404
 1014MOL0     H36874   6.558  10.447   0.797 -2.7916 -1.0240  0.7219
 1014MOL0     H36875   6.801  10.449   0.770  1.9635 -1.4751  0.6230
 1014MOL0     H36876   8.780  10.980   0.474  1.0016 -1.3905  1.4433
 1014MOL0     H36877   9.005  10.940   0.450  0.1782  0.8505 -1.4042
 1014MOL0     H36878   9.458  11.101   0.698 -3.2618 -1.6833 -1.4604
 1014MOL0     H36879   9.694  11.071   0.725  0.3852 -1.5069  1.8909
 1014MOL0     H36880   9.884  11.123   0.614  1.5402  1.5774  2.4041
 1014MOL0     H36881   9.933  11.005   0.734  0.3338 -0.8331 -1.1982
 1014MOL0     H36882  10.123  11.116   0.620 -0.8864  2.5549 -0.7481
 1014MOL0     H36883  10.066  11.057   0.464  1.2955 -0.3635  0.8716
 1014MOL0     H36884  10.091  10.820   0.520  0.4282  0.7186 -1.2776
 1014MOL0     H36885  10.140  10.865   0.680  0.6666  0.9302 -0.1763
 1014MOL0     H36886  10.328  10.993   0.610 -0.2233 -1.0720  2.0484
 1014MOL0     H36887  10.292  10.953   0.432  2.4286  0.1723  0.9091
 1014MOL0     H36888  10.463  10.587   0.566 -0.5033 -1.1145 -0.2054
 1014MOL0     H36889   9.713  10.827   0.372 -1.5749 -0.7211 -0.4545
 1014MOL0     H36890   9.460  10.859   0.341  1.4633  2.1864 -1.4456
 1015MOL0     O36891   2.990   9.963   7.466  0.1664 -0.7875 -0.1536
 1015MOL0     C36892   3.076   9.930   7.542  0.3935 -0.6058 -0.2736
 1015MOL0     O36893   3.056   9.864   7.669  0.4397  0.1333  0.3850
 1015MOL0     C36894   2.927   9.841   7.718 -0.1544  0.3905 -0.3214
 1015MOL0     C36895   2.809   9.845   7.648  0.4390  0.9394  0.3310
 1015MOL0     C36896   2.687   9.818   7.712 -0.1291 -0.1710  0.8971
 1015MOL0     C36897   2.686   9.786   7.849 -0.9766 -1.4346  0.2902
 1015MOL0     O36898   2.573   9.772   7.924  0.4922 -0.3540  0.1322
 1015MOL0     C36899   2.452   9.740   7.856  0.5733 -0.2088  0.3070
 1015MOL0     C36900   2.358   9.704   7.974  1.2085 -1.1693 -0.1859
 1015MOL0     C36901   2.264   9.818   8.008  0.6337  0.4002 -0.5419
 1015MOL0     C36902   2.162   9.783   8.124 -0.5609 -0.3995  0.0723
 1015MOL0     C36903   2.072   9.905   8.147  0.8812 -0.1493 -0.6981
 1015MOL0     C36904   1.944   9.905   8.058 -0.5368 -0.5546 -0.1800
 1015MOL0     C36905   1.840  10.017   8.086 -0.0753  0.3935  0.1252
 1015MOL0     C36906   1.775  10.002   8.221  1.4350 -0.7704 -1.2800
 1015MOL0     N36907   1.675  10.117   8.248  0.4043  0.2637  0.9837
 1015MOL0     C36908   1.704  10.241   8.299  0.6560 -0.1837 -0.1374
 1015MOL0     C36909   1.579  10.290   8.346  0.3323 -0.7315 -0.1087
 1015MOL0     C36910   1.582  10.427   8.407 -0.3630  0.5136 -0.0620
 1015MOL0     C36911   1.440  10.480   8.420  0.2778  0.5985  0.3457
 1015MOL0     C36912   1.422  10.623   8.456  0.8688  0.2062 -1.0218
 1015MOL0     C36913   1.271  10.656   8.456 -0.1004  0.0094  0.3368
 1015MOL0     O36914   1.239  10.785   8.502  0.4897  1.1187  0.0896
 1015MOL0     C36915   1.113  10.821   8.545  0.1104 -0.1243 -0.7126
 1015MOL0     C36916   1.091  10.949   8.580  0.5615 -0.6120  0.3146
 1015MOL0     C36917   0.967  11.005   8.605 -0.9737  0.1004 -0.1796
 1015MOL0     C36918   0.970  11.159   8.622  0.4298 -0.0487  0.2186
 1015MOL0     C36919   0.853  10.923   8.600 -0.3957  0.7714  0.0046
 1015MOL0     C36920   0.716  10.973   8.605 -0.5253  0.2885 -0.4257
 1015MOL0     O36921   0.631  10.893   8.541  0.1934  0.1795  0.7851
 1015MOL0     C36922   0.496  10.903   8.531  0.8701  0.1110 -0.8370
 1015MOL0     C36923   0.426  11.027   8.556 -0.0147 -0.2694 -0.3789
 1015MOL0     C36924   0.283  11.028   8.555 -0.4063 -0.4190  0.9834
 1015MOL0     C36925   0.212  10.917   8.510 -0.0739  0.1166  0.3447
 1015MOL0     O36926   0.078  10.928   8.503 -0.8446  0.8052 -0.2299
 1015MOL0     C36927   0.003  10.820   8.438 -0.6399  0.5109 -1.2747
 1015MOL0     C36928  -0.142  10.864   8.433  0.2423 -0.3280  0.2844
 1015MOL0     C36929  -0.196  10.857   8.576 -1.5750 -0.2387  0.2419
 1015MOL0     C36930  -0.330  10.920   8.590  0.3423  0.0082 -0.9849
 1015MOL0     C36931  -0.377  10.930   8.743 -0.2626  0.2619  0.4566
 1015MOL0     C36932  -0.528  10.948   8.761 -0.0717  1.0905 -0.6276
 1015MOL0     C36933  -0.575  11.081   8.696 -0.6948  0.2885  0.3117
 1015MOL0     C36934  -0.719  11.095   8.713  0.2826 -0.4039  0.4502
 1015MOL0    Cl36935  -0.735  11.183   8.860  0.2626 -0.1765  0.4123
 1015MOL0     C36936   0.280  10.796   8.485 -0.8525  0.7336  0.1153
 1015MOL0     C36937   0.425  10.789   8.497  0.7433  0.3522 -0.7123
 1015MOL0     O36938   0.690  11.084   8.658 -0.2312 -0.3387 -0.4561
 1015MOL0     C36939   0.879  10.782   8.581  0.4608 -0.1571 -0.2982
 1015MOL0     C36940   1.007  10.733   8.553  0.2688 -0.0203  0.5923
 1015MOL0     N36941   1.483  10.194   8.318 -0.1363 -0.5226  0.0973
 1015MOL0     N36942   1.542  10.093   8.258 -0.6669  0.7937  0.7130
 1015MOL0     C36943   2.804   9.771   7.919  0.3783 -0.2861 -0.0603
 1015MOL0     C36944   2.923   9.798   7.853 -0.4360 -0.2134 -0.1906
 1015MOL0     C36945   3.218   9.950   7.503 -0.4363 -0.4784  0.0675
 1015MOL0     C36946   3.331   9.888   7.568 -0.4127  0.2238  0.3448
 1015MOL0     C36947   3.465   9.923   7.551 -0.0333 -0.6581 -0.1042
 1015MOL0     C36948   3.498  10.005   7.442 -0.9116  0.6822  0.7888
 1015MOL0     O36949   3.630  10.025   7.398  0.3834 -0.6615 -0.9500
 1015MOL0     C36950   3.741   9.947   7.447  0.7394 -0.8905 -0.0613
 1015MOL0     C36951   3.725   9.799   7.395 -1.0481  0.7048 -0.4443
 1015MOL0     C36952   3.820   9.718   7.471 -0.2858 -0.4902  0.6560
 1015MOL0     C36953   3.843   9.600   7.379 -0.4547  0.6276  0.3038
 1015MOL0     C36954   3.968   9.533   7.423  0.0228  0.1384 -0.1971
 1015MOL0     C36955   4.072   9.471   7.450  0.8244  0.2676  0.7312
 1015MOL0     C36956   3.397  10.068   7.367  0.8002 -0.7041  0.5711
 1015MOL0     C36957   3.255  10.042   7.402 -0.7126  0.0066  0.0389
 1015MOL0     H36958   2.790   9.872   7.545 -1.9950  1.1550  0.7611
 1015MOL0     H36959   2.597   9.827   7.652  1.8787 -0.3264 -2.4473
 1015MOL0     H36960   2.415   9.826   7.799 -0.6522 -1.2675 -0.5372
 1015MOL0     H36961   2.465   9.652   7.793 -3.5135  0.5881 -1.9867
 1015MOL0     H36962   2.302   9.625   7.922  3.0499 -1.1359 -2.3625
 1015MOL0     H36963   2.403   9.660   8.064 -0.6003 -1.1945  0.7547
 1015MOL0     H36964   2.341   9.890   8.037  0.5666  0.8437 -1.4352
 1015MOL0     H36965   2.208   9.860   7.925  0.3360  1.6821  0.2780
 1015MOL0     H36966   2.101   9.695   8.099 -2.8869  0.0333  3.5241
 1015MOL0     H36967   2.221   9.749   8.209 -0.0659 -0.4250 -0.2772
 1015MOL0     H36968   2.058   9.910   8.256 -2.2147 -0.4174 -1.0006
 1015MOL0     H36969   2.125   9.997   8.119  0.9465 -0.5260 -1.8222
 1015MOL0     H36970   1.976   9.913   7.954 -3.7256 -1.5568 -1.3484
 1015MOL0     H36971   1.892   9.810   8.075  0.6432 -0.8409  2.3924
 1015MOL0     H36972   1.887  10.114   8.068 -0.2953  0.1119 -2.4480
 1015MOL0     H36973   1.758  10.006   8.013 -2.0018  0.8598  2.1136
 1015MOL0     H36974   1.857  10.008   8.294  0.6689 -0.4157 -0.4339
 1015MOL0     H36975   1.714   9.911   8.227 -0.7864  0.6478  4.7781
 1015MOL0     H36976   1.802  10.280   8.323  0.4495  0.4854 -0.3714
 1015MOL0     H36977   1.633  10.429   8.503  1.2727 -3.4171 -0.6986
 1015MOL0     H36978   1.629  10.495   8.335 -2.8414 -0.1130 -2.4664
 1015MOL0     H36979   1.388  10.420   8.496  2.8647 -0.8061  1.1408
 1015MOL0     H36980   1.395  10.458   8.323  3.0086 -1.4979 -0.5655
 1015MOL0     H36981   1.464  10.693   8.383 -2.8588  2.8900 -0.9074
 1015MOL0     H36982   1.454  10.641   8.559  1.4680 -2.3347 -0.6995
 1015MOL0     H36983   1.234  10.582   8.527  2.6559 -1.1353  0.6825
 1015MOL0     H36984   1.226  10.641   8.357  1.0877  1.1614 -0.4105
 1015MOL0     H36985   1.175  11.014   8.558 -0.1286 -0.5606 -2.6725
 1015MOL0     H36986   1.066  11.207   8.604  1.2586 -1.0090  1.8310
 1015MOL0     H36987   0.895  11.200   8.553  2.2565  0.4324 -1.5750
 1015MOL0     H36988   0.946  11.180   8.727 -1.0645 -0.5942  0.0098
 1015MOL0     H36989   0.470  11.123   8.583 -1.8300 -0.1195  2.4178
 1015MOL0     H36990   0.225  11.119   8.563 -1.3083 -0.5618 -2.2315
 1015MOL0     H36991   0.024  10.801   8.332 -2.2039 -1.0382 -1.3488
 1015MOL0     H36992   0.009  10.733   8.504 -1.4322  1.1125 -0.3796
 1015MOL0     H36993  -0.153  10.966   8.397 -0.1659  0.6662  3.0245
 1015MOL0     H36994  -0.201  10.793   8.374  2.1914 -2.0360  0.2637
 1015MOL0     H36995  -0.130  10.916   8.640 -1.5610  0.8367 -0.7371
 1015MOL0     H36996  -0.188  10.753   8.607  0.2131 -2.2204 -5.5478
 1015MOL0     H36997  -0.328  11.020   8.545 -0.7271  1.0367  1.0636
 1015MOL0     H36998  -0.415  10.867   8.546  0.1778  0.9626 -1.8651
 1015MOL0     H36999  -0.326  11.001   8.809  1.6762 -0.1751 -0.4784
 1015MOL0     H37000  -0.342  10.839   8.793  3.0707  1.0517 -0.1774
 1015MOL0     H37001  -0.578  10.867   8.706 -2.4998  1.0147  1.5083
 1015MOL0     H37002  -0.563  10.936   8.864  0.2874 -0.4138 -0.6591
 1015MOL0     H37003  -0.566  11.090   8.587 -3.0017  1.1339  0.1309
 1015MOL0     H37004  -0.528  11.170   8.740 -2.0605 -0.0937  2.6999
 1015MOL0     H37005  -0.772  10.999   8.711 -0.6703  0.0855 -2.5704
 1015MOL0     H37006  -0.764  11.152   8.631  0.2669  1.5529  1.7575
 1015MOL0     H37007   0.225  10.706   8.458 -1.9309  0.8308  1.8076
 1015MOL0     H37008   0.481  10.699   8.472  0.3049  0.3597 -1.7582
 1015MOL0     H37009   0.794  10.714   8.577  2.2042 -2.5336  0.4087
 1015MOL0     H37010   1.018  10.627   8.535 -0.5688 -0.0023 -0.1347
 1015MOL0     H37011   2.797   9.739   8.023 -1.3356 -1.7742 -0.5797
 1015MOL0     H37012   3.011   9.782   7.914 -0.1488 -4.2522 -1.3780
 1015MOL0     H37013   3.305   9.810   7.639  1.2607 -1.0486 -0.3643
 1015MOL0     H37014   3.539   9.878   7.616 -0.1981 -1.7026 -0.6268
 1015MOL0     H37015   3.823   9.988   7.387 -1.5462 -1.8657 -4.2640
 1015MOL0     H37016   3.748   9.954   7.556  2.6930 -0.7819 -0.1555
 1015MOL0     H37017   3.741   9.810   7.287  0.5309  0.7477 -0.2394
 1015MOL0     H37018   3.627   9.751   7.405 -0.5280 -0.1948  0.6162
 1015MOL0     H37019   3.784   9.685   7.569 -0.3649  0.7182  1.0581
 1015MOL0     H37020   3.913   9.771   7.493 -2.1933  2.4013  2.5284
 1015MOL0     H37021   3.860   9.631   7.275 -2.0605  0.9196  0.0974
 1015MOL0     H37022   3.764   9.525   7.393 -2.3249  2.8941  2.8154
 1015MOL0     H37023   4.165   9.431   7.483  0.6135  0.4599  1.6101
 1015MOL0     H37024   3.413  10.134   7.282 -1.8203 -0.1816  0.3848
 1015MOL0     H37025   3.181  10.100   7.346 -0.9266 -0.5511 -0.2605
 1016MOL0     O37026   0.406   0.357   8.925  0.5092 -0.8415  0.5385
 1016MOL0     C37027   0.502   0.336   8.863 -0.1850  0.2819  0.2620
 1016MOL0     O37028   0.517   0.282   8.742 -0.0528  0.8084 -0.4647
 1016MOL0     C37029   0.416   0.262   8.656  0.0620 -0.1318 -0.5807
 1016MOL0     C37030   0.455   0.220   8.530 -0.4069  0.1882  0.0207
 1016MOL0     C37031   0.374   0.174   8.432  0.6225  0.6066  0.3158
 1016MOL0     C37032   0.236   0.194   8.446  0.1415  0.7649 -1.5329
 1016MOL0     O37033   0.159   0.163   8.339  0.0927 -0.4342  0.6245
 1016MOL0     C37034   0.018   0.163   8.343  0.4267 -0.7113 -0.7400
 1016MOL0     C37035  -0.025   0.036   8.415  0.0420  0.4792  0.0238
 1016MOL0     C37036  -0.179   0.020   8.418  0.2479  0.3602  0.4610
 1016MOL0     C37037  -0.251   0.116   8.505  0.1954  0.0020 -0.6686
 1016MOL0     C37038  -0.403   0.084   8.526  0.3369 -0.8613 -0.1042
 1016MOL0     C37039  -0.488   0.098   8.392  0.2270 -0.0495 -0.7497
 1016MOL0     C37040  -0.635   0.118   8.424 -0.3493 -0.3051 -0.4411
 1016MOL0     C37041  -0.724   0.131   8.295 -0.4386 -0.2558  0.1816
 1016MOL0     N37042  -0.858   0.131   8.341  0.8923 -0.1323 -0.1484
 1016MOL0     C37043  -0.928   0.247   8.380  1.0216 -0.2495  0.0700
 1016MOL0     C37044  -1.057   0.204   8.415  0.7980  0.1674 -0.3227
 1016MOL0     C37045  -1.175   0.288   8.452 -0.5932 -0.3054  0.5723
 1016MOL0     C37046  -1.261   0.331   8.331 -0.3135 -0.5753  0.8778
 1016MOL0     C37047  -1.338   0.459   8.360 -0.4498  0.7023  0.3327
 1016MOL0     C37048  -1.423   0.514   8.234 -0.1169 -0.4002 -0.0630
 1016MOL0     O37049  -1.553   0.453   8.233  0.4931  0.4455 -0.0096
 1016MOL0     C37050  -1.665   0.520   8.267 -0.0349 -0.5413 -0.0225
 1016MOL0     C37051  -1.657   0.648   8.331  0.0039 -0.3719  0.2040
 1016MOL0     C37052  -1.780   0.717   8.369 -1.5960  0.1431  0.4206
 1016MOL0     C37053  -1.748   0.843   8.445 -0.0658 -0.0693 -0.3642
 1016MOL0     C37054  -1.903   0.660   8.348  0.2039  0.1772  0.1448
 1016MOL0     C37055  -2.028   0.729   8.378  0.4724 -0.4284 -0.2395
 1016MOL0     O37056  -2.137   0.666   8.330  0.0016 -0.1738  0.3886
 1016MOL0     C37057  -2.259   0.719   8.313  0.2627  0.5929  0.7582
 1016MOL0     C37058  -2.314   0.831   8.375 -0.0346 -0.3664  0.3537
 1016MOL0     C37059  -2.444   0.881   8.352  0.0384  0.7022 -0.3198
 1016MOL0     C37060  -2.531   0.811   8.267 -0.2965  0.6408 -0.5357
 1016MOL0     O37061  -2.653   0.856   8.242 -0.2232  0.0368  0.4575
 1016MOL0     C37062  -2.748   0.758   8.266  0.3924 -0.4293 -0.1686
 1016MOL0     C37063  -2.881   0.832   8.260  0.9832  0.9991 -0.4069
 1016MOL0     C37064  -3.010   0.754   8.283 -0.3063 -0.9183 -0.4869
 1016MOL0     C37065  -3.122   0.844   8.237 -0.3775  0.2311 -0.3820
 1016MOL0     C37066  -3.259   0.776   8.272 -0.3061  0.2801 -0.2211
 1016MOL0     C37067  -3.378   0.858   8.208  0.3622  0.7003  0.9493
 1016MOL0     C37068  -3.415   0.985   8.288  0.1612  1.4909  0.1392
 1016MOL0     C37069  -3.499   1.082   8.200  0.6175  0.8937 -0.5759
 1016MOL0    Cl37070  -3.638   0.986   8.136  0.2006  0.0927 -0.1348
 1016MOL0     C37071  -2.477   0.695   8.206  0.4305  0.7467 -0.0689
 1016MOL0     C37072  -2.344   0.648   8.226 -0.5244  0.0078 -0.0241
 1016MOL0     O37073  -2.031   0.819   8.456 -0.5662 -0.8191  0.1109
 1016MOL0     C37074  -1.904   0.533   8.279  0.2657 -0.3433  0.1956
 1016MOL0     C37075  -1.788   0.465   8.232 -0.1183 -0.0124  0.2765
 1016MOL0     N37076  -1.058   0.065   8.418  0.3576  0.1647 -0.0622
 1016MOL0     N37077  -0.945   0.020   8.369  0.0818  0.6126  0.0867
 1016MOL0     C37078   0.190   0.245   8.566  0.1869  0.2395  0.4363
 1016MOL0     C37079   0.277   0.279   8.673  0.4999  0.4248  0.0293
 1016MOL0     C37080   0.625   0.368   8.936 -0.6915 -1.0791 -0.1877
 1016MOL0     C37081   0.622   0.465   9.036  0.0002 -0.3880 -0.0395
 1016MOL0     C37082   0.733   0.497   9.113  0.4542  0.5200  0.4210
 1016MOL0     C37083   0.859   0.435   9.090  0.3031 -0.0472  1.0404
 1016MOL0     O37084   0.975   0.445   9.160  0.1123  0.4997  0.3624
 1016MOL0     C37085   0.979   0.535   9.271  0.2705 -0.1576 -0.4532
 1016MOL0     C37086   1.122   0.545   9.325  0.2849  0.3999 -0.3257
 1016MOL0     C37087   1.166   0.401   9.359 -0.5967  0.1288 -0.0399
 1016MOL0     C37088   1.274   0.385   9.471  0.7958 -0.0597 -0.4657
 1016MOL0     C37089   1.262   0.469   9.597  0.4396  0.0799  0.4288
 1016MOL0     C37090   1.234   0.527   9.704  0.0776  0.2548 -0.5429
 1016MOL0     C37091   0.863   0.343   8.985 -0.4567  0.0165 -0.4593
 1016MOL0     C37092   0.751   0.308   8.908 -0.4514 -0.7750  0.6293
 1016MOL0     H37093   0.562   0.202   8.523 -0.3733 -0.2643  1.3199
 1016MOL0     H37094   0.414   0.131   8.341 -0.4458 -2.9086  1.3284
 1016MOL0     H37095  -0.027   0.256   8.378  3.2732  0.8678 -0.9996
 1016MOL0     H37096  -0.026   0.153   8.243 -2.4298 -0.3112  0.4049
 1016MOL0     H37097   0.027  -0.040   8.356 -1.0629 -0.7139  0.5509
 1016MOL0     H37098   0.015   0.032   8.517  3.9671  1.3174 -1.2876
 1016MOL0     H37099  -0.224   0.020   8.318 -2.2580 -0.4876  1.5169
 1016MOL0     H37100  -0.200  -0.082   8.453 -0.5778  0.0510 -0.8713
 1016MOL0     H37101  -0.197   0.129   8.599 -1.0899  0.5863  0.0056
 1016MOL0     H37102  -0.237   0.212   8.455  4.5275  1.5671  2.8670
 1016MOL0     H37103  -0.427  -0.009   8.579 -3.1094  0.5023  0.9836
 1016MOL0     H37104  -0.439   0.170   8.583 -1.8001 -0.6512 -1.6423
 1016MOL0     H37105  -0.449   0.169   8.319  1.6979 -1.0276 -0.9545
 1016MOL0     H37106  -0.477  -0.003   8.351  2.0796 -0.1203 -0.1814
 1016MOL0     H37107  -0.667   0.025   8.472 -2.1713 -0.2827 -1.5545
 1016MOL0     H37108  -0.656   0.204   8.489 -0.3112 -1.0358  0.5618
 1016MOL0     H37109  -0.702   0.041   8.237 -1.9492 -1.0854  0.8398
 1016MOL0     H37110  -0.698   0.224   8.243  1.7219  0.1544  1.8522
 1016MOL0     H37111  -0.900   0.350   8.363 -0.9050 -0.1321 -3.3886
 1016MOL0     H37112  -1.238   0.226   8.517 -1.7084 -0.1976 -0.3775
 1016MOL0     H37113  -1.133   0.372   8.508 -0.1638 -0.8255  1.0391
 1016MOL0     H37114  -1.326   0.249   8.299 -2.0885  0.4280  1.7225
 1016MOL0     H37115  -1.199   0.349   8.243  0.3174 -1.6410  1.0916
 1016MOL0     H37116  -1.267   0.542   8.374 -0.0986  0.8333 -1.9116
 1016MOL0     H37117  -1.398   0.442   8.450 -0.5021 -1.4188 -0.0690
 1016MOL0     H37118  -1.377   0.476   8.142 -0.5750 -0.7389 -0.1576
 1016MOL0     H37119  -1.432   0.623   8.231 -1.1668 -0.4534  0.5177
 1016MOL0     H37120  -1.565   0.693   8.367 -0.5029 -0.9170  2.3072
 1016MOL0     H37121  -1.646   0.880   8.435  0.2034 -0.3814  1.0770
 1016MOL0     H37122  -1.810   0.921   8.399  1.3849  1.4643  0.1854
 1016MOL0     H37123  -1.775   0.829   8.550 -3.1687  0.5997 -0.9480
 1016MOL0     H37124  -2.249   0.893   8.437 -0.9744  0.2879  0.7174
 1016MOL0     H37125  -2.468   0.975   8.401  0.0537 -0.4545  2.0536
 1016MOL0     H37126  -2.762   0.680   8.191 -0.7326 -1.5008  1.1104
 1016MOL0     H37127  -2.741   0.715   8.366  2.6959 -0.5030 -0.3028
 1016MOL0     H37128  -2.885   0.923   8.321 -0.4744  1.0533 -0.5555
 1016MOL0     H37129  -2.897   0.863   8.156 -0.0838 -2.3763 -1.3747
 1016MOL0     H37130  -3.021   0.727   8.389  0.5524  1.1073  0.1741
 1016MOL0     H37131  -3.012   0.660   8.227 -1.6467 -1.5336  0.5163
 1016MOL0     H37132  -3.129   0.938   8.293 -2.2096  0.0590 -0.2732
 1016MOL0     H37133  -3.132   0.857   8.129  0.2923 -2.5463 -0.8442
 1016MOL0     H37134  -3.279   0.769   8.380 -1.6483  1.2171 -0.3795
 1016MOL0     H37135  -3.262   0.679   8.222 -0.4103  0.9951 -1.6558
 1016MOL0     H37136  -3.363   0.868   8.100  0.6023 -1.2642  0.7635
 1016MOL0     H37137  -3.464   0.791   8.207  1.0078 -0.2034 -1.5940
 1016MOL0     H37138  -3.323   1.036   8.318  0.6231  0.6153  0.2477
 1016MOL0     H37139  -3.469   0.954   8.378 -1.2666  3.3235 -0.0347
 1016MOL0     H37140  -3.437   1.111   8.114  1.5559 -1.4870 -0.7760
 1016MOL0     H37141  -3.540   1.170   8.251  1.3594  2.1688 -2.0805
 1016MOL0     H37142  -2.544   0.640   8.140 -2.5424  0.4170  2.9320
 1016MOL0     H37143  -2.307   0.559   8.177  1.7615  0.7791  0.1543
 1016MOL0     H37144  -2.001   0.487   8.265 -0.6850  1.8674 -1.0037
 1016MOL0     H37145  -1.799   0.362   8.198 -1.5438 -0.1770  1.1457
 1016MOL0     H37146   0.083   0.263   8.577  0.2725  1.7406 -0.7563
 1016MOL0     H37147   0.243   0.307   8.772  3.3134 -1.8331  1.8309
 1016MOL0     H37148   0.530   0.517   9.058  0.9227  0.6392  1.5862
 1016MOL0     H37149   0.709   0.554   9.202  0.2778  0.0458  0.6789
 1016MOL0     H37150   0.943   0.634   9.241  1.0863  0.6094  0.9354
 1016MOL0     H37151   0.916   0.497   9.352  1.3435 -0.3774  0.2977
 1016MOL0     H37152   1.116   0.604   9.417 -0.1044  0.1531 -0.1895
 1016MOL0     H37153   1.187   0.595   9.252  0.0273  0.7443 -0.3254
 1016MOL0     H37154   1.203   0.345   9.272 -4.0067 -0.5634 -1.2084
 1016MOL0     H37155   1.082   0.344   9.399 -1.6249  1.1570 -0.6637
 1016MOL0     H37156   1.371   0.405   9.424 -0.0617 -3.3796 -4.2551
 1016MOL0     H37157   1.279   0.280   9.502  1.8203 -0.3355 -1.4911
 1016MOL0     H37158   1.200   0.596   9.780 -0.0428 -2.5219  2.1108
 1016MOL0     H37159   0.954   0.286   8.971 -0.2768 -0.0745  0.9579
 1016MOL0     H37160   0.760   0.224   8.839  0.3009 -0.7115  0.6433
 1017MOL0     O37161   3.693   8.947   7.954  0.2837 -0.4390  0.1879
 1017MOL0     C37162   3.751   8.992   8.055 -0.3685 -0.4771  0.9290
 1017MOL0     O37163   3.688   9.019   8.175 -0.6292  0.2940  0.1250
 1017MOL0     C37164   3.550   9.025   8.190  0.5788 -0.4407 -0.3614
 1017MOL0     C37165   3.452   9.033   8.085  0.6848 -0.3238  0.1721
 1017MOL0     C37166   3.315   9.033   8.107 -0.3001  0.2466 -0.2096
 1017MOL0     C37167   3.265   9.024   8.236  0.6267  0.5979 -0.1310
 1017MOL0     O37168   3.133   9.013   8.265  0.0817 -0.1161 -0.1434
 1017MOL0     C37169   3.043   9.000   8.156  0.4602 -0.0252 -0.0328
 1017MOL0     C37170   2.899   8.987   8.204 -0.3651  0.7697 -0.1915
 1017MOL0     C37171   2.820   9.117   8.186 -0.0801  0.6566 -0.5903
 1017MOL0     C37172   2.682   9.089   8.237  0.7659  0.1143 -0.9279
 1017MOL0     C37173   2.588   9.215   8.232 -0.2872  0.3171 -0.1392
 1017MOL0     C37174   2.451   9.175   8.281 -0.6790  0.1195 -0.0670
 1017MOL0     C37175   2.364   9.298   8.314  0.4346  0.2017 -0.2814
 1017MOL0     C37176   2.220   9.267   8.364  0.3953  0.4431  0.5796
 1017MOL0     N37177   2.148   9.389   8.351 -0.2819 -0.1157 -0.2890
 1017MOL0     C37178   2.109   9.466   8.461  0.3480  0.0300 -0.0018
 1017MOL0     C37179   2.009   9.547   8.408 -0.8380  0.9758 -0.2333
 1017MOL0     C37180   1.939   9.654   8.478 -0.3480  0.6028 -0.7040
 1017MOL0     C37181   1.851   9.600   8.599  0.1003  0.1250  0.5450
 1017MOL0     C37182   1.717   9.553   8.553 -0.0642 -0.6135 -0.4889
 1017MOL0     C37183   1.625   9.509   8.659 -0.5415 -0.5485 -0.5080
 1017MOL0     O37184   1.584   9.632   8.722  0.6185 -0.6737 -0.5830
 1017MOL0     C37185   1.502   9.605   8.828 -0.2009  0.0822 -0.6835
 1017MOL0     C37186   1.369   9.648   8.824 -0.4085  0.0800  0.0602
 1017MOL0     C37187   1.279   9.633   8.936 -0.0896 -0.0957 -0.6192
 1017MOL0     C37188   1.134   9.668   8.908  0.4119 -0.4110  0.4406
 1017MOL0     C37189   1.331   9.577   9.057 -0.6211 -0.6526  0.5943
 1017MOL0     C37190   1.252   9.562   9.184 -0.0892  0.0381 -0.5597
 1017MOL0     O37191   1.289   9.468   9.276  0.5185  0.2657 -1.0820
 1017MOL0     C37192   1.207   9.466   9.384  0.4531  0.5406 -0.2061
 1017MOL0     C37193   1.080   9.403   9.376 -0.8851 -0.3588  0.0109
 1017MOL0     C37194   0.990   9.406   9.481 -0.0114  1.0239 -0.0355
 1017MOL0     C37195   1.035   9.463   9.602  0.1733 -0.3424  0.6258
 1017MOL0     O37196   0.954   9.461   9.706  0.2813  0.1241  0.3238
 1017MOL0     C37197   0.956   9.567   9.802  0.2665  0.6001 -0.1835
 1017MOL0     C37198   0.846   9.552   9.915 -0.1169  0.6442 -0.2698
 1017MOL0     C37199   0.901   9.486  10.042  0.1469  0.1193  0.1146
 1017MOL0     C37200   1.005   9.574  10.123  0.1199 -0.2854 -0.2730
 1017MOL0     C37201   0.949   9.712  10.153 -0.4041  0.3847  0.2900
 1017MOL0     C37202   1.045   9.786  10.235  0.1470 -0.1614 -0.5468
 1017MOL0     C37203   1.009   9.926  10.245  0.6449  0.2045 -0.5084
 1017MOL0     C37204   1.134  10.007  10.264 -1.0183 -1.0604  0.8711
 1017MOL0    Cl37205   1.218   9.949  10.410 -0.1992  0.2991  0.0074
 1017MOL0     C37206   1.163   9.509   9.616  0.8062  0.3894  0.7990
 1017MOL0     C37207   1.245   9.521   9.506 -0.2533  0.6348 -0.3363
 1017MOL0     O37208   1.176   9.652   9.211 -0.0667 -0.0088  0.0414
 1017MOL0     C37209   1.465   9.527   9.053 -0.2773  0.3168 -0.8296
 1017MOL0     C37210   1.548   9.543   8.944  0.2268  0.3998 -0.1263
 1017MOL0     N37211   2.001   9.515   8.268  0.6784 -0.3891 -1.2020
 1017MOL0     N37212   2.072   9.412   8.249 -0.5036  0.3610 -0.3030
 1017MOL0     C37213   3.362   9.014   8.340  0.4321  0.1181  0.0285
 1017MOL0     C37214   3.498   9.014   8.323  0.3248 -0.5307 -0.1004
 1017MOL0     C37215   3.893   9.018   8.053  0.2975 -0.4347  0.2114
 1017MOL0     C37216   3.981   8.957   7.965 -0.1363 -0.6789  0.0680
 1017MOL0     C37217   4.115   8.980   7.972 -0.4969 -0.2703 -0.3439
 1017MOL0     C37218   4.176   9.055   8.072  0.4907  0.0401  0.8125
 1017MOL0     O37219   4.315   9.055   8.079 -0.7912 -0.5671  0.3340
 1017MOL0     C37220   4.366   9.098   8.209  0.0901 -0.0935 -0.0710
 1017MOL0     C37221   4.516   9.143   8.197 -0.3748  0.2771 -0.2561
 1017MOL0     C37222   4.597   9.026   8.131 -0.7011 -0.4049 -0.4985
 1017MOL0     C37223   4.750   9.055   8.137  0.7838 -0.3745  0.4995
 1017MOL0     C37224   4.824   8.932   8.117 -1.0042  0.6632  0.3449
 1017MOL0     C37225   4.862   8.816   8.105  0.7200  0.0040 -0.7074
 1017MOL0     C37226   4.085   9.125   8.158 -0.7305 -0.4623  0.7259
 1017MOL0     C37227   3.946   9.106   8.147  0.0766 -0.3601  0.1191
 1017MOL0     H37228   3.475   9.029   7.979 -0.2483 -2.7319 -0.0023
 1017MOL0     H37229   3.253   9.041   8.019 -2.6848  1.9830  1.4885
 1017MOL0     H37230   3.054   9.092   8.097  2.1465  2.4760  3.7936
 1017MOL0     H37231   3.059   8.906   8.102  0.5892  1.3027 -2.4605
 1017MOL0     H37232   2.840   8.915   8.146 -0.1700 -0.1215  0.6894
 1017MOL0     H37233   2.905   8.959   8.310  0.7917 -0.3416 -0.5200
 1017MOL0     H37234   2.872   9.195   8.242  1.6702  1.6971 -3.4411
 1017MOL0     H37235   2.810   9.148   8.082 -0.5083 -4.3173 -2.3012
 1017MOL0     H37236   2.631   9.018   8.172 -1.8198  2.0068 -1.1506
 1017MOL0     H37237   2.686   9.049   8.339  2.8319  1.2489 -0.5019
 1017MOL0     H37238   2.636   9.285   8.301 -0.4548 -0.9376  1.3034
 1017MOL0     H37239   2.599   9.256   8.131 -1.1224 -1.0259 -0.8220
 1017MOL0     H37240   2.408   9.111   8.204 -0.9670  0.3659 -0.1122
 1017MOL0     H37241   2.462   9.115   8.372  1.4010 -3.7826 -2.6258
 1017MOL0     H37242   2.415   9.350   8.396  1.1148  0.8769 -1.1198
 1017MOL0     H37243   2.368   9.359   8.224 -0.8630 -0.3357 -0.7268
 1017MOL0     H37244   2.228   9.227   8.465  0.6430 -1.2527 -0.0685
 1017MOL0     H37245   2.166   9.199   8.297  1.0054  0.4896  0.0362
 1017MOL0     H37246   2.157   9.466   8.558 -3.3572  0.9521  2.0421
 1017MOL0     H37247   2.024   9.713   8.512 -0.4077  0.6991 -0.7209
 1017MOL0     H37248   1.880   9.722   8.414 -0.9947 -0.1490 -0.9230
 1017MOL0     H37249   1.844   9.669   8.684  1.3180 -0.4055  1.0921
 1017MOL0     H37250   1.905   9.514   8.638  0.3215  0.8582  1.9072
 1017MOL0     H37251   1.737   9.468   8.487  0.9838 -0.5734 -0.2402
 1017MOL0     H37252   1.670   9.633   8.494  0.3468  0.1187  0.1644
 1017MOL0     H37253   1.682   9.442   8.724 -1.9669 -0.3697  0.9649
 1017MOL0     H37254   1.542   9.452   8.617  0.7614 -2.5476 -0.5089
 1017MOL0     H37255   1.341   9.691   8.729  4.2110 -0.1157 -1.6653
 1017MOL0     H37256   1.072   9.578   8.913  0.4030 -0.4475 -0.2033
 1017MOL0     H37257   1.087   9.742   8.975  1.9293  1.2423 -0.2489
 1017MOL0     H37258   1.118   9.709   8.808  0.8991  0.4970  0.7255
 1017MOL0     H37259   1.057   9.347   9.286 -0.5427 -1.5318  0.6280
 1017MOL0     H37260   0.893   9.382   9.439 -0.2060  3.2660 -1.0101
 1017MOL0     H37261   1.056   9.571   9.846  0.1969 -2.3903  0.5169
 1017MOL0     H37262   0.941   9.660   9.747  0.7516  1.0094  0.3605
 1017MOL0     H37263   0.789   9.643   9.938 -1.1004  0.3667 -1.4774
 1017MOL0     H37264   0.774   9.480   9.874  0.5506 -0.9410  1.2120
 1017MOL0     H37265   0.943   9.392  10.007 -0.5921 -1.7311  3.6599
 1017MOL0     H37266   0.819   9.454  10.108  0.7084  1.2602  1.4333
 1017MOL0     H37267   1.026   9.527  10.220 -1.5035 -1.4522 -0.4409
 1017MOL0     H37268   1.097   9.597  10.069  0.2939 -0.4871 -0.0715
 1017MOL0     H37269   0.845   9.701  10.184 -0.0672 -0.8507  1.0506
 1017MOL0     H37270   0.945   9.758  10.053  0.6776 -1.2200 -0.5363
 1017MOL0     H37271   1.046   9.734  10.331 -0.6367  2.1678  0.7931
 1017MOL0     H37272   1.137   9.778  10.177 -0.9672 -1.2090 -2.2776
 1017MOL0     H37273   0.949   9.938  10.335 -0.2964  0.3197 -1.1343
 1017MOL0     H37274   0.945   9.955  10.161 -1.2300  1.1072  1.1483
 1017MOL0     H37275   1.091  10.106  10.276 -0.2147 -0.3761 -1.4212
 1017MOL0     H37276   1.197  10.021  10.175  0.6103  3.6495  2.5072
 1017MOL0     H37277   1.208   9.556   9.703 -1.5760  3.4155  0.5942
 1017MOL0     H37278   1.323   9.596   9.516 -1.7412  2.1807  0.0812
 1017MOL0     H37279   1.526   9.500   9.138  2.2578 -0.1242 -2.6613
 1017MOL0     H37280   1.654   9.521   8.949  1.4242  5.1651  0.1137
 1017MOL0     H37281   3.325   9.006   8.442  0.1608  1.7703  0.0908
 1017MOL0     H37282   3.572   9.013   8.403  0.2287  0.5980  0.0216
 1017MOL0     H37283   3.942   8.898   7.882 -2.8570  0.9213  0.0679
 1017MOL0     H37284   4.182   8.927   7.904  0.5176 -0.3284  0.6640
 1017MOL0     H37285   4.314   9.182   8.256  1.0238 -1.0285  2.8283
 1017MOL0     H37286   4.362   9.018   8.284 -1.0499 -0.2442 -0.2767
 1017MOL0     H37287   4.554   9.175   8.295 -0.7271  0.9050 -0.3203
 1017MOL0     H37288   4.536   9.225   8.127  0.0345  1.7272  1.4814
 1017MOL0     H37289   4.572   9.016   8.025  1.8334  0.4914 -1.2573
 1017MOL0     H37290   4.577   8.935   8.188 -1.8418 -0.6995 -1.3213
 1017MOL0     H37291   4.769   9.098   8.235 -3.5162 -3.6879  3.1432
 1017MOL0     H37292   4.778   9.123   8.056 -2.0521  0.7293  0.3198
 1017MOL0     H37293   4.885   8.712   8.090 -0.5934 -0.5481  0.8732
 1017MOL0     H37294   4.124   9.195   8.232  1.9973  0.1755 -1.1501
 1017MOL0     H37295   3.878   9.163   8.211 -0.4859  1.7321 -2.1807
 1018MOL0     O37296   9.421   1.949   7.451  0.5088 -0.2052 -0.2248
 1018MOL0     C37297   9.524   2.002   7.416 -0.3343  0.7290  0.4175
 1018MOL0     O37298   9.536   2.089   7.310 -0.7796  0.5534  0.4989
 1018MOL0     C37299   9.429   2.128   7.231  0.6229  0.1073  0.0657
 1018MOL0     C37300   9.460   2.233   7.150  0.7888 -0.3565 -0.4489
 1018MOL0     C37301   9.369   2.303   7.063  0.3668 -0.4061 -0.2353
 1018MOL0     C37302   9.240   2.263   7.049  0.5867 -0.0143  0.9474
 1018MOL0     O37303   9.151   2.327   6.968  0.3167 -0.3379  0.2644
 1018MOL0     C37304   9.008   2.290   6.969 -0.4901  0.9244  0.8762
 1018MOL0     C37305   8.929   2.381   6.875 -0.7152  0.5550 -0.0629
 1018MOL0     C37306   8.787   2.331   6.861  0.6236  0.0008  0.3385
 1018MOL0     C37307   8.700   2.444   6.798  0.1346  1.0881  0.1104
 1018MOL0     C37308   8.549   2.406   6.765 -0.6563  0.4169 -0.2380
 1018MOL0     C37309   8.460   2.387   6.891  0.8077  0.8134  0.2798
 1018MOL0     C37310   8.315   2.369   6.852 -0.2351  0.8031 -0.0711
 1018MOL0     C37311   8.295   2.253   6.752  0.3224 -0.3523  0.6375
 1018MOL0     N37312   8.158   2.225   6.714 -0.0660  0.3208 -0.1579
 1018MOL0     C37313   8.080   2.125   6.775  0.0383 -0.1927  0.4962
 1018MOL0     C37314   7.985   2.101   6.680 -0.1804 -0.5924  0.2040
 1018MOL0     C37315   7.892   1.984   6.673  0.0825  0.1107  0.2544
 1018MOL0     C37316   7.746   2.028   6.691 -0.4371 -0.3812 -0.5795
 1018MOL0     C37317   7.653   1.934   6.759 -0.5245 -0.4170 -0.9730
 1018MOL0     C37318   7.594   1.841   6.666  0.6477  0.3099  0.5447
 1018MOL0     O37319   7.527   1.903   6.551 -0.4114 -0.7864  0.3752
 1018MOL0     C37320   7.404   1.970   6.555 -0.2523 -0.3367  0.4498
 1018MOL0     C37321   7.357   2.011   6.432 -0.2289  0.2305 -0.0541
 1018MOL0     C37322   7.227   2.072   6.439 -0.3001 -0.1301  0.6422
 1018MOL0     C37323   7.178   2.120   6.301  0.3027 -0.7446  0.4174
 1018MOL0     C37324   7.147   2.088   6.555 -0.3949  0.4534 -0.2476
 1018MOL0     C37325   7.010   2.152   6.571 -0.7142  0.9013 -0.0271
 1018MOL0     O37326   6.939   2.114   6.684 -0.2895  0.8539  0.0280
 1018MOL0     C37327   6.802   2.108   6.667 -0.0236 -0.1856  0.5527
 1018MOL0     C37328   6.758   1.988   6.618  0.2086 -0.4273 -0.0942
 1018MOL0     C37329   6.621   1.976   6.583 -0.0762 -0.0320 -0.6136
 1018MOL0     C37330   6.526   2.080   6.603  0.0067  0.8635 -0.4073
 1018MOL0     O37331   6.392   2.063   6.577  0.4148  0.6311 -0.2323
 1018MOL0     C37332   6.367   2.021   6.438  0.2888 -0.6566  0.7064
 1018MOL0     C37333   6.350   2.155   6.361  0.3891  0.7167 -0.2151
 1018MOL0     C37334   6.325   2.130   6.210  0.6823 -0.2094  0.0605
 1018MOL0     C37335   6.197   2.036   6.168 -0.9190  0.8335 -0.3640
 1018MOL0     C37336   6.068   2.119   6.196  0.0779  0.1678 -0.1862
 1018MOL0     C37337   5.947   2.061   6.113 -0.3558  0.1529  0.2115
 1018MOL0     C37338   5.968   2.095   5.962 -0.3785 -0.1386  0.9975
 1018MOL0     C37339   5.833   2.128   5.894 -0.4905  0.1009  0.4905
 1018MOL0    Cl37340   5.873   2.137   5.719 -0.1308 -0.0533 -0.0433
 1018MOL0     C37341   6.572   2.198   6.662  0.2958  0.8517 -0.1235
 1018MOL0     C37342   6.709   2.214   6.689  0.6674 -0.1613 -1.1658
 1018MOL0     O37343   6.954   2.201   6.472  0.0880  0.1778 -1.2580
 1018MOL0     C37344   7.210   2.054   6.672 -0.0705  0.5026  1.1446
 1018MOL0     C37345   7.336   1.990   6.677 -0.7191  0.2563  1.0468
 1018MOL0     N37346   7.994   2.183   6.573 -0.1093  0.2525  0.3210
 1018MOL0     N37347   8.102   2.251   6.592  0.7241  0.1779  0.1197
 1018MOL0     C37348   9.208   2.142   7.120 -0.4834  0.0694 -0.4837
 1018MOL0     C37349   9.298   2.084   7.215 -0.4288  0.4699 -0.2197
 1018MOL0     C37350   9.646   1.975   7.499 -0.3125 -0.4983 -0.4980
 1018MOL0     C37351   9.640   1.945   7.636  0.2451  0.0450 -0.5347
 1018MOL0     C37352   9.746   1.933   7.718  0.1183 -0.1459 -0.5949
 1018MOL0     C37353   9.876   1.944   7.663  0.1755 -0.5861  0.6341
 1018MOL0     O37354   9.994   1.923   7.729 -0.2866 -0.4669  0.0719
 1018MOL0     C37355  10.035   1.992   7.849  0.5370 -0.0744  0.4074
 1018MOL0     C37356  10.143   2.097   7.842  0.0798  1.0041 -0.0849
 1018MOL0     C37357  10.131   2.213   7.739 -0.4784  0.0458 -0.2794
 1018MOL0     C37358  10.048   2.332   7.789 -0.4943 -0.2142 -0.5819
 1018MOL0     C37359   9.909   2.307   7.835  0.2478 -0.0882  0.2012
 1018MOL0     C37360   9.797   2.284   7.872  0.4672 -0.6678  0.1990
 1018MOL0     C37361   9.882   1.965   7.522  0.9233 -0.3981 -0.1205
 1018MOL0     C37362   9.769   1.986   7.442 -0.6356  0.2049  0.1513
 1018MOL0     H37363   9.555   2.286   7.156  0.8218 -0.0122 -2.9343
 1018MOL0     H37364   9.413   2.384   7.005  0.8503 -0.2914  0.2827
 1018MOL0     H37365   8.996   2.188   6.934 -2.7113  1.4126  0.0391
 1018MOL0     H37366   8.977   2.307   7.073 -0.2003  0.4560  1.0398
 1018MOL0     H37367   8.928   2.475   6.932 -0.4446 -1.0395  2.7395
 1018MOL0     H37368   8.974   2.395   6.776  1.1935 -0.9610  0.5327
 1018MOL0     H37369   8.785   2.244   6.795  1.4540  0.4859 -0.3452
 1018MOL0     H37370   8.744   2.323   6.962 -1.3399  1.3415 -0.3241
 1018MOL0     H37371   8.694   2.529   6.866  0.3548  2.3630 -1.3790
 1018MOL0     H37372   8.744   2.479   6.703 -1.0472  0.6830 -0.6064
 1018MOL0     H37373   8.502   2.478   6.698  1.4962  0.0729 -2.2296
 1018MOL0     H37374   8.549   2.306   6.720  0.8479  0.8775 -1.3358
 1018MOL0     H37375   8.488   2.294   6.942  2.5125 -0.8068 -3.2651
 1018MOL0     H37376   8.474   2.468   6.963  1.8281  0.1474  0.8591
 1018MOL0     H37377   8.268   2.341   6.947 -0.3732 -1.7146 -0.8046
 1018MOL0     H37378   8.276   2.465   6.819 -1.1362  0.5191  0.1270
 1018MOL0     H37379   8.344   2.166   6.796  1.3906 -0.9283 -1.5314
 1018MOL0     H37380   8.345   2.278   6.658  1.4547  3.2863  2.0173
 1018MOL0     H37381   8.099   2.068   6.866  2.1144  1.0067  0.8685
 1018MOL0     H37382   7.886   1.940   6.574 -0.7532 -3.0081  1.5771
 1018MOL0     H37383   7.919   1.905   6.743  1.4847 -0.8273 -1.2919
 1018MOL0     H37384   7.702   2.071   6.601  1.7818  2.5494 -0.4151
 1018MOL0     H37385   7.741   2.118   6.754 -0.4456 -0.0896 -0.9924
 1018MOL0     H37386   7.573   1.992   6.806 -2.1220 -2.6124 -0.8289
 1018MOL0     H37387   7.708   1.881   6.837  0.4338 -0.1123 -1.4164
 1018MOL0     H37388   7.526   1.771   6.715  0.7794 -0.7629 -0.7518
 1018MOL0     H37389   7.672   1.772   6.632  1.6233  1.2165  0.8428
 1018MOL0     H37390   7.403   1.998   6.335  2.0006  4.2490  0.2494
 1018MOL0     H37391   7.235   2.071   6.222 -1.5835  1.2961 -2.4017
 1018MOL0     H37392   7.070   2.113   6.285  0.1668 -1.2210  1.4234
 1018MOL0     H37393   7.215   2.222   6.292  2.0806 -1.4990 -1.8482
 1018MOL0     H37394   6.838   1.919   6.591  1.0164  1.2955 -2.5469
 1018MOL0     H37395   6.580   1.880   6.554  1.6210 -1.4960  1.4386
 1018MOL0     H37396   6.445   1.956   6.397  1.9974  1.3943  0.5414
 1018MOL0     H37397   6.270   1.971   6.428 -0.9505  1.6645  0.5189
 1018MOL0     H37398   6.271   2.215   6.406 -2.4373 -1.9673 -1.2916
 1018MOL0     H37399   6.448   2.203   6.374  2.6291 -3.4724  0.2558
 1018MOL0     H37400   6.414   2.079   6.172 -0.2592 -1.0414 -1.1037
 1018MOL0     H37401   6.315   2.227   6.161 -1.6522  0.1457  1.1051
 1018MOL0     H37402   6.198   2.004   6.064 -2.4435 -1.1685  0.1570
 1018MOL0     H37403   6.194   1.945   6.229 -4.6771  1.1972  0.2901
 1018MOL0     H37404   6.087   2.224   6.169  0.2352 -0.0283 -0.8545
 1018MOL0     H37405   6.037   2.112   6.301  0.2461 -2.5836 -0.2489
 1018MOL0     H37406   5.928   1.954   6.125 -0.4656  0.0978 -0.4386
 1018MOL0     H37407   5.858   2.116   6.146  0.2966  2.8097 -2.0549
 1018MOL0     H37408   6.021   2.015   5.910 -1.6816 -2.2149  2.6963
 1018MOL0     H37409   6.031   2.184   5.956 -2.3220  1.2878  0.6893
 1018MOL0     H37410   5.791   2.225   5.925 -0.0583  0.1902  0.7988
 1018MOL0     H37411   5.765   2.046   5.918 -0.0528 -0.7496 -1.0652
 1018MOL0     H37412   6.505   2.283   6.663  1.1687  1.6366 -2.3780
 1018MOL0     H37413   6.747   2.313   6.712 -0.9991  0.3584 -0.4839
 1018MOL0     H37414   7.156   2.066   6.766 -0.4167  0.7584  0.9130
 1018MOL0     H37415   7.378   1.943   6.765 -1.0449 -0.1049  1.0105
 1018MOL0     H37416   9.109   2.098   7.120 -0.2823 -0.3825 -0.1443
 1018MOL0     H37417   9.260   2.001   7.273  1.0099  0.6226  0.9940
 1018MOL0     H37418   9.543   1.938   7.684 -0.0038  1.6220 -0.7479
 1018MOL0     H37419   9.751   1.919   7.826 -0.3815  2.0862 -0.2283
 1018MOL0     H37420   9.940   2.023   7.894  0.1179 -0.9684  0.1751
 1018MOL0     H37421  10.071   1.917   7.921 -3.0627 -0.7815  1.6894
 1018MOL0     H37422  10.234   2.040   7.820  0.5580  0.5946  2.5720
 1018MOL0     H37423  10.151   2.135   7.944  0.3470 -1.2414  0.7892
 1018MOL0     H37424  10.091   2.179   7.643 -1.2346  0.2235 -0.0377
 1018MOL0     H37425  10.232   2.251   7.720  0.5154 -1.2068  2.0877
 1018MOL0     H37426  10.037   2.409   7.712  0.8457  0.7495  0.1539
 1018MOL0     H37427  10.088   2.385   7.876 -1.9999  0.3517 -0.1924
 1018MOL0     H37428   9.695   2.254   7.884 -0.3630  1.9209  0.2443
 1018MOL0     H37429   9.978   1.967   7.470 -0.2630 -1.4711 -2.5230
 1018MOL0     H37430   9.768   2.001   7.335 -0.8964 -0.8436 -0.0074
 1019MOL0     O37431   0.893   3.665   7.666 -0.9510  0.2780  0.3854
 1019MOL0     C37432   0.886   3.750   7.578 -0.0488  1.0712  0.1521
 1019MOL0     O37433   0.766   3.802   7.535  0.5287 -0.2054 -0.3491
 1019MOL0     C37434   0.652   3.742   7.577  0.0887  0.6905  0.1308
 1019MOL0     C37435   0.558   3.807   7.644 -0.5222 -0.2130 -0.0087
 1019MOL0     C37436   0.433   3.747   7.680 -0.1092 -0.4757  0.0115
 1019MOL0     C37437   0.414   3.617   7.651  0.2530  0.1212  0.3945
 1019MOL0     O37438   0.284   3.573   7.684  0.1124  0.6656 -0.9873
 1019MOL0     C37439   0.234   3.449   7.629 -0.1239 -1.1751  0.3471
 1019MOL0     C37440   0.198   3.471   7.480  1.0743 -0.0102  0.3945
 1019MOL0     C37441   0.083   3.562   7.464  0.1562 -0.3325  0.6266
 1019MOL0     C37442   0.056   3.582   7.312 -0.3406  0.0250  0.2514
 1019MOL0     C37443  -0.073   3.651   7.273  0.2511  0.1957 -0.5993
 1019MOL0     C37444  -0.081   3.669   7.124  0.7011 -0.2275  0.9370
 1019MOL0     C37445  -0.232   3.679   7.083  0.4274  0.0978 -0.0373
 1019MOL0     C37446  -0.313   3.798   7.145 -0.7314 -0.3251  0.1674
 1019MOL0     N37447  -0.444   3.815   7.086 -0.6715 -0.0259 -0.5382
 1019MOL0     C37448  -0.498   3.927   7.028 -0.6326  0.9162  0.7299
 1019MOL0     C37449  -0.605   3.892   6.973  0.5458 -0.1214  0.9636
 1019MOL0     C37450  -0.692   3.976   6.888 -0.0554  0.6827 -1.4923
 1019MOL0     C37451  -0.839   3.957   6.911 -0.0947  0.1888  0.4936
 1019MOL0     C37452  -0.931   4.062   6.848 -0.8491  0.0260  0.0275
 1019MOL0     C37453  -1.073   4.077   6.904 -0.3660 -0.4249  0.4553
 1019MOL0     O37454  -1.144   3.951   6.905 -0.7291  0.0712  0.9583
 1019MOL0     C37455  -1.273   3.951   6.861  0.1892  0.3127  0.0686
 1019MOL0     C37456  -1.307   3.840   6.783  0.2755  0.2758 -0.0767
 1019MOL0     C37457  -1.435   3.825   6.732  0.2960  0.3568 -0.0662
 1019MOL0     C37458  -1.447   3.713   6.631 -0.1294  0.4598 -0.5525
 1019MOL0     C37459  -1.540   3.921   6.769  1.2189 -0.0848  0.7973
 1019MOL0     C37460  -1.683   3.923   6.723 -0.3737  0.3252  0.7985
 1019MOL0     O37461  -1.767   4.027   6.757  0.3314 -0.0294  0.3638
 1019MOL0     C37462  -1.908   4.018   6.728 -0.4991 -0.6013  0.8319
 1019MOL0     C37463  -1.951   4.015   6.592 -0.1187 -0.6456  0.4089
 1019MOL0     C37464  -2.086   4.026   6.559  0.9967 -0.2768  0.3064
 1019MOL0     C37465  -2.192   4.044   6.658 -1.3420  0.0765  0.7297
 1019MOL0     O37466  -2.323   4.066   6.631 -0.4710  0.3562  0.0543
 1019MOL0     C37467  -2.388   3.990   6.528 -0.4078 -0.0213 -0.0879
 1019MOL0     C37468  -2.510   4.075   6.490  0.2678  0.4073 -0.3870
 1019MOL0     C37469  -2.590   4.003   6.382 -0.6120 -0.6102 -0.0863
 1019MOL0     C37470  -2.736   4.043   6.399 -0.4742  0.2158  0.1224
 1019MOL0     C37471  -2.827   3.969   6.309  0.1495 -0.0533  0.5861
 1019MOL0     C37472  -2.868   3.826   6.365 -0.3015 -0.3638 -0.5499
 1019MOL0     C37473  -2.968   3.770   6.265  0.6333 -0.1836 -0.3322
 1019MOL0     C37474  -3.004   3.630   6.319  0.2142 -0.0719 -0.2420
 1019MOL0    Cl37475  -2.857   3.527   6.346 -0.3965  0.1284 -0.3564
 1019MOL0     C37476  -2.146   4.041   6.786  0.0132 -1.0702 -0.0658
 1019MOL0     C37477  -2.008   4.030   6.821 -0.7418  0.3382 -0.0234
 1019MOL0     O37478  -1.709   3.832   6.642  0.1053 -0.7690 -0.3137
 1019MOL0     C37479  -1.499   4.028   6.850 -0.1805  0.4418 -0.5130
 1019MOL0     C37480  -1.371   4.044   6.894 -0.3926 -1.1811 -0.3579
 1019MOL0     N37481  -0.638   3.762   7.006 -0.2966  0.0417 -0.2297
 1019MOL0     N37482  -0.539   3.716   7.069 -0.3555  0.3047  0.0548
 1019MOL0     C37483   0.509   3.540   7.586 -0.2782 -0.4019 -0.0549
 1019MOL0     C37484   0.620   3.607   7.542  0.3261  0.0078  0.7772
 1019MOL0     C37485   1.016   3.798   7.519 -0.0078  0.1489 -0.7320
 1019MOL0     C37486   1.032   3.870   7.397  0.2026  1.0174 -0.8537
 1019MOL0     C37487   1.153   3.890   7.343 -0.6873  0.9071  0.5222
 1019MOL0     C37488   1.274   3.851   7.399 -0.3651 -0.3917 -0.4426
 1019MOL0     O37489   1.392   3.871   7.327  0.1406 -0.6607 -0.0582
 1019MOL0     C37490   1.510   3.801   7.376  0.0799 -0.2044 -0.2001
 1019MOL0     C37491   1.621   3.812   7.268  0.1000 -0.2082 -0.5590
 1019MOL0     C37492   1.742   3.729   7.313 -0.1870 -0.6705  0.3384
 1019MOL0     C37493   1.825   3.801   7.414 -0.0718  0.2197 -0.3109
 1019MOL0     C37494   1.968   3.759   7.406  0.2244 -0.4557 -0.6592
 1019MOL0     C37495   2.083   3.727   7.411 -1.0242 -0.2933  0.5485
 1019MOL0     C37496   1.265   3.796   7.529  0.1993  0.5047 -0.0489
 1019MOL0     C37497   1.139   3.770   7.586  0.1447 -0.1015 -1.0399
 1019MOL0     H37498   0.582   3.912   7.655  2.4184 -1.0690  3.6379
 1019MOL0     H37499   0.356   3.795   7.740  0.9132  2.3155 -0.7704
 1019MOL0     H37500   0.311   3.371   7.631  0.0224 -1.0226  0.8599
 1019MOL0     H37501   0.154   3.412   7.693 -0.6083 -0.2546  0.2963
 1019MOL0     H37502   0.288   3.508   7.430  1.2002 -0.1745  0.4998
 1019MOL0     H37503   0.169   3.375   7.437 -0.0566  0.1507  0.7860
 1019MOL0     H37504  -0.009   3.536   7.518 -1.3821  0.2590 -1.5285
 1019MOL0     H37505   0.115   3.662   7.494 -0.1858  1.0770 -3.1715
 1019MOL0     H37506   0.138   3.652   7.290 -0.1073  0.3097  1.9268
 1019MOL0     H37507   0.065   3.487   7.259  0.0959 -0.0324  0.4210
 1019MOL0     H37508  -0.156   3.587   7.303  1.9114 -1.6681  0.2270
 1019MOL0     H37509  -0.084   3.748   7.324 -2.2680 -0.8259  0.9619
 1019MOL0     H37510  -0.029   3.761   7.095  1.3527 -0.7836  0.3015
 1019MOL0     H37511  -0.032   3.588   7.069  1.0712  0.9813 -0.6106
 1019MOL0     H37512  -0.228   3.691   6.974  2.1555  0.4300  0.0393
 1019MOL0     H37513  -0.283   3.586   7.110  0.7854  0.5750  2.5862
 1019MOL0     H37514  -0.261   3.892   7.127 -2.9629  0.7666 -1.0380
 1019MOL0     H37515  -0.322   3.787   7.254 -4.2412 -3.8012 -0.2395
 1019MOL0     H37516  -0.442   4.020   7.026  2.3450 -0.7331  0.7691
 1019MOL0     H37517  -0.668   4.080   6.909 -3.3764  1.4298 -0.8250
 1019MOL0     H37518  -0.660   3.957   6.785  1.0129  0.1411 -1.0808
 1019MOL0     H37519  -0.863   3.950   7.017  0.1674 -1.1931  0.4804
 1019MOL0     H37520  -0.866   3.863   6.861 -4.4837  0.1766  2.4057
 1019MOL0     H37521  -0.936   4.049   6.740 -1.6805  0.5743 -0.0063
 1019MOL0     H37522  -0.884   4.159   6.866 -1.8437  0.3349  1.0703
 1019MOL0     H37523  -1.127   4.156   6.852 -1.8059 -0.7173  1.4656
 1019MOL0     H37524  -1.066   4.120   7.004 -2.5117  1.7679 -0.2462
 1019MOL0     H37525  -1.227   3.772   6.752 -1.5823 -2.1544  0.1282
 1019MOL0     H37526  -1.529   3.647   6.662  1.2483 -0.3498  1.5458
 1019MOL0     H37527  -1.462   3.754   6.531  0.8593  1.6659 -0.2321
 1019MOL0     H37528  -1.355   3.655   6.623 -0.3841 -0.1603  0.7728
 1019MOL0     H37529  -1.871   3.998   6.520  1.5942  2.8222  1.2600
 1019MOL0     H37530  -2.111   4.008   6.455  1.1831 -3.4230  0.7124
 1019MOL0     H37531  -2.321   3.970   6.444  0.3751  3.0078 -0.3200
 1019MOL0     H37532  -2.431   3.900   6.572 -0.2267 -0.8941 -1.6252
 1019MOL0     H37533  -2.566   4.103   6.580 -0.3093  1.1103 -0.9459
 1019MOL0     H37534  -2.479   4.170   6.445  0.2726 -0.4288 -2.2271
 1019MOL0     H37535  -2.567   3.897   6.400  0.9688 -0.1471  0.7748
 1019MOL0     H37536  -2.556   4.036   6.284 -0.5536  1.0058  0.4498
 1019MOL0     H37537  -2.768   4.026   6.502 -1.3602 -0.1229 -0.1985
 1019MOL0     H37538  -2.745   4.151   6.382  1.0547  0.2132 -0.8687
 1019MOL0     H37539  -2.786   3.958   6.208 -0.9475  0.1336  0.1062
 1019MOL0     H37540  -2.911   4.036   6.292 -0.7274 -1.0906  0.7152
 1019MOL0     H37541  -2.779   3.762   6.370  1.6540  2.2534  0.9096
 1019MOL0     H37542  -2.914   3.836   6.464  0.6803  0.4931 -0.1594
 1019MOL0     H37543  -2.920   3.775   6.166 -2.1760  0.4328 -1.7554
 1019MOL0     H37544  -3.058   3.831   6.255  1.1086  0.7026  0.5808
 1019MOL0     H37545  -3.072   3.586   6.246 -1.4993  1.5514  0.2758
 1019MOL0     H37546  -3.059   3.633   6.414 -1.6999  0.7356 -1.2989
 1019MOL0     H37547  -2.218   4.055   6.866 -3.3523 -0.4592 -2.9460
 1019MOL0     H37548  -1.965   4.029   6.921  0.4770 -2.3823 -0.5006
 1019MOL0     H37549  -1.565   4.107   6.885 -0.7707  1.1872 -3.1226
 1019MOL0     H37550  -1.351   4.129   6.959 -0.8482 -0.7608 -0.7566
 1019MOL0     H37551   0.498   3.436   7.557 -1.8152  0.2677 -2.2186
 1019MOL0     H37552   0.696   3.563   7.478  2.9872  4.5375  0.3220
 1019MOL0     H37553   0.947   3.903   7.338  0.6568  2.5656 -0.6713
 1019MOL0     H37554   1.145   3.943   7.249 -3.1359  0.5489  0.4595
 1019MOL0     H37555   1.549   3.846   7.467 -0.8762 -0.6914  0.4638
 1019MOL0     H37556   1.491   3.694   7.392  3.3705 -1.0265 -1.0296
 1019MOL0     H37557   1.636   3.919   7.248 -2.4118  0.6589  1.6352
 1019MOL0     H37558   1.585   3.767   7.175  0.6215 -2.7130  0.3801
 1019MOL0     H37559   1.806   3.718   7.225  0.6463  0.2239  0.8100
 1019MOL0     H37560   1.712   3.629   7.347  0.9612 -1.1559 -0.0149
 1019MOL0     H37561   1.793   3.774   7.515  0.3069  0.5672 -0.0944
 1019MOL0     H37562   1.825   3.908   7.394  0.0617  0.0387 -1.3291
 1019MOL0     H37563   2.184   3.691   7.415 -0.8949 -1.3638 -4.7607
 1019MOL0     H37564   1.351   3.784   7.593 -0.8981 -0.5443  1.2840
 1019MOL0     H37565   1.132   3.739   7.690 -2.0319 -1.6649 -1.5733
 1020MOL0     O37566  10.228  10.204   2.414  0.2169 -0.7854 -0.0988
 1020MOL0     C37567  10.334  10.164   2.364  0.5196 -0.4409 -0.5232
 1020MOL0     O37568  10.363  10.040   2.333  0.2703  0.3446 -0.2024
 1020MOL0     C37569  10.265   9.941   2.353 -0.9966 -0.3725  0.7540
 1020MOL0     C37570  10.196   9.887   2.242 -0.0153 -0.0471  0.1825
 1020MOL0     C37571  10.115   9.774   2.249 -0.0207  0.0604 -0.5175
 1020MOL0     C37572  10.079   9.728   2.373  0.7707 -0.2027 -0.5751
 1020MOL0     O37573   9.998   9.623   2.387 -0.2060  0.0783  0.0999
 1020MOL0     C37574   9.987   9.528   2.277 -0.1272 -0.1250 -0.3340
 1020MOL0     C37575   9.898   9.416   2.321 -0.2151 -0.5752  0.4132
 1020MOL0     C37576   9.765   9.469   2.348 -0.2295  0.1164 -0.4583
 1020MOL0     C37577   9.690   9.514   2.227  0.9020  0.2685  0.1199
 1020MOL0     C37578   9.553   9.567   2.265 -0.0481 -0.4650  0.3023
 1020MOL0     C37579   9.460   9.444   2.285 -0.3098  0.6303 -0.0553
 1020MOL0     C37580   9.329   9.499   2.344  0.6655 -0.6330  0.0422
 1020MOL0     C37581   9.225   9.387   2.349 -0.0544  0.2979 -0.6141
 1020MOL0     N37582   9.107   9.424   2.426 -0.8056 -0.0459  0.1841
 1020MOL0     C37583   9.002   9.503   2.388 -0.8825 -0.2863  0.3538
 1020MOL0     C37584   8.920   9.507   2.496 -1.5337 -0.0906  0.1981
 1020MOL0     C37585   8.803   9.598   2.502 -0.0004  0.3916 -0.5780
 1020MOL0     C37586   8.676   9.520   2.514 -0.0466 -0.4455  0.2693
 1020MOL0     C37587   8.666   9.444   2.642  0.1391  0.6097  0.6211
 1020MOL0     C37588   8.527   9.384   2.669 -0.0533  0.6272  0.3337
 1020MOL0     O37589   8.442   9.492   2.703 -0.1297 -0.5330  0.2170
 1020MOL0     C37590   8.305   9.484   2.704  0.1302 -0.0543  0.2388
 1020MOL0     C37591   8.236   9.379   2.648  0.2006  0.2867  0.8523
 1020MOL0     C37592   8.096   9.373   2.657 -0.1116 -0.1994 -0.9708
 1020MOL0     C37593   8.027   9.250   2.604 -0.1964  0.0616  0.0377
 1020MOL0     C37594   8.019   9.478   2.719  0.0671  0.3285 -0.3345
 1020MOL0     C37595   7.879   9.478   2.739 -0.3245  0.1297  0.0657
 1020MOL0     O37596   7.816   9.386   2.668 -0.0093  0.3997 -0.3815
 1020MOL0     C37597   7.684   9.356   2.689 -0.7737 -0.9371  0.6639
 1020MOL0     C37598   7.660   9.222   2.684  0.8112 -0.3705  0.3183
 1020MOL0     C37599   7.528   9.177   2.696 -0.6633 -0.3013 -0.6674
 1020MOL0     C37600   7.422   9.267   2.735 -0.0554  0.3483  1.3366
 1020MOL0     O37601   7.297   9.227   2.754  0.1316  0.5488 -0.0947
 1020MOL0     C37602   7.232   9.287   2.863  0.0349 -0.2891 -0.3026
 1020MOL0     C37603   7.139   9.199   2.938 -0.5241  0.2863  0.3745
 1020MOL0     C37604   7.062   9.266   3.051  0.2006 -0.5915  0.1007
 1020MOL0     C37605   6.982   9.151   3.120  0.1693 -0.2224  0.2193
 1020MOL0     C37606   6.865   9.187   3.218  1.2340 -0.9579  0.9569
 1020MOL0     C37607   6.753   9.243   3.130 -0.3465 -0.1519  0.1468
 1020MOL0     C37608   6.614   9.249   3.199 -0.0013 -0.2923 -0.3374
 1020MOL0     C37609   6.557   9.106   3.227  0.5393 -0.6915 -0.1489
 1020MOL0    Cl37610   6.376   9.115   3.240 -0.0889 -0.1330 -0.2558
 1020MOL0     C37611   7.444   9.407   2.738  0.4369  0.5085 -0.0963
 1020MOL0     C37612   7.581   9.449   2.720  0.1158 -0.4238 -0.0289
 1020MOL0     O37613   7.829   9.573   2.804  1.0545 -0.1331  0.1340
 1020MOL0     C37614   8.093   9.588   2.763 -1.1031 -1.3040 -0.2661
 1020MOL0     C37615   8.233   9.590   2.758 -0.0077 -1.2886  0.1181
 1020MOL0     N37616   8.975   9.431   2.596  0.2883  0.6294 -0.2094
 1020MOL0     N37617   9.089   9.390   2.557 -0.2795  0.5029 -0.1580
 1020MOL0     C37618  10.140   9.785   2.489 -0.5688  0.1257  0.8100
 1020MOL0     C37619  10.232   9.897   2.477  0.1090  0.5670  0.7498
 1020MOL0     C37620  10.435  10.263   2.331  0.0266  0.2660 -0.4637
 1020MOL0     C37621  10.423  10.395   2.365  0.0611 -0.4291  0.1831
 1020MOL0     C37622  10.512  10.498   2.337  0.4375  0.7322  1.0028
 1020MOL0     C37623  10.630  10.456   2.273  0.5376  0.1724  0.6445
 1020MOL0     O37624  10.726  10.543   2.233 -0.0639 -0.6098  0.4461
 1020MOL0     C37625  10.759  10.651   2.332  0.0564  0.1081  1.1464
 1020MOL0     C37626  10.908  10.685   2.310 -0.6541  0.0417  0.4123
 1020MOL0     C37627  10.949  10.802   2.417 -0.5005  0.1868  0.5959
 1020MOL0     C37628  10.883  10.935   2.388 -0.2070  0.5771  0.2796
 1020MOL0     C37629  10.951  11.026   2.471 -0.6443  0.1089  0.4894
 1020MOL0     C37630  11.015  11.112   2.527  0.0299 -0.6964 -0.1994
 1020MOL0     C37631  10.647  10.322   2.241  0.4643  0.4650 -0.3821
 1020MOL0     C37632  10.556  10.226   2.274 -0.0274 -0.5143 -0.0355
 1020MOL0     H37633  10.209   9.939   2.148  0.3462 -0.2556  0.1129
 1020MOL0     H37634  10.071   9.728   2.161 -1.0775  0.7205 -0.3476
 1020MOL0     H37635   9.948   9.574   2.186  0.0069 -0.0035 -0.3316
 1020MOL0     H37636  10.082   9.485   2.243 -1.0209 -1.8780 -0.7094
 1020MOL0     H37637   9.884   9.336   2.248 -3.6192 -0.4305  0.7624
 1020MOL0     H37638   9.936   9.369   2.412 -1.3249 -2.5009 -0.0459
 1020MOL0     H37639   9.717   9.381   2.393  2.0009 -1.1989 -0.4985
 1020MOL0     H37640   9.769   9.553   2.417 -0.0587  0.8156 -1.3048
 1020MOL0     H37641   9.727   9.600   2.170  1.8936 -2.1464 -3.1598
 1020MOL0     H37642   9.676   9.428   2.161 -1.2887 -1.4807  2.6217
 1020MOL0     H37643   9.560   9.624   2.358 -1.6665  1.8469 -0.9045
 1020MOL0     H37644   9.518   9.631   2.184 -1.0071 -2.7453 -1.2164
 1020MOL0     H37645   9.439   9.396   2.189  1.9269 -0.2010 -0.1881
 1020MOL0     H37646   9.500   9.360   2.342 -2.1487 -2.3434 -2.7991
 1020MOL0     H37647   9.356   9.536   2.444  0.6366 -1.7847  0.4867
 1020MOL0     H37648   9.297   9.589   2.289  2.4827 -0.1436 -0.2802
 1020MOL0     H37649   9.274   9.296   2.386 -1.7377 -0.7546 -0.8657
 1020MOL0     H37650   9.189   9.354   2.251  0.4568 -1.4699 -0.2413
 1020MOL0     H37651   8.994   9.548   2.289  2.3997 -1.1213 -0.4364
 1020MOL0     H37652   8.817   9.665   2.588 -1.8444  0.9016 -0.6305
 1020MOL0     H37653   8.801   9.675   2.425 -0.3006  3.4227  2.2096
 1020MOL0     H37654   8.676   9.448   2.432  0.8140 -0.5031  0.3097
 1020MOL0     H37655   8.603   9.601   2.511  0.1245 -0.2744 -3.5975
 1020MOL0     H37656   8.698   9.502   2.729  0.4672  1.2817  0.0658
 1020MOL0     H37657   8.731   9.356   2.638  0.6086  1.0030 -1.6110
 1020MOL0     H37658   8.522   9.306   2.746  0.0156 -2.8452 -2.9270
 1020MOL0     H37659   8.492   9.348   2.572  2.5434  2.3155 -1.3414
 1020MOL0     H37660   8.289   9.303   2.592  1.7343  2.2065 -0.4496
 1020MOL0     H37661   7.981   9.196   2.687 -0.5277 -0.4231 -0.4538
 1020MOL0     H37662   7.963   9.278   2.520 -1.1790 -0.5664  0.5615
 1020MOL0     H37663   8.107   9.188   2.561 -3.0375 -3.6768 -0.3588
 1020MOL0     H37664   7.744   9.157   2.665 -0.8438 -2.5140 -0.1032
 1020MOL0     H37665   7.516   9.070   2.709  2.2423 -0.6269 -0.1415
 1020MOL0     H37666   7.300   9.333   2.936 -0.2698 -1.3715  0.6945
 1020MOL0     H37667   7.171   9.366   2.818 -0.3345 -0.4212 -0.0385
 1020MOL0     H37668   7.065   9.160   2.868 -0.3076  3.3077 -1.7040
 1020MOL0     H37669   7.201   9.117   2.977 -2.7875 -1.4257  0.5734
 1020MOL0     H37670   6.998   9.343   3.006  1.0951 -0.5195 -1.1229
 1020MOL0     H37671   7.122   9.319   3.126 -1.1585  0.6327  0.3639
 1020MOL0     H37672   6.937   9.080   3.049 -0.0674  1.0753 -0.9736
 1020MOL0     H37673   7.055   9.082   3.165  1.7172 -0.4825 -2.4444
 1020MOL0     H37674   6.896   9.257   3.297  4.6361 -1.1139 -0.0407
 1020MOL0     H37675   6.826   9.103   3.274  0.5516 -0.3771  1.3620
 1020MOL0     H37676   6.774   9.347   3.102 -3.8752  0.9047  0.9541
 1020MOL0     H37677   6.756   9.189   3.034  3.5454 -3.1752  1.6776
 1020MOL0     H37678   6.547   9.294   3.126  0.3495 -0.7969 -0.9806
 1020MOL0     H37679   6.625   9.311   3.288 -0.6599  0.8924 -1.0592
 1020MOL0     H37680   6.601   9.063   3.317  0.3101 -1.9788 -0.6269
 1020MOL0     H37681   6.575   9.041   3.140 -2.2053  0.6571 -1.8444
 1020MOL0     H37682   7.374   9.486   2.762 -0.2705 -0.2294  0.3092
 1020MOL0     H37683   7.611   9.553   2.712  0.6407 -0.7057 -2.6102
 1020MOL0     H37684   8.051   9.676   2.809  1.3901 -0.1878  0.0368
 1020MOL0     H37685   8.298   9.674   2.781  1.1205 -1.8876 -0.7713
 1020MOL0     H37686  10.116   9.742   2.586  1.6864 -1.9430  0.5591
 1020MOL0     H37687  10.274   9.941   2.567  1.1828 -3.1606  2.2384
 1020MOL0     H37688  10.341  10.419   2.433  1.7729  2.9517  1.2835
 1020MOL0     H37689  10.503  10.595   2.383 -0.0849  2.2108 -1.9373
 1020MOL0     H37690  10.707  10.746   2.310  2.7170  1.3176 -0.4314
 1020MOL0     H37691  10.731  10.619   2.432 -1.4280 -1.2729  0.3334
 1020MOL0     H37692  10.923  10.721   2.208 -1.4142 -2.1474 -0.5461
 1020MOL0     H37693  10.974  10.600   2.332 -1.4379 -0.5883  0.4067
 1020MOL0     H37694  11.058  10.811   2.405 -0.3717 -0.1812  1.4414
 1020MOL0     H37695  10.916  10.771   2.516 -3.2081 -0.8327 -0.5366
 1020MOL0     H37696  10.782  10.930   2.428 -1.5086 -0.4408 -2.8106
 1020MOL0     H37697  10.897  10.955   2.281  0.8122 -1.8104 -0.1082
 1020MOL0     H37698  11.065  11.187   2.585 -0.8846 -0.7912  0.7472
 1020MOL0     H37699  10.738  10.302   2.187  0.7378 -1.1660  0.5947
 1020MOL0     H37700  10.576  10.127   2.237  0.3249 -0.0197 -1.2028
 1021MOL0     O37701   2.321   9.644   8.631  0.1202 -0.0256 -0.3299
 1021MOL0     C37702   2.435   9.648   8.675  0.2955 -0.7769  0.3199
 1021MOL0     O37703   2.459   9.650   8.807 -0.4300 -0.3808  0.0097
 1021MOL0     C37704   2.363   9.674   8.903 -0.5203 -0.2836  0.3332
 1021MOL0     C37705   2.405   9.734   9.017 -0.1947 -0.8308 -0.5489
 1021MOL0     C37706   2.307   9.763   9.123 -1.1499 -0.6559  0.3167
 1021MOL0     C37707   2.176   9.723   9.112  0.1712 -0.3101 -0.7584
 1021MOL0     O37708   2.093   9.738   9.219  0.0817  0.0121 -0.3264
 1021MOL0     C37709   1.950   9.715   9.204 -0.4185  0.0185 -0.6069
 1021MOL0     C37710   1.873   9.800   9.099  0.0543 -0.2727  0.2593
 1021MOL0     C37711   1.724   9.797   9.141  0.5865  0.3959  0.0488
 1021MOL0     C37712   1.632   9.884   9.049  0.0035 -0.0932 -0.2732
 1021MOL0     C37713   1.497   9.904   9.116  0.3094  0.4182 -0.6294
 1021MOL0     C37714   1.408   9.984   9.024 -0.0795 -0.2037  0.0260
 1021MOL0     C37715   1.266  10.022   9.072  0.2846 -0.0356 -0.3440
 1021MOL0     C37716   1.212  10.154   9.007  0.6715 -0.3579  0.3289
 1021MOL0     N37717   1.072  10.181   9.056 -1.4100  0.1509  0.0156
 1021MOL0     C37718   1.051  10.270   9.161 -0.0289  0.2759  0.1165
 1021MOL0     C37719   0.916  10.261   9.187 -0.1142  0.6734  0.2561
 1021MOL0     C37720   0.851  10.321   9.299 -0.2588 -0.0505 -0.1051
 1021MOL0     C37721   0.719  10.375   9.249  0.1209 -0.0145 -0.1171
 1021MOL0     C37722   0.663  10.457   9.374 -0.4361  0.8393  0.0301
 1021MOL0     C37723   0.551  10.530   9.329 -0.4071 -0.0711  0.0005
 1021MOL0     O37724   0.471  10.588   9.437  0.3557  0.1671  0.0361
 1021MOL0     C37725   0.344  10.631   9.409 -0.0443 -0.8075 -0.6467
 1021MOL0     C37726   0.280  10.701   9.520  0.3355 -0.3570  0.0045
 1021MOL0     C37727   0.152  10.748   9.515  0.2465 -0.4049 -0.0023
 1021MOL0     C37728   0.102  10.812   9.646 -0.1634  0.8069 -0.0867
 1021MOL0     C37729   0.076  10.725   9.397 -0.4380  0.0749  0.8967
 1021MOL0     C37730  -0.070  10.758   9.386  0.1728 -0.3877  0.7343
 1021MOL0     O37731  -0.115  10.769   9.257 -0.2554  0.4694  0.2627
 1021MOL0     C37732  -0.253  10.783   9.240 -0.2124 -0.0207 -0.3658
 1021MOL0     C37733  -0.335  10.673   9.264 -0.7130  0.1303 -0.2748
 1021MOL0     C37734  -0.468  10.669   9.229  0.9458 -0.5736 -0.1982
 1021MOL0     C37735  -0.524  10.791   9.184  0.4569  0.8280 -0.4162
 1021MOL0     O37736  -0.664  10.784   9.158  0.1285 -0.7381 -0.5540
 1021MOL0     C37737  -0.737  10.900   9.183  0.1606  0.0923 -0.5551
 1021MOL0     C37738  -0.871  10.895   9.109 -0.2078 -0.0340 -0.0900
 1021MOL0     C37739  -0.955  10.761   9.111  0.6493  0.0386  0.0551
 1021MOL0     C37740  -1.086  10.795   9.038  0.4272  0.1071  0.3439
 1021MOL0     C37741  -1.162  10.666   9.018 -0.6878  0.8512 -0.5281
 1021MOL0     C37742  -1.312  10.705   8.971 -0.4284 -0.0825 -0.8982
 1021MOL0     C37743  -1.398  10.580   8.943 -0.4990  0.3802  0.4839
 1021MOL0     C37744  -1.529  10.613   8.875 -0.3662 -0.2987  0.2757
 1021MOL0    Cl37745  -1.598  10.775   8.915  0.2927  0.2539 -0.0250
 1021MOL0     C37746  -0.440  10.902   9.149 -0.8566  0.2676 -0.7829
 1021MOL0     C37747  -0.304  10.891   9.170  0.3313 -0.1002 -0.4782
 1021MOL0     O37748  -0.139  10.755   9.486  0.1961  0.5108  0.4792
 1021MOL0     C37749   0.144  10.671   9.288  0.1880  0.3077 -0.4813
 1021MOL0     C37750   0.269  10.620   9.290 -0.3006  0.3335 -0.7138
 1021MOL0     N37751   0.859  10.172   9.090  0.2545  0.3226  0.3120
 1021MOL0     N37752   0.952  10.124   9.013 -0.1732  0.4056 -0.3822
 1021MOL0     C37753   2.140   9.652   8.995  0.6339 -0.1596  0.1783
 1021MOL0     C37754   2.232   9.620   8.904 -0.0486  0.2123  0.0650
 1021MOL0     C37755   2.550   9.619   8.581  0.0297 -0.1382  0.2109
 1021MOL0     C37756   2.684   9.609   8.627  0.2201 -0.6309  0.2559
 1021MOL0     C37757   2.780   9.574   8.535 -0.1019  1.2342 -0.0278
 1021MOL0     C37758   2.758   9.533   8.399  0.1309  0.5175 -1.2364
 1021MOL0     O37759   2.846   9.489   8.308  0.3412  0.2066 -0.1605
 1021MOL0     C37760   2.983   9.488   8.342 -0.4482 -1.3997 -0.2289
 1021MOL0     C37761   3.064   9.473   8.207 -1.1088  0.1565  0.8740
 1021MOL0     C37762   3.219   9.530   8.207 -0.2785  0.5119 -0.3983
 1021MOL0     C37763   3.297   9.457   8.309 -0.4088  0.3469 -0.7097
 1021MOL0     C37764   3.442   9.475   8.290  0.0887 -0.4021 -0.1263
 1021MOL0     C37765   3.563   9.472   8.276 -0.4189  0.2675 -0.3833
 1021MOL0     C37766   2.626   9.547   8.362  0.3438  0.5733 -0.2636
 1021MOL0     C37767   2.521   9.596   8.452  0.0613 -0.7772  0.0807
 1021MOL0     H37768   2.507   9.769   9.022  0.0829 -1.5768 -0.8117
 1021MOL0     H37769   2.344   9.803   9.217  0.3294 -2.3966  0.5384
 1021MOL0     H37770   1.932   9.608   9.192  0.6578 -0.0906 -1.3466
 1021MOL0     H37771   1.905   9.733   9.303 -1.0355  0.0015 -0.8793
 1021MOL0     H37772   1.917   9.899   9.111  0.0436 -0.2801  0.3669
 1021MOL0     H37773   1.878   9.769   8.995  0.7037 -0.0441  0.2181
 1021MOL0     H37774   1.703   9.690   9.133  3.4304 -0.1708 -0.8457
 1021MOL0     H37775   1.718   9.834   9.243 -0.6491  1.1389 -0.2732
 1021MOL0     H37776   1.680   9.981   9.035 -2.1252  0.8305 -1.5842
 1021MOL0     H37777   1.627   9.839   8.950  0.4950 -1.4030  0.2696
 1021MOL0     H37778   1.457   9.807   9.149 -3.8711  2.3274  0.4732
 1021MOL0     H37779   1.507   9.960   9.209  1.8450  1.4679 -1.3904
 1021MOL0     H37780   1.460  10.078   9.003  4.9171 -1.9781  2.7666
 1021MOL0     H37781   1.401   9.931   8.928  1.6139  0.7416 -0.6715
 1021MOL0     H37782   1.194   9.944   9.046 -1.2118  0.7181  1.3503
 1021MOL0     H37783   1.265  10.031   9.181 -1.9958 -0.5522 -0.2654
 1021MOL0     H37784   1.197  10.140   8.899 -0.4782  1.5823  0.1741
 1021MOL0     H37785   1.282  10.238   9.018  0.6138 -0.5207  2.1952
 1021MOL0     H37786   1.125  10.332   9.212  0.1874 -0.4211  0.6586
 1021MOL0     H37787   0.832  10.251   9.381 -2.0456 -0.3160 -0.7056
 1021MOL0     H37788   0.915  10.402   9.334 -2.4617  1.5813  0.3804
 1021MOL0     H37789   0.648  10.296   9.221  0.6083  0.0528 -1.6277
 1021MOL0     H37790   0.725  10.444   9.164 -0.2704 -0.9210 -0.9014
 1021MOL0     H37791   0.737  10.529   9.408  0.5580 -0.3229  0.4248
 1021MOL0     H37792   0.643  10.389   9.457  1.0756 -0.6120 -0.7242
 1021MOL0     H37793   0.495  10.463   9.262  1.5029 -0.2700 -1.4790
 1021MOL0     H37794   0.582  10.613   9.266 -0.1956  0.0691  0.2892
 1021MOL0     H37795   0.342  10.724   9.606  2.3026 -1.1767 -1.1282
 1021MOL0     H37796   0.012  10.873   9.631 -0.0592  0.8279 -0.6393
 1021MOL0     H37797   0.082  10.737   9.724 -0.4234  0.5422 -0.4018
 1021MOL0     H37798   0.184  10.869   9.691 -0.2140 -0.4038  1.6344
 1021MOL0     H37799  -0.287  10.590   9.316 -0.9004  0.4426  0.4045
 1021MOL0     H37800  -0.534  10.587   9.258  0.8274 -0.3624  0.1354
 1021MOL0     H37801  -0.762  10.907   9.290 -0.4885 -1.5306 -0.5687
 1021MOL0     H37802  -0.688  10.993   9.155 -1.4142  1.6089  1.4040
 1021MOL0     H37803  -0.938  10.971   9.152  0.8136  0.8096  0.0490
 1021MOL0     H37804  -0.854  10.926   9.005  1.0779 -0.0540  0.0996
 1021MOL0     H37805  -0.974  10.733   9.215 -2.1468  0.9999 -0.0899
 1021MOL0     H37806  -0.900  10.677   9.067 -1.7153 -0.8611 -1.3818
 1021MOL0     H37807  -1.146  10.860   9.102  0.4064  0.6979 -0.2625
 1021MOL0     H37808  -1.064  10.839   8.941 -1.9414  5.0626  1.7623
 1021MOL0     H37809  -1.165  10.607   9.110  0.7741  1.3576 -0.1214
 1021MOL0     H37810  -1.116  10.608   8.937 -1.9938 -1.1416  0.0938
 1021MOL0     H37811  -1.361  10.756   9.055 -0.6093  0.7715 -1.5173
 1021MOL0     H37812  -1.316  10.777   8.890 -0.8957  2.0926  0.9516
 1021MOL0     H37813  -1.425  10.542   9.041 -0.5777 -0.6943  0.0617
 1021MOL0     H37814  -1.341  10.506   8.887 -1.4038  1.4584 -2.0237
 1021MOL0     H37815  -1.599  10.534   8.903 -0.7920 -0.1859 -0.4341
 1021MOL0     H37816  -1.511  10.608   8.767 -0.9587  0.4976  0.1367
 1021MOL0     H37817  -0.479  10.987   9.095 -0.2948  0.2008 -1.3019
 1021MOL0     H37818  -0.235  10.969   9.140 -0.9518  0.4101 -2.2688
 1021MOL0     H37819   0.101  10.670   9.188  1.3914 -0.2786 -1.0035
 1021MOL0     H37820   0.307  10.578   9.197  2.7201 -2.0655  1.3649
 1021MOL0     H37821   2.039   9.613   8.987  0.1143  0.8500  1.4336
 1021MOL0     H37822   2.198   9.556   8.822  1.2829 -0.3547 -0.0671
 1021MOL0     H37823   2.721   9.634   8.726  0.4108 -0.0779  0.0488
 1021MOL0     H37824   2.884   9.577   8.564 -0.2518 -1.3142  1.1110
 1021MOL0     H37825   3.001   9.588   8.383 -1.7555  0.4674 -3.7412
 1021MOL0     H37826   3.011   9.405   8.407 -1.5925 -1.6238 -0.0153
 1021MOL0     H37827   3.008   9.523   8.128 -1.8743 -1.1076  0.6007
 1021MOL0     H37828   3.056   9.367   8.182  1.0321  0.7415 -3.2045
 1021MOL0     H37829   3.233   9.633   8.241  3.0719 -0.2561  0.9248
 1021MOL0     H37830   3.257   9.509   8.107 -0.1800 -0.1695 -0.2234
 1021MOL0     H37831   3.288   9.350   8.290  0.4371  0.1519 -0.0928
 1021MOL0     H37832   3.270   9.465   8.414 -0.2642  1.2793 -0.7342
 1021MOL0     H37833   3.669   9.477   8.266 -0.3127  2.1450  0.9804
 1021MOL0     H37834   2.593   9.524   8.261  0.4397 -1.5568  0.1484
 1021MOL0     H37835   2.423   9.610   8.409  0.6716  1.7307 -0.6348
 1022MOL0     O37836   4.324   2.671  10.017 -0.1925  0.0621  0.4732
 1022MOL0     C37837   4.254   2.571  10.001  0.0376  0.6215  0.9366
 1022MOL0     O37838   4.132   2.564  10.029  0.1142 -0.0572 -0.0321
 1022MOL0     C37839   4.077   2.657  10.113  0.0888  0.3620  0.5634
 1022MOL0     C37840   4.058   2.636  10.246 -0.7247  0.6312 -0.0245
 1022MOL0     C37841   3.983   2.722  10.321  0.2912 -0.0951  0.1415
 1022MOL0     C37842   3.917   2.832  10.258 -0.3751  0.2884  0.2084
 1022MOL0     O37843   3.827   2.903  10.336  0.3169  0.7722 -0.0526
 1022MOL0     C37844   3.751   3.008  10.267 -0.1607  0.7918 -0.1332
 1022MOL0     C37845   3.643   3.073  10.368  0.3716  0.3989 -0.3225
 1022MOL0     C37846   3.518   2.989  10.387  0.2869  0.2059 -0.2591
 1022MOL0     C37847   3.416   3.048  10.486  0.3334 -0.7023  0.9808
 1022MOL0     C37848   3.295   2.964  10.482 -0.2256  0.3118 -0.1741
 1022MOL0     C37849   3.190   3.007  10.584 -0.1111 -0.3550  0.6747
 1022MOL0     C37850   3.155   3.155  10.579  0.0358  0.6960  0.9606
 1022MOL0     C37851   3.017   3.194  10.642  0.8059  0.5491  0.0987
 1022MOL0     N37852   2.979   3.329  10.597  0.1780  0.1175 -0.1606
 1022MOL0     C37853   2.851   3.368  10.553  0.1645 -0.6542  0.1170
 1022MOL0     C37854   2.871   3.494  10.513  0.7655  0.0858 -0.2030
 1022MOL0     C37855   2.775   3.576  10.430  0.1118 -0.2212 -0.2854
 1022MOL0     C37856   2.845   3.650  10.322 -0.2734  0.6744 -0.6457
 1022MOL0     C37857   2.773   3.758  10.256  0.3498 -0.1851 -0.6455
 1022MOL0     C37858   2.646   3.711  10.185 -0.3609 -0.1388 -0.6284
 1022MOL0     O37859   2.607   3.818  10.096  0.4083  0.9874  0.4271
 1022MOL0     C37860   2.483   3.803  10.032  0.0820  0.1271 -0.7029
 1022MOL0     C37861   2.465   3.900   9.933  0.4415  0.0403  0.4885
 1022MOL0     C37862   2.350   3.906   9.850 -0.2828 -0.3312 -0.4439
 1022MOL0     C37863   2.361   4.007   9.737 -0.1530 -0.3964  0.8770
 1022MOL0     C37864   2.246   3.806   9.868 -0.2514 -0.0322 -0.3084
 1022MOL0     C37865   2.120   3.812   9.787  0.2734 -0.1803  0.0330
 1022MOL0     O37866   2.046   3.697   9.783 -0.4600  0.5964  0.6635
 1022MOL0     C37867   1.920   3.702   9.732  0.0666  1.3712 -0.0116
 1022MOL0     C37868   1.827   3.618   9.800 -0.7802  0.3692  0.0200
 1022MOL0     C37869   1.705   3.583   9.737  0.4509  0.7143 -0.5768
 1022MOL0     C37870   1.663   3.641   9.616 -0.0514  0.5619  0.6205
 1022MOL0     O37871   1.551   3.599   9.552  0.2411  0.3440  0.0235
 1022MOL0     C37872   1.447   3.539   9.627 -0.2860 -0.0600  0.0503
 1022MOL0     C37873   1.310   3.543   9.557  0.0961  0.4826  0.0358
 1022MOL0     C37874   1.204   3.499   9.651  0.1967  1.3288  0.1320
 1022MOL0     C37875   1.076   3.466   9.575 -0.5515 -0.0854 -0.6486
 1022MOL0     C37876   0.960   3.449   9.668  0.5540  0.5127 -0.2095
 1022MOL0     C37877   0.962   3.307   9.710  1.1477 -0.4129  0.3090
 1022MOL0     C37878   0.843   3.288   9.816 -0.8300  0.4890  0.1921
 1022MOL0     C37879   0.701   3.294   9.772 -0.0002 -0.2142  0.3744
 1022MOL0    Cl37880   0.664   3.146   9.672  0.1184  0.1831 -0.3088
 1022MOL0     C37881   1.761   3.729   9.553 -0.2698 -0.4399  0.6191
 1022MOL0     C37882   1.883   3.760   9.613 -0.0660  0.3754  0.2439
 1022MOL0     O37883   2.089   3.922   9.733  0.6930  0.7523  0.0311
 1022MOL0     C37884   2.277   3.699   9.950 -0.9935 -0.1498 -0.0829
 1022MOL0     C37885   2.396   3.698  10.033 -0.1171 -0.2910  0.0012
 1022MOL0     N37886   2.996   3.540  10.553  0.0677  0.0740 -1.7157
 1022MOL0     N37887   3.057   3.440  10.608  1.0961  0.0272  0.7418
 1022MOL0     C37888   3.943   2.854  10.122 -0.7350  0.0230 -0.3815
 1022MOL0     C37889   4.011   2.756  10.052  0.0963 -0.4162 -0.6633
 1022MOL0     C37890   4.319   2.466   9.911 -0.3839 -0.7182  0.5088
 1022MOL0     C37891   4.244   2.367   9.847 -0.3353 -0.6409  0.4682
 1022MOL0     C37892   4.304   2.268   9.768 -0.0989 -0.2470 -0.6851
 1022MOL0     C37893   4.446   2.262   9.753 -0.9959 -0.1920 -0.5059
 1022MOL0     O37894   4.492   2.167   9.668 -0.3201  0.4099 -0.5495
 1022MOL0     C37895   4.627   2.136   9.651 -0.2341  0.3317  0.2377
 1022MOL0     C37896   4.647   2.025   9.548  0.0476 -0.5719 -0.1109
 1022MOL0     C37897   4.548   1.912   9.570 -0.2310  0.0678 -1.2779
 1022MOL0     C37898   4.558   1.811   9.452  0.5030 -0.2477  0.8185
 1022MOL0     C37899   4.458   1.711   9.465  0.2977  0.4276  0.0507
 1022MOL0     C37900   4.365   1.633   9.496 -0.1365 -1.0862 -0.3245
 1022MOL0     C37901   4.521   2.355   9.826 -0.1169  0.6632 -0.4123
 1022MOL0     C37902   4.459   2.459   9.898 -0.8622 -1.0461 -0.3086
 1022MOL0     H37903   4.111   2.549  10.282  0.0682  1.9738  2.2241
 1022MOL0     H37904   3.958   2.704  10.425 -1.2482  0.3430 -0.1292
 1022MOL0     H37905   3.818   3.088  10.234  2.5415 -0.9379  0.8118
 1022MOL0     H37906   3.688   2.969  10.187 -1.7823  0.8338  1.0487
 1022MOL0     H37907   3.687   3.087  10.467 -0.5969  1.9951 -0.0817
 1022MOL0     H37908   3.621   3.168  10.319  0.4158  0.6464  0.1294
 1022MOL0     H37909   3.452   2.990  10.300 -0.2693  0.1815  0.1571
 1022MOL0     H37910   3.551   2.888  10.416 -0.1224 -0.0716 -0.7321
 1022MOL0     H37911   3.465   3.058  10.583  1.4435 -1.9555  0.5874
 1022MOL0     H37912   3.380   3.145  10.451 -0.9648 -1.3178  0.5449
 1022MOL0     H37913   3.239   2.963  10.388 -1.4742  1.5578  0.5159
 1022MOL0     H37914   3.323   2.860  10.502 -1.3062 -0.5546 -2.8208
 1022MOL0     H37915   3.103   2.942  10.577  0.8935 -1.7426  0.8290
 1022MOL0     H37916   3.228   2.982  10.684 -2.5540 -1.1614  1.4634
 1022MOL0     H37917   3.237   3.213  10.624  1.4066 -1.2882  1.1306
 1022MOL0     H37918   3.157   3.185  10.474 -0.9444  0.7087  0.9303
 1022MOL0     H37919   3.018   3.205  10.751  1.3135  2.0160 -0.0283
 1022MOL0     H37920   2.941   3.123  10.609  3.0729 -2.1034  0.1733
 1022MOL0     H37921   2.764   3.303  10.547  2.0105 -3.1818 -1.8196
 1022MOL0     H37922   2.695   3.514  10.390  0.2928 -0.1863 -0.7004
 1022MOL0     H37923   2.733   3.634  10.513  2.8739 -0.5377  1.4755
 1022MOL0     H37924   2.878   3.573  10.251 -0.6852 -1.4216  1.3507
 1022MOL0     H37925   2.937   3.697  10.359 -1.3585  2.1937  0.2439
 1022MOL0     H37926   2.831   3.813  10.181 -0.6716  1.0950 -0.5289
 1022MOL0     H37927   2.736   3.833  10.326  1.4401  1.9748 -2.2563
 1022MOL0     H37928   2.572   3.695  10.265  0.2419  1.5570  0.3262
 1022MOL0     H37929   2.655   3.617  10.130  0.0790 -0.7090  0.3874
 1022MOL0     H37930   2.532   3.985   9.921 -0.8971  1.2724  1.2789
 1022MOL0     H37931   2.448   4.073   9.736  0.5748 -1.1297 -3.4727
 1022MOL0     H37932   2.376   3.967   9.637  0.2041  4.8402 -1.4569
 1022MOL0     H37933   2.272   4.071   9.737 -1.8481 -2.5880 -0.4381
 1022MOL0     H37934   1.859   3.560   9.886 -1.9026 -0.0113  0.2013
 1022MOL0     H37935   1.638   3.513   9.786  1.2210  0.6630  0.4387
 1022MOL0     H37936   1.477   3.435   9.637 -1.1747 -0.4075 -0.8349
 1022MOL0     H37937   1.435   3.587   9.725  1.3611  0.3470  0.0823
 1022MOL0     H37938   1.283   3.645   9.529  0.7369  1.1019  1.5513
 1022MOL0     H37939   1.323   3.487   9.464  0.0544  1.2614 -0.4506
 1022MOL0     H37940   1.181   3.571   9.731 -3.3148  0.6700 -0.1058
 1022MOL0     H37941   1.241   3.410   9.702  1.9934  1.4298 -0.9161
 1022MOL0     H37942   1.058   3.554   9.513 -0.3226  1.1729  1.0002
 1022MOL0     H37943   1.102   3.377   9.517 -0.4474 -0.8731  0.5694
 1022MOL0     H37944   0.870   3.475   9.613  1.0854  1.7946 -0.5068
 1022MOL0     H37945   0.956   3.506   9.761  1.0729 -1.5665  1.1587
 1022MOL0     H37946   0.952   3.247   9.619 -0.5784 -0.7754  0.6987
 1022MOL0     H37947   1.052   3.278   9.766  1.1388 -0.0506  0.5147
 1022MOL0     H37948   0.847   3.360   9.899 -3.0505 -1.4522  2.1566
 1022MOL0     H37949   0.863   3.184   9.842  0.5685  0.3686 -1.2371
 1022MOL0     H37950   0.679   3.384   9.714 -0.0427 -0.0761  0.6037
 1022MOL0     H37951   0.631   3.292   9.856 -1.1791 -0.7482 -0.5827
 1022MOL0     H37952   1.731   3.752   9.451 -2.6849  0.2543  1.4279
 1022MOL0     H37953   1.953   3.815   9.552 -1.4758  1.2013 -0.6981
 1022MOL0     H37954   2.208   3.615   9.956 -1.2083 -0.2036 -2.4887
 1022MOL0     H37955   2.408   3.619  10.106 -0.2309  1.2112  1.7220
 1022MOL0     H37956   3.887   2.925  10.062 -2.2938 -1.2086 -0.4659
 1022MOL0     H37957   4.018   2.776   9.946 -0.5786  2.8583 -0.2052
 1022MOL0     H37958   4.137   2.352   9.855 -0.7412  1.3249 -0.7801
 1022MOL0     H37959   4.234   2.197   9.724 -0.0653  0.4410 -1.8795
 1022MOL0     H37960   4.691   2.219   9.618  1.5708 -1.3589 -0.6829
 1022MOL0     H37961   4.664   2.109   9.750 -0.7613 -2.3733 -0.2437
 1022MOL0     H37962   4.740   1.970   9.562 -0.7650 -2.0431 -0.2721
 1022MOL0     H37963   4.646   2.072   9.449  2.7556  3.2271  1.4121
 1022MOL0     H37964   4.448   1.956   9.571  0.3877  1.8124 -4.2915
 1022MOL0     H37965   4.579   1.864   9.663  1.3858  0.2390 -1.6807
 1022MOL0     H37966   4.658   1.768   9.461  0.1108 -1.5749 -0.6015
 1022MOL0     H37967   4.557   1.854   9.351  0.3154 -3.9191 -0.9287
 1022MOL0     H37968   4.298   1.555   9.525  1.6971 -2.6049  0.0144
 1022MOL0     H37969   4.627   2.337   9.836 -0.2746 -0.1613 -0.1627
 1022MOL0     H37970   4.519   2.536   9.945 -3.3022  1.1537 -0.5176
 1023MOL0     O37971   3.717   4.859   6.402  0.1721  0.3393  0.0460
 1023MOL0     C37972   3.715   4.969   6.344  0.1098 -0.2551  0.5323
 1023MOL0     O37973   3.628   5.010   6.255 -0.3200  0.3087  0.4631
 1023MOL0     C37974   3.514   4.937   6.207 -0.1572  0.1814 -0.2528
 1023MOL0     C37975   3.415   5.014   6.152 -0.6904 -0.0423  0.3713
 1023MOL0     C37976   3.292   4.955   6.122  0.0661  0.3928 -0.0720
 1023MOL0     C37977   3.269   4.820   6.139  0.5627  0.4784  0.0837
 1023MOL0     O37978   3.135   4.783   6.119 -0.8167 -0.3903  0.0521
 1023MOL0     C37979   3.112   4.656   6.051 -0.0794  0.1012  0.1375
 1023MOL0     C37980   2.975   4.651   5.986 -0.4875  0.2183  0.1259
 1023MOL0     C37981   2.974   4.520   5.904  0.1913  0.3240  0.5017
 1023MOL0     C37982   2.826   4.506   5.860  0.0029 -0.2697  0.4872
 1023MOL0     C37983   2.792   4.360   5.830  0.0403  0.2760  0.0079
 1023MOL0     C37984   2.647   4.336   5.792 -0.4909 -0.3319 -0.2754
 1023MOL0     C37985   2.558   4.329   5.917  0.4769 -0.6326 -0.4159
 1023MOL0     C37986   2.437   4.234   5.898 -0.6300  0.2035 -0.1647
 1023MOL0     N37987   2.310   4.307   5.907  0.1807  0.3244 -1.0173
 1023MOL0     C37988   2.270   4.377   6.020 -0.2861 -0.4520  0.3824
 1023MOL0     C37989   2.167   4.459   5.966 -0.8375 -0.2142 -0.2092
 1023MOL0     C37990   2.075   4.530   6.055  0.4954  0.2573  0.3648
 1023MOL0     C37991   1.927   4.506   6.008  0.1425  0.6677 -0.6175
 1023MOL0     C37992   1.843   4.526   6.133  0.7426  0.2709 -0.2711
 1023MOL0     C37993   1.697   4.510   6.101  0.4662  0.0124 -0.8547
 1023MOL0     O37994   1.612   4.569   6.207  0.0068 -0.4003 -0.3324
 1023MOL0     C37995   1.478   4.532   6.196  0.7643  0.1394 -0.0979
 1023MOL0     C37996   1.407   4.507   6.084  0.6093  0.3985 -0.4462
 1023MOL0     C37997   1.273   4.469   6.083 -0.8500  0.7695 -0.6025
 1023MOL0     C37998   1.216   4.446   5.944 -0.0459  0.5381  0.2991
 1023MOL0     C37999   1.205   4.457   6.207 -0.3918  0.3993  0.7113
 1023MOL0     C38000   1.059   4.431   6.225  0.8048  0.1511  0.2997
 1023MOL0     O38001   0.981   4.402   6.120  0.1908  0.5082 -0.5345
 1023MOL0     C38002   0.847   4.367   6.134 -0.0284  0.2694 -0.6001
 1023MOL0     C38003   0.760   4.406   6.030 -0.0581 -0.1355  0.5997
 1023MOL0     C38004   0.629   4.364   6.022  0.3744 -0.1275 -1.0323
 1023MOL0     C38005   0.579   4.266   6.111 -1.6730  0.4747 -0.2467
 1023MOL0     O38006   0.452   4.216   6.110  0.1174  0.3183 -0.5086
 1023MOL0     C38007   0.383   4.224   5.986  1.0192  0.0563 -0.1086
 1023MOL0     C38008   0.267   4.129   5.958 -1.0150  0.7412  0.1022
 1023MOL0     C38009   0.164   4.154   6.062 -0.3133 -0.8743 -0.9858
 1023MOL0     C38010   0.017   4.103   6.041  0.6392 -0.1425  0.6090
 1023MOL0     C38011  -0.047   4.180   5.925  0.5827 -0.5203  0.1663
 1023MOL0     C38012  -0.202   4.140   5.911  0.5264 -0.0018  0.2718
 1023MOL0     C38013  -0.261   4.248   5.826 -0.2372  0.3629  1.0370
 1023MOL0     C38014  -0.390   4.196   5.751  0.6841  0.3600 -0.7522
 1023MOL0    Cl38015  -0.498   4.111   5.867  0.0426 -0.0204 -0.5145
 1023MOL0     C38016   0.662   4.225   6.217 -0.1641 -0.4753 -0.6772
 1023MOL0     C38017   0.795   4.272   6.229  0.1506  0.3455  0.6394
 1023MOL0     O38018   1.015   4.430   6.346 -0.8463  0.2609  0.3323
 1023MOL0     C38019   1.286   4.479   6.326  0.4145 -0.3122  1.0366
 1023MOL0     C38020   1.421   4.507   6.321  1.0293  0.5746  0.6509
 1023MOL0     N38021   2.161   4.442   5.828  0.6484 -0.2661  0.4539
 1023MOL0     N38022   2.235   4.350   5.802 -0.4653 -0.1495  0.2857
 1023MOL0     C38023   3.366   4.738   6.202 -0.5790 -0.1826 -0.4268
 1023MOL0     C38024   3.489   4.800   6.224 -0.0987 -0.9953 -0.8317
 1023MOL0     C38025   3.828   5.059   6.366 -0.1563  0.3199 -0.3007
 1023MOL0     C38026   3.820   5.198   6.334 -0.1911 -0.2314  0.2980
 1023MOL0     C38027   3.933   5.286   6.363 -0.2873 -0.0031 -0.7797
 1023MOL0     C38028   4.055   5.238   6.416 -0.6995 -0.0518  0.5693
 1023MOL0     O38029   4.153   5.335   6.440  0.7382 -0.4126 -0.1342
 1023MOL0     C38030   4.286   5.304   6.490 -0.0182  0.1981 -0.3393
 1023MOL0     C38031   4.290   5.263   6.635 -0.4273  0.5375  0.4277
 1023MOL0     C38032   4.212   5.372   6.718  0.3390  0.0647 -0.7603
 1023MOL0     C38033   4.267   5.514   6.693 -0.2436  0.2795  0.9429
 1023MOL0     C38034   4.416   5.526   6.707 -0.4293 -0.6027 -0.4928
 1023MOL0     C38035   4.537   5.540   6.711  0.7788 -0.0763  0.5516
 1023MOL0     C38036   4.061   5.105   6.449  0.1960 -0.3702 -0.2171
 1023MOL0     C38037   3.953   5.020   6.415 -0.4018  0.0621 -0.4712
 1023MOL0     H38038   3.444   5.115   6.127  2.3728 -0.8234  0.4405
 1023MOL0     H38039   3.214   5.018   6.080 -0.5907  0.5691  1.3758
 1023MOL0     H38040   3.193   4.638   5.979  0.1717 -1.5613  0.8006
 1023MOL0     H38041   3.118   4.576   6.125  2.5829  0.2809  0.2067
 1023MOL0     H38042   2.904   4.652   6.069 -0.9369 -2.5313 -0.1519
 1023MOL0     H38043   2.950   4.737   5.922 -1.1380 -0.2258 -0.2248
 1023MOL0     H38044   3.040   4.535   5.818  3.1087  1.7144  2.7851
 1023MOL0     H38045   3.004   4.432   5.961 -0.5951 -1.4224 -1.6624
 1023MOL0     H38046   2.746   4.551   5.920  0.5819 -0.6384  1.5718
 1023MOL0     H38047   2.829   4.555   5.763  1.9796  2.8966  1.9987
 1023MOL0     H38048   2.854   4.333   5.744 -1.6896  1.8877 -1.8187
 1023MOL0     H38049   2.817   4.291   5.912 -0.6264  0.6013  0.4927
 1023MOL0     H38050   2.628   4.428   5.735  0.3163 -1.9982 -3.4920
 1023MOL0     H38051   2.629   4.251   5.726 -2.8850 -0.9515  1.0549
 1023MOL0     H38052   2.619   4.283   5.995 -0.7517 -2.3047 -0.3914
 1023MOL0     H38053   2.518   4.429   5.933  1.1522 -0.0860 -1.8746
 1023MOL0     H38054   2.436   4.151   5.969 -0.4485  1.6506  1.6026
 1023MOL0     H38055   2.443   4.181   5.802 -0.1567 -2.5938  1.3031
 1023MOL0     H38056   2.311   4.374   6.120  3.5560 -0.8044 -1.0173
 1023MOL0     H38057   2.101   4.507   6.159 -0.7335  0.1197  0.6605
 1023MOL0     H38058   2.096   4.637   6.053  1.5681  0.1730  3.1276
 1023MOL0     H38059   1.909   4.403   5.974 -1.6428  0.6299  0.3221
 1023MOL0     H38060   1.890   4.572   5.929  1.3816  0.1481 -1.6580
 1023MOL0     H38061   1.865   4.630   6.161  1.0899 -0.1552  1.1288
 1023MOL0     H38062   1.878   4.463   6.215  1.8191  2.1253  0.7695
 1023MOL0     H38063   1.675   4.404   6.086  2.1560 -0.3707 -0.8431
 1023MOL0     H38064   1.671   4.556   6.005 -2.7564  0.3384  0.0488
 1023MOL0     H38065   1.455   4.506   5.986 -0.8166 -0.0528 -1.1688
 1023MOL0     H38066   1.147   4.361   5.934 -0.6577  0.2813  4.6948
 1023MOL0     H38067   1.167   4.538   5.908  0.5503  0.1180 -1.7353
 1023MOL0     H38068   1.297   4.431   5.872  2.6890  0.9277  3.1238
 1023MOL0     H38069   0.794   4.466   5.946 -2.2053 -0.9853 -0.9860
 1023MOL0     H38070   0.574   4.405   5.938  0.1409  0.4124 -0.6230
 1023MOL0     H38071   0.336   4.323   5.978 -1.5512 -0.9079  1.8544
 1023MOL0     H38072   0.454   4.214   5.903  1.9459 -2.0011  0.8730
 1023MOL0     H38073   0.228   4.148   5.857 -1.3530  0.2815  0.1403
 1023MOL0     H38074   0.321   4.035   5.968  1.2061  1.9752  0.2222
 1023MOL0     H38075   0.160   4.260   6.091  0.4048 -1.0738 -0.1072
 1023MOL0     H38076   0.199   4.116   6.159  0.0589 -2.6140 -1.7719
 1023MOL0     H38077   0.019   3.996   6.019  0.0983  0.3176 -2.0958
 1023MOL0     H38078  -0.047   4.119   6.128 -0.6676  2.5931 -0.7214
 1023MOL0     H38079   0.001   4.157   5.830 -0.6849 -2.3525 -0.0713
 1023MOL0     H38080  -0.042   4.281   5.967 -2.3159 -0.8256  1.5444
 1023MOL0     H38081  -0.222   4.040   5.872 -0.1581 -0.6730  2.2602
 1023MOL0     H38082  -0.246   4.149   6.010  0.8259  3.5336  0.2318
 1023MOL0     H38083  -0.194   4.275   5.743  1.3468 -0.2783  2.0692
 1023MOL0     H38084  -0.282   4.339   5.882 -1.3055  0.2322  0.8656
 1023MOL0     H38085  -0.364   4.121   5.675 -0.7377  0.6401 -1.5456
 1023MOL0     H38086  -0.440   4.281   5.702 -0.5774  0.0814  0.0197
 1023MOL0     H38087   0.620   4.152   6.284  3.2175 -3.2776 -1.2997
 1023MOL0     H38088   0.858   4.236   6.310  0.3450 -1.0860 -0.1147
 1023MOL0     H38089   1.244   4.488   6.426 -1.9190  0.2125  0.0735
 1023MOL0     H38090   1.485   4.524   6.407  3.4114 -3.8275  0.0541
 1023MOL0     H38091   3.352   4.632   6.224 -0.4781 -0.1670 -0.2851
 1023MOL0     H38092   3.571   4.746   6.270  0.7474  0.6329 -0.3305
 1023MOL0     H38093   3.730   5.246   6.298  0.1047 -0.7304 -1.1731
 1023MOL0     H38094   3.923   5.392   6.343  0.8440  0.8109  2.2661
 1023MOL0     H38095   4.327   5.224   6.428  1.5240 -0.5463  1.5226
 1023MOL0     H38096   4.353   5.389   6.476  2.0551 -0.9749  1.5630
 1023MOL0     H38097   4.394   5.263   6.668 -0.7303 -3.9595  2.0158
 1023MOL0     H38098   4.253   5.161   6.636  0.9642  0.0053  1.9388
 1023MOL0     H38099   4.226   5.343   6.823  2.1461 -2.2826 -1.5746
 1023MOL0     H38100   4.105   5.378   6.696  0.2646  1.1062 -0.2092
 1023MOL0     H38101   4.207   5.587   6.748 -1.9949  0.9857 -1.7117
 1023MOL0     H38102   4.241   5.542   6.590  0.8293 -3.4634 -0.5274
 1023MOL0     H38103   4.642   5.553   6.729  0.4690 -0.2797  2.8312
 1023MOL0     H38104   4.141   5.054   6.503 -1.0370 -0.2305  1.8566
 1023MOL0     H38105   3.959   4.916   6.444  0.1452  0.7830  2.3354
 1024MOL0     O38106   8.001   5.826   0.294 -0.3760 -0.0537  0.0971
 1024MOL0     C38107   8.038   5.785   0.401  0.6229  0.2053 -0.6239
 1024MOL0     O38108   7.955   5.723   0.494  0.3427  0.3243  0.7942
 1024MOL0     C38109   7.847   5.653   0.445 -0.0582  0.2908 -0.2459
 1024MOL0     C38110   7.858   5.556   0.339  0.0884 -0.7597  0.1058
 1024MOL0     C38111   7.745   5.501   0.288 -0.1900 -0.4649  0.4844
 1024MOL0     C38112   7.614   5.531   0.338 -0.0363  0.9667  0.0223
 1024MOL0     O38113   7.498   5.494   0.262  1.0210  0.0602  0.9573
 1024MOL0     C38114   7.511   5.444   0.130  0.5835  0.6099  1.2434
 1024MOL0     C38115   7.383   5.397   0.065 -0.2627  0.2354  0.1610
 1024MOL0     C38116   7.305   5.305   0.160 -0.1517 -0.5534 -0.0005
 1024MOL0     C38117   7.160   5.282   0.101  0.4564  0.7532  0.3112
 1024MOL0     C38118   7.075   5.203   0.205 -0.1207  0.2327  0.5740
 1024MOL0     C38119   6.917   5.213   0.177 -0.5413  0.0256 -0.4348
 1024MOL0     C38120   6.839   5.128   0.277 -0.3237 -0.3172 -0.7991
 1024MOL0     C38121   6.697   5.104   0.233 -0.0845  0.3587  0.3754
 1024MOL0     N38122   6.616   5.227   0.215  0.9388 -0.9379  0.3452
 1024MOL0     C38123   6.590   5.317   0.321 -0.3420  0.4112 -0.1904
 1024MOL0     C38124   6.561   5.437   0.259 -0.4481 -0.6697 -0.6572
 1024MOL0     C38125   6.544   5.576   0.315  0.1813  0.0279  0.1015
 1024MOL0     C38126   6.572   5.603   0.466 -0.4753 -1.0797  0.3831
 1024MOL0     C38127   6.532   5.748   0.495  0.8130  0.4149 -0.8983
 1024MOL0     C38128   6.567   5.773   0.639 -0.2072 -0.9746  0.5471
 1024MOL0     O38129   6.493   5.691   0.721  0.3649 -0.0546  0.0572
 1024MOL0     C38130   6.369   5.736   0.759 -0.2004  0.2059  0.4100
 1024MOL0     C38131   6.298   5.844   0.716  1.0540  0.3143 -0.4166
 1024MOL0     C38132   6.172   5.868   0.765 -0.0100 -0.0115 -0.6428
 1024MOL0     C38133   6.096   5.980   0.696 -0.0555  0.0548  0.3647
 1024MOL0     C38134   6.111   5.780   0.856  0.7567  0.2388 -0.2607
 1024MOL0     C38135   5.976   5.802   0.907  0.2636  0.2270 -0.3764
 1024MOL0     O38136   5.945   5.745   1.022 -1.1504 -1.0487 -0.5769
 1024MOL0     C38137   5.832   5.780   1.091  0.1987  0.5887  0.1979
 1024MOL0     C38138   5.766   5.901   1.092  0.2825 -0.2753 -0.1050
 1024MOL0     C38139   5.665   5.928   1.184  1.0396  0.7256 -0.2009
 1024MOL0     C38140   5.620   5.833   1.278  0.4940  0.1899 -0.2495
 1024MOL0     O38141   5.529   5.869   1.365 -0.3779 -0.0442  0.1399
 1024MOL0     C38142   5.475   5.764   1.450  1.0330 -0.2434 -0.2507
 1024MOL0     C38143   5.335   5.804   1.506 -0.3815 -0.3195 -0.1603
 1024MOL0     C38144   5.289   5.700   1.610 -0.4571 -0.4131 -0.4772
 1024MOL0     C38145   5.167   5.739   1.687  0.9559 -0.3380  0.3533
 1024MOL0     C38146   5.121   5.664   1.808 -0.0684  0.5971 -0.5187
 1024MOL0     C38147   4.988   5.708   1.875 -0.4153 -0.2759  0.7062
 1024MOL0     C38148   4.950   5.630   1.993  0.4294 -0.0768 -0.0132
 1024MOL0     C38149   4.814   5.663   2.052  0.2985 -0.4918 -0.2825
 1024MOL0    Cl38150   4.684   5.614   1.936 -0.5294  0.0217  0.1257
 1024MOL0     C38151   5.693   5.712   1.278 -0.1042 -0.0050 -0.0371
 1024MOL0     C38152   5.798   5.690   1.190 -0.2291 -0.5196 -0.2638
 1024MOL0     O38153   5.896   5.845   0.823  0.1407  0.5287 -0.6271
 1024MOL0     C38154   6.187   5.670   0.899  0.3499 -0.2628 -0.8044
 1024MOL0     C38155   6.310   5.647   0.845 -0.1991 -1.4095  0.0458
 1024MOL0     N38156   6.564   5.417   0.126  0.1025 -0.1785  0.2187
 1024MOL0     N38157   6.592   5.295   0.099  0.1844 -0.0319 -0.0331
 1024MOL0     C38158   7.600   5.608   0.446 -0.0474 -0.0315 -0.3522
 1024MOL0     C38159   7.716   5.673   0.494  0.6801  0.0040 -0.3095
 1024MOL0     C38160   8.182   5.781   0.442 -0.5048  0.4489 -0.6313
 1024MOL0     C38161   8.273   5.858   0.367 -0.6889  0.8563 -0.6665
 1024MOL0     C38162   8.406   5.846   0.399  0.1747  0.1831 -0.7254
 1024MOL0     C38163   8.455   5.763   0.505 -0.5488  0.1452  0.6776
 1024MOL0     O38164   8.594   5.764   0.520  0.3758  0.0448 -1.0307
 1024MOL0     C38165   8.634   5.755   0.660  0.8589 -1.2819  0.5142
 1024MOL0     C38166   8.781   5.735   0.667  0.2354 -0.3390  0.2710
 1024MOL0     C38167   8.837   5.633   0.567  0.0116 -0.1542  0.0465
 1024MOL0     C38168   8.984   5.643   0.537 -0.5002 -0.0266  0.6623
 1024MOL0     C38169   9.066   5.644   0.658 -0.1544  0.1529 -0.0986
 1024MOL0     C38170   9.129   5.623   0.755  0.3909  0.3845 -0.9658
 1024MOL0     C38171   8.362   5.681   0.565  0.0212 -0.2423 -0.0222
 1024MOL0     C38172   8.233   5.693   0.529  0.4764 -0.0090  0.0637
 1024MOL0     H38173   7.954   5.531   0.295  0.0819  0.2761 -0.5420
 1024MOL0     H38174   7.765   5.440   0.201 -0.0388  1.3168 -0.7881
 1024MOL0     H38175   7.549   5.526   0.069  2.2094  1.7862  3.6606
 1024MOL0     H38176   7.583   5.362   0.128 -0.1909 -0.1186 -1.9836
 1024MOL0     H38177   7.327   5.490   0.046  0.7094  0.6618 -0.7103
 1024MOL0     H38178   7.391   5.348  -0.032 -1.1172 -1.7371  1.0442
 1024MOL0     H38179   7.347   5.204   0.162  2.9228  0.6080 -0.1809
 1024MOL0     H38180   7.289   5.347   0.259  0.7222 -1.3548  0.4963
 1024MOL0     H38181   7.118   5.372   0.055  0.3011 -0.0279 -1.1469
 1024MOL0     H38182   7.165   5.220   0.011 -1.6811  0.3457  0.4220
 1024MOL0     H38183   7.105   5.098   0.209 -1.9735 -0.3260  0.5689
 1024MOL0     H38184   7.086   5.245   0.305 -2.0391  1.7034  0.2177
 1024MOL0     H38185   6.895   5.320   0.184  3.1533  0.9052 -0.3509
 1024MOL0     H38186   6.900   5.173   0.077  3.3786  0.7316 -1.5637
 1024MOL0     H38187   6.892   5.034   0.294  0.4624  0.4746  1.5691
 1024MOL0     H38188   6.843   5.178   0.374 -0.3389 -0.1252 -0.8950
 1024MOL0     H38189   6.655   5.029   0.301  1.3179  0.5775  1.5545
 1024MOL0     H38190   6.701   5.062   0.133 -0.8410  1.0445  0.0437
 1024MOL0     H38191   6.607   5.293   0.426  0.9135 -0.9463 -0.6641
 1024MOL0     H38192   6.607   5.642   0.254 -0.9133  1.9062  0.9082
 1024MOL0     H38193   6.441   5.610   0.301  0.3242  0.7597  0.7101
 1024MOL0     H38194   6.679   5.600   0.488 -0.6881 -2.3390  1.3583
 1024MOL0     H38195   6.520   5.534   0.533  3.4521 -4.2881  0.4648
 1024MOL0     H38196   6.423   5.760   0.485  0.6557  0.0963  0.2501
 1024MOL0     H38197   6.582   5.820   0.430  1.4398 -0.1318 -1.0298
 1024MOL0     H38198   6.557   5.880   0.658 -3.9372 -1.5010  2.5536
 1024MOL0     H38199   6.673   5.749   0.650 -0.0191  0.0970  1.2467
 1024MOL0     H38200   6.342   5.906   0.638  0.1622 -0.8410 -1.9077
 1024MOL0     H38201   6.170   6.045   0.648  1.3236 -1.7799 -0.0991
 1024MOL0     H38202   6.042   5.938   0.611  1.8767 -0.4551 -0.6564
 1024MOL0     H38203   6.046   6.045   0.768  2.6379 -0.2565  2.7132
 1024MOL0     H38204   5.802   5.981   1.028  0.4259 -0.7471 -0.6232
 1024MOL0     H38205   5.637   6.033   1.191 -1.7801  0.0443 -0.1502
 1024MOL0     H38206   5.456   5.673   1.393  2.1117  0.0596 -1.1246
 1024MOL0     H38207   5.546   5.745   1.531  0.3050 -1.6726  0.0941
 1024MOL0     H38208   5.351   5.899   1.558 -0.2658  0.0208 -0.8104
 1024MOL0     H38209   5.261   5.807   1.425  1.6139  0.5473 -2.0603
 1024MOL0     H38210   5.376   5.675   1.671 -0.6306 -2.0796 -0.8556
 1024MOL0     H38211   5.271   5.609   1.553  1.9748 -1.8428  0.8403
 1024MOL0     H38212   5.178   5.846   1.710 -1.8216 -0.3055  1.8782
 1024MOL0     H38213   5.080   5.727   1.623  0.4845 -1.0092  1.0921
 1024MOL0     H38214   5.210   5.657   1.870 -1.5804 -1.5871  1.6145
 1024MOL0     H38215   5.106   5.558   1.784 -0.8257  1.0104 -1.9910
 1024MOL0     H38216   4.999   5.811   1.910  0.6420  0.1745 -0.8153
 1024MOL0     H38217   4.906   5.699   1.804  0.7916 -1.6328 -0.5915
 1024MOL0     H38218   5.029   5.645   2.067 -0.9961 -2.6801  2.2132
 1024MOL0     H38219   4.954   5.524   1.966 -1.7976  0.1228 -1.3874
 1024MOL0     H38220   4.826   5.770   2.065  0.4228 -0.5644  0.1998
 1024MOL0     H38221   4.807   5.610   2.148  0.8226 -0.9545 -0.4964
 1024MOL0     H38222   5.661   5.642   1.354  2.0982  0.7257  1.6971
 1024MOL0     H38223   5.856   5.598   1.187 -0.8709 -0.9121 -0.8721
 1024MOL0     H38224   6.148   5.610   0.981 -0.3662  0.3650 -0.6772
 1024MOL0     H38225   6.370   5.564   0.883 -1.3290 -2.3818 -0.2518
 1024MOL0     H38226   7.508   5.622   0.501 -0.1180  0.1462 -0.5115
 1024MOL0     H38227   7.695   5.744   0.574  3.4811  2.0153 -1.1737
 1024MOL0     H38228   8.242   5.932   0.294  3.9847  2.6150 -1.2517
 1024MOL0     H38229   8.471   5.910   0.339 -1.3113  0.0396 -2.6086
 1024MOL0     H38230   8.613   5.850   0.710  0.3512 -1.2176  0.1880
 1024MOL0     H38231   8.591   5.671   0.714 -0.3530 -0.9361  0.1318
 1024MOL0     H38232   8.806   5.708   0.770  1.3809  2.9070  0.9747
 1024MOL0     H38233   8.828   5.833   0.651 -2.2191  1.1438  1.3996
 1024MOL0     H38234   8.787   5.639   0.470 -0.9323 -0.0881  0.5182
 1024MOL0     H38235   8.812   5.532   0.601 -1.5545  0.6091  1.2781
 1024MOL0     H38236   9.003   5.732   0.478 -2.3179  0.4688  0.7743
 1024MOL0     H38237   9.004   5.552   0.479 -3.2109 -0.5930  0.5003
 1024MOL0     H38238   9.184   5.611   0.846  0.1659 -0.5876 -0.9443
 1024MOL0     H38239   8.397   5.606   0.635  0.0372 -0.8503 -0.6629
 1024MOL0     H38240   8.162   5.644   0.595  0.2542 -0.0539 -0.2097
  11.28132  11.28132  11.28132
